----- GAMESS execution script -----

          ******************************************************
          *         GAMESS VERSION =  5 DEC 2014 (R1)          *
          *             FROM IOWA STATE UNIVERSITY             *
          * M.W.SCHMIDT, K.K.BALDRIDGE, J.A.BOATZ, S.T.ELBERT, *
          *   M.S.GORDON, J.H.JENSEN, S.KOSEKI, N.MATSUNAGA,   *
          *          K.A.NGUYEN, S.J.SU, T.L.WINDUS,           *
          *       TOGETHER WITH M.DUPUIS, J.A.MONTGOMERY       *
          *         J.COMPUT.CHEM.  14, 1347-1363(1993)        *
          **************** 64 BIT LINUX VERSION ****************

 EXECUTION OF GAMESS BEGUN Tue Nov 22 18:05:45 2016

            ECHO OF THE FIRST FEW INPUT CARDS -
 INPUT CARD>! SELECT RESTRICTED HARTREE-FOCK AS DEFAULT                                     
 INPUT CARD>$contrl scftyp=rhf $end                                                         
 INPUT CARD>                                                                                
 INPUT CARD>! THEORY: HF OR DFT                                                             
 INPUT CARD> $contrl mplevl=0 $end                                                          
 INPUT CARD>                                                                                
 INPUT CARD> $system timlim=10000 mwords=20 $end                                            
 INPUT CARD> $SCF DIRSCF=.TRUE. $end                                                        
 INPUT CARD>                                                                                
 INPUT CARD>                                                                                
 INPUT CARD>! BASIS SETS                                                                    
 INPUT CARD>! 6-311G(d,p)                                                                   
 INPUT CARD> $BASIS GBASIS=N311 NGAUSS=6 NDFUNC=1 NPFUNC=1 $END                             
 INPUT CARD>                                                                                
 INPUT CARD>! One of the following                                                          
 INPUT CARD> $guess guess=HUCKEL $end                                                       
 INPUT CARD>                                                                                
 INPUT CARD> $statpt projct=.FALSE. $end                                                    
 INPUT CARD> $STATPT IFREEZ(1)=1,2,3 $END                                                   
 INPUT CARD>                                                                                
 INPUT CARD>! Optimize the geometry with COSMO effects                                      
 INPUT CARD> $statpt opttol=0.0005 nstep=50 $end                                            
 INPUT CARD> $contrl nzvar=1 $end                                                           
 INPUT CARD> $zmat dlc=.t. auto=.t. $end                                                    
 INPUT CARD> $contrl runtyp=OPTIMIZE maxit=200 $end                                         
 INPUT CARD>                                                                                
 INPUT CARD>! Run COSMO on perfect conductor                                                
 INPUT CARD> $COSGMS PRFCND=.TRUE. $end                                                     
 INPUT CARD>                                                                                
 INPUT CARD>! Specifying RSOLV                                                              
 INPUT CARD> $COSGMS COSRAD = 1.4 $end                                                      
 INPUT CARD>                                                                                
 INPUT CARD>! available memory                                                              
 INPUT CARD> $SYSTEM MWORDS=40 $END                                                         
 INPUT CARD>                                                                                
 INPUT CARD> $DATA                                                                          
 INPUT CARD>http://cactus.nci.nih.gov/chemical/structure/1,1,2-TRIFLUOROETHANOL/file?format=
 INPUT CARD>C1                                                                              
 INPUT CARD>F      9.0     -0.4687000000   -1.1423000000    0.7605000000                    
 INPUT CARD>C      6.0     -0.4206000000   -0.0000000000   -0.0457000000                    
 INPUT CARD>C      6.0      0.8790000000    0.0000000000   -0.8532000000                    
 INPUT CARD>F      9.0      1.9712000000    0.0000000000    0.0211000000                    
 INPUT CARD>O      8.0     -1.5362000000   -0.0000000000   -0.9387000000                    
 INPUT CARD>F      9.0     -0.4687000000    1.1423000000    0.7605000000                    
 INPUT CARD>H      1.0      0.9164000000   -0.8900000000   -1.4814000000                    
 INPUT CARD>H      1.0      0.9164000000    0.8900000000   -1.4814000000                    
 INPUT CARD>H      1.0     -2.3953000000   -0.0000000000   -0.4949000000                    
 INPUT CARD> $END                                                                           
 INPUT CARD>                                                                                
 INPUT CARD>                                                                                
   40000000 WORDS OF MEMORY AVAILABLE

     BASIS OPTIONS
     -------------
     GBASIS=N311         IGAUSS=       6      POLAR=POPN311 
     NDFUNC=       1     NFFUNC=       0     DIFFSP=       F
     NPFUNC=       1      DIFFS=       F     BASNAM=        


     RUN TITLE
     ---------
 http://cactus.nci.nih.gov/chemical/structure/1,1,2-TRIFLUOROETHANOL/file?format=

 THE POINT GROUP OF THE MOLECULE IS C1      
 THE ORDER OF THE PRINCIPAL AXIS IS     0

 ATOM      ATOMIC                      COORDINATES (BOHR)
           CHARGE         X                   Y                   Z
 F           9.0    -0.8857145704       -2.1586339958        1.4371366137
 C           6.0    -0.7948187504       -0.0000000000       -0.0863604776
 C           6.0     1.6610691432        0.0000000000       -1.6123142127
 F           9.0     3.7250278670        0.0000000000        0.0398732183
 O           8.0    -2.9029970623       -0.0000000000       -1.7738857847
 F           9.0    -0.8857145704        2.1586339958        1.4371366137
 H           1.0     1.7317448951       -1.6818561291       -2.7994400782
 H           1.0     1.7317448951        1.6818561291       -2.7994400782
 H           1.0    -4.5264606584       -0.0000000000       -0.9352253913

          INTERNUCLEAR DISTANCES (ANGS.)




     $CONTRL OPTIONS
     ---------------
 SCFTYP=RHF          RUNTYP=OPTIMIZE     EXETYP=RUN     
 MPLEVL=       0     CITYP =NONE         CCTYP =NONE         VBTYP =NONE    
 DFTTYP=NONE         TDDFT =NONE    
 MULT  =       1     ICHARG=       0     NZVAR =       1     COORD =UNIQUE  
 PP    =NONE         RELWFN=NONE         LOCAL =NONE         NUMGRD=       F
 ISPHER=      -1     NOSYM =       0     MAXIT =     200     UNITS =ANGS    
 PLTORB=       F     MOLPLT=       F     AIMPAC=       F     FRIEND=        
 NPRINT=       7     IREST =       0     GEOM  =INPUT   
 NORMF =       0     NORMP =       0     ITOL  =      20     ICUT  =       9
 INTTYP=BEST         GRDTYP=BEST         QMTTOL= 1.0E-06

     $SYSTEM OPTIONS
     ---------------
  REPLICATED MEMORY=    40000000 WORDS (ON EVERY NODE).
 DISTRIBUTED MEMDDI=           0 MILLION WORDS IN AGGREGATE,
 MEMDDI DISTRIBUTED OVER   1 PROCESSORS IS           0 WORDS/PROCESSOR.
 TOTAL MEMORY REQUESTED ON EACH PROCESSOR=    40000000 WORDS.
 TIMLIM=       10000.00 MINUTES, OR       6.9 DAYS.
 PARALL= F  BALTYP=  DLB     KDIAG=    0  COREFL= F
 MXSEQ2=     300 MXSEQ3=     150  mem10=         0

     $COSGMS OPTIONS
     ---------------
     EPSI  =   INFTY     NSPA  =      92     COSRAD=    1.40
     DISEX =   10.00     OUTCHG=DBLCAV       COSBUG=       F
     COSWRT=       F     DCOSMO=       F

     SYMMETRY COORDINATES WILL NOT BE USED FOR 
     THE COSMO CALCULATION, EVEN IF SPECIFIED:
         -- SWITCHING TO C1 POINT GROUP --


     DEFINITION OF CAVITY
     ---------------------------
     ATOM         COORDINATES           RADIUS 
     1   -0.8857   -2.1586    1.4371    1.7200
     2   -0.7948   -0.0000   -0.0864    2.0000
     3    1.6611    0.0000   -1.6123    2.0000
     4    3.7250    0.0000    0.0399    1.7200
     5   -2.9030   -0.0000   -1.7739    1.7200
     6   -0.8857    2.1586    1.4371    1.7200
     7    1.7317   -1.6819   -2.7994    1.3000
     8    1.7317    1.6819   -2.7994    1.3000
     9   -4.5265   -0.0000   -0.9352    1.3000

          ----------------
          PROPERTIES INPUT
          ----------------

     MOMENTS            FIELD           POTENTIAL          DENSITY
 IEMOM =       1   IEFLD =       0   IEPOT =       0   IEDEN =       0
 WHERE =COMASS     WHERE =NUCLEI     WHERE =NUCLEI     WHERE =NUCLEI  
 OUTPUT=BOTH       OUTPUT=BOTH       OUTPUT=BOTH       OUTPUT=BOTH    
 IEMINT=       0   IEFINT=       0                     IEDINT=       0
                                                       MORB  =       0
          EXTRAPOLATION IN EFFECT
          SOSCF IN EFFECT
 ORBITAL PRINTING OPTION: NPREO=     1   132     2     1

     -------------------------------
     INTEGRAL TRANSFORMATION OPTIONS
     -------------------------------
     NWORD  =            0
     CUTOFF = 1.0E-09     MPTRAN =       0
     DIRTRF =       T     AOINTS =DUP     

          ----------------------
          INTEGRAL INPUT OPTIONS
          ----------------------
 NOPK  =       1 NORDER=       0 SCHWRZ=       T


 -----------------------------------------------
  STATISTICS ON AUTOMATIC COORDINATE GENERATION 
 -----------------------------------------------
  NUMBER OF USER SPECIFIED BONDS                             0
  NUMBER OF BONDS                                            8
  NUMBER OF ANGLES                                          13
  NUMBER OF TORSIONS                                        12
  NUMBER OF EXTRA COORD.                                     0
  NUMBER OF EXTRA COORD. FOR CONSTRAINTS                     0
  NUMBER OF CONSTRAINED COORD.                               0

  TOTAL NUMBER OF PRIMITIVES                                33
 -----------------------------------------------

   --- ENCODED Z MATRIX ---
 COORD  TYPE   I   J   K   L   M   N
    1      1    1   2
    2      1    2   3
    3      1    2   5
    4      1    2   6
    5      1    3   7
    6      1    3   8
    7      1    3   4
    8      1    5   9
    9      2    1   2   5
   10      2    1   2   6
   11      2    1   2   3
   12      2    2   3   7
   13      2    2   5   9
   14      2    2   3   8
   15      2    2   3   4
   16      2    3   2   6
   17      2    3   2   5
   18      2    4   3   8
   19      2    4   3   7
   20      2    5   2   6
   21      2    7   3   8
   22      3    1   2   3   8
   23      3    1   2   3   7
   24      3    1   2   5   9
   25      3    1   2   3   4
   26      3    3   2   5   9
   27      3    4   3   2   5
   28      3    4   3   2   6
   29      3    5   2   3   7
   30      3    5   2   3   8
   31      3    6   2   3   7
   32      3    6   2   3   8
   33      3    6   2   5   9

          INDEP./SYM. INTERNAL COORDINATES
          --------------------------------
 CRD  1=   0.1367 (  2)  0.1288 (  8) -0.2358 (  9)  0.1382 ( 10) -0.1880 ( 11)
           0.1787 ( 12) -0.2480 ( 13)  0.1787 ( 14) -0.3024 ( 15) -0.1880 ( 16)
           0.7095 ( 17) -0.2358 ( 20)
 CRD  2=   0.5723 (  2) -0.1667 (  9) -0.1070 ( 10)  0.1735 ( 11)  0.5366 ( 15)
           0.1735 ( 16) -0.2676 ( 18) -0.2676 ( 19) -0.1667 ( 20) -0.1676 ( 24)
           0.1676 ( 33)
 CRD  3=  -0.1747 (  9)  0.4354 ( 11)  0.4249 ( 12) -0.4249 ( 14) -0.4354 ( 16)
           0.1096 ( 18) -0.1096 ( 19)  0.1747 ( 20) -0.1165 ( 24)  0.3098 ( 26)
          -0.1301 ( 27) -0.1165 ( 33)
 CRD  4=   0.1091 (  2)  0.5422 (  3)  0.2340 (  8)  0.1320 (  9) -0.2126 ( 11)
           0.6380 ( 13) -0.2126 ( 16)  0.1320 ( 20)  0.1057 ( 22)  0.1211 ( 24)
          -0.1057 ( 31) -0.1211 ( 33)
 CRD  5=  -0.1013 (  1) -0.3230 (  2) -0.1013 (  4) -0.1171 (  5) -0.1171 (  6)
           0.1422 (  7)  0.2398 ( 10) -0.1881 ( 11) -0.3408 ( 12) -0.1060 ( 13)
          -0.3408 ( 14)  0.4848 ( 15) -0.1881 ( 16)  0.2714 ( 17)  0.3116 ( 21)
           0.1055 ( 24) -0.1055 ( 33)
 CRD  6=   0.1365 (  5) -0.1365 (  6)  0.3421 (  9) -0.2999 ( 11)  0.3901 ( 12)
          -0.3901 ( 14)  0.2999 ( 16)  0.1649 ( 18) -0.1649 ( 19) -0.3421 ( 20)
           0.1769 ( 24) -0.2201 ( 27) -0.1832 ( 29) -0.1832 ( 30)  0.1769 ( 33)
 CRD  7=   0.3709 (  1) -0.3709 (  4)  0.1643 (  9)  0.1139 ( 11) -0.2325 ( 12)
           0.2325 ( 14) -0.1139 ( 16) -0.2099 ( 18)  0.2099 ( 19) -0.1643 ( 20)
          -0.1064 ( 25)  0.3397 ( 26) -0.3774 ( 27) -0.1064 ( 28) -0.2627 ( 29)
          -0.2627 ( 30)
 CRD  8=   0.1260 (  1) -0.1272 (  2)  0.1260 (  4) -0.4201 (  5) -0.4201 (  6)
          -0.5012 (  7)  0.1374 ( 10)  0.2301 ( 12)  0.2301 ( 14)  0.1546 ( 15)
          -0.2032 ( 18) -0.2032 ( 19) -0.2085 ( 21)  0.1125 ( 24) -0.1125 ( 33)
 CRD  9=   0.2274 (  1) -0.2274 (  4) -0.4306 (  5)  0.4306 (  6)  0.2475 ( 18)
          -0.2475 ( 19)  0.3775 ( 25)  0.2678 ( 27)  0.3775 ( 28)
 CRD 10=  -0.5469 (  1) -0.1332 (  2) -0.5469 (  4) -0.1779 (  5) -0.1779 (  6)
          -0.1362 (  7) -0.3171 ( 10)  0.1421 ( 22)  0.1327 ( 23) -0.1641 ( 24)
           0.1374 ( 25) -0.1374 ( 28) -0.1421 ( 31) -0.1327 ( 32)  0.1641 ( 33)
 CRD 11=  -0.3624 (  5) -0.3624 (  6)  0.6118 (  7)  0.1603 ( 18)  0.1603 ( 19)
          -0.3303 ( 21) -0.1983 ( 22)  0.1574 ( 23)  0.1779 ( 29) -0.1779 ( 30)
           0.1983 ( 31) -0.1574 ( 32)
 CRD 12=  -0.1820 (  1)  0.1820 (  4) -0.3166 (  5)  0.3166 (  6)  0.1567 ( 18)
          -0.1567 ( 19) -0.3435 ( 22) -0.3435 ( 23) -0.1760 ( 25) -0.1760 ( 28)
          -0.2434 ( 29) -0.2434 ( 30) -0.3435 ( 31) -0.3435 ( 32)
 CRD 13=   0.1688 (  1)  0.5280 (  3)  0.1688 (  4) -0.1198 (  8)  0.1749 (  9)
          -0.1849 ( 10) -0.6359 ( 13)  0.1749 ( 20)  0.1520 ( 22)  0.1377 ( 23)
           0.1448 ( 25) -0.1448 ( 28) -0.1520 ( 31) -0.1377 ( 32)
 CRD 14=   0.1994 (  1) -0.1091 (  2)  0.1946 (  3)  0.1994 (  4) -0.1885 (  5)
          -0.1885 (  6) -0.2669 (  7)  0.6293 (  8) -0.1305 (  9) -0.1210 ( 10)
           0.1940 ( 11) -0.1611 ( 12) -0.1611 ( 14) -0.1456 ( 15)  0.1940 ( 16)
           0.1622 ( 18)  0.1622 ( 19) -0.1305 ( 20)  0.1434 ( 21) -0.1540 ( 24)
           0.1540 ( 33)
 CRD 15=   0.1793 (  2)  0.1960 (  3) -0.1932 (  5) -0.1932 (  6) -0.1762 (  7)
          -0.6806 (  8) -0.1289 (  9) -0.1854 ( 12)  0.2281 ( 13) -0.1854 ( 14)
          -0.1375 ( 15)  0.1895 ( 17)  0.1511 ( 18)  0.1511 ( 19) -0.1289 ( 20)
           0.2062 ( 21) -0.1249 ( 24)  0.1249 ( 33)
 CRD 16=  -0.4138 (  1)  0.4138 (  4) -0.1636 (  5)  0.1636 (  6) -0.1074 ( 18)
           0.1074 ( 19)  0.1563 ( 22)  0.1563 ( 23)  0.3478 ( 24)  0.4550 ( 26)
           0.1563 ( 31)  0.1563 ( 32)  0.3478 ( 33)
 CRD 17=   0.5180 (  2) -0.4636 (  3) -0.2062 (  5) -0.2062 (  6)  0.1762 (  8)
           0.1944 (  9) -0.1390 ( 11) -0.1480 ( 12) -0.1480 ( 14) -0.1390 ( 16)
           0.1944 ( 20)  0.2757 ( 21)  0.2020 ( 22)  0.1238 ( 25) -0.1238 ( 28)
          -0.2020 ( 31)
 CRD 18=   0.2798 (  1) -0.4360 (  2) -0.2561 (  3)  0.2798 (  4)  0.3007 (  7)
          -0.2848 ( 10)  0.2238 ( 13)  0.1793 ( 17) -0.1704 ( 18) -0.1704 ( 19)
           0.2321 ( 22) -0.1855 ( 24)  0.1310 ( 25) -0.1310 ( 28) -0.1011 ( 29)
           0.1011 ( 30) -0.2321 ( 31)  0.1855 ( 33)
 CRD 19=   0.1628 (  1) -0.1628 (  4)  0.3383 (  5) -0.3383 (  6) -0.1495 (  9)
           0.2011 ( 18) -0.2011 ( 19)  0.1495 ( 20) -0.1593 ( 22) -0.1593 ( 23)
           0.3518 ( 24)  0.1446 ( 25)  0.2916 ( 26)  0.3121 ( 27)  0.1446 ( 28)
          -0.1593 ( 31) -0.1593 ( 32)  0.3518 ( 33)
 CRD 20=  -0.2725 (  1)  0.2725 (  4)  0.2198 (  5) -0.2198 (  6)  0.1688 (  9)
           0.1900 ( 11) -0.1874 ( 12)  0.1874 ( 14) -0.1900 ( 16)  0.1344 ( 18)
          -0.1344 ( 19) -0.1688 ( 20) -0.2698 ( 24)  0.2715 ( 25)  0.2715 ( 28)
          -0.3309 ( 29) -0.3309 ( 30) -0.2698 ( 33)
 CRD 21=  -0.1183 (  1)  0.2244 (  3) -0.1183 (  4) -0.1742 (  5) -0.1742 (  6)
           0.3497 (  7)  0.1309 ( 10)  0.1157 ( 12)  0.1157 ( 14) -0.2167 ( 15)
          -0.2126 ( 17) -0.1436 ( 18) -0.1436 ( 19)  0.2724 ( 21) -0.3763 ( 23)
          -0.1387 ( 25)  0.1387 ( 28) -0.2377 ( 29)  0.2377 ( 30)  0.3763 ( 32)

 THE DETERMINANT OF THE G MATRIX IS 10**(   -15)


                     --------------------
                     INTERNAL COORDINATES
                     --------------------

                 - - ATOMS - -         COORDINATE      COORDINATE
 NO.   TYPE    I  J  K  L  M  N        (BOHR,RAD)       (ANG,DEG)
 ----------------------------------------------------------------
   1 STRETCH   1  2                     2.6436729       1.3989715
   2 STRETCH   2  3                     2.8913527       1.5300380
   3 STRETCH   2  5                     2.7003995       1.4289900
   4 STRETCH   2  6                     2.6436729       1.3989715
   5 STRETCH   3  7                     2.0598308       1.0900156
   6 STRETCH   3  8                     2.0598308       1.0900156
   7 STRETCH   3  4                     2.6437944       1.3990359
   8 STRETCH   5  9                     1.8272891       0.9669598
   9 BEND      1  2  5                  1.9105824     109.4683066
  10 BEND      1  2  6                  1.9107435     109.4775385
  11 BEND      1  2  3                  1.9106451     109.4719032
  12 BEND      2  3  7                  1.9106045     109.4695723
  13 BEND      2  5  9                  1.9897385     114.0036169
  14 BEND      2  3  8                  1.9106045     109.4695723
  15 BEND      2  3  4                  1.9105836     109.4683772
  16 BEND      3  2  6                  1.9106451     109.4719032
  17 BEND      3  2  5                  1.9106009     109.4693653
  18 BEND      4  3  8                  1.9106773     109.4737450
  19 BEND      4  3  7                  1.9106773     109.4737450
  20 BEND      5  2  6                  1.9105824     109.4683066
  21 BEND      7  3  8                  1.9106523     109.4723118
  22 TORSION   1  2  3  8               3.1415119     179.9953719
  23 TORSION   1  2  3  7               1.0471287      59.9960542
  24 TORSION   1  2  5  9               1.0472339      60.0020844
  25 TORSION   1  2  3  4              -1.0472724     -60.0042870
  26 TORSION   3  2  5  9               3.1415927     180.0000000
  27 TORSION   4  3  2  5               3.1415927     180.0000000
  28 TORSION   4  3  2  6               1.0472724      60.0042870
  29 TORSION   5  2  3  7              -1.0471916     -59.9996588
  30 TORSION   5  2  3  8               1.0471916      59.9996588
  31 TORSION   6  2  3  7              -3.1415119    -179.9953719
  32 TORSION   6  2  3  8              -1.0471287     -59.9960542
  33 TORSION   6  2  5  9              -1.0472339     -60.0020844

     ------------------------------------------
     THE POINT GROUP IS C1 , NAXIS= 1, ORDER= 1
     ------------------------------------------

     DIMENSIONS OF THE SYMMETRY SUBSPACES ARE
 A   =  132

 ..... DONE SETTING UP THE RUN .....
 STEP CPU TIME =     0.01 TOTAL CPU TIME =        0.0 (    0.0 MIN)
 TOTAL WALL CLOCK TIME=        0.0 SECONDS, CPU UTILIZATION IS 100.00%


          -----------------------------
          STATIONARY POINT LOCATION RUN
          -----------------------------

 OBTAINING INITIAL HESSIAN, HESS=GUESS   
 DIAGONAL GUESS HESSIAN IN INTERNAL COORDS IS
     1  0.3274     2  0.3671     3  0.3608     4  0.3274     5  0.3464
     6  0.3464     7  0.3274     8  0.3553     9  0.2310    10  0.2246
    11  0.2360    12  0.2241    13  0.2143    14  0.2241    15  0.2360
    16  0.2360    17  0.2430    18  0.2135    19  0.2135    20  0.2310
    21  0.2034    22  0.2500    23  0.2500    24  0.2500    25  0.2500
    26  0.2500    27  0.2500    28  0.2500    29  0.2500    30  0.2500
    31  0.2500    32  0.2500    33  0.2500
 TRANSFORMING HESSIAN TO SYMMETRY COORDINATES

          PARAMETERS CONTROLLING GEOMETRY SEARCH ARE
          METHOD =QA                  UPHESS =BFGS    
          NNEG   =         0          NFRZ   =         3
          NSTEP  =        50          IFOLOW =         1
          HESS   =GUESS               RESTAR =         F
          IHREP  =         0          HSSEND =         F
          NPRT   =         0          NPUN   =         0
          OPTTOL = 5.000E-04          RMIN   = 1.500E-03
          RMAX   = 1.000E-01          RLIM   = 7.000E-02
          DXMAX  = 3.000E-01          PURIFY =         F
          MOVIE  =         F          TRUPD  =         T
          TRMAX  = 5.000E-01          TRMIN  = 5.000E-02
          ITBMAT =         5          STPT   =         F
          STSTEP = 1.000E-02          PROJCT=          F
          FROZEN COORD(S)=   1   2   3


      ***** EQUILIBRIUM GEOMETRY LOCATED *****
            (SUBJECT TO   3 CONSTRAINT(S))
 COORDINATES OF ALL ATOMS ARE (ANGS)
   ATOM   CHARGE       X              Y              Z
 ------------------------------------------------------------
 F           9.0  -0.4918776298  -1.0615636345   0.7600273160
 C           6.0  -0.4242169323  -0.0000111799  -0.0600063568
 C           6.0   0.8758677064  -0.0000052077  -0.8510290018
 F           9.0   1.9504726206   0.0000122978  -0.0049713722
 O           8.0  -1.4603286626   0.0000017547  -0.9040290389
 F           9.0  -0.4918714397   1.0615550673   0.7600241482
 H           1.0   0.9300683326  -0.8865389431  -1.4637351809
 H           1.0   0.9300958181   0.8865045325  -1.4637562000
 H           1.0  -2.2819842669   0.0001313596  -0.4266187881


                     --------------------
                     INTERNAL COORDINATES
                     --------------------

                 - - ATOMS - -         COORDINATE      COORDINATE
 NO.   TYPE    I  J  K  L  M  N        (BOHR,RAD)       (ANG,DEG)
 ----------------------------------------------------------------
   1 STRETCH   1  2                     2.5380974       1.3431034
   2 STRETCH   2  3                     2.8758233       1.5218203
   3 STRETCH   2  5                     2.5253852       1.3363764
   4 STRETCH   2  6                     2.5381138       1.3431121
   5 STRETCH   3  7                     2.0390561       1.0790221
   6 STRETCH   3  8                     2.0390440       1.0790157
   7 STRETCH   3  4                     2.5845685       1.3676949
   8 STRETCH   5  9                     1.7957752       0.9502834
   9 BEND      1  2  5                  1.9246971     110.2770207
  10 BEND      1  2  6                  1.8228431     104.4412175
  11 BEND      1  2  3                  1.9394890     111.1245313
  12 BEND      2  3  7                  1.9156536     109.7588637
  13 BEND      2  5  9                  1.9316514     110.6754725
  14 BEND      2  3  8                  1.9156964     109.7613196
  15 BEND      2  3  4                  1.9280298     110.4679679
  16 BEND      3  2  6                  1.9394743     111.1236904
  17 BEND      3  2  5                  1.9114071     109.5155617
  18 BEND      4  3  8                  1.8878618     108.1665117
  19 BEND      4  3  7                  1.8878903     108.1681487
  20 BEND      5  2  6                  1.9246806     110.2760770
  21 BEND      7  3  8                  1.9284236     110.4905327
  22 TORSION   1  2  3  8              -3.0911717    -177.1110902
  23 TORSION   1  2  3  7               1.0693513      61.2693175
  24 TORSION   1  2  5  9               1.0022096      57.4223779
  25 TORSION   1  2  3  4              -1.0109143     -57.9211253
  26 TORSION   3  2  5  9              -3.1414429    -179.9914219
  27 TORSION   4  3  2  5               3.1415688     179.9986331
  28 TORSION   4  3  2  6               1.0108971      57.9201350
  29 TORSION   5  2  3  7              -1.0613508     -60.8109242
  30 TORSION   5  2  3  8               1.0613115      60.8086682
  31 TORSION   6  2  3  7               3.0911627     177.1105778
  32 TORSION   6  2  3  8              -1.0693603     -61.2698299
  33 TORSION   6  2  5  9              -1.0019393     -57.4068944

          INTERNUCLEAR DISTANCES (ANGS.)


 =====================================================
   GAMESS/COSab RESULTS
 =====================================================

   Dielectric Constant                  = INFTY
   Basic Grid Size                      =                 1082
   Number of Segments                   =                   92
   Number of Segments located on spheres=                  217
   Number of Segments of the cavity     =                  366
   Solvent Radius (rsolv)               = 1.40
   Outlying Charge Error Method         = double cavity

 =====================================================

  Total solvated Energy (a.u.)          =  -450.8086484750
  Total Energy corrected (a.u.)         =  -450.8085577251

  Outlying charge effect (a.u.)         =     0.0000907499
  Outlying charge effect (kcal/mol)     =     0.0569464838

  Dielectric Energy (a.u.)              =    -0.0149802977
  Dielectric energy corr. (a.u.)        =    -0.0148895478

  Sum of polarization charges           =     0.0053840145
  Sum of polarization charges(cor.)     =    -0.0053840145

  Total surface area of cavity (A**2)   =  106.38
  Total volume of cavity (A**3)         =   92.71

 =====================================================
 NPS=                   366
NR.  ATOM  (X, Y, Z)(a.u.)                  CHARGE(e)  AREA(A**2) SIGMA(e/A**2)
   1   1  -1.102747  -4.631426   3.344671   0.001423   0.377948   0.003766
   2   1   1.209543  -4.439105   1.172715   0.001391   0.206154   0.006749
   3   1  -1.837048  -4.841509   0.131898   0.001938   0.309230   0.006268
   4   1  -3.848629  -3.194699   2.230295   0.001979   0.309230   0.006399
   5   1  -2.019845  -1.663477   4.479001   0.001879   0.274871   0.006837
   6   1   1.239163  -2.255397   3.844416   0.001329   0.206154   0.006446
   7   1  -0.052990  -4.830435   2.785055   0.001855   0.412307   0.004498
   8   1   0.685155  -4.790006   1.891432   0.001970   0.343589   0.005733
   9   1  -1.361684  -5.113100   2.287248   0.001835   0.412307   0.004450
  10   1  -1.579014  -5.178257   1.153374   0.002006   0.343589   0.005837
  11   1  -2.279055  -4.404066   3.166256   0.001821   0.412307   0.004417
  12   1  -3.225202  -3.749017   2.938420   0.002122   0.377948   0.005613
  13   1  -1.515730  -3.795905   4.085286   0.001646   0.377948   0.004354
  14   1  -1.704241  -2.753096   4.503216   0.001916   0.343589   0.005577
  15   1  -0.223789  -3.975793   3.923560   0.002144   0.481025   0.004458
  16   1   0.674715  -3.168208   4.013159   0.002406   0.412307   0.005836
  17   1   0.299267  -4.904673   0.628242   0.001730   0.274871   0.006292
  18   1  -0.780862  -5.073837   0.372584   0.001916   0.309230   0.006195
  19   1  -2.654523  -4.698700   0.854252   0.001912   0.309230   0.006182
  20   1  -3.535813  -3.946532   1.516357   0.002743   0.412307   0.006653
  21   1  -3.521930  -2.671556   3.280444   0.001912   0.309230   0.006184
  22   1  -2.802442  -2.155640   4.088476   0.001940   0.309230   0.006274
  23   1  -0.797427  -1.689907   4.668452   0.001865   0.309230   0.006032
  24   1   0.290800  -2.161829   4.444760   0.002144   0.343589   0.006239
  25   1   1.421518  -3.245292   3.307502   0.001680   0.240512   0.006984
  26   1   1.453662  -4.075925   2.211374   0.001669   0.240512   0.006940
  27   1   0.830268  -4.531823   0.392969   0.001005   0.171795   0.005853
  28   1  -1.358081  -4.439659  -0.675307   0.001355   0.309230   0.004383
  29   1  -2.593271  -4.314191  -0.135106   0.001426   0.240512   0.005929
  30   1  -3.921543  -2.142146   2.698711   0.001212   0.206154   0.005878
  31   1  -2.852925  -1.306721   3.961311   0.001045   0.171795   0.006085
  32   1  -1.486134  -1.224595   4.541729   0.001076   0.171795   0.006263
  33   1   0.854104  -1.321009   4.065694   0.001206   0.206154   0.005848
  34   1  -0.360213  -5.204647   1.534451   0.002296   0.412307   0.005568
  35   1  -2.624871  -4.713562   2.036126   0.002623   0.481025   0.005453
  36   1  -2.632548  -3.240860   3.914053   0.002252   0.412307   0.005463
  37   1  -0.597923  -2.856938   4.555643   0.002097   0.377948   0.005548
  38   1   0.906995  -4.139814   3.060744   0.002052   0.377948   0.005428
  39   1  -0.371291  -4.732877  -0.242324   0.001056   0.171795   0.006149
  40   1  -3.295686  -4.042384   0.531103   0.001275   0.206154   0.006185
  41   1  -3.516141  -1.438121   3.320750   0.001590   0.343589   0.004629
  42   1   0.003382  -1.231317   4.451878   0.001381   0.206154   0.006698
  43   3   3.313091   0.535977  -4.962037  -0.001409   0.325193  -0.004332
  44   3   2.566811   3.568970  -0.762367  -0.000422   0.046456  -0.009081
  45   3   3.152217   3.436671  -1.126338  -0.000055   0.046456  -0.001181
  46   3   4.472598  -1.864454  -3.302341  -0.000842   0.185824  -0.004532
  47   3   2.854636  -0.526691  -5.153357  -0.001501   0.371649  -0.004039
  48   3   0.381884  -0.855691  -5.062319  -0.001639   0.232280  -0.007055
  49   3   2.621419  -3.598938  -0.977060  -0.001405   0.185824  -0.007562
  50   3   0.435616  -0.019901  -5.185443  -0.000916   0.232280  -0.003944
  51   3   2.165753   0.294506  -5.341408  -0.001101   0.325193  -0.003384
  52   3   4.034387  -0.436777  -4.512118  -0.002176   0.464561  -0.004685
  53   3   4.687342  -0.970851  -3.644752  -0.001637   0.278737  -0.005872
  54   3   0.367844   0.996897  -5.018966  -0.001008   0.139368  -0.007232
  55   3   4.079684   0.870063  -4.373857  -0.001502   0.325193  -0.004618
  56   3   4.475568   1.829410  -3.335243  -0.002268   0.325193  -0.006976
  57   3   2.755763   3.585291  -1.140816  -0.000259   0.046456  -0.005572
  58   3   4.093670  -1.304448  -4.184310  -0.000756   0.139368  -0.005426
  59   3   1.383772  -0.393169  -5.357347  -0.001173   0.232280  -0.005051
  60   3   3.148067  -3.455857  -1.272627  -0.000015   0.046456  -0.000330
  61   3   1.102044   0.541435  -5.307554  -0.001266   0.232280  -0.005449
  62   3   4.733912   0.429464  -3.757855  -0.001743   0.371649  -0.004691
  63   4   6.217807   0.089115   2.026761   0.002023   0.377948   0.005352
  64   4   3.488427   0.317643   3.219358   0.001206   0.137436   0.008776
  65   4   4.764056   2.826070   1.180394   0.002196   0.274871   0.007991
  66   4   6.472841   1.301540  -1.059798   0.002558   0.309230   0.008272
  67   4   6.184414  -1.977854  -0.649547   0.002822   0.343589   0.008213
  68   4   4.146208  -2.571313   1.924764   0.001945   0.206154   0.009437
  69   4   5.300335   0.132332   2.808517   0.002497   0.412307   0.006056
  70   4   4.237209   0.428471   3.165056   0.002464   0.343589   0.007172
  71   4   5.859197   1.223252   2.075060   0.002522   0.412307   0.006118
  72   4   5.244525   2.173477   1.837578   0.002569   0.343589   0.007478
  73   4   6.695882   0.620282   1.048737   0.002505   0.412307   0.006074
  74   4   6.819689   0.858303  -0.093283   0.002819   0.377948   0.007459
  75   4   6.606811  -0.705023   1.229778   0.002264   0.377948   0.005991
  76   4   6.553887  -1.475608   0.392490   0.002513   0.343589   0.007313
  77   4   5.808280  -1.066999   2.209035   0.002896   0.481025   0.006020
  78   4   4.988774  -1.958823   2.233368   0.003039   0.412307   0.007371
  79   4   3.971326   1.431714   2.894648   0.001837   0.206154   0.008911
  80   4   4.195046   2.327538   2.201505   0.002476   0.309230   0.008006
  81   4   5.460041   2.650115   0.618229   0.002831   0.343589   0.008239
  82   4   6.121213   2.128291  -0.332063   0.003427   0.412307   0.008312
  83   4   6.710153   0.153758  -1.190311   0.003445   0.412307   0.008354
  84   4   6.618327  -1.016273  -0.974967   0.003423   0.412307   0.008302
  85   4   5.696156  -2.549399   0.144706   0.003114   0.377948   0.008239
  86   4   4.958141  -2.742055   1.185150   0.002768   0.343589   0.008056
  87   4   4.099029  -1.740068   2.704653   0.001881   0.240512   0.007822
  88   4   3.712524  -0.708071   3.162764   0.002422   0.274871   0.008811
  89   4   4.073734   2.940569   1.320043   0.001426   0.171795   0.008299
  90   4   4.082305   3.204188   0.365842   0.001746   0.240512   0.007260
  91   4   4.419551   3.147597  -0.354497   0.001228   0.206154   0.005954
  92   4   5.138542   2.627542  -1.254564   0.001814   0.274871   0.006599
  93   4   5.840302   1.956712  -1.456569   0.002077   0.274871   0.007555
  94   4   6.153162   0.828499  -1.956340   0.002108   0.274871   0.007669
  95   4   5.937751   0.186883  -2.345762   0.001129   0.171795   0.006573
  96   4   5.771486  -1.688225  -1.843661   0.002741   0.377948   0.007252
  97   4   5.362533  -2.526418  -1.180050   0.002477   0.343589   0.007208
  98   4   4.718552  -2.990888  -0.752759   0.001305   0.206154   0.006328
  99   4   3.962194  -3.236873   0.094372   0.000916   0.171795   0.005332
 100   4   4.166392  -3.069249   0.946269   0.001832   0.240512   0.007617
 101   4   4.897400   1.345242   2.690092   0.002407   0.343589   0.007006
 102   4   6.265156   1.754338   0.903959   0.003446   0.481025   0.007164
 103   4   6.913389  -0.379072   0.053153   0.002950   0.412307   0.007156
 104   4   5.907321  -2.026311   1.224984   0.003264   0.446666   0.007307
 105   4   4.679154  -0.831428   2.971667   0.002351   0.343589   0.006843
 106   4   5.216656   2.849604  -0.327448   0.002083   0.274871   0.007576
 107   4   6.079104  -0.657658  -2.108055   0.002615   0.377948   0.006919
 108   4   4.755426  -3.068862   0.041371   0.001773   0.240512   0.007373
 109   4   5.610666   1.475967  -2.173018   0.000764   0.171795   0.004445
 110   5  -2.564609   2.188201  -4.103869   0.003842   0.274871   0.013976
 111   5  -2.977938  -1.085333  -4.764343   0.003467   0.274871   0.012614
 112   5  -5.347299   0.824430  -3.494115  -0.000177   0.274871  -0.000645
 113   5  -4.780826  -2.425013  -2.482068   0.001355   0.343589   0.003944
 114   5  -4.324603   2.845829  -1.578743   0.000742   0.206154   0.003601
 115   5  -2.228304  -0.689836  -4.839890   0.003215   0.240512   0.013366
 116   5  -2.668532   1.351012  -4.663216   0.005345   0.377948   0.014143
 117   5  -2.845040   0.129871  -4.954975   0.003607   0.274871   0.013122
 118   5  -2.472873  -1.883709  -4.341615   0.005017   0.343589   0.014603
 119   5  -2.428372  -2.705128  -3.479557   0.002181   0.171795   0.012696
 120   5  -2.349926   2.788392  -3.327541   0.002248   0.171795   0.013088
 121   5  -5.517481  -0.298493  -3.402397  -0.000596   0.274871  -0.002168
 122   5  -5.291345  -1.562889  -3.016934  -0.000420   0.309230  -0.001360
 123   5  -4.390809  -2.810568  -1.641272   0.000543   0.274871   0.001974
 124   5  -4.729879   2.539880  -2.189824   0.000690   0.240512   0.002870
 125   5  -5.156672   1.850890  -2.888640   0.000047   0.309230   0.000153
 126   5  -3.631475   1.892395  -4.203040   0.004061   0.343589   0.011818
 127   5  -4.617700   1.513929  -3.903870   0.002742   0.377948   0.007255
 128   5  -4.796355   0.152292  -4.236837   0.002782   0.481025   0.005784
 129   5  -3.870872  -0.469320  -4.726558   0.004157   0.377948   0.010998
 130   5  -3.772235  -1.668144  -4.307693   0.004787   0.412307   0.011610
 131   5  -4.266868  -2.272006  -3.477765   0.003524   0.377948   0.009325
 132   5  -3.751138  -3.008887  -2.435038   0.003252   0.343589   0.009464
 133   5  -2.750978  -3.109205  -2.655636   0.003016   0.240512   0.012540
 134   5  -3.688097   3.042578  -2.375726   0.002922   0.309230   0.009448
 135   5  -3.267783   2.739149  -3.382744   0.003418   0.274871   0.012436
 136   5  -2.166591   0.516498  -4.862124   0.002218   0.171795   0.012910
 137   5  -3.735367   0.760533  -4.714055   0.004273   0.377948   0.011305
 138   5  -3.216081  -2.638617  -3.550622   0.004319   0.343589   0.012571
 139   5  -2.789727   3.115602  -2.634021   0.002174   0.206154   0.010545
 140   5  -4.845872  -1.135406  -3.927154   0.002210   0.412307   0.005359
 141   5  -4.262625   2.430535  -3.256972   0.003385   0.377948   0.008956
 142   6  -1.071364   4.631431   3.347220   0.001422   0.377948   0.003763
 143   6  -3.036640   4.360867   0.675038   0.001915   0.309230   0.006191
 144   6   0.230773   4.814708   0.283029   0.002137   0.343589   0.006219
 145   6   1.494335   3.499440   3.004503   0.001767   0.240512   0.007347
 146   6  -0.457554   1.780060   4.644162   0.001282   0.206154   0.006218
 147   6  -3.503051   2.229047   3.408969   0.001414   0.240512   0.005878
 148   6  -2.015213   4.830432   2.623125   0.001825   0.412307   0.004425
 149   6  -2.596922   4.789991   1.620611   0.001971   0.343589   0.005736
 150   6  -0.642628   5.113092   2.346525   0.001860   0.412307   0.004512
 151   6  -0.242407   5.178235   1.263600   0.001959   0.343589   0.005701
 152   6   0.070794   4.427513   3.359919   0.001680   0.377948   0.004444
 153   6   0.940006   3.836574   3.364646   0.001715   0.309230   0.005545
 154   6  -0.785345   3.795919   4.145514   0.001653   0.377948   0.004373
 155   6  -0.667878   2.753115   4.588701   0.001935   0.343589   0.005633
 156   6  -2.033312   3.975804   3.774239   0.002103   0.481025   0.004373
 157   6  -2.934353   3.168219   3.715381   0.002312   0.412307   0.005607
 158   6  -2.089312   4.859585   0.398538   0.002177   0.343589   0.006337
 159   6  -0.975485   5.073648   0.362742   0.001910   0.309230   0.006176
 160   6   0.968520   4.617557   1.059104   0.002704   0.412307   0.006559
 161   6   1.323652   4.264255   2.059519   0.001921   0.309230   0.006212
 162   6   1.260884   2.536905   3.778253   0.001786   0.274871   0.006496
 163   6   0.439463   2.192620   4.378300   0.001710   0.274871   0.006221
 164   6  -1.589512   1.689928   4.603100   0.001975   0.309230   0.006386
 165   6  -2.773748   1.983233   4.112576   0.002205   0.343589   0.006418
 166   6  -3.741659   3.011432   2.719023   0.002614   0.377948   0.006916
 167   6  -3.467765   4.008601   1.770300   0.001890   0.309230   0.006112
 168   6  -2.495599   4.340506  -0.195418   0.001005   0.171795   0.005850
 169   6  -0.547843   4.624817  -0.450846   0.001659   0.309230   0.005363
 170   6   0.218157   1.289865   4.391666   0.001004   0.171795   0.005846
 171   6  -0.889349   1.224615   4.590968   0.001241   0.171795   0.007226
 172   6  -3.355677   1.238385   3.458344   0.001347   0.274871   0.004902
 173   6  -3.899335   1.951891   2.755978   0.001069   0.206154   0.005184
 174   6  -3.586401   3.755067   0.768082   0.001199   0.206154   0.005814
 175   6  -1.507183   5.204629   1.439776   0.002275   0.412307   0.005517
 176   6   0.520192   4.770985   2.340769   0.001991   0.377948   0.005268
 177   6   0.344435   3.240874   4.159637   0.002273   0.412307   0.005513
 178   6  -1.848807   2.791229   4.453345   0.002502   0.446666   0.005602
 179   6  -3.045054   4.099739   2.742179   0.002250   0.412307   0.005457
 180   6  -1.546194   4.439677  -0.628180   0.001442   0.309230   0.004664
 181   6   0.909293   1.607668   4.086661   0.001189   0.171795   0.006920
 182   6  -2.344000   1.231334   4.258216   0.001143   0.206154   0.005546
 183   6  -3.899608   3.304629   1.674443   0.001199   0.206154   0.005815
 184   7   2.081994  -3.739789  -4.057512  -0.004738   0.431809  -0.010972
 185   7   0.638023  -3.789563  -3.324358  -0.003657   0.294415  -0.012420
 186   7   2.370872  -4.016180  -2.342542  -0.003679   0.353299  -0.010413
 187   7   3.520912  -3.085997  -3.733405  -0.003982   0.431809  -0.009221
 188   7   2.057964  -2.019735  -5.179824  -0.002737   0.353299  -0.007748
 189   7   0.889775  -2.358108  -4.960560  -0.003766   0.372926  -0.010099
 190   7   1.543523  -4.102529  -3.079050  -0.004439   0.412182  -0.010770
 191   7   3.076463  -3.728910  -3.046111  -0.004381   0.431809  -0.010146
 192   7   3.065078  -2.580953  -4.638327  -0.004494   0.490692  -0.009159
 193   7   1.852813  -3.003812  -4.830317  -0.003760   0.353299  -0.010644
 194   7   0.643954  -3.270856  -4.265802  -0.004822   0.431809  -0.011168
 195   8   1.979265   3.612021  -4.261041  -0.006351   0.569203  -0.011158
 196   8   3.233214   3.637930  -2.691297  -0.002824   0.294415  -0.009591
 197   8   1.439757   4.096619  -3.032597  -0.004289   0.392554  -0.010925
 198   8   0.681656   3.251319  -4.313152  -0.004035   0.372926  -0.010820
 199   8   1.780403   2.131107  -5.179959  -0.002992   0.353299  -0.008468
 200   8   3.469389   2.591707  -4.271092  -0.002982   0.372926  -0.007997
 201   8   2.316469   4.061025  -2.590441  -0.004138   0.412182  -0.010040
 202   8   0.591600   3.731361  -3.435345  -0.004072   0.333671  -0.012205
 203   8   0.841313   2.468888  -4.902820  -0.004203   0.392554  -0.010706
 204   8   2.656209   2.454320  -4.915665  -0.004089   0.451437  -0.009058
 205   8   3.261797   3.403240  -3.652985  -0.004837   0.471065  -0.010268
 206   9  -6.526743   0.030441   0.257078  -0.008303   0.372926  -0.022264
 207   9  -6.153170  -1.546854  -1.309021  -0.007968   0.431809  -0.018453
 208   9  -6.447563   0.621763  -1.850029  -0.008410   0.451437  -0.018630
 209   9  -5.677994   1.966047  -0.253268  -0.009057   0.431809  -0.020975
 210   9  -6.738280  -0.386733  -0.815321  -0.011251   0.510320  -0.022048
 211   9  -6.524017   1.015165  -0.469316  -0.009791   0.451437  -0.021689
 212   9  -5.821722   0.998491   0.855239  -0.011364   0.510320  -0.022269
 213   9  -5.735091  -0.291415   1.175162  -0.012103   0.471065  -0.025692
 214   9  -6.083256  -1.293891   0.300189  -0.011984   0.549575  -0.021807
 215   9  -6.394432  -0.567325  -1.979981  -0.006261   0.353299  -0.017723
 216   9  -6.002553   1.697522  -1.351653  -0.006119   0.372926  -0.016407
 217   9  -5.625096  -2.050971  -0.483401  -0.006916   0.353299  -0.019576
 218   1   1.990152  -3.628209   0.445410  -0.000271   0.104273  -0.002596
 219   3   2.543149  -3.405072  -0.101344  -0.000732   0.104273  -0.007021
 220   4   2.893162  -3.282260   0.167811  -0.000220   0.104273  -0.002107
 221   1   1.296019  -3.955568  -0.427465  -0.000413   0.054206  -0.007625
 222   3   1.831047  -3.755481  -0.997829  -0.000688   0.054206  -0.012701
 223   7   1.810923  -3.803808  -1.293373  -0.000657   0.054206  -0.012118
 224   3   2.199017  -3.697261  -0.468163  -0.001198   0.239612  -0.004998
 225   1   1.351481  -4.141736   0.208054   0.000345   0.217111   0.001591
 226   1   1.278836  -0.384543   3.470402  -0.000289   0.212740  -0.001358
 227   4   2.157673  -0.000002   3.151664   0.000243   0.212740   0.001144
 228   6   1.278839   0.384524   3.470402  -0.000267   0.212740  -0.001257
 229   4   2.791010  -0.549197   3.255952   0.001503   0.323562   0.004645
 230   4   3.210670  -1.919189   2.694633   0.003886   0.647340   0.006003
 231   4   3.256986  -3.083767   1.226412   0.002581   0.647340   0.003987
 232   1   1.702758  -1.632588   3.474021   0.002362   0.647340   0.003649
 233   1   2.046730  -3.163299   2.448024   0.003083   0.647340   0.004763
 234   1   1.927919  -3.870942   1.086703   0.000956   0.323562   0.002956
 235   1  -3.919002  -3.012421   0.011415  -0.000403   0.071515  -0.005630
 236   5  -4.311617  -2.682265  -0.588445  -0.000699   0.071515  -0.009770
 237   9  -4.551592  -2.523035  -0.434500  -0.001031   0.071515  -0.014414
 238   5  -2.294014  -3.304016  -2.086347   0.000639   0.255969   0.002496
 239   5  -3.557838  -3.146738  -1.250483   0.001266   0.513120   0.002466
 240   1  -2.293647  -3.821328  -0.928678   0.000669   0.513120   0.001303
 241   1  -3.510408  -3.556052  -0.051308   0.000572   0.255969   0.002235
 242   1  -3.729047  -0.383744   2.480261  -0.002534   0.187517  -0.013514
 243   6  -3.729051   0.383808   2.480265  -0.002494   0.187517  -0.013302
 244   9  -4.317749   0.000092   1.885557  -0.005246   0.187517  -0.027975
 245   6  -3.349405   0.543249   3.220164  -0.000184   0.267062  -0.000689
 246   6  -1.995461   0.543245   4.136536   0.002337   0.536161   0.004359
 247   6  -0.007040   0.543238   4.188865   0.002268   0.536161   0.004229
 248   1  -2.856045  -0.543245   3.607951   0.001009   0.536161   0.001883
 249   1  -1.005876  -0.543251   4.338316   0.002611   0.536161   0.004869
 250   1   0.598762  -0.543258   4.025204   0.000700   0.267062   0.002620
 251   7   1.596750  -4.021501  -1.604910  -0.001883   0.238798  -0.007883
 252   7   0.569159  -3.881882  -2.250996  -0.005676   0.480188  -0.011819
 253   1   0.428398  -4.322458  -0.646383  -0.000187   0.590079  -0.000317
 254   1  -0.682208  -4.061288  -1.335986  -0.001444   0.297162  -0.004859
 255   9  -4.862163  -2.414561  -0.072025  -0.003465   0.239833  -0.014449
 256   9  -5.067612  -1.598708   0.967861  -0.010332   0.484280  -0.021336
 257   9  -4.868764  -0.478052   1.670554  -0.005171   0.239833  -0.021562
 258   1  -4.132607  -2.865836   1.051850  -0.000360   0.585273  -0.000615
 259   1  -4.137108  -1.545503   2.239959  -0.002223   0.585273  -0.003799
 260   3   2.543097   3.405096  -0.101448  -0.000788   0.104273  -0.007559
 261   4   2.893113   3.282300   0.167711  -0.000236   0.104273  -0.002263
 262   6   1.990107   3.628235   0.445310  -0.000261   0.104273  -0.002503
 263   3   3.725774  -3.162841  -1.699349  -0.000156   0.007068  -0.022046
 264   4   4.036489  -3.040818  -1.390298  -0.000049   0.007068  -0.006980
 265   7   3.578276  -3.257028  -1.941755  -0.000186   0.007068  -0.026249
 266   3   4.174098  -2.741872  -2.268788  -0.000164   0.007068  -0.023221
 267   4   4.466071  -2.637447  -1.935932  -0.000066   0.007068  -0.009342
 268   7   3.985424  -2.874723  -2.458895  -0.000143   0.007068  -0.020167
 269   3   4.174339   2.741509  -2.269229  -0.000139   0.007077  -0.019655
 270   4   4.466304   2.637116  -1.936355  -0.000040   0.007077  -0.005688
 271   8   3.985654   2.874383  -2.459301  -0.000173   0.007077  -0.024504
 272   3   3.725441   3.163030  -1.699083  -0.000163   0.007077  -0.023059
 273   4   4.036171   3.041016  -1.390043  -0.000063   0.007077  -0.008900
 274   8   3.577984   3.257191  -1.941520  -0.000144   0.007077  -0.020355
 275   4   3.722911  -3.175443  -0.422786   0.000453   0.228640   0.001983
 276   3   3.422618  -3.262350  -1.080452  -0.001265   0.250204  -0.005055
 277   4   4.941808  -2.249101  -1.970963   0.000272   0.176400   0.001540
 278   4   5.399606  -0.566084  -2.552469   0.000509   0.370590   0.001373
 279   4   5.149257   1.622302  -2.234553   0.000748   0.370590   0.002018
 280   3   4.713067  -1.690988  -2.719526  -0.001746   0.378592  -0.004613
 281   3   4.974149   0.589301  -3.051194  -0.001744   0.378592  -0.004606
 282   3   4.503781   2.337819  -2.453814  -0.000675   0.193074  -0.003494
 283   4   3.918450   3.124761  -0.671314   0.000407   0.228566   0.001780
 284   3   3.235865   3.310894  -0.843427  -0.001313   0.250122  -0.005250
 285   3  -0.266472  -1.420773  -4.573892  -0.000759   0.054593  -0.013898
 286   5  -1.048029  -1.354173  -4.431494  -0.000197   0.054593  -0.003612
 287   7  -0.104527  -1.673156  -4.559689  -0.000846   0.054593  -0.015488
 288   3  -0.266450   1.420741  -4.573904  -0.000796   0.054591  -0.014577
 289   5  -1.048008   1.354152  -4.431505  -0.000160   0.054591  -0.002924
 290   8  -0.104498   1.673114  -4.559705  -0.000716   0.054591  -0.013108
 291   5  -1.518281   0.773204  -4.687102   0.002313   0.334052   0.006925
 292   5  -1.518292  -0.773216  -4.687097   0.002237   0.334052   0.006697
 293   3  -0.380956  -0.000014  -4.740267  -0.005133   0.732557  -0.007007
 294   3   1.831000   3.755459  -0.997913  -0.000637   0.054202  -0.011750
 295   6   1.295979   3.955546  -0.427545  -0.000388   0.054202  -0.007161
 296   8   1.810890   3.803774  -1.293455  -0.000811   0.054202  -0.014957
 297   6   1.460068   4.090939   0.333660   0.000390   0.217104   0.001798
 298   3   2.094173   3.746264  -0.589513  -0.001331   0.239604  -0.005556
 299   7   0.507404  -1.753533  -4.876004  -0.000948   0.071282  -0.013304
 300   7   1.603430  -1.497185  -5.149953  -0.001760   0.160147  -0.010988
 301   7   2.959017  -1.629902  -4.837996  -0.001832   0.160147  -0.011442
 302   7   3.796356  -2.230826  -3.894438  -0.001887   0.160147  -0.011783
 303   7   3.885874  -2.883796  -2.941731  -0.000780   0.071282  -0.010936
 304   3   0.795215  -1.238166  -5.015827  -0.001887   0.154431  -0.012219
 305   3   2.353963  -1.081300  -5.104897  -0.001686   0.154431  -0.010921
 306   3   3.661720  -1.518808  -4.356168  -0.001744   0.154431  -0.011295
 307   3   4.124588  -2.352003  -3.109663  -0.001898   0.154431  -0.012291
 308   7   3.183274  -3.539708  -2.054845  -0.000842   0.073047  -0.011531
 309   7   2.362633  -3.814289  -1.730154  -0.000865   0.073047  -0.011846
 310   3   2.863412  -3.520067  -1.531159  -0.001881   0.157387  -0.011952
 311   8   2.362532   3.814276  -1.730197  -0.000939   0.073026  -0.012854
 312   8   3.183012   3.539811  -2.054690  -0.000781   0.073026  -0.010698
 313   3   2.863205   3.520144  -1.531075  -0.002038   0.157351  -0.012954
 314   8   3.886044   2.883441  -2.942133  -0.000800   0.071275  -0.011223
 315   8   3.796314   2.230516  -3.894751  -0.001758   0.160131  -0.010976
 316   8   2.958866   1.629704  -4.838144  -0.001739   0.160131  -0.010860
 317   8   1.603338   1.497088  -5.149982  -0.001888   0.160131  -0.011793
 318   8   0.507413   1.753479  -4.876016  -0.000867   0.071275  -0.012163
 319   3   4.124667   2.351640  -3.110071  -0.001797   0.154419  -0.011640
 320   3   3.661571   1.518536  -4.356421  -0.001780   0.154419  -0.011529
 321   3   2.353795   1.081159  -5.104974  -0.001660   0.154419  -0.010752
 322   3   0.795165   1.238108  -5.015834  -0.001820   0.154419  -0.011785
 323   6   1.526513   1.098814   3.652019   0.000861   0.323569   0.002660
 324   6   1.946168   2.468848   3.090683   0.003053   0.647355   0.004716
 325   6   1.992455   3.633436   1.622405   0.002506   0.647355   0.003870
 326   4   2.967263   1.082992   3.077951   0.003558   0.647355   0.005496
 327   4   3.311219   2.613741   2.051916   0.003516   0.647355   0.005431
 328   4   3.192379   3.321373   0.690544   0.000758   0.323569   0.002343
 329   7   3.789361  -3.146818  -2.371911  -0.001383   0.171801  -0.008048
 330   4   4.409493  -2.926837  -1.495270   0.000044   0.209388   0.000212
 331   8   3.703756   3.227079  -2.263305  -0.001398   0.172018  -0.008127
 332   4   4.488084   2.852934  -1.595234   0.000099   0.209652   0.000472
 333   5  -4.311142   2.682797  -0.588980  -0.000673   0.071517  -0.009409
 334   6  -3.918542   3.012940   0.010892  -0.000368   0.071517  -0.005152
 335   9  -4.551152   2.523652  -0.435000  -0.000987   0.071517  -0.013800
 336   6  -1.797707   3.847739  -1.234122  -0.000514   0.255905  -0.002007
 337   6  -3.061329   3.690722  -0.398537   0.001357   0.512989   0.002644
 338   5  -2.789340   3.277667  -1.781219   0.002040   0.512989   0.003977
 339   5  -4.005940   3.012700  -0.904137  -0.000102   0.255905  -0.000399
 340   7  -0.248449  -3.290745  -3.219934  -0.003383   0.246998  -0.013697
 341   7  -0.179846  -2.484079  -4.204663  -0.005014   0.497169  -0.010085
 342   5  -1.638187  -2.692397  -3.424245   0.001599   0.609015   0.002626
 343   5  -1.515760  -1.732263  -4.422191   0.001355   0.306895   0.004414
 344   8  -0.121071   2.120114  -4.530272  -0.002011   0.247006  -0.008142
 345   8  -0.236535   3.005794  -3.620633  -0.005783   0.497186  -0.011632
 346   5  -1.575734   2.118651  -4.066474   0.002644   0.609036   0.004341
 347   5  -1.654096   3.004617  -2.997933   0.000144   0.306906   0.000470
 348   9  -5.057776   2.335480  -0.899201  -0.001389   0.085223  -0.016304
 349   9  -5.604594   1.714940  -1.840145  -0.003253   0.185245  -0.017559
 350   9  -5.972139   0.385053  -2.472356  -0.003640   0.185245  -0.019650
 351   9  -5.845090  -1.111360  -2.253289  -0.003435   0.185245  -0.018545
 352   9  -5.278440  -2.126568  -1.277768  -0.003124   0.185245  -0.016865
 353   5  -4.952183   2.301081  -1.552062  -0.002243   0.182399  -0.012300
 354   5  -5.565394   1.202721  -2.607144  -0.002629   0.182399  -0.014414
 355   5  -5.703145  -0.416119  -2.843783  -0.002816   0.182399  -0.015436
 356   5  -5.305810  -1.854718  -2.159550  -0.002365   0.182399  -0.012966
 357   5  -4.724261  -2.527986  -1.158480  -0.001018   0.097577  -0.010434
 358   8   0.183212   3.754314  -2.487814  -0.003293   0.238792  -0.013789
 359   8   1.200072   4.001039  -1.857020  -0.004759   0.480176  -0.009912
 360   6  -0.265803   4.191223  -1.080010  -0.001724   0.590065  -0.002922
 361   6   0.854832   4.351701  -0.376070   0.000107   0.297155   0.000361
 362   9  -4.868768   0.478375   1.670555  -0.005095   0.239882  -0.021241
 363   9  -5.067512   1.599323   0.967711  -0.009837   0.484383  -0.020309
 364   9  -4.861797   2.415256  -0.072456  -0.003262   0.239882  -0.013598
 365   6  -4.137076   1.545802   2.239900  -0.002221   0.585388  -0.003794
 366   6  -4.132323   2.866384   1.051500  -0.000543   0.585388  -0.000928
 =====================================================


   1 warning(s) detected.
     A line exceeding 80 characters begins with "http://cactus.nci.ni".
 There may be a problem in your input file.

              1504874  WORDS OF DYNAMIC MEMORY USED
 EXECUTION OF GAMESS TERMINATED NORMALLY Tue Nov 22 18:07:53 2016
 DDI: 263640 bytes (0.3 MB / 0 MWords) used by master data server.

 ----------------------------------------
 CPU timing information for all processes
 ========================================
 0: 126.588 + 0.100 = 126.688
 ----------------------------------------
 ddikick.x: exited gracefully.
