----- GAMESS execution script -----

          ******************************************************
          *         GAMESS VERSION =  5 DEC 2014 (R1)          *
          *             FROM IOWA STATE UNIVERSITY             *
          * M.W.SCHMIDT, K.K.BALDRIDGE, J.A.BOATZ, S.T.ELBERT, *
          *   M.S.GORDON, J.H.JENSEN, S.KOSEKI, N.MATSUNAGA,   *
          *          K.A.NGUYEN, S.J.SU, T.L.WINDUS,           *
          *       TOGETHER WITH M.DUPUIS, J.A.MONTGOMERY       *
          *         J.COMPUT.CHEM.  14, 1347-1363(1993)        *
          **************** 64 BIT LINUX VERSION ****************

 EXECUTION OF GAMESS BEGUN Tue Nov 22 18:04:56 2016

            ECHO OF THE FIRST FEW INPUT CARDS -
 INPUT CARD>! SELECT RESTRICTED HARTREE-FOCK AS DEFAULT                                     
 INPUT CARD>$contrl scftyp=rhf $end                                                         
 INPUT CARD>                                                                                
 INPUT CARD>! THEORY: HF OR DFT                                                             
 INPUT CARD> $contrl mplevl=0 $end                                                          
 INPUT CARD>                                                                                
 INPUT CARD> $system timlim=10000 mwords=20 $end                                            
 INPUT CARD> $SCF DIRSCF=.TRUE. $end                                                        
 INPUT CARD>                                                                                
 INPUT CARD>                                                                                
 INPUT CARD>! BASIS SETS                                                                    
 INPUT CARD>! 6-311G(d,p)                                                                   
 INPUT CARD> $BASIS GBASIS=N311 NGAUSS=6 NDFUNC=1 NPFUNC=1 $END                             
 INPUT CARD>                                                                                
 INPUT CARD>! One of the following                                                          
 INPUT CARD> $guess guess=HUCKEL $end                                                       
 INPUT CARD>                                                                                
 INPUT CARD> $statpt projct=.FALSE. $end                                                    
 INPUT CARD> $STATPT IFREEZ(1)=1,2,3 $END                                                   
 INPUT CARD>                                                                                
 INPUT CARD>! Optimize the geometry with COSMO effects                                      
 INPUT CARD> $statpt opttol=0.0005 nstep=50 $end                                            
 INPUT CARD> $contrl nzvar=1 $end                                                           
 INPUT CARD> $zmat dlc=.t. auto=.t. $end                                                    
 INPUT CARD> $contrl runtyp=OPTIMIZE maxit=200 $end                                         
 INPUT CARD>                                                                                
 INPUT CARD>! Run COSMO on perfect conductor                                                
 INPUT CARD> $COSGMS PRFCND=.TRUE. $end                                                     
 INPUT CARD>                                                                                
 INPUT CARD>! Specifying RSOLV                                                              
 INPUT CARD> $COSGMS COSRAD = 1.4 $end                                                      
 INPUT CARD>                                                                                
 INPUT CARD>! available memory                                                              
 INPUT CARD> $SYSTEM MWORDS=40 $END                                                         
 INPUT CARD>                                                                                
 INPUT CARD> $DATA                                                                          
 INPUT CARD>http://cactus.nci.nih.gov/chemical/structure/1,1,2,2-tetrachloroethane/file?form
 INPUT CARD>C1                                                                              
 INPUT CARD>Cl    17.0     -0.4816000000    1.5351000000    0.8609000000                    
 INPUT CARD>C      6.0     -0.5800000000    0.4988000000   -0.6112000000                    
 INPUT CARD>C      6.0      0.5800000000   -0.4988000000   -0.6112000000                    
 INPUT CARD>Cl    17.0      2.1440000000    0.3983000000   -0.6112000000                    
 INPUT CARD>Cl    17.0      0.4816000000   -1.5351000000    0.8609000000                    
 INPUT CARD>Cl    17.0     -2.1440000000   -0.3983000000   -0.6112000000                    
 INPUT CARD>H      1.0     -0.5205000000    1.1253000000   -1.5012000000                    
 INPUT CARD>H      1.0      0.5205000000   -1.1253000000   -1.5012000000                    
 INPUT CARD> $END                                                                           
 INPUT CARD>                                                                                
 INPUT CARD>                                                                                
   40000000 WORDS OF MEMORY AVAILABLE

     BASIS OPTIONS
     -------------
     GBASIS=N311         IGAUSS=       6      POLAR=POPN311 
     NDFUNC=       1     NFFUNC=       0     DIFFSP=       F
     NPFUNC=       1      DIFFS=       F     BASNAM=        


     RUN TITLE
     ---------
 http://cactus.nci.nih.gov/chemical/structure/1,1,2,2-tetrachloroethane/file?form

 THE POINT GROUP OF THE MOLECULE IS C1      
 THE ORDER OF THE PRINCIPAL AXIS IS     0

 ATOM      ATOMIC                      COORDINATES (BOHR)
           CHARGE         X                   Y                   Z
 CL         17.0    -0.9100920357        2.9009183638        1.6268651028
 C           6.0    -1.0960410729        0.9425953227       -1.1550005237
 C           6.0     1.0960410729       -0.9425953227       -1.1550005237
 CL         17.0     4.0515725177        0.7526778609       -1.1550005237
 CL         17.0     0.9100920357       -2.9009183638        1.6268651028
 CL         17.0    -4.0515725177       -0.7526778609       -1.1550005237
 H           1.0    -0.9836023766        2.1265086540       -2.8368566528
 H           1.0     0.9836023766       -2.1265086540       -2.8368566528

          INTERNUCLEAR DISTANCES (ANGS.)




     $CONTRL OPTIONS
     ---------------
 SCFTYP=RHF          RUNTYP=OPTIMIZE     EXETYP=RUN     
 MPLEVL=       0     CITYP =NONE         CCTYP =NONE         VBTYP =NONE    
 DFTTYP=NONE         TDDFT =NONE    
 MULT  =       1     ICHARG=       0     NZVAR =       1     COORD =UNIQUE  
 PP    =NONE         RELWFN=NONE         LOCAL =NONE         NUMGRD=       F
 ISPHER=      -1     NOSYM =       0     MAXIT =     200     UNITS =ANGS    
 PLTORB=       F     MOLPLT=       F     AIMPAC=       F     FRIEND=        
 NPRINT=       7     IREST =       0     GEOM  =INPUT   
 NORMF =       0     NORMP =       0     ITOL  =      20     ICUT  =       9
 INTTYP=BEST         GRDTYP=BEST         QMTTOL= 1.0E-06

     $SYSTEM OPTIONS
     ---------------
  REPLICATED MEMORY=    40000000 WORDS (ON EVERY NODE).
 DISTRIBUTED MEMDDI=           0 MILLION WORDS IN AGGREGATE,
 MEMDDI DISTRIBUTED OVER   1 PROCESSORS IS           0 WORDS/PROCESSOR.
 TOTAL MEMORY REQUESTED ON EACH PROCESSOR=    40000000 WORDS.
 TIMLIM=       10000.00 MINUTES, OR       6.9 DAYS.
 PARALL= F  BALTYP=  DLB     KDIAG=    0  COREFL= F
 MXSEQ2=     300 MXSEQ3=     150  mem10=         0

     $COSGMS OPTIONS
     ---------------
     EPSI  =   INFTY     NSPA  =      92     COSRAD=    1.40
     DISEX =   10.00     OUTCHG=DBLCAV       COSBUG=       F
     COSWRT=       F     DCOSMO=       F

     SYMMETRY COORDINATES WILL NOT BE USED FOR 
     THE COSMO CALCULATION, EVEN IF SPECIFIED:
         -- SWITCHING TO C1 POINT GROUP --


     DEFINITION OF CAVITY
     ---------------------------
     ATOM         COORDINATES           RADIUS 
     1   -0.9101    2.9009    1.6269    2.0500
     2   -1.0960    0.9426   -1.1550    2.0000
     3    1.0960   -0.9426   -1.1550    2.0000
     4    4.0516    0.7527   -1.1550    2.0500
     5    0.9101   -2.9009    1.6269    2.0500
     6   -4.0516   -0.7527   -1.1550    2.0500
     7   -0.9836    2.1265   -2.8369    1.3000
     8    0.9836   -2.1265   -2.8369    1.3000

          ----------------
          PROPERTIES INPUT
          ----------------

     MOMENTS            FIELD           POTENTIAL          DENSITY
 IEMOM =       1   IEFLD =       0   IEPOT =       0   IEDEN =       0
 WHERE =COMASS     WHERE =NUCLEI     WHERE =NUCLEI     WHERE =NUCLEI  
 OUTPUT=BOTH       OUTPUT=BOTH       OUTPUT=BOTH       OUTPUT=BOTH    
 IEMINT=       0   IEFINT=       0                     IEDINT=       0
                                                       MORB  =       0
          EXTRAPOLATION IN EFFECT
          SOSCF IN EFFECT
 ORBITAL PRINTING OPTION: NPREO=     1   158     2     1

     -------------------------------
     INTEGRAL TRANSFORMATION OPTIONS
     -------------------------------
     NWORD  =            0
     CUTOFF = 1.0E-09     MPTRAN =       0
     DIRTRF =       T     AOINTS =DUP     

          ----------------------
          INTEGRAL INPUT OPTIONS
          ----------------------
 NOPK  =       1 NORDER=       0 SCHWRZ=       T


 -----------------------------------------------
  STATISTICS ON AUTOMATIC COORDINATE GENERATION 
 -----------------------------------------------
  NUMBER OF USER SPECIFIED BONDS                             0
  NUMBER OF BONDS                                            7
  NUMBER OF ANGLES                                          12
  NUMBER OF TORSIONS                                         9
  NUMBER OF EXTRA COORD.                                     0
  NUMBER OF EXTRA COORD. FOR CONSTRAINTS                     0
  NUMBER OF CONSTRAINED COORD.                               0

  TOTAL NUMBER OF PRIMITIVES                                28
 -----------------------------------------------

   --- ENCODED Z MATRIX ---
 COORD  TYPE   I   J   K   L   M   N
    1      1    1   2
    2      1    2   7
    3      1    2   3
    4      1    2   6
    5      1    3   4
    6      1    3   8
    7      1    3   5
    8      2    1   2   6
    9      2    1   2   7
   10      2    1   2   3
   11      2    2   3   4
   12      2    2   3   8
   13      2    2   3   5
   14      2    3   2   6
   15      2    3   2   7
   16      2    4   3   5
   17      2    4   3   8
   18      2    5   3   8
   19      2    6   2   7
   20      3    1   2   3   5
   21      3    1   2   3   8
   22      3    1   2   3   4
   23      3    4   3   2   6
   24      3    4   3   2   7
   25      3    5   3   2   6
   26      3    5   3   2   7
   27      3    6   2   3   8
   28      3    7   2   3   8

          INDEP./SYM. INTERNAL COORDINATES
          --------------------------------
 CRD  1=  -0.1293 (  9)  0.3021 ( 10)  0.5576 ( 11) -0.1627 ( 12) -0.3021 ( 13)
          -0.5576 ( 14)  0.1627 ( 15) -0.1535 ( 17)  0.1293 ( 18)  0.1535 ( 19)
          -0.1264 ( 21)  0.1264 ( 26)
 CRD  2=  -0.3003 (  3)  0.2695 (  8)  0.1857 (  9) -0.5311 ( 10) -0.1443 ( 11)
           0.1640 ( 12) -0.5311 ( 13) -0.1443 ( 14)  0.1640 ( 15)  0.2695 ( 16)
           0.1857 ( 18)  0.1086 ( 23)
 CRD  3=  -0.3688 (  3)  0.1733 (  8)  0.2297 ( 10) -0.4269 ( 11) -0.2450 ( 12)
           0.2297 ( 13) -0.4269 ( 14) -0.2450 ( 15)  0.1733 ( 16)  0.2864 ( 17)
           0.2864 ( 19)  0.1039 ( 20)
 CRD  4=   0.1297 (  2) -0.1297 (  6)  0.3808 (  8) -0.4493 ( 10)  0.1724 ( 11)
          -0.2788 ( 12)  0.4493 ( 13) -0.1724 ( 14)  0.2788 ( 15) -0.3808 ( 16)
 CRD  5=  -0.1057 (  2) -0.3271 (  3) -0.1057 (  6) -0.1096 (  8)  0.3091 (  9)
           0.2978 ( 11) -0.4527 ( 12)  0.2978 ( 14) -0.4527 ( 15) -0.1096 ( 16)
           0.3091 ( 18)
 CRD  6=  -0.2124 (  1)  0.1230 (  2)  0.1230 (  6) -0.2124 (  7) -0.2056 (  8)
          -0.2056 ( 16)  0.2206 ( 17)  0.2206 ( 19)  0.3241 ( 22)  0.5511 ( 23)
           0.2783 ( 24)  0.3241 ( 25)  0.2783 ( 27)
 CRD  7=  -0.2645 (  1) -0.2158 (  2) -0.2326 (  4)  0.2326 (  5)  0.2158 (  6)
           0.2645 (  7) -0.2603 (  9)  0.1130 ( 10) -0.1255 ( 11) -0.3753 ( 12)
          -0.1130 ( 13)  0.1255 ( 14)  0.3753 ( 15)  0.2855 ( 17)  0.2603 ( 18)
          -0.2855 ( 19)
 CRD  8=   0.2808 (  2) -0.2992 (  4) -0.2992 (  5)  0.2808 (  6) -0.2158 (  8)
           0.1331 (  9) -0.1074 ( 11) -0.1074 ( 14) -0.2158 ( 16)  0.1331 ( 18)
          -0.4998 ( 20) -0.2659 ( 21) -0.2072 ( 22) -0.2072 ( 25) -0.2659 ( 26)
 CRD  9=   0.2410 (  1) -0.3768 (  2)  0.1870 (  4) -0.1870 (  5)  0.3768 (  6)
          -0.2410 (  7)  0.2298 (  8) -0.1472 (  9)  0.1237 ( 12) -0.1237 ( 15)
          -0.2298 ( 16)  0.1472 ( 18)  0.2009 ( 21)  0.3296 ( 22)  0.1287 ( 24)
          -0.3296 ( 25) -0.2009 ( 26) -0.1287 ( 27)
 CRD 10=   0.3533 (  1)  0.3651 (  2)  0.3193 (  3)  0.3749 (  4)  0.3749 (  5)
           0.3651 (  6)  0.3533 (  7)  0.1055 (  9) -0.1397 ( 12) -0.1397 ( 15)
           0.1043 ( 17)  0.1055 ( 18)  0.1043 ( 19)
 CRD 11=  -0.3922 (  1)  0.3498 (  4) -0.3498 (  5)  0.3922 (  7) -0.2146 (  9)
          -0.2138 ( 17)  0.2146 ( 18)  0.2138 ( 19)  0.2567 ( 21) -0.2521 ( 24)
          -0.2567 ( 26)  0.2521 ( 27)
 CRD 12=  -0.3592 (  1)  0.3484 (  4)  0.3484 (  5) -0.3592 (  7) -0.1501 (  9)
           0.1509 ( 17) -0.1501 ( 18)  0.1509 ( 19) -0.2431 ( 21) -0.2259 ( 24)
          -0.2431 ( 26) -0.2259 ( 27) -0.3903 ( 28)
 CRD 13=  -0.3076 (  1) -0.3612 (  2) -0.3166 (  4)  0.3166 (  5)  0.3612 (  6)
           0.3076 (  7)  0.1103 (  8)  0.1864 (  9) -0.1345 ( 10)  0.1259 ( 11)
           0.2328 ( 12)  0.1345 ( 13) -0.1259 ( 14) -0.2328 ( 15) -0.1103 ( 16)
          -0.1964 ( 17) -0.1864 ( 18)  0.1964 ( 19)
 CRD 14=  -0.3166 (  1)  0.4878 (  2) -0.1113 (  3)  0.4878 (  6) -0.3166 (  7)
           0.1392 (  8)  0.1392 ( 16) -0.1642 ( 17) -0.1642 ( 19)  0.2131 ( 20)
           0.1688 ( 21) -0.2409 ( 23)  0.1688 ( 26)  0.1245 ( 28)
 CRD 15=   0.2341 (  1)  0.1179 (  2) -0.7406 (  3)  0.1814 (  4)  0.1814 (  5)
           0.1179 (  6)  0.2341 (  7) -0.1273 (  8) -0.1621 (  9)  0.1060 ( 10)
           0.1065 ( 11)  0.2025 ( 12)  0.1060 ( 13)  0.1065 ( 14)  0.2025 ( 15)
          -0.1273 ( 16) -0.1256 ( 17) -0.1621 ( 18) -0.1256 ( 19)
 CRD 16=   0.3296 (  2) -0.4197 (  4)  0.4197 (  5) -0.3296 (  6)  0.1210 (  8)
          -0.2005 (  9)  0.1159 ( 12) -0.1159 ( 15) -0.1210 ( 16) -0.1107 ( 17)
           0.2005 ( 18)  0.1107 ( 19)  0.2801 ( 21)  0.2000 ( 22) -0.2000 ( 25)
          -0.2801 ( 26)
 CRD 17=   0.3376 (  1) -0.2309 (  2)  0.2309 (  6) -0.3376 (  7) -0.1105 (  9)
          -0.1932 ( 10) -0.2127 ( 12)  0.1932 ( 13)  0.2127 ( 15) -0.1746 ( 17)
           0.1105 ( 18)  0.1746 ( 19)  0.1234 ( 21) -0.2271 ( 22) -0.3506 ( 24)
           0.2271 ( 25) -0.1234 ( 26)  0.3506 ( 27)
 CRD 18=   0.1987 (  1) -0.3053 (  4) -0.3053 (  5)  0.1987 (  7) -0.1852 (  9)
          -0.1116 ( 10)  0.2080 ( 11) -0.1135 ( 12) -0.1116 ( 13)  0.2080 ( 14)
          -0.1135 ( 15)  0.1606 ( 17) -0.1852 ( 18)  0.1606 ( 19)  0.2544 ( 20)
          -0.1103 ( 21)  0.1442 ( 22) -0.2205 ( 24)  0.1442 ( 25) -0.1103 ( 26)
          -0.2205 ( 27) -0.4751 ( 28)

 THE DETERMINANT OF THE G MATRIX IS 10**(   -18)


                     --------------------
                     INTERNAL COORDINATES
                     --------------------

                 - - ATOMS - -         COORDINATE      COORDINATE
 NO.   TYPE    I  J  K  L  M  N        (BOHR,RAD)       (ANG,DEG)
 ----------------------------------------------------------------
   1 STRETCH   1  2                     3.4071077       1.8029639
   2 STRETCH   2  7                     2.0598382       1.0900195
   3 STRETCH   2  3                     2.8912226       1.5299692
   4 STRETCH   2  6                     3.4072155       1.8030209
   5 STRETCH   3  4                     3.4072155       1.8030209
   6 STRETCH   3  8                     2.0598382       1.0900195
   7 STRETCH   3  5                     3.4071077       1.8029639
   8 BEND      1  2  6                  1.9106230     109.4706315
   9 BEND      1  2  7                  1.9106244     109.4707156
  10 BEND      1  2  3                  1.9107008     109.4750942
  11 BEND      2  3  4                  1.9105451     109.4661733
  12 BEND      2  3  8                  1.9106826     109.4740502
  13 BEND      2  3  5                  1.9107008     109.4750942
  14 BEND      3  2  6                  1.9105451     109.4661733
  15 BEND      3  2  7                  1.9106826     109.4740502
  16 BEND      4  3  5                  1.9106230     109.4706315
  17 BEND      4  3  8                  1.9106234     109.4706589
  18 BEND      5  3  8                  1.9106244     109.4707156
  19 BEND      6  2  7                  1.9106234     109.4706589
  20 TORSION   1  2  3  5               1.0471473      59.9971189
  21 TORSION   1  2  3  8              -3.1415821    -179.9993944
  22 TORSION   1  2  3  4              -1.0472227     -60.0014405
  23 TORSION   4  3  2  6               3.1415927     180.0000000
  24 TORSION   4  3  2  7               1.0472333      60.0020462
  25 TORSION   5  3  2  6              -1.0472227     -60.0014405
  26 TORSION   5  3  2  7              -3.1415821    -179.9993944
  27 TORSION   6  2  3  8               1.0472333      60.0020462
  28 TORSION   7  2  3  8              -1.0471261     -59.9959077

     ------------------------------------------
     THE POINT GROUP IS C1 , NAXIS= 1, ORDER= 1
     ------------------------------------------

     DIMENSIONS OF THE SYMMETRY SUBSPACES ARE
 A   =  158

 ..... DONE SETTING UP THE RUN .....
 STEP CPU TIME =     0.03 TOTAL CPU TIME =        0.0 (    0.0 MIN)
 TOTAL WALL CLOCK TIME=        0.0 SECONDS, CPU UTILIZATION IS  60.00%


          -----------------------------
          STATIONARY POINT LOCATION RUN
          -----------------------------

 OBTAINING INITIAL HESSIAN, HESS=GUESS   
 DIAGONAL GUESS HESSIAN IN INTERNAL COORDS IS
     1  0.3312     2  0.3464     3  0.3672     4  0.3312     5  0.3312
     6  0.3464     7  0.3312     8  0.2593     9  0.2286    10  0.2538
    11  0.2538    12  0.2241    13  0.2538    14  0.2538    15  0.2241
    16  0.2593    17  0.2286    18  0.2286    19  0.2286    20  0.2500
    21  0.2500    22  0.2500    23  0.2500    24  0.2500    25  0.2500
    26  0.2500    27  0.2500    28  0.2500
 TRANSFORMING HESSIAN TO SYMMETRY COORDINATES

          PARAMETERS CONTROLLING GEOMETRY SEARCH ARE
          METHOD =QA                  UPHESS =BFGS    
          NNEG   =         0          NFRZ   =         3
          NSTEP  =        50          IFOLOW =         1
          HESS   =GUESS               RESTAR =         F
          IHREP  =         0          HSSEND =         F
          NPRT   =         0          NPUN   =         0
          OPTTOL = 5.000E-04          RMIN   = 1.500E-03
          RMAX   = 1.000E-01          RLIM   = 7.000E-02
          DXMAX  = 3.000E-01          PURIFY =         F
          MOVIE  =         F          TRUPD  =         T
          TRMAX  = 5.000E-01          TRMIN  = 5.000E-02
          ITBMAT =         5          STPT   =         F
          STSTEP = 1.000E-02          PROJCT=          F
          FROZEN COORD(S)=   1   2   3


      ***** EQUILIBRIUM GEOMETRY LOCATED *****
            (SUBJECT TO   3 CONSTRAINT(S))
 COORDINATES OF ALL ATOMS ARE (ANGS)
   ATOM   CHARGE       X              Y              Z
 ------------------------------------------------------------
 CL         17.0  -0.5022821751   1.5025276421   0.9181468458
 C           6.0  -0.5699965544   0.5026221400  -0.5486328416
 C           6.0   0.5700000184  -0.5026186177  -0.5486351567
 CL         17.0   2.1122719628   0.3717051542  -0.6928988869
 CL         17.0   0.5022855915  -1.5025289155   0.9181489656
 CL         17.0  -2.1122764717  -0.3717052747  -0.6929011117
 H           1.0  -0.5009247196   1.1567046569  -1.3977380210
 H           1.0   0.5009213803  -1.1566982347  -1.3977419608


                     --------------------
                     INTERNAL COORDINATES
                     --------------------

                 - - ATOMS - -         COORDINATE      COORDINATE
 NO.   TYPE    I  J  K  L  M  N        (BOHR,RAD)       (ANG,DEG)
 ----------------------------------------------------------------
   1 STRETCH   1  2                     3.3570379       1.7764681
   2 STRETCH   2  7                     2.0296523       1.0740458
   3 STRETCH   2  3                     2.8721977       1.5199017
   4 STRETCH   2  6                     3.3613169       1.7787324
   5 STRETCH   3  4                     3.3612998       1.7787234
   6 STRETCH   3  8                     2.0296522       1.0740458
   7 STRETCH   3  5                     3.3570500       1.7764745
   8 BEND      1  2  6                  1.9570171     112.1288210
   9 BEND      1  2  7                  1.8833829     107.9098910
  10 BEND      1  2  3                  1.9216289     110.1012265
  11 BEND      2  3  4                  1.9020610     108.9800671
  12 BEND      2  3  8                  1.9332140     110.7650047
  13 BEND      2  3  5                  1.9216268     110.1011057
  14 BEND      3  2  6                  1.9020611     108.9800732
  15 BEND      3  2  7                  1.9332184     110.7652568
  16 BEND      4  3  5                  1.9570157     112.1287402
  17 BEND      4  3  8                  1.8660599     106.9173593
  18 BEND      5  3  8                  1.8833848     107.9099974
  19 BEND      6  2  7                  1.8660537     106.9169987
  20 TORSION   1  2  3  5               0.9931150      56.9012964
  21 TORSION   1  2  3  8               3.0748339     176.1750029
  22 TORSION   1  2  3  4              -1.1601122     -66.4695302
  23 TORSION   4  3  2  6               2.9698428     170.1594593
  24 TORSION   4  3  2  7               0.9216086      52.8042809
  25 TORSION   5  3  2  6              -1.1601154     -66.4697141
  26 TORSION   5  3  2  7               3.0748357     176.1751075
  27 TORSION   6  2  3  8               0.9216035      52.8039924
  28 TORSION   7  2  3  8              -1.1266307     -64.5511860

          INTERNUCLEAR DISTANCES (ANGS.)


 =====================================================
   GAMESS/COSab RESULTS
 =====================================================

   Dielectric Constant                  = INFTY
   Basic Grid Size                      =                 1082
   Number of Segments                   =                   92
   Number of Segments located on spheres=                  220
   Number of Segments of the cavity     =                  356
   Solvent Radius (rsolv)               = 1.40
   Outlying Charge Error Method         = double cavity

 =====================================================

  Total solvated Energy (a.u.)          = -1914.9422967473
  Total Energy corrected (a.u.)         = -1914.9425303521

  Outlying charge effect (a.u.)         =    -0.0002336047
  Outlying charge effect (kcal/mol)     =    -0.1465892978

  Dielectric Energy (a.u.)              =    -0.0113787983
  Dielectric energy corr. (a.u.)        =    -0.0116124030

  Sum of polarization charges           =     0.0195152798
  Sum of polarization charges(cor.)     =    -0.0195152798

  Total surface area of cavity (A**2)   =  147.65
  Total volume of cavity (A**3)         =  147.56

 =====================================================
 NPS=                   356
NR.  ATOM  (X, Y, Z)(a.u.)                  CHARGE(e)  AREA(A**2) SIGMA(e/A**2)
   1   1  -0.829169   4.928643   4.995082  -0.003412   0.536887  -0.006355
   2   1   1.522264   2.202266   4.649402   0.000705   0.244040   0.002888
   3   1  -2.403509   1.388312   5.019356   0.001879   0.390463   0.004813
   4   1  -4.257585   4.322327   3.099805   0.001996   0.439271   0.004543
   5   1  -1.540734   6.655145   1.423219   0.002325   0.488079   0.004764
   6   1   2.075264   5.209201   2.229052   0.001165   0.292848   0.003979
   7   1   0.287370   4.047124   5.201977  -0.002490   0.585695  -0.004252
   8   1   0.976308   2.853416   5.096545   0.000173   0.488079   0.000354
   9   1  -1.356017   3.707127   5.488549  -0.002320   0.585695  -0.003961
  10   1  -1.839966   2.416699   5.481400   0.000451   0.488079   0.000923
  11   1  -2.241607   4.972175   4.699510  -0.002405   0.585695  -0.004105
  12   1  -3.383987   4.941308   3.893943   0.000306   0.536887   0.000571
  13   1  -1.147155   5.938684   4.050719  -0.002489   0.536887  -0.004637
  14   1  -1.261464   6.539624   2.838628  -0.000028   0.488079  -0.000058
  15   1   0.334026   5.476323   4.266288  -0.003221   0.683311  -0.004714
  16   1   1.425552   5.456924   3.321369   0.000076   0.585695   0.000129
  17   1   0.273277   1.783716   5.256207   0.001318   0.341655   0.003859
  18   1  -1.056494   1.347694   5.308665   0.001328   0.439271   0.003024
  19   1  -3.218380   2.245606   4.818142   0.002043   0.536887   0.003806
  20   1  -4.038225   3.322467   4.022337   0.002421   0.585695   0.004133
  21   1  -3.717901   5.450554   2.458355   0.002667   0.585695   0.004554
  22   1  -2.699909   6.289767   1.927381   0.002517   0.585695   0.004297
  23   1  -0.241578   6.642460   1.527342   0.002322   0.536887   0.004324
  24   1   1.138989   6.096637   1.927729   0.001815   0.488079   0.003718
  25   1   2.266560   4.348263   3.280900   0.001678   0.488079   0.003438
  26   1   2.177559   2.975124   4.018135   0.002051   0.585695   0.003502
  27   1  -2.392158   0.688056   4.615501   0.001307   0.195232   0.006696
  28   1  -3.392081   0.948754   4.072812   0.002337   0.439271   0.005320
  29   1  -4.663610   3.218191   2.767904   0.002530   0.439271   0.005761
  30   1  -4.487902   4.415600   1.719748   0.003624   0.585695   0.006188
  31   1  -4.016029   4.740557   0.325350   0.001950   0.439271   0.004438
  32   1  -2.971423   5.243917  -0.531236   0.001352   0.488079   0.002770
  33   1  -2.429397   6.150401   0.373667   0.003356   0.536887   0.006251
  34   1  -0.735269   6.406695   0.239790   0.002890   0.488079   0.005921
  35   1  -0.404803   5.829165  -0.667488   0.001297   0.341655   0.003795
  36   1   0.725232   5.615672  -0.385309   0.001885   0.439271   0.004292
  37   1   1.555126   5.691904   0.961156   0.002664   0.390463   0.006823
  38   1  -0.400579   2.730753   5.568397  -0.000409   0.488079  -0.000837
  39   1  -2.881216   3.694930   4.981973  -0.000480   0.683311  -0.000702
  40   1  -2.480922   6.001567   3.366470  -0.000350   0.585695  -0.000597
  41   1   0.144225   6.368296   2.900580  -0.000210   0.634503  -0.000331
  42   1   1.485778   4.225387   4.410360  -0.000669   0.536887  -0.001247
  43   1  -4.122376   2.060806   3.816386   0.002357   0.390463   0.006037
  44   1  -3.536822   5.607131   0.928257   0.003028   0.488079   0.006205
  45   1   0.564553   6.225008   0.615472   0.001940   0.341655   0.005679
  46   1  -1.617650   5.840237  -0.621925   0.002105   0.439271   0.004792
  47   2  -3.279380   3.648345  -2.503835  -0.001464   0.139368  -0.010508
  48   2  -1.161009   0.010860  -4.696770  -0.000523   0.046456  -0.011251
  49   2  -0.863647   0.437194  -4.775207  -0.001938   0.139368  -0.013906
  50   2  -2.968112   4.006842  -2.204253  -0.000442   0.046456  -0.009507
  51   3   3.279359  -3.648364  -2.503851  -0.001465   0.139368  -0.010509
  52   3   1.160999  -0.010857  -4.696762  -0.000523   0.046456  -0.011252
  53   3   0.863634  -0.437189  -4.775199  -0.001938   0.139368  -0.013906
  54   3   2.968090  -4.006859  -2.204270  -0.000442   0.046456  -0.009507
  55   4   7.318568   2.673832  -1.537989  -0.003495   0.536887  -0.006509
  56   4   6.278221   0.827853   1.815210   0.001930   0.439271   0.004395
  57   4   4.764001   3.907356   0.725123   0.001524   0.341655   0.004460
  58   4   4.059841   3.973916  -3.383040   0.001767   0.439271   0.004024
  59   4   5.828089   0.699903  -4.720349   0.002053   0.488079   0.004205
  60   4   7.167878  -1.509055  -1.476881   0.002075   0.439271   0.004724
  61   4   7.471353   2.040461  -0.256569  -0.002431   0.585695  -0.004151
  62   4   7.027087   1.532610   0.949833   0.000232   0.488079   0.000475
  63   4   6.609800   3.468136  -0.599955  -0.002422   0.585695  -0.004135
  64   4   5.603644   3.913958   0.137952   0.000244   0.439271   0.000555
  65   4   6.451464   3.517149  -2.326144  -0.002735   0.585695  -0.004670
  66   4   5.363550   3.823272  -3.149341  -0.000163   0.536887  -0.000303
  67   4   7.196356   2.214474  -2.874842  -0.002707   0.536887  -0.005043
  68   4   6.763933   1.449718  -3.909984  -0.000280   0.488079  -0.000575
  69   4   7.793975   1.292005  -1.758577  -0.003154   0.683311  -0.004616
  70   4   7.755449  -0.147502  -1.653633   0.000156   0.585695   0.000266
  71   4   5.822081   2.064236   1.821471   0.002019   0.488079   0.004137
  72   4   5.217155   3.163910   1.419449   0.001513   0.439271   0.003443
  73   4   4.427231   4.486730  -0.604650   0.001483   0.488079   0.003038
  74   4   4.428668   4.447453  -2.198829   0.001164   0.439271   0.002649
  75   4   4.656382   3.117725  -4.264338   0.001913   0.536887   0.003563
  76   4   5.390180   1.878155  -4.725376   0.001838   0.536887   0.003423
  77   4   6.539775  -0.189933  -4.087496   0.002143   0.536887   0.003992
  78   4   7.103682  -1.020288  -2.843866   0.002442   0.585695   0.004170
  79   4   7.337647  -0.992601  -0.340721   0.002656   0.634503   0.004186
  80   4   7.115485  -0.007434   0.868895   0.001749   0.536887   0.003258
  81   4   5.119973   1.113702   2.373695   0.002423   0.439271   0.005515
  82   4   3.141614   4.177619  -2.795287   0.001924   0.390463   0.004928
  83   4   3.271423   3.176646  -4.201947   0.002597   0.488079   0.005321
  84   4   3.142383   1.836306  -4.915003   0.001873   0.390463   0.004797
  85   4   3.050968   0.532092  -5.063522   0.001149   0.488079   0.002354
  86   4   4.430259   0.683476  -5.158356   0.003120   0.536887   0.005812
  87   4   5.359755  -0.674240  -4.662045   0.002724   0.488079   0.005582
  88   4   4.669619  -1.622942  -4.332685   0.001596   0.439271   0.003633
  89   4   5.148740  -2.553636  -3.060528   0.001724   0.536887   0.003212
  90   4   6.411176  -2.150090  -2.317471   0.002871   0.488079   0.005883
  91   4   6.347069  -2.297282  -0.630437   0.003177   0.536887   0.005918
  92   4   6.187864  -0.316830   1.714687   0.002809   0.488079   0.005755
  93   4   6.501027   2.820697   0.745642  -0.000221   0.585695  -0.000377
  94   4   5.553752   4.245312  -1.431969  -0.000762   0.634503  -0.001201
  95   4   6.143143   2.737783  -3.806495  -0.000803   0.585695  -0.001371
  96   4   7.406920   0.462433  -3.121955  -0.000278   0.634503  -0.000438
  97   4   7.700398   0.547271  -0.201144  -0.000401   0.585695  -0.000685
  98   4   4.728231   2.208609   2.182924   0.001512   0.244040   0.006195
  99   4   3.522416   4.530933  -1.669603   0.001564   0.292848   0.005342
 100   4   4.154291   2.062364  -4.933119   0.002280   0.439271   0.005191
 101   4   6.018098  -1.592726  -3.682778   0.003545   0.585695   0.006052
 102   4   6.442220  -1.478083   0.751514   0.002800   0.536887   0.005215
 103   4   4.042313  -0.565602  -4.969562   0.001882   0.439271   0.004284
 104   4   5.547452  -2.823867  -1.699279   0.001803   0.488079   0.003694
 105   5   0.829193  -4.928626   4.995107  -0.003412   0.536887  -0.006355
 106   5  -1.522231  -2.202240   4.649431   0.000705   0.244040   0.002889
 107   5   2.403549  -1.388302   5.019355   0.001873   0.390463   0.004797
 108   5   4.257599  -4.322334   3.099805   0.002014   0.439271   0.004584
 109   5   1.540727  -6.655148   1.423248   0.002326   0.488079   0.004765
 110   5  -2.075260  -5.209184   2.229097   0.001165   0.292848   0.003979
 111   5  -0.287340  -4.047101   5.202006  -0.002490   0.585695  -0.004252
 112   5  -0.976275  -2.853391   5.096573   0.000173   0.488079   0.000354
 113   5   1.356050  -3.707110   5.488565  -0.002320   0.585695  -0.003961
 114   5   1.840004  -2.416685   5.481407   0.000450   0.488079   0.000922
 115   5   2.241629  -4.972166   4.699526  -0.002405   0.585695  -0.004105
 116   5   3.384003  -4.941307   3.893952   0.000306   0.536887   0.000570
 117   5   1.147168  -5.938673   4.050747  -0.002489   0.536887  -0.004637
 118   5   1.261466  -6.539619   2.838658  -0.000028   0.488079  -0.000058
 119   5  -0.334009  -5.476304   4.266324  -0.003221   0.683311  -0.004714
 120   5  -1.425542  -5.456905   3.321412   0.000076   0.585695   0.000129
 121   5  -0.273238  -1.783693   5.256225   0.001319   0.341655   0.003859
 122   5   1.056535  -1.347677   5.308672   0.001330   0.439271   0.003027
 123   5   3.218415  -2.245601   4.818139   0.002060   0.536887   0.003838
 124   5   4.038249  -3.322469   4.022334   0.002374   0.585695   0.004053
 125   5   3.717905  -5.450561   2.458364   0.002684   0.585695   0.004583
 126   5   2.699906  -6.289773   1.927400   0.002515   0.585695   0.004295
 127   5   0.241571  -6.642457   1.527379   0.002321   0.536887   0.004324
 128   5  -1.138991  -6.096626   1.927772   0.001815   0.488079   0.003718
 129   5  -2.266545  -4.348240   3.280943   0.001678   0.488079   0.003438
 130   5  -2.177533  -2.975099   4.018171   0.002051   0.585695   0.003501
 131   5   2.392198  -0.688047   4.615497   0.001292   0.195232   0.006618
 132   5   3.392116  -0.948753   4.072803   0.002494   0.439271   0.005677
 133   5   4.663627  -3.218201   2.767896   0.002724   0.439271   0.006200
 134   5   4.487906  -4.415615   1.719747   0.003402   0.585695   0.005808
 135   5   4.016023  -4.740576   0.325354   0.001954   0.439271   0.004447
 136   5   2.971409  -5.243935  -0.531223   0.001388   0.488079   0.002844
 137   5   2.429385  -6.150413   0.373688   0.003354   0.536887   0.006248
 138   5   0.735255  -6.406699   0.239823   0.002890   0.488079   0.005921
 139   5   0.404785  -5.829172  -0.667456   0.001297   0.341655   0.003796
 140   5  -0.725247  -5.615673  -0.385270   0.001885   0.439271   0.004292
 141   5  -1.555133  -5.691895   0.961201   0.002664   0.390463   0.006823
 142   5   0.400617  -2.730732   5.568415  -0.000408   0.488079  -0.000837
 143   5   2.881245  -3.694922   4.981979  -0.000477   0.683311  -0.000698
 144   5   2.480930  -6.001565   3.366490  -0.000351   0.585695  -0.000599
 145   5  -0.144222  -6.368285   2.900618  -0.000210   0.634503  -0.000331
 146   5  -1.485755  -4.225363   4.410397  -0.000669   0.536887  -0.001246
 147   5   4.122404  -2.060809   3.816377   0.002205   0.390463   0.005648
 148   5   3.536816  -5.607145   0.928267   0.003032   0.488079   0.006213
 149   5  -0.564564  -6.225005   0.615513   0.001940   0.341655   0.005679
 150   5   1.617632  -5.840249  -0.621900   0.002103   0.439271   0.004787
 151   6  -7.318586  -2.673810  -1.538035  -0.003495   0.536887  -0.006510
 152   6  -6.278232  -0.827869   1.815183   0.001985   0.439271   0.004520
 153   6  -4.764026  -3.907369   0.725066   0.001523   0.341655   0.004459
 154   6  -4.059864  -3.973891  -3.383097   0.001767   0.439271   0.004024
 155   6  -5.828096  -0.699856  -4.720374   0.002052   0.488079   0.004205
 156   6  -7.167876   1.509076  -1.476884   0.002092   0.439271   0.004763
 157   6  -7.471368  -2.040452  -0.256609  -0.002431   0.585695  -0.004151
 158   6  -7.027101  -1.532615   0.949799   0.000228   0.488079   0.000468
 159   6  -6.609822  -3.468127  -0.600008  -0.002422   0.585695  -0.004135
 160   6  -5.603669  -3.913961   0.137895   0.000244   0.439271   0.000555
 161   6  -6.451485  -3.517123  -2.326198  -0.002735   0.585695  -0.004670
 162   6  -5.363573  -3.823243  -3.149398  -0.000163   0.536887  -0.000303
 163   6  -7.196371  -2.214438  -2.874883  -0.002707   0.536887  -0.005043
 164   6  -6.763944  -1.449675  -3.910017  -0.000281   0.488079  -0.000575
 165   6  -7.793986  -1.291978  -1.758609  -0.003154   0.683311  -0.004616
 166   6  -7.755453   0.147527  -1.653650   0.000155   0.585695   0.000265
 167   6  -5.822098  -2.064255   1.821432   0.002010   0.488079   0.004118
 168   6  -5.217177  -3.163928   1.419400   0.001514   0.439271   0.003447
 169   6  -4.427259  -4.486731  -0.604713   0.001483   0.488079   0.003038
 170   6  -4.428694  -4.447438  -2.198891   0.001164   0.439271   0.002649
 171   6  -4.656400  -3.117688  -4.264386   0.001913   0.536887   0.003562
 172   6  -5.390193  -1.878109  -4.725413   0.001837   0.536887   0.003422
 173   6  -6.539778   0.189977  -4.087512   0.002143   0.536887   0.003991
 174   6  -7.103681   1.020322  -2.843874   0.002439   0.585695   0.004165
 175   6  -7.337649   0.992611  -0.340730   0.002633   0.634503   0.004150
 176   6  -7.115492   0.007430   0.868877   0.001755   0.536887   0.003269
 177   6  -5.119986  -1.113730   2.373666   0.002534   0.439271   0.005769
 178   6  -3.141638  -4.177604  -2.795345   0.001924   0.390463   0.004928
 179   6  -3.271442  -3.176616  -4.201995   0.002597   0.488079   0.005321
 180   6  -3.142395  -1.836269  -4.915038   0.001873   0.390463   0.004797
 181   6  -3.050973  -0.532055  -5.063543   0.001149   0.488079   0.002353
 182   6  -4.430266  -0.683430  -5.158380   0.003120   0.536887   0.005811
 183   6  -5.359754   0.674285  -4.662055   0.002724   0.488079   0.005581
 184   6  -4.669615   1.622980  -4.332685   0.001596   0.439271   0.003632
 185   6  -5.148732   2.553663  -3.060520   0.001729   0.536887   0.003220
 186   6  -6.411170   2.150116  -2.317467   0.002871   0.488079   0.005882
 187   6  -6.347064   2.297290  -0.630432   0.002903   0.536887   0.005408
 188   6  -6.187869   0.316814   1.714672   0.002526   0.488079   0.005176
 189   6  -6.501047  -2.820702   0.745595  -0.000220   0.585695  -0.000376
 190   6  -5.553778  -4.245299  -1.432030  -0.000762   0.634503  -0.001201
 191   6  -6.143160  -2.737743  -3.806541  -0.000803   0.585695  -0.001371
 192   6  -7.406926  -0.462395  -3.121978  -0.000278   0.634503  -0.000439
 193   6  -7.700406  -0.547260  -0.201168  -0.000402   0.585695  -0.000686
 194   6  -4.728250  -2.208637   2.182885   0.001495   0.244040   0.006125
 195   6  -3.522443  -4.530928  -1.669665   0.001564   0.292848   0.005342
 196   6  -4.154304  -2.062322  -4.933156   0.002280   0.439271   0.005191
 197   6  -6.018094   1.592763  -3.682780   0.003544   0.585695   0.006050
 198   6  -6.442220   1.478078   0.751511   0.003070   0.536887   0.005718
 199   6  -4.042313   0.565643  -4.969573   0.001882   0.439271   0.004284
 200   6  -5.547443   2.823883  -1.699268   0.001852   0.488079   0.003794
 201   7  -1.084726   3.888528  -4.406817  -0.005807   0.412182  -0.014089
 202   7  -1.045663   4.557728  -3.273374  -0.003641   0.294415  -0.012366
 203   7  -2.432004   3.727820  -3.845924  -0.004588   0.333671  -0.013750
 204   7  -1.423739   2.043195  -5.046983  -0.004942   0.353299  -0.013988
 205   7  -0.331948   1.872136  -4.999072  -0.003871   0.274788  -0.014086
 206   7  -1.920399   4.321489  -3.366505  -0.004771   0.353299  -0.013503
 207   7  -1.978092   3.067807  -4.689096  -0.005116   0.392554  -0.013032
 208   7  -0.702809   2.875358  -4.986603  -0.004938   0.353299  -0.013978
 209   7   0.102038   3.282601  -4.573330  -0.004591   0.353299  -0.012996
 210   7  -0.084943   4.282234  -3.588861  -0.006766   0.471065  -0.014362
 211   8   1.084694  -3.888521  -4.406820  -0.005807   0.412182  -0.014089
 212   8   1.045632  -4.557725  -3.273380  -0.003641   0.294415  -0.012366
 213   8   2.431976  -3.727823  -3.845932  -0.004588   0.333671  -0.013750
 214   8   1.423716  -2.043187  -5.046979  -0.004942   0.353299  -0.013988
 215   8   0.331926  -1.872122  -4.999063  -0.003871   0.274788  -0.014086
 216   8   1.920369  -4.321491  -3.366513  -0.004770   0.353299  -0.013503
 217   8   1.978064  -3.067804  -4.689099  -0.005116   0.392554  -0.013032
 218   8   0.702782  -2.875346  -4.986599  -0.004938   0.353299  -0.013978
 219   8  -0.102066  -3.282587  -4.573325  -0.004591   0.353299  -0.012995
 220   8   0.084913  -4.282225  -3.588860  -0.006765   0.471065  -0.014362
 221   1  -3.699843   3.925410  -0.997054  -0.000995   0.086637  -0.011481
 222   2  -3.744639   3.627570  -1.489703  -0.001281   0.086637  -0.014791
 223   6  -4.227319   3.311250  -1.524889  -0.000985   0.086637  -0.011364
 224   1  -2.378413   4.649933  -1.540623  -0.000546   0.033004  -0.016543
 225   2  -2.416809   4.353674  -2.033036  -0.000735   0.033004  -0.022262
 226   7  -2.264657   4.345915  -2.288125  -0.000649   0.033004  -0.019656
 227   2  -3.153243   4.074423  -1.674206  -0.002493   0.245152  -0.010169
 228   1  -2.922703   4.667966  -1.091005  -0.001086   0.248330  -0.004373
 229   1   2.586497   1.360352   3.261853   0.001157   0.280952   0.004119
 230   4   3.463639   0.986315   2.738852   0.000346   0.280952   0.001232
 231   5   2.934425   0.368412   3.278129   0.000386   0.280952   0.001375
 232   1   0.863386   4.492760  -1.497524  -0.002073   0.236675  -0.008758
 233   4   1.725682   4.087545  -2.016101  -0.001292   0.236675  -0.005459
 234   7   0.742784   4.179429  -2.249738  -0.004023   0.236675  -0.016999
 235   4   2.493424   4.464801  -1.665252   0.001078   0.404691   0.002664
 236   4   3.439310   4.450985  -0.120479   0.003883   0.808958   0.004800
 237   4   4.056876   3.323797   1.672964   0.004324   0.808958   0.005345
 238   4   3.966023   1.776999   2.611248   0.001714   0.404691   0.004235
 239   1   1.638374   5.037415  -0.324917   0.002056   0.808958   0.002542
 240   1   2.620821   4.573114   1.595396   0.004484   0.808958   0.005543
 241   1   2.798835   2.919332   3.045117   0.003807   0.808958   0.004707
 242   1  -2.934426  -0.368404   3.278111   0.000453   0.280954   0.001614
 243   5  -2.586497  -1.360344   3.261839   0.001157   0.280954   0.004118
 244   6  -3.463643  -0.986306   2.738831   0.000272   0.280954   0.000969
 245   5   2.500218   0.051625   4.102483   0.001980   0.427494   0.004631
 246   5   0.808312  -0.513963   4.905887   0.005086   0.855593   0.005945
 247   5  -1.401670  -1.252744   4.462258   0.004550   0.855593   0.005318
 248   1   1.401665   1.252754   4.462263   0.004550   0.855593   0.005318
 249   1  -0.808320   0.513975   4.905880   0.005086   0.855593   0.005944
 250   1  -2.500221  -0.051616   4.102468   0.002024   0.427494   0.004735
 251   6  -4.352601  -0.532779   2.695560   0.001199   0.381816   0.003140
 252   6  -5.338503   0.908397   2.004212   0.002628   0.764596   0.003438
 253   6  -5.539412   2.489191   0.365957   0.001294   0.764596   0.001693
 254   6  -4.831140   3.232482  -1.206565  -0.000704   0.381816  -0.001844
 255   1  -4.011241   0.889526   3.221894   0.002477   0.764596   0.003240
 256   1  -4.856375   2.643858   2.025556   0.002456   0.764596   0.003212
 257   1  -4.388424   3.857289   0.146256  -0.000393   0.764596  -0.000515
 258   7  -1.891907   4.503863  -2.488252  -0.002901   0.200962  -0.014437
 259   7  -0.523566   4.568375  -2.497084  -0.007029   0.409032  -0.017185
 260   1  -1.434220   5.112029  -1.423159  -0.002723   0.566498  -0.004807
 261   1   0.136593   5.050589  -1.413064  -0.001061   0.290094  -0.003659
 262   2  -0.017415   0.696219  -4.663063  -0.000704   0.025152  -0.027996
 263   3   0.350503   0.367067  -4.620561  -0.000728   0.025152  -0.028937
 264   7  -0.064361   0.986277  -4.705967  -0.000695   0.025152  -0.027613
 265   2  -0.350468  -0.367055  -4.620567  -0.000728   0.025152  -0.028937
 266   3   0.017450  -0.696206  -4.663067  -0.000704   0.025152  -0.027996
 267   8   0.064390  -0.986264  -4.705970  -0.000695   0.025152  -0.027613
 268   3   0.209950  -0.298936  -4.694552  -0.002218   0.141694  -0.015655
 269   2  -0.209911   0.298948  -4.694552  -0.002218   0.141694  -0.015656
 270   2  -3.397213   3.232368  -2.982462  -0.000556   0.034302  -0.016220
 271   6  -3.881536   2.920777  -3.013485  -0.000559   0.034302  -0.016303
 272   7  -3.182636   3.296538  -3.177800  -0.000606   0.034302  -0.017663
 273   2  -1.840307   0.777208  -4.747071  -0.000806   0.034302  -0.023499
 274   6  -2.342319   0.493513  -4.758045  -0.000613   0.034302  -0.017877
 275   7  -1.766059   1.062671  -4.783359  -0.000689   0.034302  -0.020091
 276   2  -1.129868  -0.602104  -4.541358  -0.002365   0.124383  -0.019015
 277   6  -1.635031  -0.886869  -4.562806  -0.001763   0.124383  -0.014175
 278   8  -0.676208  -1.202022  -4.554354  -0.002734   0.124383  -0.021977
 279   6  -2.377156  -0.159711  -4.832782  -0.001219   0.218921  -0.005569
 280   2  -1.556048   0.051847  -4.715466  -0.002452   0.216117  -0.011344
 281   6  -4.434541   3.050235  -2.292196  -0.001136   0.242949  -0.004677
 282   2  -3.650629   3.373156  -2.452144  -0.002418   0.239838  -0.010080
 283   7  -0.725448   1.279136  -4.854147  -0.002055   0.120789  -0.017010
 284   2  -1.016893   0.883155  -4.770731  -0.002701   0.147571  -0.018306
 285   7  -2.667657   3.825955  -3.050275  -0.001682   0.112369  -0.014965
 286   2  -2.767578   3.913236  -2.579012  -0.002243   0.137283  -0.016336
 287   8  -0.095826  -1.286142  -4.757489  -0.001361   0.082855  -0.016427
 288   2  -0.679981  -0.332438  -4.705354  -0.001278   0.116865  -0.010935
 289   3   3.744660  -3.627566  -1.489679  -0.001280   0.086637  -0.014775
 290   4   4.227338  -3.311243  -1.524863  -0.001042   0.086637  -0.012031
 291   5   3.699865  -3.925404  -0.997028  -0.000933   0.086637  -0.010766
 292   3   1.129877   0.602103  -4.541350  -0.002365   0.124384  -0.019015
 293   4   1.635039   0.886871  -4.562794  -0.001763   0.124384  -0.014175
 294   7   0.676212   1.202022  -4.554347  -0.002734   0.124384  -0.021977
 295   3   3.397208  -3.232329  -2.982523  -0.000556   0.034301  -0.016222
 296   4   3.881529  -2.920735  -3.013542  -0.000559   0.034301  -0.016304
 297   8   3.182628  -3.296500  -3.177856  -0.000606   0.034301  -0.017664
 298   3   1.840333  -0.777225  -4.747061  -0.000806   0.034301  -0.023499
 299   4   2.342343  -0.493527  -4.758031  -0.000613   0.034301  -0.017878
 300   8   1.766080  -1.062684  -4.783349  -0.000689   0.034301  -0.020091
 301   4   4.434549  -3.050213  -2.292204  -0.001163   0.242969  -0.004785
 302   3   3.650635  -3.373130  -2.452174  -0.002420   0.239857  -0.010087
 303   4   2.377176   0.159703  -4.832767  -0.001219   0.218925  -0.005568
 304   3   1.556067  -0.051856  -4.715457  -0.002452   0.216121  -0.011345
 305   3   2.416748  -4.353708  -2.033036  -0.000735   0.033003  -0.022256
 306   5   2.378353  -4.649964  -1.540622  -0.000546   0.033003  -0.016542
 307   8   2.264598  -4.345944  -2.288125  -0.000649   0.033003  -0.019653
 308   5   2.922675  -4.667984  -1.090994  -0.001073   0.248350  -0.004319
 309   3   3.153231  -4.074436  -1.674193  -0.002486   0.245171  -0.010141
 310   7   0.095840   1.286147  -4.757487  -0.001361   0.082851  -0.016427
 311   3   0.680007   0.332444  -4.705348  -0.001278   0.116858  -0.010935
 312   8   0.725473  -1.279133  -4.854145  -0.002055   0.120788  -0.017010
 313   3   1.016924  -0.883160  -4.770727  -0.002701   0.147569  -0.018306
 314   8   2.667629  -3.825943  -3.050310  -0.001682   0.112378  -0.014965
 315   3   2.767539  -3.913240  -2.579040  -0.002243   0.137294  -0.016335
 316   5   4.079254  -4.107786  -0.454137  -0.000632   0.381814  -0.001656
 317   5   4.787518  -3.364490   1.118384   0.001495   0.764593   0.001956
 318   5   4.586600  -1.783695   2.756637   0.002833   0.764593   0.003705
 319   5   3.600691  -0.342525   3.447983   0.001110   0.381814   0.002907
 320   4   5.140347  -2.981962  -0.606117  -0.000623   0.764593  -0.000815
 321   4   5.608288  -1.768528   1.273181   0.002170   0.764593   0.002838
 322   4   4.763146  -0.014200   2.469517   0.002470   0.764593   0.003230
 323   7   0.735724   4.081211  -3.030790  -0.003458   0.260478  -0.013276
 324   7   0.758753   3.160987  -4.141028  -0.008184   0.527147  -0.015524
 325   7   0.523210   1.859860  -4.716842  -0.003719   0.260478  -0.014276
 326   4   2.230688   3.663826  -3.308769  -0.000296   0.744912  -0.000397
 327   4   2.076755   2.054809  -4.530046  -0.001918   0.744912  -0.002575
 328   8   1.915376  -1.456111  -4.842455  -0.002833   0.181151  -0.015640
 329   8   2.619069  -2.397040  -4.410835  -0.006268   0.367421  -0.017058
 330   8   3.037364  -3.225423  -3.570811  -0.002777   0.181151  -0.015330
 331   4   3.136515  -1.067073  -4.722302  -0.002533   0.512537  -0.004942
 332   4   3.946712  -2.344707  -3.804038  -0.002405   0.512537  -0.004693
 333   5  -0.863385  -4.492762  -1.497505  -0.002073   0.236676  -0.008758
 334   6  -1.725686  -4.087546  -2.016090  -0.001292   0.236676  -0.005459
 335   8  -0.742788  -4.179431  -2.249723  -0.004023   0.236676  -0.016999
 336   6  -2.493427  -4.464801  -1.665242   0.001078   0.404691   0.002664
 337   6  -3.439312  -4.450976  -0.120477   0.003883   0.808959   0.004800
 338   6  -4.056880  -3.323784   1.672953   0.004324   0.808959   0.005346
 339   6  -3.966030  -1.776989   2.611229   0.001665   0.404691   0.004113
 340   5  -1.638371  -5.037412  -0.324900   0.002056   0.808959   0.002542
 341   5  -2.620818  -4.573103   1.595401   0.004484   0.808959   0.005543
 342   5  -2.798834  -2.919321   3.045110   0.003807   0.808959   0.004706
 343   8   1.891853  -4.503882  -2.488248  -0.002901   0.200958  -0.014435
 344   8   0.523540  -4.568378  -2.497070  -0.007029   0.409023  -0.017184
 345   5   1.434178  -5.112042  -1.423148  -0.002722   0.566487  -0.004806
 346   5  -0.136601  -5.050590  -1.413044  -0.001061   0.290088  -0.003658
 347   7  -1.915365   1.456106  -4.842466  -0.002833   0.181156  -0.015639
 348   7  -2.619079   2.397061  -4.410831  -0.006268   0.367432  -0.017058
 349   7  -3.037376   3.225460  -3.570769  -0.002777   0.181156  -0.015330
 350   6  -3.136510   1.067080  -4.722313  -0.002533   0.512551  -0.004942
 351   6  -3.946723   2.344744  -3.804011  -0.002405   0.512551  -0.004693
 352   8  -0.735731  -4.081216  -3.030778  -0.003458   0.260479  -0.013276
 353   8  -0.758755  -3.160993  -4.141027  -0.008184   0.527149  -0.015524
 354   8  -0.523208  -1.859860  -4.716846  -0.003719   0.260479  -0.014276
 355   6  -2.230690  -3.663831  -3.308768  -0.000296   0.744915  -0.000398
 356   6  -2.076751  -2.054811  -4.530057  -0.001918   0.744915  -0.002575
 =====================================================


   1 warning(s) detected.
     A line exceeding 80 characters begins with "http://cactus.nci.ni".
 There may be a problem in your input file.

              1453923  WORDS OF DYNAMIC MEMORY USED
 EXECUTION OF GAMESS TERMINATED NORMALLY Tue Nov 22 18:13:11 2016
 DDI: 263640 bytes (0.3 MB / 0 MWords) used by master data server.

 ----------------------------------------
 CPU timing information for all processes
 ========================================
 0: 491.144 + 0.244 = 491.388
 ----------------------------------------
 ddikick.x: exited gracefully.
