----- GAMESS execution script -----

          ******************************************************
          *         GAMESS VERSION =  5 DEC 2014 (R1)          *
          *             FROM IOWA STATE UNIVERSITY             *
          * M.W.SCHMIDT, K.K.BALDRIDGE, J.A.BOATZ, S.T.ELBERT, *
          *   M.S.GORDON, J.H.JENSEN, S.KOSEKI, N.MATSUNAGA,   *
          *          K.A.NGUYEN, S.J.SU, T.L.WINDUS,           *
          *       TOGETHER WITH M.DUPUIS, J.A.MONTGOMERY       *
          *         J.COMPUT.CHEM.  14, 1347-1363(1993)        *
          **************** 64 BIT LINUX VERSION ****************

 EXECUTION OF GAMESS BEGUN Tue Nov 22 18:07:17 2016

            ECHO OF THE FIRST FEW INPUT CARDS -
 INPUT CARD>! SELECT RESTRICTED HARTREE-FOCK AS DEFAULT                                     
 INPUT CARD>$contrl scftyp=rhf $end                                                         
 INPUT CARD>                                                                                
 INPUT CARD>! THEORY: HF OR DFT                                                             
 INPUT CARD> $contrl mplevl=0 $end                                                          
 INPUT CARD>                                                                                
 INPUT CARD> $system timlim=10000 mwords=20 $end                                            
 INPUT CARD> $SCF DIRSCF=.TRUE. $end                                                        
 INPUT CARD>                                                                                
 INPUT CARD>                                                                                
 INPUT CARD>! BASIS SETS                                                                    
 INPUT CARD>! 6-311G(d,p)                                                                   
 INPUT CARD> $BASIS GBASIS=N311 NGAUSS=6 NDFUNC=1 NPFUNC=1 $END                             
 INPUT CARD>                                                                                
 INPUT CARD>! One of the following                                                          
 INPUT CARD> $guess guess=HUCKEL $end                                                       
 INPUT CARD>                                                                                
 INPUT CARD> $statpt projct=.FALSE. $end                                                    
 INPUT CARD> $STATPT IFREEZ(1)=1,2,3 $END                                                   
 INPUT CARD>                                                                                
 INPUT CARD>! Optimize the geometry with COSMO effects                                      
 INPUT CARD> $statpt opttol=0.0005 nstep=50 $end                                            
 INPUT CARD> $contrl nzvar=1 $end                                                           
 INPUT CARD> $zmat dlc=.t. auto=.t. $end                                                    
 INPUT CARD> $contrl runtyp=OPTIMIZE maxit=200 $end                                         
 INPUT CARD>                                                                                
 INPUT CARD>! Run COSMO on perfect conductor                                                
 INPUT CARD> $COSGMS PRFCND=.TRUE. $end                                                     
 INPUT CARD>                                                                                
 INPUT CARD>! Specifying RSOLV                                                              
 INPUT CARD> $COSGMS COSRAD = 1.4 $end                                                      
 INPUT CARD>                                                                                
 INPUT CARD>! available memory                                                              
 INPUT CARD> $SYSTEM MWORDS=40 $END                                                         
 INPUT CARD>                                                                                
 INPUT CARD> $DATA                                                                          
 INPUT CARD>Cyclopentane, 1,1,3-trimethyl-, ID: C4516692                                    
 INPUT CARD>C1                                                                              
 INPUT CARD>C      6.0      0.6970000000    2.7624000000    1.2055000000                    
 INPUT CARD>C      6.0      1.7291000000    1.9552000000    1.9881000000                    
 INPUT CARD>C      6.0      1.0124000000    1.1091000000    3.0336000000                    
 INPUT CARD>C      6.0      2.7435000000    2.9026000000    2.6573000000                    
 INPUT CARD>C      6.0      2.5556000000    1.0679000000    1.0317000000                    
 INPUT CARD>C      6.0      3.9708000000    2.9316000000    1.7452000000                    
 INPUT CARD>C      6.0      4.0011000000    1.5528000000    1.0832000000                    
 INPUT CARD>C      6.0      5.2465000000    3.2473000000    2.4965000000                    
 INPUT CARD>H      1.0      0.1004000000    3.4008000000    1.8708000000                    
 INPUT CARD>H      1.0      0.0000000000    2.1071000000    0.6663000000                    
 INPUT CARD>H      1.0      1.1797000000    3.4154000000    0.4661000000                    
 INPUT CARD>H      1.0      0.2827000000    0.4338000000    2.5674000000                    
   40000000 WORDS OF MEMORY AVAILABLE

     BASIS OPTIONS
     -------------
     GBASIS=N311         IGAUSS=       6      POLAR=POPN311 
     NDFUNC=       1     NFFUNC=       0     DIFFSP=       F
     NPFUNC=       1      DIFFS=       F     BASNAM=        


     RUN TITLE
     ---------
 Cyclopentane, 1,1,3-trimethyl-, ID: C4516692                                    

 THE POINT GROUP OF THE MOLECULE IS C1      
 THE ORDER OF THE PRINCIPAL AXIS IS     0

 ATOM      ATOMIC                      COORDINATES (BOHR)
           CHARGE         X                   Y                   Z
 C           6.0     1.3171390134        5.2201790685        2.2780646782
 C           6.0     3.2675252054        3.6947922512        3.7569642362
 C           6.0     1.9131585900        2.0958950930        5.7326727564
 C           6.0     5.1844632473        5.4851186520        5.0215688672
 C           6.0     4.8293837342        2.0180383823        1.9496303015
 C           6.0     7.5037239520        5.5399207056        3.2979497938
 C           6.0     7.5609826495        2.9343665137        2.0469511899
 C           6.0     9.9144473946        6.1365071999        4.7177009283
 H           1.0     0.1897284892        6.4265801390        3.5352993778
 H           1.0     0.0000000000        3.9818416287        1.2591244256
 H           1.0     2.2293097477        6.4541701385        0.8808012829
 H           1.0     0.5342255367        0.8197631335        4.8516825009
 H           1.0     0.8870373786        3.2871783556        7.0866614266
 H           1.0     3.2427697949        0.9253988162        6.8145408843
 H           1.0     4.3934239489        7.3969544337        5.3127756419
 H           1.0     5.7009253598        4.7912112693        6.9286803340
 H           1.0     4.6993705863        0.0000000000        2.4817771397
 H           1.0     4.0785955993        2.1232961198        0.0000000000
 H           1.0     7.2132730677        7.0086157433        1.8101685236
 H           1.0     8.7484864602        1.6115583223        3.1511180845
 H           1.0     8.4255322889        3.0131680874        0.1481545174
 H           1.0    10.3012743043        4.7475585990        6.2119072668
 H           1.0    11.5505721548        6.1453889121        3.4428917770
 H           1.0     9.8095676023        8.0014777772        5.6189112519

          INTERNUCLEAR DISTANCES (ANGS.)




     $CONTRL OPTIONS
     ---------------
 SCFTYP=RHF          RUNTYP=OPTIMIZE     EXETYP=RUN     
 MPLEVL=       0     CITYP =NONE         CCTYP =NONE         VBTYP =NONE    
 DFTTYP=NONE         TDDFT =NONE    
 MULT  =       1     ICHARG=       0     NZVAR =       1     COORD =UNIQUE  
 PP    =NONE         RELWFN=NONE         LOCAL =NONE         NUMGRD=       F
 ISPHER=      -1     NOSYM =       0     MAXIT =     200     UNITS =ANGS    
 PLTORB=       F     MOLPLT=       F     AIMPAC=       F     FRIEND=        
 NPRINT=       7     IREST =       0     GEOM  =INPUT   
 NORMF =       0     NORMP =       0     ITOL  =      20     ICUT  =       9
 INTTYP=BEST         GRDTYP=BEST         QMTTOL= 1.0E-06

     $SYSTEM OPTIONS
     ---------------
  REPLICATED MEMORY=    40000000 WORDS (ON EVERY NODE).
 DISTRIBUTED MEMDDI=           0 MILLION WORDS IN AGGREGATE,
 MEMDDI DISTRIBUTED OVER   1 PROCESSORS IS           0 WORDS/PROCESSOR.
 TOTAL MEMORY REQUESTED ON EACH PROCESSOR=    40000000 WORDS.
 TIMLIM=       10000.00 MINUTES, OR       6.9 DAYS.
 PARALL= F  BALTYP=  DLB     KDIAG=    0  COREFL= F
 MXSEQ2=     300 MXSEQ3=     150  mem10=         0

     $COSGMS OPTIONS
     ---------------
     EPSI  =   INFTY     NSPA  =      92     COSRAD=    1.40
     DISEX =   10.00     OUTCHG=DBLCAV       COSBUG=       F
     COSWRT=       F     DCOSMO=       F

     SYMMETRY COORDINATES WILL NOT BE USED FOR 
     THE COSMO CALCULATION, EVEN IF SPECIFIED:
         -- SWITCHING TO C1 POINT GROUP --


     DEFINITION OF CAVITY
     ---------------------------
     ATOM         COORDINATES           RADIUS 
     1    1.3171    5.2202    2.2781    2.0000
     2    3.2675    3.6948    3.7570    2.0000
     3    1.9132    2.0959    5.7327    2.0000
     4    5.1845    5.4851    5.0216    2.0000
     5    4.8294    2.0180    1.9496    2.0000
     6    7.5037    5.5399    3.2979    2.0000
     7    7.5610    2.9344    2.0470    2.0000
     8    9.9144    6.1365    4.7177    2.0000
     9    0.1897    6.4266    3.5353    1.3000
    10    0.0000    3.9818    1.2591    1.3000
    11    2.2293    6.4542    0.8808    1.3000
    12    0.5342    0.8198    4.8517    1.3000
    13    0.8870    3.2872    7.0867    1.3000
    14    3.2428    0.9254    6.8145    1.3000
    15    4.3934    7.3970    5.3128    1.3000
    16    5.7009    4.7912    6.9287    1.3000
    17    4.6994    0.0000    2.4818    1.3000
    18    4.0786    2.1233    0.0000    1.3000
    19    7.2133    7.0086    1.8102    1.3000
    20    8.7485    1.6116    3.1511    1.3000
    21    8.4255    3.0132    0.1482    1.3000
    22   10.3013    4.7476    6.2119    1.3000
    23   11.5506    6.1454    3.4429    1.3000
    24    9.8096    8.0015    5.6189    1.3000

          ----------------
          PROPERTIES INPUT
          ----------------

     MOMENTS            FIELD           POTENTIAL          DENSITY
 IEMOM =       1   IEFLD =       0   IEPOT =       0   IEDEN =       0
 WHERE =COMASS     WHERE =NUCLEI     WHERE =NUCLEI     WHERE =NUCLEI  
 OUTPUT=BOTH       OUTPUT=BOTH       OUTPUT=BOTH       OUTPUT=BOTH    
 IEMINT=       0   IEFINT=       0                     IEDINT=       0
                                                       MORB  =       0
          EXTRAPOLATION IN EFFECT
          SOSCF IN EFFECT
 ORBITAL PRINTING OPTION: NPREO=     1   248     2     1

     -------------------------------
     INTEGRAL TRANSFORMATION OPTIONS
     -------------------------------
     NWORD  =            0
     CUTOFF = 1.0E-09     MPTRAN =       0
     DIRTRF =       T     AOINTS =DUP     

          ----------------------
          INTEGRAL INPUT OPTIONS
          ----------------------
 NOPK  =       1 NORDER=       0 SCHWRZ=       T


 -----------------------------------------------
  STATISTICS ON AUTOMATIC COORDINATE GENERATION 
 -----------------------------------------------
  NUMBER OF USER SPECIFIED BONDS                             0
  NUMBER OF BONDS                                           24
  NUMBER OF ANGLES                                          48
  NUMBER OF TORSIONS                                        72
  NUMBER OF EXTRA COORD.                                     0
  NUMBER OF EXTRA COORD. FOR CONSTRAINTS                     0
  NUMBER OF CONSTRAINED COORD.                               0

  TOTAL NUMBER OF PRIMITIVES                               144
 -----------------------------------------------

   --- ENCODED Z MATRIX ---
 COORD  TYPE   I   J   K   L   M   N
    1      1    1   9
    2      1    1   2
    3      1    1  11
    4      1    1  10
    5      1    2   4
    6      1    2   3
    7      1    2   5
    8      1    3  14
    9      1    3  12
   10      1    3  13
   11      1    4  15
   12      1    4   6
   13      1    4  16
   14      1    5   7
   15      1    5  18
   16      1    5  17
   17      1    6   7
   18      1    6  19
   19      1    6   8
   20      1    7  21
   21      1    7  20
   22      1    8  24
   23      1    8  23
   24      1    8  22
   25      2    1   2   4
   26      2    1   2   3
   27      2    1   2   5
   28      2    2   1  11
   29      2    2   5  18
   30      2    2   3  12
   31      2    2   1  10
   32      2    2   3  13
   33      2    2   3  14
   34      2    2   5   7
   35      2    2   4  15
   36      2    2   4   6
   37      2    2   5  17
   38      2    2   1   9
   39      2    2   4  16
   40      2    3   2   5
   41      2    3   2   4
   42      2    4   6   8
   43      2    4   6  19
   44      2    4   6   7
   45      2    4   2   5
   46      2    5   7  21
   47      2    5   7   6
   48      2    5   7  20
   49      2    6   4  16
   50      2    6   4  15
   51      2    6   8  22
   52      2    6   8  23
   53      2    6   8  24
   54      2    6   7  20
   55      2    6   7  21
   56      2    7   5  18
   57      2    7   6   8
   58      2    7   6  19
   59      2    7   5  17
   60      2    8   6  19
   61      2    9   1  10
   62      2    9   1  11
   63      2   10   1  11
   64      2   12   3  13
   65      2   12   3  14
   66      2   13   3  14
   67      2   15   4  16
   68      2   17   5  18
   69      2   20   7  21
   70      2   22   8  23
   71      2   22   8  24
   72      2   23   8  24
   73      3    1   2   4  16
   74      3    1   2   3  13
   75      3    1   2   3  12
   76      3    1   2   4   6
   77      3    1   2   3  14
   78      3    1   2   5  17
   79      3    1   2   4  15
   80      3    1   2   5  18
   81      3    1   2   5   7
   82      3    2   4   6   8
   83      3    2   4   6  19
   84      3    2   4   6   7
   85      3    2   5   7  20
   86      3    2   5   7  21
   87      3    2   5   7   6
   88      3    3   2   4  16
   89      3    3   2   1   9
   90      3    3   2   5  17
   91      3    3   2   5  18
   92      3    3   2   4   6
   93      3    3   2   4  15
   94      3    3   2   5   7
   95      3    3   2   1  10
   96      3    3   2   1  11
   97      3    4   2   1   9
   98      3    4   2   1  10
   99      3    4   2   5  17
  100      3    4   2   3  12
  101      3    4   2   5  18
  102      3    4   6   7  20
  103      3    4   6   7  21
  104      3    4   6   7   5
  105      3    4   2   1  11
  106      3    4   6   8  22
  107      3    4   6   8  23
  108      3    4   6   8  24
  109      3    4   2   5   7
  110      3    4   2   3  14
  111      3    4   2   3  13
  112      3    5   2   1  10
  113      3    5   2   4  16
  114      3    5   2   1  11
  115      3    5   2   3  12
  116      3    5   2   1   9
  117      3    5   7   6   8
  118      3    5   7   6  19
  119      3    5   2   4   6
  120      3    5   2   4  15
  121      3    5   2   3  14
  122      3    5   2   3  13
  123      3    6   7   5  17
  124      3    6   7   5  18
  125      3    7   6   8  24
  126      3    7   6   8  23
  127      3    7   6   8  22
  128      3    7   6   4  16
  129      3    7   6   4  15
  130      3    8   6   7  21
  131      3    8   6   7  20
  132      3    8   6   4  16
  133      3    8   6   4  15
  134      3   15   4   6  19
  135      3   16   4   6  19
  136      3   17   5   7  20
  137      3   17   5   7  21
  138      3   18   5   7  20
  139      3   18   5   7  21
  140      3   19   6   7  21
  141      3   19   6   7  20
  142      3   19   6   8  24
  143      3   19   6   8  23
  144      3   19   6   8  22

          INDEP./SYM. INTERNAL COORDINATES
          --------------------------------
 CRD  1=   0.2414 (  5)  0.2097 ( 12) -0.1593 ( 17)  0.1153 ( 19)  0.2784 ( 25)
          -0.1534 ( 26) -0.1054 ( 27) -0.1264 ( 31)  0.1031 ( 35) -0.1051 ( 39)
           0.1707 ( 40)  0.2883 ( 42) -0.1084 ( 43) -0.1120 ( 45)  0.1760 ( 53)
          -0.2741 ( 57) -0.1162 ( 75)  0.1345 ( 78)  0.1386 ( 80)  0.1455 ( 81)
           0.2339 ( 82)  0.1010 ( 83) -0.1028 (102)  0.1135 (110)  0.1142 (111)
           0.1159 (130)  0.1377 (132)  0.1359 (133)
 CRD  2=  -0.1574 (  5) -0.2332 ( 12)  0.1703 ( 25) -0.1890 ( 27)  0.1444 ( 30)
          -0.1050 ( 33)  0.1639 ( 40) -0.2959 ( 41) -0.2229 ( 42)  0.1053 ( 46)
          -0.1336 ( 51)  0.1135 ( 52)  0.1417 ( 56)  0.1227 ( 60) -0.1002 ( 74)
           0.1628 ( 81) -0.1214 ( 89)  0.1503 ( 90)  0.1587 ( 91)  0.2591 ( 94)
          -0.1116 ( 95)  0.1198 (105) -0.2709 (117) -0.1152 (118) -0.1501 (130)
          -0.1447 (131)
 CRD  3=  -0.1226 (  5) -0.1967 (  7) -0.1935 ( 14) -0.1826 ( 19) -0.1039 ( 25)
           0.3305 ( 26) -0.2098 ( 27) -0.2207 ( 28) -0.2143 ( 36)  0.1349 ( 38)
          -0.1278 ( 41)  0.1121 ( 42)  0.1898 ( 45)  0.1568 ( 49) -0.1505 ( 52)
          -0.1754 ( 57)  0.1761 ( 73)  0.2370 ( 76) -0.1261 ( 78)  0.1823 ( 79)
          -0.1250 ( 80) -0.1920 ( 81)  0.1025 (115)  0.1229 (117)
 CRD  4=   0.1993 (  2) -0.1972 (  6) -0.1176 ( 14) -0.1354 ( 17)  0.1796 ( 27)
           0.1544 ( 28)  0.1425 ( 32) -0.2232 ( 33) -0.2540 ( 40) -0.1048 ( 49)
           0.1349 ( 50) -0.1564 ( 51)  0.1000 ( 53) -0.1696 ( 57) -0.2450 ( 76)
           0.2080 ( 82) -0.1525 ( 88) -0.3176 ( 92) -0.1676 ( 93)  0.1071 ( 94)
           0.1075 ( 95)  0.1114 (100) -0.1217 (107)  0.1177 (113) -0.1084 (114)
          -0.1103 (116)  0.1027 (120)  0.1153 (132)  0.1123 (133)
 CRD  5=   0.2148 (  2)  0.1759 (  5) -0.2423 (  7)  0.1300 ( 12)  0.2328 ( 17)
           0.4183 ( 19)  0.1665 ( 26) -0.1013 ( 27)  0.1292 ( 32) -0.1473 ( 33)
           0.1515 ( 38) -0.1079 ( 40) -0.2027 ( 44)  0.1341 ( 47)  0.1828 ( 51)
           0.2224 ( 57) -0.1235 ( 60) -0.1198 ( 70) -0.1093 ( 71) -0.1164 ( 88)
           0.1037 ( 90) -0.1350 ( 92) -0.1014 ( 93)  0.1213 ( 94)
 CRD  6=  -0.4185 (  2) -0.4047 (  6) -0.3274 (  7) -0.1767 ( 14) -0.2618 ( 30)
          -0.2898 ( 31)  0.1031 ( 57)  0.1333 ( 61)  0.1293 ( 63)  0.1276 ( 64)
           0.1233 ( 65) -0.1174 ( 77)  0.1263 ( 78)  0.1080 ( 81) -0.1083 ( 91)
           0.1072 ( 96) -0.1190 (116)  0.1236 (122)
 CRD  7=  -0.2444 (  5) -0.4821 (  6)  0.1083 ( 31) -0.2698 ( 32) -0.1392 ( 33)
          -0.1135 ( 34) -0.1051 ( 35) -0.1442 ( 38) -0.1372 ( 41)  0.1974 ( 42)
          -0.1033 ( 44)  0.2081 ( 51) -0.1654 ( 52) -0.1004 ( 60)  0.1279 ( 64)
           0.1703 ( 66) -0.1054 ( 73)  0.1034 ( 77) -0.1078 ( 96)  0.1040 ( 97)
           0.1282 ( 98)  0.1552 (117)  0.1050 (120)  0.1164 (130)  0.1079 (131)
 CRD  8=  -0.4551 (  2)  0.1167 (  6) -0.1180 ( 13)  0.2774 ( 19) -0.1251 ( 25)
          -0.1616 ( 28)  0.1069 ( 30) -0.1374 ( 34) -0.2579 ( 38) -0.1186 ( 39)
          -0.1127 ( 44)  0.1546 ( 47) -0.1835 ( 51)  0.1066 ( 52)  0.2957 ( 53)
           0.1176 ( 61)  0.1787 ( 62) -0.1545 ( 72)  0.1795 ( 82)  0.1047 ( 84)
          -0.1309 (107)  0.1280 (133)
 CRD  9=   0.1409 (  2)  0.3058 (  5) -0.4659 ( 12)  0.1085 ( 14)  0.1166 ( 16)
          -0.1189 ( 17) -0.1028 ( 20)  0.1040 ( 29) -0.1321 ( 30)  0.1430 ( 33)
          -0.2682 ( 34)  0.1194 ( 35)  0.2526 ( 47) -0.1914 ( 50) -0.1910 ( 54)
           0.1339 ( 59)  0.1030 ( 69)  0.1079 ( 73)  0.1184 (113)
 CRD 10=  -0.1745 (  2)  0.1900 (  6) -0.1125 ( 14) -0.2500 ( 17) -0.2129 ( 19)
          -0.1167 ( 20)  0.1410 ( 28)  0.2781 ( 30) -0.1327 ( 31) -0.1406 ( 33)
          -0.1556 ( 38)  0.1233 ( 43)  0.1665 ( 47)  0.2843 ( 51) -0.2568 ( 52)
          -0.2068 ( 53) -0.1671 ( 55) -0.1194 ( 60)  0.1215 ( 61) -0.1256 ( 64)
           0.1814 ( 72)  0.1009 ( 81) -0.1068 ( 87)  0.1089 ( 94) -0.1268 (108)
          -0.1122 (125)  0.1062 (130)
 CRD 11=   0.3353 (  5)  0.2902 (  7)  0.1564 ( 11) -0.3607 ( 14)  0.2289 ( 17)
           0.1091 ( 19)  0.1395 ( 31) -0.1824 ( 32)  0.1309 ( 35) -0.2343 ( 36)
           0.1620 ( 37) -0.1419 ( 38)  0.1332 ( 39) -0.1129 ( 42)  0.1097 ( 44)
          -0.1420 ( 46)  0.1138 ( 53) -0.1017 ( 58) -0.1240 ( 67)  0.1037 ( 85)
          -0.1006 (123)  0.1023 (128) -0.1200 (137)  0.1303 (138)
 CRD 12=   0.1053 (  2) -0.4065 (  7) -0.1140 ( 10) -0.1128 ( 14) -0.1664 ( 17)
           0.2315 ( 30)  0.3085 ( 31) -0.4177 ( 32)  0.1841 ( 33)  0.1210 ( 34)
          -0.1146 ( 37) -0.1871 ( 38) -0.1579 ( 51)  0.2433 ( 52) -0.1470 ( 53)
          -0.1272 ( 63) -0.1721 ( 65)  0.1316 ( 71)
 CRD 13=   0.1610 (  3) -0.1652 (  5)  0.2252 (  6) -0.1798 (  7) -0.1187 ( 12)
           0.2045 ( 17)  0.5152 ( 28) -0.2118 ( 31)  0.2855 ( 33) -0.2350 ( 38)
          -0.1870 ( 52)  0.2436 ( 53)  0.1892 ( 61) -0.1250 ( 62) -0.1378 ( 63)
          -0.1227 ( 65) -0.1172 ( 66)  0.1173 ( 70)
 CRD 14=   0.2462 (  5) -0.1334 (  8)  0.1337 (  9)  0.1947 ( 14)  0.2788 ( 17)
          -0.1188 ( 19)  0.1066 ( 21)  0.3885 ( 30) -0.3972 ( 33)  0.1142 ( 34)
          -0.1199 ( 37) -0.1018 ( 38) -0.1513 ( 47) -0.1016 ( 50) -0.1109 ( 51)
          -0.1664 ( 52)  0.1705 ( 53)  0.1305 ( 55) -0.1721 ( 64)  0.1793 ( 66)
           0.1363 ( 70)
 CRD 15=  -0.1159 (  1)  0.1299 (  4) -0.1335 (  7) -0.1180 ( 12)  0.1025 ( 24)
          -0.1718 ( 29) -0.2575 ( 30)  0.4281 ( 31)  0.2245 ( 32) -0.3747 ( 38)
           0.1116 ( 46) -0.1030 ( 47)  0.2778 ( 51) -0.1973 ( 52)  0.1808 ( 62)
          -0.1689 ( 63) -0.1088 ( 66) -0.1172 ( 71)  0.1019 ( 72)
 CRD 16=   0.1069 ( 23)  0.2772 ( 28)  0.2711 ( 32) -0.2174 ( 33) -0.2944 ( 38)
          -0.1244 ( 46)  0.1192 ( 49)  0.3940 ( 52) -0.3340 ( 53) -0.1321 ( 54)
           0.1453 ( 61) -0.1104 ( 63) -0.1192 ( 64)  0.1008 ( 65) -0.1622 ( 70)
           0.1506 ( 71) -0.1091 (109)
 CRD 17=   0.1056 (  5)  0.1111 ( 11)  0.3366 ( 14) -0.1444 ( 17)  0.1956 ( 19)
           0.1021 ( 24)  0.1655 ( 28)  0.1566 ( 30) -0.1990 ( 31) -0.2413 ( 32)
          -0.1281 ( 36)  0.1226 ( 39)  0.1909 ( 44)  0.1011 ( 45)  0.1753 ( 48)
           0.2248 ( 51) -0.1163 ( 53) -0.1142 ( 57) -0.1007 ( 58)  0.1282 ( 59)
           0.1661 ( 60) -0.1052 ( 65) -0.1583 ( 70) -0.1051 (102) -0.1223 (131)
           0.1083 (132)
 CRD 18=  -0.1579 (  5) -0.3211 ( 12) -0.1440 ( 13) -0.3583 ( 14) -0.1378 ( 15)
          -0.1238 ( 17)  0.2705 ( 19) -0.1070 ( 21)  0.1147 ( 24)  0.1571 ( 30)
           0.1052 ( 34)  0.1304 ( 38) -0.1133 ( 43) -0.1242 ( 45) -0.1067 ( 46)
           0.2569 ( 51)  0.1432 ( 55) -0.1423 ( 56)  0.1359 ( 60) -0.1203 ( 70)
          -0.1633 ( 71) -0.1221 (103) -0.1495 (130)  0.1010 (141)
 CRD 19=   0.1902 ( 11) -0.1495 ( 13)  0.2826 ( 17)  0.1200 ( 18) -0.1258 ( 19)
           0.1115 ( 20) -0.1584 ( 28) -0.1232 ( 32)  0.2100 ( 33)  0.1510 ( 35)
          -0.1742 ( 39)  0.2239 ( 51) -0.3008 ( 53)  0.1384 ( 55)  0.1746 ( 58)
          -0.1103 ( 65)  0.1763 ( 72)  0.1594 ( 82)  0.2369 ( 83) -0.1319 ( 86)
           0.1219 (123)  0.1285 (124)  0.1196 (125)  0.1351 (126)  0.1169 (127)
          -0.1020 (129)
 CRD 20=   0.1249 ( 13)  0.1972 ( 15) -0.1798 ( 16)  0.2740 ( 29) -0.2832 ( 37)
           0.1052 ( 39) -0.1321 ( 46)  0.1922 ( 48) -0.2291 ( 54)  0.1994 ( 55)
          -0.1569 ( 56)  0.1720 ( 59)  0.1181 ( 78)  0.1082 ( 80) -0.1036 ( 83)
          -0.2533 ( 85) -0.2213 ( 86)  0.1183 ( 90)  0.1084 ( 91)  0.1744 (123)
           0.1709 (124)
 CRD 21=   0.2077 ( 12)  0.1243 ( 13) -0.1969 ( 15)  0.1735 ( 16)  0.1321 ( 18)
           0.2318 ( 20) -0.3049 ( 21) -0.1692 ( 39)  0.1399 ( 43)  0.1723 ( 49)
          -0.1945 ( 52) -0.1057 ( 54) -0.1435 ( 81)  0.1330 ( 87) -0.1465 ( 94)
          -0.1106 (104) -0.1404 (106) -0.1346 (107) -0.1259 (108) -0.1458 (109)
          -0.2039 (117) -0.2202 (118)  0.1079 (123) -0.1132 (131) -0.1135 (132)
          -0.1151 (135) -0.1093 (140) -0.1295 (141)
 CRD 22=  -0.1134 ( 16) -0.3160 ( 18) -0.1151 ( 24)  0.2277 ( 35) -0.2045 ( 39)
           0.1505 ( 48)  0.2227 ( 49) -0.2420 ( 50) -0.1850 ( 73) -0.2058 ( 79)
          -0.1923 ( 88) -0.2131 ( 93) -0.1205 (102) -0.1867 (113) -0.2075 (120)
          -0.1134 (125) -0.1082 (127) -0.1118 (128) -0.1120 (129) -0.1784 (132)
          -0.1786 (133) -0.1465 (134) -0.1463 (135)
 CRD 23=   0.1030 (  1) -0.1032 ( 10) -0.2623 ( 18)  0.2157 ( 74)  0.2245 ( 75)
           0.1936 ( 77)  0.2125 ( 89)  0.2197 ( 95)  0.1909 ( 96)  0.2098 ( 97)
           0.2169 ( 98)  0.2217 (100)  0.1882 (105)  0.1908 (110)  0.2129 (111)
           0.2180 (112)  0.1892 (114)  0.2233 (115)  0.2109 (116)  0.1924 (121)
           0.2145 (122)
 CRD 24=  -0.1031 ( 10)  0.1782 ( 11) -0.1436 ( 16) -0.1728 ( 18)  0.1303 ( 22)
           0.1269 ( 23)  0.1756 ( 24) -0.1195 ( 35)  0.1024 ( 37) -0.1408 ( 46)
           0.1326 ( 50) -0.1018 ( 53)  0.1307 ( 55) -0.1502 ( 59)  0.1029 ( 72)
          -0.1544 ( 74) -0.1613 ( 75) -0.1780 ( 77) -0.1063 ( 78)  0.1527 ( 89)
          -0.1163 ( 90)  0.1481 ( 95)  0.1683 ( 96)  0.1504 ( 97)  0.1459 ( 98)
          -0.1205 ( 99) -0.1537 (100) -0.1119 (102) -0.1311 (103)  0.1660 (105)
          -0.1704 (110) -0.1468 (111)  0.1354 (112)  0.1556 (114) -0.1575 (115)
           0.1400 (116) -0.1742 (121) -0.1506 (122)  0.1001 (129)
 CRD 25=  -0.1526 ( 13)  0.1424 ( 15) -0.3601 ( 18) -0.1198 ( 21)  0.2024 ( 22)
           0.1941 ( 23)  0.1905 ( 24) -0.1009 ( 46) -0.1377 ( 49) -0.1253 ( 51)
          -0.1026 ( 52) -0.1180 ( 54)  0.1166 ( 56)  0.1250 ( 70)  0.1149 ( 71)
           0.1146 ( 74)  0.1066 ( 75)  0.1271 ( 77) -0.1520 ( 89) -0.1573 ( 95)
          -0.1703 ( 96) -0.1419 ( 97) -0.1472 ( 98) -0.1015 (101) -0.1065 (103)
          -0.1602 (105)  0.1202 (110)  0.1077 (111) -0.1575 (112) -0.1705 (114)
          -0.1522 (116)  0.1183 (121)  0.1059 (122)
 CRD 26=  -0.1729 (  1) -0.1719 (  3)  0.2190 (  8)  0.1492 (  9)  0.1782 ( 10)
           0.1352 ( 11) -0.1185 ( 13) -0.1945 ( 15)  0.1118 ( 16) -0.3589 ( 18)
           0.1572 ( 20) -0.2445 ( 21)  0.1228 ( 23)  0.1258 ( 29) -0.1189 ( 37)
           0.1035 ( 46) -0.1131 ( 48) -0.1847 ( 56)  0.1583 ( 59)  0.1156 ( 80)
           0.1003 ( 90)  0.1184 ( 91)  0.1269 ( 99)  0.1451 (101)  0.1021 (139)
 CRD 27=   0.3553 (  1)  0.1146 (  2)  0.3913 (  3)  0.3515 (  4)  0.1039 (  6)
           0.3479 (  8)  0.3230 (  9)  0.3219 ( 10) -0.1216 ( 28) -0.1370 ( 30)
          -0.1506 ( 31) -0.1361 ( 32) -0.1091 ( 33) -0.1505 ( 38)  0.1668 ( 61)
           0.1415 ( 62)  0.1425 ( 63)  0.1489 ( 64)  0.1299 ( 65)  0.1293 ( 66)
 CRD 28=   0.2741 (  1)  0.2589 (  3)  0.3222 (  4) -0.2723 (  8) -0.3124 (  9)
          -0.3018 ( 10) -0.1593 ( 15)  0.1082 ( 16) -0.2322 ( 18)  0.1120 ( 20)
          -0.1602 ( 21) -0.1423 ( 24) -0.1197 ( 28)  0.1090 ( 30)  0.1076 ( 32)
           0.1233 ( 33) -0.1092 ( 38)  0.1062 ( 61)  0.1287 ( 62)  0.1149 ( 63)
          -0.1098 ( 64) -0.1260 ( 65) -0.1271 ( 66)
 CRD 29=  -0.1040 (  4)  0.1181 (  9)  0.1072 ( 10) -0.3080 ( 18) -0.1979 ( 19)
           0.1142 ( 20) -0.1124 ( 21) -0.3875 ( 22) -0.3852 ( 23) -0.4233 ( 24)
           0.1132 ( 51)  0.1225 ( 52)  0.1256 ( 53) -0.1250 ( 70) -0.1269 ( 71)
          -0.1345 ( 72)
 CRD 30=   0.3795 ( 13)  0.2472 ( 15) -0.3193 ( 16) -0.1131 ( 17) -0.2475 ( 21)
           0.1208 ( 23)  0.1198 ( 46) -0.1055 ( 48)  0.1146 ( 56) -0.1165 ( 59)
          -0.1385 ( 78) -0.1391 ( 80) -0.1327 ( 90) -0.1333 ( 91) -0.1421 ( 99)
          -0.1426 (101)  0.1473 (102)  0.1534 (103)  0.1411 (106)  0.1641 (107)
           0.1594 (108)  0.1404 (125)  0.1452 (126)  0.1222 (127)  0.1220 (130)
           0.1159 (131)  0.1310 (140)  0.1249 (141)  0.1615 (142)  0.1663 (143)
           0.1433 (144)
 CRD 31=   0.1323 (  1) -0.1734 (  3)  0.1874 (  8)  0.1264 ( 11)  0.1302 ( 12)
           0.1356 ( 13)  0.2079 ( 16) -0.4729 ( 20) -0.1381 ( 21) -0.2537 ( 22)
           0.1541 ( 24)  0.1516 ( 70) -0.1377 (102)  0.1779 (107)  0.1014 (108)
           0.1065 (125)  0.1830 (126)  0.1100 (129) -0.1028 (130) -0.1488 (131)
          -0.1422 (141)  0.1148 (142)  0.1913 (143)
 CRD 32=  -0.2701 (  1)  0.2734 (  3) -0.2025 (  8)  0.2562 ( 10)  0.3022 ( 11)
          -0.2532 ( 20)  0.3564 ( 23) -0.2624 ( 24) -0.1392 ( 61)  0.1423 ( 63)
           0.1015 ( 64) -0.1263 ( 65) -0.2164 ( 71)  0.1338 ( 72)  0.1017 ( 75)
           0.1089 ( 95)  0.1079 ( 98)  0.1056 (100)  0.1582 (108)  0.1075 (112)
           0.1620 (125)  0.1593 (142)
 CRD 33=  -0.1877 (  1)  0.2297 (  3)  0.4456 (  8) -0.2818 (  9) -0.1663 ( 10)
           0.3661 ( 22) -0.1628 ( 23) -0.1972 ( 24) -0.1249 ( 61)  0.1021 ( 63)
          -0.2414 ( 64)  0.1514 ( 66) -0.1832 ( 70)  0.1078 ( 72)  0.1469 ( 74)
          -0.1135 ( 75) -0.1185 (100)  0.1056 (106)  0.1419 (111) -0.1134 (115)
           0.1471 (122)  0.1102 (127)  0.1169 (144)
 CRD 34=   0.2404 (  1) -0.4238 (  3)  0.1764 (  4)  0.1743 ( 22)  0.2871 ( 23)
          -0.4544 ( 24)  0.2272 ( 61) -0.1311 ( 63) -0.1506 ( 71)  0.2492 ( 72)
           0.1171 ( 89) -0.1276 ( 95)  0.1137 ( 97) -0.1311 ( 98) -0.1332 (107)
           0.1356 (108) -0.1252 (112)  0.1196 (116)  0.1467 (125) -0.1221 (126)
           0.1390 (142) -0.1298 (143)
 CRD 35=  -0.1829 (  3)  0.2380 (  4) -0.2594 (  8)  0.3538 ( 10)  0.1185 ( 11)
          -0.1573 ( 20)  0.3538 ( 22) -0.4034 ( 23) -0.1310 ( 62)  0.1398 ( 64)
          -0.1885 ( 65) -0.1625 ( 70)  0.1893 ( 71)  0.1336 ( 75)  0.1333 (100)
           0.1660 (106)  0.1264 (115)  0.1636 (127)  0.1797 (144)
 CRD 36=  -0.2921 (  1) -0.1217 (  3)  0.4024 (  4)  0.1863 (  8) -0.3315 (  9)
           0.1405 ( 10) -0.1387 ( 11)  0.2205 ( 20) -0.2685 ( 22)  0.1338 ( 23)
           0.1417 ( 24) -0.2249 ( 62)  0.1589 ( 63)  0.1828 ( 66)  0.1190 ( 70)
           0.1269 ( 74)  0.1224 ( 89) -0.1210 ( 96)  0.1178 ( 97) -0.1256 (105)
           0.1118 (111) -0.1267 (114)  0.1167 (116)  0.1180 (122)
 CRD 37=   0.3434 (  1) -0.3625 (  4) -0.4311 (  9)  0.3668 ( 10)  0.1978 ( 62)
          -0.1898 ( 63) -0.2008 ( 65)  0.2348 ( 66) -0.1908 ( 77)  0.1750 ( 96)
           0.1507 (105) -0.1685 (110)  0.1498 (114) -0.1666 (121)
 CRD 38=   0.5574 ( 11)  0.1471 ( 13) -0.3668 ( 15) -0.3209 ( 16)  0.1030 ( 20)
           0.2244 ( 21)  0.1299 ( 67) -0.1317 ( 68)  0.1398 ( 73)  0.1417 ( 88)
           0.1396 (113) -0.1267 (128) -0.1390 (132) -0.1297 (135)
 CRD 39=   0.3742 ( 11)  0.4860 ( 15)  0.3869 ( 16)  0.1948 ( 68)  0.1387 ( 73)
          -0.1276 ( 78)  0.1242 ( 88) -0.1191 ( 90) -0.1300 ( 99)  0.1346 (113)
           0.1009 (123) -0.1464 (128) -0.1232 (132) -0.1253 (135)  0.1007 (136)
           0.1025 (137)
 CRD 40=  -0.3924 ( 13) -0.2659 ( 16) -0.3460 ( 20) -0.4276 ( 21)  0.1238 ( 46)
          -0.1027 ( 67) -0.1868 ( 69)  0.1207 ( 79)  0.1236 ( 93)  0.1686 (103)
           0.1289 (120) -0.1690 (129)  0.1534 (130) -0.1422 (133) -0.1193 (134)
           0.1162 (138)  0.1353 (140)
 CRD 41=  -0.1707 ( 12)  0.5104 ( 13)  0.1854 ( 17) -0.1037 ( 20) -0.3042 ( 21)
          -0.1009 ( 22)  0.1771 ( 67) -0.1290 ( 69) -0.1251 ( 79) -0.1185 ( 93)
          -0.1343 (106) -0.1566 (107) -0.1322 (108) -0.1173 (120) -0.1303 (125)
          -0.1547 (126) -0.1324 (127)  0.1266 (129)  0.1701 (133)  0.1649 (134)
          -0.1717 (142) -0.1960 (143) -0.1738 (144)
 CRD 42=  -0.2833 ( 15)  0.2879 ( 16)  0.1001 ( 18)  0.2556 ( 20) -0.2649 ( 21)
          -0.1069 ( 29)  0.1147 ( 37)  0.1084 ( 55) -0.1821 ( 85) -0.1787 ( 86)
           0.1017 (103) -0.1830 (123) -0.1814 (124)  0.1028 (130) -0.2847 (136)
          -0.2814 (137) -0.2830 (138) -0.2797 (139)
 CRD 43=   0.1372 (  1)  0.1816 (  3)  0.1331 (  4) -0.1982 (  8)  0.2248 ( 11)
          -0.2707 ( 13)  0.2518 ( 15) -0.2317 ( 16)  0.2924 ( 18)  0.2052 ( 20)
          -0.2444 ( 21) -0.1047 ( 24)  0.1607 ( 28)  0.1125 ( 31) -0.1498 ( 33)
           0.1141 ( 38) -0.1013 ( 51) -0.1195 ( 61) -0.1484 ( 62) -0.1453 ( 63)
           0.1279 ( 65)  0.1263 ( 66)  0.1468 ( 99)  0.1134 (101) -0.1151 (113)
          -0.1427 (120)  0.1158 (129)
 CRD 44=   0.1658 (  1) -0.1099 (  3)  0.1559 (  4)  0.2274 (  9)  0.2188 ( 10)
          -0.1439 ( 12) -0.1308 ( 14) -0.1404 ( 26)  0.1686 ( 30)  0.1005 ( 31)
           0.1659 ( 32)  0.1049 ( 38)  0.1020 ( 45)  0.1547 ( 49)  0.1385 ( 50)
           0.1612 ( 56)  0.1346 ( 59) -0.2057 ( 61) -0.2476 ( 64) -0.1043 ( 65)
          -0.1826 ( 73)  0.1743 ( 78) -0.1597 ( 91)  0.1499 ( 93)  0.1448 ( 98)
          -0.1200 (101) -0.1449 (116)  0.1117 (120)  0.1003 (122) -0.1208 (135)
           0.1538 (141)
 CRD 45=  -0.1645 (  1)  0.1444 (  2) -0.1252 (  3) -0.1097 (  4)  0.1134 ( 14)
           0.2314 ( 19) -0.2137 ( 22) -0.2176 ( 23) -0.2197 ( 24) -0.1245 ( 28)
          -0.1232 ( 31) -0.1371 ( 38) -0.2122 ( 51) -0.2049 ( 52) -0.2084 ( 53)
           0.1446 ( 60)  0.1422 ( 61)  0.1552 ( 62)  0.1131 ( 63)  0.2243 ( 70)
           0.2205 ( 71)  0.2240 ( 72) -0.1767 ( 83)  0.1422 (118) -0.1226 (134)
          -0.1971 (135)  0.1118 (138)  0.1506 (141)
 CRD 46=  -0.1580 (  1)  0.2432 (  4) -0.2333 (  5)  0.2286 (  7)  0.1616 (  9)
          -0.2303 ( 10) -0.1481 ( 11)  0.1093 ( 16) -0.1196 ( 18)  0.1000 ( 41)
           0.1007 ( 62) -0.2075 ( 63)  0.2000 ( 66)  0.1351 ( 67) -0.1648 ( 68)
           0.1218 ( 73) -0.1997 ( 77)  0.1037 ( 78) -0.1204 ( 91)  0.2049 ( 96)
          -0.1189 ( 97) -0.1325 ( 98)  0.1128 (111) -0.1182 (112)  0.1143 (115)
          -0.1047 (116)  0.1332 (122) -0.1273 (128) -0.1347 (135) -0.1418 (137)
           0.1063 (138)
 CRD 47=  -0.1246 (  1)  0.1412 (  2) -0.1328 (  5) -0.3129 (  6)  0.1883 (  8)
           0.2128 (  9) -0.1207 ( 13)  0.1250 ( 15) -0.1007 ( 16)  0.2914 ( 18)
          -0.1134 ( 19)  0.1552 ( 20) -0.1458 ( 21)  0.1233 ( 22)  0.1192 ( 23)
           0.1751 ( 30)  0.1521 ( 32)  0.1476 ( 33)  0.1081 ( 48) -0.1121 ( 60)
           0.1367 ( 62) -0.1441 ( 64) -0.2342 ( 65) -0.1285 ( 66) -0.1581 ( 72)
           0.1217 ( 86) -0.1026 ( 93) -0.1282 (102)  0.1049 (107)  0.1001 (139)
          -0.1664 (141)
 CRD 48=  -0.1423 (  1)  0.4004 (  2) -0.2316 (  3) -0.1356 (  4)  0.2957 (  6)
          -0.1778 (  8) -0.1070 ( 10) -0.2181 ( 19)  0.1123 ( 22) -0.1789 ( 28)
          -0.1179 ( 30) -0.1677 ( 31) -0.1204 ( 32) -0.1437 ( 33) -0.1694 ( 38)
           0.1358 ( 61)  0.2096 ( 62)  0.2051 ( 63)  0.1493 ( 65)  0.1601 ( 66)
          -0.1066 ( 71) -0.1096 ( 72)
 CRD 49=   0.1839 (  5) -0.1739 (  6) -0.2149 (  7)  0.1138 ( 10)  0.2871 ( 14)
          -0.1293 ( 17) -0.3291 ( 19)  0.1119 ( 20)  0.1918 ( 24) -0.1487 ( 46)
          -0.1300 ( 48)  0.1003 ( 51)  0.1127 ( 52)  0.1108 ( 53)  0.2009 ( 54)
           0.1404 ( 55)  0.1054 ( 60) -0.1140 ( 66) -0.1767 ( 70) -0.1204 ( 71)
          -0.1272 ( 83)  0.1573 ( 85) -0.1136 ( 86) -0.1166 (123) -0.1528 (135)
          -0.2096 (137)  0.2272 (138)  0.1003 (141)
 CRD 50=  -0.1045 (  1)  0.1277 (  2)  0.1034 (  3) -0.1392 (  5) -0.2597 (  6)
           0.2061 (  7)  0.2779 ( 12) -0.1237 ( 18) -0.1552 ( 20) -0.1358 ( 23)
           0.1035 ( 24) -0.1148 ( 29)  0.1167 ( 35) -0.1361 ( 37) -0.1575 ( 48)
          -0.1346 ( 50)  0.1495 ( 59)  0.1306 ( 61)  0.1546 ( 69)  0.1001 ( 90)
           0.1275 ( 99)  0.1669 (102)  0.1330 (116) -0.1173 (124) -0.1016 (129)
          -0.1085 (130)  0.1337 (131)  0.1061 (132)  0.1337 (135) -0.1550 (138)
          -0.1169 (139)  0.2042 (141) -0.1505 (143) -0.1641 (144)
 CRD 51=  -0.1749 (  2)  0.1068 (  8) -0.1064 ( 10)  0.1256 ( 14) -0.1736 ( 17)
          -0.1163 ( 19)  0.2888 ( 22) -0.1801 ( 23) -0.1153 ( 35) -0.2102 ( 43)
           0.1193 ( 50)  0.1358 ( 58)  0.1067 ( 64)  0.1703 ( 70) -0.1822 ( 71)
          -0.1176 ( 88)  0.1447 (100) -0.1142 (106)  0.1583 (107)  0.1573 (118)
           0.1255 (126) -0.1471 (127)  0.1209 (134)  0.1072 (139)  0.1388 (140)
           0.1759 (141) -0.1572 (142) -0.3682 (144)
 CRD 52=   0.1071 (  1) -0.1751 (  2) -0.1344 (  5)  0.1712 (  6)  0.1507 ( 16)
          -0.2196 ( 17)  0.1894 ( 18)  0.1486 ( 23) -0.1937 ( 24)  0.1498 ( 39)
          -0.1820 ( 46) -0.1020 ( 48) -0.1325 ( 49)  0.1104 ( 54)  0.1798 ( 55)
           0.1534 ( 56)  0.1027 ( 64)  0.1083 ( 71) -0.1513 ( 72) -0.1419 ( 80)
          -0.1198 ( 91)  0.1060 ( 98) -0.1907 (101) -0.1708 (103)  0.1071 (107)
          -0.1009 (108)  0.1028 (123) -0.2001 (125)  0.1000 (128)  0.1228 (131)
           0.1623 (136)  0.1321 (138) -0.1696 (140) -0.1033 (142)  0.1047 (143)
 CRD 53=  -0.1985 (  2)  0.1272 (  3)  0.2317 (  5)  0.2747 (  7)  0.2255 (  8)
          -0.1142 (  9) -0.1028 ( 11)  0.2209 ( 17) -0.1771 ( 19) -0.1224 ( 21)
          -0.1669 ( 29) -0.1123 ( 35) -0.1069 ( 37)  0.1553 ( 64)  0.1063 ( 67)
           0.1144 ( 68)  0.1292 ( 69) -0.1247 ( 74)  0.1128 ( 75) -0.1144 ( 83)
           0.1231 ( 86)  0.1453 (100) -0.1754 (122)  0.1125 (123) -0.1149 (124)
          -0.1010 (128) -0.1177 (132) -0.2095 (135)  0.2068 (137) -0.1711 (138)
           0.1065 (144)
 CRD 54=  -0.1047 (  1)  0.2226 (  3) -0.1505 (  4)  0.1344 (  5) -0.1189 (  6)
          -0.1126 (  8)  0.1277 (  9) -0.1133 ( 12) -0.1449 ( 15)  0.1077 ( 16)
          -0.1310 ( 20)  0.1495 ( 21)  0.1407 ( 23) -0.2050 ( 24)  0.1022 ( 55)
           0.1872 ( 61) -0.1165 ( 64)  0.1048 ( 71) -0.1546 ( 72) -0.1142 ( 85)
          -0.1425 ( 86)  0.1327 ( 89) -0.1439 ( 95)  0.1189 ( 97) -0.1578 ( 98)
           0.1144 (107) -0.1295 (108)  0.1215 (111) -0.1107 (112) -0.1446 (113)
           0.1659 (116)  0.1277 (122)  0.1275 (123) -0.1885 (125)  0.1433 (129)
           0.1110 (133)  0.1134 (134) -0.1550 (142)
 CRD 55=  -0.1774 (  1) -0.1937 (  9)  0.2366 ( 10) -0.1440 ( 11)  0.1063 ( 13)
          -0.1032 ( 14)  0.1032 ( 15)  0.1106 ( 20)  0.1665 ( 22) -0.1090 ( 32)
          -0.1039 ( 53) -0.1333 ( 63)  0.1761 ( 65) -0.1444 ( 66)  0.1449 ( 70)
           0.2035 ( 77)  0.1786 ( 96) -0.1002 ( 98)  0.1239 ( 99) -0.1353 (100)
           0.1253 (105)  0.1436 (107)  0.1634 (110)  0.1329 (114) -0.1475 (115)
           0.1513 (121)  0.1370 (126) -0.1181 (128) -0.1081 (141)  0.1642 (143)
 CRD 56=  -0.2127 (  1)  0.2600 (  4) -0.1245 (  9)  0.1242 ( 10)  0.1344 ( 11)
           0.1555 ( 14) -0.1205 ( 20) -0.1448 ( 22)  0.1558 ( 23) -0.1241 ( 31)
           0.1948 ( 62) -0.1566 ( 63) -0.1188 ( 70)  0.1061 ( 71) -0.1116 ( 73)
           0.1889 ( 77) -0.1348 ( 78) -0.1150 ( 88) -0.1138 ( 89) -0.1224 ( 90)
           0.2154 ( 96) -0.1360 ( 97)  0.1932 (105)  0.1192 (106)  0.1549 (110)
           0.1971 (114) -0.1321 (116)  0.1582 (121)  0.1211 (127)  0.1019 (128)
           0.1115 (141) -0.1318 (142) -0.1321 (143)
 CRD 57=  -0.1313 (  3) -0.1683 (  8)  0.1385 ( 10) -0.1752 ( 11)  0.2285 ( 12)
          -0.1074 ( 13)  0.1254 ( 14) -0.1266 ( 15)  0.1285 ( 17) -0.1666 ( 19)
           0.1250 ( 22)  0.1083 ( 26) -0.1267 ( 49)  0.1038 ( 60) -0.1037 ( 61)
          -0.1275 ( 64)  0.1006 ( 65)  0.2133 ( 67)  0.1080 ( 68)  0.1804 ( 73)
          -0.1438 ( 75) -0.1316 ( 78) -0.1172 ( 79)  0.1091 ( 88) -0.1886 ( 93)
           0.1185 ( 95)  0.1488 ( 98) -0.1142 ( 99) -0.1578 (100)  0.1505 (113)
          -0.1130 (115) -0.1471 (120)  0.1070 (122) -0.1664 (135)  0.1160 (141)
 CRD 58=  -0.1203 (  8)  0.1513 (  9)  0.2455 ( 13)  0.2235 ( 14) -0.1673 ( 16)
          -0.1833 ( 21) -0.1032 ( 24)  0.1029 ( 50)  0.1164 ( 66) -0.1247 ( 67)
           0.1475 ( 69)  0.1310 ( 74)  0.1533 ( 79)  0.1515 ( 80)  0.1422 ( 86)
           0.1936 ( 91)  0.1301 ( 93)  0.1686 (101) -0.1900 (103)  0.1068 (111)
           0.1883 (120) -0.1111 (121) -0.1067 (124) -0.1866 (129) -0.2038 (130)
          -0.1241 (133) -0.1434 (134) -0.1630 (140)
 CRD 59=   0.1112 (  1)  0.1053 (  2) -0.1628 (  3) -0.1209 (  6)  0.1349 (  8)
           0.1133 ( 15) -0.1175 ( 16) -0.1180 ( 18)  0.1513 ( 19) -0.1289 ( 20)
          -0.1540 ( 24) -0.1303 ( 42) -0.1357 ( 48) -0.1129 ( 56) -0.1023 ( 61)
           0.1003 ( 63)  0.1107 ( 73) -0.1224 ( 74)  0.1055 ( 76) -0.1444 ( 81)
           0.1138 ( 83) -0.1499 ( 94)  0.1445 ( 95) -0.1283 ( 97)  0.1571 (102)
          -0.1297 (108) -0.1388 (111)  0.1396 (112) -0.1534 (117) -0.1430 (118)
          -0.1069 (125) -0.1156 (128)  0.1408 (133)  0.1774 (134) -0.1250 (136)
          -0.1461 (137) -0.1036 (138) -0.1248 (139) -0.1405 (142)
 CRD 60=  -0.1270 (  4) -0.1508 (  7)  0.1040 ( 12)  0.1521 ( 15)  0.1560 ( 16)
           0.1315 ( 17) -0.1001 ( 21)  0.1635 ( 34) -0.1277 ( 47) -0.2313 ( 68)
           0.1495 ( 69) -0.1089 ( 74) -0.1313 ( 75)  0.1459 ( 78) -0.1446 ( 85)
           0.1484 ( 86)  0.1612 ( 89) -0.1084 ( 91)  0.1033 ( 97) -0.1020 (101)
           0.1173 (106) -0.1661 (123)  0.1702 (124)  0.1050 (127) -0.3118 (136)
           0.3176 (139) -0.1092 (142)
 CRD 61=   0.1396 (  5) -0.1179 ( 12)  0.1634 ( 14) -0.1631 ( 17)  0.2179 ( 19)
          -0.1166 ( 21) -0.1019 ( 22)  0.1217 ( 24) -0.1109 ( 36)  0.1738 ( 44)
          -0.1087 ( 46) -0.1020 ( 47) -0.1280 ( 51)  0.1056 ( 58) -0.2172 ( 60)
           0.1195 ( 72) -0.1408 ( 82)  0.1314 ( 83) -0.1107 ( 84)  0.1534 (102)
           0.1196 (104)  0.1063 (106)  0.1785 (108)  0.1298 (117) -0.1733 (126)
          -0.1763 (128)  0.1637 (131) -0.2064 (132)  0.2855 (134) -0.2693 (140)
          -0.1326 (143)
 CRD 62=   0.1574 (  7)  0.1765 ( 12) -0.1344 ( 14) -0.2381 ( 17)  0.1422 ( 20)
          -0.1152 ( 22)  0.1183 ( 23) -0.1113 ( 42) -0.1488 ( 43)  0.1596 ( 47)
          -0.1143 ( 52)  0.1226 ( 53)  0.1627 ( 57)  0.1119 ( 58) -0.1584 ( 69)
          -0.1087 ( 75)  0.1412 ( 85) -0.1085 ( 92) -0.1394 (102)  0.2110 (106)
          -0.1173 (115)  0.1299 (118) -0.1051 (124)  0.2229 (127) -0.2059 (131)
          -0.1385 (132)  0.1514 (136) -0.1619 (139)  0.2028 (140) -0.2251 (142)
          -0.2285 (143)
 CRD 63=  -0.1264 (  3)  0.1355 (  5) -0.1859 (  6) -0.1654 ( 12) -0.1254 ( 14)
           0.1003 ( 16)  0.1835 ( 26)  0.1399 ( 28)  0.1002 ( 33)  0.1273 ( 34)
           0.1171 ( 36) -0.1883 ( 45) -0.1002 ( 61) -0.1001 ( 68)  0.1326 ( 76)
           0.2212 ( 79) -0.2604 ( 80) -0.1238 ( 81) -0.1829 ( 88) -0.1252 ( 89)
           0.1806 ( 90)  0.1193 ( 94) -0.2415 ( 97)  0.1230 ( 99) -0.1235 (105)
           0.1635 (111)  0.2484 (112) -0.1418 (113)  0.1543 (114) -0.1618 (115)
          -0.1132 (121)
 CRD 64=  -0.1076 (  1)  0.1054 (  4)  0.2206 (  5) -0.2040 (  7)  0.1125 (  9)
          -0.1075 ( 10)  0.1194 ( 12) -0.1080 ( 25)  0.1422 ( 27) -0.1231 ( 30)
          -0.1125 ( 31)  0.1129 ( 32) -0.1169 ( 36)  0.1201 ( 38)  0.1177 ( 40)
          -0.1553 ( 41)  0.1085 ( 67)  0.2225 ( 74)  0.2109 ( 75) -0.1744 ( 79)
          -0.1410 ( 80)  0.1532 ( 88) -0.2125 ( 89)  0.1745 ( 90) -0.2200 ( 95)
           0.2202 (105) -0.1975 (110)  0.1994 (114) -0.2202 (121)  0.1003 (134)
 CRD 65=   0.1517 (  2) -0.1138 (  6) -0.1639 ( 15)  0.1379 ( 16)  0.1252 ( 20)
          -0.1372 ( 21) -0.1224 ( 27)  0.1254 ( 29) -0.1242 ( 37)  0.1132 ( 40)
          -0.1119 ( 46)  0.1345 ( 48) -0.1042 ( 55)  0.1298 ( 56)  0.1006 ( 58)
          -0.1215 ( 59) -0.1341 ( 78) -0.1094 ( 80)  0.1098 ( 81) -0.2635 ( 87)
          -0.1720 ( 90) -0.1473 ( 91)  0.1071 ( 93)  0.1588 (104)  0.2523 (109)
          -0.1165 (111) -0.1058 (113)  0.1405 (115)  0.1557 (118) -0.1541 (119)
           0.1167 (126)  0.1144 (127) -0.1395 (130) -0.1400 (131)  0.1541 (136)
           0.1817 (137)  0.1257 (138)  0.1533 (139)
 CRD 66=  -0.1097 (  2)  0.1478 ( 11) -0.1465 ( 13) -0.1904 ( 18)  0.1174 ( 25)
          -0.1115 ( 35)  0.1114 ( 39)  0.1274 ( 43)  0.1305 ( 49) -0.1313 ( 50)
           0.1445 ( 76) -0.1396 ( 83) -0.2404 ( 84) -0.1533 ( 88) -0.1544 ( 93)
           0.1826 (104) -0.1547 (106) -0.2164 (108)  0.1165 (110)  0.1293 (111)
           0.2084 (119) -0.1060 (124)  0.1842 (126) -0.1578 (130) -0.1480 (131)
           0.2078 (132)  0.2087 (133)

 THE DETERMINANT OF THE G MATRIX IS 10**(   -18)


                     --------------------
                     INTERNAL COORDINATES
                     --------------------

                 - - ATOMS - -         COORDINATE      COORDINATE
 NO.   TYPE    I  J  K  L  M  N        (BOHR,RAD)       (ANG,DEG)
 ----------------------------------------------------------------
   1 STRETCH   1  9                     2.0753547       1.0982305
   2 STRETCH   1  2                     2.8840865       1.5261930
   3 STRETCH   1 11                     2.0753637       1.0982352
   4 STRETCH   1 10                     2.0752287       1.0981638
   5 STRETCH   2  4                     2.9118971       1.5409097
   6 STRETCH   2  3                     2.8799662       1.5240126
   7 STRETCH   2  5                     2.9184519       1.5443784
   8 STRETCH   3 14                     2.0756604       1.0983923
   9 STRETCH   3 12                     2.0751176       1.0981050
  10 STRETCH   3 13                     2.0749376       1.0980097
  11 STRETCH   4 15                     2.0894163       1.1056716
  12 STRETCH   4  6                     2.8901274       1.5293896
  13 STRETCH   4 16                     2.0941143       1.1081576
  14 STRETCH   5  7                     2.8828391       1.5255329
  15 STRETCH   5 18                     2.0918462       1.1069574
  16 STRETCH   5 17                     2.0910673       1.1065453
  17 STRETCH   6  7                     2.8908803       1.5297881
  18 STRETCH   6 19                     2.1106681       1.1169176
  19 STRETCH   6  8                     2.8606286       1.5137796
  20 STRETCH   7 21                     2.0878421       1.1048385
  21 STRETCH   7 20                     2.0926470       1.1073812
  22 STRETCH   8 24                     2.0739564       1.0974905
  23 STRETCH   8 23                     2.0741556       1.0975960
  24 STRETCH   8 22                     2.0764070       1.0987873
  25 BEND      1  2  4                  1.9205860     110.0414718
  26 BEND      1  2  3                  1.9043298     109.1100584
  27 BEND      1  2  5                  1.9264766     110.3789808
  28 BEND      2  1 11                  1.9417250     111.2526451
  29 BEND      2  5 18                  1.9349825     110.8663325
  30 BEND      2  3 12                  1.9419261     111.2641724
  31 BEND      2  1 10                  1.9448456     111.4314467
  32 BEND      2  3 13                  1.9406471     111.1908867
  33 BEND      2  3 14                  1.9491537     111.6782798
  34 BEND      2  5  7                  1.8792284     107.6718584
  35 BEND      2  4 15                  1.9539764     111.9546034
  36 BEND      2  4  6                  1.8555665     106.3161315
  37 BEND      2  5 17                  1.9429241     111.3213513
  38 BEND      2  1  9                  1.9435467     111.3570250
  39 BEND      2  4 16                  1.9327830     110.7403058
  40 BEND      3  2  5                  1.9364285     110.9491818
  41 BEND      3  2  4                  1.9315691     110.6707594
  42 BEND      4  6  8                  1.9651736     112.5961523
  43 BEND      4  6 19                  1.8998486     108.8533040
  44 BEND      4  6  7                  1.8305910     104.8851379
  45 BEND      4  2  5                  1.8440660     105.6572016
  46 BEND      5  7 21                  1.9537465     111.9414289
  47 BEND      5  7  6                  1.8570135     106.3990368
  48 BEND      5  7 20                  1.9332645     110.7678950
  49 BEND      6  4 16                  1.9299661     110.5789134
  50 BEND      6  4 15                  1.9493548     111.6898017
  51 BEND      6  8 22                  1.9548063     112.0021502
  52 BEND      6  8 23                  1.9397167     111.1375790
  53 BEND      6  8 24                  1.9396893     111.1360124
  54 BEND      6  7 20                  1.9311879     110.6489155
  55 BEND      6  7 21                  1.9473747     111.5763489
  56 BEND      7  5 18                  1.9343010     110.8272844
  57 BEND      7  6  8                  1.9671394     112.7087840
  58 BEND      7  6 19                  1.9016580     108.9569784
  59 BEND      7  5 17                  1.9359339     110.9208409
  60 BEND      8  6 19                  1.8972539     108.7046393
  61 BEND      9  1 10                  1.8749953     107.4293176
  62 BEND      9  1 11                  1.8765250     107.5169628
  63 BEND     10  1 11                  1.8788421     107.6497213
  64 BEND     12  3 13                  1.8770502     107.5470571
  65 BEND     12  3 14                  1.8756546     107.4670938
  66 BEND     13  3 14                  1.8759364     107.4832368
  67 BEND     15  4 16                  1.8438182     105.6430022
  68 BEND     17  5 18                  1.8373720     105.2736602
  69 BEND     20  7 21                  1.8428847     105.5895137
  70 BEND     22  8 23                  1.8735982     107.3492715
  71 BEND     22  8 24                  1.8736422     107.3517904
  72 BEND     23  8 24                  1.8787539     107.6446701
  73 TORSION   1  2  4 16               2.4698126     141.5098399
  74 TORSION   1  2  3 13              -1.0715162     -61.3933572
  75 TORSION   1  2  3 12               1.0204003      58.4646278
  76 TORSION   1  2  4  6              -1.7161185     -98.3263488
  77 TORSION   1  2  3 14               3.1162930     178.5504373
  78 TORSION   1  2  5 17              -2.1421926    -122.7385944
  79 TORSION   1  2  4 15               0.4170563      23.8955683
  80 TORSION   1  2  5 18              -0.1030442      -5.9039989
  81 TORSION   1  2  5  7               2.0155402     115.4819451
  82 TORSION   2  4  6  8              -2.6731350    -153.1593547
  83 TORSION   2  4  6 19               1.5050476      86.2328763
  84 TORSION   2  4  6  7              -0.5279917     -30.2516946
  85 TORSION   2  5  7 20               1.8347889     105.1256597
  86 TORSION   2  5  7 21              -2.3966422    -137.3174804
  87 TORSION   2  5  7  6              -0.2650927     -15.1886924
  88 TORSION   3  2  4 16               0.3637221      20.8397432
  89 TORSION   3  2  1  9               1.0106508      57.9060242
  90 TORSION   3  2  5 17              -0.0290088      -1.6620829
  91 TORSION   3  2  5 18               2.0101396     115.1725126
  92 TORSION   3  2  4  6               2.4609763     141.0035546
  93 TORSION   3  2  4 15              -1.6890342     -96.7745284
  94 TORSION   3  2  5  7              -2.1544614    -123.4415434
  95 TORSION   3  2  1 10              -1.0825845     -62.0275204
  96 TORSION   3  2  1 11               3.1037169     177.8298775
  97 TORSION   4  2  1  9              -1.1117537     -63.6987923
  98 TORSION   4  2  1 10               3.0781964     176.3676631
  99 TORSION   4  2  5 17               2.0652175     118.3282444
 100 TORSION   4  2  3 12               3.1361323     179.6871429
 101 TORSION   4  2  5 18              -2.1788195    -124.8371601
 102 TORSION   4  6  7 20              -1.6129699     -92.4163701
 103 TORSION   4  6  7 21               2.6238334     150.3345794
 104 TORSION   4  6  7  5               0.4882522      27.9747912
 105 TORSION   4  2  1 11               0.9813124      56.2250610
 106 TORSION   4  6  8 22               1.0359646      59.3563974
 107 TORSION   4  6  8 23               3.1315633     179.4253598
 108 TORSION   4  6  8 24              -1.0596713     -60.7146954
 109 TORSION   4  2  5  7              -0.0602351      -3.4512161
 110 TORSION   4  2  3 14              -1.0511603     -60.2270476
 111 TORSION   4  2  3 13               1.0442158      59.8291579
 112 TORSION   5  2  1 10               1.0496057      60.1379793
 113 TORSION   5  2  4 16              -1.7336925     -99.3332649
 114 TORSION   5  2  1 11              -1.0472782     -60.0046227
 115 TORSION   5  2  3 12              -1.1057817     -63.3566254
 116 TORSION   5  2  1  9              -3.1403443    -179.9284760
 117 TORSION   5  7  6  8               2.6321260     150.8097126
 118 TORSION   5  7  6 19              -1.5435414     -88.4384061
 119 TORSION   5  2  4  6               0.3635616      20.8305465
 120 TORSION   5  2  4 15               2.4967365     143.0524635
 121 TORSION   5  2  3 14               0.9901110      56.7291841
 122 TORSION   5  2  3 13               3.0854871     176.7853896
 123 TORSION   6  7  5 17              -2.3948828    -137.2166752
 124 TORSION   6  7  5 18               1.8539169     106.2216135
 125 TORSION   7  6  8 24              -3.1263301    -179.1255224
 126 TORSION   7  6  8 23               1.0649045      61.0145328
 127 TORSION   7  6  8 22              -1.0306942     -59.0544296
 128 TORSION   7  6  4 16               1.5710862      90.0166089
 129 TORSION   7  6  4 15              -2.6640933    -152.6413008
 130 TORSION   8  6  7 21              -1.5154781     -86.8304992
 131 TORSION   8  6  7 20               0.5309039      30.4185513
 132 TORSION   8  6  4 16              -0.5740571     -32.8910512
 133 TORSION   8  6  4 15               1.4739487      84.4510391
 134 TORSION  15  4  6 19              -0.6310540     -36.1567299
 135 TORSION  16  4  6 19              -2.6790598    -153.4988202
 136 TORSION  17  5  7 20              -0.2950012     -16.9023231
 137 TORSION  17  5  7 21               1.7567531     100.6545368
 138 TORSION  18  5  7 20              -2.3293868    -133.4640344
 139 TORSION  18  5  7 21              -0.2776326     -15.9071745
 140 TORSION  19  6  7 21               0.5920398      33.9213821
 141 TORSION  19  6  7 20               2.6384218     151.1704326
 142 TORSION  19  6  8 24               1.0468201      59.9783754
 143 TORSION  19  6  8 23              -1.0451305     -59.8815694
 144 TORSION  19  6  8 22              -3.1407293    -179.9505318

     ------------------------------------------
     THE POINT GROUP IS C1 , NAXIS= 1, ORDER= 1
     ------------------------------------------

     DIMENSIONS OF THE SYMMETRY SUBSPACES ARE
 A   =  248

 ..... DONE SETTING UP THE RUN .....
 STEP CPU TIME =     0.02 TOTAL CPU TIME =        0.0 (    0.0 MIN)
 TOTAL WALL CLOCK TIME=        0.0 SECONDS, CPU UTILIZATION IS  50.00%


          -----------------------------
          STATIONARY POINT LOCATION RUN
          -----------------------------

 OBTAINING INITIAL HESSIAN, HESS=GUESS   
 DIAGONAL GUESS HESSIAN IN INTERNAL COORDS IS
     1  0.3409     2  0.3699     3  0.3409     4  0.3409     5  0.3595
     6  0.3715     7  0.3570     8  0.3408     9  0.3410    10  0.3410
    11  0.3360    12  0.3676    13  0.3344    14  0.3704    15  0.3351
    16  0.3354    17  0.3673    18  0.3287    19  0.3789    20  0.3365
    21  0.3349    22  0.3414    23  0.3413    24  0.3405    25  0.2480
    26  0.2492    27  0.2477    28  0.2238    29  0.2222    30  0.2240
    31  0.2238    32  0.2240    33  0.2239    34  0.2478    35  0.2225
    36  0.2478    37  0.2223    38  0.2238    39  0.2224    40  0.2479
    41  0.2481    42  0.2497    43  0.2225    44  0.2485    45  0.2467
    46  0.2235    47  0.2488    48  0.2233    49  0.2230    50  0.2232
    51  0.2245    52  0.2246    53  0.2246    54  0.2231    55  0.2232
    56  0.2233    57  0.2496    58  0.2225    59  0.2234    60  0.2234
    61  0.2026    62  0.2026    63  0.2026    64  0.2026    65  0.2026
    66  0.2026    67  0.2017    68  0.2017    69  0.2018    70  0.2026
    71  0.2026    72  0.2026    73  0.2500    74  0.2500    75  0.2500
    76  0.2500    77  0.2500    78  0.2500    79  0.2500    80  0.2500
    81  0.2500    82  0.2500    83  0.2500    84  0.2500    85  0.2500
    86  0.2500    87  0.2500    88  0.2500    89  0.2500    90  0.2500
    91  0.2500    92  0.2500    93  0.2500    94  0.2500    95  0.2500
    96  0.2500    97  0.2500    98  0.2500    99  0.2500   100  0.2500
   101  0.2500   102  0.2500   103  0.2500   104  0.2500   105  0.2500
   106  0.2500   107  0.2500   108  0.2500   109  0.2500   110  0.2500
   111  0.2500   112  0.2500   113  0.2500   114  0.2500   115  0.2500
   116  0.2500   117  0.2500   118  0.2500   119  0.2500   120  0.2500
   121  0.2500   122  0.2500   123  0.2500   124  0.2500   125  0.2500
   126  0.2500   127  0.2500   128  0.2500   129  0.2500   130  0.2500
   131  0.2500   132  0.2500   133  0.2500   134  0.2500   135  0.2500
   136  0.2500   137  0.2500   138  0.2500   139  0.2500   140  0.2500
   141  0.2500   142  0.2500   143  0.2500   144  0.2500
 TRANSFORMING HESSIAN TO SYMMETRY COORDINATES

          PARAMETERS CONTROLLING GEOMETRY SEARCH ARE
          METHOD =QA                  UPHESS =BFGS    
          NNEG   =         0          NFRZ   =         3
          NSTEP  =        50          IFOLOW =         1
          HESS   =GUESS               RESTAR =         F
          IHREP  =         0          HSSEND =         F
          NPRT   =         0          NPUN   =         0
          OPTTOL = 5.000E-04          RMIN   = 1.500E-03
          RMAX   = 1.000E-01          RLIM   = 7.000E-02
          DXMAX  = 3.000E-01          PURIFY =         F
          MOVIE  =         F          TRUPD  =         T
          TRMAX  = 5.000E-01          TRMIN  = 5.000E-02
          ITBMAT =         5          STPT   =         F
          STSTEP = 1.000E-02          PROJCT=          F
          FROZEN COORD(S)=   1   2   3


      ***** EQUILIBRIUM GEOMETRY LOCATED *****
            (SUBJECT TO   3 CONSTRAINT(S))
 COORDINATES OF ALL ATOMS ARE (ANGS)
   ATOM   CHARGE       X              Y              Z
 ------------------------------------------------------------
 C           6.0   0.6976057405   2.7749542578   1.1859890052
 C           6.0   1.7134851227   1.9482727777   1.9878058864
 C           6.0   0.9816525127   1.1216260010   3.0509305744
 C           6.0   2.7643029982   2.8453879038   2.6812806129
 C           6.0   2.5490632969   1.0658267528   1.0077540452
 C           6.0   3.9726387270   2.9320957117   1.7472805375
 C           6.0   4.0129856196   1.5410037474   1.0956881594
 C           6.0   5.2612115048   3.2993243371   2.4784146746
 H           1.0   0.1092699741   3.4229822286   1.8307698852
 H           1.0   0.0120514981   2.1159776503   0.6568945578
 H           1.0   1.1907729329   3.3966048833   0.4427589586
 H           1.0   0.2324348222   0.4645777719   2.6174343865
 H           1.0   0.4838357781   1.7784036708   3.7619830356
 H           1.0   1.6869781103   0.5096891656   3.6078073244
 H           1.0   2.3661809266   3.8208689320   2.9497602671
 H           1.0   3.0815456538   2.3674050312   3.6066350319
 H           1.0   2.4698106257   0.0119743309   1.2562538943
 H           1.0   2.1687515097   1.1712906866  -0.0041600916
 H           1.0   3.7735786515   3.6771174024   0.9780289910
 H           1.0   4.5847069043   0.8655581800   1.7282656797
 H           1.0   4.5046334190   1.5575980307   0.1268657227
 H           1.0   5.4755736962   2.5568045191   3.2447463126
 H           1.0   6.1118840709   3.3357995750   1.8030055446
 H           1.0   5.1790605705   4.2664120090   2.9681735800


                     --------------------
                     INTERNAL COORDINATES
                     --------------------

                 - - ATOMS - -         COORDINATE      COORDINATE
 NO.   TYPE    I  J  K  L  M  N        (BOHR,RAD)       (ANG,DEG)
 ----------------------------------------------------------------
   1 STRETCH   1  9                     2.0543517       1.0871162
   2 STRETCH   1  2                     2.9020208       1.5356834
   3 STRETCH   1 11                     2.0545539       1.0872232
   4 STRETCH   1 10                     2.0563968       1.0881984
   5 STRETCH   2  4                     2.9214094       1.5459434
   6 STRETCH   2  3                     2.8963760       1.5326963
   7 STRETCH   2  5                     2.9502753       1.5612186
   8 STRETCH   3 14                     2.0545612       1.0872270
   9 STRETCH   3 12                     2.0536014       1.0867191
  10 STRETCH   3 13                     2.0569162       1.0884732
  11 STRETCH   4 15                     2.0546334       1.0872653
  12 STRETCH   4  6                     2.8906938       1.5296894
  13 STRETCH   4 16                     2.0574520       1.0887568
  14 STRETCH   5  7                     2.9132406       1.5416206
  15 STRETCH   5 18                     2.0525329       1.0861537
  16 STRETCH   5 17                     2.0515829       1.0856510
  17 STRETCH   6  7                     2.9038746       1.5366644
  18 STRETCH   6 19                     2.0583533       1.0892338
  19 STRETCH   6  8                     2.8844386       1.5263793
  20 STRETCH   7 21                     2.0532982       1.0865587
  21 STRETCH   7 20                     2.0555896       1.0877712
  22 STRETCH   8 24                     2.0543948       1.0871390
  23 STRETCH   8 23                     2.0537694       1.0868081
  24 STRETCH   8 22                     2.0567226       1.0883708
  25 BEND      1  2  4                  1.9513955     111.8067244
  26 BEND      1  2  3                  1.9141379     109.6720240
  27 BEND      1  2  5                  1.9076916     109.3026758
  28 BEND      2  1 11                  1.9440611     111.3864969
  29 BEND      2  5 18                  1.9204335     110.0327349
  30 BEND      2  3 12                  1.9590719     112.2465497
  31 BEND      2  1 10                  1.9226362     110.1589415
  32 BEND      2  3 13                  1.9241655     110.2465622
  33 BEND      2  3 14                  1.9273866     110.4311181
  34 BEND      2  5  7                  1.8736086     107.3498652
  35 BEND      2  4 15                  1.9633120     112.4894924
  36 BEND      2  4  6                  1.8712267     107.2133901
  37 BEND      2  5 17                  1.9454121     111.4639011
  38 BEND      2  1  9                  1.9489623     111.6673125
  39 BEND      2  4 16                  1.9013323     108.9383177
  40 BEND      3  2  5                  1.9672239     112.7136265
  41 BEND      3  2  4                  1.9032788     109.0498449
  42 BEND      4  6  8                  1.9692824     112.8315729
  43 BEND      4  6 19                  1.9024664     109.0032957
  44 BEND      4  6  7                  1.8011603     103.1988848
  45 BEND      4  2  5                  1.8191431     104.2292245
  46 BEND      5  7 21                  1.9644058     112.5521629
  47 BEND      5  7  6                  1.8528058     106.1579545
  48 BEND      5  7 20                  1.9186443     109.9302215
  49 BEND      6  4 16                  1.8898428     108.2800186
  50 BEND      6  4 15                  1.9705165     112.9022766
  51 BEND      6  8 22                  1.9170779     109.8404720
  52 BEND      6  8 23                  1.9510693     111.7880381
  53 BEND      6  8 24                  1.9455221     111.4702076
  54 BEND      6  7 20                  1.9063924     109.2282360
  55 BEND      6  7 21                  1.9564216     112.0947024
  56 BEND      7  5 18                  1.9344704     110.8369895
  57 BEND      7  6  8                  1.9809400     113.4995030
  58 BEND      7  6 19                  1.9013065     108.9368386
  59 BEND      7  5 17                  1.9342119     110.8221771
  60 BEND      8  6 19                  1.9049875     109.1477444
  61 BEND      9  1 10                  1.8843181     107.9634734
  62 BEND      9  1 11                  1.8860967     108.0653832
  63 BEND     10  1 11                  1.8751105     107.4359187
  64 BEND     12  3 13                  1.8860889     108.0649355
  65 BEND     12  3 14                  1.8873304     108.1360693
  66 BEND     13  3 14                  1.8772926     107.5609403
  67 BEND     15  4 16                  1.8657587     106.9000964
  68 BEND     17  5 18                  1.8566155     106.3762321
  69 BEND     20  7 21                  1.8652171     106.8690695
  70 BEND     22  8 23                  1.8821107     107.8369993
  71 BEND     22  8 24                  1.8802866     107.7324845
  72 BEND     23  8 24                  1.8852131     108.0147535
  73 TORSION   1  2  4 16               2.5995057     148.9407028
  74 TORSION   1  2  3 13              -1.0973987     -62.8763131
  75 TORSION   1  2  3 12               1.0062275      57.6525863
  76 TORSION   1  2  4  6              -1.6422352     -94.0931436
  77 TORSION   1  2  3 14               3.1136725     178.4002943
  78 TORSION   1  2  5 17              -2.1392229    -122.5684449
  79 TORSION   1  2  4 15               0.5340968      30.6014926
  80 TORSION   1  2  5 18              -0.0838597      -4.8048066
  81 TORSION   1  2  5  7               2.0227952     115.8976252
  82 TORSION   2  4  6  8              -2.7492667    -157.5213808
  83 TORSION   2  4  6 19               1.4146364      81.0526950
  84 TORSION   2  4  6  7              -0.6043269     -34.6253783
  85 TORSION   2  5  7 20               1.7563697     100.6325732
  86 TORSION   2  5  7 21              -2.4498754    -140.3675230
  87 TORSION   2  5  7  6              -0.3034614     -17.3870553
  88 TORSION   3  2  4 16               0.4798133      27.4912746
  89 TORSION   3  2  1  9               1.0003007      57.3130088
  90 TORSION   3  2  5 17              -0.0059486      -0.3408282
  91 TORSION   3  2  5 18               2.0494147     117.4228100
  92 TORSION   3  2  4  6               2.5212577     144.4574281
  93 TORSION   3  2  4 15              -1.5855956     -90.8479356
  94 TORSION   3  2  5  7              -2.1271158    -121.8747582
  95 TORSION   3  2  1 10              -1.0933614     -62.6449965
  96 TORSION   3  2  1 11               3.1108705     178.2397497
  97 TORSION   4  2  1  9              -1.1131083     -63.7764060
  98 TORSION   4  2  1 10               3.0764149     176.2655888
  99 TORSION   4  2  5 17               2.0554725     117.7698994
 100 TORSION   4  2  3 12              -3.1347689    -179.6090251
 101 TORSION   4  2  5 18              -2.1723496    -124.4664624
 102 TORSION   4  6  7 20              -1.5160583     -86.8637395
 103 TORSION   4  6  7 21               2.7033208     154.8888714
 104 TORSION   4  6  7  5               0.5518824      31.6205298
 105 TORSION   4  2  1 11               0.9974615      57.1503349
 106 TORSION   4  6  8 22               1.0321721      59.1391033
 107 TORSION   4  6  8 23               3.1207139     178.8037334
 108 TORSION   4  6  8 24              -1.0505435     -60.1917076
 109 TORSION   4  2  5  7              -0.0656947      -3.7640306
 110 TORSION   4  2  3 14              -1.0273238     -58.8613170
 111 TORSION   4  2  3 13               1.0447903      59.8620756
 112 TORSION   5  2  1 10               1.0714545      61.3898180
 113 TORSION   5  2  4 16              -1.6249919     -93.1051758
 114 TORSION   5  2  1 11              -1.0074989     -57.7254359
 115 TORSION   5  2  3 12              -1.1234137     -64.3668641
 116 TORSION   5  2  1  9              -3.1180687    -178.6521768
 117 TORSION   5  7  6  8               2.6890443     154.0708920
 118 TORSION   5  7  6 19              -1.4679093     -84.1050064
 119 TORSION   5  2  4  6               0.4164526      23.8609777
 120 TORSION   5  2  4 15               2.5927846     148.5556140
 121 TORSION   5  2  3 14               0.9840314      56.3808439
 122 TORSION   5  2  3 13               3.0561455     175.1042365
 123 TORSION   6  7  5 17              -2.4316324    -139.3222750
 124 TORSION   6  7  5 18               1.7942960     102.8055884
 125 TORSION   7  6  8 24              -3.0916959    -177.1411275
 126 TORSION   7  6  8 23               1.0795614      61.8543134
 127 TORSION   7  6  8 22              -1.0089804     -57.8103167
 128 TORSION   7  6  4 16               1.4446512      82.7724144
 129 TORSION   7  6  4 15              -2.7762861    -159.0694765
 130 TORSION   8  6  7 21              -1.4427025     -82.6607664
 131 TORSION   8  6  7 20               0.6211037      35.5866228
 132 TORSION   8  6  4 16              -0.7002887     -40.1235881
 133 TORSION   8  6  4 15               1.3619593      78.0345209
 134 TORSION  15  4  6 19              -0.7573229     -43.3914033
 135 TORSION  16  4  6 19              -2.8195709    -161.5495123
 136 TORSION  17  5  7 20              -0.3718013     -21.3026465
 137 TORSION  17  5  7 21               1.7051388      97.6972573
 138 TORSION  18  5  7 20              -2.4290582    -139.1747831
 139 TORSION  18  5  7 21              -0.3521181     -20.1748793
 140 TORSION  19  6  7 21               0.6835291      39.1633352
 141 TORSION  19  6  7 20               2.7473354     157.4107244
 142 TORSION  19  6  8 24               1.0673096      61.1523359
 143 TORSION  19  6  8 23              -1.0446184     -59.8522231
 144 TORSION  19  6  8 22              -3.1331602    -179.5168533

          INTERNUCLEAR DISTANCES (ANGS.)


 =====================================================
   GAMESS/COSab RESULTS
 =====================================================

   Dielectric Constant                  = INFTY
   Basic Grid Size                      =                 1082
   Number of Segments                   =                   92
   Number of Segments located on spheres=                  254
   Number of Segments of the cavity     =                  674
   Solvent Radius (rsolv)               = 1.40
   Outlying Charge Error Method         = double cavity

 =====================================================

  Total solvated Energy (a.u.)          =  -312.3432173845
  Total Energy corrected (a.u.)         =  -312.3431220169

  Outlying charge effect (a.u.)         =     0.0000953676
  Outlying charge effect (kcal/mol)     =     0.0598441195

  Dielectric Energy (a.u.)              =    -0.0013853446
  Dielectric energy corr. (a.u.)        =    -0.0012899770

  Sum of polarization charges           =     0.0301824169
  Sum of polarization charges(cor.)     =    -0.0301824169

  Total surface area of cavity (A**2)   =  168.30
  Total volume of cavity (A**3)         =  174.81

 =====================================================
 NPS=                   674
NR.  ATOM  (X, Y, Z)(a.u.)                  CHARGE(e)  AREA(A**2) SIGMA(e/A**2)
   1   1   1.632060   8.997236   1.927729   0.001163   0.232280   0.005007
   2   1  -1.588495   6.935899   0.517240   0.000975   0.371649   0.002623
   3   1  -2.239445   4.279844   3.076279   0.001829   0.371649   0.004922
   4   1   1.485171   5.011242  -1.527406   0.000660   0.139368   0.004736
   5   1  -2.225328   5.100208   3.547470   0.001326   0.278737   0.004758
   6   1  -1.748195   7.346605   1.563287   0.001325   0.418105   0.003169
   7   1   1.083144   8.998059   2.608920   0.001355   0.278737   0.004863
   8   1   0.675473   5.547864  -1.470775   0.001457   0.278737   0.005226
   9   1   0.466741   4.890038  -1.424044   0.000935   0.185824   0.005031
  10   1   2.025633   8.934678   2.643753   0.001032   0.185824   0.005552
  11   1   0.499396   8.826117   1.357233   0.002593   0.511017   0.005075
  12   1  -0.794648   8.001240   0.752291   0.001282   0.418105   0.003066
  13   1  -2.206188   6.012844   1.113783   0.001724   0.418105   0.004124
  14   1  -2.460238   5.165525   2.270227   0.001849   0.325193   0.005685
  15   1   0.096703   6.701902  -1.024730   0.001412   0.371649   0.003800
  16   1  -0.754380   7.100729  -0.316249   0.001302   0.464561   0.002803
  17   1  -1.526236   6.046619  -0.114354   0.001056   0.325193   0.003246
  18   1   0.975152   4.282843  -1.397893   0.000647   0.139368   0.004643
  19   1  -2.350145   6.141111   2.093377   0.001450   0.325193   0.004457
  20   1  -0.506638   8.478281   1.539289   0.001026   0.278737   0.003680
  21   1  -0.552550   5.813101  -0.993042   0.001783   0.418105   0.004264
  22   1   0.085120   8.061123   0.044190   0.001140   0.371649   0.003067
  23   3   2.289040  -1.628781   5.979598   0.001190   0.232280   0.005124
  24   3  -0.372494   0.411135   8.295962   0.000965   0.371649   0.002596
  25   3  -1.798260   3.045703   6.048010   0.001874   0.371649   0.005041
  26   3   3.156443   2.376294   9.304455   0.000683   0.139368   0.004898
  27   3  -1.919249   2.222699   5.597185   0.001350   0.278737   0.004844
  28   3  -0.838061  -0.007282   7.349087   0.001311   0.418105   0.003136
  29   3   1.559166  -1.638750   5.497400   0.001363   0.278737   0.004891
  30   3   2.373554   1.831889   9.498075   0.001477   0.278737   0.005300
  31   3   2.197465   2.598414   9.498751   0.001160   0.232280   0.004995
  32   3   2.261097  -1.583027   5.124920   0.000568   0.139368   0.004077
  33   3   1.381474  -1.464717   6.866774   0.002587   0.511017   0.005063
  34   3   0.323688  -0.648218   7.833908   0.001276   0.418105   0.003053
  35   3  -1.151982   1.324861   7.912631   0.001716   0.418105   0.004104
  36   3  -1.754328   2.162861   6.885602   0.001846   0.325193   0.005675
  37   3   1.698917   0.669907   9.252316   0.001437   0.371649   0.003866
  38   3   0.677109   0.259006   8.837082   0.001309   0.464561   0.002819
  39   3  -0.130746   1.304716   8.876201   0.001025   0.325193   0.003153
  40   3   2.922442   3.029829   9.274891   0.000730   0.139368   0.005235
  41   3  -1.585362   1.189409   7.023465   0.001449   0.325193   0.004457
  42   3   0.364047  -1.127280   6.997993   0.001019   0.278737   0.003657
  43   3   1.061326   1.552469   9.416821   0.001762   0.418105   0.004214
  44   3   1.377578  -0.695736   8.241392   0.001175   0.371649   0.003162
  45   4   6.025770   6.832090   8.461564   0.001435   0.278737   0.005147
  46   4   5.303072   7.383509   8.268756   0.000976   0.185824   0.005252
  47   4   3.217752   6.688816   7.989107   0.000471   0.139368   0.003383
  48   4   4.071871   6.070172   8.599163   0.001218   0.232280   0.005245
  49   4   4.867816   6.622396   8.617467   0.001988   0.325193   0.006113
  50   4   6.062933   7.697572   7.929591   0.000831   0.185824   0.004471
  51   4   3.992912   6.888670   8.304816   0.000690   0.139368   0.004948
  52   5   1.815935   0.028005   0.749827   0.000478   0.139368   0.003432
  53   5   4.640058  -0.488349  -0.922373   0.001833   0.371649   0.004933
  54   5   4.354846  -1.121950  -0.153686   0.001434   0.278737   0.005146
  55   5   2.250291  -0.646772   1.119711   0.000645   0.185824   0.003469
  56   5   2.200829   0.043093   0.018974   0.001279   0.278737   0.004587
  57   5   3.408576  -0.583277  -0.452309   0.001944   0.325193   0.005979
  58   5   5.648999  -0.745638  -0.540157   0.001774   0.464561   0.003820
  59   5   6.491540  -0.836079   0.072284   0.000556   0.185824   0.002990
  60   5   5.677150   0.368972  -1.387716   0.000613   0.185824   0.003297
  61   5   6.188981  -1.197359   0.459270   0.000548   0.185824   0.002952
  62   5   2.766659  -0.720492   0.291285   0.001527   0.278737   0.005479
  63   5   6.169097   0.101190  -1.061564   0.000623   0.185824   0.003355
  64   6   9.548968   6.925560   0.438643   0.000193   0.092912   0.002081
  65   6   9.550564   6.366172   0.231397   0.000061   0.046456   0.001318
  66   6   6.987667   9.264698   3.685762   0.000157   0.092912   0.001688
  67   6   7.061158   9.293200   3.229470   0.000213   0.092912   0.002289
  68   6   9.315775   6.711059   0.196396   0.000116   0.046456   0.002492
  69   7   8.280227  -0.507870   0.620445   0.000670   0.278737   0.002402
  70   7  11.172632   2.244601   1.092541   0.001387   0.325193   0.004266
  71   7   6.677231   4.701373  -1.132796   0.000248   0.139368   0.001779
  72   7  10.960028   1.263561   1.663869   0.000953   0.185824   0.005128
  73   7   9.152421  -0.430859   1.265918   0.001413   0.371649   0.003802
  74   7   8.340896  -0.776612   1.747769   0.000536   0.185824   0.002884
  75   7   9.531671   0.196642   0.305567   0.001489   0.325193   0.004580
  76   7  10.648339   1.042549   0.889193   0.001880   0.325193   0.005782
  77   7  11.272584   2.094698   1.990355   0.001017   0.232280   0.004378
  78   7   8.541642  -0.012271  -0.123620   0.001092   0.325193   0.003359
  79   7   7.183232   4.870828  -1.136840   0.000091   0.046456   0.001968
  80   7  10.103326   0.253025   1.141049   0.001437   0.278737   0.005155
  81   7   7.995966   0.403327  -0.725936   0.000349   0.139368   0.002503
  82   8  12.586987   8.928665   4.502582   0.002287   0.418105   0.005469
  83   8  13.524381   5.176213   5.259613   0.001887   0.418105   0.004513
  84   8  11.612612   7.542054   7.811671   0.001468   0.371649   0.003949
  85   8   9.228397   9.687405   3.321799   0.000808   0.278737   0.002898
  86   8  10.726046   8.487320   1.751618   0.000815   0.232280   0.003507
  87   8  10.344788   9.279970   2.481432   0.001097   0.325193   0.003373
  88   8  11.286466   9.475123   3.277218   0.001297   0.278737   0.004652
  89   8  11.389039   6.528017   8.162767   0.001644   0.371649   0.004424
  90   8  13.110322   4.542909   5.860375   0.001261   0.278737   0.004525
  91   8  12.111040   9.043970   3.383837   0.001085   0.232280   0.004671
  92   8  11.611228   9.567283   4.056322   0.001297   0.278737   0.004652
  93   8  12.489813   3.526982   4.004012   0.001347   0.278737   0.004831
  94   8  13.044171   4.075922   4.645489   0.002049   0.371649   0.005513
  95   8  13.287190   5.855451   6.401568   0.001530   0.464561   0.003293
  96   8  12.566364   6.910143   7.318332   0.001409   0.464561   0.003032
  97   8  10.352451   7.121278   8.334585   0.001983   0.371649   0.005336
  98   8   9.049908   7.065977   8.260849   0.001248   0.278737   0.004477
  99   8  13.643630   6.574904   5.367859   0.001250   0.418105   0.002990
 100   8  13.275714   7.958323   5.132669   0.001488   0.418105   0.003558
 101   8  12.615924   8.684747   5.748195   0.001669   0.464561   0.003592
 102   8  12.293264   8.097462   6.982989   0.000943   0.325193   0.002898
 103   8  11.210149   8.957326   2.389063   0.000864   0.232280   0.003717
 104   8  10.284019   9.767172   3.383569   0.001067   0.278737   0.003829
 105   8  12.650580   5.928535   7.301804   0.000845   0.278737   0.003033
 106   8  12.398047   3.372101   4.924611   0.000607   0.139368   0.004357
 107   8   9.639386   6.278595   8.450578   0.001499   0.325193   0.004610
 108   8  13.178728   7.341793   6.291016   0.001157   0.464561   0.002492
 109   9  -1.378783   7.987011   4.562450  -0.002258   0.471065  -0.004794
 110   9   0.161211   8.890604   3.867700  -0.000787   0.372926  -0.002110
 111   9  -2.158674   6.493525   4.123336  -0.000665   0.372926  -0.001782
 112   9  -1.522676   8.161314   3.035987  -0.000764   0.372926  -0.002049
 113   9  -0.142504   8.499501   4.796953  -0.001745   0.392554  -0.004445
 114   9  -0.538796   7.663135   5.472739  -0.002308   0.412182  -0.005600
 115   9  -1.663573   6.810590   5.015592  -0.001973   0.431809  -0.004570
 116   9  -2.057130   7.419756   3.538726  -0.000997   0.392554  -0.002540
 117   9  -0.784886   8.716184   3.444491  -0.001116   0.412182  -0.002706
 118  10  -1.703788   2.848234  -0.074208  -0.002221   0.451437  -0.004921
 119  10  -0.177172   3.003493  -0.995810  -0.000786   0.274788  -0.002860
 120  10  -1.313020   4.145814  -0.815126  -0.000809   0.392554  -0.002060
 121  10  -2.417681   3.819234   1.024423  -0.000722   0.372926  -0.001937
 122  10  -0.578892   2.028592  -0.097348  -0.002307   0.471065  -0.004898
 123  10  -0.822575   3.389705  -0.983450  -0.001109   0.372926  -0.002974
 124  10  -2.105039   4.141263   0.021865  -0.001199   0.451437  -0.002655
 125  10  -2.194305   2.964263   1.464348  -0.001480   0.431809  -0.003428
 126  10  -1.432359   2.085406   0.734107  -0.002083   0.392554  -0.005306
 127  11   3.172332   7.911190  -0.882932  -0.002873   0.490692  -0.005855
 128  11   2.184909   6.442683  -1.618958  -0.000600   0.333671  -0.001799
 129  11   2.429233   8.861104   0.643187  -0.000467   0.294415  -0.001588
 130  11   1.331391   8.012485  -0.791338  -0.000507   0.314043  -0.001613
 131  11   3.264146   6.730686  -1.379086  -0.002311   0.451437  -0.005120
 132  11   3.035683   8.640208   0.141849  -0.001325   0.274788  -0.004822
[...]
 415   5   6.833698  -0.294789   0.028180   0.000390   0.537143   0.000726
 416   5   1.077147   0.691150   1.439751   0.000335   0.291496   0.001151
 417  10   0.258199   1.279533   1.367442  -0.000252   0.291496  -0.000863
 418  12   0.355392   0.584733   2.206161  -0.000047   0.291496  -0.000161
 419   5   1.693197   1.104996  -0.164012   0.000134   0.088830   0.001507
 420  10   0.899635   1.709532  -0.100592   0.000124   0.088830   0.001401
 421  18   1.759988   1.253341  -0.423313  -0.000078   0.088830  -0.000882
 422  10   0.222124   1.634042   0.278485  -0.000494   0.287213  -0.001722
 423   5   1.356766   0.696057   0.490117   0.000968   0.407617   0.002375
 424   5   2.105229  -0.721901   2.000785   0.000118   0.093711   0.001261
 425  12   1.381683  -0.672692   2.755379   0.000248   0.093711   0.002646
 426  17   2.277435  -0.936138   2.135343   0.000001   0.093711   0.000008
 427  12   0.454782  -0.270671   2.649766  -0.000372   0.322309  -0.001153
 428   5   1.641507  -0.364783   1.645152   0.001174   0.459778   0.002553
 429  17   2.740453  -1.246654   1.548809  -0.000048   0.077063  -0.000623
 430  17   3.697065  -1.492739   0.810299  -0.000133   0.175618  -0.000758
 431  17   5.171257  -1.623667   0.725220  -0.000273   0.175618  -0.001555
 432  17   6.234166  -1.556944   1.347179  -0.000060   0.077063  -0.000778
 433   5   2.929471  -1.050336   0.980119   0.000163   0.164862   0.000991
 434   5   4.428939  -1.320700   0.311778   0.000180   0.164862   0.001091
 435   5   6.018915  -1.324721   0.801820  -0.000074   0.164862  -0.000447
 436   5   6.196339   1.498788  -1.603875   0.000133   0.050113   0.002652
 437  18   5.938386   1.607571  -1.720744   0.000071   0.050113   0.001410
 438  21   6.910108   1.786283  -1.621541   0.000163   0.050113   0.003256
 439  18   5.381566   1.242383  -1.860830  -0.000046   0.072237  -0.000630
 440  18   4.528805   0.492907  -1.618446  -0.000147   0.161966  -0.000910
 441  18   3.224206   0.296637  -1.148590  -0.000122   0.161966  -0.000756
 442  18   2.249716   0.771214  -0.732884  -0.000038   0.072237  -0.000524
 443   5   5.358780   0.718774  -1.547360  -0.000056   0.156879  -0.000356
 444   5   4.030755  -0.009643  -1.124161   0.000207   0.156879   0.001320
 445   5   2.599141   0.303602  -0.553466   0.000193   0.156879   0.001228
 446  21   7.610626   1.421081  -1.536844  -0.000016   0.176088  -0.000091
 447   5   6.499845   1.103895  -1.485755   0.000805   0.247888   0.003246
 448   6   9.522623   7.524188   0.781976   0.000048   0.028420   0.001699
 449   8   9.926418   7.625694   1.054647   0.000079   0.028420   0.002784
 450  19   9.276432   7.675139   0.685926   0.000032   0.028420   0.001133
 451   6   7.783407   9.302260   2.954098   0.000060   0.028420   0.002103
 452   8   8.209682   9.380784   3.198693   0.000113   0.028420   0.003982
 453  19   7.692867   9.294083   2.663655   0.000019   0.028420   0.000682
 454   6  10.131038   7.083360   0.880971   0.000051   0.024756   0.002041
 455   8  10.565751   7.219372   1.081286   0.000027   0.024756   0.001101
 456  23  10.857703   7.140621   1.101247  -0.000006   0.024756  -0.000260
 457   6   7.845464   9.388981   3.748662   0.000061   0.025239   0.002399
 458   8   8.254708   9.550599   3.981069   0.000030   0.025239   0.001183
 459  24   8.350372   9.665464   4.244874  -0.000010   0.025239  -0.000388
 460   8   8.332583   9.536966   3.595643   0.000198   0.079915   0.002479
 461   6   7.682397   9.367969   3.337102   0.000194   0.079915   0.002432
 462   8  10.370487   7.424237   1.065202   0.000185   0.070935   0.002615
 463   6   9.734480   7.327820   0.745217   0.000172   0.070935   0.002423
 464   6   5.965785   9.014426   3.236855   0.000112   0.042244   0.002658
 465  15   5.412361   9.026773   3.767871   0.000131   0.042244   0.003095
 466  19   5.995082   9.013017   2.933924   0.000023   0.042244   0.000545
 467   6   6.903612   9.165046   4.416435   0.000288   0.168422   0.001712
 468  15   6.281213   9.170399   4.872724   0.000284   0.168422   0.001687
 469  24   7.477459   9.361138   4.880351   0.000054   0.168422   0.000323
 470  15   5.450686   9.289085   4.578540  -0.000146   0.203875  -0.000715
 471   6   6.208615   9.176714   3.712163   0.000805   0.286952   0.002807
 472   6   8.750425   6.195899  -0.231202   0.000155   0.045906   0.003374
 473  19   8.551134   6.425079  -0.254013   0.000020   0.045906   0.000435
 474  21   8.838388   5.516389  -0.572574   0.000170   0.045906   0.003705
 475  19   6.695396   9.223069   2.499144  -0.000223   0.121713  -0.001831
 476   6   7.008305   9.223520   2.896069  -0.000048   0.148699  -0.000325
 477  19   8.818482   7.407084   0.190968  -0.000228   0.118742  -0.001922
 478   6   8.998821   6.938783   0.168214  -0.000011   0.145070  -0.000079
 479   6  10.049820   5.902944   0.456629   0.000273   0.164488   0.001662
 480  21  10.048136   5.236232   0.072368   0.000202   0.164488   0.001230
 481  23  10.733502   5.994484   0.786148   0.000117   0.164488   0.000714
 482  21   9.365813   5.081801  -0.725910  -0.000194   0.200432  -0.000970
 483   6   9.432610   6.005661  -0.037960   0.000739   0.282141   0.002620
 484  23  11.122933   6.706613   0.966085  -0.000215   0.155771  -0.001379
 485   6  10.042816   6.737490   0.598331   0.000466   0.219434   0.002124
 486  24   8.239094   9.752783   4.572995  -0.000135   0.138365  -0.000978
 487   6   7.355036   9.380576   3.961380   0.000404   0.194960   0.002071
 488   7  11.250387   2.215533   2.920847   0.000143   0.072807   0.001963
 489   8  11.597116   2.832182   3.384299   0.000288   0.072807   0.003958
 490  20  11.193715   2.011658   3.141618   0.000027   0.072807   0.000375
 491   7  11.590158   3.162494   2.362761   0.000250   0.063171   0.003964
 492   8  12.078614   3.698108   2.797014   0.000151   0.063171   0.002392
 493  23  12.228114   3.921583   2.654296   0.000035   0.063171   0.000552
 494   8  12.029580   3.265323   3.209147   0.000675   0.215005   0.003141
 495   7  11.464887   2.520502   2.430823   0.000627   0.215005   0.002917
 496   7   5.471990   4.739918  -0.812777   0.000111   0.244521   0.000455
 497  11   4.351921   5.371030  -0.804253  -0.000055   0.244521  -0.000226
 498  18   4.801279   4.470717  -1.080942  -0.000160   0.244521  -0.000655
 499   7   5.934154   5.482652  -0.510615   0.000013   0.260966   0.000048
 500  11   4.807601   6.102838  -0.485989  -0.000278   0.260966  -0.001066
 501  19   5.919049   6.230043  -0.363619  -0.000395   0.260966  -0.001512
 502  11   4.232884   6.066013  -0.944518  -0.000121   0.064851  -0.001870
 503   7   5.864564   5.109554  -0.961625   0.000272   0.095927   0.002832
 504   7   7.815049  -0.854553   2.561804   0.000110   0.052147   0.002104
 505  17   7.106326  -1.129373   2.596615   0.000163   0.052147   0.003127
 506  20   8.007433  -0.815719   2.794356  -0.000009   0.052147  -0.000180
 507  17   6.647871  -1.438888   1.960285  -0.000071   0.196894  -0.000359
 508   7   7.691607  -0.968243   2.023637   0.000747   0.277243   0.002694
 509   7   6.569099   3.789145  -1.488099   0.000102   0.047302   0.002151
 510  18   5.866497   3.518442  -1.598241   0.000166   0.047302   0.003506
 511  21   6.842530   3.700552  -1.585263  -0.000009   0.047302  -0.000199
 512  18   5.158018   3.886862  -1.538338  -0.000122   0.178466  -0.000681
 513   7   6.250819   4.175196  -1.356965   0.000633   0.251342   0.002520
 514   7   7.592347   5.256399  -0.918823   0.000124   0.039217   0.003167
 515  19   7.497913   5.949739  -0.648283   0.000140   0.039217   0.003559
 516  21   7.801920   5.078829  -1.046643   0.000004   0.039217   0.000100
 517  19   6.984772   6.414532  -0.580456  -0.000228   0.198372  -0.001150
 518   7   6.867449   5.327341  -0.876527   0.000593   0.279494   0.002123
 519  20   8.666682  -0.762302   2.730199  -0.000073   0.068546  -0.001068
 520  20   9.604544  -0.360828   2.311254  -0.000145   0.151787  -0.000956
 521  20  10.597826   0.528226   2.362834  -0.000061   0.151787  -0.000399
 522  20  11.074115   1.392512   2.855214  -0.000033   0.068546  -0.000482
 523   7   8.821668  -0.609401   2.175423  -0.000019   0.150654  -0.000126
 524   7  10.075884   0.140643   1.842750   0.000252   0.150654   0.001673
 525   7  10.937465   1.284378   2.285294   0.000175   0.150654   0.001163
 526   7  11.170052   3.511572   0.873647   0.000157   0.071784   0.002184
 527  21  11.062684   3.503382   0.589162   0.000048   0.071784   0.000673
 528  23  11.663135   4.283298   1.347832   0.000177   0.071784   0.002471
 529  21   7.516240   4.190476  -1.569859  -0.000250   0.114949  -0.002172
 530   7   7.321151   4.549884  -1.286753  -0.000060   0.140436  -0.000425
 531  21  10.966702   2.858966   0.158331  -0.000035   0.068457  -0.000508
 532  21  10.624811   1.827418  -0.032845  -0.000079   0.151663  -0.000520
 533  21   9.700708   0.994459  -0.516073  -0.000107   0.151663  -0.000708
 534  21   8.511154   0.960563  -1.120317  -0.000244   0.151663  -0.001608
 535   7  10.933250   2.378857   0.509076   0.000169   0.150376   0.001122
 536   7  10.217735   1.118568   0.124378   0.000250   0.150376   0.001659
 537   7   8.965124   0.604847  -0.520088   0.000074   0.150376   0.000489
 538   7   7.893685   0.813348  -1.060239   0.000072   0.083635   0.000867
 539  23  12.353465   4.223127   2.162595  -0.000088   0.344100  -0.000256
 540   7  11.480501   3.198623   1.414046   0.001270   0.489980   0.002592
 541   8   8.888621   5.442117   8.291366   0.000164   0.083108   0.001972
 542  16   8.022557   5.086111   8.389725   0.000129   0.083108   0.001557
 543  22   9.034466   5.173190   8.313425  -0.000086   0.083108  -0.001034
 544  16   7.368670   5.392853   8.619438  -0.000126   0.259923  -0.000485
 545   8   8.515489   6.158361   8.359788   0.001151   0.367022   0.003136
 546  19   7.898962   9.280110   2.209503  -0.000101   0.218573  -0.000463
 547  19   8.769643   8.508648   1.151983  -0.001011   0.450497  -0.002245
 548   8   9.118553   9.164176   2.467086   0.001154   0.595873   0.001936
 549   8  10.018819   8.135714   1.315521   0.000905   0.307929   0.002938
 550   8  11.573658   2.766900   4.946166   0.000149   0.083477   0.001782
 551  20  11.066041   2.051362   4.593691   0.000113   0.083477   0.001353
 552  22  11.501192   2.715396   5.239738  -0.000070   0.083477  -0.000835
 553  20  11.164393   1.732739   3.656201  -0.000112   0.303009  -0.000370
 554   8  11.823135   2.802948   4.301944   0.001379   0.427847   0.003222
 555  22  12.003065   3.085166   5.648650  -0.000007   0.072188  -0.000099
 556  22  12.546453   3.890094   6.276570  -0.000198   0.161580  -0.001225
 557  22  12.462256   4.878663   7.257981  -0.000285   0.161580  -0.001763
 558  22  11.536404   5.487146   8.106551  -0.000268   0.161580  -0.001662
 559  22  10.182729   5.443567   8.442990  -0.000214   0.161580  -0.001326
 560   8  12.383334   3.541055   5.506005   0.000173   0.157048   0.001103
 561   8  12.806880   4.682207   6.493229   0.000028   0.157048   0.000178
 562   8  12.205102   5.633717   7.583515  -0.000049   0.157048  -0.000311
 563   8  10.846980   5.970282   8.289532   0.000115   0.157048   0.000731
 564   8   9.598078   5.739144   8.414931   0.000102   0.088193   0.001160
 565  23  11.289102   7.429191   1.239025  -0.000072   0.068873  -0.001040
 566  23  11.785848   8.164769   1.904401  -0.000220   0.152754  -0.001439
 567  23  12.598616   8.415785   2.941630  -0.000196   0.152754  -0.001284
 568  23  13.360342   7.815847   3.868610  -0.000197   0.152754  -0.001289
 569  23  13.758250   6.611301   4.304707  -0.000280   0.152754  -0.001831
 570  23  13.628951   5.296752   4.070853  -0.000163   0.152754  -0.001065
 571  23  13.025538   4.411977   3.263073  -0.000259   0.152754  -0.001693
 572   8  11.081001   7.899847   1.542039  -0.000106   0.151134  -0.000701
 573   8  11.877259   8.641003   2.584949   0.000091   0.151134   0.000604
 574   8  12.810880   8.434104   3.749657   0.000083   0.151134   0.000552
 575   8  13.498504   7.364107   4.557915  -0.000026   0.151134  -0.000173
 576   8  13.657780   5.870370   4.677839  -0.000003   0.151134  -0.000020
 577   8  13.223307   4.566246   4.060185   0.000083   0.151134   0.000551
 578   8  12.579493   3.955932   3.216345   0.000147   0.084144   0.001747
 579  24   8.904835   8.153876   7.900580  -0.000044   0.068261  -0.000640
 580  24   9.998973   8.195935   8.001040  -0.000177   0.151085  -0.001171
 581  24  11.182993   8.546872   7.506648  -0.000257   0.151085  -0.001702
 582  24  11.768532   9.125707   6.461862  -0.000283   0.151085  -0.001874
 583  24  11.519633   9.699186   5.287700  -0.000129   0.151085  -0.000856
 584  24  10.536597  10.036212   4.457317  -0.000212   0.151085  -0.001406
 585  24   9.215558  10.000974   4.305333  -0.000284   0.151085  -0.001883
 586   8   9.306698   7.738925   8.042329   0.000101   0.150087   0.000676
 587   8  10.781358   7.935925   7.900655   0.000075   0.150087   0.000497
 588   8  11.829604   8.486701   6.988881  -0.000060   0.150087  -0.000401
 589   8  12.029022   9.169305   5.674428  -0.000024   0.150087  -0.000161
 590   8  11.299252   9.708667   4.486981   0.000093   0.150087   0.000616
 591   8   9.934371   9.887440   3.905050  -0.000043   0.150087  -0.000287
 592   8   8.731092   9.747781   3.979011   0.000010   0.083395   0.000123
 593   9   0.855788   6.886536   6.068758  -0.000130   0.345761  -0.000377
 594  13   1.025135   6.160712   6.868069  -0.000045   0.345761  -0.000131
 595  15   1.832619   7.038462   6.520183   0.000363   0.345761   0.001049
 596  13   0.248912   5.958977   7.258299  -0.000133   0.242599  -0.000547
 597  13  -0.684219   5.452965   7.008376  -0.000315   0.485037  -0.000650
 598  13  -1.322384   4.722442   6.510052   0.000352   0.242599   0.001450
 599   9  -0.345871   6.772400   6.018096  -0.000497   0.485037  -0.001025
 600   9  -1.326459   6.000724   5.551143  -0.000070   0.485037  -0.000144
 601  15   2.531431   9.001733   5.109334  -0.000064   0.288948  -0.000221
 602  15   2.160690   8.288847   6.110571  -0.000501   0.578056  -0.000867
 603   9   1.017494   8.520123   4.838739   0.000000   0.578056   0.000000
 604   9   0.694573   7.707751   5.778901  -0.000038   0.288948  -0.000131
 605  12  -1.792328   1.626374   3.653377   0.000241   0.255570   0.000941
 606  12  -1.285672   0.873455   2.962233  -0.000450   0.511010  -0.000881
 607  12  -0.398602   0.377158   2.444485  -0.000029   0.255570  -0.000114
 608  10  -1.758468   2.320823   2.202456   0.000016   0.511010   0.000031
 609  10  -0.888990   1.541497   1.448287  -0.000487   0.511010  -0.000954
 610  18   1.714609   1.482522  -0.902337   0.000263   0.313321   0.000841
 611  18   1.922938   2.383100  -1.509636  -0.000062   0.313321  -0.000199
 612  10   0.544990   2.517341  -0.776135  -0.000289   0.627631  -0.000460
 613  18   3.490513   4.079623  -1.814452  -0.000037   0.253133  -0.000145
 614  18   4.292388   4.379464  -1.552706   0.000158   0.253133   0.000625
 615  11   3.299370   5.556354  -1.389623  -0.000040   0.506290  -0.000080
 616  19   5.877802   6.916031  -0.539379   0.000038   0.271742   0.000139
 617  19   5.668395   7.981384  -0.087240  -0.000743   0.543291  -0.001368
 618  19   5.343823   8.731040   1.086048  -0.000486   0.543291  -0.000894
 619  11   4.242856   7.167707  -0.718924  -0.001176   0.543291  -0.002165
 620  11   3.949158   8.297830   0.106000  -0.000992   0.543291  -0.001826
 621  11   3.683948   8.675499   1.187798   0.000156   0.271742   0.000575
 622  17   2.547962  -1.523551   2.740827   0.000213   0.463235   0.000461
 623  12   1.096692  -1.140510   3.361853   0.000458   0.463235   0.000989
 624  15   2.308751   7.254797   7.241486   0.000535   0.317758   0.001683
 625  13   1.255549   5.965140   7.856434   0.000090   0.317758   0.000285
 626  14   6.048197   1.210383   6.785653  -0.000389   0.386248  -0.001006
 627  16   6.695368   1.955501   6.824830  -0.000615   0.386248  -0.001592
 628  20   7.287693   1.393183   5.924945   0.000002   0.386248   0.000004
 629  16   5.397001   2.917629   8.900597  -0.000206   0.269856  -0.000764
 630  16   6.223720   2.296511   8.101618  -0.001133   0.540304  -0.002097
 631  14   4.901698   1.555245   8.625285  -0.000562   0.540304  -0.001040
 632  14   5.661819   0.984060   7.728857  -0.000425   0.269856  -0.001575
 633  14   5.554642  -0.220440   5.522611   0.000152   0.334434   0.000454
 634  17   5.959068  -0.526754   4.577396  -0.000039   0.334434  -0.000116
 635  20   6.828074  -0.080891   4.709983   0.000396   0.334434   0.001183
 636  17   5.430487  -1.176414   4.633089   0.000134   0.294645   0.000454
 637  17   4.558184  -1.657954   4.444619  -0.000042   0.294645  -0.000142
 638  14   4.509297  -1.087074   5.940351  -0.000131   0.589587  -0.000222
 639  20   7.786564   0.572021   5.724742   0.000298   0.316091   0.000941
 640  20   7.533594  -0.058045   5.215434   0.000396   0.316091   0.001251
 641  14   5.793817   0.052354   6.650204  -0.000239   0.630451  -0.000379
 642  19   5.632599   9.033655   2.554470   0.000352   0.236131   0.001489
 643  15   4.899319   9.168385   3.809788   0.000418   0.236131   0.001770
 644  24   7.672534   9.766448   5.392440   0.000272   0.310159   0.000877
 645  24   7.720895   9.411593   6.591070  -0.000104   0.619881  -0.000167
 646  15   5.971230   9.394509   5.852779   0.000424   0.619881   0.000684
 647  15   6.038039   8.924883   7.010346   0.000609   0.310159   0.001963
 648  16   7.881094   2.592211   6.840273  -0.000195   0.311532  -0.000625
 649  20   8.524137   1.950254   6.035743  -0.000106   0.311532  -0.000339
 650  22   8.902002   2.640693   6.708644  -0.000505   0.311532  -0.001621
 651  20   8.264141   1.294018   5.961342   0.000055   0.139227   0.000394
 652  16   7.291071   2.169089   7.090757   0.000128   0.139227   0.000919
 653  22   9.119064   4.771628   8.494432   0.000263   0.234201   0.001121
 654  22   9.153143   3.715931   8.167369  -0.000463   0.468383  -0.000989
 655  22   9.111289   2.875156   7.450449  -0.000172   0.234201  -0.000735
 656  16   7.703032   4.247544   8.612848  -0.000430   0.468383  -0.000918
 657  16   7.698181   3.064325   7.961502  -0.000605   0.468383  -0.001291
 658  20   7.667044  -0.568906   4.291665   0.000201   0.306993   0.000654
 659  20   8.033355  -0.915446   3.277059   0.000389   0.306993   0.001268
 660  17   6.575719  -1.213235   3.485118  -0.000024   0.615463  -0.000039
 661  21   7.198652   2.220289  -1.925172   0.000414   0.316187   0.001310
 662  21   7.009528   3.350032  -1.884343   0.000424   0.316187   0.001342
 663  18   5.705472   2.552219  -1.937805   0.000237   0.633879   0.000374
 664  21   8.321601   5.175863  -1.120207   0.000507   0.377281   0.001344
 665  19   8.095951   6.490582  -0.545256   0.000544   0.377281   0.001441
 666  22   9.644164   2.344688   6.784792  -0.000175   0.233934  -0.000747
 667  22  10.635056   2.241026   6.318291  -0.000430   0.467833  -0.000919
 668  22  11.440869   2.459025   5.601787   0.000318   0.233934   0.001360
 669  20   9.494835   1.272160   5.716720  -0.000569   0.467833  -0.001216
 670  20  10.615863   1.343498   4.978602  -0.000439   0.467833  -0.000937
 671  23  12.139567   4.767204   1.211063   0.000220   0.271225   0.000809
 672  23  11.617029   5.626334   0.800680   0.000172   0.541866   0.000317
 673  21  10.976120   4.008523   0.008169   0.000668   0.541866   0.001233
 674  21  10.392851   4.858351  -0.334112   0.000432   0.271225   0.001593
 =====================================================

              5551409  WORDS OF DYNAMIC MEMORY USED
 EXECUTION OF GAMESS TERMINATED NORMALLY Tue Nov 22 18:47:50 2016
 DDI: 263640 bytes (0.3 MB / 0 MWords) used by master data server.

 ----------------------------------------
 CPU timing information for all processes
 ========================================
 0: 2428.444 + 0.848 = 2429.292
 ----------------------------------------
 ddikick.x: exited gracefully.
