----- GAMESS execution script -----

          ******************************************************
          *         GAMESS VERSION =  5 DEC 2014 (R1)          *
          *             FROM IOWA STATE UNIVERSITY             *
          * M.W.SCHMIDT, K.K.BALDRIDGE, J.A.BOATZ, S.T.ELBERT, *
          *   M.S.GORDON, J.H.JENSEN, S.KOSEKI, N.MATSUNAGA,   *
          *          K.A.NGUYEN, S.J.SU, T.L.WINDUS,           *
          *       TOGETHER WITH M.DUPUIS, J.A.MONTGOMERY       *
          *         J.COMPUT.CHEM.  14, 1347-1363(1993)        *
          **************** 64 BIT LINUX VERSION ****************

 EXECUTION OF GAMESS BEGUN Tue Nov 22 15:47:17 2016

            ECHO OF THE FIRST FEW INPUT CARDS -
 INPUT CARD>! SELECT RESTRICTED HARTREE-FOCK AS DEFAULT                                     
 INPUT CARD>$contrl scftyp=rhf $end                                                         
 INPUT CARD>                                                                                
 INPUT CARD>! THEORY: HF OR DFT                                                             
 INPUT CARD> $contrl mplevl=0 $end                                                          
 INPUT CARD>                                                                                
 INPUT CARD> $system timlim=10000 mwords=20 $end                                            
 INPUT CARD> $SCF DIRSCF=.TRUE. $end                                                        
 INPUT CARD>                                                                                
 INPUT CARD>                                                                                
 INPUT CARD>! BASIS SETS                                                                    
 INPUT CARD>! 6-311G(d,p)                                                                   
 INPUT CARD> $BASIS GBASIS=N311 NGAUSS=6 NDFUNC=1 NPFUNC=1 $END                             
 INPUT CARD>                                                                                
 INPUT CARD>! One of the following                                                          
 INPUT CARD> $guess guess=HUCKEL $end                                                       
 INPUT CARD>                                                                                
 INPUT CARD> $statpt projct=.FALSE. $end                                                    
 INPUT CARD> $STATPT IFREEZ(1)=1,2,3 $END                                                   
 INPUT CARD>                                                                                
 INPUT CARD>! Optimize the geometry with COSMO effects                                      
 INPUT CARD> $statpt opttol=0.0005 nstep=50 $end                                            
 INPUT CARD> $contrl nzvar=1 $end                                                           
 INPUT CARD> $zmat dlc=.t. auto=.t. $end                                                    
 INPUT CARD> $contrl runtyp=OPTIMIZE maxit=200 $end                                         
 INPUT CARD>                                                                                
 INPUT CARD>! Run COSMO on perfect conductor                                                
 INPUT CARD> $COSGMS PRFCND=.TRUE. $end                                                     
 INPUT CARD>                                                                                
 INPUT CARD>! Specifying RSOLV                                                              
 INPUT CARD> $COSGMS COSRAD = 1.4 $end                                                      
 INPUT CARD>                                                                                
 INPUT CARD>! available memory                                                              
 INPUT CARD> $SYSTEM MWORDS=40 $END                                                         
 INPUT CARD>                                                                                
 INPUT CARD> $DATA                                                                          
 INPUT CARD>http://cactus.nci.nih.gov/chemical/structure/1,1,1,2-TETRACHLOROETHANE/file?form
 INPUT CARD>C1                                                                              
 INPUT CARD>Cl    17.0     -0.2003000000   -1.4721000000   -0.9225000000                    
 INPUT CARD>C      6.0     -0.3938000000    0.0000000000    0.1003000000                    
 INPUT CARD>C      6.0      0.6695000000    0.0000000000    1.2005000000                    
 INPUT CARD>Cl    17.0      2.3095000000    0.0000000000    0.4513000000                    
 INPUT CARD>Cl    17.0     -0.2003000000    1.4721000000   -0.9225000000                    
 INPUT CARD>Cl    17.0     -2.0337000000    0.0000000000    0.8496000000                    
 INPUT CARD>H      1.0      0.5526000000    0.8900000000    1.8188000000                    
 INPUT CARD>H      1.0      0.5526000000   -0.8900000000    1.8188000000                    
 INPUT CARD> $END                                                                           
 INPUT CARD>                                                                                
 INPUT CARD>                                                                                
   40000000 WORDS OF MEMORY AVAILABLE

     BASIS OPTIONS
     -------------
     GBASIS=N311         IGAUSS=       6      POLAR=POPN311 
     NDFUNC=       1     NFFUNC=       0     DIFFSP=       F
     NPFUNC=       1      DIFFS=       F     BASNAM=        


     RUN TITLE
     ---------
 http://cactus.nci.nih.gov/chemical/structure/1,1,1,2-TETRACHLOROETHANE/file?form

 THE POINT GROUP OF THE MOLECULE IS C1      
 THE ORDER OF THE PRINCIPAL AXIS IS     0

 ATOM      ATOMIC                      COORDINATES (BOHR)
           CHARGE         X                   Y                   Z
 CL         17.0    -0.3785121153       -2.7818656265       -1.7432722237
 C           6.0    -0.7441740940        0.0000000000        0.1895395166
 C           6.0     1.2651715488        0.0000000000        2.2686160483
 CL         17.0     4.3643221686        0.0000000000        0.8528333383
 CL         17.0    -0.3785121153        2.7818656265       -1.7432722237
 CL         17.0    -3.8431357412        0.0000000000        1.6055111992
 H           1.0     1.0442625808        1.6818561291        3.4370336265
 H           1.0     1.0442625808       -1.6818561291        3.4370336265

          INTERNUCLEAR DISTANCES (ANGS.)




     $CONTRL OPTIONS
     ---------------
 SCFTYP=RHF          RUNTYP=OPTIMIZE     EXETYP=RUN     
 MPLEVL=       0     CITYP =NONE         CCTYP =NONE         VBTYP =NONE    
 DFTTYP=NONE         TDDFT =NONE    
 MULT  =       1     ICHARG=       0     NZVAR =       1     COORD =UNIQUE  
 PP    =NONE         RELWFN=NONE         LOCAL =NONE         NUMGRD=       F
 ISPHER=      -1     NOSYM =       0     MAXIT =     200     UNITS =ANGS    
 PLTORB=       F     MOLPLT=       F     AIMPAC=       F     FRIEND=        
 NPRINT=       7     IREST =       0     GEOM  =INPUT   
 NORMF =       0     NORMP =       0     ITOL  =      20     ICUT  =       9
 INTTYP=BEST         GRDTYP=BEST         QMTTOL= 1.0E-06

     $SYSTEM OPTIONS
     ---------------
  REPLICATED MEMORY=    40000000 WORDS (ON EVERY NODE).
 DISTRIBUTED MEMDDI=           0 MILLION WORDS IN AGGREGATE,
 MEMDDI DISTRIBUTED OVER   1 PROCESSORS IS           0 WORDS/PROCESSOR.
 TOTAL MEMORY REQUESTED ON EACH PROCESSOR=    40000000 WORDS.
 TIMLIM=       10000.00 MINUTES, OR       6.9 DAYS.
 PARALL= F  BALTYP=  DLB     KDIAG=    0  COREFL= F
 MXSEQ2=     300 MXSEQ3=     150  mem10=         0

     $COSGMS OPTIONS
     ---------------
     EPSI  =   INFTY     NSPA  =      92     COSRAD=    1.40
     DISEX =   10.00     OUTCHG=DBLCAV       COSBUG=       F
     COSWRT=       F     DCOSMO=       F

     SYMMETRY COORDINATES WILL NOT BE USED FOR 
     THE COSMO CALCULATION, EVEN IF SPECIFIED:
         -- SWITCHING TO C1 POINT GROUP --


     DEFINITION OF CAVITY
     ---------------------------
     ATOM         COORDINATES           RADIUS 
     1   -0.3785   -2.7819   -1.7433    2.0500
     2   -0.7442    0.0000    0.1895    2.0000
     3    1.2652    0.0000    2.2686    2.0000
     4    4.3643    0.0000    0.8528    2.0500
     5   -0.3785    2.7819   -1.7433    2.0500
     6   -3.8431    0.0000    1.6055    2.0500
     7    1.0443    1.6819    3.4370    1.3000
     8    1.0443   -1.6819    3.4370    1.3000

          ----------------
          PROPERTIES INPUT
          ----------------

     MOMENTS            FIELD           POTENTIAL          DENSITY
 IEMOM =       1   IEFLD =       0   IEPOT =       0   IEDEN =       0
 WHERE =COMASS     WHERE =NUCLEI     WHERE =NUCLEI     WHERE =NUCLEI  
 OUTPUT=BOTH       OUTPUT=BOTH       OUTPUT=BOTH       OUTPUT=BOTH    
 IEMINT=       0   IEFINT=       0                     IEDINT=       0
                                                       MORB  =       0
          EXTRAPOLATION IN EFFECT
          SOSCF IN EFFECT
 ORBITAL PRINTING OPTION: NPREO=     1   158     2     1

     -------------------------------
     INTEGRAL TRANSFORMATION OPTIONS
     -------------------------------
     NWORD  =            0
     CUTOFF = 1.0E-09     MPTRAN =       0
     DIRTRF =       T     AOINTS =DUP     

          ----------------------
          INTEGRAL INPUT OPTIONS
          ----------------------
 NOPK  =       1 NORDER=       0 SCHWRZ=       T


 -----------------------------------------------
  STATISTICS ON AUTOMATIC COORDINATE GENERATION 
 -----------------------------------------------
  NUMBER OF USER SPECIFIED BONDS                             0
  NUMBER OF BONDS                                            7
  NUMBER OF ANGLES                                          12
  NUMBER OF TORSIONS                                         9
  NUMBER OF EXTRA COORD.                                     0
  NUMBER OF EXTRA COORD. FOR CONSTRAINTS                     0
  NUMBER OF CONSTRAINED COORD.                               0

  TOTAL NUMBER OF PRIMITIVES                                28
 -----------------------------------------------

   --- ENCODED Z MATRIX ---
 COORD  TYPE   I   J   K   L   M   N
    1      1    1   2
    2      1    2   3
    3      1    2   5
    4      1    2   6
    5      1    3   7
    6      1    3   8
    7      1    3   4
    8      2    1   2   6
    9      2    1   2   3
   10      2    1   2   5
   11      2    2   3   7
   12      2    2   3   4
   13      2    2   3   8
   14      2    3   2   6
   15      2    3   2   5
   16      2    4   3   8
   17      2    4   3   7
   18      2    5   2   6
   19      2    7   3   8
   20      3    1   2   3   4
   21      3    1   2   3   7
   22      3    1   2   3   8
   23      3    4   3   2   6
   24      3    4   3   2   5
   25      3    5   2   3   8
   26      3    5   2   3   7
   27      3    6   2   3   8
   28      3    6   2   3   7

          INDEP./SYM. INTERNAL COORDINATES
          --------------------------------
 CRD  1=  -0.1602 (  2) -0.3379 (  9)  0.2471 ( 10)  0.1329 ( 11) -0.5947 ( 12)
           0.1329 ( 13)  0.4306 ( 14) -0.3379 ( 15)  0.1846 ( 16)  0.1846 ( 17)
          -0.1123 ( 21)  0.1123 ( 25)
 CRD  2=  -0.2420 (  8)  0.5943 (  9) -0.2519 ( 11)  0.2519 ( 13) -0.5943 ( 15)
           0.2420 ( 18)  0.1359 ( 23)
 CRD  3=  -0.4740 (  2)  0.3485 (  8) -0.1437 (  9)  0.1591 ( 10) -0.1801 ( 11)
          -0.1801 ( 13) -0.5687 ( 14) -0.1437 ( 15)  0.1431 ( 16)  0.1431 ( 17)
           0.3485 ( 18)  0.1502 ( 19)
 CRD  4=  -0.1064 (  2)  0.1112 (  4) -0.1059 (  5) -0.1059 (  6)  0.1117 (  7)
          -0.3073 (  9)  0.4161 ( 10) -0.1989 ( 11)  0.5328 ( 12) -0.1989 ( 13)
           0.3132 ( 14) -0.3073 ( 15) -0.1582 ( 16) -0.1582 ( 17)  0.1814 ( 19)
 CRD  5=   0.1408 (  5) -0.1408 (  6) -0.2236 (  8)  0.1659 (  9)  0.5444 ( 11)
          -0.5444 ( 13) -0.1659 ( 15)  0.2663 ( 16) -0.2663 ( 17)  0.2236 ( 18)
 CRD  6=  -0.1486 (  1)  0.1486 (  3)  0.2021 (  5) -0.2021 (  6) -0.1916 (  8)
          -0.2532 ( 16)  0.2532 ( 17)  0.1916 ( 18) -0.3324 ( 20) -0.5557 ( 23)
          -0.3324 ( 24) -0.2602 ( 27) -0.2602 ( 28)
 CRD  7=  -0.2466 (  1) -0.2990 (  2) -0.2466 (  3) -0.3920 (  4)  0.1680 (  7)
          -0.2501 (  8)  0.1955 (  9) -0.2778 ( 11) -0.1062 ( 12) -0.2778 ( 13)
           0.1818 ( 14)  0.1955 ( 15)  0.2066 ( 16)  0.2066 ( 17) -0.2501 ( 18)
           0.2487 ( 19)
 CRD  8=  -0.3418 (  1) -0.1046 (  2) -0.3418 (  3)  0.4060 (  4)  0.1271 (  8)
          -0.3763 ( 10) -0.1031 ( 11)  0.1029 ( 12) -0.1031 ( 13)  0.1404 ( 14)
           0.1271 ( 18)  0.1277 ( 19) -0.2360 ( 20) -0.2511 ( 21) -0.2209 ( 22)
           0.2360 ( 24)  0.2511 ( 25)  0.2209 ( 26)
 CRD  9=  -0.4181 (  1)  0.4181 (  3) -0.2201 (  5)  0.2201 (  6) -0.2393 (  8)
          -0.1364 ( 11)  0.1364 ( 13)  0.2393 ( 18)  0.3030 ( 20)  0.1892 ( 21)
           0.1892 ( 22)  0.3030 ( 24)  0.1892 ( 25)  0.1892 ( 26) -0.1627 ( 27)
          -0.1627 ( 28)
 CRD 10=   0.2270 (  1)  0.2803 (  2)  0.2270 (  3)  0.2937 (  4)  0.4148 (  5)
           0.4148 (  6)  0.5175 (  7) -0.1666 ( 11) -0.1666 ( 13)  0.1253 ( 16)
           0.1253 ( 17)  0.1444 ( 19)
 CRD 11=   0.4038 (  5) -0.4038 (  6) -0.2233 ( 16)  0.2233 ( 17)  0.3085 ( 21)
           0.3085 ( 22)  0.3085 ( 25)  0.3085 ( 26)  0.2938 ( 27)  0.2938 ( 28)
 CRD 12=   0.3870 (  5)  0.3870 (  6) -0.5918 (  7) -0.1542 ( 16) -0.1542 ( 17)
           0.3246 ( 19) -0.1897 ( 21)  0.1640 ( 22)  0.1897 ( 25) -0.1640 ( 26)
           0.1768 ( 27) -0.1768 ( 28)
 CRD 13=   0.3794 (  1) -0.1497 (  2)  0.3794 (  3)  0.4144 (  4) -0.2542 (  5)
          -0.2542 (  6) -0.2902 (  7) -0.1475 (  8)  0.1451 (  9) -0.1391 ( 10)
          -0.2008 ( 11) -0.2008 ( 13)  0.1439 ( 14)  0.1451 ( 15)  0.1422 ( 16)
           0.1422 ( 17) -0.1475 ( 18)  0.2169 ( 19)
 CRD 14=  -0.4832 (  1)  0.4832 (  3)  0.3292 (  5) -0.3292 (  6)  0.1644 (  8)
           0.1539 ( 16) -0.1539 ( 17) -0.1644 ( 18) -0.1859 ( 21) -0.1859 ( 22)
           0.2437 ( 23) -0.1859 ( 25) -0.1859 ( 26)
 CRD 15=  -0.3429 (  1)  0.3166 (  2) -0.3429 (  3)  0.4842 (  4) -0.2926 (  7)
           0.2330 ( 10) -0.1289 ( 12) -0.1684 ( 14)  0.1531 ( 16)  0.1531 ( 17)
           0.1568 ( 20)  0.2303 ( 21) -0.1568 ( 24) -0.2303 ( 25)
 CRD 16=  -0.6606 (  2)  0.3765 (  4)  0.2332 (  5)  0.2332 (  6) -0.1239 (  8)
           0.1083 (  9)  0.2171 ( 11)  0.2171 ( 13)  0.1083 ( 15) -0.1130 ( 16)
          -0.1130 ( 17) -0.1239 ( 18) -0.2901 ( 19)  0.1140 ( 21) -0.1140 ( 25)
 CRD 17=   0.2519 (  1) -0.2519 (  3)  0.3456 (  5) -0.3456 (  6) -0.1980 (  9)
          -0.2287 ( 11)  0.2287 ( 13)  0.1980 ( 15)  0.1702 ( 16) -0.1702 ( 17)
           0.2707 ( 20)  0.2707 ( 24) -0.3183 ( 27) -0.3183 ( 28)
 CRD 18=   0.1762 (  4) -0.1896 (  5) -0.1896 (  6)  0.3906 (  7)  0.1197 ( 11)
          -0.2027 ( 12)  0.1197 ( 13) -0.1881 ( 14) -0.1675 ( 16) -0.1675 ( 17)
           0.2983 ( 19)  0.1005 ( 20) -0.1555 ( 21)  0.3564 ( 22) -0.1005 ( 24)
           0.1555 ( 25) -0.3564 ( 26)  0.2560 ( 27) -0.2560 ( 28)

 THE DETERMINANT OF THE G MATRIX IS 10**(   -18)


                     --------------------
                     INTERNAL COORDINATES
                     --------------------

                 - - ATOMS - -         COORDINATE      COORDINATE
 NO.   TYPE    I  J  K  L  M  N        (BOHR,RAD)       (ANG,DEG)
 ----------------------------------------------------------------
   1 STRETCH   1  2                     3.4070877       1.8029533
   2 STRETCH   2  3                     2.8913715       1.5300480
   3 STRETCH   2  5                     3.4070877       1.8029533
   4 STRETCH   2  6                     3.4071306       1.8029760
   5 STRETCH   3  7                     2.0597671       1.0899819
   6 STRETCH   3  8                     2.0597671       1.0899819
   7 STRETCH   3  4                     3.4072240       1.8030254
   8 BEND      1  2  6                  1.9106803     109.4739163
   9 BEND      1  2  3                  1.9106336     109.4712423
  10 BEND      1  2  5                  1.9106233     109.4706502
  11 BEND      2  3  7                  1.9106623     109.4728854
  12 BEND      2  3  4                  1.9106218     109.4705673
  13 BEND      2  3  8                  1.9106623     109.4728854
  14 BEND      3  2  6                  1.9105483     109.4663563
  15 BEND      3  2  5                  1.9106336     109.4712423
  16 BEND      4  3  8                  1.9105566     109.4668302
  17 BEND      4  3  7                  1.9105566     109.4668302
  18 BEND      5  2  6                  1.9106803     109.4739163
  19 BEND      7  3  8                  1.9107398     109.4773249
  20 TORSION   1  2  3  4               1.0471917      59.9996640
  21 TORSION   1  2  3  7               3.1415037     179.9949061
  22 TORSION   1  2  3  8              -1.0471204     -59.9955782
  23 TORSION   4  3  2  6               3.1415927     180.0000000
  24 TORSION   4  3  2  5              -1.0471917     -59.9996640
  25 TORSION   5  2  3  8              -3.1415037    -179.9949061
  26 TORSION   5  2  3  7               1.0471204      59.9955782
  27 TORSION   6  2  3  8               1.0472806      60.0047578
  28 TORSION   6  2  3  7              -1.0472806     -60.0047578

     ------------------------------------------
     THE POINT GROUP IS C1 , NAXIS= 1, ORDER= 1
     ------------------------------------------

     DIMENSIONS OF THE SYMMETRY SUBSPACES ARE
 A   =  158

 ..... DONE SETTING UP THE RUN .....
 STEP CPU TIME =     0.03 TOTAL CPU TIME =        0.0 (    0.0 MIN)
 TOTAL WALL CLOCK TIME=        0.3 SECONDS, CPU UTILIZATION IS  10.71%


          -----------------------------
          STATIONARY POINT LOCATION RUN
          -----------------------------

 OBTAINING INITIAL HESSIAN, HESS=GUESS   
 DIAGONAL GUESS HESSIAN IN INTERNAL COORDS IS
     1  0.3313     2  0.3671     3  0.3313     4  0.3312     5  0.3464
     6  0.3464     7  0.3312     8  0.2593     9  0.2538    10  0.2593
    11  0.2241    12  0.2538    13  0.2241    14  0.2538    15  0.2538
    16  0.2286    17  0.2286    18  0.2593    19  0.2034    20  0.2500
    21  0.2500    22  0.2500    23  0.2500    24  0.2500    25  0.2500
    26  0.2500    27  0.2500    28  0.2500
 TRANSFORMING HESSIAN TO SYMMETRY COORDINATES

          PARAMETERS CONTROLLING GEOMETRY SEARCH ARE
          METHOD =QA                  UPHESS =BFGS    
          NNEG   =         0          NFRZ   =         3
          NSTEP  =        50          IFOLOW =         1
          HESS   =GUESS               RESTAR =         F
          IHREP  =         0          HSSEND =         F
          NPRT   =         0          NPUN   =         0
          OPTTOL = 5.000E-04          RMIN   = 1.500E-03
          RMAX   = 1.000E-01          RLIM   = 7.000E-02
          DXMAX  = 3.000E-01          PURIFY =         F
          MOVIE  =         F          TRUPD  =         T
          TRMAX  = 5.000E-01          TRMIN  = 5.000E-02
          ITBMAT =         5          STPT   =         F
          STSTEP = 1.000E-02          PROJCT=          F
          FROZEN COORD(S)=   1   2   3


      ***** EQUILIBRIUM GEOMETRY LOCATED *****
            (SUBJECT TO   3 CONSTRAINT(S))
 COORDINATES OF ALL ATOMS ARE (ANGS)
   ATOM   CHARGE       X              Y              Z
 ------------------------------------------------------------
 CL         17.0  -0.2109200330  -1.4642124624  -0.9056316688
 C           6.0  -0.3878431288  -0.0000159830   0.0857830749
 C           6.0   0.6660191197  -0.0000776624   1.1845123140
 CL         17.0   2.2986644650   0.0000673146   0.4527588257
 CL         17.0  -0.2108476433   1.4641656551  -0.9056064960
 CL         17.0  -2.0035419698   0.0000207517   0.8265989791
 H           1.0   0.5697936191   0.8861856822   1.7885085835
 H           1.0   0.5699480637  -0.8865022391   1.7883155629


                     --------------------
                     INTERNAL COORDINATES
                     --------------------

                 - - ATOMS - -         COORDINATE      COORDINATE
 NO.   TYPE    I  J  K  L  M  N        (BOHR,RAD)       (ANG,DEG)
 ----------------------------------------------------------------
   1 STRETCH   1  2                     3.3582277       1.7770977
   2 STRETCH   2  3                     2.8769994       1.5224426
   3 STRETCH   2  5                     3.3581917       1.7770787
   4 STRETCH   2  6                     3.3588735       1.7774394
   5 STRETCH   3  7                     2.0348879       1.0768164
   6 STRETCH   3  8                     2.0349081       1.0768271
   7 STRETCH   3  4                     3.3809696       1.7891322
   8 BEND      1  2  6                  1.8997306     108.8465434
   9 BEND      1  2  3                  1.9109902     109.4916706
  10 BEND      1  2  5                  1.9366086     110.9594978
  11 BEND      2  3  7                  1.9208104     110.0543275
  12 BEND      2  3  4                  1.9139973     109.6639662
  13 BEND      2  3  8                  1.9208457     110.0563534
  14 BEND      3  2  6                  1.9054451     109.1739602
  15 BEND      3  2  5                  1.9110240     109.4936106
  16 BEND      4  3  8                  1.8868477     108.1084089
  17 BEND      4  3  7                  1.8869254     108.1128625
  18 BEND      5  2  6                  1.8997311     108.8465757
  19 BEND      7  3  8                  1.9337360     110.7949097
  20 TORSION   1  2  3  4               1.0635360      60.9361269
  21 TORSION   1  2  3  7               3.1371520     179.7455717
  22 TORSION   1  2  3  8              -1.0100062     -57.8690898
  23 TORSION   4  3  2  6              -3.1414843    -179.9937937
  24 TORSION   4  3  2  5              -1.0632986     -60.9225214
  25 TORSION   5  2  3  8              -3.1368408    -179.7277380
  26 TORSION   5  2  3  7               1.0103174      57.8869235
  27 TORSION   6  2  3  8               1.0681588      61.2009897
  28 TORSION   6  2  3  7              -1.0678683     -61.1843488

          INTERNUCLEAR DISTANCES (ANGS.)


 =====================================================
   GAMESS/COSab RESULTS
 =====================================================

   Dielectric Constant                  = INFTY
   Basic Grid Size                      =                 1082
   Number of Segments                   =                   92
   Number of Segments located on spheres=                  218
   Number of Segments of the cavity     =                  327
   Solvent Radius (rsolv)               = 1.40
   Outlying Charge Error Method         = double cavity

 =====================================================

  Total solvated Energy (a.u.)          = -1914.9353870118
  Total Energy corrected (a.u.)         = -1914.9355746668

  Outlying charge effect (a.u.)         =    -0.0001876550
  Outlying charge effect (kcal/mol)     =    -0.1177553854

  Dielectric Energy (a.u.)              =    -0.0081022609
  Dielectric energy corr. (a.u.)        =    -0.0082899159

  Sum of polarization charges           =     0.0195322431
  Sum of polarization charges(cor.)     =    -0.0195322431

  Total surface area of cavity (A**2)   =  147.20
  Total volume of cavity (A**3)         =  147.70

 =====================================================
 NPS=                   327
NR.  ATOM  (X, Y, Z)(a.u.)                  CHARGE(e)  AREA(A**2) SIGMA(e/A**2)
   1   1  -0.110940  -5.933919  -3.923886  -0.004097   0.536887  -0.007630
   2   1  -0.341848  -2.327832  -5.559955   0.001662   0.439271   0.003783
   3   1  -3.375541  -3.921273  -3.905180   0.001581   0.439271   0.003600
   4   1  -2.222445  -5.988271  -0.569438   0.001418   0.439271   0.003229
   5   1   1.627443  -5.830028  -0.478399   0.000907   0.341655   0.002653
   6   1   2.875776  -3.315800  -3.707603   0.001469   0.341655   0.004299
   7   1   0.034176  -4.902382  -4.914548  -0.003026   0.585695  -0.005166
   8   1  -0.207826  -3.662478  -5.475587  -0.000196   0.488079  -0.000402
   9   1  -1.419367  -5.500085  -4.260021  -0.003004   0.585695  -0.005130
  10   1  -2.569873  -4.741535  -4.240029  -0.000061   0.488079  -0.000125
  11   1  -0.961597  -6.422193  -2.864541  -0.003308   0.585695  -0.005648
  12   1  -1.497033  -6.479373  -1.574208  -0.000554   0.536887  -0.001031
  13   1   0.632319  -6.343065  -2.786659  -0.003348   0.536887  -0.006236
  14   1   1.349627  -6.223281  -1.640151  -0.000755   0.488079  -0.001546
  15   1   1.275882  -5.439758  -3.960799  -0.003641   0.634503  -0.005739
  16   1   2.361940  -4.507984  -3.798463  -0.000322   0.585695  -0.000549
  17   1  -1.549931  -2.832520  -5.409712   0.001586   0.488079   0.003250
  18   1  -2.630324  -3.339647  -4.825683   0.001787   0.488079   0.003661
  19   1  -3.362276  -4.929042  -2.956114   0.001289   0.488079   0.002642
  20   1  -3.002205  -5.635413  -1.688593   0.001509   0.536887   0.002810
  21   1  -0.913413  -6.271657  -0.143130   0.001717   0.585695   0.002931
  22   1   0.565574  -6.194095  -0.184119   0.001413   0.536887   0.002631
  23   1   2.494136  -5.336949  -1.524827   0.001070   0.439271   0.002435
  24   1   2.908474  -4.594552  -2.566247   0.000658   0.439271   0.001499
  25   1   2.080206  -3.337986  -4.633216   0.000845   0.439271   0.001923
  26   1   1.069004  -2.811791  -5.296318   0.001294   0.536887   0.002409
  27   1  -1.362225  -1.550324  -5.260849   0.002026   0.439271   0.004612
  28   1  -3.276794  -1.656352  -4.054434   0.001235   0.341655   0.003615
  29   1  -3.706126  -2.640682  -3.724253   0.002793   0.536887   0.005201
  30   1  -3.971362  -3.718936  -2.867407   0.002308   0.439271   0.005254
  31   1  -3.062143  -5.275586  -0.438759   0.001833   0.390463   0.004696
  32   1  -1.966940  -5.447844   0.603876   0.002251   0.488079   0.004611
  33   1  -1.114694  -5.179442   1.233851   0.001321   0.341655   0.003867
  34   1   1.271716  -5.348196   0.645454   0.001697   0.390463   0.004347
  35   1   2.247232  -5.252678  -0.359243   0.000730   0.244040   0.002989
  36   1   2.440082  -2.226858  -4.291658   0.001252   0.341655   0.003665
  37   1   0.538603  -1.632706  -5.295055   0.002326   0.488079   0.004767
  38   1  -1.422463  -4.279849  -5.127578  -0.000783   0.585695  -0.001336
  39   1  -2.311115  -5.887753  -2.980373  -0.001318   0.683311  -0.001929
  40   1  -0.018123  -6.614106  -1.462065  -0.001381   0.585695  -0.002358
  41   1   1.994426  -5.639504  -2.726033  -0.001282   0.488079  -0.002627
  42   1   1.213589  -4.185501  -4.935700  -0.000995   0.488079  -0.002038
  43   1  -2.541100  -1.930949  -4.828784   0.002470   0.488079   0.005062
  44   1  -3.806928  -4.608015  -1.678742   0.001862   0.390463   0.004768
  45   1  -0.113337  -5.663292   0.845416   0.002145   0.439271   0.004883
  46   1   1.815336  -1.546525  -4.646796   0.002056   0.439271   0.004680
  47   3   1.919470  -0.390909   5.939057  -0.002277   0.464561  -0.004901
  48   3   1.480875   0.659728   5.953163  -0.001611   0.278737  -0.005779
  49   3  -0.389360  -0.045885   5.639354  -0.000527   0.185824  -0.002838
  50   3   0.607316  -0.292901   5.949796  -0.001697   0.371649  -0.004567
  51   3   2.744379   0.337741   5.697094  -0.001912   0.418105  -0.004573
  52   3   3.371085   0.702706   5.292520  -0.000240   0.139368  -0.001719
  53   3   2.955117  -1.148580   5.414438  -0.001950   0.278737  -0.006997
  54   3   3.093297   1.434646   5.214890  -0.001732   0.185824  -0.009323
  55   3   0.029816   0.541752   5.771214  -0.001446   0.232280  -0.006224
  56   3  -0.485054  -0.799166   5.495025  -0.001037   0.139368  -0.007438
  57   3   3.416096  -0.537408   5.294676  -0.001244   0.185824  -0.006693
  58   4   7.861200  -0.105767  -0.764381  -0.002634   0.536887  -0.004907
  59   4   4.817813  -0.403545  -2.967984   0.002281   0.390463   0.005842
  60   4   5.938927  -3.368730  -0.199802   0.002199   0.390463   0.005632
  61   4   7.229623  -1.616808   2.871821   0.002825   0.488079   0.005788
  62   4   7.044235   2.363836   2.314413   0.002838   0.488079   0.005815
  63   4   5.433114   3.061260  -1.253984   0.001437   0.292848   0.004906
  64   4   7.027127  -0.160864  -1.933922  -0.001613   0.585695  -0.002754
  65   4   5.901778  -0.516718  -2.653400   0.000879   0.488079   0.001800
  66   4   7.462132  -1.458309  -0.921079  -0.001522   0.585695  -0.002598
  67   4   6.683968  -2.591500  -0.822090   0.000990   0.488079   0.002028
  68   4   8.131181  -0.735663   0.506280  -0.001658   0.585695  -0.002831
  69   4   7.943680  -1.016489   1.863079   0.000908   0.536887   0.001692
  70   4   8.078896   0.843320   0.267589  -0.001743   0.536887  -0.003247
  71   4   7.774033   1.763565   1.218151   0.000581   0.488079   0.001191
  72   4   7.439020   1.270935  -1.096907  -0.002100   0.683311  -0.003074
  73   4   6.497452   2.332202  -1.364934   0.001094   0.585695   0.001867
  74   4   5.398767  -1.749855  -2.435612   0.001382   0.390463   0.003540
  75   4   5.576346  -2.778008  -1.546540   0.002616   0.439271   0.005955
  76   4   6.489371  -3.223351   0.740462   0.003312   0.585695   0.005655
  77   4   7.068683  -2.530952   1.940146   0.003133   0.585695   0.005349
  78   4   7.498185  -0.174470   3.097697   0.003230   0.585695   0.005515
  79   4   7.452862   1.219365   2.818970   0.003074   0.585695   0.005249
  80   4   6.709170   3.042258   1.253148   0.003015   0.536887   0.005615
  81   4   6.157216   3.268045  -0.164091   0.002639   0.488079   0.005406
  82   4   5.472883   2.026713  -2.246916   0.002292   0.439271   0.005217
  83   4   5.174354   0.753895  -2.852428   0.001504   0.390463   0.003852
  84   4   5.122532  -3.557863  -0.464144   0.001711   0.292848   0.005842
  85   4   4.950100  -3.826031   0.874223   0.003330   0.439271   0.007580
  86   4   4.440370  -3.701776   1.993132   0.002109   0.439271   0.004802
  87   4   5.024660  -2.993956   3.217661   0.002509   0.488079   0.005140
  88   4   6.127074  -2.386204   3.332065   0.004170   0.585695   0.007120
  89   4   6.469606  -0.950364   3.951576   0.004605   0.634503   0.007258
  90   4   5.440171  -0.114368   4.569404   0.003196   0.585695   0.005457
  91   4   5.232382   1.550484   4.292791   0.002103   0.488079   0.004308
  92   4   6.287950   2.027852   3.523212   0.003848   0.536887   0.007168
  93   4   5.874685   3.224640   2.361065   0.003457   0.488079   0.007082
  94   4   4.640141   3.509551   2.469154   0.002114   0.439271   0.004813
  95   4   4.513064   3.834596   1.380595   0.002154   0.390463   0.005518
  96   4   5.242312   3.608422  -0.230842   0.002114   0.244040   0.008663
  97   4   6.528605  -1.606996  -1.910505   0.000197   0.488079   0.000404
  98   4   7.592788  -2.087807   0.551897   0.000356   0.683311   0.000522
  99   4   8.092781   0.458133   1.717598   0.000302   0.585695   0.000516
 100   4   7.267059   2.416748   0.066855   0.000771   0.634503   0.001216
 101   4   6.291265   1.019273  -2.334426   0.000256   0.536887   0.000477
 102   4   5.793711  -3.392588   2.036588   0.004253   0.585695   0.007262
 103   4   6.497000   0.735882   3.990875   0.004200   0.585695   0.007172
 104   4   5.492741   3.698199   0.963710   0.003155   0.439271   0.007182
 105   4   5.215840  -1.685362   4.232896   0.002073   0.488079   0.004247
 106   4   5.191482   2.760547   3.438038   0.002547   0.439271   0.005799
 107   5  -0.087015   5.915643  -3.946455  -0.004093   0.536887  -0.007624
 108   5  -3.593382   4.832649  -2.440992   0.001669   0.439271   0.003800
 109   5  -1.973262   2.841289  -5.249964   0.001557   0.439271   0.003544
 110   5   2.058155   2.760498  -4.706755   0.001344   0.390463   0.003443
 111   5   2.611099   5.205972  -1.741027   0.000508   0.390463   0.001301
 112   5  -0.681605   6.129303   0.191636   0.001586   0.439271   0.003611
 113   5  -1.445805   6.042583  -3.494663  -0.003149   0.585695  -0.005377
 114   5  -2.683488   5.569658  -3.100742  -0.000274   0.488079  -0.000561
 115   5  -0.876745   5.082292  -4.780141  -0.002973   0.585695  -0.005076
 116   5  -1.561460   3.964956  -5.206974  -0.000055   0.488079  -0.000112
 117   5   0.847074   5.029113  -4.598973  -0.003165   0.585695  -0.005404
 118   5   1.757587   3.972440  -4.695563  -0.000275   0.536887  -0.000512
 119   5   1.183565   5.918538  -3.314999  -0.003230   0.536887  -0.006015
 120   5   2.065318   5.637881  -2.544790  -0.000888   0.439271  -0.002022
 121   5  -0.071894   6.523480  -2.599450  -0.004133   0.683311  -0.006048
 122   5  -0.360296   6.604988  -1.187056  -0.000667   0.585695  -0.001139
 123   5  -3.416090   4.270213  -3.619542   0.001614   0.488079   0.003307
 124   5  -2.880144   3.532284  -4.585843   0.001794   0.488079   0.003677
 125   5  -0.628441   2.823340  -5.578039   0.001308   0.488079   0.002679
 126   5   0.847057   2.750240  -5.379567   0.001308   0.488079   0.002680
 127   5   2.771315   3.464231  -3.826464   0.001300   0.488079   0.002664
 128   5   2.896071   4.514834  -2.759309   0.000981   0.390463   0.002512
 129   5   2.095991   5.535851  -0.653995   0.001596   0.488079   0.003270
 130   5   0.738651   6.108511  -0.115125   0.001688   0.585695   0.002883
 131   5  -1.710883   6.236606  -0.595137   0.001358   0.536887   0.002529
 132   5  -2.807339   5.797864  -1.578019   0.001248   0.536887   0.002324
 133   5  -4.050112   3.620960  -2.682574   0.002092   0.439271   0.004763
 134   5  -3.455388   1.794078  -3.883016   0.001234   0.341655   0.003613
 135   5  -2.687686   1.856347  -4.700945   0.002753   0.536887   0.005128
 136   5  -1.426927   1.759117  -5.307738   0.002275   0.439271   0.005178
 137   5   1.298154   1.657929  -5.012736   0.002299   0.488079   0.004710
 138   5   2.347552   1.794595  -4.265079   0.001747   0.341655   0.005114
 139   5   0.034757   5.579328   0.917319   0.001778   0.390463   0.004553
 140   5  -1.707897   5.447813   0.759553   0.002033   0.439271   0.004628
 141   5  -3.621077   4.882378  -1.328312   0.002030   0.439271   0.004620
 142   5  -2.287519   4.946404  -4.297556  -0.000802   0.585695  -0.001369
 143   5   0.155424   3.987944  -5.345852  -0.001173   0.683311  -0.001716
 144   5   2.181616   4.831354  -3.733383  -0.000950   0.488079  -0.001946
 145   5   1.190558   6.297259  -1.573859  -0.001083   0.634503  -0.001707
 146   5  -1.705821   6.397924  -2.048538  -0.001137   0.585695  -0.001941
 147   5  -3.727808   2.845243  -3.690387   0.002495   0.488079   0.005111
 148   5  -0.113685   1.593691  -5.392369   0.001744   0.390463   0.004468
 149   5   1.472417   5.312972   0.530237   0.001802   0.390463   0.004616
 150   5  -2.710755   5.396086  -0.053666   0.002439   0.488079   0.004996
 151   5  -0.950544   5.110023   1.323826   0.000838   0.244040   0.003433
 152   6  -7.352662   0.018884   3.074297  -0.004265   0.536887  -0.007945
 153   6  -6.360588  -2.577364   0.244246   0.001442   0.439271   0.003284
 154   6  -6.827631   1.111654  -0.564234   0.001324   0.439271   0.003015
 155   6  -5.377418   3.406603   2.495075   0.001347   0.439271   0.003067
 156   6  -4.180531   0.888227   5.312100   0.001291   0.439271   0.002939
 157   6  -4.545452  -2.963724   3.938363   0.001552   0.439271   0.003534
 158   6  -7.409075  -1.173184   2.272843  -0.003334   0.585695  -0.005693
 159   6  -7.104282  -1.962386   1.179704  -0.000473   0.488079  -0.000969
 160   6  -7.631762   0.430117   1.745324  -0.003264   0.585695  -0.005572
 161   6  -7.405862   0.799403   0.436868  -0.000334   0.488079  -0.000685
 162   6  -7.066753   1.433608   3.041847  -0.003413   0.585695  -0.005828
 163   6  -6.265986   2.579765   3.046210  -0.000593   0.536887  -0.001105
 164   6  -6.592234   0.436809   4.196888  -0.003408   0.536887  -0.006348
 165   6  -5.499044   0.619719   4.981004  -0.000837   0.488079  -0.001715
 166   6  -6.728572  -1.081930   3.837735  -0.004198   0.683311  -0.006144
 167   6  -5.795488  -2.158012   4.074546  -0.000664   0.585695  -0.001134
 168   6  -6.843558  -1.479174  -0.301156   0.001335   0.488079   0.002736
 169   6  -6.975961  -0.197920  -0.627307   0.001501   0.488079   0.003076
 170   6  -6.750789   2.167100   0.328307   0.001044   0.488079   0.002139
 171   6  -6.168116   3.049987   1.384822   0.001334   0.536887   0.002485
 172   6  -4.936710   2.976439   3.758542   0.001695   0.585695   0.002895
 173   6  -4.578063   1.980987   4.795626   0.001361   0.536887   0.002534
 174   6  -4.225437  -0.369328   5.393221   0.001501   0.536887   0.002795
 175   6  -4.433605  -1.872213   4.891126   0.001696   0.585695   0.002895
 176   6  -5.434999  -3.189019   3.017556   0.001312   0.536887   0.002444
 177   6  -6.143287  -3.072713   1.659038   0.001102   0.536887   0.002053
 178   6  -5.885198  -2.130523  -0.900083   0.001858   0.439271   0.004230
 179   6  -5.494998  -0.141418  -1.911748   0.001052   0.341655   0.003079
 180   6  -5.965742   0.807430  -1.537131   0.002493   0.536887   0.004643
 181   6  -6.065838   2.017016  -0.834246   0.002027   0.439271   0.004615
 182   6  -5.026397   3.669074   1.476260   0.001719   0.390463   0.004404
 183   6  -4.106701   3.692660   2.688627   0.002155   0.488079   0.004414
 184   6  -3.273467   3.405753   3.335649   0.001249   0.341655   0.003656
 185   6  -3.267678   1.626398   5.039616   0.001606   0.390463   0.004114
 186   6  -3.064011   0.168686   5.364337   0.001333   0.341655   0.003902
 187   6  -3.495646  -2.683742   4.340582   0.001758   0.390463   0.004501
 188   6  -3.931702  -3.623530   2.924362   0.001956   0.439271   0.004452
 189   6  -5.570488  -3.292226   0.569840   0.001848   0.439271   0.004207
 190   6  -7.512332  -0.685667   0.754162  -0.001114   0.585695  -0.001902
 191   6  -7.128308   1.955155   1.683745  -0.001546   0.683311  -0.002263
 192   6  -5.926625   1.780151   4.255902  -0.001381   0.585695  -0.002358
 193   6  -5.533080  -0.796280   4.926773  -0.001167   0.634503  -0.001840
 194   6  -6.616176  -2.384824   2.706887  -0.001226   0.585695  -0.002093
 195   6  -6.073959  -0.940543  -1.419333   0.002197   0.488079   0.004501
 196   6  -5.701491   3.064383   0.166104   0.001685   0.390463   0.004314
 197   6  -3.635459   2.774184   4.261820   0.002113   0.439271   0.004810
 198   6  -3.246073  -1.356988   5.150100   0.001886   0.439271   0.004294
 199   6  -4.735058  -3.738891   1.918859   0.002321   0.488079   0.004754
 200   6  -3.125655  -3.323131   3.440249   0.000774   0.244040   0.003172
 201   7   1.067620   3.486462   5.038797  -0.005727   0.451437  -0.012687
 202   7   1.899333   3.986963   3.487604  -0.003111   0.235532  -0.013208
 203   7   2.526206   3.031451   4.826597  -0.004062   0.333671  -0.012172
 204   7   0.958875   2.214888   5.773391  -0.003625   0.372926  -0.009720
 205   7   0.804681   4.060566   3.897885  -0.004463   0.372926  -0.011967
 206   7   2.086846   3.729997   4.268788  -0.003775   0.353299  -0.010685
 207   7   1.934544   2.530272   5.516887  -0.004295   0.431809  -0.009947
 208   7   0.000147   2.486920   5.433129  -0.004834   0.451437  -0.010708
 209   7  -0.066535   3.552090   4.476675  -0.006013   0.431809  -0.013924
 210   8   1.117568  -3.532232   4.987251  -0.005155   0.412182  -0.012507
 211   8   2.183524  -3.851201   3.655137  -0.003648   0.294415  -0.012391
 212   8   0.179135  -2.110086   5.624384  -0.003328   0.333671  -0.009973
 213   8   2.310844  -2.454607   5.355649  -0.003597   0.353299  -0.010180
 214   8   1.281727  -4.081381   3.830795  -0.004257   0.372926  -0.011414
 215   8   0.173232  -3.821700   4.161090  -0.005873   0.431809  -0.013601
 216   8  -0.068403  -3.002700   5.100175  -0.004789   0.392554  -0.012201
 217   8   1.222267  -2.447694   5.706953  -0.004923   0.471065  -0.010450
 218   8   2.258578  -3.362454   4.718239  -0.004515   0.412182  -0.010954
 219   1   2.417920  -0.484359  -3.586083   0.000294   0.277578   0.001059
 220   4   3.242472  -0.000028  -3.118155   0.001203   0.277578   0.004332
 221   5   2.417949   0.484240  -3.586081   0.000140   0.277578   0.000505
 222   1   2.085014  -4.137873   1.293037  -0.000912   0.238393  -0.003826
 223   4   2.926717  -3.685506   1.756620  -0.001356   0.238393  -0.005689
 224   8   2.256378  -3.762998   2.240363  -0.003200   0.238393  -0.013422
 225   4   3.566118  -3.964023   1.189427   0.001010   0.417607   0.002418
 226   4   4.339228  -3.701619  -0.521711   0.005181   0.835340   0.006202
 227   4   4.512718  -2.306472  -2.346120   0.005395   0.835340   0.006458
 228   4   3.976514  -0.663780  -3.126244   0.002293   0.417607   0.005491
 229   1   2.707832  -4.598331  -0.100107   0.003074   0.835340   0.003680
 230   1   3.377958  -3.830629  -2.165673   0.004236   0.835340   0.005071
 231   1   3.031970  -1.991732  -3.508712   0.003874   0.835340   0.004637
 232   1  -3.481016  -0.482954  -3.057726  -0.002056   0.235843  -0.008718
 233   5  -3.480994   0.483050  -3.057716  -0.002059   0.235843  -0.008729
 234   6  -4.073616   0.000063  -2.488333  -0.002090   0.235843  -0.008862
 235   5   1.785414   0.683450  -4.361126   0.000862   0.404124   0.002134
 236   5  -0.100355   0.683501  -4.995868   0.002007   0.810081   0.002478
 237   5  -2.416045   0.683548  -4.320259   0.000023   0.810081   0.000028
 238   1   1.080139  -0.683561  -4.659326   0.001617   0.810081   0.001996
 239   1  -1.322218  -0.683502  -4.877392   0.001473   0.810081   0.001818
 240   1  -3.050883  -0.683472  -3.892133  -0.000276   0.404124  -0.000684
 241   1  -1.308230  -3.929812   2.083694  -0.002424   0.265274  -0.009139
 242   6  -1.900227  -3.444576   2.654873  -0.002487   0.265274  -0.009376
 243   8  -0.899691  -3.523768   2.943622  -0.004426   0.265274  -0.016685
 244   6  -4.714054  -0.630034  -2.299277  -0.000327   0.362435  -0.000903
 245   6  -5.124860  -2.172612  -1.420478   0.001156   0.725710   0.001593
 246   6  -4.678208  -3.585063   0.235678   0.001952   0.725710   0.002690
 247   6  -3.273822  -3.873943   1.933211   0.000289   0.725710   0.000399
 248   1  -4.070665  -1.910168  -2.802115   0.000130   0.725710   0.000179
 249   1  -4.209434  -3.672565  -1.455984   0.002137   0.725710   0.002944
 250   1  -3.228137  -4.574498   0.321920   0.001661   0.725710   0.002288
 251   1  -1.924110  -4.479628   1.591215  -0.000077   0.362435  -0.000212
 252   8  -0.161899  -3.921614   3.185491  -0.003331   0.255013  -0.013061
 253   8   1.176208  -4.099822   2.835849  -0.006643   0.515225  -0.012894
 254   1  -0.123278  -4.688403   1.785599  -0.000973   0.731820  -0.001330
 255   1   1.424840  -4.750713   1.350230   0.000283   0.371790   0.000762
 256   3   3.461379   2.003580   4.585012  -0.000496   0.033091  -0.014980
 257   4   3.976234   1.985599   4.318318  -0.000380   0.033091  -0.011470
 258   7   3.246237   2.206911   4.622949  -0.000470   0.033091  -0.014194
 259   3   3.461644  -2.003907   4.584753  -0.000526   0.033098  -0.015887
 260   4   3.976499  -1.985829   4.318063  -0.000341   0.033098  -0.010293
 261   8   3.246544  -2.207301   4.622634  -0.000665   0.033098  -0.020077
 262   4   4.444704   1.443395   4.473708  -0.000523   0.265481  -0.001968
 263   4   4.484848  -0.644902   4.562847  -0.001911   0.536674  -0.003560
 264   3   3.718148   0.640575   4.882659  -0.004631   0.534124  -0.008670
 265   3   3.677965  -1.435997   4.792580  -0.001897   0.262073  -0.007238
 266   3  -0.905537   1.182752   5.160704  -0.000991   0.070512  -0.014051
 267   6  -1.768027   1.163621   4.969566  -0.000629   0.070512  -0.008924
 268   7  -0.792972   1.460786   5.149105  -0.001107   0.070512  -0.015699
 269   3  -0.905534  -1.184018   5.160305  -0.000888   0.070505  -0.012599
 270   6  -1.768021  -1.164788   4.969160  -0.000612   0.070505  -0.008681
 271   8  -0.792900  -1.462027   5.148648  -0.000869   0.070505  -0.012330
 272   6  -2.263662  -0.653477   5.211774   0.000135   0.320602   0.000421
 273   6  -2.263642   0.652222   5.212005   0.000112   0.320602   0.000348
 274   3  -1.005616  -0.000666   5.320606  -0.004243   0.632390  -0.006710
 275   7  -0.133571   1.558460   5.505420  -0.001075   0.077125  -0.013933
 276   7   1.090528   1.521241   5.755041  -0.002423   0.177096  -0.013682
 277   7   2.446698   1.976762   5.302685  -0.002499   0.177096  -0.014110
 278   3   0.288254   1.110211   5.645737  -0.002300   0.163727  -0.014048
 279   3   1.962209   1.290624   5.647683  -0.002234   0.163727  -0.013645
 280   3   3.045888   1.848039   5.002403  -0.001069   0.094225  -0.011347
 281   8   2.799536  -2.193668   5.041043  -0.000990   0.077127  -0.012836
 282   8   1.828129  -1.681716   5.638055  -0.002359   0.177101  -0.013319
 283   8   0.336278  -1.521270   5.636228  -0.002482   0.177101  -0.014014
 284   3   2.656547  -1.623294   5.270811  -0.002400   0.163733  -0.014661
 285   3   1.134611  -1.112596   5.778386  -0.002254   0.163733  -0.013764
 286   3  -0.219324  -1.142759   5.518678  -0.001092   0.094228  -0.011594
 287   4   2.926224   3.685408   1.757205  -0.001323   0.238399  -0.005549
 288   5   2.084548   4.137707   1.293624  -0.000973   0.238399  -0.004082
 289   7   2.255860   3.762708   2.240974  -0.003190   0.238399  -0.013379
 290   5   2.386346   4.652148   0.551669   0.001273   0.417651   0.003049
 291   5   3.159729   4.389996  -1.159667   0.003971   0.835431   0.004754
 292   5   3.333431   2.994789  -2.984379   0.004358   0.835431   0.005216
 293   5   2.797230   1.351848  -3.764604   0.001637   0.417651   0.003920
 294   4   3.886836   3.910401   0.538782   0.003610   0.835431   0.004321
 295   4   4.557262   3.142862  -1.527073   0.005738   0.835431   0.006869
 296   4   4.211362   1.303737  -2.870324   0.004958   0.835431   0.005935
 297   7   3.117846   2.620163   4.493567  -0.002380   0.202529  -0.011751
 298   7   2.740519   3.438648   3.462217  -0.005812   0.412090  -0.014103
 299   4   4.093480   2.771880   3.621131  -0.001549   0.571027  -0.002713
 300   4   3.577001   3.610731   2.396165  -0.000535   0.292303  -0.001829
 301   8   2.540129  -3.685986   3.037650  -0.002546   0.202535  -0.012570
 302   8   2.998041  -2.965378   4.108718  -0.005831   0.412103  -0.014149
 303   4   3.795239  -3.322417   2.868819  -0.001488   0.571043  -0.002606
 304   4   4.237733  -2.394126   4.057794  -0.000533   0.292312  -0.001822
 305   5  -1.308024   3.929667   2.083817  -0.002401   0.265270  -0.009053
 306   6  -1.900047   3.444482   2.655001  -0.002510   0.265270  -0.009464
 307   7  -0.899594   3.523515   2.943816  -0.004399   0.265270  -0.016582
 308   6  -2.760066   3.796599   2.399338  -0.000141   0.362437  -0.000390
 309   6  -4.064110   3.891580   1.130040   0.001500   0.725714   0.002066
 310   6  -5.045479   2.989728  -0.647894   0.001884   0.725714   0.002596
 311   6  -4.906809   1.227322  -1.994062  -0.000123   0.725714  -0.000170
 312   5  -2.437344   4.556962   1.125282   0.000424   0.725714   0.000584
 313   5  -3.841772   4.268200  -0.572266   0.002160   0.725714   0.002977
 314   5  -4.288516   2.855786  -2.228460   0.001411   0.725714   0.001945
 315   5  -3.877790   1.313178  -3.107286  -0.000210   0.362437  -0.000580
 316   7   1.692556   4.072840   2.680955  -0.002839   0.254945  -0.011136
 317   7   0.351823   4.031966   3.060676  -0.007124   0.515082  -0.013831
 318   5   0.838516   4.766748   1.524075  -0.000361   0.731636  -0.000493
 319   5  -0.706426   4.576190   1.930854  -0.000421   0.371693  -0.001133
 320   7  -0.788131   3.398647   3.801406  -0.003388   0.260779  -0.012991
 321   7  -0.822549   2.407130   4.806914  -0.006831   0.526925  -0.012963
 322   6  -2.306283   2.871350   3.921626  -0.001275   0.749040  -0.001702
 323   6  -2.277443   1.634406   4.984004   0.000108   0.380575   0.000283
 324   8  -0.790232  -1.965815   5.127842  -0.002676   0.260696  -0.010266
 325   8  -0.821506  -3.044536   4.217155  -0.007355   0.526751  -0.013963
 326   6  -2.307430  -2.128660   4.609170  -0.000646   0.748817  -0.000863
 327   6  -2.275007  -3.282938   3.458388  -0.000539   0.380457  -0.001416
 =====================================================


   1 warning(s) detected.
     A line exceeding 80 characters begins with "http://cactus.nci.ni".
 There may be a problem in your input file.

              1453923  WORDS OF DYNAMIC MEMORY USED
 EXECUTION OF GAMESS TERMINATED NORMALLY Tue Nov 22 15:50:54 2016
 DDI: 263640 bytes (0.3 MB / 0 MWords) used by master data server.

 ----------------------------------------
 CPU timing information for all processes
 ========================================
 0: 216.696 + 0.120 = 216.816
 ----------------------------------------
 ddikick.x: exited gracefully.
