----- GAMESS execution script -----

          ******************************************************
          *         GAMESS VERSION =  5 DEC 2014 (R1)          *
          *             FROM IOWA STATE UNIVERSITY             *
          * M.W.SCHMIDT, K.K.BALDRIDGE, J.A.BOATZ, S.T.ELBERT, *
          *   M.S.GORDON, J.H.JENSEN, S.KOSEKI, N.MATSUNAGA,   *
          *          K.A.NGUYEN, S.J.SU, T.L.WINDUS,           *
          *       TOGETHER WITH M.DUPUIS, J.A.MONTGOMERY       *
          *         J.COMPUT.CHEM.  14, 1347-1363(1993)        *
          **************** 64 BIT LINUX VERSION ****************

 EXECUTION OF GAMESS BEGUN Tue Nov 22 18:07:56 2016

            ECHO OF THE FIRST FEW INPUT CARDS -
 INPUT CARD>! SELECT RESTRICTED HARTREE-FOCK AS DEFAULT                                     
 INPUT CARD>$contrl scftyp=rhf $end                                                         
 INPUT CARD>                                                                                
 INPUT CARD>! THEORY: HF OR DFT                                                             
 INPUT CARD> $contrl mplevl=0 $end                                                          
 INPUT CARD>                                                                                
 INPUT CARD> $system timlim=10000 mwords=20 $end                                            
 INPUT CARD> $SCF DIRSCF=.TRUE. $end                                                        
 INPUT CARD>                                                                                
 INPUT CARD>                                                                                
 INPUT CARD>! BASIS SETS                                                                    
 INPUT CARD>! 6-311G(d,p)                                                                   
 INPUT CARD> $BASIS GBASIS=N311 NGAUSS=6 NDFUNC=1 NPFUNC=1 $END                             
 INPUT CARD>                                                                                
 INPUT CARD>! One of the following                                                          
 INPUT CARD> $guess guess=HUCKEL $end                                                       
 INPUT CARD>                                                                                
 INPUT CARD> $statpt projct=.FALSE. $end                                                    
 INPUT CARD> $STATPT IFREEZ(1)=1,2,3 $END                                                   
 INPUT CARD>                                                                                
 INPUT CARD>! Optimize the geometry with COSMO effects                                      
 INPUT CARD> $statpt opttol=0.0005 nstep=50 $end                                            
 INPUT CARD> $contrl nzvar=1 $end                                                           
 INPUT CARD> $zmat dlc=.t. auto=.t. $end                                                    
 INPUT CARD> $contrl runtyp=OPTIMIZE maxit=200 $end                                         
 INPUT CARD>                                                                                
 INPUT CARD>! Run COSMO on perfect conductor                                                
 INPUT CARD> $COSGMS PRFCND=.TRUE. $end                                                     
 INPUT CARD>                                                                                
 INPUT CARD>! Specifying RSOLV                                                              
 INPUT CARD> $COSGMS COSRAD = 1.4 $end                                                      
 INPUT CARD>                                                                                
 INPUT CARD>! available memory                                                              
 INPUT CARD> $SYSTEM MWORDS=40 $END                                                         
 INPUT CARD>                                                                                
 INPUT CARD> $DATA                                                                          
 INPUT CARD>Ethane, 1,1-dichloro-, ID: C75343                                               
 INPUT CARD>C1                                                                              
 INPUT CARD>C      6.0      2.1381000000    0.9020000000    0.8644000000                    
 INPUT CARD>C      6.0      1.6224000000    2.0858000000    1.6309000000                    
 INPUT CARD>Cl    17.0      0.0000000000    1.7419000000    2.2498000000                    
 INPUT CARD>Cl    17.0      2.6535000000    2.3879000000    3.0375000000                    
 INPUT CARD>H      1.0      2.1727000000    0.0000000000    1.4897000000                    
 INPUT CARD>H      1.0      3.1539000000    1.0862000000    0.4911000000                    
 INPUT CARD>H      1.0      1.4982000000    0.6824000000    0.0000000000                    
 INPUT CARD>H      1.0      1.5828000000    3.0069000000    1.0092000000                    
 INPUT CARD> $END                                                                           
 INPUT CARD>                                                                                
 INPUT CARD>                                                                                
   40000000 WORDS OF MEMORY AVAILABLE

     BASIS OPTIONS
     -------------
     GBASIS=N311         IGAUSS=       6      POLAR=POPN311 
     NDFUNC=       1     NFFUNC=       0     DIFFSP=       F
     NPFUNC=       1      DIFFS=       F     BASNAM=        


     RUN TITLE
     ---------
 Ethane, 1,1-dichloro-, ID: C75343                                               

 THE POINT GROUP OF THE MOLECULE IS C1      
 THE ORDER OF THE PRINCIPAL AXIS IS     0

 ATOM      ATOMIC                      COORDINATES (BOHR)
           CHARGE         X                   Y                   Z
 C           6.0     4.0404231343        1.7045328409        1.6334791438
 C           6.0     3.0658914425        3.9415904652        3.0819541134
 CL         17.0     0.0000000000        3.2917136980        4.2515055272
 CL         17.0     5.0143879084        4.5124766861        5.7400426877
 H           1.0     4.1058076535        0.0000000000        2.8151248039
 H           1.0     5.9600067927        2.0526203679        0.9280444326
 H           1.0     2.8311874748        1.2895490140        0.0000000000
 H           1.0     2.9910582934        5.6822170725        1.9071114668

          INTERNUCLEAR DISTANCES (ANGS.)




     $CONTRL OPTIONS
     ---------------
 SCFTYP=RHF          RUNTYP=OPTIMIZE     EXETYP=RUN     
 MPLEVL=       0     CITYP =NONE         CCTYP =NONE         VBTYP =NONE    
 DFTTYP=NONE         TDDFT =NONE    
 MULT  =       1     ICHARG=       0     NZVAR =       1     COORD =UNIQUE  
 PP    =NONE         RELWFN=NONE         LOCAL =NONE         NUMGRD=       F
 ISPHER=      -1     NOSYM =       0     MAXIT =     200     UNITS =ANGS    
 PLTORB=       F     MOLPLT=       F     AIMPAC=       F     FRIEND=        
 NPRINT=       7     IREST =       0     GEOM  =INPUT   
 NORMF =       0     NORMP =       0     ITOL  =      20     ICUT  =       9
 INTTYP=BEST         GRDTYP=BEST         QMTTOL= 1.0E-06

     $SYSTEM OPTIONS
     ---------------
  REPLICATED MEMORY=    40000000 WORDS (ON EVERY NODE).
 DISTRIBUTED MEMDDI=           0 MILLION WORDS IN AGGREGATE,
 MEMDDI DISTRIBUTED OVER   1 PROCESSORS IS           0 WORDS/PROCESSOR.
 TOTAL MEMORY REQUESTED ON EACH PROCESSOR=    40000000 WORDS.
 TIMLIM=       10000.00 MINUTES, OR       6.9 DAYS.
 PARALL= F  BALTYP=  DLB     KDIAG=    0  COREFL= F
 MXSEQ2=     300 MXSEQ3=     150  mem10=         0

     $COSGMS OPTIONS
     ---------------
     EPSI  =   INFTY     NSPA  =      92     COSRAD=    1.40
     DISEX =   10.00     OUTCHG=DBLCAV       COSBUG=       F
     COSWRT=       F     DCOSMO=       F

     SYMMETRY COORDINATES WILL NOT BE USED FOR 
     THE COSMO CALCULATION, EVEN IF SPECIFIED:
         -- SWITCHING TO C1 POINT GROUP --


     DEFINITION OF CAVITY
     ---------------------------
     ATOM         COORDINATES           RADIUS 
     1    4.0404    1.7045    1.6335    2.0000
     2    3.0659    3.9416    3.0820    2.0000
     3    0.0000    3.2917    4.2515    2.0500
     4    5.0144    4.5125    5.7400    2.0500
     5    4.1058    0.0000    2.8151    1.3000
     6    5.9600    2.0526    0.9280    1.3000
     7    2.8312    1.2895    0.0000    1.3000
     8    2.9911    5.6822    1.9071    1.3000

          ----------------
          PROPERTIES INPUT
          ----------------

     MOMENTS            FIELD           POTENTIAL          DENSITY
 IEMOM =       1   IEFLD =       0   IEPOT =       0   IEDEN =       0
 WHERE =COMASS     WHERE =NUCLEI     WHERE =NUCLEI     WHERE =NUCLEI  
 OUTPUT=BOTH       OUTPUT=BOTH       OUTPUT=BOTH       OUTPUT=BOTH    
 IEMINT=       0   IEFINT=       0                     IEDINT=       0
                                                       MORB  =       0
          EXTRAPOLATION IN EFFECT
          SOSCF IN EFFECT
 ORBITAL PRINTING OPTION: NPREO=     1   116     2     1

     -------------------------------
     INTEGRAL TRANSFORMATION OPTIONS
     -------------------------------
     NWORD  =            0
     CUTOFF = 1.0E-09     MPTRAN =       0
     DIRTRF =       T     AOINTS =DUP     

          ----------------------
          INTEGRAL INPUT OPTIONS
          ----------------------
 NOPK  =       1 NORDER=       0 SCHWRZ=       T


 -----------------------------------------------
  STATISTICS ON AUTOMATIC COORDINATE GENERATION 
 -----------------------------------------------
  NUMBER OF USER SPECIFIED BONDS                             0
  NUMBER OF BONDS                                            7
  NUMBER OF ANGLES                                          12
  NUMBER OF TORSIONS                                         9
  NUMBER OF EXTRA COORD.                                     0
  NUMBER OF EXTRA COORD. FOR CONSTRAINTS                     0
  NUMBER OF CONSTRAINED COORD.                               0

  TOTAL NUMBER OF PRIMITIVES                                28
 -----------------------------------------------

   --- ENCODED Z MATRIX ---
 COORD  TYPE   I   J   K   L   M   N
    1      1    1   2
    2      1    1   7
    3      1    1   5
    4      1    1   6
    5      1    2   4
    6      1    2   8
    7      1    2   3
    8      2    1   2   3
    9      2    1   2   8
   10      2    1   2   4
   11      2    2   1   6
   12      2    2   1   7
   13      2    2   1   5
   14      2    3   2   8
   15      2    3   2   4
   16      2    4   2   8
   17      2    5   1   7
   18      2    5   1   6
   19      2    6   1   7
   20      3    3   2   1   6
   21      3    3   2   1   7
   22      3    3   2   1   5
   23      3    4   2   1   7
   24      3    4   2   1   6
   25      3    4   2   1   5
   26      3    5   1   2   8
   27      3    6   1   2   8
   28      3    7   1   2   8

          INDEP./SYM. INTERNAL COORDINATES
          --------------------------------
 CRD  1=   0.5819 (  8) -0.5819 ( 10) -0.2706 ( 11)  0.2707 ( 12) -0.2405 ( 14)
           0.2406 ( 16) -0.1391 ( 26)
 CRD  2=   0.3908 (  1)  0.4611 (  8) -0.2185 (  9)  0.4610 ( 10)  0.3134 ( 13)
          -0.1559 ( 14) -0.4126 ( 15) -0.1558 ( 16) -0.1321 ( 17) -0.1320 ( 18)
 CRD  3=   0.4665 (  1)  0.5314 (  9)  0.3254 ( 11)  0.3250 ( 12) -0.2615 ( 13)
          -0.2039 ( 14) -0.2039 ( 16) -0.2669 ( 19)
 CRD  4=   0.1964 (  1)  0.1903 (  3)  0.1121 (  6) -0.1695 (  8)  0.3153 (  9)
          -0.1700 ( 10) -0.1975 ( 11) -0.1980 ( 12)  0.5829 ( 13) -0.1533 ( 14)
           0.3324 ( 15) -0.1530 ( 16) -0.1865 ( 17) -0.1866 ( 18)  0.1748 ( 19)
          -0.1232 ( 20) -0.1018 ( 22)  0.1231 ( 23)  0.1016 ( 25)
 CRD  5=  -0.1860 (  2)  0.1860 (  4) -0.1018 (  5)  0.1019 (  7)  0.2171 (  8)
          -0.2169 ( 10)  0.5496 ( 11) -0.5495 ( 12) -0.1767 ( 14)  0.1771 ( 16)
           0.2542 ( 17) -0.2540 ( 18)
 CRD  6=   0.1220 (  3) -0.2855 (  5)  0.4909 (  6) -0.2854 (  7)  0.1241 (  9)
           0.1618 ( 13)  0.1453 ( 14) -0.3411 ( 15)  0.1453 ( 16)  0.1211 ( 19)
           0.2502 ( 20)  0.2212 ( 21)  0.2357 ( 22) -0.2501 ( 23) -0.2211 ( 24)
          -0.2356 ( 25)
 CRD  7=  -0.2050 (  1)  0.1343 (  2)  0.1731 (  3)  0.1343 (  4) -0.3773 (  5)
          -0.3796 (  6) -0.3773 (  7)  0.1263 (  8)  0.3365 (  9)  0.1263 ( 10)
          -0.1675 ( 11) -0.1676 ( 12) -0.1472 ( 13) -0.2663 ( 14) -0.2663 ( 16)
           0.1649 ( 17)  0.1647 ( 18)  0.1829 ( 19)
 CRD  8=  -0.2184 (  1) -0.4683 (  2) -0.4632 (  3) -0.4680 (  4) -0.2245 (  5)
          -0.2281 (  6) -0.2237 (  7)  0.1452 ( 11)  0.1452 ( 12)  0.1482 ( 13)
          -0.1571 ( 17) -0.1571 ( 18) -0.1518 ( 19)
 CRD  9=   0.4407 (  5) -0.4413 (  7) -0.2524 ( 14)  0.2524 ( 16) -0.2836 ( 20)
          -0.2834 ( 21) -0.2659 ( 22) -0.2835 ( 23) -0.2836 ( 24) -0.2660 ( 25)
 CRD 10=   0.3926 (  2) -0.6345 (  3)  0.2535 (  4) -0.1306 ( 17) -0.2029 ( 18)
           0.3321 ( 19)  0.2075 ( 20) -0.1485 ( 21) -0.1740 ( 23)  0.1821 ( 24)
           0.1924 ( 27) -0.1637 ( 28)
 CRD 11=   0.5114 (  2) -0.5931 (  4)  0.3076 ( 17) -0.2656 ( 18)  0.1085 ( 20)
           0.1534 ( 21) -0.1755 ( 22)  0.1566 ( 23)  0.1117 ( 24) -0.1723 ( 25)
          -0.1944 ( 26)  0.1344 ( 28)
 CRD 12=  -0.3391 (  5)  0.3391 (  7)  0.1121 ( 14) -0.1121 ( 16) -0.2330 ( 20)
          -0.2332 ( 21) -0.2614 ( 22) -0.2332 ( 23) -0.2331 ( 24) -0.2615 ( 25)
          -0.3748 ( 26) -0.3464 ( 27) -0.3466 ( 28)
 CRD 13=   0.1668 (  1)  0.2289 (  2)  0.2270 (  3)  0.2287 (  4) -0.3189 (  5)
          -0.3866 (  6) -0.3189 (  7) -0.1530 (  8) -0.2622 (  9) -0.1530 ( 10)
           0.1844 ( 11)  0.1844 ( 12)  0.1915 ( 13)  0.2302 ( 14)  0.1340 ( 15)
           0.2302 ( 16) -0.1955 ( 17) -0.1954 ( 18) -0.2045 ( 19)
 CRD 14=   0.1405 (  2) -0.2382 (  3)  0.1405 (  4) -0.3038 (  5)  0.5818 (  6)
          -0.3037 (  7) -0.1683 (  9)  0.2065 ( 15) -0.2043 ( 19) -0.2647 ( 20)
          -0.1672 ( 22)  0.2648 ( 23)  0.1672 ( 25)
 CRD 15=  -0.6872 (  1)  0.1877 (  2)  0.2226 (  3)  0.1877 (  4)  0.1436 (  5)
           0.1260 (  6)  0.1434 (  7)  0.1451 (  9)  0.2099 ( 11)  0.2100 ( 12)
           0.2063 ( 13) -0.1190 ( 14) -0.1192 ( 16) -0.2303 ( 17) -0.2302 ( 18)
          -0.2048 ( 19)
 CRD 16=   0.2751 (  2) -0.2749 (  4) -0.3598 (  5)  0.3600 (  7) -0.2330 ( 14)
           0.2330 ( 16) -0.2073 ( 17)  0.2074 ( 18) -0.1493 ( 20) -0.1492 ( 21)
           0.1190 ( 22) -0.1493 ( 23) -0.1494 ( 24)  0.1189 ( 25)  0.4522 ( 26)
           0.1839 ( 27)  0.1840 ( 28)
 CRD 17=   0.1875 (  2) -0.3694 (  3)  0.1867 (  4)  0.1030 (  5) -0.1825 (  6)
           0.1021 (  7)  0.2184 (  9) -0.1175 ( 11) -0.1182 ( 12)  0.2402 ( 13)
           0.1371 ( 17)  0.1377 ( 18) -0.2814 ( 19) -0.1489 ( 20)  0.3630 ( 21)
           0.1075 ( 22)  0.1490 ( 23) -0.3630 ( 24) -0.1065 ( 25) -0.2566 ( 27)
           0.2554 ( 28)
 CRD 18=   0.2713 (  2) -0.2719 (  4)  0.2115 (  5) -0.2119 (  7)  0.1736 (  8)
          -0.1732 ( 10)  0.2009 ( 11) -0.2006 ( 12)  0.1406 ( 14) -0.1407 ( 16)
          -0.2039 ( 17)  0.2036 ( 18)  0.3363 ( 22)  0.3367 ( 25) -0.3588 ( 27)
          -0.3597 ( 28)

 THE DETERMINANT OF THE G MATRIX IS 10**(    -9)


                     --------------------
                     INTERNAL COORDINATES
                     --------------------

                 - - ATOMS - -         COORDINATE      COORDINATE
 NO.   TYPE    I  J  K  L  M  N        (BOHR,RAD)       (ANG,DEG)
 ----------------------------------------------------------------
   1 STRETCH   1  2                     2.8376431       1.5016162
   2 STRETCH   1  7                     2.0742991       1.0976719
   3 STRETCH   1  5                     2.0750889       1.0980898
   4 STRETCH   1  6                     2.0745131       1.0977851
   5 STRETCH   2  4                     3.3448445       1.7700156
   6 STRETCH   2  8                     2.1013415       1.1119821
   7 STRETCH   2  3                     3.3451279       1.7701656
   8 BEND      1  2  3                  1.9177903     109.8812875
   9 BEND      1  2  8                  1.9604464     112.3253032
  10 BEND      1  2  4                  1.9178597     109.8852646
  11 BEND      2  1  6                  1.9380786     111.0437228
  12 BEND      2  1  7                  1.9385097     111.0684243
  13 BEND      2  1  5                  1.9473533     111.5751242
  14 BEND      3  2  8                  1.9004986     108.8905477
  15 BEND      3  2  4                  1.8642129     106.8115319
  16 BEND      4  2  8                  1.9003993     108.8848585
  17 BEND      5  1  7                  1.8780713     107.6055575
  18 BEND      5  1  6                  1.8779128     107.5964790
  19 BEND      6  1  7                  1.8809551     107.7707873
  20 TORSION   3  2  1  6              -3.1187272    -178.6899073
  21 TORSION   3  2  1  7               1.0716075      61.3985890
  22 TORSION   3  2  1  5              -1.0238068     -58.6598107
  23 TORSION   4  2  1  7               3.1179870     178.6474932
  24 TORSION   4  2  1  6              -1.0723478     -61.4410031
  25 TORSION   4  2  1  5               1.0225726      58.5890935
  26 TORSION   5  1  2  8               3.1409366     179.9624126
  27 TORSION   6  1  2  8               1.0460162      59.9323160
  28 TORSION   7  1  2  8              -1.0468343     -59.9791877

     ------------------------------------------
     THE POINT GROUP IS C1 , NAXIS= 1, ORDER= 1
     ------------------------------------------

     DIMENSIONS OF THE SYMMETRY SUBSPACES ARE
 A   =  116

 ..... DONE SETTING UP THE RUN .....
 STEP CPU TIME =     0.00 TOTAL CPU TIME =        0.0 (    0.0 MIN)
 TOTAL WALL CLOCK TIME=        0.0 SECONDS, CPU UTILIZATION IS   0.00%


          -----------------------------
          STATIONARY POINT LOCATION RUN
          -----------------------------

 OBTAINING INITIAL HESSIAN, HESS=GUESS   
 DIAGONAL GUESS HESSIAN IN INTERNAL COORDS IS
     1  0.3880     2  0.3412     3  0.3410     4  0.3412     5  0.3532
     6  0.3319     7  0.3531     8  0.2583     9  0.2245    10  0.2583
    11  0.2253    12  0.2253    13  0.2253    14  0.2292    15  0.2643
    16  0.2293    17  0.2026    18  0.2026    19  0.2026    20  0.2500
    21  0.2500    22  0.2500    23  0.2500    24  0.2500    25  0.2500
    26  0.2500    27  0.2500    28  0.2500
 TRANSFORMING HESSIAN TO SYMMETRY COORDINATES

          PARAMETERS CONTROLLING GEOMETRY SEARCH ARE
          METHOD =QA                  UPHESS =BFGS    
          NNEG   =         0          NFRZ   =         3
          NSTEP  =        50          IFOLOW =         1
          HESS   =GUESS               RESTAR =         F
          IHREP  =         0          HSSEND =         F
          NPRT   =         0          NPUN   =         0
          OPTTOL = 5.000E-04          RMIN   = 1.500E-03
          RMAX   = 1.000E-01          RLIM   = 7.000E-02
          DXMAX  = 3.000E-01          PURIFY =         F
          MOVIE  =         F          TRUPD  =         T
          TRMAX  = 5.000E-01          TRMIN  = 5.000E-02
          ITBMAT =         5          STPT   =         F
          STSTEP = 1.000E-02          PROJCT=          F
          FROZEN COORD(S)=   1   2   3


      ***** EQUILIBRIUM GEOMETRY LOCATED *****
            (SUBJECT TO   3 CONSTRAINT(S))
 COORDINATES OF ALL ATOMS ARE (ANGS)
   ATOM   CHARGE       X              Y              Z
 ------------------------------------------------------------
 C           6.0   2.1444316198   0.8935043224   0.8502049885
 C           6.0   1.6218811071   2.0648836678   1.6495267060
 CL         17.0  -0.0429718122   1.7360039160   2.2354705240
 CL         17.0   2.6953661109   2.4026467159   3.0483671206
 H           1.0   2.1765503565   0.0071334758   1.4707976849
 H           1.0   3.1420466375   1.1160836356   0.4910742366
 H           1.0   1.4941955017   0.7142934314   0.0023803379
 H           1.0   1.5639612577   2.9810998173   1.0931148463


                     --------------------
                     INTERNAL COORDINATES
                     --------------------

                 - - ATOMS - -         COORDINATE      COORDINATE
 NO.   TYPE    I  J  K  L  M  N        (BOHR,RAD)       (ANG,DEG)
 ----------------------------------------------------------------
   1 STRETCH   1  2                     2.8559905       1.5113252
   2 STRETCH   1  7                     2.0473070       1.0833883
   3 STRETCH   1  5                     2.0456405       1.0825064
   4 STRETCH   1  6                     2.0473262       1.0833984
   5 STRETCH   2  4                     3.3926810       1.7953296
   6 STRETCH   2  8                     2.0286197       1.0734994
   7 STRETCH   2  3                     3.3926910       1.7953349
   8 BEND      1  2  3                  1.9297122     110.5643664
   9 BEND      1  2  8                  1.9889052     113.9558766
  10 BEND      1  2  4                  1.9296100     110.5585119
  11 BEND      2  1  6                  1.9118327     109.5399476
  12 BEND      2  1  7                  1.9119572     109.5470794
  13 BEND      2  1  5                  1.9195080     109.9797049
  14 BEND      3  2  8                  1.8498815     105.9904019
  15 BEND      3  2  4                  1.9120256     109.5509980
  16 BEND      4  2  8                  1.8499474     105.9941774
  17 BEND      5  1  7                  1.9081620     109.3296266
  18 BEND      5  1  6                  1.9080939     109.3257296
  19 BEND      6  1  7                  1.9041767     109.1012877
  20 TORSION   3  2  1  6               3.1249542     179.0466864
  21 TORSION   3  2  1  7               1.0369220      59.4112547
  22 TORSION   3  2  1  5              -1.0607355     -60.7756670
  23 TORSION   4  2  1  7              -3.1257595    -179.0928272
  24 TORSION   4  2  1  6              -1.0377273     -59.4573955
  25 TORSION   4  2  1  5               1.0597683      60.7202510
  26 TORSION   5  1  2  8               3.1411147     179.9726171
  27 TORSION   6  1  2  8               1.0436191      59.7949706
  28 TORSION   7  1  2  8              -1.0444131     -59.8404611

          INTERNUCLEAR DISTANCES (ANGS.)


 =====================================================
   GAMESS/COSab RESULTS
 =====================================================

   Dielectric Constant                  = INFTY
   Basic Grid Size                      =                 1082
   Number of Segments                   =                   92
   Number of Segments located on spheres=                  180
   Number of Segments of the cavity     =                  333
   Solvent Radius (rsolv)               = 1.40
   Outlying Charge Error Method         = double cavity

 =====================================================

  Total solvated Energy (a.u.)          =  -997.1096580759
  Total Energy corrected (a.u.)         =  -997.1098006314

  Outlying charge effect (a.u.)         =    -0.0001425555
  Outlying charge effect (kcal/mol)     =    -0.0894549848

  Dielectric Energy (a.u.)              =    -0.0080769905
  Dielectric energy corr. (a.u.)        =    -0.0082195459

  Sum of polarization charges           =     0.0193888372
  Sum of polarization charges(cor.)     =    -0.0193888372

  Total surface area of cavity (A**2)   =  115.03
  Total volume of cavity (A**3)         =  104.16

 =====================================================
 NPS=                   333
NR.  ATOM  (X, Y, Z)(a.u.)                  CHARGE(e)  AREA(A**2) SIGMA(e/A**2)
   1   1   4.256120   4.160730  -1.244792   0.000183   0.232280   0.000787
   2   1   1.863434  -1.276171   0.767835   0.000203   0.232280   0.000875
   3   1   5.876074  -1.235889   0.055337  -0.000370   0.371649  -0.000996
   4   1   7.359260   0.426367   2.931782   0.000410   0.278737   0.001471
   5   1   4.057477   3.518499  -1.700201  -0.000073   0.278737  -0.000262
   6   1   4.217947   2.676028  -2.037745   0.000220   0.232280   0.000946
   7   1   5.193420   4.365051  -0.805459  -0.000487   0.278737  -0.001747
   8   1   5.254381   3.694165  -1.362645  -0.000114   0.232280  -0.000493
   9   1   6.892983  -0.211703   3.220538   0.000122   0.232280   0.000526
  10   1   5.607019  -1.711225   1.050356  -0.000362   0.418105  -0.000866
  11   1   2.198593  -1.603589   1.506616   0.000185   0.278737   0.000665
  12   1   4.901856   1.260289  -2.051131   0.000586   0.418105   0.001402
  13   1   5.611740   1.796347  -1.834439   0.000086   0.232280   0.000371
  14   1   1.421546  -1.022046   1.480204   0.000395   0.232280   0.001701
  15   1   2.937652  -1.642209   0.210877   0.000512   0.464561   0.001103
  16   1   4.612347  -1.708458   0.047294  -0.000252   0.418105  -0.000603
  17   1   6.634036  -0.960586   0.830840   0.000125   0.371649   0.000337
  18   1   7.252080  -0.232157   2.204519   0.000549   0.325193   0.001687
  19   1   4.790800  -0.095940  -1.642183  -0.000136   0.418105  -0.000326
  20   1   5.372213  -0.828644  -0.884631  -0.000430   0.464561  -0.000925
  21   1   6.533092  -0.375441  -0.360754  -0.000303   0.325193  -0.000932
  22   1   3.170871   3.810770  -1.393859  -0.000463   0.185824  -0.002490
  23   1   5.100975   2.752708  -1.864973   0.000543   0.371649   0.001460
  24   1   6.696938  -0.997716   1.880577   0.000165   0.278737   0.000590
  25   1   3.803282  -1.979613   0.730659  -0.000151   0.371649  -0.000406
  26   1   5.875801   0.331988  -1.413189  -0.000120   0.418105  -0.000286
  27   1   4.047387  -1.183324  -0.850389  -0.000438   0.464561  -0.000942
  28   1   7.213777  -0.348365   1.230864  -0.000034   0.185824  -0.000181
  29   2   5.393986   5.722543   0.762261  -0.000816   0.092912  -0.008780
  30   2   1.832734   7.375185   3.955814  -0.000690   0.092912  -0.007427
  31   2   5.733008   5.964905   1.411227  -0.001389   0.185824  -0.007477
  32   2   1.038493   4.596937   0.003466  -0.000354   0.046456  -0.007624
  33   2   1.275930   5.035623  -0.013158  -0.001842   0.185824  -0.009915
  34   2   2.215884   7.485279   3.967979  -0.000344   0.046456  -0.007410
  35   3  -3.639642   2.468085   5.522448  -0.002480   0.536887  -0.004618
  36   3  -0.518753   2.391544   7.969508   0.002544   0.439271   0.005790
  37   3  -0.920903  -0.363465   5.236051   0.002708   0.439271   0.006164
  38   3  -2.493375   1.333092   1.901455   0.002462   0.439271   0.005604
  39   3  -3.041149   5.185065   2.606087   0.002791   0.488079   0.005718
  40   3  -1.666995   6.048970   6.421842   0.002817   0.439271   0.006413
  41   3  -2.907683   2.509571   6.758997  -0.001393   0.585695  -0.002378
  42   3  -1.798583   2.328922   7.563954   0.001007   0.488079   0.002063
  43   3  -3.013542   1.203632   5.671909  -0.001427   0.585695  -0.002437
  44   3  -2.035427   0.234839   5.607182   0.001063   0.488079   0.002177
  45   3  -3.685184   1.859766   4.213971  -0.001647   0.585695  -0.002812
  46   3  -3.339505   1.680773   2.871067   0.000829   0.536887   0.001544
  47   3  -3.942813   3.409521   4.505145  -0.001664   0.536887  -0.003100
  48   3  -3.735389   4.412863   3.614281   0.000587   0.488079   0.001203
  49   3  -3.505461   3.881278   5.933540  -0.001833   0.683311  -0.002682
  50   3  -2.799377   5.081006   6.316650   0.001239   0.585695   0.002116
  51   3  -0.700472   1.201251   7.433851   0.002653   0.488079   0.005435
  52   3  -0.843981   0.211192   6.461514   0.003087   0.536887   0.005750
  53   3  -1.758645  -0.211093   4.180284   0.002373   0.488079   0.004863
  54   3  -2.231748   0.352725   2.878938   0.002729   0.536887   0.005084
  55   3  -2.956831   2.645791   1.707434   0.003142   0.585695   0.005364
  56   3  -3.190606   4.010507   2.032116   0.002989   0.585695   0.005103
  57   3  -2.923685   5.862530   3.713360   0.002978   0.536887   0.005546
  58   3  -2.443205   6.191476   5.201658   0.003396   0.585695   0.005799
  59   3  -1.577022   5.131467   7.281244   0.003305   0.585695   0.005643
  60   3  -1.230865   3.726403   7.896886   0.002658   0.536887   0.004950
  61   3   0.509928   1.623047   7.675604   0.003372   0.439271   0.007677
  62   3   1.200990   0.398701   6.473481   0.001571   0.244040   0.006438
  63   3   0.301897  -0.233977   5.808298   0.003725   0.488079   0.007633
  64   3  -0.369701  -0.582614   4.218678   0.003799   0.488079   0.007784
  65   3  -1.535275   0.629693   1.802451   0.003204   0.439271   0.007294
  66   3  -1.849009   2.122352   0.977766   0.004003   0.536887   0.007455
  67   3  -1.184666   3.404431   0.513038   0.002364   0.439271   0.005381
  68   3  -0.955891   4.804093   0.771724   0.002009   0.488079   0.004117
  69   3  -2.140190   5.047339   1.459199   0.003816   0.536887   0.007107
  70   3  -2.049342   6.243509   2.689891   0.003378   0.488079   0.006921
  71   3  -0.948972   6.761795   2.763125   0.002232   0.439271   0.005082
  72   3  -0.345741   7.145391   4.247409   0.002532   0.536887   0.004716
  73   3  -1.173538   6.782785   5.468883   0.003577   0.488079   0.007329
  74   3  -0.371966   6.153543   6.806842   0.003564   0.488079   0.007302
  75   3   0.006833   3.409642   8.095217   0.003377   0.488079   0.006919
  76   3  -2.042694   1.166512   6.811083   0.000652   0.585695   0.001113
  77   3  -2.906184   0.630201   4.174362   0.000416   0.683311   0.000609
  78   3  -3.767707   3.096085   3.048373   0.000245   0.585695   0.000418
  79   3  -3.452216   5.092271   4.825632   0.000873   0.634503   0.001375
  80   3  -2.409002   3.842121   7.269664   0.000646   0.585695   0.001104
  81   3   0.449524   0.622595   6.992268   0.002736   0.390463   0.007008
  82   3  -0.932091  -0.257310   2.895200   0.003745   0.536887   0.006976
  83   3  -2.169404   3.775832   0.999286   0.003436   0.488079   0.007041
  84   3  -1.722492   6.785038   4.044849   0.004336   0.585695   0.007403
  85   3  -0.281927   4.973916   7.702889   0.003322   0.488079   0.006807
  86   3  -1.207236   5.960614   1.663807   0.002470   0.439271   0.005623
  87   3  -0.105458   6.877354   5.663148   0.001989   0.341655   0.005823
  88   4   7.381078   5.168763   8.823177  -0.002476   0.536887  -0.004612
  89   4   7.949400   2.004320   6.408488   0.003033   0.488079   0.006215
  90   4   4.757051   2.184052   8.817071   0.003015   0.488079   0.006177
  91   4   3.510128   6.008938   8.976733   0.002631   0.439271   0.005990
  92   4   5.851016   8.224882   6.686734   0.002917   0.488079   0.005977
  93   4   8.661751   5.767045   4.883009   0.002604   0.439271   0.005927
  94   4   8.070913   4.075162   8.194922  -0.001545   0.585695  -0.002639
  95   4   8.158963   2.901243   7.470454   0.000892   0.488079   0.001828
  96   4   6.722782   3.979588   9.230224  -0.001386   0.585695  -0.002366
  97   4   5.854787   2.909764   9.191192   0.001072   0.488079   0.002197
  98   4   6.105747   5.595952   9.347849  -0.001418   0.585695  -0.002420
  99   4   4.801359   6.096763   9.296069   0.001135   0.536887   0.002114
 100   4   7.070124   6.502721   8.453062  -0.001575   0.536887  -0.002934
 101   4   6.660893   7.528604   7.663472   0.000695   0.488079   0.001423
 102   4   8.215235   5.713729   7.731705  -0.002079   0.683311  -0.003042
 103   4   8.690262   5.841897   6.374281   0.000853   0.585695   0.001457
 104   4   7.122321   1.709765   7.457371   0.002673   0.488079   0.005478
 105   4   6.008815   1.758405   8.296411   0.003108   0.536887   0.005790
 106   4   4.368153   3.275801   9.349768   0.002705   0.536887   0.005038
 107   4   3.791819   4.696886   9.405933   0.002782   0.536887   0.005182
 108   4   4.080176   7.167421   8.421238   0.003437   0.585695   0.005867
 109   4   4.987408   7.929268   7.634448   0.003274   0.585695   0.005591
 110   4   6.960235   7.920373   6.073779   0.002921   0.536887   0.005441
 111   4   8.077769   6.986306   5.415954   0.003108   0.585695   0.005306
 112   4   8.943403   4.627083   5.338601   0.003465   0.634503   0.005462
 113   4   8.711713   3.190753   6.067978   0.002767   0.585695   0.004724
 114   4   6.952105   1.180875   6.277233   0.003261   0.439271   0.007424
 115   4   4.838839   0.922135   7.121140   0.001690   0.244040   0.006926
 116   4   4.703122   1.379261   7.965709   0.002452   0.341655   0.007177
 117   4   3.547578   2.098574   8.340375   0.003195   0.488079   0.006546
 118   4   2.767382   5.207740   8.785682   0.002695   0.390463   0.006902
 119   4   2.797013   6.692149   8.019640   0.003908   0.536887   0.007278
 120   4   2.579022   7.283341   6.837993   0.001304   0.244040   0.005344
 121   4   3.305112   7.969788   5.541470   0.001938   0.488079   0.003972
 122   4   4.476483   8.340264   6.193384   0.003921   0.536887   0.007304
 123   4   5.903148   8.292276   5.236305   0.003393   0.488079   0.006953
 124   4   5.684083   7.979964   4.079035   0.002227   0.439271   0.005069
 125   4   6.766112   7.016328   3.294974   0.002538   0.536887   0.004727
 126   4   7.969422   6.513948   4.074965   0.003435   0.488079   0.007038
 127   4   8.443394   4.915819   3.851509   0.003545   0.488079   0.007262
 128   4   8.170245   2.258575   5.182209   0.003587   0.488079   0.007349
 129   4   7.197826   2.768912   8.488446   0.000625   0.585695   0.001068
 130   4   5.241842   4.458483   9.630820   0.000584   0.683311   0.000855
 131   4   5.695642   7.079605   8.623624   0.000571   0.585695   0.000976
 132   4   7.781748   7.075850   6.923303   0.000701   0.634503   0.001104
 133   4   8.792740   4.318823   6.889262   0.000337   0.585695   0.000576
 134   4   5.960974   1.049477   7.198891   0.002861   0.390463   0.007326
 135   4   3.145839   3.509674   8.946771   0.003609   0.488079   0.007393
 136   4   3.512323   7.831369   7.055370   0.004283   0.585695   0.007312
 137   4   7.065529   7.647719   4.551168   0.004209   0.585695   0.007187
 138   4   8.605264   3.464571   4.528688   0.003472   0.488079   0.007114
 139   4   3.930819   1.172603   7.281740   0.001061   0.195232   0.005437
 140   4   4.594004   8.279316   4.878541   0.002494   0.439271   0.005677
 141   4   7.577871   5.840317   3.087512   0.002494   0.488079   0.005111
 142   5   4.307193  -2.163849   3.900394  -0.003990   0.490692  -0.008131
 143   5   2.764291  -2.037546   2.874857  -0.002106   0.392554  -0.005365
 144   5   5.945315  -1.311021   3.740496  -0.001983   0.372926  -0.005317
 145   5   4.805900  -2.306518   2.363875  -0.002093   0.412182  -0.005079
 146   5   3.070087  -1.895984   3.920094  -0.002899   0.392554  -0.007386
 147   5   3.809791  -1.321502   4.819237  -0.003849   0.451437  -0.008527
 148   5   5.165172  -1.282633   4.581703  -0.003206   0.431809  -0.007425
 149   5   5.439457  -2.007396   3.217413  -0.002766   0.431809  -0.006406
 150   5   3.770482  -2.414472   2.628669  -0.002442   0.392554  -0.006221
 151   6   8.242200   2.129041   0.077341  -0.004157   0.490692  -0.008472
 152   6   7.217443   4.090829   0.242510  -0.002817   0.372926  -0.007555
 153   6   6.778803   3.571626  -0.857653  -0.001919   0.372926  -0.005144
 154   6   7.388892   1.420692  -0.930777  -0.002476   0.412182  -0.006007
 155   6   8.120481   0.985130   1.011075  -0.002067   0.372926  -0.005542
 156   6   7.743787   3.206849  -0.324126  -0.003434   0.431809  -0.007954
 157   6   7.058182   2.425148  -1.235239  -0.002743   0.471065  -0.005823
 158   6   7.810341   0.877048  -0.077032  -0.002477   0.412182  -0.006010
 159   6   8.307200   1.880371   1.534500  -0.003344   0.471065  -0.007098
 160   6   8.147706   3.181347   0.898331  -0.003416   0.431809  -0.007911
 161   7   1.476467   0.914869  -2.003264  -0.004174   0.490692  -0.008507
 162   7   3.117046   1.693278  -2.410258  -0.001823   0.372926  -0.004887
 163   7   1.736053   2.840993  -1.616820  -0.002393   0.353299  -0.006772
 164   7   1.188690  -0.400959  -0.540393  -0.002356   0.412182  -0.005717
 165   7   2.855307  -0.292892  -1.821874  -0.002171   0.412182  -0.005267
 166   7   2.188988   2.164140  -2.224676  -0.002799   0.431809  -0.006481
 167   7   0.953844   1.934872  -1.477640  -0.003416   0.412182  -0.008289
 168   7   0.714307   0.605847  -1.011578  -0.003423   0.451437  -0.007582
 169   7   1.858852  -0.407680  -1.415204  -0.003195   0.471065  -0.006783
 170   7   2.757878   0.675416  -2.356854  -0.003248   0.471065  -0.006895
 171   8   2.995383   7.789399   0.888656  -0.004921   0.412182  -0.011940
 172   8   2.024305   7.883010   2.393709  -0.004867   0.412182  -0.011807
 173   8   1.522760   6.550272   0.293141  -0.004665   0.412182  -0.011318
 174   8   2.724981   6.233787  -0.305292  -0.004258   0.412182  -0.010330
 175   8   4.580845   7.008236   0.839657  -0.004145   0.392554  -0.010560
 176   8   3.018642   8.088923   2.108189  -0.005096   0.431809  -0.011802
 177   8   1.630967   7.524863   1.226985  -0.005177   0.471065  -0.010990
 178   8   2.434167   7.173176   0.223786  -0.004085   0.353299  -0.011562
 179   8   3.806747   6.806506   0.082177  -0.005387   0.490692  -0.010977
 180   8   4.051878   7.766580   1.533967  -0.004884   0.431809  -0.011311
 181   1   5.898490   4.693210   0.226104  -0.000344   0.027356  -0.012570
 182   2   5.705952   5.047805   0.508883  -0.000401   0.027356  -0.014662
 183   6   6.157171   4.539516   0.206609  -0.000278   0.027356  -0.010173
 184   1   2.116888   3.771231  -0.895017  -0.000307   0.027347  -0.011229
 185   2   1.963146   4.135281  -0.600734  -0.000363   0.027347  -0.013284
 186   7   2.000110   3.525978  -1.025888  -0.000346   0.027347  -0.012636
 187   1   5.021145   5.075812  -0.039665  -0.000343   0.020089  -0.017090
 188   2   4.871113   5.484017   0.191549  -0.000393   0.020089  -0.019543
 189   8   4.691455   5.719707   0.201400  -0.000360   0.020089  -0.017911
 190   1   2.746767   4.521968  -0.714889  -0.000344   0.020089  -0.017102
 191   2   2.565334   4.922526  -0.492998  -0.000345   0.020089  -0.017153
 192   8   2.593686   5.208870  -0.421392  -0.000357   0.020089  -0.017767
 193   2   5.327108   5.371159   0.410884  -0.001056   0.119292  -0.008853
 194   1   5.456465   4.832204  -0.050218  -0.000797   0.119292  -0.006684
 195   2   2.286777   4.666834  -0.544553  -0.001114   0.119870  -0.009292
 196   1   2.403370   4.051634  -0.902265  -0.000801   0.119870  -0.006685
 197   1   1.582939  -0.970147   2.816154  -0.000139   0.072039  -0.001923
 198   3   0.896488  -0.620497   3.269068   0.000192   0.072039   0.002665
 199   5   1.788409  -1.097244   2.998963  -0.000328   0.072039  -0.004558
 200   1   0.731331  -0.092724   0.946167  -0.000194   0.073101  -0.002647
 201   3   0.057677   0.241722   1.428939   0.000175   0.073101   0.002392
 202   7   0.716314   0.007065   0.659940  -0.000327   0.073101  -0.004473
 203   3  -0.079900  -0.175967   2.370360   0.002404   0.604273   0.003979
 204   1   1.108419  -0.706883   2.062264  -0.000045   0.594550  -0.000076
 205   1   6.392734   0.201721   4.241411  -0.000164   0.072064  -0.002270
 206   4   6.519996   0.749399   4.935959   0.000194   0.072064   0.002693
 207   5   6.199573  -0.022539   4.306133  -0.000298   0.072064  -0.004142
 208   1   7.618566   1.586184   2.988734  -0.000180   0.073087  -0.002464
 209   4   7.727316   2.111064   3.703818   0.000230   0.073087   0.003148
 210   6   7.735260   1.718118   2.741573  -0.000324   0.073087  -0.004438
 211   4   7.301043   1.428747   4.849223   0.002600   0.604000   0.004305
 212   1   7.243548   0.983089   3.589570  -0.000055   0.594281  -0.000092
 213   5   2.234170  -1.568739   2.694847  -0.000339   0.066343  -0.005114
 214   5   2.991483  -1.989942   2.054079  -0.000767   0.146421  -0.005237
 215   5   4.248885  -2.158308   1.748544  -0.000886   0.146421  -0.006049
 216   5   5.467219  -1.861439   2.109496  -0.000908   0.146421  -0.006204
 217   5   6.172697  -1.214784   2.996567  -0.000755   0.146421  -0.005154
 218   5   6.225813  -0.596105   3.877439  -0.000405   0.066343  -0.006101
 219   1   2.292915  -1.569721   2.110989  -0.000617   0.146238  -0.004222
 220   1   3.513876  -2.005206   1.425831  -0.000663   0.146238  -0.004536
 221   1   4.977770  -1.929223   1.458599  -0.000789   0.146238  -0.005395
 222   1   6.115314  -1.371320   2.196551  -0.000667   0.146238  -0.004563
 223   1   6.484135  -0.548457   3.352710  -0.000630   0.146238  -0.004306
 224   6   7.870384   1.267036   2.187552  -0.000362   0.069372  -0.005222
 225   6   7.722028   0.554055   1.333547  -0.000973   0.154439  -0.006303
 226   6   7.310677   0.341033   0.058840  -0.001066   0.154439  -0.006903
 227   6   6.781829   0.978479  -1.015147  -0.001049   0.154439  -0.006793
 228   6   6.358986   2.196998  -1.434528  -0.000878   0.154439  -0.005685
 229   6   6.220848   3.481622  -1.022066  -0.001007   0.154439  -0.006518
 230   6   6.342226   4.247212  -0.210392  -0.000498   0.069372  -0.007183
 231   1   7.616263   0.725909   2.150374  -0.000744   0.151651  -0.004908
 232   1   7.300690   0.021262   0.837026  -0.000810   0.151651  -0.005341
 233   1   6.742311   0.273325  -0.557848  -0.000902   0.151651  -0.005951
 234   1   6.177108   1.375571  -1.444749  -0.000725   0.151651  -0.004782
 235   1   5.843945   2.862171  -1.448859  -0.000704   0.151651  -0.004639
 236   1   5.883622   4.104862  -0.568439  -0.001059   0.151651  -0.006986
 237   7   2.202385   3.237914  -1.437815  -0.000451   0.069375  -0.006500
 238   7   3.037646   2.705677  -1.965915  -0.000965   0.154449  -0.006246
 239   7   3.694334   1.547469  -2.224740  -0.000954   0.154449  -0.006178
 240   7   3.681297   0.222565  -1.934683  -0.001016   0.154449  -0.006578
 241   7   3.004046  -0.709027  -1.218345  -0.001035   0.154449  -0.006704
 242   7   1.948840  -0.853543  -0.378505  -0.000838   0.154449  -0.005426
 243   7   1.094082  -0.385043   0.178021  -0.000451   0.069375  -0.006497
 244   1   2.788741   3.350420  -1.485985  -0.001051   0.151655  -0.006933
 245   1   3.801654   2.364448  -2.054425  -0.000738   0.151655  -0.004869
 246   1   4.183918   0.889733  -2.035877  -0.000796   0.151655  -0.005246
 247   1   3.773957  -0.450397  -1.438180  -0.000890   0.151655  -0.005868
 248   1   2.745054  -1.089496  -0.513968  -0.000823   0.151655  -0.005427
 249   1   1.532104  -0.757431   0.346113  -0.000717   0.151655  -0.004727
 250   8   4.247505   5.809616  -0.039357  -0.002897   0.242089  -0.011967
 251   8   3.009969   5.508258  -0.406761  -0.002878   0.242089  -0.011890
 252   1   3.984552   4.691252  -0.627831  -0.005076   0.657595  -0.007719
 253   2   1.818238   7.162339   4.642963  -0.000922   0.090304  -0.010205
 254   3   1.283463   7.019010   4.828294  -0.000685   0.090304  -0.007581
 255   4   2.180540   7.237403   5.094600  -0.000676   0.090304  -0.007486
 256   2   0.815082   3.889429   0.020125  -0.001433   0.122804  -0.011670
 257   3   0.285055   3.771654   0.239214  -0.000941   0.122804  -0.007659
 258   7   0.963706   3.274511  -0.374612  -0.001318   0.122804  -0.010735
 259   2   1.381327   7.280424   3.486785  -0.000502   0.035569  -0.014107
 260   3   0.848311   7.138599   3.673298  -0.000396   0.035569  -0.011144
 261   8   1.481351   7.368583   3.221422  -0.000504   0.035569  -0.014181
 262   2   0.717575   5.479233   0.589900  -0.000567   0.035569  -0.015936
 263   3   0.192137   5.357971   0.809485  -0.000423   0.035569  -0.011893
 264   8   0.877347   5.729525   0.585298  -0.000523   0.035569  -0.014691
 265   3   0.720381   7.123747   4.394939  -0.000366   0.174609  -0.002094
 266   2   1.434674   7.269037   3.952954  -0.001196   0.172363  -0.006937
 267   3  -0.144875   4.770081   0.615429  -0.000699   0.247831  -0.002821
 268   2   0.651943   4.679576   0.275575  -0.001928   0.244645  -0.007881
 269   2   6.344238   5.236495   1.661605  -0.001407   0.122791  -0.011460
 270   4   6.674690   5.328190   2.136144  -0.000970   0.122791  -0.007901
 271   6   6.698961   4.671919   1.327827  -0.001349   0.122791  -0.010983
 272   2   5.447363   6.631030   1.994172  -0.000568   0.035564  -0.015964
 273   4   5.775638   6.717600   2.467190  -0.000416   0.035564  -0.011684
 274   8   5.224795   6.788210   1.876055  -0.000543   0.035564  -0.015278
 275   2   2.691098   7.599292   3.875537  -0.000550   0.035564  -0.015455
 276   4   3.050843   7.674806   4.327075  -0.000402   0.035564  -0.011309
 277   8   2.716636   7.669313   3.588068  -0.000515   0.035564  -0.014472
 278   4   6.509994   6.152257   2.498198  -0.000710   0.247726  -0.002866
 279   2   5.862905   6.189263   1.916427  -0.001886   0.244542  -0.007713
 280   4   2.903523   7.686313   4.895395  -0.000420   0.174624  -0.002404
 281   2   2.289359   7.445798   4.355367  -0.001138   0.172378  -0.006602
 282   6   6.530337   4.479967   0.429368  -0.001438   0.182575  -0.007875
 283   2   6.037801   5.279617   1.040299  -0.001719   0.257422  -0.006680
 284   7   1.475294   3.216851  -0.953789  -0.001493   0.182005  -0.008205
 285   2   1.489162   4.199301  -0.415459  -0.001759   0.256620  -0.006856
 286   8   5.010332   6.716884   1.296060  -0.000942   0.078379  -0.012023
 287   8   4.733100   6.206491   0.484468  -0.000942   0.078379  -0.012013
 288   2   5.105549   6.161368   0.999254  -0.002650   0.165212  -0.016037
 289   8   2.209664   5.591990  -0.264710  -0.000897   0.078375  -0.011440
 290   8   1.367099   5.829666   0.214384  -0.001000   0.078375  -0.012755
 291   2   1.685713   5.328562  -0.016082  -0.002573   0.165206  -0.015576
 292   8   2.045477   7.640074   3.124922  -0.001023   0.081293  -0.012578
 293   2   2.137077   7.530303   3.562492  -0.001226   0.099318  -0.012346
 294   3   2.516529   0.620456   5.905925  -0.000813   0.274870  -0.002957
 295   4   3.422155   0.840889   6.174798  -0.000948   0.274870  -0.003447
 296   5   3.305158   0.125939   5.406028  -0.002194   0.274870  -0.007980
 297   4   2.181955   7.324508   5.755398   0.000122   0.354954   0.000342
 298   4   1.961475   6.409568   7.248437   0.002624   0.710372   0.003694
 299   4   2.098032   4.543466   8.318796   0.003965   0.710372   0.005582
 300   4   2.670559   2.478640   8.083515   0.003250   0.710372   0.004575
 301   4   3.290202   1.180755   7.060564   0.000890   0.354954   0.002507
 302   3   0.804359   6.701138   5.965884   0.001022   0.710372   0.001438
 303   3   0.688304   5.244947   7.551032   0.003441   0.710372   0.004844
 304   3   1.062871   3.168469   7.992154   0.003912   0.710372   0.005506
 305   3   1.772140   1.336077   7.105627   0.002644   0.710372   0.003723
 306   5   3.040679  -0.642596   5.027067  -0.001750   0.272304  -0.006426
 307   5   2.252413  -1.165467   3.921231  -0.003347   0.550521  -0.006079
 308   3   1.477921  -0.244549   5.283606   0.002107   0.782765   0.002691
 309   3   0.629356  -0.729137   3.916193   0.001723   0.397904   0.004329
 310   7   0.524116   0.211509   0.241830  -0.000935   0.258264  -0.003621
 311   7   0.370884   1.430109  -0.421197  -0.003626   0.521592  -0.006951
 312   7   0.776220   2.728051  -0.736029  -0.001579   0.258264  -0.006113
 313   3  -0.670195   1.016567   0.973698   0.002647   0.742513   0.003564
 314   3  -0.487296   2.842289   0.264272   0.000602   0.742513   0.000811
 315   8   0.898779   6.142618   0.716665  -0.002266   0.186030  -0.012182
 316   8   0.950632   6.971536   1.693080  -0.005137   0.377640  -0.013603
 317   8   1.377600   7.441972   2.806437  -0.002242   0.186030  -0.012053
 318   3  -0.171230   6.053453   1.435369  -0.001401   0.525846  -0.002663
 319   3   0.174456   6.991525   2.944085  -0.001299   0.525846  -0.002471
 320   5   5.904889  -0.334202   4.596012  -0.000928   0.272606  -0.003404
 321   5   4.572089  -0.428095   5.176900  -0.003938   0.551156  -0.007145
 322   4   5.857999   0.620399   5.919846   0.002646   0.783576   0.003377
 323   4   4.267104   0.604210   6.467621   0.000868   0.398333   0.002179
 324   6   7.257056   4.307245   1.187508  -0.001653   0.258130  -0.006402
 325   6   7.946235   3.276359   1.826520  -0.003647   0.521313  -0.006995
 326   6   8.007281   2.035681   2.461360  -0.000943   0.258130  -0.003655
 327   4   7.629883   4.819903   2.673568   0.000647   0.742147   0.000872
 328   4   8.174167   3.171893   3.597743   0.002510   0.742147   0.003382
 329   8   2.977263   7.831410   3.281277  -0.002358   0.186009  -0.012678
 330   8   4.070128   7.731046   2.619200  -0.005191   0.377596  -0.013747
 331   8   4.965587   7.132922   1.924092  -0.002263   0.186009  -0.012166
 332   4   3.991197   7.920735   4.077127  -0.001373   0.525791  -0.002612
 333   4   5.426674   7.416460   3.097302  -0.001330   0.525791  -0.002529
 =====================================================

              1269826  WORDS OF DYNAMIC MEMORY USED
 EXECUTION OF GAMESS TERMINATED NORMALLY Tue Nov 22 18:09:31 2016
 DDI: 263640 bytes (0.3 MB / 0 MWords) used by master data server.

 ----------------------------------------
 CPU timing information for all processes
 ========================================
 0: 94.564 + 0.108 = 94.672
 ----------------------------------------
 ddikick.x: exited gracefully.
