----- GAMESS execution script -----

          ******************************************************
          *         GAMESS VERSION =  5 DEC 2014 (R1)          *
          *             FROM IOWA STATE UNIVERSITY             *
          * M.W.SCHMIDT, K.K.BALDRIDGE, J.A.BOATZ, S.T.ELBERT, *
          *   M.S.GORDON, J.H.JENSEN, S.KOSEKI, N.MATSUNAGA,   *
          *          K.A.NGUYEN, S.J.SU, T.L.WINDUS,           *
          *       TOGETHER WITH M.DUPUIS, J.A.MONTGOMERY       *
          *         J.COMPUT.CHEM.  14, 1347-1363(1993)        *
          **************** 64 BIT LINUX VERSION ****************

 EXECUTION OF GAMESS BEGUN Tue Nov 22 18:09:26 2016

            ECHO OF THE FIRST FEW INPUT CARDS -
 INPUT CARD>! SELECT RESTRICTED HARTREE-FOCK AS DEFAULT                                     
 INPUT CARD>$contrl scftyp=rhf $end                                                         
 INPUT CARD>                                                                                
 INPUT CARD>! THEORY: HF OR DFT                                                             
 INPUT CARD> $contrl mplevl=0 $end                                                          
 INPUT CARD>                                                                                
 INPUT CARD> $system timlim=10000 mwords=20 $end                                            
 INPUT CARD> $SCF DIRSCF=.TRUE. $end                                                        
 INPUT CARD>                                                                                
 INPUT CARD>                                                                                
 INPUT CARD>! BASIS SETS                                                                    
 INPUT CARD>! 6-311G(d,p)                                                                   
 INPUT CARD> $BASIS GBASIS=N311 NGAUSS=6 NDFUNC=1 NPFUNC=1 $END                             
 INPUT CARD>                                                                                
 INPUT CARD>! One of the following                                                          
 INPUT CARD> $guess guess=HUCKEL $end                                                       
 INPUT CARD>                                                                                
 INPUT CARD> $statpt projct=.FALSE. $end                                                    
 INPUT CARD> $STATPT IFREEZ(1)=1,2,3 $END                                                   
 INPUT CARD>                                                                                
 INPUT CARD>! Optimize the geometry with COSMO effects                                      
 INPUT CARD> $statpt opttol=0.0005 nstep=50 $end                                            
 INPUT CARD> $contrl nzvar=1 $end                                                           
 INPUT CARD> $zmat dlc=.t. auto=.t. $end                                                    
 INPUT CARD> $contrl runtyp=OPTIMIZE maxit=200 $end                                         
 INPUT CARD>                                                                                
 INPUT CARD>! Run COSMO on perfect conductor                                                
 INPUT CARD> $COSGMS PRFCND=.TRUE. $end                                                     
 INPUT CARD>                                                                                
 INPUT CARD>! Specifying RSOLV                                                              
 INPUT CARD> $COSGMS COSRAD = 1.4 $end                                                      
 INPUT CARD>                                                                                
 INPUT CARD>! available memory                                                              
 INPUT CARD> $SYSTEM MWORDS=40 $END                                                         
 INPUT CARD>                                                                                
 INPUT CARD> $DATA                                                                          
 INPUT CARD>http://cactus.nci.nih.gov/chemical/structure/1,1-DIMETHYLCYCLOHEXANE/file?format
 INPUT CARD>C1                                                                              
 INPUT CARD>C      6.0     -1.0259000000    0.0000000000    1.4994000000                    
 INPUT CARD>C      6.0     -0.8899000000   -0.0000000000   -0.0246000000                    
 INPUT CARD>C      6.0     -0.1262000000    1.2492000000   -0.4685000000                    
 INPUT CARD>C      6.0      1.2653000000    1.2492000000    0.1677000000                    
 INPUT CARD>C      6.0      2.0290000000    0.0000000000   -0.2762000000                    
 INPUT CARD>C      6.0      1.2653000000   -1.2492000000    0.1677000000                    
 INPUT CARD>C      6.0     -0.1262000000   -1.2492000000   -0.4685000000                    
 INPUT CARD>C      6.0     -2.2814000000    0.0000000000   -0.6607000000                    
 INPUT CARD>H      1.0     -1.5700000000    0.8900000000    1.8156000000                    
 INPUT CARD>H      1.0     -1.5700000000   -0.8900000000    1.8156000000                    
 INPUT CARD>H      1.0     -0.0346000000    0.0000000000    1.9526000000                    
 INPUT CARD>H      1.0     -0.0294000000    1.2492000000   -1.5542000000                    
   40000000 WORDS OF MEMORY AVAILABLE

     BASIS OPTIONS
     -------------
     GBASIS=N311         IGAUSS=       6      POLAR=POPN311 
     NDFUNC=       1     NFFUNC=       0     DIFFSP=       F
     NPFUNC=       1      DIFFS=       F     BASNAM=        


     RUN TITLE
     ---------
 http://cactus.nci.nih.gov/chemical/structure/1,1-DIMETHYLCYCLOHEXANE/file?format

 THE POINT GROUP OF THE MOLECULE IS C1      
 THE ORDER OF THE PRINCIPAL AXIS IS     0

 ATOM      ATOMIC                      COORDINATES (BOHR)
           CHARGE         X                   Y                   Z
 C           6.0    -1.9386698908        0.0000000000        2.8334551460
 C           6.0    -1.6816671565       -0.0000000000       -0.0464872593
 C           6.0    -0.2384834197        2.3606457039       -0.8853366252
 C           6.0     2.3910702923        2.3606457039        0.3169070481
 C           6.0     3.8342540291        0.0000000000       -0.5219423178
 C           6.0     2.3910702923       -2.3606457039        0.3169070481
 C           6.0    -0.2384834197       -2.3606457039       -0.8853366252
 C           6.0    -4.3112208684        0.0000000000       -1.2485419601
 H           1.0    -2.9668698007        1.6818561291        3.4309865033
 H           1.0    -2.9668698007       -1.6818561291        3.4309865033
 H           1.0    -0.0653845192        0.0000000000        3.6898789636
 H           1.0    -0.0555579440        2.3606457039       -2.9370121301
 H           1.0    -1.2666833296        4.0425018329       -0.2876162953
 H           1.0     3.4190812296        4.0425018329       -0.2808132818
 H           1.0     2.2079558441        2.3606457039        2.3685825530
 H           1.0     4.0171795047        0.0000000000       -2.5736178227
 H           1.0     5.7075394007        0.0000000000        0.3344814998
 H           1.0     3.4190812296       -4.0425018329       -0.2808132818
 H           1.0     2.2079558441       -2.3606457039        2.3685825530
 H           1.0    -1.2666833296       -4.0425018329       -0.2876162953
 H           1.0    -0.0555579440       -2.3606457039       -2.9370121301
 H           1.0    -5.3394207783        1.6818561291       -0.6510106028
 H           1.0    -4.1282953928        0.0000000000       -3.3002174650
 H           1.0    -5.3394207783       -1.6818561291       -0.6510106028

          INTERNUCLEAR DISTANCES (ANGS.)




     $CONTRL OPTIONS
     ---------------
 SCFTYP=RHF          RUNTYP=OPTIMIZE     EXETYP=RUN     
 MPLEVL=       0     CITYP =NONE         CCTYP =NONE         VBTYP =NONE    
 DFTTYP=NONE         TDDFT =NONE    
 MULT  =       1     ICHARG=       0     NZVAR =       1     COORD =UNIQUE  
 PP    =NONE         RELWFN=NONE         LOCAL =NONE         NUMGRD=       F
 ISPHER=      -1     NOSYM =       0     MAXIT =     200     UNITS =ANGS    
 PLTORB=       F     MOLPLT=       F     AIMPAC=       F     FRIEND=        
 NPRINT=       7     IREST =       0     GEOM  =INPUT   
 NORMF =       0     NORMP =       0     ITOL  =      20     ICUT  =       9
 INTTYP=BEST         GRDTYP=BEST         QMTTOL= 1.0E-06

     $SYSTEM OPTIONS
     ---------------
  REPLICATED MEMORY=    40000000 WORDS (ON EVERY NODE).
 DISTRIBUTED MEMDDI=           0 MILLION WORDS IN AGGREGATE,
 MEMDDI DISTRIBUTED OVER   1 PROCESSORS IS           0 WORDS/PROCESSOR.
 TOTAL MEMORY REQUESTED ON EACH PROCESSOR=    40000000 WORDS.
 TIMLIM=       10000.00 MINUTES, OR       6.9 DAYS.
 PARALL= F  BALTYP=  DLB     KDIAG=    0  COREFL= F
 MXSEQ2=     300 MXSEQ3=     150  mem10=         0

     $COSGMS OPTIONS
     ---------------
     EPSI  =   INFTY     NSPA  =      92     COSRAD=    1.40
     DISEX =   10.00     OUTCHG=DBLCAV       COSBUG=       F
     COSWRT=       F     DCOSMO=       F

     SYMMETRY COORDINATES WILL NOT BE USED FOR 
     THE COSMO CALCULATION, EVEN IF SPECIFIED:
         -- SWITCHING TO C1 POINT GROUP --


     DEFINITION OF CAVITY
     ---------------------------
     ATOM         COORDINATES           RADIUS 
     1   -1.9387    0.0000    2.8335    2.0000
     2   -1.6817   -0.0000   -0.0465    2.0000
     3   -0.2385    2.3606   -0.8853    2.0000
     4    2.3911    2.3606    0.3169    2.0000
     5    3.8343    0.0000   -0.5219    2.0000
     6    2.3911   -2.3606    0.3169    2.0000
     7   -0.2385   -2.3606   -0.8853    2.0000
     8   -4.3112    0.0000   -1.2485    2.0000
     9   -2.9669    1.6819    3.4310    1.3000
    10   -2.9669   -1.6819    3.4310    1.3000
    11   -0.0654    0.0000    3.6899    1.3000
    12   -0.0556    2.3606   -2.9370    1.3000
    13   -1.2667    4.0425   -0.2876    1.3000
    14    3.4191    4.0425   -0.2808    1.3000
    15    2.2080    2.3606    2.3686    1.3000
    16    4.0172    0.0000   -2.5736    1.3000
    17    5.7075    0.0000    0.3345    1.3000
    18    3.4191   -4.0425   -0.2808    1.3000
    19    2.2080   -2.3606    2.3686    1.3000
    20   -1.2667   -4.0425   -0.2876    1.3000
    21   -0.0556   -2.3606   -2.9370    1.3000
    22   -5.3394    1.6819   -0.6510    1.3000
    23   -4.1283    0.0000   -3.3002    1.3000
    24   -5.3394   -1.6819   -0.6510    1.3000

          ----------------
          PROPERTIES INPUT
          ----------------

     MOMENTS            FIELD           POTENTIAL          DENSITY
 IEMOM =       1   IEFLD =       0   IEPOT =       0   IEDEN =       0
 WHERE =COMASS     WHERE =NUCLEI     WHERE =NUCLEI     WHERE =NUCLEI  
 OUTPUT=BOTH       OUTPUT=BOTH       OUTPUT=BOTH       OUTPUT=BOTH    
 IEMINT=       0   IEFINT=       0                     IEDINT=       0
                                                       MORB  =       0
          EXTRAPOLATION IN EFFECT
          SOSCF IN EFFECT
 ORBITAL PRINTING OPTION: NPREO=     1   248     2     1

     -------------------------------
     INTEGRAL TRANSFORMATION OPTIONS
     -------------------------------
     NWORD  =            0
     CUTOFF = 1.0E-09     MPTRAN =       0
     DIRTRF =       T     AOINTS =DUP     

          ----------------------
          INTEGRAL INPUT OPTIONS
          ----------------------
 NOPK  =       1 NORDER=       0 SCHWRZ=       T


 -----------------------------------------------
  STATISTICS ON AUTOMATIC COORDINATE GENERATION 
 -----------------------------------------------
  NUMBER OF USER SPECIFIED BONDS                             0
  NUMBER OF BONDS                                           24
  NUMBER OF ANGLES                                          48
  NUMBER OF TORSIONS                                        72
  NUMBER OF EXTRA COORD.                                     0
  NUMBER OF EXTRA COORD. FOR CONSTRAINTS                     0
  NUMBER OF CONSTRAINED COORD.                               0

  TOTAL NUMBER OF PRIMITIVES                               144
 -----------------------------------------------

   --- ENCODED Z MATRIX ---
 COORD  TYPE   I   J   K   L   M   N
    1      1    1  11
    2      1    1  10
    3      1    1   9
    4      1    1   2
    5      1    2   7
    6      1    2   8
    7      1    2   3
    8      1    3  13
    9      1    3   4
   10      1    3  12
   11      1    4  15
   12      1    4  14
   13      1    4   5
   14      1    5   6
   15      1    5  17
   16      1    5  16
   17      1    6   7
   18      1    6  19
   19      1    6  18
   20      1    7  21
   21      1    7  20
   22      1    8  24
   23      1    8  23
   24      1    8  22
   25      2    1   2   7
   26      2    1   2   3
   27      2    1   2   8
   28      2    2   1  10
   29      2    2   8  22
   30      2    2   3  12
   31      2    2   8  23
   32      2    2   8  24
   33      2    2   3   4
   34      2    2   1  11
   35      2    2   3  13
   36      2    2   7  21
   37      2    2   7   6
   38      2    2   7  20
   39      2    2   1   9
   40      2    3   4  14
   41      2    3   4  15
   42      2    3   4   5
   43      2    3   2   7
   44      2    3   2   8
   45      2    4   5   6
   46      2    4   3  12
   47      2    4   3  13
   48      2    4   5  16
   49      2    4   5  17
   50      2    5   4  14
   51      2    5   4  15
   52      2    5   6  18
   53      2    5   6  19
   54      2    5   6   7
   55      2    6   7  20
   56      2    6   7  21
   57      2    6   5  16
   58      2    6   5  17
   59      2    7   6  19
   60      2    7   2   8
   61      2    7   6  18
   62      2    9   1  11
   63      2    9   1  10
   64      2   10   1  11
   65      2   12   3  13
   66      2   14   4  15
   67      2   16   5  17
   68      2   18   6  19
   69      2   20   7  21
   70      2   22   8  23
   71      2   22   8  24
   72      2   23   8  24
   73      3    1   2   7  20
   74      3    1   2   3  12
   75      3    1   2   7  21
   76      3    1   2   3   4
   77      3    1   2   3  13
   78      3    1   2   8  22
   79      3    1   2   8  23
   80      3    1   2   8  24
   81      3    1   2   7   6
   82      3    2   7   6  18
   83      3    2   7   6  19
   84      3    2   7   6   5
   85      3    2   3   4   5
   86      3    2   3   4  14
   87      3    2   3   4  15
   88      3    3   2   1  11
   89      3    3   2   8  23
   90      3    3   2   7  20
   91      3    3   2   7   6
   92      3    3   2   8  22
   93      3    3   2   7  21
   94      3    3   4   5  16
   95      3    3   2   1   9
   96      3    3   4   5  17
   97      3    3   4   5   6
   98      3    3   2   8  24
   99      3    3   2   1  10
  100      3    4   5   6  18
  101      3    4   5   6  19
  102      3    4   5   6   7
  103      3    4   3   2   8
  104      3    4   3   2   7
  105      3    5   6   7  20
  106      3    5   6   7  21
  107      3    5   4   3  12
  108      3    5   4   3  13
  109      3    6   7   2   8
  110      3    6   5   4  14
  111      3    6   5   4  15
  112      3    7   2   1  11
  113      3    7   2   1   9
  114      3    7   6   5  16
  115      3    7   6   5  17
  116      3    7   2   8  23
  117      3    7   2   3  12
  118      3    7   2   8  22
  119      3    7   2   3  13
  120      3    7   2   8  24
  121      3    7   2   1  10
  122      3    8   2   1   9
  123      3    8   2   1  10
  124      3    8   2   7  20
  125      3    8   2   3  12
  126      3    8   2   1  11
  127      3    8   2   7  21
  128      3    8   2   3  13
  129      3   12   3   4  14
  130      3   12   3   4  15
  131      3   13   3   4  14
  132      3   13   3   4  15
  133      3   14   4   5  17
  134      3   14   4   5  16
  135      3   15   4   5  17
  136      3   15   4   5  16
  137      3   16   5   6  19
  138      3   16   5   6  18
  139      3   17   5   6  19
  140      3   17   5   6  18
  141      3   18   6   7  21
  142      3   18   6   7  20
  143      3   19   6   7  21
  144      3   19   6   7  20

          INDEP./SYM. INTERNAL COORDINATES
          --------------------------------
 CRD  1=  -0.1354 (  9)  0.1354 ( 17) -0.3083 ( 25)  0.3083 ( 26) -0.1286 ( 28)
          -0.1250 ( 29) -0.1128 ( 30)  0.1250 ( 32)  0.1128 ( 36)  0.1286 ( 39)
          -0.2977 ( 44)  0.2977 ( 60) -0.1139 ( 73) -0.1368 ( 76) -0.1139 ( 77)
           0.1489 ( 78)  0.1489 ( 80) -0.1368 ( 81) -0.1117 ( 84) -0.1117 ( 85)
          -0.1152 ( 88) -0.1145 ( 89)  0.1026 ( 93) -0.1303 (103) -0.1303 (109)
          -0.1152 (112) -0.1145 (116)  0.1026 (117)  0.1344 (122)  0.1344 (123)
          -0.1073 (124) -0.1073 (128)
 CRD  2=   0.1154 (  4)  0.1751 ( 25)  0.1751 ( 26) -0.2921 ( 27)  0.2165 ( 33)
           0.2356 ( 34)  0.2165 ( 37) -0.1264 ( 42) -0.2307 ( 43) -0.1719 ( 46)
          -0.1264 ( 54) -0.1719 ( 56) -0.1511 ( 73)  0.1685 ( 74) -0.1685 ( 75)
           0.2705 ( 76)  0.1511 ( 77) -0.2705 ( 81)
 CRD  3=   0.2091 (  4) -0.1872 (  5) -0.1693 (  6) -0.1872 (  7) -0.1440 (  9)
          -0.1440 ( 17)  0.2612 ( 27) -0.3079 ( 31)  0.1114 ( 41) -0.1610 ( 42)
          -0.1571 ( 44) -0.1610 ( 54)  0.1114 ( 59) -0.1571 ( 60) -0.1022 ( 98)
           0.2536 (103) -0.2536 (109)  0.1022 (118) -0.1563 (124)  0.1768 (125)
          -0.1768 (127)  0.1563 (128)
 CRD  4=   0.3733 (  5) -0.3733 (  7) -0.1219 (  9)  0.1219 ( 17)  0.1130 ( 25)
          -0.1130 ( 26)  0.1844 ( 28) -0.1963 ( 29)  0.1963 ( 32) -0.1190 ( 35)
           0.1190 ( 38) -0.1844 ( 39) -0.1347 ( 44)  0.1347 ( 60)  0.1004 ( 74)
           0.1004 ( 75) -0.1106 ( 78) -0.1988 ( 79) -0.1106 ( 80)  0.1092 ( 84)
           0.1092 ( 85)  0.1103 ( 92) -0.1121 ( 95)  0.1103 ( 98) -0.1121 ( 99)
          -0.1009 (103) -0.1009 (109) -0.1121 (113)  0.1103 (118)  0.1103 (120)
          -0.1121 (121)  0.1221 (122)  0.1221 (123)  0.2046 (126)
 CRD  5=  -0.2336 (  4) -0.1027 (  5) -0.6297 (  6) -0.1027 (  7) -0.1952 (  9)
          -0.1952 ( 17) -0.1350 ( 27) -0.1359 ( 28) -0.2314 ( 29) -0.2314 ( 32)
          -0.1359 ( 39)  0.1601 ( 70)  0.1903 ( 71)  0.1601 ( 72)
 CRD  6=  -0.5991 (  4) -0.1841 (  5) -0.1841 (  7)  0.1107 (  9)  0.1107 ( 17)
          -0.1631 ( 28)  0.1002 ( 33) -0.1725 ( 34)  0.1002 ( 37) -0.1631 ( 39)
           0.1457 ( 41)  0.1457 ( 59)  0.1673 ( 62)  0.1642 ( 63)  0.1673 ( 64)
          -0.1503 ( 91) -0.1026 ( 93)  0.1503 (104)  0.1026 (117)
 CRD  7=   0.1707 (  4) -0.1685 (  5) -0.1414 (  6) -0.1685 (  7)  0.1324 ( 30)
          -0.1047 ( 31)  0.1594 ( 34) -0.1604 ( 35)  0.1324 ( 36) -0.1604 ( 38)
           0.2301 ( 42) -0.3972 ( 45)  0.1563 ( 47)  0.1535 ( 48)  0.1105 ( 49)
          -0.1054 ( 50) -0.1005 ( 51) -0.1054 ( 52) -0.1005 ( 53)  0.2301 ( 54)
           0.1563 ( 55)  0.1535 ( 57)  0.1105 ( 58) -0.1308 ( 67) -0.1184 ( 82)
          -0.1539 ( 83) -0.1239 ( 84)  0.1239 ( 85)  0.1184 ( 86)  0.1539 ( 87)
 CRD  8=  -0.1607 (  5)  0.1607 (  7) -0.1115 (  8) -0.2778 ( 13)  0.2778 ( 14)
           0.1115 ( 21)  0.1685 ( 28) -0.1351 ( 29)  0.1351 ( 32)  0.2309 ( 33)
          -0.2309 ( 37) -0.1685 ( 39)  0.1315 ( 40) -0.1892 ( 42) -0.1751 ( 47)
          -0.1524 ( 49)  0.1892 ( 54)  0.1751 ( 55)  0.1524 ( 58) -0.1315 ( 61)
          -0.1464 ( 91)  0.1100 ( 94)  0.1109 ( 97)  0.1109 (102) -0.1102 (103)
          -0.1464 (104) -0.1102 (109)  0.1100 (114)
 CRD  9=  -0.3618 (  5) -0.3618 (  7) -0.1514 (  8) -0.3256 ( 13) -0.3256 ( 14)
          -0.1514 ( 21) -0.1573 ( 30) -0.1359 ( 34) -0.1573 ( 36)  0.1064 ( 40)
          -0.1634 ( 43) -0.1258 ( 50) -0.1258 ( 52)  0.1064 ( 61) -0.1464 (106)
           0.1464 (107)  0.1058 (130) -0.1058 (143)
 CRD 10=  -0.1197 (  4) -0.2148 (  6)  0.3066 (  9)  0.1010 ( 12)  0.2537 ( 13)
           0.2537 ( 14)  0.1683 ( 15)  0.3066 ( 17)  0.1010 ( 19) -0.1071 ( 30)
          -0.3521 ( 31) -0.2711 ( 34) -0.1071 ( 36) -0.1010 ( 41) -0.1010 ( 59)
           0.1195 ( 70)  0.1195 ( 72)  0.1017 ( 94)  0.1452 ( 97) -0.1452 (102)
          -0.1017 (114)
 CRD 11=  -0.1826 (  5)  0.1826 (  7)  0.2701 (  9)  0.1008 ( 10)  0.1069 ( 13)
          -0.1069 ( 14) -0.2701 ( 17) -0.1008 ( 20) -0.3968 ( 29)  0.3968 ( 32)
          -0.1252 ( 33)  0.1252 ( 37)  0.1167 ( 40) -0.1242 ( 48)  0.1676 ( 49)
           0.1003 ( 51) -0.1003 ( 53)  0.1242 ( 57) -0.1676 ( 58) -0.1167 ( 61)
           0.1381 ( 70) -0.1381 ( 72) -0.1024 (100) -0.1024 (110)
 CRD 12=  -0.1684 (  4)  0.2044 (  5)  0.2044 (  7) -0.2946 ( 13) -0.2946 ( 14)
          -0.1047 ( 15) -0.1254 ( 23)  0.2304 ( 29) -0.4924 ( 31)  0.2304 ( 32)
           0.1151 ( 35)  0.1151 ( 38) -0.1119 ( 50) -0.1119 ( 52)  0.1018 ( 70)
          -0.1722 ( 71)  0.1018 ( 72)
 CRD 13=   0.1023 ( 13) -0.1023 ( 14)  0.4119 ( 28) -0.1248 ( 29)  0.1248 ( 32)
          -0.4119 ( 39)  0.1929 ( 48) -0.1347 ( 51)  0.1347 ( 53) -0.1929 ( 57)
           0.1469 ( 62) -0.1469 ( 64) -0.1014 ( 82) -0.1869 ( 84) -0.1869 ( 85)
          -0.1014 ( 86)
 CRD 14=   0.1780 (  1)  0.1968 (  6) -0.3164 ( 28)  0.1525 ( 29) -0.1157 ( 31)
           0.1525 ( 32)  0.5643 ( 34) -0.3164 ( 39)  0.1126 ( 46)  0.1126 ( 56)
           0.2607 ( 63) -0.1303 ( 71)
 CRD 15=   0.2213 (  5) -0.2213 (  7)  0.3082 (  9) -0.3082 ( 17) -0.2475 ( 28)
          -0.1402 ( 30) -0.1216 ( 35)  0.1402 ( 36)  0.1216 ( 38)  0.2475 ( 39)
           0.1440 ( 40) -0.1141 ( 42)  0.1276 ( 48) -0.1061 ( 49)  0.1141 ( 54)
          -0.1276 ( 57)  0.1061 ( 58) -0.1440 ( 61) -0.1111 ( 62)  0.1111 ( 64)
           0.1273 ( 97)  0.1382 (101)  0.1273 (102) -0.1045 (105) -0.1045 (108)
           0.1382 (111)  0.1042 (130)  0.1042 (143)
 CRD 16=  -0.1060 (  2)  0.1060 (  3) -0.1696 (  9)  0.1696 ( 17)  0.1396 ( 22)
          -0.1396 ( 24) -0.2769 ( 28) -0.3694 ( 29)  0.3694 ( 32)  0.2769 ( 39)
          -0.1348 ( 40)  0.1028 ( 44) -0.1130 ( 46)  0.1047 ( 48) -0.1111 ( 51)
           0.1111 ( 53)  0.1130 ( 56) -0.1047 ( 57) -0.1028 ( 60)  0.1348 ( 61)
          -0.1235 ( 62)  0.1235 ( 64)  0.1640 ( 70) -0.1640 ( 72)
 CRD 17=   0.1319 (  8)  0.3539 (  9) -0.1640 ( 13) -0.1640 ( 14) -0.1007 ( 16)
           0.3539 ( 17)  0.1319 ( 21) -0.1341 ( 29)  0.1715 ( 31) -0.1341 ( 32)
           0.1670 ( 34)  0.1446 ( 41)  0.1050 ( 43)  0.1467 ( 45)  0.1195 ( 46)
          -0.1296 ( 51) -0.1296 ( 53)  0.1195 ( 56)  0.1446 ( 59)  0.1334 ( 71)
           0.1166 ( 82) -0.1166 ( 86)  0.1094 (100) -0.1094 (110)  0.1076 (125)
          -0.1076 (127)
 CRD 18=  -0.1182 (  9)  0.3958 ( 13) -0.3958 ( 14)  0.1182 ( 17)  0.1103 ( 33)
          -0.1103 ( 37) -0.1342 ( 42) -0.1207 ( 47)  0.1720 ( 48)  0.1264 ( 49)
           0.1396 ( 50)  0.1670 ( 51) -0.1396 ( 52) -0.1670 ( 53)  0.1342 ( 54)
           0.1207 ( 55) -0.1720 ( 57) -0.1264 ( 58)  0.1306 ( 96)  0.1306 (115)
           0.1363 (133) -0.1415 (136) -0.1415 (137)  0.1363 (140)
 CRD 19=   0.1683 ( 10) -0.1683 ( 20)  0.2341 ( 30) -0.1863 ( 35) -0.2341 ( 36)
           0.1863 ( 38) -0.1201 ( 40)  0.1660 ( 41) -0.1172 ( 46)  0.1243 ( 47)
           0.1121 ( 48)  0.2002 ( 50) -0.1572 ( 51) -0.2002 ( 52)  0.1572 ( 53)
          -0.1243 ( 55)  0.1172 ( 56) -0.1121 ( 57) -0.1660 ( 59)  0.1201 ( 61)
           0.1832 ( 82)  0.1707 ( 83)  0.1832 ( 86)  0.1707 ( 87) -0.1224 (105)
          -0.1532 (106) -0.1532 (107) -0.1224 (108)
 CRD 20=   0.1086 (  4) -0.1592 (  8)  0.1054 (  9)  0.2568 ( 10)  0.1054 ( 17)
           0.2568 ( 20) -0.1592 ( 21) -0.1511 ( 23)  0.1155 ( 30) -0.2109 ( 31)
          -0.1403 ( 35)  0.1155 ( 36) -0.1403 ( 38)  0.1803 ( 41)  0.1732 ( 50)
          -0.1157 ( 51)  0.1732 ( 52) -0.1157 ( 53)  0.1803 ( 59) -0.1195 ( 71)
          -0.1414 ( 82) -0.1305 ( 83)  0.1414 ( 86)  0.1305 ( 87)  0.1037 ( 91)
          -0.1556 (103) -0.1037 (104)  0.1556 (109)  0.1425 (124) -0.1425 (128)
 CRD 21=  -0.1070 ( 10) -0.3639 ( 11)  0.2004 ( 12)  0.3639 ( 18) -0.2004 ( 19)
           0.1070 ( 20) -0.1192 ( 35)  0.1192 ( 38) -0.1059 ( 41) -0.1778 ( 48)
           0.2420 ( 49)  0.1778 ( 57) -0.2420 ( 58)  0.1059 ( 59)  0.1557 ( 94)
           0.1950 ( 96) -0.1008 (101) -0.1558 (105) -0.1101 (106) -0.1101 (107)
          -0.1558 (108) -0.1008 (111)  0.1557 (114)  0.1950 (115)
 CRD 22=  -0.2064 ( 12)  0.3549 ( 15) -0.2938 ( 16) -0.2064 ( 19)  0.1456 ( 35)
           0.1456 ( 38) -0.2354 ( 40)  0.1146 ( 41) -0.1181 ( 47)  0.1126 ( 49)
          -0.1181 ( 55)  0.1126 ( 58)  0.1146 ( 59) -0.2354 ( 61) -0.1306 ( 94)
          -0.1371 ( 96) -0.2336 (100) -0.1747 (101)  0.2336 (110)  0.1747 (111)
           0.1306 (114)  0.1371 (115)
 CRD 23=   0.1323 ( 10)  0.3828 ( 11) -0.1669 ( 12)  0.4395 ( 16)  0.3828 ( 18)
          -0.1669 ( 19)  0.1323 ( 20)  0.1285 ( 51)  0.1285 ( 53) -0.1043 ( 84)
           0.1043 ( 85) -0.1025 ( 96) -0.1524 ( 97)  0.1026 (100)  0.1524 (102)
          -0.1550 (105) -0.1267 (106)  0.1267 (107)  0.1550 (108) -0.1026 (110)
           0.1025 (115)
 CRD 24=   0.1115 ( 10) -0.1115 ( 20) -0.2673 ( 78) -0.2535 ( 79) -0.2673 ( 80)
          -0.1343 ( 88) -0.2579 ( 89) -0.2717 ( 92) -0.1597 ( 95) -0.2717 ( 98)
          -0.1597 ( 99) -0.1343 (112) -0.1597 (113) -0.2579 (116) -0.2717 (118)
          -0.2717 (120) -0.1597 (121) -0.1626 (122) -0.1626 (123) -0.1373 (126)
 CRD 25=  -0.2210 (  8)  0.2210 ( 21) -0.1362 ( 22)  0.1362 ( 24) -0.1072 ( 46)
           0.1072 ( 56) -0.1274 ( 78) -0.1617 ( 79) -0.1274 ( 80)  0.2612 ( 88)
          -0.1546 ( 89) -0.1203 ( 92)  0.2494 ( 95) -0.1203 ( 98)  0.2494 ( 99)
           0.2612 (112)  0.2494 (113) -0.1546 (116) -0.1203 (118) -0.1203 (120)
           0.2494 (121)  0.2549 (122)  0.2549 (123)  0.2666 (126)
 CRD 26=   0.2543 (  1)  0.2859 (  2)  0.2859 (  3) -0.1165 (  6) -0.4125 ( 22)
          -0.4032 ( 23) -0.4125 ( 24)  0.1540 ( 29)  0.1682 ( 31)  0.1540 ( 32)
          -0.1293 ( 34)  0.1147 ( 62)  0.1147 ( 64) -0.1619 ( 70) -0.1525 ( 71)
          -0.1619 ( 72)
 CRD 27=  -0.4450 (  1) -0.3945 (  2) -0.3945 (  3) -0.1338 (  4) -0.2804 ( 22)
          -0.2853 ( 23) -0.2804 ( 24)  0.1595 ( 28)  0.1111 ( 29)  0.1111 ( 32)
           0.1347 ( 34)  0.1595 ( 39) -0.1439 ( 62) -0.1657 ( 63) -0.1439 ( 64)
          -0.1126 ( 71)
 CRD 28=  -0.1962 (  8)  0.2911 ( 10) -0.2911 ( 20)  0.1962 ( 21)  0.1795 ( 46)
          -0.1554 ( 47)  0.1301 ( 50) -0.1301 ( 52)  0.1554 ( 55) -0.1795 ( 56)
           0.1348 ( 73)  0.1513 ( 74)  0.1513 ( 75)  0.1348 ( 77)  0.1067 ( 82)
           0.1067 ( 86)  0.1336 ( 90)  0.1501 ( 93)  0.1501 (117)  0.1336 (119)
           0.1282 (124)  0.1447 (125)  0.1447 (127)  0.1282 (128)  0.1161 (129)
           0.1116 (131)  0.1161 (141)  0.1116 (142)
 CRD 29=   0.1322 (  2)  0.1322 (  3) -0.2622 (  8)  0.2282 ( 12) -0.2180 ( 15)
           0.2282 ( 19) -0.2622 ( 21)  0.1051 ( 23)  0.1664 ( 46) -0.1815 ( 47)
           0.1013 ( 50)  0.1013 ( 52) -0.1815 ( 55)  0.1664 ( 56) -0.1752 ( 73)
           0.1643 ( 74) -0.1643 ( 75)  0.1752 ( 77) -0.1002 ( 82)  0.1002 ( 86)
          -0.1770 ( 90) -0.1661 ( 93)  0.1661 (117)  0.1770 (119) -0.1565 (124)
           0.1457 (125) -0.1457 (127)  0.1565 (128)
 CRD 30=  -0.1970 (  2)  0.1970 (  3)  0.2840 ( 10) -0.1583 ( 11)  0.1029 ( 12)
           0.1583 ( 18) -0.1029 ( 19) -0.2840 ( 20)  0.1829 ( 22) -0.1829 ( 24)
           0.1073 ( 40) -0.1219 ( 41)  0.1317 ( 48) -0.1100 ( 49) -0.1317 ( 57)
           0.1100 ( 58)  0.1219 ( 59) -0.1073 ( 61) -0.1007 (132) -0.1606 (133)
          -0.1739 (134) -0.1647 (135) -0.1780 (136) -0.1780 (137) -0.1739 (138)
          -0.1647 (139) -0.1606 (140) -0.1007 (144)
 CRD 31=   0.2731 (  1) -0.1447 (  2) -0.1447 (  3) -0.2851 ( 22)  0.5667 ( 23)
          -0.2851 ( 24) -0.1490 ( 63)  0.1540 ( 70) -0.3069 ( 71)  0.1540 ( 72)
          -0.1631 ( 78)  0.1631 ( 80) -0.1598 ( 92)  0.1664 ( 98) -0.1664 (118)
           0.1598 (120)
 CRD 32=   0.5698 (  1) -0.2777 (  2) -0.2777 (  3)  0.1282 ( 22) -0.2774 ( 23)
           0.1282 ( 24)  0.1524 ( 62) -0.3088 ( 63)  0.1524 ( 64)  0.1492 ( 71)
           0.1582 ( 95) -0.1681 ( 99)  0.1681 (113) -0.1582 (121)  0.1631 (122)
          -0.1631 (123)
 CRD 33=  -0.1211 (  8) -0.2090 ( 10)  0.1533 ( 11) -0.1533 ( 18)  0.2090 ( 20)
           0.1211 ( 21)  0.4759 ( 22) -0.4759 ( 24) -0.2570 ( 70)  0.2570 ( 72)
          -0.1829 ( 79) -0.1888 ( 89) -0.1888 (116)
 CRD 34=  -0.4996 (  2)  0.4996 (  3) -0.1163 ( 10)  0.1163 ( 20) -0.1193 ( 22)
           0.1193 ( 24)  0.2830 ( 62) -0.2830 ( 64) -0.2058 ( 88) -0.2058 (112)
          -0.2194 (126)
 CRD 35=   0.2855 ( 11)  0.1949 ( 12) -0.4689 ( 15) -0.5405 ( 16)  0.2855 ( 18)
           0.1949 ( 19) -0.1932 ( 67)  0.1144 (134) -0.1309 (135) -0.1144 (138)
           0.1309 (139)
 CRD 36=  -0.1064 (  8)  0.3281 ( 11)  0.4690 ( 12) -0.3281 ( 18) -0.4690 ( 19)
           0.1064 ( 21) -0.1209 ( 22)  0.1209 ( 24)  0.1527 ( 66) -0.1527 ( 68)
          -0.1096 (101) -0.1096 (111) -0.1244 (135) -0.1079 (136) -0.1079 (137)
          -0.1244 (139)
 CRD 37=  -0.3190 (  8) -0.3726 ( 10)  0.2595 ( 11)  0.1969 ( 12)  0.2572 ( 15)
           0.2595 ( 18)  0.1969 ( 19) -0.3726 ( 20) -0.3190 ( 21) -0.1306 ( 65)
          -0.1306 ( 69) -0.1215 (129)  0.1215 (141)
 CRD 38=   0.4658 (  8)  0.2607 ( 10)  0.1409 ( 11)  0.1272 ( 12) -0.1409 ( 18)
          -0.1272 ( 19) -0.2607 ( 20) -0.4658 ( 21)  0.1560 ( 65) -0.1560 ( 69)
          -0.1079 ( 74) -0.1079 ( 75) -0.1197 ( 93) -0.1197 (117) -0.1161 (125)
          -0.1161 (127)
 CRD 39=  -0.2510 (  8) -0.2252 ( 10) -0.1811 ( 11) -0.3447 ( 12) -0.3559 ( 15)
          -0.2450 ( 16) -0.1811 ( 18) -0.3447 ( 19) -0.2252 ( 20) -0.2510 ( 21)
          -0.1047 ( 65) -0.1143 ( 66) -0.1301 ( 67) -0.1143 ( 68) -0.1047 ( 69)
          -0.1099 (130)  0.1145 (136) -0.1145 (137)  0.1099 (143)
 CRD 40=   0.2372 (  8) -0.2569 ( 10) -0.2736 ( 15)  0.2488 ( 16) -0.2569 ( 20)
           0.2372 ( 21) -0.1042 ( 40) -0.1020 ( 51) -0.1020 ( 53) -0.1042 ( 61)
           0.1568 (129)  0.1651 (130)  0.1453 (131)  0.1536 (132)  0.1287 (133)
           0.1382 (134)  0.1141 (135)  0.1235 (136) -0.1235 (137) -0.1382 (138)
          -0.1141 (139) -0.1287 (140) -0.1568 (141) -0.1453 (142) -0.1651 (143)
          -0.1536 (144)
 CRD 41=  -0.1699 (  8)  0.1736 ( 10)  0.2375 ( 11) -0.2322 ( 12) -0.2375 ( 18)
           0.2322 ( 19) -0.1736 ( 20)  0.1699 ( 21) -0.1007 ( 35)  0.1007 ( 38)
          -0.1330 ( 82) -0.1080 ( 83) -0.1330 ( 86) -0.1080 ( 87) -0.1478 (105)
          -0.1128 (106) -0.1128 (107) -0.1478 (108) -0.1826 (129) -0.1576 (130)
          -0.2176 (131) -0.1926 (132)  0.1129 (133)  0.1077 (135)  0.1077 (139)
           0.1129 (140) -0.1826 (141) -0.2176 (142) -0.1576 (143) -0.1926 (144)
 CRD 42=   0.1018 (  8) -0.1044 ( 10) -0.1598 ( 11)  0.1678 ( 12)  0.2073 ( 15)
          -0.1994 ( 16) -0.1598 ( 18)  0.1678 ( 19) -0.1044 ( 20)  0.1018 ( 21)
          -0.1165 ( 94) -0.1602 ( 96) -0.1055 ( 97)  0.1741 (100)  0.1181 (101)
           0.1055 (102) -0.1258 (105)  0.1258 (108) -0.1741 (110) -0.1181 (111)
           0.1165 (114)  0.1602 (115)  0.1193 (129)  0.1486 (131)  0.1284 (132)
          -0.2288 (133) -0.1851 (134) -0.1729 (135) -0.1292 (136)  0.1292 (137)
           0.1851 (138)  0.1729 (139)  0.2288 (140) -0.1193 (141) -0.1486 (142)
          -0.1284 (144)
 CRD 43=  -0.2240 (  1) -0.1386 (  9) -0.1386 ( 17)  0.2128 ( 22)  0.1913 ( 23)
           0.2128 ( 24)  0.1983 ( 29)  0.1844 ( 31)  0.1983 ( 32) -0.1346 ( 34)
           0.1447 ( 46)  0.1319 ( 47)  0.1319 ( 55)  0.1447 ( 56)  0.1208 ( 62)
          -0.1002 ( 63)  0.1208 ( 64) -0.1880 ( 70) -0.2050 ( 71) -0.1880 ( 72)
           0.1937 ( 74) -0.1937 ( 75)  0.1023 ( 76) -0.1023 ( 81)  0.1608 ( 90)
          -0.1548 ( 99)  0.1548 (113) -0.1608 (119)
 CRD 44=   0.1481 (  1)  0.2420 (  2)  0.2420 (  3)  0.1507 (  8) -0.1999 ( 10)
           0.1308 ( 11) -0.1014 ( 12)  0.1308 ( 18) -0.1014 ( 19) -0.1999 ( 20)
           0.1507 ( 21) -0.1404 ( 23)  0.2171 ( 28)  0.1926 ( 34)  0.2171 ( 39)
          -0.1814 ( 62) -0.2640 ( 63) -0.1814 ( 64) -0.1012 ( 71) -0.1267 ( 90)
          -0.1030 ( 93)  0.1146 ( 98)  0.1210 (105) -0.1210 (108)  0.1030 (117)
          -0.1146 (118)  0.1267 (119) -0.1196 (132)  0.1196 (144)
 CRD 45=   0.2024 (  2) -0.2024 (  3)  0.2215 (  5) -0.2215 (  7) -0.1807 (  8)
           0.1807 ( 21)  0.1845 ( 22) -0.1845 ( 24)  0.1014 ( 44) -0.1014 ( 60)
           0.1642 ( 62) -0.1642 ( 64)  0.1148 ( 65) -0.1148 ( 69)  0.1477 ( 70)
          -0.1477 ( 72) -0.1207 ( 74) -0.1207 ( 75)  0.2046 ( 79)  0.1167 ( 95)
           0.1167 ( 99)  0.1494 (106)  0.1494 (107)  0.1167 (113)  0.1167 (121)
          -0.2210 (126)  0.1197 (129)  0.1860 (130)  0.1197 (141)  0.1860 (143)
 CRD 46=  -0.1852 (  1)  0.3069 (  4)  0.3971 (  6) -0.1037 ( 10)  0.1191 ( 11)
          -0.1069 ( 12) -0.1016 ( 16)  0.1191 ( 18) -0.1069 ( 19) -0.1037 ( 20)
          -0.1491 ( 22) -0.1903 ( 23) -0.1491 ( 24) -0.1338 ( 28) -0.1707 ( 29)
          -0.1973 ( 31) -0.1707 ( 32) -0.1487 ( 34) -0.1338 ( 39)  0.1628 ( 62)
           0.1628 ( 64)  0.1897 ( 70)  0.1594 ( 71)  0.1897 ( 72)
 CRD 47=   0.1795 (  4) -0.1467 (  6) -0.1513 (  9)  0.1716 ( 11)  0.1273 ( 13)
           0.1273 ( 14)  0.2975 ( 15) -0.2491 ( 16) -0.1513 ( 17)  0.1716 ( 18)
           0.1789 ( 40)  0.1239 ( 41) -0.1155 ( 51) -0.1155 ( 53)  0.1239 ( 59)
           0.1789 ( 61)  0.1138 ( 65)  0.1138 ( 69)  0.1495 ( 94)  0.1495 (100)
          -0.1495 (110) -0.1495 (114)  0.1122 (130)  0.1470 (135)  0.2044 (136)
          -0.2044 (137) -0.1470 (139) -0.1122 (143)
 CRD 48=   0.1595 (  5) -0.1595 (  7) -0.1114 ( 11)  0.2320 ( 12)  0.1966 ( 13)
          -0.1966 ( 14)  0.1114 ( 18) -0.2320 ( 19) -0.1954 ( 48) -0.2093 ( 49)
           0.1042 ( 51) -0.1042 ( 53)  0.1954 ( 57)  0.2093 ( 58) -0.1242 ( 66)
           0.1242 ( 68) -0.1608 ( 83) -0.1608 ( 87)  0.1140 ( 94) -0.1339 ( 96)
           0.1063 (101)  0.1063 (111)  0.1140 (114) -0.1339 (115) -0.1958 (130)
          -0.1111 (132)  0.1698 (134)  0.2260 (136)  0.2260 (137)  0.1698 (138)
          -0.1958 (143) -0.1111 (144)
 CRD 49=  -0.1195 (  2) -0.1195 (  3)  0.3463 (  4) -0.1129 (  5) -0.3410 (  6)
          -0.1129 (  7)  0.1191 (  8)  0.2200 (  9) -0.1410 ( 10) -0.1030 ( 13)
          -0.1030 ( 14) -0.1074 ( 15)  0.2200 ( 17) -0.1410 ( 20)  0.1191 ( 21)
           0.1126 ( 22)  0.1126 ( 24) -0.1174 ( 28)  0.1184 ( 29)  0.1184 ( 32)
          -0.1174 ( 39) -0.1123 ( 47) -0.1123 ( 55)  0.1454 ( 63)  0.1009 ( 67)
          -0.1344 ( 71) -0.1107 ( 90)  0.1107 (119) -0.1635 (130)  0.1635 (143)
 CRD 50=  -0.1187 (  5)  0.1187 (  7) -0.1279 ( 13)  0.1279 ( 14) -0.1669 ( 35)
           0.1669 ( 38) -0.1669 ( 40) -0.1517 ( 41)  0.1225 ( 46)  0.1454 ( 47)
          -0.1153 ( 49)  0.2042 ( 50)  0.1160 ( 51) -0.2042 ( 52) -0.1160 ( 53)
          -0.1454 ( 55) -0.1225 ( 56)  0.1153 ( 58)  0.1517 ( 59)  0.1669 ( 61)
           0.1002 ( 74)  0.1002 ( 75)  0.1306 ( 82)  0.1306 ( 86)  0.1045 ( 93)
           0.1044 (100) -0.1105 (101) -0.1168 (105) -0.1168 (108)  0.1044 (110)
          -0.1105 (111)  0.1045 (117)  0.1325 (125)  0.1325 (127)  0.1497 (129)
          -0.1556 (132)  0.1313 (134) -0.1811 (135)  0.1313 (138) -0.1811 (139)
           0.1497 (141) -0.1556 (144)
 CRD 51=   0.1849 (  1) -0.2477 (  4)  0.1790 (  5) -0.1387 (  6)  0.1790 (  7)
           0.1555 ( 11) -0.1443 ( 12) -0.1819 ( 16)  0.1555 ( 18) -0.1443 ( 19)
           0.2314 ( 23) -0.1206 ( 41) -0.1045 ( 43) -0.1206 ( 59) -0.1073 ( 62)
          -0.1073 ( 64)  0.1705 ( 67) -0.1104 ( 70)  0.1332 ( 71) -0.1104 ( 72)
           0.1051 ( 78) -0.1051 ( 80) -0.1470 ( 82)  0.1470 ( 86)  0.1358 ( 96)
          -0.1594 ( 98)  0.1157 ( 99)  0.1117 (101) -0.1117 (111) -0.1157 (113)
          -0.1358 (115)  0.1594 (118)  0.1664 (129)  0.1013 (131) -0.1375 (136)
           0.1375 (137) -0.1664 (141) -0.1013 (142)
 CRD 52=   0.1567 (  1) -0.1146 (  2) -0.1146 (  3)  0.1691 (  4)  0.1519 (  5)
          -0.1960 (  6)  0.1519 (  7) -0.1114 (  8) -0.1068 ( 12) -0.1227 ( 15)
           0.1117 ( 16) -0.1068 ( 19) -0.1114 ( 21)  0.1104 ( 22) -0.1368 ( 23)
           0.1104 ( 24) -0.1525 ( 30) -0.1525 ( 36)  0.1708 ( 63)  0.1067 ( 65)
           0.1568 ( 66)  0.1568 ( 68)  0.1067 ( 69) -0.1634 ( 71)  0.1133 ( 82)
          -0.1133 ( 86)  0.1263 ( 98)  0.1150 ( 99) -0.1150 (113) -0.1263 (118)
           0.1895 (130) -0.1601 (131) -0.1280 (135) -0.1234 (136)  0.1234 (137)
           0.1280 (139)  0.1601 (142) -0.1895 (143)
 CRD 53=  -0.2329 (  5)  0.2329 (  7) -0.2246 (  9)  0.2755 ( 13) -0.2755 ( 14)
           0.2246 ( 17) -0.1234 ( 22)  0.1234 ( 24) -0.1657 ( 30)  0.1657 ( 36)
           0.1007 ( 46)  0.1143 ( 47) -0.1058 ( 48) -0.1143 ( 55) -0.1007 ( 56)
           0.1058 ( 57) -0.1160 ( 82) -0.1160 ( 86) -0.1196 ( 90)  0.1004 (106)
           0.1004 (107) -0.1196 (119)  0.1519 (130) -0.1328 (131) -0.1328 (142)
           0.1519 (143)
 CRD 54=  -0.2003 ( 10)  0.2120 ( 11)  0.1041 ( 13) -0.1041 ( 14) -0.2120 ( 18)
           0.2003 ( 20)  0.1093 ( 40) -0.1364 ( 48) -0.1104 ( 51)  0.1104 ( 53)
           0.1364 ( 57) -0.1093 ( 61)  0.1235 ( 65) -0.1439 ( 66)  0.1439 ( 68)
          -0.1235 ( 69)  0.1137 ( 73)  0.1137 ( 77)  0.1326 ( 82)  0.1326 ( 86)
           0.1503 ( 90) -0.2133 (100) -0.1732 (105) -0.1732 (108) -0.2133 (110)
           0.1503 (119)  0.1210 (124)  0.1210 (128) -0.2289 (133) -0.1298 (134)
          -0.1298 (138) -0.2289 (140)
 CRD 55=   0.2503 (  1) -0.1278 (  2) -0.1278 (  3)  0.1025 (  8) -0.1439 (  9)
           0.1317 ( 12) -0.1626 ( 13) -0.1626 ( 14)  0.1724 ( 15) -0.1439 ( 17)
           0.1317 ( 19)  0.1025 ( 21) -0.1109 ( 34)  0.1093 ( 46)  0.1093 ( 56)
           0.1972 ( 63) -0.1030 ( 66) -0.1705 ( 67) -0.1030 ( 68)  0.1580 ( 74)
          -0.1580 ( 75) -0.1469 ( 93) -0.1258 ( 95)  0.1796 ( 99) -0.1796 (113)
           0.1469 (117)  0.1258 (121) -0.1527 (122)  0.1527 (123)  0.1063 (125)
          -0.1063 (127) -0.1124 (130) -0.1361 (132)  0.1096 (134)  0.1705 (136)
          -0.1705 (137) -0.1096 (138)  0.1124 (143)  0.1361 (144)
 CRD 56=  -0.2640 (  2)  0.2640 (  3)  0.2490 ( 22) -0.2490 ( 24)  0.1183 ( 28)
           0.1117 ( 29) -0.1117 ( 32) -0.1183 ( 39) -0.2045 ( 62)  0.2045 ( 64)
           0.1928 ( 70) -0.1928 ( 72)  0.2765 ( 79)  0.2392 ( 88)  0.2344 ( 89)
           0.2392 (112)  0.2344 (116)  0.2804 (126)
 CRD 57=  -0.1485 ( 10)  0.1946 ( 16) -0.1485 ( 20) -0.1351 ( 22)  0.2851 ( 23)
          -0.1351 ( 24) -0.1342 ( 31)  0.1070 ( 65) -0.1362 ( 67)  0.1070 ( 69)
          -0.1145 ( 70)  0.2105 ( 71) -0.1145 ( 72)  0.1757 ( 78) -0.1757 ( 80)
           0.1866 ( 92) -0.1616 ( 96) -0.1648 ( 98) -0.1385 (103)  0.1342 (105)
          -0.1342 (108)  0.1385 (109)  0.1616 (115)  0.1648 (118) -0.1866 (120)
          -0.1546 (131) -0.1237 (133) -0.1199 (135)  0.1199 (139)  0.1237 (140)
           0.1546 (142)
 CRD 58=   0.1100 (  2) -0.1100 (  3)  0.1703 (  8) -0.2772 (  9)  0.1063 ( 12)
           0.2772 ( 17) -0.1063 ( 19) -0.1703 ( 21)  0.1197 ( 46) -0.1197 ( 56)
          -0.1748 ( 65)  0.1748 ( 69)  0.1548 ( 74)  0.1548 ( 75) -0.1111 ( 78)
          -0.1111 ( 80) -0.1291 ( 90)  0.1198 ( 93)  0.1087 ( 95)  0.1087 ( 99)
           0.1087 (113)  0.1198 (117) -0.1291 (119)  0.1087 (121)  0.1180 (122)
           0.1180 (123) -0.1162 (124)  0.1326 (125)  0.1326 (127) -0.1162 (128)
          -0.1040 (129) -0.1082 (130)  0.1371 (135)  0.1371 (139) -0.1040 (141)
          -0.1082 (143)
 CRD 59=  -0.1460 (  1)  0.1504 (  5)  0.1504 (  7) -0.1454 (  8) -0.1955 ( 13)
          -0.1955 ( 14)  0.1407 ( 15) -0.1454 ( 21)  0.1237 ( 27)  0.1017 ( 34)
          -0.1110 ( 40) -0.1110 ( 61) -0.1165 ( 63)  0.1213 ( 65) -0.1225 ( 67)
           0.1213 ( 69) -0.1373 ( 74)  0.1373 ( 75)  0.1402 ( 83) -0.1402 ( 87)
           0.1172 ( 95)  0.1053 (103) -0.1306 (106)  0.1306 (107) -0.1053 (109)
          -0.1172 (121)  0.1001 (122) -0.1001 (123)  0.2115 (129) -0.1645 (132)
           0.1096 (134) -0.1096 (138) -0.2115 (141)  0.1645 (144)
 CRD 60=   0.1479 ( 12) -0.2264 ( 13)  0.2264 ( 14) -0.1479 ( 19)  0.1341 ( 42)
           0.1097 ( 47)  0.1132 ( 49) -0.1341 ( 54) -0.1097 ( 55) -0.1132 ( 58)
          -0.1831 ( 66)  0.1831 ( 68)  0.1363 ( 78)  0.1363 ( 80) -0.1640 ( 83)
          -0.1640 ( 87)  0.1008 (103)  0.1164 (106)  0.1164 (107)  0.1008 (109)
          -0.1342 (122) -0.1342 (123)  0.1815 (129) -0.1427 (132) -0.1303 (134)
           0.1552 (135) -0.1303 (138)  0.1552 (139)  0.1815 (141) -0.1427 (144)
 CRD 61=   0.1443 (  9) -0.1546 ( 12)  0.2211 ( 15)  0.1443 ( 17) -0.1546 ( 19)
          -0.1513 ( 42)  0.1914 ( 45)  0.1028 ( 50)  0.1028 ( 52) -0.1513 ( 54)
           0.1444 ( 66) -0.1866 ( 67)  0.1444 ( 68) -0.1015 ( 83)  0.1015 ( 87)
           0.2289 ( 94)  0.2506 (101)  0.1308 (106) -0.1308 (107) -0.2506 (111)
          -0.2289 (114)  0.1430 (132)  0.2522 (134) -0.2142 (135) -0.2522 (138)
           0.2142 (139) -0.1430 (144)
 CRD 62=  -0.1242 (  5)  0.1242 (  7) -0.1730 ( 10) -0.1590 ( 11)  0.1256 ( 12)
           0.1590 ( 18) -0.1256 ( 19)  0.1730 ( 20) -0.1151 ( 33)  0.1151 ( 37)
          -0.1222 ( 40)  0.1212 ( 41)  0.1046 ( 46) -0.1046 ( 56) -0.1212 ( 59)
           0.1222 ( 61)  0.1286 ( 65) -0.1286 ( 69)  0.1124 ( 73)  0.1124 ( 77)
           0.1607 ( 84)  0.1607 ( 85)  0.1281 ( 90) -0.1682 ( 94) -0.1119 ( 97)
           0.1027 (100) -0.1119 (102)  0.1548 (106)  0.1548 (107)  0.1027 (110)
          -0.1682 (114)  0.1281 (119) -0.2305 (131) -0.1988 (132)  0.1224 (133)
           0.1224 (140) -0.2305 (142) -0.1988 (144)
 CRD 63=   0.1696 (  4) -0.1289 (  6) -0.1252 ( 11) -0.2064 ( 16) -0.1252 ( 18)
           0.1024 ( 23) -0.1005 ( 45) -0.1029 ( 49)  0.1100 ( 51)  0.1100 ( 53)
          -0.1029 ( 58)  0.1076 ( 67)  0.1233 ( 73) -0.1233 ( 77)  0.1056 ( 82)
          -0.1056 ( 86) -0.1116 ( 91)  0.1426 ( 92) -0.1423 ( 93) -0.1767 ( 97)
           0.1136 (101)  0.1767 (102)  0.1116 (104) -0.1087 (105) -0.1133 (106)
           0.1133 (107)  0.1087 (108) -0.1136 (111)  0.1423 (117) -0.1426 (120)
           0.1555 (124) -0.1555 (128)  0.2239 (133)  0.1369 (135) -0.1369 (139)
          -0.2239 (140)
 CRD 64=  -0.1204 (  1) -0.2039 (  6)  0.1111 (  8) -0.1540 (  9) -0.1540 ( 17)
           0.1111 ( 21)  0.1520 ( 27)  0.1286 ( 33)  0.1288 ( 34)  0.1286 ( 37)
          -0.1642 ( 43) -0.1107 ( 65) -0.1107 ( 69)  0.2098 ( 73) -0.1600 ( 76)
          -0.2098 ( 77)  0.1600 ( 81)  0.1415 ( 88) -0.2081 ( 93)  0.2367 ( 95)
           0.1011 (106) -0.1011 (107) -0.1415 (112)  0.2081 (117) -0.2367 (121)
           0.1745 (125) -0.1745 (127)
 CRD 65=   0.2033 (  5) -0.2033 (  7)  0.1309 (  8) -0.1309 ( 21) -0.1351 ( 25)
           0.1351 ( 26)  0.1081 ( 28) -0.1087 ( 29)  0.1087 ( 32) -0.1081 ( 39)
           0.1257 ( 44) -0.1257 ( 60) -0.1609 ( 76)  0.2009 ( 78)  0.2009 ( 80)
          -0.1609 ( 81)  0.1382 ( 83)  0.1382 ( 87)  0.1917 ( 88) -0.1992 ( 89)
           0.1917 (112) -0.1992 (116) -0.2011 (122) -0.2011 (123)  0.1612 (125)
           0.1612 (127) -0.1336 (129) -0.1336 (141)
 CRD 66=   0.1705 (  4)  0.1370 ( 10)  0.1049 ( 11)  0.1049 ( 18)  0.1370 ( 20)
           0.1220 ( 43)  0.1253 ( 76) -0.1253 ( 81)  0.1247 ( 83)  0.1913 ( 84)
          -0.1913 ( 85) -0.1247 ( 87)  0.1155 ( 89) -0.2002 ( 91)  0.1743 ( 92)
           0.1513 ( 97) -0.1513 (102)  0.2002 (104) -0.1155 (116) -0.1743 (120)
           0.1828 (124) -0.1233 (125)  0.1233 (127) -0.1828 (128)  0.1590 (131)
          -0.1275 (133)  0.1275 (140) -0.1590 (142)

 THE DETERMINANT OF THE G MATRIX IS 10**(   -17)


                     --------------------
                     INTERNAL COORDINATES
                     --------------------

                 - - ATOMS - -         COORDINATE      COORDINATE
 NO.   TYPE    I  J  K  L  M  N        (BOHR,RAD)       (ANG,DEG)
 ----------------------------------------------------------------
   1 STRETCH   1 11                     2.0597718       1.0899844
   2 STRETCH   1 10                     2.0598249       1.0900125
   3 STRETCH   1  9                     2.0598249       1.0900125
   4 STRETCH   1  2                     2.8913870       1.5300562
   5 STRETCH   2  7                     2.8912101       1.5299626
   6 STRETCH   2  8                     2.8912780       1.5299985
   7 STRETCH   2  3                     2.8912101       1.5299626
   8 STRETCH   3 13                     2.0598798       1.0900415
   9 STRETCH   3  4                     2.8913565       1.5300401
  10 STRETCH   3 12                     2.0598141       1.0900068
  11 STRETCH   4 15                     2.0598309       1.0900156
  12 STRETCH   4 14                     2.0597855       1.0899916
  13 STRETCH   4  5                     2.8912101       1.5299626
  14 STRETCH   5  6                     2.8912101       1.5299626
  15 STRETCH   5 17                     2.0597718       1.0899844
  16 STRETCH   5 16                     2.0598141       1.0900068
  17 STRETCH   6  7                     2.8913565       1.5300401
  18 STRETCH   6 19                     2.0598309       1.0900156
  19 STRETCH   6 18                     2.0597855       1.0899916
  20 STRETCH   7 21                     2.0598141       1.0900068
  21 STRETCH   7 20                     2.0598798       1.0900415
  22 STRETCH   8 24                     2.0598249       1.0900125
  23 STRETCH   8 23                     2.0598141       1.0900068
  24 STRETCH   8 22                     2.0598249       1.0900125
  25 BEND      1  2  7                  1.9106592     109.4727059
  26 BEND      1  2  3                  1.9106592     109.4727059
  27 BEND      1  2  8                  1.9105628     109.4671837
  28 BEND      2  1 10                  1.9106075     109.4697486
  29 BEND      2  8 22                  1.9106806     109.4739352
  30 BEND      2  3 12                  1.9106196     109.4704384
  31 BEND      2  8 23                  1.9106419     109.4717185
  32 BEND      2  8 24                  1.9106806     109.4739352
  33 BEND      2  3  4                  1.9106233     109.4706495
  34 BEND      2  1 11                  1.9105999     109.4693093
  35 BEND      2  3 13                  1.9105987     109.4692412
  36 BEND      2  7 21                  1.9106196     109.4704384
  37 BEND      2  7  6                  1.9106233     109.4706495
  38 BEND      2  7 20                  1.9105987     109.4692412
  39 BEND      2  1  9                  1.9106075     109.4697486
  40 BEND      3  4 14                  1.9105287     109.4652321
  41 BEND      3  4 15                  1.9106100     109.4698886
  42 BEND      3  4  5                  1.9106233     109.4706495
  43 BEND      3  2  7                  1.9106123     109.4700236
  44 BEND      3  2  8                  1.9106530     109.4723524
  45 BEND      4  5  6                  1.9106123     109.4700236
  46 BEND      4  3 12                  1.9107014     109.4751243
  47 BEND      4  3 13                  1.9106010     109.4693751
  48 BEND      4  5 16                  1.9106196     109.4704384
  49 BEND      4  5 17                  1.9106344     109.4712895
  50 BEND      5  4 14                  1.9106635     109.4729518
  51 BEND      5  4 15                  1.9106653     109.4730563
  52 BEND      5  6 18                  1.9106635     109.4729518
  53 BEND      5  6 19                  1.9106653     109.4730563
  54 BEND      5  6  7                  1.9106233     109.4706495
  55 BEND      6  7 20                  1.9106010     109.4693751
  56 BEND      6  7 21                  1.9107014     109.4751243
  57 BEND      6  5 16                  1.9106196     109.4704384
  58 BEND      6  5 17                  1.9106344     109.4712895
  59 BEND      7  6 19                  1.9106100     109.4698886
  60 BEND      7  2  8                  1.9106530     109.4723524
  61 BEND      7  6 18                  1.9105287     109.4652321
  62 BEND      9  1 11                  1.9106621     109.4728725
  63 BEND      9  1 10                  1.9106603     109.4727722
  64 BEND     10  1 11                  1.9106621     109.4728725
  65 BEND     12  3 13                  1.9106555     109.4724952
  66 BEND     14  4 15                  1.9107087     109.4755451
  67 BEND     16  5 17                  1.9106790     109.4738442
  68 BEND     18  6 19                  1.9107087     109.4755451
  69 BEND     20  7 21                  1.9106555     109.4724952
  70 BEND     22  8 23                  1.9105680     109.4674812
  71 BEND     22  8 24                  1.9106603     109.4727722
  72 BEND     23  8 24                  1.9105680     109.4674812
  73 TORSION   1  2  7 20               1.0471271      59.9959646
  74 TORSION   1  2  3 12              -3.1415200    -179.9958345
  75 TORSION   1  2  7 21               3.1415200     179.9958345
  76 TORSION   1  2  3  4               1.0472013      60.0002133
  77 TORSION   1  2  3 13              -1.0471271     -59.9959646
  78 TORSION   1  2  8 22               1.0472432      60.0026127
  79 TORSION   1  2  8 23               3.1415927     180.0000000
  80 TORSION   1  2  8 24              -1.0472432     -60.0026127
  81 TORSION   1  2  7  6              -1.0472013     -60.0002133
  82 TORSION   2  7  6 18               3.1415880     179.9997310
  83 TORSION   2  7  6 19               1.0471787      59.9989172
  84 TORSION   2  7  6  5              -1.0472353     -60.0021655
  85 TORSION   2  3  4  5               1.0472353      60.0021655
  86 TORSION   2  3  4 14              -3.1415880    -179.9997310
  87 TORSION   2  3  4 15              -1.0471787     -59.9989172
  88 TORSION   3  2  1 11              -1.0472006     -60.0001765
  89 TORSION   3  2  8 23               1.0471969      59.9999600
  90 TORSION   3  2  7 20               3.1415571     179.9979602
  91 TORSION   3  2  7  6               1.0472287      60.0017822
  92 TORSION   3  2  8 22              -1.0471526     -59.9974273
  93 TORSION   3  2  7 21              -1.0472354     -60.0021700
  94 TORSION   3  4  5 16               1.0471286      59.9960478
  95 TORSION   3  2  1  9               1.0471936      59.9997748
  96 TORSION   3  4  5 17               3.1415721     179.9988242
  97 TORSION   3  4  5  6              -1.0472287     -60.0017822
  98 TORSION   3  2  8 24               3.1415464     179.9973474
  99 TORSION   3  2  1 10               3.1415904     179.9998722
 100 TORSION   4  5  6 18               3.1415081     179.9951582
 101 TORSION   4  5  6 19              -1.0471515     -59.9973607
 102 TORSION   4  5  6  7               1.0472287      60.0017822
 103 TORSION   4  3  2  8               3.1415381     179.9968716
 104 TORSION   4  3  2  7              -1.0472287     -60.0017822
 105 TORSION   5  6  7 20              -3.1415623    -179.9982615
 106 TORSION   5  6  7 21               1.0471787      59.9989172
 107 TORSION   5  4  3 12              -1.0471787     -59.9989172
 108 TORSION   5  4  3 13               3.1415623     179.9982615
 109 TORSION   6  7  2  8              -3.1415381    -179.9968716
 110 TORSION   6  5  4 14              -3.1415081    -179.9951582
 111 TORSION   6  5  4 15               1.0471515      59.9973607
 112 TORSION   7  2  1 11               1.0472006      60.0001765
 113 TORSION   7  2  1  9              -3.1415904    -179.9998722
 114 TORSION   7  6  5 16              -1.0471286     -59.9960478
 115 TORSION   7  6  5 17              -3.1415721    -179.9988242
 116 TORSION   7  2  8 23              -1.0471969     -59.9999600
 117 TORSION   7  2  3 12               1.0472354      60.0021700
 118 TORSION   7  2  8 22              -3.1415464    -179.9973474
 119 TORSION   7  2  3 13              -3.1415571    -179.9979602
 120 TORSION   7  2  8 24               1.0471526      59.9974273
 121 TORSION   7  2  1 10              -1.0471936     -59.9997748
 122 TORSION   8  2  1  9              -1.0471984     -60.0000487
 123 TORSION   8  2  1 10               1.0471984      60.0000487
 124 TORSION   8  2  7 20              -1.0472097     -60.0006937
 125 TORSION   8  2  3 12              -1.0471832     -59.9991762
 126 TORSION   8  2  1 11               3.1415927     180.0000000
 127 TORSION   8  2  7 21               1.0471832      59.9991762
 128 TORSION   8  2  3 13               1.0472097      60.0006937
 129 TORSION  12  3  4 14               1.0471833      59.9991863
 130 TORSION  12  3  4 15               3.1415927     180.0000000
 131 TORSION  13  3  4 14              -1.0472610     -60.0036350
 132 TORSION  13  3  4 15               1.0471483      59.9971787
 133 TORSION  14  4  5 17               1.0472926      60.0054482
 134 TORSION  14  4  5 16              -1.0471509     -59.9973282
 135 TORSION  15  4  5 17              -1.0472330     -60.0020329
 136 TORSION  15  4  5 16               3.1415087     179.9951908
 137 TORSION  16  5  6 19              -3.1415087    -179.9951908
 138 TORSION  16  5  6 18               1.0471509      59.9973282
 139 TORSION  17  5  6 19               1.0472330      60.0020329
 140 TORSION  17  5  6 18              -1.0472926     -60.0054482
 141 TORSION  18  6  7 21              -1.0471833     -59.9991863
 142 TORSION  18  6  7 20               1.0472610      60.0036350
 143 TORSION  19  6  7 21               3.1415927     180.0000000
 144 TORSION  19  6  7 20              -1.0471483     -59.9971787

     ------------------------------------------
     THE POINT GROUP IS C1 , NAXIS= 1, ORDER= 1
     ------------------------------------------

     DIMENSIONS OF THE SYMMETRY SUBSPACES ARE
 A   =  248

 ..... DONE SETTING UP THE RUN .....
 STEP CPU TIME =     0.02 TOTAL CPU TIME =        0.0 (    0.0 MIN)
 TOTAL WALL CLOCK TIME=        0.0 SECONDS, CPU UTILIZATION IS  66.67%


          -----------------------------
          STATIONARY POINT LOCATION RUN
          -----------------------------

 OBTAINING INITIAL HESSIAN, HESS=GUESS   
 DIAGONAL GUESS HESSIAN IN INTERNAL COORDS IS
     1  0.3464     2  0.3464     3  0.3464     4  0.3671     5  0.3672
     6  0.3672     7  0.3672     8  0.3463     9  0.3671    10  0.3464
    11  0.3464    12  0.3464    13  0.3672    14  0.3672    15  0.3464
    16  0.3464    17  0.3671    18  0.3464    19  0.3464    20  0.3464
    21  0.3463    22  0.3464    23  0.3464    24  0.3464    25  0.2485
    26  0.2485    27  0.2485    28  0.2241    29  0.2241    30  0.2241
    31  0.2241    32  0.2241    33  0.2485    34  0.2241    35  0.2241
    36  0.2241    37  0.2485    38  0.2241    39  0.2241    40  0.2241
    41  0.2241    42  0.2485    43  0.2485    44  0.2485    45  0.2485
    46  0.2241    47  0.2241    48  0.2241    49  0.2241    50  0.2241
    51  0.2241    52  0.2241    53  0.2241    54  0.2485    55  0.2241
    56  0.2241    57  0.2241    58  0.2241    59  0.2241    60  0.2485
    61  0.2241    62  0.2034    63  0.2034    64  0.2034    65  0.2034
    66  0.2034    67  0.2034    68  0.2034    69  0.2034    70  0.2034
    71  0.2034    72  0.2034    73  0.2500    74  0.2500    75  0.2500
    76  0.2500    77  0.2500    78  0.2500    79  0.2500    80  0.2500
    81  0.2500    82  0.2500    83  0.2500    84  0.2500    85  0.2500
    86  0.2500    87  0.2500    88  0.2500    89  0.2500    90  0.2500
    91  0.2500    92  0.2500    93  0.2500    94  0.2500    95  0.2500
    96  0.2500    97  0.2500    98  0.2500    99  0.2500   100  0.2500
   101  0.2500   102  0.2500   103  0.2500   104  0.2500   105  0.2500
   106  0.2500   107  0.2500   108  0.2500   109  0.2500   110  0.2500
   111  0.2500   112  0.2500   113  0.2500   114  0.2500   115  0.2500
   116  0.2500   117  0.2500   118  0.2500   119  0.2500   120  0.2500
   121  0.2500   122  0.2500   123  0.2500   124  0.2500   125  0.2500
   126  0.2500   127  0.2500   128  0.2500   129  0.2500   130  0.2500
   131  0.2500   132  0.2500   133  0.2500   134  0.2500   135  0.2500
   136  0.2500   137  0.2500   138  0.2500   139  0.2500   140  0.2500
   141  0.2500   142  0.2500   143  0.2500   144  0.2500
 TRANSFORMING HESSIAN TO SYMMETRY COORDINATES

          PARAMETERS CONTROLLING GEOMETRY SEARCH ARE
          METHOD =QA                  UPHESS =BFGS    
          NNEG   =         0          NFRZ   =         3
          NSTEP  =        50          IFOLOW =         1
          HESS   =GUESS               RESTAR =         F
          IHREP  =         0          HSSEND =         F
          NPRT   =         0          NPUN   =         0
          OPTTOL = 5.000E-04          RMIN   = 1.500E-03
          RMAX   = 1.000E-01          RLIM   = 7.000E-02
          DXMAX  = 3.000E-01          PURIFY =         F
          MOVIE  =         F          TRUPD  =         T
          TRMAX  = 5.000E-01          TRMIN  = 5.000E-02
          ITBMAT =         5          STPT   =         F
          STSTEP = 1.000E-02          PROJCT=          F
          FROZEN COORD(S)=   1   2   3


      ***** EQUILIBRIUM GEOMETRY LOCATED *****
            (SUBJECT TO   3 CONSTRAINT(S))
 COORDINATES OF ALL ATOMS ARE (ANGS)
   ATOM   CHARGE       X              Y              Z
 ------------------------------------------------------------
 C           6.0  -1.0284866721   0.0000008709   1.5207850101
 C           6.0  -0.9134350228   0.0000002494  -0.0127121212
 C           6.0  -0.1374115028   1.2533917305  -0.4594808509
 C           6.0   1.2785472046   1.2793121307   0.1194753345
 C           6.0   2.0586796237   0.0000008728  -0.2129585041
 C           6.0   1.2785426395  -1.2793118679   0.1194688310
 C           6.0  -0.1374200360  -1.2533960460  -0.4594762318
 C           6.0  -2.2937101635   0.0000006539  -0.6757894239
 H           1.0  -1.5452604496   0.8841629154   1.8813689966
 H           1.0  -1.5451389408  -0.8842251998   1.8813975276
 H           1.0  -0.0486776411   0.0000811310   1.9773827344
 H           1.0  -0.0938951902   1.2745428320  -1.5483930604
 H           1.0  -0.6808735744   2.1463936088  -0.1537366113
 H           1.0   1.8145206498   2.1494654123  -0.2486809766
 H           1.0   1.2165811547   1.3996885979   1.1966641531
 H           1.0   2.2951249677   0.0000040244  -1.2756279122
 H           1.0   3.0035700733  -0.0000220748   0.3242080392
 H           1.0   1.8145472253  -2.1494431875  -0.2486992536
 H           1.0   1.2165882687  -1.3996880790   1.1966654289
 H           1.0  -0.6808980688  -2.1463668401  -0.1536639801
 H           1.0  -0.0939201429  -1.2745997004  -1.5483896710
 H           1.0  -2.8677710637   0.8805939416  -0.3984077191
 H           1.0  -2.1889947481   0.0001043871  -1.7591107397
 H           1.0  -2.8677127040  -0.8806750317  -0.3985408455


                     --------------------
                     INTERNAL COORDINATES
                     --------------------

                 - - ATOMS - -         COORDINATE      COORDINATE
 NO.   TYPE    I  J  K  L  M  N        (BOHR,RAD)       (ANG,DEG)
 ----------------------------------------------------------------
   1 STRETCH   1 11                     2.0427468       1.0809751
   2 STRETCH   1 10                     2.0517470       1.0857379
   3 STRETCH   1  9                     2.0517399       1.0857341
   4 STRETCH   1  2                     2.9060338       1.5378070
   5 STRETCH   2  7                     2.9109140       1.5403895
   6 STRETCH   2  8                     2.8937073       1.5312841
   7 STRETCH   2  3                     2.9109173       1.5403912
   8 STRETCH   3 13                     2.0582256       1.0891662
   9 STRETCH   3  4                     2.8912197       1.5299677
  10 STRETCH   3 12                     2.0597760       1.0899866
  11 STRETCH   4 15                     2.0516072       1.0856639
  12 STRETCH   4 14                     2.0527447       1.0862658
  13 STRETCH   4  5                     2.9004408       1.5348473
  14 STRETCH   5  6                     2.9004448       1.5348494
  15 STRETCH   5 17                     2.0539556       1.0869066
  16 STRETCH   5 16                     2.0572622       1.0886564
  17 STRETCH   6  7                     2.8912186       1.5299671
  18 STRETCH   6 19                     2.0516205       1.0856709
  19 STRETCH   6 18                     2.0527480       1.0862675
  20 STRETCH   7 21                     2.0597791       1.0899882
  21 STRETCH   7 20                     2.0582286       1.0891677
  22 STRETCH   8 24                     2.0544506       1.0871685
  23 STRETCH   8 23                     2.0567221       1.0883705
  24 STRETCH   8 22                     2.0544468       1.0871665
  25 BEND      1  2  7                  1.9038295     109.0813977
  26 BEND      1  2  3                  1.9038321     109.0815421
  27 BEND      1  2  8                  1.9437519     111.3687819
  28 BEND      2  1 10                  1.9463696     111.5187634
  29 BEND      2  8 22                  1.9449448     111.4371276
  30 BEND      2  3 12                  1.9024980     109.0051034
  31 BEND      2  8 23                  1.9222752     110.1382571
  32 BEND      2  8 24                  1.9449486     111.4373459
  33 BEND      2  3  4                  1.9501018     111.7326043
  34 BEND      2  1 11                  1.9319962     110.6952259
  35 BEND      2  3 13                  1.9117065     109.5327126
  36 BEND      2  7 21                  1.9025283     109.0068427
  37 BEND      2  7  6                  1.9500992     111.7324565
  38 BEND      2  7 20                  1.9116612     109.5301194
  39 BEND      2  1  9                  1.9463525     111.5177845
  40 BEND      3  4 14                  1.9198005     109.9964671
  41 BEND      3  4 15                  1.9012918     108.9359972
  42 BEND      3  4  5                  1.9544630     111.9824801
  43 BEND      3  2  7                  1.9009300     108.9152662
  44 BEND      3  2  8                  1.9055226     109.1784043
  45 BEND      4  5  6                  1.9708622     112.9220881
  46 BEND      4  3 12                  1.9185218     109.9231998
  47 BEND      4  3 13                  1.9194929     109.9788432
  48 BEND      4  5 16                  1.8984386     108.7725210
  49 BEND      4  5 17                  1.9122347     109.5629800
  50 BEND      5  4 14                  1.9214234     110.0894495
  51 BEND      5  4 15                  1.9138125     109.6533814
  52 BEND      5  6 18                  1.9213871     110.0873712
  53 BEND      5  6 19                  1.9138012     109.6527313
  54 BEND      5  6  7                  1.9544731     111.9830580
  55 BEND      6  7 20                  1.9194885     109.9785901
  56 BEND      6  7 21                  1.9185280     109.9235582
  57 BEND      6  5 16                  1.8984396     108.7725746
  58 BEND      6  5 17                  1.9122019     109.5610960
  59 BEND      7  6 19                  1.9012950     108.9361790
  60 BEND      7  2  8                  1.9055196     109.1782285
  61 BEND      7  6 18                  1.9198250     109.9978705
  62 BEND      9  1 11                  1.8661522     106.9226424
  63 BEND      9  1 10                  1.9032960     109.0508263
  64 BEND     10  1 11                  1.8661599     106.9230841
  65 BEND     12  3 13                  1.8592270     106.5258625
  66 BEND     14  4 15                  1.8500274     105.9987633
  67 BEND     16  5 17                  1.8687941     107.0740164
  68 BEND     18  6 19                  1.8500375     105.9993421
  69 BEND     20  7 21                  1.8592437     106.5268167
  70 BEND     22  8 23                  1.8804038     107.7391990
  71 BEND     22  8 24                  1.8883946     108.1970396
  72 BEND     23  8 24                  1.8804319     107.7408116
  73 TORSION   1  2  7 20               1.0713183      61.3820170
  74 TORSION   1  2  3 12              -3.0993330    -177.5786976
  75 TORSION   1  2  7 21               3.0992933     177.5764241
  76 TORSION   1  2  3  4               1.0600183      60.7345747
  77 TORSION   1  2  3 13              -1.0713698     -61.3849689
  78 TORSION   1  2  8 22               1.0555866      60.4806565
  79 TORSION   1  2  8 23               3.1414907     179.9941583
  80 TORSION   1  2  8 24              -1.0557528     -60.4901799
  81 TORSION   1  2  7  6              -1.0600311     -60.7353089
  82 TORSION   2  7  6 18              -3.0969219    -177.4405543
  83 TORSION   2  7  6 19               1.1654835      66.7772861
  84 TORSION   2  7  6  5              -0.9544313     -54.6848836
  85 TORSION   2  3  4  5               0.9544463      54.6857450
  86 TORSION   2  3  4 14               3.0969589     177.4426768
  87 TORSION   2  3  4 15              -1.1654740     -66.7767437
  88 TORSION   3  2  1 11              -1.0371373     -59.4235902
  89 TORSION   3  2  8 23               1.0381088      59.4792526
  90 TORSION   3  2  7 20              -3.1356182    -179.6576914
  91 TORSION   3  2  7  6               1.0162177      58.2249827
  92 TORSION   3  2  8 22              -1.0477953     -60.0342492
  93 TORSION   3  2  7 21              -1.1076433     -63.4632843
  94 TORSION   3  4  5 16               1.2355740      70.7931774
  95 TORSION   3  2  1  9               1.0382093      59.4850137
  96 TORSION   3  4  5 17              -3.0101797    -172.4705939
  97 TORSION   3  4  5  6              -0.8736246     -50.0550044
  98 TORSION   3  2  8 24               3.1240506     178.9949144
  99 TORSION   3  2  1 10              -3.1125047    -178.3333843
 100 TORSION   4  5  6 18               3.0152246     172.7596452
 101 TORSION   4  5  6 19              -1.2390805     -70.9940846
 102 TORSION   4  5  6  7               0.8736206      50.0547746
 103 TORSION   4  3  2  8              -3.0955080    -177.3595410
 104 TORSION   4  3  2  7              -1.0162289     -58.2256267
 105 TORSION   5  6  7 20              -3.0812802    -176.5443491
 106 TORSION   5  6  7 21               1.1601738      66.4730605
 107 TORSION   5  4  3 12              -1.1601178     -66.4698514
 108 TORSION   5  4  3 13               3.0813575     176.5487824
 109 TORSION   6  7  2  8               3.0954986     177.3590067
 110 TORSION   6  5  4 14              -3.0152161    -172.7591596
 111 TORSION   6  5  4 15               1.2390736      70.9936897
 112 TORSION   7  2  1 11               1.0373021      59.4330326
 113 TORSION   7  2  1  9               3.1126488     178.3416365
 114 TORSION   7  6  5 16              -1.2355775     -70.7933767
 115 TORSION   7  6  5 17               3.0101941     172.4714183
 116 TORSION   7  2  8 23              -1.0383179     -59.4912320
 117 TORSION   7  2  3 12               1.1076052      63.4611010
 118 TORSION   7  2  8 22              -3.1242220    -179.0047337
 119 TORSION   7  2  3 13               3.1355683     179.6548297
 120 TORSION   7  2  8 24               1.0476239      60.0244298
 121 TORSION   7  2  1 10              -1.0380653     -59.4767615
 122 TORSION   8  2  1  9              -1.0661663     -61.0868320
 123 TORSION   8  2  1 10               1.0663049      61.0947700
 124 TORSION   8  2  7 20              -1.0563373     -60.5236674
 125 TORSION   8  2  3 12              -0.9716739     -55.6728133
 126 TORSION   8  2  1 11              -3.1415130    -179.9954359
 127 TORSION   8  2  7 21               0.9716377      55.6707397
 128 TORSION   8  2  3 13               1.0562892      60.5209154
 129 TORSION  12  3  4 14               0.9823949      56.2870804
 130 TORSION  12  3  4 15               3.0031472     172.0676599
 131 TORSION  13  3  4 14              -1.0593151     -60.6942857
 132 TORSION  13  3  4 15               0.9614372      55.0862938
 133 TORSION  14  4  5 17               1.1314141      64.8252509
 134 TORSION  14  4  5 16              -0.9060175     -51.9109778
 135 TORSION  15  4  5 17              -0.8974815     -51.4218998
 136 TORSION  15  4  5 16              -2.9349130    -168.1581285
 137 TORSION  16  5  6 19               2.9349066     168.1577641
 138 TORSION  16  5  6 18               0.9060265      51.9114939
 139 TORSION  17  5  6 19               0.8974930      51.4225591
 140 TORSION  17  5  6 18              -1.1313872     -64.8237111
 141 TORSION  18  6  7 21              -0.9823169     -56.2826103
 142 TORSION  18  6  7 20               1.0594145      60.6999802
 143 TORSION  19  6  7 21              -3.0030968    -172.0647699
 144 TORSION  19  6  7 20              -0.9613654     -55.0821794

          INTERNUCLEAR DISTANCES (ANGS.)


 =====================================================
   GAMESS/COSab RESULTS
 =====================================================

   Dielectric Constant                  = INFTY
   Basic Grid Size                      =                 1082
   Number of Segments                   =                   92
   Number of Segments located on spheres=                  251
   Number of Segments of the cavity     =                  691
   Solvent Radius (rsolv)               = 1.40
   Outlying Charge Error Method         = double cavity

 =====================================================

  Total solvated Energy (a.u.)          =  -312.3470444909
  Total Energy corrected (a.u.)         =  -312.3469536895

  Outlying charge effect (a.u.)         =     0.0000908013
  Outlying charge effect (kcal/mol)     =     0.0569787305

  Dielectric Energy (a.u.)              =    -0.0013483575
  Dielectric energy corr. (a.u.)        =    -0.0012575562

  Sum of polarization charges           =     0.0300074292
  Sum of polarization charges(cor.)     =    -0.0300074292

  Total surface area of cavity (A**2)   =  161.16
  Total volume of cavity (A**3)         =  169.63

 =====================================================
 NPS=                   691
NR.  ATOM  (X, Y, Z)(a.u.)                  CHARGE(e)  AREA(A**2) SIGMA(e/A**2)
   1   1  -0.822330  -2.141956   5.778881   0.001992   0.371649   0.005360
   2   1  -4.021241  -0.579920   5.977269   0.001368   0.325193   0.004207
   3   1  -0.722043   1.522761   6.110115   0.001209   0.278737   0.004336
   4   1  -1.425466   2.136788   5.947937   0.001491   0.325193   0.004584
   5   1  -4.426401   0.480749   5.682522   0.001874   0.371649   0.005044
   6   1  -5.574005   0.601450   3.735436   0.000939   0.185824   0.005052
   7   1  -0.851556  -2.754974   5.219480   0.001078   0.232280   0.004639
   8   1  -5.628619  -0.418638   3.601376   0.000999   0.232280   0.004299
   9   1  -4.923884  -0.342009   5.172751   0.001770   0.325193   0.005444
  10   1  -3.282095   0.397644   6.385899   0.001604   0.464561   0.003452
  11   1  -1.937777   1.076934   6.496623   0.001362   0.418105   0.003258
  12   1  -0.485573   2.281350   5.510897   0.000892   0.185824   0.004799
  13   1  -2.987017  -0.887449   6.396340   0.001414   0.418105   0.003382
  14   1  -1.832272  -1.583166   6.303942   0.001596   0.418105   0.003818
  15   1  -0.768268  -1.107430   6.290958   0.001553   0.418105   0.003714
  16   1  -0.990792   0.337293   6.515662   0.001495   0.418105   0.003576
  17   1  -2.774110   1.323085   6.315349   0.000719   0.232280   0.003094
  18   1  -5.334104   0.346248   4.507420   0.001318   0.232280   0.005673
  19   1  -0.939900   2.893386   5.088634   0.000772   0.185824   0.004157
  20   1  -5.378726  -0.570906   4.342839   0.000954   0.185824   0.005133
  21   1  -1.935792  -0.289257   6.642217   0.001120   0.418105   0.002678
  22   3  -0.811744   5.620904  -2.712666   0.001852   0.371649   0.004985
  23   3  -0.794877   5.079818  -3.446445   0.001468   0.278737   0.005266
  24   3  -2.646584   4.438299  -2.942681   0.000829   0.185824   0.004463
  25   3  -1.932564   4.994595  -3.010632   0.001904   0.325193   0.005856
  26   3   0.473690   5.464532  -2.908234   0.001694   0.464561   0.003647
  27   3   0.166077   6.002518  -1.815562   0.001161   0.325193   0.003571
  28   3   1.113220   4.756516  -3.456159   0.000543   0.185824   0.002922
  29   3  -2.213838   4.222494  -3.519407   0.000610   0.139368   0.004377
  30   4   1.665193   5.928914   1.405077   0.000757   0.232280   0.003257
  31   4   4.600777   4.393157   2.593992   0.001590   0.325193   0.004889
  32   4   4.612994   5.015208   1.872013   0.001376   0.278737   0.004935
  33   4   2.147129   6.139997   0.821864   0.000851   0.278737   0.003054
  34   4   3.773348   3.481201  -3.137363   0.000291   0.139368   0.002089
  35   4   2.289432   5.640786   2.195294   0.001471   0.325193   0.004523
  36   4   3.667497   5.195446   2.462199   0.001827   0.325193   0.005618
  37   4   5.406034   3.985315   1.924794   0.001397   0.371649   0.003759
  38   4   5.824561   3.471031   1.473499   0.000347   0.139368   0.002490
  39   4   1.347703   5.358034   2.346247   0.000892   0.278737   0.003201
  40   4   5.045707   3.189619   2.828343   0.001151   0.325193   0.003540
  41   4   5.828129   3.925931   0.831641   0.000482   0.185824   0.002595
  42   4   3.082008   5.748329   1.883112   0.001383   0.278737   0.004963
  43   4   3.287712   3.755860  -3.199629   0.000131   0.046456   0.002818
  44   5   6.630811   2.222851  -1.756334   0.001144   0.325193   0.003519
  45   5   7.290300  -1.246111  -1.484884   0.001864   0.371649   0.005017
  46   5   4.726735   0.007778   3.283303   0.000157   0.092912   0.001685
  47   5   7.009905  -0.803712  -2.378941   0.001490   0.278737   0.005346
  48   5   6.241496   1.991456  -2.591145   0.000917   0.278737   0.003290
  49   5   7.198822   1.396081  -1.581069   0.001414   0.278737   0.005072
  50   5   7.420101   0.041494  -1.752734   0.001941   0.325193   0.005970
  51   5   6.779588  -2.017850  -1.767984   0.001223   0.325193   0.003760
  52   5   6.990102   2.149101  -0.641480   0.000959   0.278737   0.003441
  53   5   6.903182  -2.270292  -0.632124   0.000817   0.232280   0.003517
  54   5   4.963857  -0.301429   3.208794   0.000091   0.046456   0.001967
  55   5   6.171633  -2.173520  -2.489467   0.000889   0.278737   0.003190
  56   5   7.106969   0.879439  -2.181238   0.001457   0.278737   0.005228
  57   6   5.532371  -3.380810   2.135012   0.000564   0.185824   0.003037
  58   6   2.569867  -5.540508   2.348894   0.001556   0.325193   0.004784
  59   6   3.221366  -5.801401   1.704042   0.001344   0.278737   0.004823
  60   6   5.397270  -4.252727   1.650192   0.001265   0.325193   0.003889
  61   6   3.247606  -3.778173  -3.200842   0.000358   0.139368   0.002567
  62   6   5.887299  -3.677729   1.030122   0.000636   0.232280   0.002738
  63   6   4.798609  -4.146607   2.596045   0.001211   0.278737   0.004343
  64   6   3.739631  -5.154722   2.470839   0.001846   0.325193   0.005676
  65   6   1.894304  -5.955421   1.448627   0.001478   0.418105   0.003534
  66   6   4.994164  -3.246254   2.862250   0.000769   0.232280   0.003312
  67   6   1.285596  -5.313851   2.374619   0.001049   0.325193   0.003227
  68   6   1.879741  -6.156505   0.355192   0.000468   0.185824   0.002517
  69   6   4.605283  -4.887804   2.066835   0.001430   0.278737   0.005130
  70   6   3.734168  -3.503607  -3.145809   0.000104   0.046456   0.002236
  71   7  -0.585122  -5.284119  -3.251144   0.001879   0.371649   0.005055
  72   7  -1.147755  -5.603792  -2.608694   0.001378   0.278737   0.004945
  73   7  -2.525745  -4.258630  -3.229844   0.000800   0.185824   0.004306
  74   7  -1.822839  -4.831430  -3.271450   0.001940   0.325193   0.005965
  75   7   0.131839  -5.777989  -2.451616   0.001387   0.371649   0.003733
  76   7   0.705677  -5.874130  -1.899542   0.000355   0.139368   0.002544
  77   7   0.781459  -5.088328  -3.277286   0.001244   0.325193   0.003825
  78   7   0.215163  -6.090327  -1.323708   0.000489   0.185824   0.002630
  79   7  -2.572970  -4.755750  -2.666732   0.000605   0.139368   0.004342
  80   8  -6.170393  -2.205115  -3.736966   0.002373   0.418105   0.005675
  81   8  -6.503203   1.589006  -3.933363   0.001909   0.418105   0.004565
  82   8  -8.075288  -0.487105  -1.045873   0.001519   0.371649   0.004086
  83   8  -4.665621  -3.024610  -3.519000   0.001918   0.325193   0.005899
  84   8  -8.018803   0.518130  -0.612473   0.001638   0.371649   0.004407
  85   8  -6.568894   2.366859  -3.197902   0.001236   0.278737   0.004434
  86   8  -4.652894   3.543671  -2.551905   0.000120   0.046456   0.002579
  87   8  -6.781075   0.759365   1.501776   0.000591   0.185824   0.003179
  88   8  -5.173994  -2.561618  -3.926125   0.000819   0.185824   0.004406
  89   8  -5.578069  -2.942870  -3.296279   0.000917   0.185824   0.004934
  90   8  -4.586064   2.943763  -3.633999   0.001226   0.232280   0.005277
  91   8  -5.505112   2.570567  -3.788239   0.002337   0.418105   0.005590
  92   8  -7.403481   1.207194  -3.123193   0.001532   0.464561   0.003298
  93   8  -8.022137   0.208106  -2.078440   0.001402   0.464561   0.003018
  94   8  -7.763113  -0.278177   0.288662   0.001762   0.325193   0.005419
  95   8  -6.944401  -0.056170   1.455989   0.000894   0.185824   0.004813
  96   8  -7.017151   0.250203  -3.927519   0.001176   0.371649   0.003165
  97   8  -6.828088  -1.044292  -3.918202   0.001538   0.418105   0.003679
  98   8  -7.156148  -1.762395  -3.070504   0.001709   0.464561   0.003678
  99   8  -7.872450  -1.046494  -2.096787   0.000968   0.325193   0.002976
 100   8  -7.830309   1.174255  -2.104482   0.000809   0.278737   0.002902
 101   8  -5.162915   3.235246  -3.046552   0.000609   0.139368   0.004367
 102   8  -7.456908   0.429514   0.808690   0.001447   0.278737   0.005191
 103   8  -7.618951  -0.310577  -3.120993   0.001038   0.418105   0.002482
 104   8  -6.982923  -0.686742   1.330339   0.000754   0.185824   0.004057
 105   9  -4.108276   3.412240   4.816578  -0.002059   0.431809  -0.004768
 106   9  -5.244852   2.079053   4.236502  -0.000644   0.353299  -0.001822
 107   9  -2.198162   3.680987   4.769013  -0.000982   0.412182  -0.002383
 108   9  -3.622818   2.431287   5.783057  -0.000725   0.372926  -0.001944
 109   9  -4.931949   3.012787   3.987481  -0.001550   0.353299  -0.004387
 110   9  -4.188084   3.774578   3.595685  -0.002309   0.412182  -0.005602
 111   9  -3.069338   4.018569   4.263072  -0.002068   0.431809  -0.004790
 112   9  -2.921706   3.159753   5.509299  -0.001068   0.412182  -0.002590
 113   9  -4.617515   2.225406   5.242399  -0.001094   0.471065  -0.002323
 114  10  -3.874474  -3.506988   4.879248  -0.002372   0.490692  -0.004834
 115  10  -5.270948  -2.139089   4.092363  -0.000643   0.333671  -0.001928
 116  10  -4.262811  -2.191554   5.545442  -0.000722   0.372926  -0.001937
 117  10  -2.460358  -3.406184   5.232483  -0.000779   0.372926  -0.002090
 118  10  -4.776442  -3.260950   3.800595  -0.002134   0.431809  -0.004941
 119  10  -4.848157  -2.444607   4.866152  -0.001092   0.372926  -0.002929
 120  10  -3.268224  -2.771078   5.724063  -0.000922   0.392554  -0.002348
 121  10  -2.449029  -3.946246   4.353068  -0.001505   0.431809  -0.003485
 122  10  -3.757464  -3.971155   3.761679  -0.002386   0.431809  -0.005527
 123  11   1.809510   0.030661   5.291857  -0.001473   0.215905  -0.006824
 124  11   0.692630  -0.981125   5.847778  -0.000488   0.235532  -0.002071
 125  11   0.707876   1.042067   5.812701  -0.000439   0.235532  -0.001866
 126  11   1.319316  -0.592013   5.658346  -0.000809   0.176649  -0.004581
 127  11   0.692297  -0.000369   6.064804  -0.000452   0.235532  -0.001917
 128  11   1.293811   0.546068   5.690334  -0.000878   0.196277  -0.004472
 129  12  -0.066329   2.771714  -5.353144  -0.001227   0.314043  -0.003908
 130  12   1.238540   3.486686  -4.619464  -0.000752   0.314043  -0.002396
 131  12  -0.788926   4.024568  -4.672360  -0.000479   0.372926  -0.001284
 132  12   0.311447   1.638874  -5.207194  -0.001507   0.314043  -0.004799
 133  12   1.026652   2.514230  -5.064746  -0.001548   0.372926  -0.004150
 134  12   0.223316   3.592624  -5.040850  -0.000897   0.274788  -0.003263
 135  12  -1.345236   3.331369  -4.880453  -0.001016   0.372926  -0.002724
 136  12  -0.728807   2.189853  -5.309995  -0.001591   0.314043  -0.005066
 137  12   0.403312   4.229264  -4.469667  -0.000164   0.274788  -0.000598
 138  13  -2.138853   6.324462   0.113664  -0.001720   0.412182  -0.004173
[...]
 434  15   4.507191   1.482371   3.341460   0.000058   0.033607   0.001714
 435  17   5.275996   0.896571   3.016784  -0.000026   0.033607  -0.000781
 436   5   3.866793   0.000007   3.436239   0.000086   0.163671   0.000525
 437  15   3.456297   0.594457   3.661816  -0.000152   0.163671  -0.000926
 438  19   3.456303  -0.594447   3.661814  -0.000174   0.163671  -0.001062
 439  15   3.800514   1.397172   3.806296  -0.000377   0.203573  -0.001853
 440   5   4.572321   0.700250   3.348307   0.000595   0.286767   0.002076
 441   5   5.111422  -2.599023  -2.887993   0.000125   0.035692   0.003492
 442  16   5.085589  -2.387407  -3.104405  -0.000031   0.035692  -0.000857
 443  18   4.861607  -3.266521  -2.640549   0.000115   0.035692   0.003227
 444  16   5.510560   1.934510  -3.355127  -0.000067   0.075961  -0.000880
 445  16   6.334219   1.064595  -3.171855  -0.000131   0.172067  -0.000763
 446  16   6.588199  -0.370504  -3.115339  -0.000088   0.172067  -0.000514
 447  16   5.858733  -1.622999  -3.277646  -0.000325   0.172067  -0.001892
 448   5   5.940627   1.821988  -2.914420  -0.000014   0.163444  -0.000084
 449   5   6.759567   0.416050  -2.732197   0.000300   0.163444   0.001838
 450   5   6.474553  -1.194936  -2.795610   0.000077   0.163444   0.000473
 451   5   5.578630  -2.167495  -2.994955   0.000078   0.092804   0.000843
 452   5   4.992390  -0.959951   3.102259   0.000085   0.033616   0.002541
 453  17   5.275937  -0.896502   3.016830  -0.000043   0.033616  -0.001292
 454  19   4.507140  -1.482281   3.341503   0.000079   0.033616   0.002359
 455  17   5.672709   0.151145   3.007858  -0.000305   0.125351  -0.002435
 456   5   5.249873  -0.123628   3.072832  -0.000125   0.153144  -0.000814
 457  17   7.091953  -2.004243   0.511267  -0.000045   0.069825  -0.000648
 458  17   7.518187  -1.284171  -0.238440  -0.000132   0.155304  -0.000852
 459  17   7.736023   0.000046  -0.621541  -0.000059   0.155304  -0.000378
 460  17   7.518174   1.284209  -0.238266  -0.000127   0.155304  -0.000816
 461  17   7.091933   2.004176   0.511538  -0.000052   0.069825  -0.000749
 462   5   7.046048  -1.966216  -0.086765  -0.000052   0.152808  -0.000341
 463   5   7.508939  -0.762505  -0.900925   0.000261   0.152808   0.001708
 464   5   7.508931   0.762633  -0.900821   0.000260   0.152808   0.001704
 465   5   7.046028   1.966229  -0.086498  -0.000009   0.152808  -0.000059
 466  18   5.091103  -3.824926  -2.317477  -0.000094   0.189611  -0.000494
 467  18   5.748241  -3.919533  -1.116587  -0.000587   0.387023  -0.001517
 468   5   5.788230  -2.845137  -2.069636   0.001160   0.520592   0.002227
 469   5   6.414025  -2.939935  -0.643125   0.000748   0.267102   0.002802
 470  19   3.947584  -1.532902   3.759356  -0.000354   0.203547  -0.001740
 471   5   4.438302  -0.576490   3.391107   0.000541   0.286731   0.001887
 472   6   2.660024  -4.347427  -3.023540   0.000052   0.027188   0.001920
 473   7   2.186153  -4.318501  -3.176703   0.000079   0.027188   0.002912
 474  18   2.847852  -4.550886  -2.900836   0.000032   0.027188   0.001169
 475   6   1.616824  -6.037589  -0.547738   0.000049   0.027188   0.001795
 476   7   1.156674  -5.986433  -0.733463   0.000112   0.027188   0.004108
 477  18   1.898203  -6.089478  -0.647057   0.000014   0.027188   0.000529
 478   6   0.977596  -6.006653  -0.177836   0.000110   0.027432   0.004013
 479   7   0.517193  -6.041059  -0.366772   0.000054   0.027432   0.001953
 480  20   0.234548  -6.098843  -0.270072   0.000016   0.027432   0.000574
 481   6   2.287861  -4.061147  -3.295016   0.000076   0.027565   0.002742
 482   7   1.841417  -4.074797  -3.517179   0.000052   0.027565   0.001888
 483  21   1.694268  -3.931313  -3.742077   0.000021   0.027565   0.000768
 484   7   0.751409  -6.058992  -0.630902   0.000201   0.066701   0.003010
 485   6   1.382902  -6.073776  -0.286335   0.000189   0.066701   0.002835
 486   7   1.929436  -4.207760  -3.429255   0.000061   0.018281   0.003362
 487   6   2.586801  -4.238896  -3.148696   0.000059   0.018281   0.003226
 488   6   0.239649  -4.200169   2.918245  -0.000004   0.114058  -0.000039
 489  10  -0.800041  -3.732980   3.407715   0.000318   0.114058   0.002786
 490  19   0.353440  -4.082114   3.178275  -0.000203   0.114058  -0.001784
 491   6  -0.219849  -4.355164   2.517342   0.000407   0.248396   0.001638
 492  10  -1.279061  -3.960674   3.047267   0.000414   0.248396   0.001666
 493  20  -0.900102  -4.569732   2.243685   0.000036   0.248396   0.000145
 494  10  -1.472079  -3.922389   3.688205   0.000012   0.023756   0.000506
 495   6   0.089504  -4.481944   2.907034   0.000162   0.034913   0.004636
 496   6   4.362124  -3.240371  -2.928569   0.000105   0.031779   0.003317
 497  16   4.609111  -2.587321  -3.197960   0.000091   0.031779   0.002853
 498  18   4.424993  -3.508634  -2.803757  -0.000022   0.031779  -0.000705
 499   6   3.014427  -2.756349  -3.556545   0.000283   0.165261   0.001713
 500  16   3.363466  -2.133763  -3.798226   0.000057   0.165261   0.000344
 501  21   2.350639  -2.673674  -3.913287   0.000154   0.165261   0.000929
 502  16   4.437192  -2.120565  -3.702053  -0.000274   0.210932  -0.001300
 503   6   3.790801  -2.980944  -3.349442   0.000688   0.297176   0.002317
 504   6   4.811679  -1.926939   3.130727   0.000121   0.033221   0.003633
 505  17   5.308227  -1.407067   2.910405   0.000093   0.033221   0.002791
 506  19   4.582858  -1.998629   3.314737  -0.000025   0.033221  -0.000755
 507  17   5.955968  -1.360040   2.684105  -0.000171   0.193607  -0.000885
 508  17   6.564209  -2.006328   1.597697  -0.000730   0.395725  -0.001846
 509   6   5.494546  -2.475183   2.450411   0.001118   0.530994   0.002106
 510   6   6.124086  -3.112814   1.130467   0.000653   0.272762   0.002396
 511  18   3.394985  -4.540108  -2.878012  -0.000044   0.070738  -0.000626
 512  18   4.159188  -4.096470  -2.813936  -0.000066   0.070738  -0.000927
 513   6   3.585075  -3.971549  -2.956643  -0.000121   0.154322  -0.000783
 514  18   5.825785  -4.269131   0.020483  -0.000047   0.070856  -0.000667
 515  18   5.285367  -4.923943   0.781301  -0.000195   0.158168  -0.001233
 516  18   4.202509  -5.718638   1.083002  -0.000087   0.158168  -0.000551
 517  18   3.036985  -6.204668   0.534845  -0.000191   0.158168  -0.001207
 518  18   2.335315  -6.257376  -0.362125  -0.000056   0.070856  -0.000795
 519   6   5.676330  -4.188756   0.601303  -0.000046   0.154525  -0.000300
 520   6   4.717411  -5.112193   1.387715   0.000226   0.154525   0.001460
 521   6   3.379950  -5.874039   1.241109   0.000165   0.154525   0.001067
 522   6   2.245726  -6.142899   0.225258  -0.000037   0.154525  -0.000242
 523  19   1.028404  -4.543365   3.169299  -0.000125   0.066563  -0.001875
 524  19   2.058877  -4.852445   3.194026  -0.000126   0.146720  -0.000862
 525  19   3.324623  -4.560975   3.299399  -0.000065   0.146720  -0.000440
 526  19   4.168342  -3.580509   3.457498  -0.000123   0.146720  -0.000841
 527  19   4.366431  -2.530648   3.586218  -0.000076   0.066563  -0.001140
 528   6   1.337755  -4.892063   2.810943  -0.000092   0.146930  -0.000625
 529   6   2.794687  -5.021262   2.880301   0.000171   0.146930   0.001160
 530   6   4.041552  -4.269444   3.036034   0.000235   0.146930   0.001600
 531   6   4.596982  -2.926860   3.218019   0.000034   0.146930   0.000229
 532  20   0.007837  -6.144632   0.127106  -0.000093   0.197919  -0.000471
 533  20  -0.420276  -5.566083   1.361830  -0.000773   0.404961  -0.001909
 534   6   0.930769  -5.845054   0.890770   0.001080   0.542326   0.001991
 535   6   0.401990  -5.067671   2.216482   0.000725   0.278804   0.002599
 536  21   1.819641  -3.357087  -4.068801  -0.000150   0.206693  -0.000723
 537   6   2.689438  -3.701047  -3.420568   0.000725   0.291133   0.002490
 538   7  -2.546384  -3.392695  -3.752719   0.000246   0.068400   0.003601
 539   8  -3.232181  -2.933173  -3.765724   0.000282   0.068400   0.004118
 540  21  -2.355705  -3.288630  -3.968905  -0.000005   0.068400  -0.000078
 541   7  -3.675395  -4.032324  -2.148538   0.000274   0.064711   0.004235
 542   8  -4.418300  -3.688511  -2.254043   0.000222   0.064711   0.003429
 543  24  -4.624382  -3.753690  -2.039155  -0.000022   0.064711  -0.000347
 544   8  -3.964225  -3.253874  -3.264201   0.001527   0.489158   0.003121
 545   7  -3.076193  -4.012814  -2.877603   0.001495   0.489158   0.003056
 546  18   2.131271  -6.097715  -1.066405  -0.000121   0.210281  -0.000574
 547  18   2.604706  -5.355022  -2.293514  -0.000824   0.431878  -0.001908
 548   7   1.231003  -5.703699  -1.834287   0.001122   0.574556   0.001952
 549   7   1.815225  -4.734979  -3.126514   0.000919   0.296188   0.003104
 550   7  -3.340744  -4.383854  -1.986827   0.000174   0.088784   0.001955
 551  20  -3.347075  -4.576684  -1.747470   0.000023   0.088784   0.000258
 552  24  -4.231295  -3.981363  -1.802273   0.000222   0.088784   0.002497
 553  20  -2.833921  -5.096971  -1.892342   0.000031   0.066970   0.000467
 554  20  -1.925904  -5.672095  -1.957974  -0.000060   0.147484  -0.000409
 555  20  -0.841839  -6.143203  -1.407027  -0.000193   0.147484  -0.001310
 556  20  -0.195632  -6.243508  -0.551502  -0.000059   0.066970  -0.000875
 557   7  -2.395949  -5.087600  -2.287407   0.000254   0.147984   0.001718
 558   7  -1.126558  -5.792780  -2.090577   0.000182   0.147984   0.001232
 559   7  -0.079836  -6.094126  -1.110304  -0.000004   0.147984  -0.000030
 560  21   1.214951  -4.105902  -4.012258  -0.000042   0.079328  -0.000529
 561  21   0.018637  -4.495794  -4.052461  -0.000216   0.181542  -0.001192
 562  21  -1.423469  -4.048261  -4.118785  -0.000232   0.181542  -0.001278
 563   7   0.856931  -4.519636  -3.680406  -0.000118   0.169141  -0.000698
 564   7  -0.833278  -4.643308  -3.745523   0.000173   0.169141   0.001021
 565   7  -2.031276  -3.943234  -3.807010   0.000261   0.096917   0.002691
 566   7  -3.440434  -4.408318  -2.196101   0.000061   0.007690   0.007979
 567   8  -3.559179   2.493339  -4.100349   0.000121   0.085935   0.001412
 568  12  -2.636255   2.768723  -4.185849   0.000240   0.085935   0.002788
 569  23  -3.539903   2.289023  -4.328562  -0.000055   0.085935  -0.000642
 570  12  -2.261279   3.228949  -4.242630   0.000099   0.053220   0.001856
 571   8  -3.607259   2.806307  -4.021907   0.000331   0.075372   0.004389
 572   8  -3.559113  -2.492809  -4.100791   0.000084   0.085935   0.000982
 573  21  -2.636201  -2.768267  -4.186229   0.000212   0.085935   0.002472
 574  23  -3.539842  -2.288440  -4.328957   0.000012   0.085935   0.000143
 575  21  -2.267253  -3.258814  -4.213999   0.000062   0.053418   0.001160
 576   8  -3.601731  -2.778277  -4.048807   0.000284   0.075653   0.003760
 577  22  -5.302892   3.650382  -2.191558  -0.000066   0.070861  -0.000929
 578  22  -6.265874   3.110288  -2.469899  -0.000149   0.158087  -0.000941
 579  22  -7.311405   2.306215  -2.081032  -0.000271   0.158087  -0.001711
 580  22  -7.807054   1.638193  -0.986059  -0.000294   0.158087  -0.001862
 581  22  -7.538018   1.395725   0.340484  -0.000119   0.158087  -0.000751
 582  22  -6.854629   1.558990   1.236493  -0.000053   0.070861  -0.000749
 583   8  -5.451579   3.283147  -2.649003   0.000159   0.154633   0.001031
 584   8  -6.752750   2.453065  -2.706630   0.000096   0.154633   0.000619
 585   8  -7.669335   1.577566  -1.824147  -0.000041   0.154633  -0.000266
 586   8  -7.804108   1.036071  -0.384001   0.000079   0.154633   0.000509
 587   8  -7.098663   1.063250   0.989684   0.000094   0.154633   0.000607
 588  23  -4.234555  -2.146649  -4.516917  -0.000057   0.067572  -0.000837
 589  23  -5.227788  -1.715116  -4.612883  -0.000123   0.149142  -0.000824
 590  23  -6.007574  -0.657690  -4.688153  -0.000213   0.149142  -0.001425
 591  23  -6.007594   0.658320  -4.688021  -0.000223   0.149142  -0.001498
 592  23  -5.227841   1.715755  -4.612539  -0.000117   0.149142  -0.000784
 593  23  -4.234621   2.147300  -4.516487  -0.000063   0.067572  -0.000938
 594   8  -4.739500  -2.256217  -4.227605   0.000092   0.148986   0.000619
 595   8  -5.942184  -1.403868  -4.343775   0.000062   0.148986   0.000415
 596   8  -6.403525   0.000279  -4.388227  -0.000012   0.148986  -0.000082
 597   8  -5.942227   1.404432  -4.343494   0.000026   0.148986   0.000175
 598   8  -4.739569   2.256793  -4.227153   0.000037   0.148986   0.000246
 599  24  -6.854428  -1.559610   1.236313  -0.000044   0.070862  -0.000620
 600  24  -7.537866  -1.396220   0.340363  -0.000146   0.158087  -0.000921
 601  24  -7.806944  -1.638456  -0.986215  -0.000256   0.158087  -0.001622
 602  24  -7.311303  -2.306244  -2.081335  -0.000299   0.158087  -0.001892
 603  24  -6.265741  -3.110182  -2.470400  -0.000106   0.158087  -0.000673
 604  24  -5.302713  -3.650270  -2.192204  -0.000041   0.070862  -0.000583
 605   8  -7.098502  -1.063837   0.989606   0.000108   0.154634   0.000697
 606   8  -7.804009  -1.036444  -0.384044   0.000110   0.154634   0.000709
 607   8  -7.669265  -1.577663  -1.824299  -0.000044   0.154634  -0.000286
 608   8  -6.752666  -2.452941  -2.706987   0.000010   0.154634   0.000065
 609   8  -5.451443  -3.282957  -2.649575   0.000132   0.154634   0.000851
 610   9  -4.011831   3.641743   1.953969  -0.000013   0.318677  -0.000039
 611  13  -3.649730   4.185973   1.090169  -0.000100   0.318677  -0.000314
 612  22  -4.575797   3.640827   0.982484  -0.000054   0.318677  -0.000170
 613  13  -3.167583   4.830018   1.442536  -0.000075   0.295865  -0.000252
 614  13  -2.001994   4.976726   2.028600  -0.000246   0.591986  -0.000415
 615   9  -3.251160   4.162693   2.908211  -0.000788   0.591986  -0.001331
 616   9  -2.050423   4.194774   3.438109   0.000141   0.295865   0.000477
 617  15   0.410494   4.145501   3.583201   0.000377   0.186952   0.002017
 618   9  -1.249139   3.791058   4.082109   0.000454   0.186952   0.002429
 619  22  -6.329365   2.132708   1.734093   0.000374   0.292909   0.001277
 620  22  -5.705029   3.170738   1.370282  -0.000437   0.585788  -0.000746
 621   9  -5.318501   2.555440   2.985428   0.000090   0.585788   0.000154
 622   9  -4.609693   3.518212   2.572732  -0.000024   0.292909  -0.000082
 623  19   0.438151  -4.105771   3.664279   0.000347   0.187283   0.001851
 624  10  -1.276215  -3.830543   4.001722   0.000475   0.187283   0.002537
 625  10  -4.011783  -3.641767   1.954014  -0.000014   0.318666  -0.000043
 626  20  -3.649770  -4.185981   1.090248  -0.000077   0.318666  -0.000243
 627  24  -4.575777  -3.640863   0.982456  -0.000068   0.318666  -0.000215
 628  20  -1.530617  -4.953736   2.214597   0.000266   0.295870   0.000900
 629  20  -2.731449  -4.921615   1.684715  -0.000547   0.591997  -0.000924
 630  10  -2.521566  -4.217895   3.252291  -0.000448   0.591997  -0.000756
 631  10  -3.687245  -4.071133   2.666237  -0.000163   0.295870  -0.000550
 632  24  -5.407546  -3.516125   1.197112  -0.000059   0.292849  -0.000202
 633  24  -6.116228  -2.553609   1.609711  -0.000058   0.585667  -0.000098
 634  10  -4.906887  -3.173043   2.745746  -0.000359   0.585667  -0.000614
 635  10  -5.531141  -2.135303   3.109486   0.000480   0.292849   0.001639
 636  11   2.408783   0.000052   4.376134  -0.001608   0.218487  -0.007359
 637  15   2.895798   0.595744   4.001536  -0.000794   0.218487  -0.003636
 638  19   2.895799  -0.595704   4.001528  -0.000791   0.218487  -0.003619
 639  15   1.816329   2.572468   4.810948  -0.000707   0.225764  -0.003133
 640  15   2.652741   1.682049   4.570184  -0.001958   0.452231  -0.004330
 641  11   1.400378   1.405754   5.213266  -0.001804   0.452231  -0.003989
 642  11   2.187661   0.503555   4.871767  -0.000900   0.225764  -0.003988
 643  19   2.938267  -1.333752   4.408603  -0.000632   0.225738  -0.002798
 644  19   2.151100  -2.235775   4.750135  -0.002010   0.452179  -0.004445
 645  11   1.902222  -0.851515   5.033305  -0.002347   0.452179  -0.005191
 646  11   1.065938  -1.741769   5.274136  -0.000380   0.225738  -0.001683
 647  12   1.219548   0.543247  -4.412102   0.000191   0.347110   0.000550
 648  16   2.240022  -0.000031  -4.278193   0.000340   0.347110   0.000978
 649  21   1.219539  -0.543335  -4.412100   0.000153   0.347110   0.000440
 650  16   2.860451   0.487287  -4.633564   0.000163   0.249782   0.000651
 651  16   3.334815   1.420087  -4.429629   0.000186   0.499234   0.000372
 652  12   1.599076   1.617767  -4.747155   0.000090   0.499234   0.000180
 653  12   2.056611   2.536885  -4.459740   0.000287   0.249782   0.001150
 654  12  -0.999823   0.541524  -4.758633  -0.000128   0.293907  -0.000437
 655  21  -0.999830  -0.541547  -4.758624  -0.000122   0.293907  -0.000413
 656  23  -1.887209   0.000046  -4.855940  -0.000309   0.293907  -0.001051
 657  21  -0.282156  -0.766474  -5.045440  -0.000008   0.244865  -0.000032
 658  21   0.551962  -0.766480  -4.918715   0.000002   0.244865   0.000007
 659  12   0.131182   0.766385  -4.957514  -0.000285   0.489595  -0.000582
 660  23  -3.397436   2.092691  -4.782109   0.000292   0.299920   0.000974
 661  23  -2.691020   1.000655  -5.201054  -0.000965   0.600464  -0.001608
 662  12  -1.872784   2.448646  -4.859233  -0.000425   0.600464  -0.000708
 663  12  -1.157328   1.318947  -5.140271  -0.000172   0.299920  -0.000574
 664  22  -5.030912   4.047091   0.418513  -0.000122   0.232256  -0.000523
 665  22  -5.043897   4.269116  -0.614105  -0.000303   0.464356  -0.000653
 666  22  -4.848643   4.130637  -1.642922   0.000284   0.232256   0.001222
 667  13  -3.734388   4.914126   0.177262  -0.000318   0.464356  -0.000684
 668  13  -3.620619   4.966273  -1.109449   0.000231   0.464356   0.000498
 669  16   4.950888   2.399734  -3.434421   0.000289   0.125797   0.002296
 670  14   4.729037   3.684424  -2.783122   0.000318   0.125797   0.002529
 671  17   5.578247   1.071862   3.067640   0.000293   0.125131   0.002338
 672  15   4.471933   1.849115   3.614244   0.000287   0.125131   0.002293
 673  19   3.358908  -0.850815   4.050062   0.000065   0.024021   0.002695
 674  15   3.348128   0.850824   4.056403   0.000065   0.024021   0.002691
 675  18   4.663100  -3.686953  -2.819433   0.000346   0.125854   0.002752
 676  16   5.016920  -2.397114  -3.398149   0.000334   0.125854   0.002654
 677  21   1.413630  -1.259236  -4.798745   0.000167   0.249774   0.000667
 678  21   1.887989  -2.191989  -4.594820   0.000215   0.499219   0.000431
 679  16   3.045873  -0.845925  -4.581969   0.000076   0.499219   0.000153
 680  16   3.503403  -1.765000  -4.294570   0.000272   0.249774   0.001088
 681  19   4.508037  -1.910237   3.590140   0.000322   0.125236   0.002570
 682  17   5.542179  -1.010854   3.091722   0.000313   0.125236   0.002501
 683  24  -4.848509  -4.130861  -1.642964   0.000277   0.232248   0.001194
 684  24  -5.043822  -4.269258  -0.614136  -0.000259   0.464340  -0.000557
 685  24  -5.030901  -4.047146   0.418475  -0.000095   0.232248  -0.000411
 686  20  -3.620572  -4.966393  -1.109353   0.000231   0.464340   0.000497
 687  20  -3.734418  -4.914140   0.177360  -0.000313   0.464340  -0.000674
 688  23  -2.413296  -0.554719  -5.266585  -0.000260   0.299860  -0.000866
 689  23  -3.128712  -1.684136  -4.985741  -0.000541   0.600343  -0.000901
 690  21  -1.435020  -1.764475  -5.074782  -0.000849   0.600343  -0.001415
 691  21  -2.141404  -2.856260  -4.656090   0.000258   0.299860   0.000861
 =====================================================


   1 warning(s) detected.
     A line exceeding 80 characters begins with "http://cactus.nci.ni".
 There may be a problem in your input file.

              5551409  WORDS OF DYNAMIC MEMORY USED
 EXECUTION OF GAMESS TERMINATED NORMALLY Tue Nov 22 19:03:35 2016
 DDI: 263640 bytes (0.3 MB / 0 MWords) used by master data server.

 ----------------------------------------
 CPU timing information for all processes
 ========================================
 0: 3243.872 + 0.952 = 3244.824
 ----------------------------------------
 ddikick.x: exited gracefully.
