----- GAMESS execution script -----

          ******************************************************
          *         GAMESS VERSION =  5 DEC 2014 (R1)          *
          *             FROM IOWA STATE UNIVERSITY             *
          * M.W.SCHMIDT, K.K.BALDRIDGE, J.A.BOATZ, S.T.ELBERT, *
          *   M.S.GORDON, J.H.JENSEN, S.KOSEKI, N.MATSUNAGA,   *
          *          K.A.NGUYEN, S.J.SU, T.L.WINDUS,           *
          *       TOGETHER WITH M.DUPUIS, J.A.MONTGOMERY       *
          *         J.COMPUT.CHEM.  14, 1347-1363(1993)        *
          **************** 64 BIT LINUX VERSION ****************

 EXECUTION OF GAMESS BEGUN Tue Nov 22 18:38:53 2016

            ECHO OF THE FIRST FEW INPUT CARDS -
 INPUT CARD>! SELECT RESTRICTED HARTREE-FOCK AS DEFAULT                                     
 INPUT CARD>$contrl scftyp=rhf $end                                                         
 INPUT CARD>                                                                                
 INPUT CARD>! THEORY: HF OR DFT                                                             
 INPUT CARD> $contrl mplevl=0 $end                                                          
 INPUT CARD>                                                                                
 INPUT CARD> $system timlim=10000 mwords=20 $end                                            
 INPUT CARD> $SCF DIRSCF=.TRUE. $end                                                        
 INPUT CARD>                                                                                
 INPUT CARD>                                                                                
 INPUT CARD>! BASIS SETS                                                                    
 INPUT CARD>! 6-311G(d,p)                                                                   
 INPUT CARD> $BASIS GBASIS=N311 NGAUSS=6 NDFUNC=1 NPFUNC=1 $END                             
 INPUT CARD>                                                                                
 INPUT CARD>! One of the following                                                          
 INPUT CARD> $guess guess=HUCKEL $end                                                       
 INPUT CARD>                                                                                
 INPUT CARD> $statpt projct=.FALSE. $end                                                    
 INPUT CARD> $STATPT IFREEZ(1)=1,2,3 $END                                                   
 INPUT CARD>                                                                                
 INPUT CARD>! Optimize the geometry with COSMO effects                                      
 INPUT CARD> $statpt opttol=0.0005 nstep=50 $end                                            
 INPUT CARD> $contrl nzvar=1 $end                                                           
 INPUT CARD> $zmat dlc=.t. auto=.t. $end                                                    
 INPUT CARD> $contrl runtyp=OPTIMIZE maxit=200 $end                                         
 INPUT CARD>                                                                                
 INPUT CARD>! Run COSMO on perfect conductor                                                
 INPUT CARD> $COSGMS PRFCND=.TRUE. $end                                                     
 INPUT CARD>                                                                                
 INPUT CARD>! Specifying RSOLV                                                              
 INPUT CARD> $COSGMS COSRAD = 1.4 $end                                                      
 INPUT CARD>                                                                                
 INPUT CARD>! available memory                                                              
 INPUT CARD> $SYSTEM MWORDS=40 $END                                                         
 INPUT CARD>                                                                                
 INPUT CARD> $DATA                                                                          
 INPUT CARD>Benzene, 1,2,4-trimethyl-, ID: C95636                                           
 INPUT CARD>C1                                                                              
 INPUT CARD>C      6.0      1.2617000000    0.9241000000    2.1172000000                    
 INPUT CARD>C      6.0      2.3293000000    1.9580000000    2.1133000000                    
 INPUT CARD>C      6.0      2.1274000000    3.2023000000    1.4998000000                    
 INPUT CARD>C      6.0      3.5505000000    1.6825000000    2.7305000000                    
 INPUT CARD>C      6.0      0.8407000000    3.5280000000    0.8325000000                    
 INPUT CARD>C      6.0      3.1554000000    4.1474000000    1.5163000000                    
 INPUT CARD>C      6.0      4.5716000000    2.6304000000    2.7455000000                    
 INPUT CARD>C      6.0      4.3667000000    3.8672000000    2.1319000000                    
 INPUT CARD>C      6.0      5.8654000000    2.3381000000    3.4141000000                    
 INPUT CARD>H      1.0      0.9672000000    0.6604000000    1.0915000000                    
 INPUT CARD>H      1.0      1.5777000000    0.0000000000    2.6191000000                    
 INPUT CARD>H      1.0      0.3630000000    1.2910000000    2.6331000000                    
   40000000 WORDS OF MEMORY AVAILABLE

     BASIS OPTIONS
     -------------
     GBASIS=N311         IGAUSS=       6      POLAR=POPN311 
     NDFUNC=       1     NFFUNC=       0     DIFFSP=       F
     NPFUNC=       1      DIFFS=       F     BASNAM=        


     RUN TITLE
     ---------
 Benzene, 1,2,4-trimethyl-, ID: C95636                                           

 THE POINT GROUP OF THE MOLECULE IS C1      
 THE ORDER OF THE PRINCIPAL AXIS IS     0

 ATOM      ATOMIC                      COORDINATES (BOHR)
           CHARGE         X                   Y                   Z
 C           6.0     2.3842672787        1.7462957853        4.0009278612
 C           6.0     4.4017387432        3.7000834840        3.9935579299
 C           6.0     4.0202030663        6.0514695305        2.8342110364
 C           6.0     6.7094721194        3.1794639743        5.1598968095
 C           6.0     1.5886926379        6.6669532847        1.5731968848
 C           6.0     5.9628413817        7.8374495615        2.8653915152
 C           6.0     8.6390713255        4.9707352381        5.1882426993
 C           6.0     8.2518664706        7.3079483397        4.0287068332
 C           6.0    11.0839988084        4.4183683319        6.4517134947
 H           1.0     1.8277429753        1.2479750423        2.0626359156
 H           1.0     2.9814206908        0.0000000000        4.9493813344
 H           1.0     0.6859705335        2.4396362501        4.9758374983
 H           1.0     7.0084267707        1.3379259993        6.0646976124
 H           1.0     1.2198181251        5.3615305724        0.0000000000
 H           1.0     0.0000000000        6.5029250689        2.9014852815
 H           1.0     1.5662048986        8.5946627648        0.8055901886
 H           1.0     5.6773037849        9.6787985639        1.9602127671
 H           1.0     9.7628913704        8.7229751593        4.0377775180
 H           1.0    11.3574421588        2.3865349499        6.7731558852
 H           1.0    12.6885651446        5.0964020163        5.3243029704
 H           1.0    11.1762174366        5.3613415998        8.2991096203

          INTERNUCLEAR DISTANCES (ANGS.)




     $CONTRL OPTIONS
     ---------------
 SCFTYP=RHF          RUNTYP=OPTIMIZE     EXETYP=RUN     
 MPLEVL=       0     CITYP =NONE         CCTYP =NONE         VBTYP =NONE    
 DFTTYP=NONE         TDDFT =NONE    
 MULT  =       1     ICHARG=       0     NZVAR =       1     COORD =UNIQUE  
 PP    =NONE         RELWFN=NONE         LOCAL =NONE         NUMGRD=       F
 ISPHER=      -1     NOSYM =       0     MAXIT =     200     UNITS =ANGS    
 PLTORB=       F     MOLPLT=       F     AIMPAC=       F     FRIEND=        
 NPRINT=       7     IREST =       0     GEOM  =INPUT   
 NORMF =       0     NORMP =       0     ITOL  =      20     ICUT  =       9
 INTTYP=BEST         GRDTYP=BEST         QMTTOL= 1.0E-06

     $SYSTEM OPTIONS
     ---------------
  REPLICATED MEMORY=    40000000 WORDS (ON EVERY NODE).
 DISTRIBUTED MEMDDI=           0 MILLION WORDS IN AGGREGATE,
 MEMDDI DISTRIBUTED OVER   1 PROCESSORS IS           0 WORDS/PROCESSOR.
 TOTAL MEMORY REQUESTED ON EACH PROCESSOR=    40000000 WORDS.
 TIMLIM=       10000.00 MINUTES, OR       6.9 DAYS.
 PARALL= F  BALTYP=  DLB     KDIAG=    0  COREFL= F
 MXSEQ2=     300 MXSEQ3=     150  mem10=         0

     $COSGMS OPTIONS
     ---------------
     EPSI  =   INFTY     NSPA  =      92     COSRAD=    1.40
     DISEX =   10.00     OUTCHG=DBLCAV       COSBUG=       F
     COSWRT=       F     DCOSMO=       F

     SYMMETRY COORDINATES WILL NOT BE USED FOR 
     THE COSMO CALCULATION, EVEN IF SPECIFIED:
         -- SWITCHING TO C1 POINT GROUP --


     DEFINITION OF CAVITY
     ---------------------------
     ATOM         COORDINATES           RADIUS 
     1    2.3843    1.7463    4.0009    2.0000
     2    4.4017    3.7001    3.9936    2.0000
     3    4.0202    6.0515    2.8342    2.0000
     4    6.7095    3.1795    5.1599    2.0000
     5    1.5887    6.6670    1.5732    2.0000
     6    5.9628    7.8374    2.8654    2.0000
     7    8.6391    4.9707    5.1882    2.0000
     8    8.2519    7.3079    4.0287    2.0000
     9   11.0840    4.4184    6.4517    2.0000
    10    1.8277    1.2480    2.0626    1.3000
    11    2.9814    0.0000    4.9494    1.3000
    12    0.6860    2.4396    4.9758    1.3000
    13    7.0084    1.3379    6.0647    1.3000
    14    1.2198    5.3615    0.0000    1.3000
    15    0.0000    6.5029    2.9015    1.3000
    16    1.5662    8.5947    0.8056    1.3000
    17    5.6773    9.6788    1.9602    1.3000
    18    9.7629    8.7230    4.0378    1.3000
    19   11.3574    2.3865    6.7732    1.3000
    20   12.6886    5.0964    5.3243    1.3000
    21   11.1762    5.3613    8.2991    1.3000

          ----------------
          PROPERTIES INPUT
          ----------------

     MOMENTS            FIELD           POTENTIAL          DENSITY
 IEMOM =       1   IEFLD =       0   IEPOT =       0   IEDEN =       0
 WHERE =COMASS     WHERE =NUCLEI     WHERE =NUCLEI     WHERE =NUCLEI  
 OUTPUT=BOTH       OUTPUT=BOTH       OUTPUT=BOTH       OUTPUT=BOTH    
 IEMINT=       0   IEFINT=       0                     IEDINT=       0
                                                       MORB  =       0
          EXTRAPOLATION IN EFFECT
          SOSCF IN EFFECT
 ORBITAL PRINTING OPTION: NPREO=     1   243     2     1

     -------------------------------
     INTEGRAL TRANSFORMATION OPTIONS
     -------------------------------
     NWORD  =            0
     CUTOFF = 1.0E-09     MPTRAN =       0
     DIRTRF =       T     AOINTS =DUP     

          ----------------------
          INTEGRAL INPUT OPTIONS
          ----------------------
 NOPK  =       1 NORDER=       0 SCHWRZ=       T


 -----------------------------------------------
  STATISTICS ON AUTOMATIC COORDINATE GENERATION 
 -----------------------------------------------
  NUMBER OF USER SPECIFIED BONDS                             0
  NUMBER OF BONDS                                           21
  NUMBER OF ANGLES                                          36
  NUMBER OF TORSIONS                                        42
  NUMBER OF EXTRA COORD.                                     0
  NUMBER OF EXTRA COORD. FOR CONSTRAINTS                     0
  NUMBER OF CONSTRAINED COORD.                               0

  TOTAL NUMBER OF PRIMITIVES                                99
 -----------------------------------------------

   --- ENCODED Z MATRIX ---
 COORD  TYPE   I   J   K   L   M   N
    1      1    1  12
    2      1    1   2
    3      1    1  11
    4      1    1  10
    5      1    2   4
    6      1    2   3
    7      1    3   6
    8      1    3   5
    9      1    4  13
   10      1    4   7
   11      1    5  14
   12      1    5  15
   13      1    5  16
   14      1    6   8
   15      1    6  17
   16      1    7   9
   17      1    7   8
   18      1    8  18
   19      1    9  21
   20      1    9  20
   21      1    9  19
   22      2    1   2   4
   23      2    1   2   3
   24      2    2   4   7
   25      2    2   1  11
   26      2    2   1  12
   27      2    2   3   6
   28      2    2   1  10
   29      2    2   3   5
   30      2    2   4  13
   31      2    3   6  17
   32      2    3   5  16
   33      2    3   5  15
   34      2    3   2   4
   35      2    3   5  14
   36      2    3   6   8
   37      2    4   7   8
   38      2    4   7   9
   39      2    5   3   6
   40      2    6   8  18
   41      2    6   8   7
   42      2    7   9  21
   43      2    7   4  13
   44      2    7   9  19
   45      2    7   8  18
   46      2    7   9  20
   47      2    8   7   9
   48      2    8   6  17
   49      2   10   1  12
   50      2   10   1  11
   51      2   11   1  12
   52      2   14   5  16
   53      2   14   5  15
   54      2   15   5  16
   55      2   19   9  20
   56      2   19   9  21
   57      2   20   9  21
   58      3    1   2   3   5
   59      3    1   2   4   7
   60      3    1   2   4  13
   61      3    1   2   3   6
   62      3    2   3   5  16
   63      3    2   3   5  15
   64      3    2   4   7   8
   65      3    2   3   5  14
   66      3    2   4   7   9
   67      3    2   3   6  17
   68      3    2   3   6   8
   69      3    3   2   4  13
   70      3    3   2   1  11
   71      3    3   2   1  12
   72      3    3   2   4   7
   73      3    3   6   8  18
   74      3    3   6   8   7
   75      3    3   2   1  10
   76      3    4   7   9  19
   77      3    4   2   1  10
   78      3    4   7   9  20
   79      3    4   7   9  21
   80      3    4   2   3   5
   81      3    4   7   8  18
   82      3    4   7   8   6
   83      3    4   2   1  12
   84      3    4   2   3   6
   85      3    4   2   1  11
   86      3    5   3   6   8
   87      3    5   3   6  17
   88      3    6   3   5  14
   89      3    6   3   5  15
   90      3    6   3   5  16
   91      3    6   8   7   9
   92      3    7   8   6  17
   93      3    8   7   4  13
   94      3    8   7   9  20
   95      3    8   7   9  19
   96      3    8   7   9  21
   97      3    9   7   4  13
   98      3    9   7   8  18
   99      3   17   6   8  18

          INDEP./SYM. INTERNAL COORDINATES
          --------------------------------
 CRD  1=   0.2720 (  6) -0.1111 ( 10) -0.4438 ( 22)  0.5124 ( 23) -0.1292 ( 25)
           0.4357 ( 29) -0.1102 ( 38) -0.3477 ( 39)
 CRD  2=  -0.1500 (  2) -0.2436 (  5) -0.1071 (  6)  0.1322 (  7) -0.2355 ( 10)
           0.1849 ( 14)  0.1490 ( 17) -0.1948 ( 22) -0.2668 ( 29)  0.1130 ( 32)
           0.1115 ( 34) -0.4602 ( 38)  0.3255 ( 39) -0.1517 ( 44)  0.1050 ( 46)
           0.4643 ( 47)
 CRD  3=   0.2212 ( 33) -0.2022 ( 35)  0.2137 ( 42) -0.1239 ( 46) -0.2781 ( 58)
          -0.1919 ( 61)  0.1172 ( 62)  0.1743 ( 64)  0.2448 ( 66)  0.1931 ( 68)
           0.1300 ( 69) -0.3120 ( 80) -0.2083 ( 82) -0.2259 ( 84)  0.2781 ( 86)
           0.1737 ( 87) -0.1030 ( 88) -0.1080 ( 89) -0.2784 ( 91)  0.1292 ( 92)
           0.1258 ( 95)  0.1582 ( 97) -0.1545 ( 98)
 CRD  4=   0.2395 (  5)  0.1125 (  6)  0.1461 (  7)  0.4376 (  8)  0.1191 ( 10)
           0.2530 ( 14)  0.4140 ( 16)  0.1113 ( 24) -0.2557 ( 27)  0.1283 ( 32)
           0.1379 ( 34)  0.1234 ( 35)  0.1085 ( 36) -0.2382 ( 37)  0.1867 ( 38)
           0.1865 ( 39)  0.1362 ( 41)  0.1355 ( 44) -0.1157 ( 52) -0.1090 ( 53)
          -0.1132 ( 54) -0.1099 ( 55) -0.1078 ( 56) -0.1021 ( 57)
 CRD  5=   0.1282 (  2)  0.1841 (  5) -0.1723 (  7)  0.2168 ( 16)  0.2267 ( 17)
           0.3049 ( 22) -0.1977 ( 23)  0.1518 ( 25)  0.2162 ( 29) -0.1869 ( 31)
          -0.1490 ( 32) -0.1072 ( 34) -0.2939 ( 38) -0.3091 ( 39) -0.1177 ( 40)
          -0.1466 ( 43) -0.1105 ( 44)  0.1798 ( 45)  0.1824 ( 46)  0.3816 ( 47)
 CRD  6=  -0.5664 (  2) -0.1476 (  6) -0.3257 (  7) -0.1696 ( 10) -0.2081 ( 23)
          -0.1607 ( 24) -0.1754 ( 26) -0.1312 ( 27) -0.1744 ( 28)  0.2450 ( 29)
          -0.1066 ( 31) -0.1029 ( 32)  0.2783 ( 34) -0.1138 ( 39)  0.1015 ( 41)
           0.1005 ( 43)  0.1206 ( 48)  0.1634 ( 49)  0.1442 ( 50)  0.1440 ( 51)
 CRD  7=   0.3407 ( 26) -0.3329 ( 28)  0.2289 ( 42) -0.1575 ( 46)  0.2400 ( 58)
          -0.3685 ( 59) -0.1816 ( 60)  0.2800 ( 61)  0.1498 ( 64)  0.2639 ( 66)
          -0.1490 ( 70) -0.2151 ( 72) -0.1204 ( 73)  0.1821 ( 77) -0.1704 ( 78)
          -0.1365 ( 79)  0.1777 ( 83)  0.1240 ( 84) -0.1073 ( 91)
 CRD  8=   0.1728 (  5)  0.2055 (  6)  0.1790 (  7)  0.3690 (  8) -0.2196 ( 10)
          -0.3378 ( 16) -0.2140 ( 17)  0.1894 ( 22) -0.1674 ( 23)  0.2109 ( 25)
          -0.1296 ( 27) -0.1062 ( 28)  0.1016 ( 29)  0.2913 ( 30)  0.1260 ( 33)
           0.1200 ( 35)  0.1904 ( 37) -0.1780 ( 38)  0.1139 ( 40) -0.2391 ( 43)
          -0.1523 ( 44) -0.1204 ( 48) -0.1154 ( 53)  0.1040 ( 56)
 CRD  9=  -0.2121 ( 26)  0.2065 ( 28) -0.4088 ( 33)  0.4224 ( 35)  0.3850 ( 42)
          -0.1185 ( 44) -0.2654 ( 46) -0.1218 ( 52)  0.1259 ( 54)  0.1109 ( 55)
          -0.1668 ( 62)  0.1093 ( 66)  0.1535 ( 70)  0.1186 ( 80) -0.1417 ( 86)
          -0.1006 ( 87)  0.1015 ( 89) -0.1338 ( 91)  0.1322 ( 95)  0.1058 ( 97)
          -0.1120 ( 98)
 CRD 10=  -0.3878 (  6) -0.1757 (  9) -0.1152 ( 13) -0.1749 ( 15) -0.3314 ( 17)
           0.1928 ( 24) -0.2190 ( 25) -0.1336 ( 30) -0.1226 ( 31) -0.3535 ( 32)
           0.1841 ( 33)  0.1667 ( 35)  0.1894 ( 36)  0.2311 ( 40) -0.1496 ( 41)
          -0.2253 ( 44)  0.1607 ( 46) -0.1351 ( 53)
 CRD 11=  -0.1263 (  3)  0.2663 (  5) -0.2110 (  7) -0.1178 (  8) -0.2974 ( 10)
          -0.1605 ( 17) -0.1478 ( 18) -0.3800 ( 25)  0.2072 ( 26)  0.2178 ( 28)
           0.3082 ( 30) -0.1033 ( 31)  0.1879 ( 32) -0.1522 ( 33) -0.1426 ( 35)
           0.1067 ( 41) -0.3313 ( 43)  0.1292 ( 44) -0.1708 ( 45)  0.1220 ( 48)
          -0.1712 ( 49)  0.1226 ( 53)
 CRD 12=  -0.4934 ( 14) -0.1765 ( 15) -0.1593 ( 18) -0.1467 ( 25) -0.1063 ( 27)
           0.3034 ( 31)  0.1290 ( 36)  0.1092 ( 39) -0.4081 ( 40)  0.1062 ( 41)
          -0.1326 ( 44)  0.3019 ( 45)  0.1066 ( 46) -0.4324 ( 48)
 CRD 13=  -0.2209 (  7)  0.1030 ( 10)  0.1296 ( 13) -0.1109 ( 15) -0.2195 ( 17)
           0.1115 ( 20) -0.1463 ( 21)  0.1308 ( 25) -0.1544 ( 31)  0.3995 ( 32)
          -0.1989 ( 33) -0.1901 ( 35)  0.1067 ( 40)  0.1030 ( 42)  0.1126 ( 43)
          -0.4483 ( 44) -0.1464 ( 45)  0.3414 ( 46)  0.1050 ( 48)  0.1555 ( 53)
           0.1399 ( 56) -0.1787 ( 57)
 CRD 14=  -0.1417 (  1)  0.1387 (  4) -0.1097 ( 11)  0.1079 ( 12) -0.3916 ( 26)
           0.3825 ( 28)  0.2974 ( 33) -0.3028 ( 35)  0.2173 ( 42) -0.1572 ( 46)
          -0.1716 ( 50)  0.1680 ( 51)  0.1305 ( 52) -0.1315 ( 54)  0.1022 ( 61)
          -0.1393 ( 72) -0.1165 ( 74) -0.1061 ( 76) -0.1382 ( 78) -0.1306 ( 79)
           0.1217 ( 80)  0.1348 ( 82)  0.1571 ( 84)  0.1044 ( 91) -0.1074 ( 94)
 CRD 15=  -0.1387 ( 19) -0.1074 ( 26)  0.1089 ( 28) -0.1386 ( 33)  0.1386 ( 35)
          -0.3785 ( 42)  0.1184 ( 44)  0.2509 ( 46) -0.1654 ( 55)  0.1181 ( 56)
          -0.1361 ( 59) -0.1839 ( 62) -0.1646 ( 63)  0.2067 ( 64) -0.1643 ( 65)
           0.1674 ( 66)  0.1186 ( 67)  0.1898 ( 68)  0.1719 ( 70)  0.1551 ( 71)
          -0.1853 ( 72) -0.1079 ( 73) -0.1692 ( 74)  0.1551 ( 75) -0.1345 ( 76)
           0.1053 ( 77) -0.1038 ( 79)  0.1052 ( 83)  0.1221 ( 85)  0.1305 ( 86)
          -0.1040 ( 88) -0.1043 ( 89) -0.1236 ( 90) -0.1270 ( 94) -0.1740 ( 95)
          -0.1433 ( 96)
 CRD 16=   0.1931 (  5)  0.1403 (  6)  0.1214 (  7)  0.3682 (  9)  0.1927 ( 10)
           0.2343 ( 15)  0.1582 ( 17) -0.2708 ( 24) -0.3316 ( 25)  0.1313 ( 26)
           0.1036 ( 27)  0.1477 ( 28)  0.1395 ( 30)  0.1047 ( 31) -0.1668 ( 32)
           0.1234 ( 34) -0.1840 ( 36)  0.1321 ( 37)  0.1313 ( 43) -0.2979 ( 44)
           0.2140 ( 46) -0.1084 ( 49)  0.1015 ( 56) -0.1052 ( 57)
 CRD 17=   0.2034 (  8)  0.1555 (  9)  0.2276 ( 10) -0.2389 ( 15) -0.2221 ( 16)
           0.1905 ( 17)  0.3381 ( 18) -0.2292 ( 25)  0.1066 ( 28) -0.2803 ( 31)
           0.2618 ( 32)  0.2576 ( 36)  0.1011 ( 37) -0.2909 ( 41)  0.1164 ( 43)
           0.2893 ( 45) -0.1677 ( 46) -0.1105 ( 52) -0.1095 ( 54)  0.1201 ( 57)
 CRD 18=   0.1372 ( 26) -0.1336 ( 28) -0.1405 ( 33)  0.1453 ( 35)  0.1660 ( 42)
          -0.1118 ( 46) -0.1212 ( 58) -0.1741 ( 62) -0.1884 ( 63) -0.1881 ( 65)
          -0.1853 ( 70) -0.1942 ( 71) -0.1128 ( 74) -0.1941 ( 75) -0.1340 ( 76)
          -0.2505 ( 77) -0.1314 ( 78) -0.1336 ( 79)  0.1079 ( 82) -0.2506 ( 83)
          -0.2417 ( 85)  0.1182 ( 86) -0.2456 ( 88) -0.2458 ( 89) -0.2315 ( 90)
           0.1244 ( 91) -0.1480 ( 94) -0.1507 ( 95) -0.1503 ( 96)
 CRD 19=   0.1599 ( 26) -0.1563 ( 28)  0.1449 ( 33) -0.1502 ( 35)  0.1028 ( 42)
          -0.2783 ( 62) -0.2723 ( 63) -0.2728 ( 65)  0.2368 ( 70)  0.2310 ( 71)
           0.2307 ( 75)  0.1486 ( 76)  0.1518 ( 77)  0.1544 ( 78)  0.1542 ( 79)
           0.1521 ( 83)  0.1579 ( 85) -0.1234 ( 87) -0.2183 ( 88) -0.2179 ( 89)
          -0.2238 ( 90)  0.1533 ( 94)  0.1475 ( 95)  0.1532 ( 96)
 CRD 20=  -0.1209 ( 26)  0.1204 ( 28) -0.1130 ( 42) -0.1398 ( 59) -0.2176 ( 60)
           0.1231 ( 66) -0.1194 ( 67) -0.1949 ( 69) -0.1979 ( 70) -0.1656 ( 71)
          -0.1171 ( 72) -0.1571 ( 73) -0.1648 ( 75)  0.2425 ( 76) -0.1418 ( 77)
           0.2199 ( 78)  0.2307 ( 79)  0.1156 ( 81) -0.1426 ( 83) -0.1749 ( 85)
          -0.1051 ( 88) -0.1051 ( 89) -0.1036 ( 90)  0.1593 ( 93)  0.2617 ( 94)
           0.2843 ( 95)  0.2725 ( 96)  0.2009 ( 97)
 CRD 21=   0.2312 (  1) -0.1633 (  2)  0.2523 (  3)  0.2319 (  4)  0.1555 (  7)
           0.1230 ( 11)  0.1200 ( 12)  0.1462 ( 13)  0.1113 ( 16)  0.2041 ( 18)
          -0.1583 ( 19) -0.1562 ( 20) -0.1682 ( 21) -0.1441 ( 25) -0.2173 ( 26)
          -0.2176 ( 28)  0.1419 ( 30) -0.1511 ( 33) -0.1441 ( 35)  0.1117 ( 37)
           0.1161 ( 40) -0.1226 ( 41)  0.1302 ( 42) -0.1538 ( 43)  0.1269 ( 44)
           0.1343 ( 46) -0.1299 ( 48)  0.2334 ( 49)  0.1923 ( 50)  0.1923 ( 51)
           0.1621 ( 53) -0.1411 ( 55) -0.1350 ( 56) -0.1413 ( 57)
 CRD 22=   0.1005 (  5)  0.3376 ( 11)  0.3445 ( 12)  0.3447 ( 13)  0.2828 ( 19)
           0.2914 ( 20)  0.2924 ( 21) -0.1792 ( 32) -0.1735 ( 33) -0.1780 ( 35)
          -0.1509 ( 42) -0.1504 ( 44) -0.1475 ( 46)  0.1938 ( 52)  0.1837 ( 53)
           0.1891 ( 54)  0.1603 ( 55)  0.1619 ( 56)  0.1564 ( 57)
 CRD 23=   0.3196 (  1)  0.3204 (  3)  0.3203 (  4) -0.2279 ( 11) -0.2207 ( 12)
          -0.2237 ( 13)  0.2553 ( 19)  0.2657 ( 20)  0.2650 ( 21) -0.1584 ( 25)
          -0.1332 ( 26) -0.1334 ( 28)  0.1194 ( 32) -0.1186 ( 42) -0.1170 ( 44)
          -0.1130 ( 46)  0.1356 ( 49)  0.1591 ( 50)  0.1589 ( 51) -0.1114 ( 52)
          -0.1171 ( 54)  0.1230 ( 55)  0.1276 ( 56)  0.1212 ( 57)
 CRD 24=  -0.1029 ( 11) -0.1442 ( 19) -0.1299 ( 55) -0.1600 ( 62) -0.1020 ( 63)
          -0.1044 ( 65) -0.2185 ( 67) -0.1975 ( 68)  0.2553 ( 73)  0.2705 ( 74)
          -0.1664 ( 78) -0.1432 ( 79) -0.1654 ( 81) -0.1806 ( 82) -0.2286 ( 86)
          -0.2495 ( 87) -0.1285 ( 90) -0.2473 ( 91)  0.2914 ( 92)  0.1016 ( 97)
          -0.2321 ( 98)  0.2762 ( 99)
 CRD 25=   0.1815 (  1)  0.2781 (  2)  0.3894 (  3)  0.1773 (  4) -0.1312 (  7)
           0.1927 (  8)  0.3400 ( 13) -0.2142 ( 16) -0.2238 ( 18) -0.1860 ( 19)
          -0.1757 ( 20) -0.2172 ( 21) -0.1774 ( 30) -0.1175 ( 40)  0.1816 ( 43)
           0.1498 ( 48) -0.1568 ( 49) -0.1763 ( 53)
 CRD 26=  -0.2251 (  1)  0.3911 (  3) -0.2384 (  4)  0.2063 ( 11)  0.2251 ( 12)
          -0.3403 ( 13) -0.3165 ( 49)  0.1542 ( 50)  0.1645 ( 51) -0.1507 ( 52)
           0.2831 ( 53) -0.1362 ( 54)  0.1503 ( 63) -0.1550 ( 65)  0.1721 ( 71)
          -0.1687 ( 75) -0.1686 ( 77)  0.1723 ( 83) -0.1550 ( 88)  0.1503 ( 89)
 CRD 27=   0.1003 ( 19)  0.4445 ( 20) -0.5334 ( 21) -0.3120 ( 56)  0.3831 ( 57)
          -0.1691 ( 78)  0.2547 ( 79) -0.1712 ( 94)  0.2525 ( 96)
 CRD 28=   0.3282 (  1) -0.3152 (  4) -0.3014 ( 11)  0.2943 ( 12)  0.2770 ( 19)
          -0.1307 ( 20) -0.1381 ( 21) -0.2343 ( 50)  0.2257 ( 51) -0.2206 ( 52)
           0.2254 ( 54) -0.1851 ( 55)  0.1752 ( 62) -0.1727 ( 70)  0.1153 ( 77)
          -0.1185 ( 78)  0.1057 ( 83) -0.1435 ( 85) -0.1042 ( 89)  0.1434 ( 90)
           0.1069 ( 95)
 CRD 29=   0.3565 ( 11) -0.3495 ( 12)  0.4215 ( 19) -0.2853 ( 20) -0.1232 ( 21)
           0.2351 ( 52) -0.2398 ( 54) -0.2824 ( 55)  0.1967 ( 56) -0.1864 ( 62)
           0.1776 ( 76) -0.1435 ( 78) -0.1783 ( 90) -0.1309 ( 94)  0.1903 ( 95)
 CRD 30=   0.3944 (  1) -0.3767 (  4)  0.2121 ( 11) -0.1960 ( 12) -0.3140 ( 19)
           0.2092 ( 20) -0.2672 ( 50)  0.2574 ( 51)  0.1361 ( 52) -0.1455 ( 54)
           0.2064 ( 55) -0.1425 ( 56) -0.1145 ( 62) -0.2094 ( 70) -0.1298 ( 76)
           0.1049 ( 77)  0.1057 ( 78) -0.1998 ( 85) -0.1095 ( 90) -0.1374 ( 95)
 CRD 31=  -0.2901 (  1) -0.1404 (  2)  0.2487 (  3) -0.3096 (  4) -0.2668 ( 11)
          -0.2892 ( 12)  0.3251 ( 13)  0.1319 ( 16)  0.1208 ( 18)  0.1127 ( 19)
           0.1808 ( 20) -0.2114 ( 49)  0.1149 ( 50)  0.1273 ( 51)  0.1388 ( 52)
          -0.2434 ( 53)  0.1240 ( 54) -0.1475 ( 63)  0.1521 ( 65)  0.1354 ( 71)
          -0.1314 ( 75) -0.1313 ( 77)  0.1355 ( 83)  0.1523 ( 88) -0.1473 ( 89)
 CRD 32=  -0.1876 (  2) -0.2970 (  3) -0.1995 (  5)  0.1890 (  7)  0.1968 (  8)
          -0.4245 (  9)  0.3002 ( 13)  0.4170 ( 15)  0.2224 ( 22)  0.1121 ( 24)
          -0.1842 ( 25)  0.1426 ( 27)  0.1841 ( 32) -0.1395 ( 34) -0.1106 ( 36)
          -0.2234 ( 39)
 CRD 33=  -0.1254 (  1)  0.1224 (  4)  0.1567 ( 11) -0.1505 ( 12)  0.1021 ( 35)
           0.1840 ( 60)  0.1536 ( 61) -0.1009 ( 64) -0.2809 ( 67)  0.3330 ( 69)
          -0.1949 ( 73) -0.1060 ( 76)  0.1311 ( 77) -0.1716 ( 80)  0.2734 ( 81)
           0.1312 ( 83)  0.1411 ( 85)  0.1133 ( 86) -0.1096 ( 87) -0.1229 ( 88)
          -0.1235 ( 89) -0.1082 ( 90)  0.2574 ( 92) -0.3563 ( 93) -0.2351 ( 97)
           0.1531 ( 98)
 CRD 34=  -0.2981 (  5)  0.2453 (  8)  0.1015 (  9)  0.1822 ( 11)  0.1862 ( 12)
          -0.3592 ( 14) -0.2568 ( 15)  0.2910 ( 16) -0.1539 ( 18)  0.1687 ( 19)
           0.1536 ( 20)  0.2285 ( 21) -0.1379 ( 24)  0.1683 ( 27) -0.1368 ( 29)
           0.1054 ( 30)  0.1067 ( 33)  0.1040 ( 35)  0.2047 ( 37) -0.1480 ( 38)
           0.1732 ( 40)  0.1274 ( 44)  0.1352 ( 48) -0.1077 ( 53) -0.1070 ( 55)
          -0.1131 ( 56)
 CRD 35=  -0.1100 (  7) -0.2074 (  9) -0.1206 ( 10)  0.1043 ( 12)  0.1437 ( 17)
           0.1400 ( 18)  0.1377 ( 20) -0.1762 ( 21) -0.1550 ( 22)  0.1745 ( 23)
          -0.1970 ( 29)  0.3057 ( 30) -0.2351 ( 31)  0.2265 ( 38)  0.1397 ( 39)
          -0.2887 ( 40) -0.3058 ( 43) -0.1338 ( 44)  0.3039 ( 45)  0.1043 ( 46)
          -0.2306 ( 47)  0.2622 ( 48)
 CRD 36=   0.1527 (  1)  0.1275 (  2)  0.1560 (  4) -0.1566 (  5) -0.2012 (  7)
          -0.2730 (  9) -0.3307 ( 10) -0.1394 ( 15)  0.1757 ( 17)  0.5379 ( 18)
           0.1205 ( 20) -0.1942 ( 23) -0.1083 ( 24)  0.1138 ( 26)  0.1161 ( 28)
           0.1232 ( 29)  0.2335 ( 31)  0.1968 ( 34)  0.1148 ( 43)  0.1024 ( 46)
          -0.1606 ( 48) -0.1367 ( 49)
 CRD 37=  -0.1652 (  3)  0.4406 (  6) -0.4149 (  9)  0.1259 ( 10) -0.1297 ( 13)
          -0.5122 ( 15)  0.2880 ( 17) -0.1989 ( 18) -0.1322 ( 25) -0.1251 ( 45)
           0.1120 ( 50)  0.1128 ( 51)
 CRD 38=  -0.1031 (  4)  0.1180 (  5) -0.1759 (  6) -0.2579 (  7) -0.1320 (  8)
           0.1827 ( 11)  0.1896 ( 12)  0.1683 ( 13)  0.1280 ( 17)  0.2087 ( 18)
          -0.1354 ( 19) -0.1420 ( 20) -0.1138 ( 21)  0.1431 ( 23)  0.2075 ( 27)
          -0.1153 ( 29)  0.2186 ( 31)  0.1647 ( 32)  0.1730 ( 33)  0.1721 ( 35)
          -0.1725 ( 37)  0.1233 ( 40)  0.1061 ( 41) -0.1233 ( 42) -0.1237 ( 44)
          -0.2294 ( 45) -0.1226 ( 46)  0.1197 ( 47) -0.1331 ( 48)  0.1139 ( 49)
          -0.1752 ( 52) -0.1894 ( 53) -0.1798 ( 54)  0.1276 ( 55)  0.1233 ( 56)
           0.1435 ( 57)
 CRD 39=  -0.2044 (  1)  0.1742 (  4)  0.1753 ( 11) -0.1497 ( 12)  0.2432 ( 19)
          -0.1592 ( 20) -0.1211 ( 50)  0.1428 ( 51) -0.1132 ( 52)  0.1118 ( 54)
           0.1538 ( 55) -0.1233 ( 56) -0.1051 ( 59) -0.2018 ( 60) -0.1597 ( 66)
          -0.1113 ( 70)  0.2722 ( 73)  0.1934 ( 77)  0.2041 ( 78)  0.1473 ( 79)
          -0.1374 ( 80) -0.2800 ( 81)  0.1882 ( 83) -0.1454 ( 88) -0.1566 ( 89)
           0.1139 ( 91)  0.1275 ( 93) -0.1823 ( 95)  0.2962 ( 99)
 CRD 40=  -0.1340 (  1)  0.2117 (  2) -0.1899 (  3) -0.1598 (  4)  0.1523 (  5)
           0.2646 (  6) -0.2815 (  7) -0.1255 ( 13)  0.1660 ( 15) -0.1246 ( 16)
          -0.3073 ( 17)  0.2905 ( 18)  0.1733 ( 21) -0.1654 ( 25) -0.1532 ( 26)
          -0.1520 ( 28) -0.1042 ( 29) -0.1911 ( 30) -0.1333 ( 34)  0.1116 ( 39)
          -0.1062 ( 40)  0.1840 ( 43)  0.1046 ( 44)  0.1485 ( 49)  0.1858 ( 50)
           0.1679 ( 51) -0.1042 ( 53) -0.1220 ( 55) -0.1279 ( 56)
 CRD 41=   0.1065 (  1) -0.1454 (  2)  0.1141 (  4) -0.3228 (  5)  0.2740 (  6)
          -0.2684 (  7)  0.1439 (  8)  0.3657 ( 10) -0.1873 ( 13)  0.1870 ( 15)
           0.2443 ( 16) -0.2704 ( 17)  0.1464 ( 18) -0.1356 ( 19) -0.2083 ( 20)
           0.1575 ( 30) -0.1167 ( 42) -0.1294 ( 43) -0.1271 ( 46) -0.1294 ( 49)
           0.1123 ( 52)  0.1113 ( 54)  0.1051 ( 55)  0.2014 ( 57)
 CRD 42=   0.2370 (  2) -0.1815 (  3) -0.1996 (  5)  0.1297 (  7)  0.2114 (  8)
           0.3990 (  9) -0.3175 ( 10) -0.1004 ( 11) -0.1069 ( 12) -0.1654 ( 14)
           0.2860 ( 16)  0.1196 ( 18) -0.2213 ( 21)  0.1019 ( 22)  0.1842 ( 24)
          -0.1202 ( 30)  0.1028 ( 38) -0.1137 ( 42) -0.1173 ( 44) -0.1127 ( 46)
           0.1173 ( 48)  0.1287 ( 50)  0.1340 ( 51)  0.1182 ( 53)  0.1407 ( 55)
           0.1773 ( 56)
 CRD 43=   0.1583 (  3)  0.3430 (  5) -0.2127 (  6)  0.2608 (  8) -0.2630 (  9)
          -0.4786 ( 14)  0.2483 ( 15)  0.1313 ( 17)  0.1333 ( 18) -0.1629 ( 24)
          -0.1517 ( 31) -0.1040 ( 33) -0.1033 ( 35)  0.1748 ( 40)  0.1661 ( 43)
          -0.2028 ( 45)  0.1007 ( 49)  0.1035 ( 52)  0.1007 ( 53)  0.1035 ( 54)
 CRD 44=   0.1142 (  1) -0.3763 (  2)  0.1267 (  4)  0.1762 (  5)  0.1413 (  6)
           0.3217 (  7) -0.2636 (  8) -0.1420 ( 10) -0.1897 ( 14) -0.1438 ( 15)
           0.1178 ( 16) -0.1892 ( 17)  0.2689 ( 18)  0.1206 ( 25) -0.1793 ( 30)
          -0.1683 ( 31) -0.1104 ( 34) -0.1095 ( 36) -0.1829 ( 40)  0.1933 ( 41)
           0.1142 ( 43)  0.2778 ( 48) -0.1420 ( 49)
 CRD 45=  -0.2473 (  1)  0.2355 (  4) -0.1056 ( 11) -0.1176 ( 19) -0.1672 ( 50)
           0.1679 ( 51)  0.1597 ( 60) -0.1930 ( 62)  0.3096 ( 67)  0.2525 ( 69)
          -0.2750 ( 70)  0.1408 ( 73)  0.1144 ( 76) -0.1190 ( 81) -0.1809 ( 85)
           0.2460 ( 87) -0.1282 ( 90) -0.2804 ( 92) -0.2234 ( 93)  0.1557 ( 95)
          -0.1823 ( 97) -0.1598 ( 98) -0.1515 ( 99)
 CRD 46=  -0.1755 (  6)  0.3255 (  8)  0.1953 ( 10) -0.1502 ( 11) -0.1526 ( 12)
           0.1155 ( 14) -0.2910 ( 15) -0.2153 ( 16) -0.1754 ( 17)  0.2191 ( 18)
           0.1852 ( 21)  0.1895 ( 27)  0.1430 ( 31) -0.1252 ( 32) -0.2885 ( 36)
          -0.1287 ( 37) -0.1159 ( 39) -0.2054 ( 40)  0.2339 ( 41)  0.1455 ( 48)
           0.1910 ( 53) -0.1302 ( 56)
 CRD 47=   0.3485 (  2)  0.1650 (  7) -0.2254 (  8) -0.1969 (  9)  0.2152 ( 13)
           0.3168 ( 16) -0.2309 ( 17) -0.1069 ( 19) -0.1594 ( 20) -0.1140 ( 22)
          -0.1189 ( 23) -0.2343 ( 24) -0.1439 ( 27)  0.1357 ( 30)  0.2328 ( 34)
           0.1875 ( 37) -0.1103 ( 40) -0.1125 ( 44)  0.1461 ( 45)  0.1083 ( 49)
          -0.1225 ( 52) -0.1000 ( 54)  0.1682 ( 57)
 CRD 48=  -0.3041 ( 11)  0.2939 ( 12)  0.2888 ( 19) -0.2068 ( 20)  0.1065 ( 35)
          -0.1068 ( 42)  0.1995 ( 52) -0.2166 ( 54)  0.2055 ( 55) -0.1401 ( 56)
          -0.2421 ( 62)  0.1030 ( 63)  0.1283 ( 64)  0.1355 ( 68) -0.1048 ( 70)
          -0.1717 ( 73) -0.1801 ( 76)  0.1512 ( 78) -0.1341 ( 82) -0.1405 ( 84)
           0.1489 ( 88)  0.1663 ( 89) -0.1787 ( 90)  0.1483 ( 92) -0.2330 ( 95)
 CRD 49=   0.1666 (  2) -0.2548 (  3) -0.1814 (  5)  0.1391 (  7) -0.1777 (  8)
           0.2093 ( 10)  0.1082 ( 13) -0.3229 ( 14) -0.3054 ( 16)  0.1918 ( 17)
           0.1040 ( 18)  0.1274 ( 21) -0.1246 ( 22) -0.1554 ( 27)  0.1412 ( 30)
          -0.1595 ( 31)  0.1270 ( 34) -0.2133 ( 37)  0.1212 ( 38)  0.1047 ( 39)
           0.1153 ( 41) -0.1810 ( 43) -0.2052 ( 45) -0.1258 ( 49)  0.1089 ( 50)
           0.1123 ( 51) -0.1003 ( 56)  0.1340 ( 71) -0.1321 ( 75) -0.1325 ( 77)
           0.1336 ( 83)
 CRD 50=   0.1519 (  6) -0.1043 (  7)  0.1493 ( 10) -0.1269 ( 11) -0.1416 ( 12)
           0.2777 ( 13) -0.1324 ( 17)  0.2337 ( 20) -0.2940 ( 21) -0.1485 ( 29)
          -0.1668 ( 32) -0.1731 ( 38)  0.1697 ( 39)  0.1880 ( 44) -0.1424 ( 46)
           0.1886 ( 47) -0.1043 ( 52)  0.1874 ( 53)  0.1574 ( 56) -0.2105 ( 57)
           0.1737 ( 63) -0.1803 ( 65)  0.1561 ( 78) -0.2267 ( 79) -0.1800 ( 88)
           0.1740 ( 89)  0.1561 ( 94) -0.2268 ( 96)
 CRD 51=  -0.1597 (  1)  0.1137 (  2)  0.2817 (  3) -0.1735 (  4) -0.2617 (  5)
           0.1988 (  7) -0.1589 (  8)  0.1354 ( 10)  0.1028 ( 11)  0.1082 ( 12)
          -0.1428 ( 13) -0.1264 ( 14)  0.1415 ( 22) -0.2506 ( 23) -0.2129 ( 25)
          -0.1399 ( 27)  0.1841 ( 29)  0.1306 ( 32)  0.1091 ( 34) -0.1003 ( 37)
           0.1046 ( 47)  0.2281 ( 49) -0.1417 ( 53) -0.1074 ( 63)  0.1088 ( 65)
          -0.1994 ( 71)  0.1922 ( 75)  0.1924 ( 77) -0.1991 ( 83)  0.1088 ( 88)
          -0.1073 ( 89)
 CRD 52=  -0.2462 (  1)  0.2439 (  4) -0.1770 ( 19)  0.1272 ( 20)  0.1273 ( 26)
          -0.1290 ( 28) -0.1696 ( 50)  0.1706 ( 51) -0.1224 ( 55) -0.1516 ( 58)
           0.2083 ( 59) -0.1152 ( 60) -0.1742 ( 61) -0.1068 ( 64) -0.1521 ( 66)
          -0.1772 ( 69) -0.1213 ( 70)  0.1855 ( 71)  0.1462 ( 72) -0.1420 ( 73)
           0.1863 ( 75)  0.1234 ( 77) -0.1486 ( 78)  0.1747 ( 81)  0.1227 ( 83)
          -0.1111 ( 84) -0.1842 ( 85) -0.1210 ( 87)  0.1377 ( 92)  0.2165 ( 93)
          -0.1942 ( 94) -0.1334 ( 96)  0.1712 ( 97)  0.2198 ( 98)
 CRD 53=  -0.1055 (  2)  0.1901 (  3) -0.1022 (  5)  0.2734 (  6) -0.1532 (  7)
           0.1319 (  9) -0.1686 ( 10)  0.2051 ( 13)  0.1084 ( 15)  0.2057 ( 17)
          -0.1418 ( 20)  0.1988 ( 21)  0.1812 ( 22)  0.1493 ( 24) -0.1118 ( 25)
          -0.1208 ( 29) -0.1332 ( 32)  0.1304 ( 36)  0.1734 ( 38)  0.1728 ( 39)
          -0.1335 ( 44)  0.1093 ( 46) -0.1374 ( 47)  0.1083 ( 49)  0.1291 ( 53)
          -0.1059 ( 56)  0.1318 ( 57)  0.1327 ( 63) -0.1346 ( 65) -0.1141 ( 71)
           0.1247 ( 75)  0.1222 ( 77) -0.1113 ( 78)  0.1509 ( 79) -0.1165 ( 83)
          -0.1338 ( 88)  0.1335 ( 89) -0.1130 ( 94)  0.1492 ( 96)
 CRD 54=  -0.1154 (  1)  0.1136 (  4)  0.2043 ( 11) -0.1973 ( 12)  0.1897 ( 19)
          -0.1307 ( 20)  0.1283 ( 33) -0.1330 ( 35) -0.1221 ( 42) -0.1369 ( 52)
           0.1415 ( 54)  0.1306 ( 55)  0.1140 ( 59)  0.1226 ( 60) -0.1761 ( 63)
          -0.1668 ( 65)  0.1473 ( 66) -0.1205 ( 73)  0.1406 ( 74) -0.2363 ( 76)
           0.1711 ( 80)  0.1523 ( 81) -0.1080 ( 82) -0.1859 ( 85) -0.2441 ( 86)
           0.2482 ( 90) -0.2210 ( 91)  0.1308 ( 94) -0.1219 ( 95)  0.1387 ( 97)
          -0.3061 ( 99)
 CRD 55=   0.3014 ( 60) -0.2005 ( 61)  0.1202 ( 64)  0.1184 ( 66) -0.1477 ( 67)
           0.2257 ( 68)  0.1039 ( 71) -0.2000 ( 72) -0.3076 ( 74)  0.1064 ( 75)
          -0.1208 ( 77)  0.1697 ( 80) -0.1531 ( 81)  0.1331 ( 82) -0.1233 ( 83)
          -0.2443 ( 85) -0.2880 ( 87)  0.1190 ( 88)  0.1165 ( 89)  0.1896 ( 90)
           0.1349 ( 91) -0.1570 ( 93) -0.1588 ( 97) -0.1513 ( 98)  0.3526 ( 99)
 CRD 56=   0.1109 ( 42)  0.2219 ( 58) -0.1650 ( 59) -0.1651 ( 63)  0.2408 ( 64)
          -0.1618 ( 65) -0.1128 ( 66)  0.1159 ( 68)  0.1435 ( 69) -0.1382 ( 71)
          -0.1372 ( 73)  0.1003 ( 74) -0.1394 ( 75)  0.2610 ( 76)  0.1059 ( 78)
           0.1538 ( 79) -0.2774 ( 82) -0.1525 ( 84) -0.1135 ( 86) -0.1555 ( 87)
           0.1658 ( 90)  0.1423 ( 92) -0.2499 ( 94) -0.2020 ( 96) -0.2820 ( 97)
           0.3108 ( 98)
 CRD 57=  -0.2626 ( 58)  0.2301 ( 60)  0.1069 ( 62)  0.1769 ( 63)  0.2473 ( 64)
           0.1745 ( 65) -0.2662 ( 68)  0.1060 ( 70)  0.1771 ( 71) -0.2972 ( 72)
           0.2188 ( 74)  0.1786 ( 75)  0.1330 ( 76) -0.1106 ( 77) -0.2061 ( 82)
          -0.1121 ( 83)  0.3026 ( 84) -0.1832 ( 85)  0.2040 ( 87) -0.1015 ( 88)
          -0.1690 ( 90) -0.1107 ( 94) -0.1861 ( 97)  0.1515 ( 98) -0.1479 ( 99)

 THE DETERMINANT OF THE G MATRIX IS 10**(   -24)


                     --------------------
                     INTERNAL COORDINATES
                     --------------------

                 - - ATOMS - -         COORDINATE      COORDINATE
 NO.   TYPE    I  J  K  L  M  N        (BOHR,RAD)       (ANG,DEG)
 ----------------------------------------------------------------
   1 STRETCH   1 12                     2.0773497       1.0992862
   2 STRETCH   1  2                     2.8084750       1.4861811
   3 STRETCH   1 11                     2.0750193       1.0980530
   4 STRETCH   1 10                     2.0772623       1.0992399
   5 STRETCH   2  4                     2.6376172       1.3957670
   6 STRETCH   2  3                     2.6492775       1.4019374
   7 STRETCH   3  6                     2.6390416       1.3965208
   8 STRETCH   3  5                     2.8073510       1.4855863
   9 STRETCH   4 13                     2.0734755       1.0972360
  10 STRETCH   4  7                     2.6330228       1.3933358
  11 STRETCH   5 14                     2.0772928       1.0992561
  12 STRETCH   5 15                     2.0773059       1.0992630
  13 STRETCH   5 16                     2.0750397       1.0980638
  14 STRETCH   6  8                     2.6216998       1.3873439
  15 STRETCH   6 17                     2.0715807       1.0962334
  16 STRETCH   7  9                     2.8069802       1.4853901
  17 STRETCH   7  8                     2.6376156       1.3957662
  18 STRETCH   8 18                     2.0701641       1.0954837
  19 STRETCH   9 21                     2.0761925       1.0986738
  20 STRETCH   9 20                     2.0749499       1.0980163
  21 STRETCH   9 19                     2.0751972       1.0981471
  22 BEND      1  2  4                  2.0829242     119.3427667
  23 BEND      1  2  3                  2.1119757     121.0072917
  24 BEND      2  4  7                  2.1079221     120.7750398
  25 BEND      2  1 11                  1.9605255     112.3298365
  26 BEND      2  1 12                  1.9351179     110.8740874
  27 BEND      2  3  6                  2.0822844     119.3061099
  28 BEND      2  1 10                  1.9357375     110.9095878
  29 BEND      2  3  5                  2.1128416     121.0569057
  30 BEND      2  4 13                  2.0879538     119.6309397
  31 BEND      3  6 17                  2.0885330     119.6641242
  32 BEND      3  5 16                  1.9597534     112.2856006
  33 BEND      3  5 15                  1.9367776     110.9691850
  34 BEND      3  2  4                  2.0882854     119.6499397
  35 BEND      3  5 14                  1.9350001     110.8673365
  36 BEND      3  6  8                  2.1074548     120.7482676
  37 BEND      4  7  8                  2.0834746     119.3743015
  38 BEND      4  7  9                  2.1051595     120.6167547
  39 BEND      5  3  6                  2.0880577     119.6368964
  40 BEND      6  8 18                  2.0957558     120.0779628
  41 BEND      6  8  7                  2.0969462     120.1461695
  42 BEND      7  9 21                  1.9281826     110.4767229
  43 BEND      7  4 13                  2.0873094     119.5940173
  44 BEND      7  9 19                  1.9575295     112.1581810
  45 BEND      7  8 18                  2.0904823     119.7758156
  46 BEND      7  9 20                  1.9440952     111.3884517
  47 BEND      8  7  9                  2.0945291     120.0076783
  48 BEND      8  6 17                  2.0871975     119.5876051
  49 BEND     10  1 12                  1.8743868     107.3944506
  50 BEND     10  1 11                  1.8772860     107.5605644
  51 BEND     11  1 12                  1.8772167     107.5565963
  52 BEND     14  5 16                  1.8773000     107.5613670
  53 BEND     14  5 15                  1.8742632     107.3873688
  54 BEND     15  5 16                  1.8771743     107.5541647
  55 BEND     19  9 20                  1.8778055     107.5903309
  56 BEND     19  9 21                  1.8765509     107.5184480
  57 BEND     20  9 21                  1.8762280     107.4999449
  58 TORSION   1  2  3  5              -0.0009938      -0.0569385
  59 TORSION   1  2  4  7              -3.1406836    -179.9479136
  60 TORSION   1  2  4 13               0.0012663       0.0725515
  61 TORSION   1  2  3  6              -3.1406972    -179.9486928
  62 TORSION   2  3  5 16               3.1130731     178.3659471
  63 TORSION   2  3  5 15               1.0115723      57.9588232
  64 TORSION   2  4  7  8              -0.0026451      -0.1515519
  65 TORSION   2  3  5 14              -1.0696935     -61.2889212
  66 TORSION   2  4  7  9               3.1318055     179.4392362
  67 TORSION   2  3  6 17               3.1402955     179.9256784
  68 TORSION   2  3  6  8              -0.0009426      -0.0540062
  69 TORSION   3  2  4 13              -3.1400516    -179.9117044
  70 TORSION   3  2  1 11               3.1231821     178.9451527
  71 TORSION   3  2  1 12              -1.0590818     -60.6809181
  72 TORSION   3  2  4  7               0.0011839       0.0678305
  73 TORSION   3  6  8 18               3.1396117     179.8864972
  74 TORSION   3  6  8  7              -0.0005283      -0.0302668
  75 TORSION   3  2  1 10               1.0217384      58.5412983
  76 TORSION   4  7  9 19               0.3062540      17.5470606
  77 TORSION   4  2  1 10              -2.1195756    -121.4427379
  78 TORSION   4  7  9 20               2.4121710     138.2072168
  79 TORSION   4  7  9 21              -1.7869993    -102.3875170
  80 TORSION   4  2  3  5               3.1403194     179.9270493
  81 TORSION   4  7  8 18              -3.1378348    -179.7846908
  82 TORSION   4  7  8  6               0.0023095       0.1323255
  83 TORSION   4  2  1 12               2.0827895     119.3350457
  84 TORSION   4  2  3  6               0.0006160       0.0352950
  85 TORSION   4  2  1 11              -0.0181319      -1.0388835
  86 TORSION   5  3  6  8              -3.1406732    -179.9473199
  87 TORSION   5  3  6 17               0.0005649       0.0323647
  88 TORSION   6  3  5 14               2.0700038     118.6024794
  89 TORSION   6  3  5 15              -2.1319158    -122.1497762
  90 TORSION   6  3  5 16              -0.0304150      -1.7426523
  91 TORSION   6  8  7  9              -3.1321853    -179.4609980
  92 TORSION   7  8  6 17               3.1414187     179.9900331
  93 TORSION   8  7  4 13               3.1385905     179.8279905
  94 TORSION   8  7  9 20              -0.7366089     -42.2045827
  95 TORSION   8  7  9 19              -2.8425259    -162.8647389
  96 TORSION   8  7  9 21               1.3474061      77.2006835
  97 TORSION   9  7  4 13              -0.0101442      -0.5812215
  98 TORSION   9  7  8 18               0.0108557       0.6219857
  99 TORSION  17  6  8 18              -0.0016267      -0.0932028

     ------------------------------------------
     THE POINT GROUP IS C1 , NAXIS= 1, ORDER= 1
     ------------------------------------------

     DIMENSIONS OF THE SYMMETRY SUBSPACES ARE
 A   =  243

 ..... DONE SETTING UP THE RUN .....
 STEP CPU TIME =     0.02 TOTAL CPU TIME =        0.0 (    0.0 MIN)
 TOTAL WALL CLOCK TIME=        0.0 SECONDS, CPU UTILIZATION IS 100.00%


          -----------------------------
          STATIONARY POINT LOCATION RUN
          -----------------------------

 OBTAINING INITIAL HESSIAN, HESS=GUESS   
 DIAGONAL GUESS HESSIAN IN INTERNAL COORDS IS
     1  0.3402     2  0.3998     3  0.3410     4  0.3402     5  0.4766
     6  0.4710     7  0.4759     8  0.4003     9  0.3415    10  0.4789
    11  0.3402    12  0.3402    13  0.3410    14  0.4845    15  0.3422
    16  0.4004    17  0.4766    18  0.3427    19  0.3406    20  0.3410
    21  0.3409    22  0.2615    23  0.2610    24  0.2687    25  0.2262
    26  0.2261    27  0.2679    28  0.2261    29  0.2611    30  0.2318
    31  0.2319    32  0.2263    33  0.2262    34  0.2680    35  0.2262
    36  0.2691    37  0.2687    38  0.2617    39  0.2615    40  0.2325
    41  0.2692    42  0.2262    43  0.2320    44  0.2263    45  0.2320
    46  0.2263    47  0.2615    48  0.2324    49  0.2025    50  0.2025
    51  0.2025    52  0.2025    53  0.2025    54  0.2025    55  0.2026
    56  0.2026    57  0.2026    58  0.2500    59  0.2500    60  0.2500
    61  0.2500    62  0.2500    63  0.2500    64  0.2500    65  0.2500
    66  0.2500    67  0.2500    68  0.2500    69  0.2500    70  0.2500
    71  0.2500    72  0.2500    73  0.2500    74  0.2500    75  0.2500
    76  0.2500    77  0.2500    78  0.2500    79  0.2500    80  0.2500
    81  0.2500    82  0.2500    83  0.2500    84  0.2500    85  0.2500
    86  0.2500    87  0.2500    88  0.2500    89  0.2500    90  0.2500
    91  0.2500    92  0.2500    93  0.2500    94  0.2500    95  0.2500
    96  0.2500    97  0.2500    98  0.2500    99  0.2500
 TRANSFORMING HESSIAN TO SYMMETRY COORDINATES

          PARAMETERS CONTROLLING GEOMETRY SEARCH ARE
          METHOD =QA                  UPHESS =BFGS    
          NNEG   =         0          NFRZ   =         3
          NSTEP  =        50          IFOLOW =         1
          HESS   =GUESS               RESTAR =         F
          IHREP  =         0          HSSEND =         F
          NPRT   =         0          NPUN   =         0
          OPTTOL = 5.000E-04          RMIN   = 1.500E-03
          RMAX   = 1.000E-01          RLIM   = 7.000E-02
          DXMAX  = 3.000E-01          PURIFY =         F
          MOVIE  =         F          TRUPD  =         T
          TRMAX  = 5.000E-01          TRMIN  = 5.000E-02
          ITBMAT =         5          STPT   =         F
          STSTEP = 1.000E-02          PROJCT=          F
          FROZEN COORD(S)=   1   2   3


      ***** EQUILIBRIUM GEOMETRY LOCATED *****
            (SUBJECT TO   3 CONSTRAINT(S))
 COORDINATES OF ALL ATOMS ARE (ANGS)
   ATOM   CHARGE       X              Y              Z
 ------------------------------------------------------------
 C           6.0   1.2429078033   0.9155102133   2.1114719795
 C           6.0   2.3319677169   1.9642669011   2.1111032065
 C           6.0   2.1245136751   3.2048048023   1.4979686187
 C           6.0   3.5533589320   1.7037316269   2.7213027501
 C           6.0   0.8110437391   3.5296187557   0.8234423868
 C           6.0   3.1556150915   4.1342593051   1.5201014280
 C           6.0   4.5859765128   2.6355237394   2.7474277154
 C           6.0   4.3689069642   3.8599022703   2.1323185203
 C           6.0   5.8983443178   2.3326023802   3.4353259244
 H           1.0   0.9497406766   0.6541144282   1.0984586871
 H           1.0   1.5728437592   0.0121073911   2.6096103611
 H           1.0   0.3527533089   1.2752222589   2.6204356763
 H           1.0   3.7035330788   0.7453788933   3.1897794586
 H           1.0   0.6106912390   2.8488785469   0.0002563191
 H           1.0  -0.0204424801   3.4463015649   1.5178630175
 H           1.0   0.8186264448   4.5387450017   0.4295471557
 H           1.0   3.0110150408   5.0920727776   1.0499064596
 H           1.0   5.1460460619   4.6054357242   2.1278295359
 H           1.0   6.0203925668   1.2674610812   3.5962622113
 H           1.0   6.7380201035   2.6856388290   2.8453983536
 H           1.0   5.9502297705   2.8228104101   4.4043430164


                     --------------------
                     INTERNAL COORDINATES
                     --------------------

                 - - ATOMS - -         COORDINATE      COORDINATE
 NO.   TYPE    I  J  K  L  M  N        (BOHR,RAD)       (ANG,DEG)
 ----------------------------------------------------------------
   1 STRETCH   1 12                     2.0534739       1.0866517
   2 STRETCH   1  2                     2.8571396       1.5119333
   3 STRETCH   1 11                     2.0467889       1.0831141
   4 STRETCH   1 10                     2.0531772       1.0864947
   5 STRETCH   2  4                     2.6266638       1.3899707
   6 STRETCH   2  3                     2.6442024       1.3992518
   7 STRETCH   3  6                     2.6236215       1.3883608
   8 STRETCH   3  5                     2.8569839       1.5118509
   9 STRETCH   4 13                     2.0357030       1.0772477
  10 STRETCH   4  7                     2.6288378       1.3911212
  11 STRETCH   5 14                     2.0537972       1.0868227
  12 STRETCH   5 15                     2.0532298       1.0865225
  13 STRETCH   5 16                     2.0471470       1.0833036
  14 STRETCH   6  8                     2.6199527       1.3864194
  15 STRETCH   6 17                     2.0347700       1.0767540
  16 STRETCH   7  9                     2.8579721       1.5123738
  17 STRETCH   7  8                     2.6216032       1.3872928
  18 STRETCH   8 18                     2.0351090       1.0769334
  19 STRETCH   9 21                     2.0544982       1.0871937
  20 STRETCH   9 20                     2.0507704       1.0852210
  21 STRETCH   9 19                     2.0486950       1.0841228
  22 BEND      1  2  4                  2.0976584     120.1869738
  23 BEND      1  2  3                  2.1039904     120.5497706
  24 BEND      2  4  7                  2.1352559     122.3411511
  25 BEND      2  1 11                  1.9382650     111.0544038
  26 BEND      2  1 12                  1.9396571     111.1341683
  27 BEND      2  3  6                  2.0673876     118.4525820
  28 BEND      2  1 10                  1.9401534     111.1626016
  29 BEND      2  3  5                  2.1115515     120.9829894
  30 BEND      2  4 13                  2.0716382     118.6961242
  31 BEND      3  6 17                  2.0815266     119.2626898
  32 BEND      3  5 16                  1.9350788     110.8718466
  33 BEND      3  5 15                  1.9425295     111.2987417
  34 BEND      3  2  4                  2.0815362     119.2632414
  35 BEND      3  5 14                  1.9428392     111.3164883
  36 BEND      3  6  8                  2.1229184     121.6342639
  37 BEND      4  7  8                  2.0563322     117.8191555
  38 BEND      4  7  9                  2.1159010     121.2321968
  39 BEND      5  3  6                  2.1042445     120.5643287
  40 BEND      6  8 18                  2.0859590     119.5166484
  41 BEND      6  8  7                  2.1029299     120.4890089
  42 BEND      7  9 21                  1.9353224     110.8858033
  43 BEND      7  4 13                  2.0762912     118.9627223
  44 BEND      7  9 19                  1.9412083     111.2230442
  45 BEND      7  8 18                  2.0942963     119.9943405
  46 BEND      7  9 20                  1.9379918     111.0387494
  47 BEND      8  7  9                  2.1109000     120.9456611
  48 BEND      8  6 17                  2.0787401     119.1030318
  49 BEND     10  1 12                  1.8705719     107.1758736
  50 BEND     10  1 11                  1.8863417     108.0794184
  51 BEND     11  1 12                  1.8862257     108.0727737
  52 BEND     14  5 16                  1.8853120     108.0204186
  53 BEND     14  5 15                  1.8702313     107.1563578
  54 BEND     15  5 16                  1.8851236     108.0096241
  55 BEND     19  9 20                  1.8893657     108.2526791
  56 BEND     19  9 21                  1.8810640     107.7770293
  57 BEND     20  9 21                  1.8764380     107.5119797
  58 TORSION   1  2  3  5               0.0012112       0.0693976
  59 TORSION   1  2  4  7               3.1414935     179.9943206
  60 TORSION   1  2  4 13               0.0002169       0.0124253
  61 TORSION   1  2  3  6              -3.1383849    -179.8162101
  62 TORSION   2  3  5 16               3.1136096     178.3966907
  63 TORSION   2  3  5 15               1.0148215      58.1449886
  64 TORSION   2  4  7  8              -0.0040986      -0.2348341
  65 TORSION   2  3  5 14              -1.0703420     -61.3260805
  66 TORSION   2  4  7  9               3.1266207     179.1421689
  67 TORSION   2  3  6 17               3.1387331     179.8361594
  68 TORSION   2  3  6  8              -0.0020892      -0.1197016
  69 TORSION   3  2  4 13              -3.1406232    -179.9444547
  70 TORSION   3  2  1 11               3.1231615     178.9439754
  71 TORSION   3  2  1 12              -1.0596216     -60.7118433
  72 TORSION   3  2  4  7               0.0006535       0.0374405
  73 TORSION   3  6  8 18               3.1398599     179.9007185
  74 TORSION   3  6  8  7              -0.0014343      -0.0821814
  75 TORSION   3  2  1 10               1.0222787      58.5722562
  76 TORSION   4  7  9 19               0.3085748      17.6800336
  77 TORSION   4  2  1 10              -2.1185516    -121.3840633
  78 TORSION   4  7  9 20               2.4138168     138.3015171
  79 TORSION   4  7  9 21              -1.7843691    -102.2368201
  80 TORSION   4  2  3  5              -3.1411368    -179.9738827
  81 TORSION   4  7  8 18              -3.1368517    -179.7283647
  82 TORSION   4  7  8  6               0.0044411       0.2544535
  83 TORSION   4  2  1 12               2.0827335     119.3318372
  84 TORSION   4  2  3  6               0.0024524       0.1405096
  85 TORSION   4  2  1 11              -0.0176687      -1.0123441
  86 TORSION   5  3  6  8               3.1414913     179.9941940
  87 TORSION   5  3  6 17              -0.0008717      -0.0499450
  88 TORSION   6  3  5 14               2.0692120     118.5571156
  89 TORSION   6  3  5 15              -2.1288098    -121.9718153
  90 TORSION   6  3  5 16              -0.0300216      -1.7201133
  91 TORSION   6  8  7  9              -3.1263110    -179.1244254
  92 TORSION   7  8  6 17               3.1409275     179.9618890
  93 TORSION   8  7  4 13               3.1371772     179.7470147
  94 TORSION   8  7  9 20              -0.7389886     -42.3409260
  95 TORSION   8  7  9 19              -2.8442306    -162.9624095
  96 TORSION   8  7  9 21               1.3460108      77.1207368
  97 TORSION   9  7  4 13              -0.0152888      -0.8759823
  98 TORSION   9  7  8 18               0.0155815       0.8927564
  99 TORSION  17  6  8 18              -0.0009636      -0.0552111

          INTERNUCLEAR DISTANCES (ANGS.)


 =====================================================
   GAMESS/COSab RESULTS
 =====================================================

   Dielectric Constant                  = INFTY
   Basic Grid Size                      =                 1082
   Number of Segments                   =                   92
   Number of Segments located on spheres=                  295
   Number of Segments of the cavity     =                  761
   Solvent Radius (rsolv)               = 1.40
   Outlying Charge Error Method         = double cavity

 =====================================================

  Total solvated Energy (a.u.)          =  -347.8966322706
  Total Energy corrected (a.u.)         =  -347.8966337389

  Outlying charge effect (a.u.)         =    -0.0000014683
  Outlying charge effect (kcal/mol)     =    -0.0009213683

  Dielectric Energy (a.u.)              =    -0.0066590814
  Dielectric energy corr. (a.u.)        =    -0.0066605496

  Sum of polarization charges           =     0.0274513730
  Sum of polarization charges(cor.)     =    -0.0274513730

  Total surface area of cavity (A**2)   =  174.63
  Total volume of cavity (A**3)         =  172.50

 =====================================================
 NPS=                   761
NR.  ATOM  (X, Y, Z)(a.u.)                  CHARGE(e)  AREA(A**2) SIGMA(e/A**2)
   1   1   0.460867  -0.251183   6.596778   0.001565   0.418105   0.003743
   2   1   4.618947  -0.362504   1.810255   0.000531   0.278737   0.001905
   3   1   1.565849  -1.877869   3.181283   0.001165   0.418105   0.002787
   4   1  -1.282288   0.834471   3.444509   0.000773   0.325193   0.002377
   5   1   1.841626   2.988514   7.517609   0.000499   0.278737   0.001791
   6   1   2.182894   1.792686   7.765385   0.000691   0.325193   0.002126
   7   1   1.423748   0.950149   7.570646   0.001158   0.325193   0.003561
   8   1  -0.998180   0.797808   2.502429   0.000938   0.325193   0.002884
   9   1   1.502170  -1.532887   2.281079   0.000698   0.278737   0.002505
  10   1   3.787842  -0.635108   1.417295   0.000532   0.232280   0.002290
  11   1   1.432381   0.073998   7.261481   0.000710   0.232280   0.003056
  12   1   0.568808   0.700885   7.161345   0.000870   0.278737   0.003123
  13   1   4.311533   0.354130   1.068005   0.000461   0.232280   0.001983
  14   1   3.971584  -1.264349   2.351731   0.001019   0.325193   0.003134
  15   1   2.734615  -1.771232   2.620295   0.001323   0.325193   0.004068
  16   1   0.333655  -1.335947   3.082780   0.000784   0.464561   0.001688
  17   1  -0.792889  -0.276477   3.367110   0.000716   0.464561   0.001540
  18   1  -1.240595   1.947236   2.826646   0.000822   0.278737   0.002950
  19   1   4.657312  -0.985961   2.733871   0.000464   0.232280   0.001997
  20   1   0.721291  -1.668003   4.288057   0.000550   0.418105   0.001314
  21   1   0.283293  -1.040494   5.520501   0.000796   0.418105   0.001905
  22   1  -0.440329  -0.155487   5.707637   0.000927   0.464561   0.001996
  23   1  -1.069630   0.201893   4.503482   0.000467   0.325193   0.001437
  24   1   2.629819   0.914956   7.669887   0.000630   0.325193   0.001938
  25   1   1.275831   2.024339   7.602085   0.000458   0.232280   0.001973
  26   1  -0.289257  -0.577272   2.575404   0.000334   0.278737   0.001197
  27   1   3.153369  -1.339963   1.937818   0.000988   0.278737   0.003546
  28   1  -0.922969   1.836640   2.101000   0.000334   0.139368   0.002395
  29   1  -0.322385  -0.918200   4.358829   0.000471   0.464561   0.001014
  30   2   3.265645   4.116585   7.569668   0.000802   0.139368   0.005754
  31   2   2.536848   5.200405   6.917201   0.000744   0.139368   0.005340
  32   2   2.876111   4.674501   7.308248   0.000811   0.185824   0.004362
  33   2   3.513855   5.027004   7.418321   0.000550   0.139368   0.003947
  34   2   6.201285   2.855285   0.775340   0.002918   0.371649   0.007852
  35   2   5.199872   2.354539   0.552428   0.001141   0.232280   0.004914
  36   2   5.827024   1.695781   1.125425   0.001377   0.325193   0.004234
  37   2   3.393634   5.637925   7.079431   0.001719   0.232280   0.007401
  38   3   5.114479   5.638924  -0.761003   0.000846   0.139368   0.006067
  39   3   4.851636   4.253233  -0.383774   0.000808   0.139368   0.005800
  40   3   5.004306   4.928890  -0.638280   0.000912   0.185824   0.004908
  41   3   5.692710   4.980085  -0.380268   0.000552   0.139368   0.003958
  42   3   3.317331   7.246797   6.349325   0.002977   0.371649   0.008011
  43   3   2.240073   7.114766   5.995282   0.001355   0.232280   0.005834
  44   3   2.614294   8.078356   5.700226   0.001547   0.325193   0.004756
  45   3   5.764527   4.354429  -0.054814   0.002076   0.232280   0.008939
  46   4   5.198561   5.403321   7.828860   0.000894   0.092912   0.009627
  47   4   6.794603   3.427990   8.915386   0.000712   0.139368   0.005111
  48   4   8.283627   0.494580   3.045486   0.001861   0.371649   0.005006
  49   4   8.430821   0.065859   3.961955   0.000954   0.278737   0.003424
  50   4   5.218154   1.552035   8.186107   0.000218   0.139368   0.001561
  51   4   6.893160   2.319775   8.808970   0.000748   0.232280   0.003222
  52   4   6.221314   2.922394   8.877810   0.001065   0.232280   0.004583
  53   4   5.001104   2.480544   8.429029   0.001479   0.325193   0.004548
  54   4   7.235007   0.196092   2.935223   0.001746   0.371649   0.004697
  55   4   9.098951   0.689045   3.660384   0.000838   0.232280   0.003609
  56   4   6.220856   4.063758   8.793223   0.002353   0.325193   0.007237
  57   4   5.681736   4.945043   8.342480   0.001574   0.232280   0.006775
  58   4   4.950589   4.547034   8.210013   0.001796   0.185824   0.009668
  59   4   4.796573   3.427490   8.392325   0.001384   0.232280   0.005957
  60   4   7.554723   1.132166   2.105823   0.003579   0.511017   0.007003
  61   4   8.869031   1.425902   2.607468   0.002763   0.418105   0.006609
  62   4   7.214595  -0.291423   3.835875   0.000527   0.232280   0.002270
  63   4   5.886873   2.063124   8.644138   0.001117   0.278737   0.004006
  64   4   8.010077   2.349935   1.700087   0.003838   0.464561   0.008261
  65   4   5.423662   3.716780   8.659606   0.001679   0.278737   0.006023
  66   5  -1.249407   9.176648   2.067206   0.001695   0.418105   0.004054
  67   5   3.247612   7.300561  -1.752328   0.000638   0.278737   0.002288
  68   5  -2.041043   5.705171   0.793166   0.001027   0.371649   0.002763
  69   5  -0.321155   8.153594  -1.384442   0.000901   0.371649   0.002425
  70   5   1.501280   9.849968   3.598439   0.000197   0.139368   0.001410
  71   5   0.959903   8.577470   4.768225   0.000469   0.185824   0.002521
  72   5   0.870819   9.434060   4.047334   0.000636   0.325193   0.001957
  73   5   0.038700   9.626175   3.376394   0.001275   0.325193   0.003921
  74   5  -0.054536   7.190219  -1.834271   0.001004   0.371649   0.002701
  75   5  -1.577384   4.908019   0.328362   0.000738   0.278737   0.002648
  76   5   2.806406   6.397309  -1.991794   0.000515   0.232280   0.002216
  77   5  -0.739998   9.218376   3.176337   0.000746   0.232280   0.003210
  78   5  -0.294996   9.828619   2.539563   0.000888   0.278737   0.003187
  79   5   3.590145   6.594692  -1.613349   0.000337   0.185824   0.001811
  80   5  -1.628725   4.611579   1.326339   0.001099   0.325193   0.003380
  81   5  -1.828569   6.294989  -0.130874   0.000757   0.418105   0.001811
  82   5  -1.219604   7.424882  -0.921728   0.000712   0.464561   0.001533
  83   5   0.940479   7.856384  -1.983146   0.001421   0.371649   0.003822
  84   5   2.285857   7.449242  -2.064657   0.000802   0.232280   0.003453
  85   5   3.111801   8.109901  -1.561174   0.000386   0.185824   0.002075
  86   5  -2.173969   7.033038   0.913077   0.000548   0.371649   0.001474
  87   5  -1.905702   8.228302   1.372344   0.000841   0.418105   0.002012
  88   5  -1.310288   9.044734   0.805946   0.000951   0.464561   0.002047
  89   5  -1.000863   8.591114  -0.487195   0.000382   0.325193   0.001175
  90   5   0.367598   8.840044   4.422773   0.000500   0.232280   0.002154
  91   5   1.083743  10.045930   3.194981   0.000400   0.185824   0.002154
  92   5  -1.248445   6.442536  -0.993039   0.000362   0.278737   0.001298
  93   5   3.384868   5.772393  -1.613745   0.000215   0.139368   0.001542
  94   5   1.612709   7.071977  -2.201081   0.000959   0.278737   0.003439
  95   5  -1.784790   7.769792   0.117555   0.000456   0.418105   0.001092
  96   5   2.261638   8.156953  -1.841250   0.000517   0.185824   0.002780
  97   6   7.283094   5.561463   0.138598   0.000852   0.092912   0.009171
  98   6   8.187488   8.831167  -0.008340   0.000998   0.278737   0.003580
  99   6   4.696831  10.633948   5.045243   0.001667   0.371649   0.004485
 100   6   5.033858  11.201352   4.264315   0.000816   0.278737   0.002929
 101   6   5.540730   8.906093  -0.720490   0.000185   0.139368   0.001326
 102   6   7.843046   9.599637   0.123525   0.000506   0.232280   0.002177
 103   6   7.208499  11.344130   3.384493  -0.000108   0.092912  -0.001166
 104   6   7.376552   8.528169  -0.558884   0.001574   0.371649   0.004235
 105   6   5.969371   8.038767  -0.900109   0.001300   0.325193   0.003998
 106   6   3.743740  10.345692   4.587659   0.001521   0.371649   0.004094
 107   6   5.824922  10.977684   4.933510   0.001459   0.325193   0.004488
 108   6   6.617686  11.150775   4.519594   0.000538   0.139368   0.003862
 109   6   7.860912   7.511593  -0.382054   0.002357   0.325193   0.007248
 110   6   7.649172   6.266967  -0.136239   0.001458   0.232280   0.006276
 111   6   6.862355   6.220206  -0.435016   0.001691   0.185824   0.009100
 112   6   6.279915   7.123057  -0.829932   0.001255   0.232280   0.005404
 113   6   4.037291   9.592538   5.594110   0.003332   0.511017   0.006519
 114   6   5.368719  10.073022   5.842644   0.002335   0.418105   0.005585
 115   6   3.923754  10.876729   3.730422   0.000428   0.232280   0.001842
 116   6   6.592574   8.942881  -0.678593   0.001101   0.325193   0.003387
 117   6   8.155182  10.326612   1.095048   0.000023   0.139368   0.000166
 118   6   6.266208  11.392967   4.044570   0.000360   0.185824   0.001938
 119   6   4.775516   8.726361   6.342235   0.003950   0.464561   0.008503
 120   6   7.079836   7.176307  -0.681673   0.001855   0.325193   0.005705
 121   7   8.047370   7.051263   8.292337   0.000667   0.092912   0.007184
 122   7   7.523662   5.383109   8.771911   0.000461   0.092912   0.004958
 123   7   7.568753   6.185472   8.601809   0.001189   0.232280   0.005119
 124   7   7.244515   6.776579   8.197997   0.000471   0.139368   0.003379
 125   7   9.363929   3.733753   1.692834   0.002878   0.371649   0.007745
 126   7  10.138202   2.802509   2.476307   0.001245   0.232280   0.005361
 127   7  10.484601   3.953126   2.041880   0.002063   0.418105   0.004934
 128   7   6.742936   6.276110   8.176226   0.001908   0.232280   0.008213
 129   8   8.920567   5.269567   0.908019   0.001030   0.139368   0.007393
 130   8   9.808430   8.692027   0.879864   0.001365   0.278737   0.004897
 131   8   8.094240   9.700029   6.939809   0.001645   0.325193   0.005057
 132   8   8.916216  10.178364   6.381050   0.000858   0.232280   0.003695
 133   8   8.342383  11.063403   4.293277   0.000113   0.092912   0.001221
 134   8   9.777489   9.516000   1.377561   0.000401   0.278737   0.001439
 135   8  11.133421   7.089811   1.587561   0.001647   0.371649   0.004432
 136   8  10.264272   7.896848   0.884993   0.001089   0.232280   0.004688
 137   8   8.185363  10.948309   4.992016   0.000387   0.185824   0.002083
 138   8   7.746973  10.427011   6.081418   0.001797   0.371649   0.004836
 139   8   8.944384   9.379488   7.105513   0.000991   0.232280   0.004265
 140   8  10.648524   6.082175   1.366554   0.001987   0.325193   0.006111
 141   8   9.738310   5.648923   0.966779   0.002092   0.232280   0.009008
 142   8   9.334474   6.145160   0.594246   0.002256   0.232280   0.009713
 143   8   9.553282   7.374229   0.480568   0.001442   0.278737   0.005172
 144   8   6.973568   9.486200   6.828525   0.003179   0.418105   0.007603
 145   8   7.906067   8.797400   7.479441   0.002530   0.371649   0.006808
 146   8   8.541858  10.664321   5.716084   0.000666   0.232280   0.002868
 147   8  10.965391   8.057151   1.507317   0.001347   0.371649   0.003626
 148   8   9.748359   9.488056   6.720976   0.000598   0.232280   0.002573
 149   8   6.588486   8.267917   7.278407   0.003811   0.464561   0.008204
 150   8  10.170513   6.820013   0.805505   0.001642   0.278737   0.005892
 151   9  14.113151   6.403144   7.717031   0.001652   0.418105   0.003951
 152   9   9.441205   2.961279   9.538806   0.000436   0.232280   0.001879
 153   9  11.783215   2.337234   3.394970   0.000399   0.278737   0.001432
 154   9  14.566948   2.865631   6.039901   0.001214   0.418105   0.002903
 155   9  12.991120   3.426271   9.640944   0.000870   0.371649   0.002341
 156   9  12.921333   7.683080   7.129895   0.001379   0.371649   0.003711
 157   9  12.641779   2.430506   9.344406   0.000977   0.371649   0.002629
 158   9  14.079145   2.044190   6.183833   0.000683   0.278737   0.002451
 159   9  11.916574   1.580084   4.105653   0.000797   0.418105   0.001905
 160   9  10.022980   2.165338   9.319019   0.000713   0.325193   0.002192
 161   9  13.648484   7.207323   6.924067   0.000681   0.232280   0.002931
 162   9  13.388063   7.147230   7.816630   0.000630   0.185824   0.003391
 163   9  13.050491   2.390829   3.924880   0.001532   0.418105   0.003664
 164   9  13.988281   2.449635   4.951699   0.001345   0.325193   0.004135
 165   9  14.426348   2.752434   7.377474   0.000735   0.464561   0.001582
 166   9  13.852730   3.120665   8.794440   0.000688   0.464561   0.001482
 167   9  11.715474   2.974596   9.942278   0.001145   0.325193   0.003520
 168   9  10.391578   3.033421   9.930616   0.000973   0.278737   0.003490
 169   9   9.265990   3.826022   9.718306   0.000369   0.278737   0.001323
 170   9  12.417186   2.997802   3.223743   0.000680   0.325193   0.002092
 171   9  14.865172   3.905679   6.940810   0.000550   0.418105   0.001315
 172   9  14.676021   5.185973   7.596243   0.000804   0.418105   0.001922
 173   9  14.118866   5.465235   8.572705   0.000977   0.464561   0.002103
 174   9  13.731815   4.294593   9.246143   0.000423   0.325193   0.001300
 175   9  11.825207   7.956466   7.601594   0.000151   0.139368   0.001086
 176   9  13.810347   2.338777   8.196296   0.000295   0.278737   0.001058
 177   9  13.316054   1.903606   4.674053   0.000963   0.278737   0.003454
 178   9  11.143707   2.308679   9.634617   0.000973   0.278737   0.003490
 179   9   8.788617   4.665487   9.434528   0.000032   0.092912   0.000343
 180   9  12.259722   3.845582   2.924172   0.000151   0.139368   0.001085
 181   9  14.508523   4.015059   8.172600   0.000478   0.464561   0.001029
 182  10   1.140887   0.490307  -0.171745  -0.003798   0.529948  -0.007166
 183  10  -0.333435   0.413448   1.165205  -0.000761   0.274788  -0.002769
 184  10   1.449621  -0.901166   0.914701  -0.001171   0.372926  -0.003141
 185  10   3.021430   0.100457   0.275581  -0.000928   0.333671  -0.002780
 186  10  -0.080307   0.967146   0.511522  -0.002503   0.412182  -0.006072
 187  10   0.414127  -0.349094   0.804505  -0.002316   0.510320  -0.004539
 188  10   2.099182  -0.415140   0.282497  -0.002034   0.451437  -0.004506
 189  10   2.585255   0.915837  -0.228058  -0.002892   0.471065  -0.006139
 190  11   3.799264  -1.995184   6.062199  -0.004222   0.588831  -0.007169
 191  11   2.344986  -0.967585   7.090308  -0.000919   0.333671  -0.002755
 192  11   3.460287  -2.254984   4.151528  -0.001160   0.372926  -0.003112
 193  11   1.820121  -2.096184   5.397640  -0.001243   0.372926  -0.003334
 194  11   3.344018  -1.055321   7.107318  -0.002731   0.471065  -0.005798
 195  11   4.349937  -1.998476   4.705175  -0.002706   0.471065  -0.005744
 196  11   2.798273  -2.427537   4.949783  -0.002360   0.490692  -0.004810
 197  11   2.292279  -1.857330   6.358899  -0.002503   0.510320  -0.004904
 198  12  -1.288272   2.568942   6.431185  -0.002377   0.392554  -0.006055
 199  12   0.120754   4.004389   6.739234  -0.001553   0.294415  -0.005275
 200  12   0.068399   2.345127   7.333730  -0.000706   0.255160  -0.002766
 201  12  -1.202460   1.348767   6.141807  -0.001285   0.353299  -0.003638
 202  12  -1.727869   2.388339   4.403139  -0.001203   0.294415  -0.004086
 203  12  -0.028179   3.212740   7.167246  -0.001424   0.353299  -0.004030
 204  12  -0.636952   1.816963   6.947996  -0.001392   0.372926  -0.003733
 205  12  -1.658850   1.670435   5.235942  -0.001433   0.372926  -0.003841
 206  12  -1.695130   2.919521   5.396364  -0.002700   0.392554  -0.006877
 207  12  -0.928820   3.584270   6.404638  -0.002534   0.353299  -0.007173
 208  13   7.311432  -0.839304   6.968211  -0.003061   0.372926  -0.008209
 209  13   7.332784   0.730168   8.365158  -0.001439   0.255160  -0.005641
 210  13   7.901100  -0.719354   5.195516  -0.001655   0.372926  -0.004437
 211  13   6.141615   0.356715   8.075766  -0.001423   0.255160  -0.005578
 212  13   7.848086  -0.149678   7.726470  -0.002627   0.314043  -0.008365
 213  13   8.176347  -0.736549   6.243851  -0.002734   0.333671  -0.008193
 214  13   7.130308  -1.039296   5.867300  -0.002676   0.333671  -0.008019
 215  13   6.588912  -0.506412   7.511061  -0.002549   0.314043  -0.008117
 216  13   6.921270   0.160528   8.142395  -0.001242   0.215905  -0.005750
 217  14   0.645221   4.169871  -2.073899  -0.002765   0.431809  -0.006403
 218  14   2.554543   4.157645  -1.602861  -0.001223   0.255160  -0.004795
 219  14   1.846634   5.497365  -2.353753  -0.000643   0.255160  -0.002521
 220  14  -0.090704   5.601249  -2.106248  -0.001074   0.333671  -0.003220
 221  14  -0.841374   4.139016  -0.709773  -0.001219   0.314043  -0.003881
 222  14   2.110016   4.689032  -2.153295  -0.001323   0.333671  -0.003965
 223  14   0.877494   5.375743  -2.440527  -0.001777   0.431809  -0.004116
 224  14  -0.623858   4.858759  -1.611572  -0.001788   0.431809  -0.004141
 225  14  -0.120351   3.790698  -1.368352  -0.002336   0.353299  -0.006612
 226  14   1.564156   3.741635  -1.780207  -0.002328   0.333671  -0.006978
 227  15  -1.947658   6.436108   4.412657  -0.003203   0.451437  -0.007094
 228  15  -1.473979   8.217743   3.901447  -0.000932   0.333671  -0.002792
 229  15  -0.296155   7.318484   5.174708  -0.000986   0.274788  -0.003587
 230  15  -2.232918   5.423062   2.686170  -0.001290   0.333671  -0.003865
 231  15  -2.455652   6.875018   2.619813  -0.001308   0.412182  -0.003174
 232  15  -1.172812   7.706353   4.691433  -0.001679   0.412182  -0.004074
 233  15  -0.952110   6.658982   5.144141  -0.002222   0.333671  -0.006660
 234  15  -2.372586   6.036346   3.469168  -0.002431   0.412182  -0.005899
 235  15  -2.163880   7.562150   3.513972  -0.002050   0.471065  -0.004351
 236  16   0.912898  10.662641  -0.321004  -0.002560   0.412182  -0.006211
 237  16   1.209129  10.776284   1.852881  -0.001333   0.333671  -0.003996
 238  16  -0.144776  10.292803   0.333190  -0.001416   0.372926  -0.003798
 239  16   0.941417   9.535003  -1.367865  -0.000971   0.294415  -0.003298
 240  16   2.502773   9.596469  -1.208734  -0.001271   0.314043  -0.004047
 241  16   1.528331  11.030471   0.688655  -0.002847   0.412182  -0.006908
 242  16   0.361278  10.696564   1.181255  -0.001656   0.431809  -0.003834
 243  16   0.126954   9.882537  -0.709508  -0.001440   0.372926  -0.003861
 244  16   1.638351   9.875439  -1.271733  -0.001376   0.314043  -0.004383
 245  16   2.089319  10.600134  -0.471965  -0.002634   0.372926  -0.007063
 246  17   5.883089  11.925219   1.149881  -0.003776   0.471065  -0.008015
 247  17   6.986712  10.929660   0.357625  -0.001783   0.372926  -0.004782
 248  17   6.625267  11.870934   2.308722  -0.001863   0.333671  -0.005584
 249  17   4.556605  11.689229   2.676616  -0.001645   0.314043  -0.005237
 250  17   5.583941  10.366620  -0.354825  -0.001887   0.333671  -0.005654
 251  17   7.054558  11.560991   1.339261  -0.002883   0.412182  -0.006994
 252  17   5.610090  11.993662   2.621897  -0.002386   0.431809  -0.005526
 253  17   4.673903  11.836009   1.662227  -0.003063   0.372926  -0.008214
 254  17   4.986991  11.426088   0.471303  -0.003508   0.392554  -0.008936
 255  17   6.071320  11.063206   0.030999  -0.002446   0.372926  -0.006558
 256  18  11.316308  10.571635   3.921515  -0.004021   0.490692  -0.008195
 257  18  10.264889  10.607673   5.475491  -0.001551   0.353299  -0.004389
 258  18   9.772451  11.092813   3.453820  -0.002261   0.333671  -0.006777
 259  18  10.916023   9.911447   2.244680  -0.001824   0.412182  -0.004425
 260  18  11.962920   9.706501   4.155631  -0.003812   0.431809  -0.008829
 261  18  11.234205  10.080329   5.384562  -0.003946   0.529948  -0.007446
 262  18  10.135891  11.078250   4.494552  -0.003032   0.490692  -0.006179
 263  18  10.550626  10.703146   2.858124  -0.003166   0.471065  -0.006720
 264  18  11.811218   9.296783   2.868345  -0.003472   0.529948  -0.006552
 265  19  12.281722   0.189790   7.389915  -0.002706   0.431809  -0.006266
 266  19  10.839199   0.896133   8.666489  -0.001415   0.333671  -0.004239
 267  19  12.654259   1.014510   8.376229  -0.001142   0.314043  -0.003637
 268  19  13.141231   0.746348   6.344618  -0.001374   0.372926  -0.003684
 269  19  11.483994   0.428872   5.327138  -0.001592   0.353299  -0.004507
 270  19  11.109167   0.107491   7.650374  -0.002861   0.412182  -0.006942
 271  19  11.776656   0.812185   8.631573  -0.001503   0.372926  -0.004031
 272  19  13.223417   0.915978   7.457409  -0.001457   0.372926  -0.003908
 273  19  12.432911   0.438985   5.750301  -0.001751   0.431809  -0.004055
 274  19  11.468405  -0.038083   6.470185  -0.002514   0.372926  -0.006741
 275  20  14.853648   5.628115   4.267006  -0.002900   0.451437  -0.006425
 276  20  14.099125   7.115282   5.458015  -0.001375   0.353299  -0.003891
 277  20  13.402989   5.010501   3.014398  -0.001613   0.372926  -0.004325
 278  20  14.533751   3.939028   4.151598  -0.001172   0.372926  -0.003144
 279  20  15.163073   5.067677   5.737306  -0.001440   0.412182  -0.003493
 280  20  14.291140   6.719962   4.427396  -0.002728   0.431809  -0.006319
 281  20  13.894140   6.081924   3.460470  -0.003050   0.451437  -0.006757
 282  20  14.125516   4.564047   3.418767  -0.001903   0.412182  -0.004617
 283  20  15.052925   4.533913   4.776912  -0.002006   0.431809  -0.004646
 284  20  14.875459   6.232498   5.701777  -0.002117   0.510320  -0.004149
 285  21  11.452181   6.361593  10.544848  -0.003986   0.608459  -0.006551
 286  21   9.992569   6.955502   9.679488  -0.001331   0.274788  -0.004845
 287  21  11.810907   7.629424   8.991325  -0.001313   0.372926  -0.003520
 288  21  13.090548   6.172533   9.710056  -0.001191   0.353299  -0.003370
 289  21  11.873698   4.570763  10.571529  -0.001179   0.372926  -0.003160
 290  21   9.883429   5.053181  10.348836  -0.001091   0.353299  -0.003087
 291  21  10.915556   7.393066   9.622483  -0.002717   0.490692  -0.005537
 292  21  12.485239   7.027917   9.598533  -0.002178   0.490692  -0.004440
 293  21  12.599746   5.447566  10.368738  -0.002253   0.490692  -0.004592
 294  21  10.929734   4.992191  10.735267  -0.002129   0.471065  -0.004519
 295  21   9.966532   6.130314  10.264334  -0.002544   0.490692  -0.005185
 296   1   3.121772   2.969157   7.601604   0.000152   0.052336   0.002903
 297   2   3.469320   3.316857   7.644043   0.000296   0.052336   0.005655
 298   4   3.883563   3.229795   7.806320   0.000334   0.052336   0.006375
 299   1   5.440983   0.558840   1.930402   0.000157   0.052336   0.002997
 300   2   5.817710   0.876215   1.901489   0.000314   0.052336   0.006001
 301   4   6.205176   0.816982   2.129244   0.000449   0.052336   0.008581
 302   1   4.055690   1.332824   0.633810  -0.000014   0.025516  -0.000559
 303   2   4.395937   1.687371   0.671757   0.000041   0.025516   0.001618
 304  10   3.792734   1.271942   0.496284  -0.000081   0.025516  -0.003176
 305   1   1.568079   3.918376   6.979739  -0.000012   0.025568  -0.000475
 306   2   1.937441   4.242667   6.943408   0.000064   0.025568   0.002509
 307  12   1.269843   3.894431   6.931800  -0.000056   0.025568  -0.002181
 308   2   2.626175   4.011954   7.280883   0.000517   0.269054   0.001922
 309   1   2.326732   3.304270   7.398290   0.000208   0.269054   0.000773
 310   2   5.281593   1.252405   1.311075   0.000600   0.291272   0.002061
 311   1   4.583237   0.958846   1.091771   0.000142   0.291272   0.000489
 312   1   3.689284   0.685652   7.417896  -0.000112   0.070566  -0.001593
 313   4   4.456852   0.972417   7.551382  -0.000120   0.070566  -0.001705
 314  11   3.749927   0.398560   7.340525  -0.000292   0.070566  -0.004135
 315   1   5.185460  -0.820276   3.695908  -0.000103   0.070566  -0.001463
 316   4   5.917215  -0.497463   3.918488  -0.000096   0.070566  -0.001355
 317  11   5.113915  -0.974316   3.947380  -0.000281   0.070566  -0.003989
 318   4   4.155619   2.777430   8.043973   0.001139   0.300022   0.003796
 319   4   4.596208   1.555432   7.954202   0.000480   0.300022   0.001599
 320   1   3.295551   1.800492   7.678055   0.000358   0.601248   0.000595
 321   4   6.394437  -0.001025   3.153168   0.001092   0.568411   0.001922
[...]
 502   4   5.531522   1.217113   8.119827  -0.000154   0.088395  -0.001741
 503  13   7.259535  -0.577869   4.648601  -0.000443   0.095254  -0.004653
 504  13   8.379400  -0.265376   4.928860  -0.000411   0.095254  -0.004311
 505   4   7.839184  -0.205746   4.469242  -0.000815   0.190926  -0.004267
 506  19  10.687903   0.518712   5.197359  -0.000678   0.234984  -0.002885
 507   4   9.518527   0.529148   4.396938   0.000517   0.332168   0.001556
 508   5   3.589579   8.760916  -0.900622  -0.000107   0.070681  -0.001517
 509   6   4.348235   8.930061  -0.605808  -0.000133   0.070681  -0.001878
 510  16   3.447670   9.023076  -0.843387  -0.000291   0.070681  -0.004112
 511   5   2.100306  10.230639   2.835912  -0.000115   0.070681  -0.001623
 512   6   2.894745  10.364470   3.040946  -0.000105   0.070681  -0.001479
 513  16   2.090030  10.362893   2.562883  -0.000276   0.070681  -0.003909
 514   6   3.123948  10.088861   3.987721   0.000971   0.554284   0.001753
 515   5   1.985713   9.569681   3.979557   0.000449   0.554284   0.000810
 516   6   5.303781   7.303144  -0.930709   0.001102   0.304069   0.003625
 517   6   4.942353   8.564157  -0.808782   0.000416   0.304069   0.001367
 518   5   4.010644   7.643194  -1.163294   0.000384   0.609440   0.000630
 519   5  -0.681093   3.620184   0.688446  -0.000065   0.092691  -0.000700
 520  10  -0.338229   2.650046   0.898805  -0.000054   0.092691  -0.000577
 521  14  -0.569918   3.540388   0.413997  -0.000275   0.092691  -0.002964
 522  10  -0.495195   2.102188   1.130095   0.000022   0.034623   0.000649
 523   5  -0.919809   3.560139   0.826313   0.000172   0.049464   0.003475
 524  14  -0.924572   4.074464   0.029588  -0.000218   0.068937  -0.003167
 525  14  -1.120093   4.939569  -0.638242  -0.000524   0.152922  -0.003429
 526  14  -0.658429   5.853568  -1.506457  -0.000583   0.152922  -0.003814
 527  14   0.459193   6.269941  -2.122803  -0.000432   0.152922  -0.002826
 528  14   1.773062   6.017422  -2.233757  -0.000449   0.152922  -0.002934
 529  14   2.742744   5.199878  -1.793681  -0.000544   0.152922  -0.003556
 530   5  -1.213002   4.590514   0.115862  -0.000236   0.151246  -0.001559
 531   5  -1.167058   5.746708  -0.851461  -0.000347   0.151246  -0.002292
 532   5  -0.230509   6.535647  -1.731837  -0.000300   0.151246  -0.001981
 533   5   1.211415   6.632816  -2.163140  -0.000148   0.151246  -0.000980
 534   5   2.565608   5.998246  -1.967965  -0.000300   0.151246  -0.001981
 535   5   3.271987   5.148972  -1.437563  -0.000068   0.084221  -0.000803
 536  15   0.177936   7.521226   5.097864  -0.000191   0.068943  -0.002769
 537  15  -0.402126   8.248269   4.490540  -0.000452   0.152968  -0.002957
 538  15  -1.263487   8.485517   3.487625  -0.000439   0.152968  -0.002871
 539  15  -1.992859   7.872708   2.540761  -0.000489   0.152968  -0.003195
 540  15  -2.289788   6.662280   2.039995  -0.000552   0.152968  -0.003612
 541  15  -2.031958   5.352851   2.191609  -0.000483   0.152968  -0.003159
 542   5   0.333760   8.027031   4.820688  -0.000356   0.151226  -0.002351
 543   5  -0.555775   8.754618   3.842871  -0.000147   0.151226  -0.000969
 544   5  -1.499188   8.531885   2.686521  -0.000214   0.151226  -0.001415
 545   5  -2.107853   7.450583   1.827979  -0.000341   0.151226  -0.002254
 546   5  -2.131041   5.956138   1.620908  -0.000266   0.151226  -0.001760
 547   5  -1.751486   4.835124   1.940880  -0.000046   0.084229  -0.000548
 548  16   2.859050   9.055583  -1.208075  -0.000232   0.069645  -0.003338
 549  16   1.792956   8.930072  -1.550154  -0.000410   0.155189  -0.002644
 550  16   0.464095   9.045912  -1.278989  -0.000575   0.155189  -0.003705
 551  16  -0.399849   9.434025  -0.301344  -0.000617   0.155189  -0.003979
 552  16  -0.430794   9.929054   0.966256  -0.000535   0.155189  -0.003449
 553  16   0.384445  10.320093   1.983750  -0.000409   0.155189  -0.002636
 554  16   1.430229  10.465646   2.376784  -0.000246   0.069645  -0.003525
 555   5   2.564777   8.600192  -1.465203  -0.000288   0.152113  -0.001896
 556   5   1.045820   8.546749  -1.631378  -0.000172   0.152113  -0.001131
 557   5  -0.257057   8.846178  -0.889385  -0.000385   0.152113  -0.002534
 558   5  -0.788764   9.370905   0.444650  -0.000402   0.152113  -0.002643
 559   5  -0.322768   9.897371   1.802361  -0.000174   0.152113  -0.001143
 560   5   0.942394  10.201276   2.605297  -0.000280   0.152113  -0.001839
 561   6   8.138607  10.701751   1.767374  -0.000074   0.009164  -0.008110
 562   8   8.515513  10.579058   1.983132  -0.000081   0.009164  -0.008858
 563  17   7.899175  10.851878   1.673101  -0.000108   0.009164  -0.011777
 564   6   7.685260  11.179418   2.879852  -0.000069   0.009164  -0.007552
 565   8   8.067890  11.050693   3.081564  -0.000081   0.009164  -0.008870
 566  17   7.486723  11.286456   2.685228  -0.000092   0.009164  -0.010011
 567   8   8.136318  11.055560   3.719294  -0.000352   0.195376  -0.001801
 568   8   7.180228  10.518761   5.373467   0.001649   0.398828   0.004135
 569   8   6.141700   8.742886   6.635741   0.003893   0.398828   0.009762
 570   6   7.205674  11.029447   4.085036  -0.000263   0.398828  -0.000660
 571   6   6.046865   9.897190   5.874104   0.002911   0.398828   0.007300
 572   6   5.309090   8.192194   6.572122   0.001760   0.195376   0.009010
 573   8   8.372416   5.446885   0.737968   0.002023   0.195015   0.010374
 574   8   8.946519   7.319456   0.439403   0.003140   0.398032   0.007888
 575   8   9.032339   9.576046   1.280583  -0.000193   0.398032  -0.000486
 576   6   8.046512   6.278256   0.289535   0.003978   0.398032   0.009993
 577   6   8.525173   8.637539   0.398224   0.001526   0.398032   0.003834
 578   6   8.386275  10.323723   1.429121  -0.000383   0.195015  -0.001962
 579   6   3.436371  10.710116   2.862657  -0.000281   0.081255  -0.003453
 580  16   2.665913  10.576460   2.348853  -0.000334   0.081255  -0.004115
 581  17   3.556115  10.871281   2.638212  -0.000431   0.081255  -0.005301
 582   6   4.741651   9.272295  -0.467758  -0.000263   0.081255  -0.003242
 583  16   3.813518   9.312324  -0.579257  -0.000305   0.081255  -0.003748
 584  17   4.743349   9.563491  -0.391012  -0.000428   0.081255  -0.005264
 585  16   2.072939  10.561944   2.385903  -0.000095   0.060374  -0.001568
 586   6   3.249816  10.714617   3.095629   0.000151   0.085292   0.001773
 587  16   3.376247   9.234058  -0.899511  -0.000018   0.018861  -0.000953
 588   6   4.736732   9.137522  -0.675679   0.000082   0.026647   0.003093
 589  17   4.120473  11.225206   2.971932  -0.000407   0.074334  -0.005475
 590  17   5.233200  11.557225   3.306058  -0.000744   0.169027  -0.004401
 591  17   6.640454  11.591433   2.942931  -0.001050   0.169027  -0.006213
 592   6   4.462331  11.159759   3.484299  -0.000523   0.159215  -0.003283
 593   6   6.062426  11.458288   3.600308  -0.000602   0.159215  -0.003783
 594   6   7.260506  11.356387   3.024250  -0.000390   0.090815  -0.004299
 595  17   7.639562  10.903885   1.235054  -0.000465   0.075394  -0.006168
 596  17   7.160988  10.349962   0.253854  -0.000911   0.172071  -0.005295
 597  17   5.927665   9.853871  -0.377410  -0.000892   0.172071  -0.005184
 598   6   7.773837  10.392769   0.903398  -0.000843   0.160938  -0.005237
 599   6   6.793432   9.690681  -0.225286  -0.000441   0.160938  -0.002738
 600   6   5.531600   9.338637  -0.554347  -0.000203   0.092110  -0.002205
 601   7  11.323873   5.060871   2.451998   0.000367   0.093054   0.003939
 602   8  11.231018   5.470552   2.279174   0.000556   0.093054   0.005975
 603  20  12.000715   5.102299   2.779034  -0.000031   0.093054  -0.000328
 604   7   8.642589   7.349924   8.168319   0.000395   0.079322   0.004980
 605   8   8.580419   7.724447   7.921157   0.000588   0.079322   0.007417
 606  21   9.261147   7.193601   8.565774   0.000053   0.079322   0.000671
 607   8   6.415553   7.505244   7.324650   0.001705   0.187744   0.009079
 608   8   7.755649   7.941498   7.720095   0.001572   0.187744   0.008373
 609   7   7.202381   7.136252   7.774335   0.003260   0.382080   0.008531
 610   8  10.505943   5.394956   1.680507   0.001542   0.212713   0.007251
 611   8   9.001813   4.897517   1.221161   0.002135   0.212713   0.010036
 612   7   9.835163   4.593330   1.783425   0.003650   0.437705   0.008339
 613   7  11.584994   4.771722   2.634152   0.000074   0.025590   0.002889
 614   9  12.030695   4.671768   2.819676  -0.000008   0.025590  -0.000325
 615  20  12.294209   4.805858   2.882744  -0.000091   0.025590  -0.003575
 616   7   8.345569   5.311035   9.050889   0.000079   0.025945   0.003059
 617   9   8.753020   5.217410   9.312199  -0.000014   0.025945  -0.000552
 618  21   8.969416   5.361957   9.467939  -0.000051   0.025945  -0.001981
 619   9   8.572058   4.943694   9.274044   0.000109   0.090179   0.001206
 620   7   7.935606   4.978414   8.949591   0.000270   0.090179   0.002994
 621   9  11.189641   2.532712   3.218597   0.000189   0.237508   0.000795
 622   9  11.767866   4.058300   2.787249   0.000280   0.237508   0.001180
 623   7  10.845279   3.458195   2.729142   0.000647   0.487710   0.001326
 624  20  12.468013   4.881910   2.865792  -0.000025   0.006839  -0.003694
 625   7  11.436599   4.836109   2.431508   0.000062   0.009647   0.006465
 626  21   9.398260   6.773158   9.182469  -0.000584   0.193395  -0.003019
 627  21   9.110347   5.785106   9.531216  -0.000467   0.193395  -0.002416
 628   7   8.349380   6.321914   8.730980   0.001085   0.530399   0.002045
 629   8  10.576843   8.953251   6.569061  -0.000148   0.066193  -0.002238
 630   9  11.053605   8.388343   6.951830  -0.000090   0.066193  -0.001353
 631  18  10.729089   9.101231   6.357021  -0.000242   0.066193  -0.003656
 632   8  10.444815   8.434417   7.221405   0.000001   0.047208   0.000032
 633   9  10.974174   8.011727   7.703528  -0.000061   0.047208  -0.001286
 634  21  10.984867   7.904813   7.987339  -0.000108   0.047208  -0.002288
 635   9  11.160691   8.212511   7.466068   0.000128   0.107411   0.001192
 636   8  10.383361   8.917825   6.903858   0.000154   0.107411   0.001431
 637   8   8.437492  10.978152   3.141446  -0.000144   0.019650  -0.007304
 638  17   7.822334  11.121193   2.754989  -0.000138   0.019650  -0.007023
 639  18   8.727989  10.959987   3.203672  -0.000185   0.019650  -0.009431
 640   8   8.812633  10.581549   2.219355  -0.000136   0.019650  -0.006934
 641  17   8.152490  10.772148   1.943470  -0.000151   0.019650  -0.007686
 642  18   9.064708  10.604004   2.376022  -0.000146   0.019650  -0.007411
 643  17   7.403188  11.394182   2.552635  -0.000106   0.014574  -0.007293
 644   8   8.300977  11.097849   3.125741  -0.000007   0.020573  -0.000331
 645  17   7.781671  10.999297   1.628308  -0.000104   0.013673  -0.007585
 646   8   8.733262  10.637521   2.059422  -0.000008   0.019302  -0.000389
 647   8  11.909228   7.595901   2.881164  -0.000072   0.084631  -0.000850
 648  18  11.951142   7.867127   3.005299  -0.000325   0.084631  -0.003844
 649  20  12.561939   7.035720   3.365407  -0.000226   0.084631  -0.002676
 650  18  11.660992   8.415574   2.542764  -0.000308   0.071783  -0.004292
 651  18  10.938403   9.165586   2.010549  -0.000736   0.161792  -0.004551
 652  18   9.967713  10.178276   2.151858  -0.001005   0.161792  -0.006214
 653   8  11.252740   8.364610   2.094180  -0.000360   0.155025  -0.002321
 654   8  10.189001   9.471105   1.706545  -0.000511   0.155025  -0.003295
 655   8   9.339896  10.358594   2.103007  -0.000432   0.087699  -0.004926
 656  18   9.131851  11.058574   3.644970  -0.000419   0.064995  -0.006439
 657  18   9.231738  10.960824   4.701592  -0.000688   0.143356  -0.004796
 658  18   9.775228  10.400494   5.729759  -0.000615   0.143356  -0.004290
 659  18  10.455084   9.694342   6.148242  -0.000202   0.064995  -0.003106
 660   8   8.734570  11.001410   4.064958  -0.000716   0.143312  -0.004996
 661   8   9.068702  10.661376   5.434993  -0.000373   0.143312  -0.002606
 662   8   9.896088   9.803904   6.262300  -0.000351   0.143312  -0.002447
 663  20  12.584932   5.409522   2.837828  -0.000559   0.258849  -0.002161
 664  20  12.967776   6.396018   3.190385  -0.000918   0.258849  -0.003546
 665   8  11.679810   6.564634   2.352883   0.001565   0.721822   0.002168
 666  21  10.725706   7.874012   8.395177  -0.000309   0.277805  -0.001111
 667  21   9.806628   7.431308   8.832781  -0.000337   0.277805  -0.001213
 668   8   9.388819   8.465497   7.593641   0.002212   0.784471   0.002820
 669   9   9.561462   1.552549   8.535085  -0.000208   0.086571  -0.002398
 670  13   8.749988   1.139050   8.173362  -0.000406   0.086571  -0.004691
 671  19   9.714096   1.316867   8.415975  -0.000367   0.086571  -0.004235
 672  13   8.093826   1.105521   8.347804  -0.000624   0.181514  -0.003437
 673   9   9.189980   1.894305   8.879933   0.000193   0.257265   0.000749
 674   9  12.824355   7.763524   5.671008  -0.000085   0.085161  -0.001003
 675  18  12.283418   8.394974   5.147168  -0.000373   0.085161  -0.004379
 676  20  13.013599   7.645696   5.462592  -0.000251   0.085161  -0.002942
 677  18  11.133241   9.252048   6.091459  -0.000949   0.259005  -0.003663
 678  18  11.912061   9.059967   5.309451  -0.001395   0.259005  -0.005384
 679   9  12.122870   8.161260   6.542564   0.000166   0.721770   0.000229
 680  19  11.482063   0.904156   4.847429  -0.000195   0.069624  -0.002797
 681  19  12.547010   1.074537   5.167453  -0.000429   0.155046  -0.002769
 682  19  13.433219   1.327067   6.166733  -0.000494   0.155046  -0.003188
 683  19  13.503721   1.537761   7.507754  -0.000633   0.155046  -0.004085
 684  19  12.728604   1.617228   8.621566  -0.000605   0.155046  -0.003900
 685  19  11.436723   1.531754   9.035616  -0.000431   0.155046  -0.002777
 686  19  10.353717   1.368809   8.778509  -0.000257   0.069624  -0.003697
 687   9  11.916737   1.261936   4.639838  -0.000327   0.152166  -0.002150
 688   9  13.230795   1.523161   5.372182  -0.000126   0.152166  -0.000831
 689   9  13.799102   1.798325   6.762371  -0.000322   0.152166  -0.002113
 690   9  13.380545   1.970687   8.220595  -0.000406   0.152166  -0.002665
 691   9  12.152704   1.967119   9.128178  -0.000232   0.152166  -0.001526
 692   9  10.636510   1.789135   9.100063  -0.000272   0.152166  -0.001789
 693  20  13.608224   7.333802   5.794682  -0.000175   0.066585  -0.002632
 694  20  14.264653   6.669578   6.331519  -0.000364   0.146818  -0.002479
 695  20  14.841755   5.506602   6.456973  -0.000502   0.146818  -0.003417
 696  20  14.957488   4.325818   5.915075  -0.000535   0.146818  -0.003647
 697  20  14.567053   3.584282   4.915583  -0.000390   0.146818  -0.002657
 698  20  13.821579   3.569028   3.845379  -0.000434   0.146818  -0.002959
 699  20  13.009625   4.285961   3.118717  -0.000536   0.146818  -0.003654
 700   9  13.636313   7.192134   6.364681  -0.000233   0.146926  -0.001587
 701   9  14.459319   6.093773   6.878811  -0.000270   0.146926  -0.001837
 702   9  14.868894   4.708239   6.632626  -0.000347   0.146926  -0.002365
 703   9  14.706501   3.571842   5.721420  -0.000287   0.146926  -0.001952
 704   9  14.034999   3.124460   4.497902  -0.000209   0.146926  -0.001425
 705   9  13.114312   3.539263   3.435669  -0.000214   0.146926  -0.001455
 706   9  12.414606   4.355788   2.928376  -0.000112   0.081348  -0.001377
 707  21   9.310221   5.175350   9.831226  -0.000174   0.067407  -0.002582
 708  21  10.010405   4.419469  10.176118  -0.000468   0.148812  -0.003144
 709  21  11.246952   3.996450  10.323899  -0.000351   0.148812  -0.002359
 710  21  12.504606   4.308555  10.098664  -0.000533   0.148812  -0.003581
 711  21  13.288985   5.233097   9.588952  -0.000543   0.148812  -0.003648
 712  21  13.291750   6.406640   8.995131  -0.000459   0.148812  -0.003083
 713  21  12.511815   7.367865   8.550630  -0.000349   0.148812  -0.002346
 714  21  11.516504   7.775882   8.397520  -0.000207   0.067407  -0.003072
 715   9   9.326461   4.589759   9.749980  -0.000340   0.148578  -0.002290
 716   9  10.489527   3.752691  10.111156  -0.000126   0.148578  -0.000847
 717   9  11.965144   3.687072  10.065333  -0.000165   0.148578  -0.001111
 718   9  13.173250   4.418697   9.630524  -0.000350   0.148578  -0.002353
 719   9  13.638939   5.659964   8.977653  -0.000359   0.148578  -0.002420
 720   9  13.179151   6.922934   8.363361  -0.000127   0.148578  -0.000853
 721   9  11.974626   7.711134   8.029127  -0.000242   0.148578  -0.001626
 722  14   2.519334   3.303424  -0.973510  -0.000491   0.235895  -0.002080
 723  14   1.469577   3.051812  -1.152259  -0.001652   0.471715  -0.003503
 724  14   0.196931   3.060300  -0.742379  -0.001475   0.471715  -0.003128
 725  14  -0.548084   3.323881   0.014408  -0.000104   0.235895  -0.000442
 726  10   2.329289   1.879974  -0.407223  -0.001521   0.471715  -0.003224
 727  10   1.006289   1.688343  -0.381737  -0.001806   0.471715  -0.003829
 728  10  -0.080502   1.896045   0.368895  -0.001125   0.471715  -0.002386
 729  13   5.305910   0.237299   7.693314  -0.000486   0.221725  -0.002194
 730  13   5.743638  -0.582984   7.122487  -0.002174   0.443502  -0.004903
 731  13   6.222883  -1.068364   5.975891  -0.002183   0.443502  -0.004922
 732  13   6.464969  -0.936597   4.920265  -0.000434   0.221725  -0.001960
 733  11   4.199986  -0.528772   7.151373  -0.001518   0.443502  -0.003423
 734  11   4.730552  -1.358053   6.250959  -0.001910   0.443502  -0.004306
 735  11   5.109607  -1.450038   4.975103  -0.001517   0.443502  -0.003419
 736  15  -1.823139   4.547822   3.154176  -0.000259   0.235859  -0.001098
 737  15  -1.801432   5.048494   4.132702  -0.001639   0.471661  -0.003476
 738  15  -1.102896   5.661138   5.102622  -0.001748   0.471661  -0.003705
 739  15  -0.140327   6.023715   5.490766  -0.000371   0.235859  -0.001574
 740  12  -1.618572   3.433614   4.190713  -0.001088   0.471661  -0.002307
 741  12  -1.322089   4.066946   5.337457  -0.001798   0.471661  -0.003812
 742  12  -0.296362   4.593244   6.026606  -0.001554   0.471661  -0.003294
 743  19   9.827132   0.886589   8.345742  -0.000300   0.231469  -0.001297
 744  19  10.121755   0.225278   7.515838  -0.001683   0.462932  -0.003635
 745  19  10.389810   0.053702   6.208360  -0.001681   0.462932  -0.003631
 746  13   8.554567   0.300615   7.803638  -0.001890   0.462932  -0.004082
 747  13   8.890152  -0.280478   6.637232  -0.002093   0.462932  -0.004522
 748  13   9.062738  -0.201721   5.552388  -0.000378   0.231469  -0.001633
 749  17   4.659554   9.992425  -0.430607  -0.000495   0.220783  -0.002242
 750  17   4.285653  10.820597   0.152087  -0.002160   0.441589  -0.004892
 751  17   3.838524  11.313128   1.292934  -0.002208   0.441589  -0.005000
 752  17   3.576694  11.185242   2.332305  -0.000498   0.220783  -0.002254
 753  16   3.209486   9.993178  -0.600331  -0.001443   0.441589  -0.003269
 754  16   2.741339  10.831258   0.306589  -0.001886   0.441589  -0.004270
 755  16   2.359983  10.928941   1.567172  -0.001558   0.441589  -0.003528
 756  18   9.091625  10.907632   2.703699  -0.000746   0.324335  -0.002300
 757  17   7.745354  11.270219   2.223144  -0.000779   0.324335  -0.002402
 758  20  13.185207   7.046827   3.607584  -0.000403   0.265357  -0.001520
 759  20  13.302890   7.539463   4.664497  -0.001112   0.530592  -0.002096
 760  18  12.296468   8.408629   3.568950  -0.001601   0.530592  -0.003018
 761  18  12.332197   8.844660   4.656242  -0.000704   0.265357  -0.002653
 =====================================================

              5147415  WORDS OF DYNAMIC MEMORY USED
 EXECUTION OF GAMESS TERMINATED NORMALLY Tue Nov 22 18:53:31 2016
 DDI: 263640 bytes (0.3 MB / 0 MWords) used by master data server.

 ----------------------------------------
 CPU timing information for all processes
 ========================================
 0: 877.596 + 0.296 = 877.892
 ----------------------------------------
 ddikick.x: exited gracefully.
