----- GAMESS execution script -----

          ******************************************************
          *         GAMESS VERSION =  5 DEC 2014 (R1)          *
          *             FROM IOWA STATE UNIVERSITY             *
          * M.W.SCHMIDT, K.K.BALDRIDGE, J.A.BOATZ, S.T.ELBERT, *
          *   M.S.GORDON, J.H.JENSEN, S.KOSEKI, N.MATSUNAGA,   *
          *          K.A.NGUYEN, S.J.SU, T.L.WINDUS,           *
          *       TOGETHER WITH M.DUPUIS, J.A.MONTGOMERY       *
          *         J.COMPUT.CHEM.  14, 1347-1363(1993)        *
          **************** 64 BIT LINUX VERSION ****************

 EXECUTION OF GAMESS BEGUN Tue Nov 22 18:55:23 2016

            ECHO OF THE FIRST FEW INPUT CARDS -
 INPUT CARD>! SELECT RESTRICTED HARTREE-FOCK AS DEFAULT                                     
 INPUT CARD>$contrl scftyp=rhf $end                                                         
 INPUT CARD>                                                                                
 INPUT CARD>! THEORY: HF OR DFT                                                             
 INPUT CARD> $contrl mplevl=0 $end                                                          
 INPUT CARD>                                                                                
 INPUT CARD> $system timlim=10000 mwords=20 $end                                            
 INPUT CARD> $SCF DIRSCF=.TRUE. $end                                                        
 INPUT CARD>                                                                                
 INPUT CARD>                                                                                
 INPUT CARD>! BASIS SETS                                                                    
 INPUT CARD>! 6-311G(d,p)                                                                   
 INPUT CARD> $BASIS GBASIS=N311 NGAUSS=6 NDFUNC=1 NPFUNC=1 $END                             
 INPUT CARD>                                                                                
 INPUT CARD>! One of the following                                                          
 INPUT CARD> $guess guess=HUCKEL $end                                                       
 INPUT CARD>                                                                                
 INPUT CARD> $statpt projct=.FALSE. $end                                                    
 INPUT CARD> $STATPT IFREEZ(1)=1,2,3 $END                                                   
 INPUT CARD>                                                                                
 INPUT CARD>! Optimize the geometry with COSMO effects                                      
 INPUT CARD> $statpt opttol=0.0005 nstep=50 $end                                            
 INPUT CARD> $contrl nzvar=1 $end                                                           
 INPUT CARD> $zmat dlc=.t. auto=.t. $end                                                    
 INPUT CARD> $contrl runtyp=OPTIMIZE maxit=200 $end                                         
 INPUT CARD>                                                                                
 INPUT CARD>! Run COSMO on perfect conductor                                                
 INPUT CARD> $COSGMS PRFCND=.TRUE. $end                                                     
 INPUT CARD>                                                                                
 INPUT CARD>! Specifying RSOLV                                                              
 INPUT CARD> $COSGMS COSRAD = 1.4 $end                                                      
 INPUT CARD>                                                                                
 INPUT CARD>! available memory                                                              
 INPUT CARD> $SYSTEM MWORDS=40 $END                                                         
 INPUT CARD>                                                                                
 INPUT CARD> $DATA                                                                          
 INPUT CARD>Propane, 1,2-dichloro-, ID: C78875                                              
 INPUT CARD>C1                                                                              
 INPUT CARD>C      6.0      1.5857000000    0.7170000000    1.2847000000                    
 INPUT CARD>C      6.0      2.3643000000    1.9262000000    0.8184000000                    
 INPUT CARD>C      6.0      2.7868000000    2.8222000000    1.9556000000                    
 INPUT CARD>Cl    17.0      3.8413000000    1.3266000000    0.0000000000                    
 INPUT CARD>Cl    17.0      0.0000000000    1.2481000000    1.8866000000                    
 INPUT CARD>H      1.0      2.1101000000    0.1783000000    2.0943000000                    
 INPUT CARD>H      1.0      1.4272000000    0.0000000000    0.4595000000                    
 INPUT CARD>H      1.0      1.7754000000    2.4966000000    0.0636000000                    
 INPUT CARD>H      1.0      3.3361000000    3.6979000000    1.5879000000                    
 INPUT CARD>H      1.0      3.4388000000    2.2967000000    2.6661000000                    
 INPUT CARD>H      1.0      1.9096000000    3.1820000000    2.5110000000                    
 INPUT CARD> $END                                                                           
   40000000 WORDS OF MEMORY AVAILABLE

     BASIS OPTIONS
     -------------
     GBASIS=N311         IGAUSS=       6      POLAR=POPN311 
     NDFUNC=       1     NFFUNC=       0     DIFFSP=       F
     NPFUNC=       1      DIFFS=       F     BASNAM=        


     RUN TITLE
     ---------
 Propane, 1,2-dichloro-, ID: C78875                                              

 THE POINT GROUP OF THE MOLECULE IS C1      
 THE ORDER OF THE PRINCIPAL AXIS IS     0

 ATOM      ATOMIC                      COORDINATES (BOHR)
           CHARGE         X                   Y                   Z
 C           6.0     2.9965384987        1.3549335332        2.4277309764
 C           6.0     4.4678791528        3.6399901975        1.5465517484
 C           6.0     5.2662883826        5.3331846825        3.6955481416
 CL         17.0     7.2590044366        2.5069104953        0.0000000000
 CL         17.0     0.0000000000        2.3585670053        3.5651570484
 H           1.0     3.9875108067        0.3369381436        3.9576531361
 H           1.0     2.6970169297        0.0000000000        0.8683290914
 H           1.0     3.3550195186        4.7178899009        0.1201865728
 H           1.0     6.3043148676        6.9880177300        3.0006958959
 H           1.0     6.4983897266        4.3401336760        5.0381984559
 H           1.0     3.6086207462        6.0131080929        4.7451019552

          INTERNUCLEAR DISTANCES (ANGS.)




     $CONTRL OPTIONS
     ---------------
 SCFTYP=RHF          RUNTYP=OPTIMIZE     EXETYP=RUN     
 MPLEVL=       0     CITYP =NONE         CCTYP =NONE         VBTYP =NONE    
 DFTTYP=NONE         TDDFT =NONE    
 MULT  =       1     ICHARG=       0     NZVAR =       1     COORD =UNIQUE  
 PP    =NONE         RELWFN=NONE         LOCAL =NONE         NUMGRD=       F
 ISPHER=      -1     NOSYM =       0     MAXIT =     200     UNITS =ANGS    
 PLTORB=       F     MOLPLT=       F     AIMPAC=       F     FRIEND=        
 NPRINT=       7     IREST =       0     GEOM  =INPUT   
 NORMF =       0     NORMP =       0     ITOL  =      20     ICUT  =       9
 INTTYP=BEST         GRDTYP=BEST         QMTTOL= 1.0E-06

     $SYSTEM OPTIONS
     ---------------
  REPLICATED MEMORY=    40000000 WORDS (ON EVERY NODE).
 DISTRIBUTED MEMDDI=           0 MILLION WORDS IN AGGREGATE,
 MEMDDI DISTRIBUTED OVER   1 PROCESSORS IS           0 WORDS/PROCESSOR.
 TOTAL MEMORY REQUESTED ON EACH PROCESSOR=    40000000 WORDS.
 TIMLIM=       10000.00 MINUTES, OR       6.9 DAYS.
 PARALL= F  BALTYP=  DLB     KDIAG=    0  COREFL= F
 MXSEQ2=     300 MXSEQ3=     150  mem10=         0

     $COSGMS OPTIONS
     ---------------
     EPSI  =   INFTY     NSPA  =      92     COSRAD=    1.40
     DISEX =   10.00     OUTCHG=DBLCAV       COSBUG=       F
     COSWRT=       F     DCOSMO=       F

     SYMMETRY COORDINATES WILL NOT BE USED FOR 
     THE COSMO CALCULATION, EVEN IF SPECIFIED:
         -- SWITCHING TO C1 POINT GROUP --


     DEFINITION OF CAVITY
     ---------------------------
     ATOM         COORDINATES           RADIUS 
     1    2.9965    1.3549    2.4277    2.0000
     2    4.4679    3.6400    1.5466    2.0000
     3    5.2663    5.3332    3.6955    2.0000
     4    7.2590    2.5069    0.0000    2.0500
     5    0.0000    2.3586    3.5652    2.0500
     6    3.9875    0.3369    3.9577    1.3000
     7    2.6970    0.0000    0.8683    1.3000
     8    3.3550    4.7179    0.1202    1.3000
     9    6.3043    6.9880    3.0007    1.3000
    10    6.4984    4.3401    5.0382    1.3000
    11    3.6086    6.0131    4.7451    1.3000

          ----------------
          PROPERTIES INPUT
          ----------------

     MOMENTS            FIELD           POTENTIAL          DENSITY
 IEMOM =       1   IEFLD =       0   IEPOT =       0   IEDEN =       0
 WHERE =COMASS     WHERE =NUCLEI     WHERE =NUCLEI     WHERE =NUCLEI  
 OUTPUT=BOTH       OUTPUT=BOTH       OUTPUT=BOTH       OUTPUT=BOTH    
 IEMINT=       0   IEFINT=       0                     IEDINT=       0
                                                       MORB  =       0
          EXTRAPOLATION IN EFFECT
          SOSCF IN EFFECT
 ORBITAL PRINTING OPTION: NPREO=     1   147     2     1

     -------------------------------
     INTEGRAL TRANSFORMATION OPTIONS
     -------------------------------
     NWORD  =            0
     CUTOFF = 1.0E-09     MPTRAN =       0
     DIRTRF =       T     AOINTS =DUP     

          ----------------------
          INTEGRAL INPUT OPTIONS
          ----------------------
 NOPK  =       1 NORDER=       0 SCHWRZ=       T


 -----------------------------------------------
  STATISTICS ON AUTOMATIC COORDINATE GENERATION 
 -----------------------------------------------
  NUMBER OF USER SPECIFIED BONDS                             0
  NUMBER OF BONDS                                           10
  NUMBER OF ANGLES                                          18
  NUMBER OF TORSIONS                                        18
  NUMBER OF EXTRA COORD.                                     0
  NUMBER OF EXTRA COORD. FOR CONSTRAINTS                     0
  NUMBER OF CONSTRAINED COORD.                               0

  TOTAL NUMBER OF PRIMITIVES                                46
 -----------------------------------------------

   --- ENCODED Z MATRIX ---
 COORD  TYPE   I   J   K   L   M   N
    1      1    1   5
    2      1    1   7
    3      1    1   2
    4      1    1   6
    5      1    2   4
    6      1    2   8
    7      1    2   3
    8      1    3  11
    9      1    3  10
   10      1    3   9
   11      2    1   2   8
   12      2    1   2   3
   13      2    1   2   4
   14      2    2   3   9
   15      2    2   1   6
   16      2    2   3  10
   17      2    2   3  11
   18      2    2   1   5
   19      2    2   1   7
   20      2    3   2   8
   21      2    3   2   4
   22      2    4   2   8
   23      2    5   1   6
   24      2    5   1   7
   25      2    6   1   7
   26      2    9   3  10
   27      2    9   3  11
   28      2   10   3  11
   29      3    1   2   3  11
   30      3    1   2   3   9
   31      3    1   2   3  10
   32      3    3   2   1   6
   33      3    3   2   1   7
   34      3    3   2   1   5
   35      3    4   2   3   9
   36      3    4   2   1   6
   37      3    4   2   3  11
   38      3    4   2   1   7
   39      3    4   2   1   5
   40      3    4   2   3  10
   41      3    5   1   2   8
   42      3    6   1   2   8
   43      3    7   1   2   8
   44      3    8   2   3   9
   45      3    8   2   3  11
   46      3    8   2   3  10

          INDEP./SYM. INTERNAL COORDINATES
          --------------------------------
 CRD  1=   0.1924 (  3)  0.1704 (  7) -0.2128 ( 11)  0.6953 ( 12) -0.2267 ( 13)
          -0.1283 ( 14)  0.1138 ( 15)  0.1030 ( 16)  0.1468 ( 17)  0.2688 ( 18)
          -0.1578 ( 19) -0.2154 ( 20) -0.2050 ( 21)  0.1402 ( 22) -0.1111 ( 23)
          -0.1040 ( 24)
 CRD  2=  -0.2434 ( 11)  0.1808 ( 12)  0.1838 ( 13) -0.1139 ( 14)  0.3286 ( 15)
          -0.6773 ( 18) -0.1775 ( 21)  0.1858 ( 23)  0.2120 ( 24) -0.1228 ( 25)
           0.1565 ( 29)  0.1830 ( 30)  0.1934 ( 31)
 CRD  3=  -0.2245 (  3)  0.2161 (  7) -0.3920 ( 13)  0.3133 ( 16) -0.1920 ( 17)
          -0.1893 ( 18) -0.1085 ( 19) -0.2067 ( 20)  0.4323 ( 21)  0.1728 ( 24)
          -0.1132 ( 26) -0.1008 ( 29) -0.1085 ( 31) -0.2223 ( 32) -0.2058 ( 33)
          -0.2308 ( 34)  0.1556 ( 35)  0.1114 ( 38)
 CRD  4=   0.5227 (  3)  0.4386 (  7) -0.1040 ( 12)  0.1008 ( 13)  0.3284 ( 14)
           0.1322 ( 16) -0.1034 ( 17)  0.3649 ( 19) -0.1062 ( 22) -0.1872 ( 24)
          -0.2136 ( 25) -0.2074 ( 26) -0.1287 ( 27)
 CRD  5=  -0.2356 (  3)  0.4359 (  7) -0.1421 ( 11) -0.1284 ( 13)  0.1657 ( 14)
          -0.2290 ( 15) -0.2347 ( 16)  0.4338 ( 17) -0.1001 ( 18)  0.2369 ( 20)
           0.2152 ( 23) -0.2387 ( 27) -0.1259 ( 28)  0.1337 ( 32)  0.1560 ( 33)
           0.1914 ( 34)  0.1480 ( 37)  0.1107 ( 38)  0.1461 ( 39)  0.1264 ( 40)
 CRD  6=  -0.1368 (  2)  0.1014 (  4)  0.1138 ( 10) -0.1344 ( 11)  0.4502 ( 14)
           0.4438 ( 15) -0.2991 ( 16) -0.1653 ( 17) -0.4648 ( 19)  0.1373 ( 20)
          -0.2025 ( 23)  0.1468 ( 24) -0.1099 ( 27)  0.1889 ( 28)  0.1150 ( 39)
 CRD  7=   0.1082 (  1) -0.2139 (  3)  0.1649 (  7) -0.1108 (  8)  0.1742 (  9)
          -0.2658 ( 11)  0.2076 ( 13) -0.1501 ( 15)  0.4703 ( 16) -0.2759 ( 17)
           0.2197 ( 18) -0.1670 ( 19)  0.2717 ( 20)  0.1864 ( 25) -0.2036 ( 26)
           0.1462 ( 27) -0.1014 ( 28)  0.1551 ( 29)  0.1831 ( 30)  0.1524 ( 31)
           0.1293 ( 34)  0.1187 ( 39)
 CRD  8=   0.1064 (  2) -0.1701 (  5) -0.1030 (  6) -0.1554 (  7) -0.1357 (  8)
           0.1518 ( 10) -0.1186 ( 11)  0.2540 ( 12) -0.1046 ( 13)  0.3807 ( 14)
          -0.3266 ( 15) -0.1258 ( 16) -0.4160 ( 17)  0.2609 ( 19) -0.1484 ( 21)
           0.1976 ( 22)  0.2336 ( 23) -0.1190 ( 26)  0.2635 ( 28)
 CRD  9=  -0.2376 (  2)  0.2402 (  4) -0.1003 (  5) -0.1385 (  7)  0.1346 ( 11)
          -0.1126 ( 13) -0.1126 ( 14)  0.1782 ( 21)  0.2041 ( 23) -0.2529 ( 24)
           0.1175 ( 27)  0.3401 ( 34)  0.1837 ( 36)  0.1881 ( 38)  0.4700 ( 39)
           0.3676 ( 41)
 CRD 10=  -0.1730 (  4)  0.3801 (  5) -0.5697 (  6)  0.1657 (  8) -0.1288 (  9)
          -0.1048 ( 11) -0.1901 ( 16)  0.1079 ( 17)  0.1130 ( 18) -0.1016 ( 20)
           0.1420 ( 21) -0.1740 ( 24)  0.1371 ( 26)  0.1944 ( 29)  0.2373 ( 30)
           0.1965 ( 31) -0.1532 ( 32) -0.2170 ( 33) -0.1271 ( 34)  0.1165 ( 39)
 CRD 11=  -0.5216 (  1) -0.3492 (  2) -0.1971 (  3) -0.4739 (  4)  0.1213 (  6)
           0.2354 ( 15)  0.2453 ( 19) -0.2066 ( 23) -0.1369 ( 24) -0.2357 ( 25)
           0.1065 ( 35)  0.1164 ( 37)  0.1079 ( 40)
 CRD 12=  -0.1312 (  2) -0.1678 (  7) -0.4815 (  8) -0.5038 (  9) -0.4769 ( 10)
           0.1947 ( 14)  0.1726 ( 16)  0.1744 ( 17) -0.1976 ( 26) -0.1960 ( 27)
          -0.1811 ( 28)
 CRD 13=   0.1685 (  1)  0.4988 (  5)  0.4774 (  6) -0.1052 ( 13)  0.2277 ( 22)
           0.1492 ( 29)  0.1424 ( 30)  0.1337 ( 31)  0.2938 ( 35) -0.1223 ( 36)
           0.3005 ( 37) -0.1298 ( 38)  0.2850 ( 40)  0.1222 ( 41)
 CRD 14=  -0.1447 (  1) -0.4160 (  2)  0.3684 (  4)  0.1693 (  5)  0.1136 (  6)
           0.1718 (  8)  0.1974 ( 23) -0.2068 ( 24) -0.1126 ( 29) -0.1134 ( 30)
          -0.1931 ( 32) -0.2126 ( 33) -0.1533 ( 35) -0.2450 ( 36) -0.1526 ( 37)
          -0.2645 ( 38) -0.1253 ( 40) -0.1930 ( 42) -0.2126 ( 43) -0.1771 ( 44)
          -0.1763 ( 45) -0.1490 ( 46)
 CRD 15=   0.5838 (  1) -0.4021 (  2) -0.3255 (  4)  0.1647 ( 23)  0.1418 ( 24)
          -0.3278 ( 25) -0.1904 ( 32)  0.1734 ( 33) -0.1973 ( 36)  0.1664 ( 38)
          -0.2133 ( 42)  0.1504 ( 43)
 CRD 16=   0.1462 (  8)  0.4561 (  9) -0.6209 ( 10) -0.2404 ( 27)  0.3204 ( 28)
          -0.1946 ( 29)  0.1475 ( 31) -0.2116 ( 37)  0.1305 ( 40) -0.1912 ( 45)
           0.1509 ( 46)
 CRD 17=  -0.6066 (  8)  0.4220 (  9)  0.1823 ( 10)  0.3271 ( 26) -0.2374 ( 27)
           0.2070 ( 30) -0.1467 ( 31)  0.1902 ( 35) -0.1635 ( 40)  0.1739 ( 44)
          -0.1798 ( 46)
 CRD 18=   0.1270 (  1) -0.1348 (  2)  0.1817 (  4) -0.5552 (  5)  0.1430 ( 29)
           0.1742 ( 30)  0.1543 ( 31) -0.1216 ( 32) -0.1517 ( 33)  0.2116 ( 35)
          -0.1431 ( 36)  0.1803 ( 37) -0.1732 ( 38)  0.1916 ( 40) -0.1519 ( 41)
          -0.2016 ( 42) -0.2317 ( 43)  0.2465 ( 44)  0.2153 ( 45)  0.2266 ( 46)
 CRD 19=  -0.2033 (  1) -0.3565 (  2) -0.1644 (  4)  0.1076 (  9)  0.2517 ( 10)
           0.2708 ( 11)  0.1328 ( 13)  0.1829 ( 14) -0.1855 ( 15)  0.1042 ( 16)
           0.1023 ( 17) -0.2451 ( 19) -0.2605 ( 20) -0.1289 ( 21)  0.1957 ( 24)
           0.2522 ( 25) -0.1797 ( 26) -0.1734 ( 27)  0.1175 ( 41)  0.1743 ( 42)
           0.1478 ( 43)  0.1853 ( 44)  0.1553 ( 45)  0.2178 ( 46)
 CRD 20=  -0.1297 (  1)  0.2762 (  3) -0.3444 (  4)  0.3348 (  6)  0.1593 (  7)
          -0.1424 (  8) -0.2758 (  9) -0.1422 ( 10) -0.1567 ( 14) -0.1857 ( 15)
          -0.2103 ( 16) -0.1696 ( 17) -0.1496 ( 19) -0.1702 ( 22)  0.1893 ( 23)
           0.2020 ( 25)  0.2232 ( 26)  0.1237 ( 27)  0.2219 ( 28) -0.1037 ( 33)
          -0.1020 ( 37)  0.1340 ( 39) -0.1464 ( 42) -0.1744 ( 43)
 CRD 21=   0.2071 (  1)  0.2431 (  2) -0.2449 (  3) -0.2365 (  4) -0.2012 (  5)
           0.4220 (  6) -0.2622 (  7)  0.2305 (  8)  0.1836 ( 10)  0.1347 ( 14)
           0.1214 ( 17) -0.2195 ( 24) -0.2680 ( 27)  0.1378 ( 30) -0.1892 ( 33)
          -0.1912 ( 37)  0.1627 ( 39) -0.1383 ( 40)  0.1445 ( 41) -0.1111 ( 45)
 CRD 22=  -0.1807 (  1)  0.1390 (  2)  0.4442 (  3) -0.2391 (  4) -0.1140 (  6)
          -0.4262 (  7)  0.1470 (  8)  0.2444 (  9)  0.1184 ( 14)  0.1224 ( 16)
           0.1182 ( 17) -0.1560 ( 19)  0.1613 ( 20)  0.2101 ( 23) -0.1004 ( 26)
          -0.2513 ( 28) -0.1002 ( 32) -0.1165 ( 36)  0.1681 ( 37) -0.1998 ( 42)
          -0.1128 ( 43) -0.1016 ( 44) -0.1383 ( 46)
 CRD 23=   0.1642 (  1) -0.3120 (  2)  0.2560 (  3) -0.2862 (  5)  0.2314 (  8)
          -0.2071 ( 10) -0.1581 ( 11)  0.2001 ( 22) -0.1294 ( 23)  0.2035 ( 25)
           0.1930 ( 26) -0.1359 ( 28)  0.1080 ( 30) -0.1364 ( 31)  0.1659 ( 32)
           0.1206 ( 35)  0.1864 ( 36) -0.1238 ( 40)  0.3202 ( 42)  0.1104 ( 43)
          -0.1104 ( 44) -0.1562 ( 45) -0.3547 ( 46)
 CRD 24=  -0.2210 (  2)  0.2744 (  4)  0.1546 (  6) -0.3565 (  7) -0.1049 (  9)
           0.2126 ( 10) -0.2083 ( 11)  0.1166 ( 12) -0.2098 ( 15)  0.1110 ( 16)
           0.1699 ( 19)  0.1688 ( 20) -0.1274 ( 22)  0.1621 ( 24) -0.1734 ( 27)
           0.1226 ( 30)  0.1377 ( 31)  0.1492 ( 33) -0.1581 ( 34)  0.2121 ( 36)
          -0.1271 ( 37)  0.2920 ( 38) -0.3062 ( 41) -0.1199 ( 45)
 CRD 25=  -0.2945 (  1)  0.1720 (  2)  0.1325 (  4)  0.1104 (  7)  0.2776 (  8)
          -0.2129 (  9) -0.1017 ( 10)  0.1181 ( 13) -0.1530 ( 17)  0.1261 ( 18)
          -0.1223 ( 21)  0.1260 ( 23)  0.1122 ( 24) -0.2250 ( 25)  0.2319 ( 26)
          -0.1363 ( 27)  0.2618 ( 30) -0.1086 ( 31) -0.1343 ( 32)  0.2439 ( 33)
           0.2135 ( 35) -0.2257 ( 36)  0.1525 ( 38) -0.1569 ( 40) -0.1274 ( 42)
           0.2508 ( 43)  0.2480 ( 44) -0.1225 ( 46)
 CRD 26=   0.2090 (  3) -0.1038 (  4) -0.1001 (  5) -0.1948 (  6) -0.2314 (  9)
           0.2812 ( 10) -0.2401 ( 12) -0.2248 ( 14)  0.1479 ( 16) -0.1032 ( 19)
           0.1172 ( 20)  0.1623 ( 22) -0.1572 ( 27)  0.2273 ( 28) -0.2951 ( 29)
           0.1233 ( 31)  0.1167 ( 34)  0.1953 ( 35) -0.1093 ( 36) -0.1178 ( 37)
          -0.1268 ( 38)  0.3005 ( 40)  0.1459 ( 41) -0.3948 ( 45)
 CRD 27=  -0.1692 (  1) -0.2561 (  5)  0.1410 (  6) -0.1619 (  8)  0.1266 (  9)
          -0.1442 ( 11)  0.1404 ( 13) -0.1031 ( 15) -0.1278 ( 16)  0.1556 ( 17)
           0.1477 ( 18) -0.1499 ( 20)  0.1421 ( 21)  0.1038 ( 22) -0.1134 ( 25)
          -0.1123 ( 26)  0.2487 ( 29)  0.3015 ( 31) -0.3232 ( 32) -0.2113 ( 34)
          -0.1823 ( 35)  0.1682 ( 38)  0.1434 ( 41)  0.2948 ( 43) -0.3079 ( 44)
          -0.1045 ( 45)

 THE DETERMINANT OF THE G MATRIX IS 10**(   -13)


                     --------------------
                     INTERNAL COORDINATES
                     --------------------

                 - - ATOMS - -         COORDINATE      COORDINATE
 NO.   TYPE    I  J  K  L  M  N        (BOHR,RAD)       (ANG,DEG)
 ----------------------------------------------------------------
   1 STRETCH   1  5                     3.3586100       1.7773000
   2 STRETCH   1  7                     2.0874128       1.1046114
   3 STRETCH   1  2                     2.8570621       1.5118923
   4 STRETCH   1  6                     2.0878224       1.1048281
   5 STRETCH   2  4                     3.3861589       1.7918783
   6 STRETCH   2  8                     2.1059064       1.1143978
   7 STRETCH   2  3                     2.8500088       1.5081598
   8 STRETCH   3 11                     2.0764684       1.0988198
   9 STRETCH   3 10                     2.0753154       1.0982097
  10 STRETCH   3  9                     2.0733526       1.0971710
  11 BEND      1  2  8                  1.9242371     110.2506619
  12 BEND      1  2  3                  1.9680283     112.7597165
  13 BEND      1  2  4                  1.8731054     107.3210343
  14 BEND      2  3  9                  1.9409192     111.2064801
  15 BEND      2  1  6                  1.9514644     111.8106715
  16 BEND      2  3 10                  1.9496628     111.7074473
  17 BEND      2  3 11                  1.9305238     110.6108641
  18 BEND      2  1  5                  1.9017226     108.9606794
  19 BEND      2  1  7                  1.9418862     111.2618850
  20 BEND      3  2  8                  1.9333575     110.7732244
  21 BEND      3  2  4                  1.8883791     108.1961517
  22 BEND      4  2  8                  1.8728806     107.3081532
  23 BEND      5  1  6                  1.8975962     108.7242514
  24 BEND      5  1  7                  1.8954082     108.5988910
  25 BEND      6  1  7                  1.8744839     107.4000160
  26 BEND      9  3 10                  1.8770645     107.5478715
  27 BEND      9  3 11                  1.8835961     107.9221060
  28 BEND     10  3 11                  1.8792937     107.6755999
  29 TORSION   1  2  3 11              -1.0341009     -59.2496184
  30 TORSION   1  2  3  9              -3.1268488    -179.1552386
  31 TORSION   1  2  3 10               1.0589928      60.6758194
  32 TORSION   3  2  1  6              -0.8889250     -50.9316519
  33 TORSION   3  2  1  7              -2.9848722    -171.0205820
  34 TORSION   3  2  1  5               1.2090421      69.2730113
  35 TORSION   4  2  3  9               1.0874312      62.3052201
  36 TORSION   4  2  1  6               1.1888803      68.1178245
  37 TORSION   4  2  3 11              -3.1030062    -177.7891597
  38 TORSION   4  2  1  7              -0.9070669     -51.9711055
  39 TORSION   4  2  1  5              -2.9963378    -171.6775122
  40 TORSION   4  2  3 10              -1.0099125     -57.8637219
  41 TORSION   5  1  2  8              -0.9618708     -55.1111375
  42 TORSION   6  1  2  8              -3.0598380    -175.3158008
  43 TORSION   7  1  2  8               1.1274001      64.5952692
  44 TORSION   8  2  3  9              -0.9609491     -55.0583267
  45 TORSION   8  2  3 11               1.1317988      64.8472935
  46 TORSION   8  2  3 10              -3.0582928    -175.2272687

     ------------------------------------------
     THE POINT GROUP IS C1 , NAXIS= 1, ORDER= 1
     ------------------------------------------

     DIMENSIONS OF THE SYMMETRY SUBSPACES ARE
 A   =  147

 ..... DONE SETTING UP THE RUN .....
 STEP CPU TIME =     0.01 TOTAL CPU TIME =        0.0 (    0.0 MIN)
 TOTAL WALL CLOCK TIME=        0.0 SECONDS, CPU UTILIZATION IS 100.00%


          -----------------------------
          STATIONARY POINT LOCATION RUN
          -----------------------------

 OBTAINING INITIAL HESSIAN, HESS=GUESS   
 DIAGONAL GUESS HESSIAN IN INTERNAL COORDS IS
     1  0.3482     2  0.3367     3  0.3803     4  0.3365     5  0.3385
     6  0.3303     7  0.3831     8  0.3405     9  0.3409    10  0.3416
    11  0.2237    12  0.2513    13  0.2559    14  0.2250    15  0.2243
    16  0.2249    17  0.2249    18  0.2570    19  0.2243    20  0.2239
    21  0.2562    22  0.2278    23  0.2292    24  0.2293    25  0.2019
    26  0.2026    27  0.2026    28  0.2025    29  0.2500    30  0.2500
    31  0.2500    32  0.2500    33  0.2500    34  0.2500    35  0.2500
    36  0.2500    37  0.2500    38  0.2500    39  0.2500    40  0.2500
    41  0.2500    42  0.2500    43  0.2500    44  0.2500    45  0.2500
    46  0.2500
 TRANSFORMING HESSIAN TO SYMMETRY COORDINATES

          PARAMETERS CONTROLLING GEOMETRY SEARCH ARE
          METHOD =QA                  UPHESS =BFGS    
          NNEG   =         0          NFRZ   =         3
          NSTEP  =        50          IFOLOW =         1
          HESS   =GUESS               RESTAR =         F
          IHREP  =         0          HSSEND =         F
          NPRT   =         0          NPUN   =         0
          OPTTOL = 5.000E-04          RMIN   = 1.500E-03
          RMAX   = 1.000E-01          RLIM   = 7.000E-02
          DXMAX  = 3.000E-01          PURIFY =         F
          MOVIE  =         F          TRUPD  =         T
          TRMAX  = 5.000E-01          TRMIN  = 5.000E-02
          ITBMAT =         5          STPT   =         F
          STSTEP = 1.000E-02          PROJCT=          F
          FROZEN COORD(S)=   1   2   3


      ***** EQUILIBRIUM GEOMETRY LOCATED *****
            (SUBJECT TO   3 CONSTRAINT(S))
 COORDINATES OF ALL ATOMS ARE (ANGS)
   ATOM   CHARGE       X              Y              Z
 ------------------------------------------------------------
 C           6.0   1.5982795666   0.7067138383   1.2997686042
 C           6.0   2.3760704842   1.9292912617   0.8450382763
 C           6.0   2.7905533521   2.8468383431   1.9787967607
 CL         17.0   3.8619761166   1.3213881225  -0.0276527007
 CL         17.0  -0.0289418522   1.2460160487   1.8888636988
 H           1.0   2.0755511742   0.2023856653   2.1246488825
 H           1.0   1.4093351671   0.0188554289   0.4943170002
 H           1.0   1.8193557405   2.4551530165   0.0874283628
 H           1.0   3.3099302685   3.7167855502   1.5995433027
 H           1.0   3.4322964956   2.3250951388   2.6802133078
 H           1.0   1.9029078040   3.1786749818   2.5043834999


                     --------------------
                     INTERNAL COORDINATES
                     --------------------

                 - - ATOMS - -         COORDINATE      COORDINATE
 NO.   TYPE    I  J  K  L  M  N        (BOHR,RAD)       (ANG,DEG)
 ----------------------------------------------------------------
   1 STRETCH   1  5                     3.4254272       1.8126581
   2 STRETCH   1  7                     2.0331919       1.0759189
   3 STRETCH   1  2                     2.8699171       1.5186948
   4 STRETCH   1  6                     2.0375440       1.0782219
   5 STRETCH   2  4                     3.4531098       1.8273071
   6 STRETCH   2  8                     2.0356785       1.0772347
   7 STRETCH   2  3                     2.8653487       1.5162773
   8 STRETCH   3 11                     2.0477791       1.0836381
   9 STRETCH   3 10                     2.0493165       1.0844517
  10 STRETCH   3  9                     2.0443951       1.0818474
  11 BEND      1  2  8                  1.9165243     109.8087520
  12 BEND      1  2  3                  1.9858667     113.7817812
  13 BEND      1  2  4                  1.8667439     106.9565495
  14 BEND      2  3  9                  1.9344757     110.8372912
  15 BEND      2  1  6                  1.9594141     112.2661603
  16 BEND      2  3 10                  1.9329088     110.7475163
  17 BEND      2  3 11                  1.9008069     108.9082156
  18 BEND      2  1  5                  1.8939423     108.5148995
  19 BEND      2  1  7                  1.9610816     112.3616999
  20 BEND      3  2  8                  1.9516772     111.8228667
  21 BEND      3  2  4                  1.9136016     109.6412948
  22 BEND      4  2  8                  1.8201356     104.2860879
  23 BEND      5  1  6                  1.8628261     106.7320731
  24 BEND      5  1  7                  1.8502777     106.0131010
  25 BEND      6  1  7                  1.9298814     110.5740601
  26 BEND      9  3 10                  1.9065920     109.2396738
  27 BEND      9  3 11                  1.8934005     108.4838563
  28 BEND     10  3 11                  1.8947926     108.5636171
  29 TORSION   1  2  3 11              -1.0256597     -58.7659728
  30 TORSION   1  2  3  9              -3.1073375    -178.0373247
  31 TORSION   1  2  3 10               1.0567802      60.5490440
  32 TORSION   3  2  1  6              -0.8438830     -48.3509345
  33 TORSION   3  2  1  7              -3.0322420    -173.7346702
  34 TORSION   3  2  1  5               1.2107622      69.3715642
  35 TORSION   4  2  3  9               1.0864423      62.2485604
  36 TORSION   4  2  1  6               1.2718651      72.8725002
  37 TORSION   4  2  3 11              -3.1150652    -178.4800877
  38 TORSION   4  2  1  7              -0.9164940     -52.5112355
  39 TORSION   4  2  1  5              -2.9566750    -169.4050011
  40 TORSION   4  2  3 10              -1.0326253     -59.1650709
  41 TORSION   5  1  2  8              -0.9917239     -56.8215954
  42 TORSION   6  1  2  8              -3.0463691    -174.5440942
  43 TORSION   7  1  2  8               1.0484572      60.0721702
  44 TORSION   8  2  3  9              -0.9234791     -52.9114557
  45 TORSION   8  2  3 11               1.1581987      66.3598962
  46 TORSION   8  2  3 10              -3.0425467    -174.3250870

          INTERNUCLEAR DISTANCES (ANGS.)


 =====================================================
   GAMESS/COSab RESULTS
 =====================================================

   Dielectric Constant                  = INFTY
   Basic Grid Size                      =                 1082
   Number of Segments                   =                   92
   Number of Segments located on spheres=                  200
   Number of Segments of the cavity     =                  406
   Solvent Radius (rsolv)               = 1.40
   Outlying Charge Error Method         = double cavity

 =====================================================

  Total solvated Energy (a.u.)          = -1036.1617930007
  Total Energy corrected (a.u.)         = -1036.1619920935

  Outlying charge effect (a.u.)         =    -0.0001990928
  Outlying charge effect (kcal/mol)     =    -0.1249327358

  Dielectric Energy (a.u.)              =    -0.0086544226
  Dielectric energy corr. (a.u.)        =    -0.0088535154

  Sum of polarization charges           =     0.0211856450
  Sum of polarization charges(cor.)     =    -0.0211856450

  Total surface area of cavity (A**2)   =  132.57
  Total volume of cavity (A**3)         =  125.04

 =====================================================
 NPS=                   406
NR.  ATOM  (X, Y, Z)(a.u.)                  CHARGE(e)  AREA(A**2) SIGMA(e/A**2)
   1   1   1.653172  -1.986985   3.629373  -0.000794   0.278737  -0.002848
   2   1   4.674826  -1.994302   1.778447  -0.000981   0.418105  -0.002345
   3   1   1.244460   1.554798  -0.872841  -0.001020   0.185824  -0.005490
   4   1   4.838616  -1.960286   2.796646  -0.001125   0.278737  -0.004037
   5   1   2.367811  -1.883797   4.325606  -0.001451   0.278737  -0.005206
   6   1   2.417850  -2.321363   3.196953  -0.000759   0.325193  -0.002334
   7   1   3.647440  -2.386798   2.267659  -0.000701   0.325193  -0.002156
   8   1   1.393652  -2.074335   2.349813  -0.001189   0.325193  -0.003656
   9   1   3.427709  -2.346836   3.203706  -0.000656   0.278737  -0.002353
  10   1   2.439602  -2.397031   2.332434  -0.000593   0.232280  -0.002553
  11   2   2.778910   2.667173  -1.627746  -0.000807   0.092912  -0.008686
  12   2   4.888382   6.858279  -0.353952  -0.000281   0.046456  -0.006052
  13   2   5.178945   6.619468  -0.631839  -0.000257   0.046456  -0.005538
  14   3   3.712553   8.804025   4.089159   0.000470   0.232280   0.002024
  15   3   6.822089   7.558817   6.410969  -0.000003   0.371649  -0.000007
  16   3   9.031686   5.504105   4.118715   0.000893   0.418105   0.002135
  17   3   4.049549   4.453297   7.193113   0.000275   0.185824   0.001478
  18   3   8.901873   6.436314   3.695809   0.000416   0.278737   0.001493
  19   3   7.156881   8.144448   5.498089   0.000085   0.418105   0.000203
  20   3   4.287851   9.021362   3.512313   0.000820   0.371649   0.002207
  21   3   4.491874   8.047016   1.178308  -0.000376   0.185824  -0.002021
  22   3   4.503125   5.571896   7.434526   0.000778   0.371649   0.002092
  23   3   4.929589   4.666317   7.434940   0.000569   0.278737   0.002042
  24   3   3.514793   8.154037   1.869924   0.000060   0.278737   0.000214
  25   3   3.199752   8.447647   2.982904   0.000637   0.371649   0.001713
  26   3   4.608797   8.880436   4.999425   0.001105   0.511017   0.002161
  27   3   5.845452   8.377798   5.968426   0.000197   0.418105   0.000472
  28   3   7.760999   7.116626   5.993095   0.000488   0.371649   0.001312
  29   3   8.745431   6.314392   4.903649   0.000891   0.325193   0.002740
  30   3   4.955719   6.716674   7.260176   0.000238   0.325193   0.000731
  31   3   5.865128   7.266266   6.960427   0.000068   0.464561   0.000147
  32   3   6.946199   6.576438   6.910164   0.000036   0.278737   0.000130
  33   3   4.574435   3.803205   7.102466   0.000183   0.185824   0.000987
  34   3   8.302144   7.189954   5.093613   0.000447   0.278737   0.001604
  35   3   5.677795   8.862046   5.151556   0.000169   0.278737   0.000607
  36   3   4.041409   8.644483   2.287512   0.000146   0.232280   0.000628
  37   3   5.782372   5.982734   7.435545   0.000402   0.418105   0.000962
  38   3   2.587191   7.744275   2.523811  -0.000331   0.278737  -0.001188
  39   3   4.827486   7.992701   6.433429   0.000081   0.464561   0.000175
  40   3   8.296279   6.384432   5.773323   0.000191   0.185824   0.001029
  41   4  10.492399   1.177823  -1.802460  -0.001466   0.536887  -0.002731
  42   4   8.252753  -1.227823   0.418071   0.003188   0.439271   0.007258
  43   4  10.405462   1.470023   2.020598   0.003056   0.439271   0.006956
  44   4  10.372286   4.841833  -0.294371   0.003092   0.439271   0.007040
  45   4   8.198755   4.027146  -3.495356   0.003409   0.488079   0.006984
  46   4   6.765440   0.270313  -3.177193   0.002458   0.341655   0.007196
  47   4   9.933169  -0.050323  -1.307022  -0.000411   0.585695  -0.000701
  48   4   9.239674  -0.836461  -0.406054   0.001673   0.488079   0.003427
  49   4  10.878544   1.070129  -0.441404  -0.000397   0.585695  -0.000678
  50   4  10.803402   1.172894   0.930913   0.001771   0.488079   0.003628
  51   4  10.922773   2.501537  -1.419318  -0.000514   0.585695  -0.000878
  52   4  10.774684   3.852910  -1.092539   0.001765   0.536887   0.003287
  53   4  10.075973   2.165632  -2.731946  -0.000658   0.536887  -0.001225
  54   4   9.240705   3.031654  -3.360987   0.001362   0.488079   0.002790
  55   4   9.447966   0.730533  -2.747557  -0.000671   0.683311  -0.000981
  56   4   8.122726   0.323971  -3.151441   0.002062   0.585695   0.003521
  57   4   9.181666  -0.662603   1.162648   0.003212   0.488079   0.006580
  58   4   9.901326   0.277635   1.765604   0.003432   0.488079   0.007032
  59   4  10.826355   2.644076   1.540541   0.003973   0.585695   0.006784
  60   4  10.819407   3.948727   0.655024   0.003889   0.585695   0.006640
  61   4   9.832813   4.994763  -1.583243   0.004022   0.585695   0.006868
  62   4   9.092851   4.630635  -2.741858   0.003825   0.585695   0.006530
  63   4   7.666854   2.903570  -3.887105   0.003615   0.536887   0.006733
  64   4   7.103291   1.412967  -3.766300   0.004074   0.585695   0.006957
  65   4   7.373487  -0.609909  -2.364914   0.003368   0.536887   0.006274
  66   4   7.871424  -1.218228  -0.987806   0.003714   0.585695   0.006342
  67   4   8.003618  -0.900751   1.669514   0.003740   0.439271   0.008514
  68   4   8.578094   0.720738   3.143626   0.002667   0.341655   0.007805
  69   4   9.535036   1.168920   2.818190   0.002875   0.341655   0.008414
  70   4   9.960750   2.434150   2.760859   0.004412   0.488079   0.009040
  71   4  10.027631   5.093382   0.851085   0.003767   0.439271   0.008576
  72   4   9.356607   5.751786  -0.472470   0.004570   0.536887   0.008513
  73   4   8.209210   6.107232  -1.121777   0.002707   0.341655   0.007924
  74   4   6.892587   5.896538  -1.865132   0.002777   0.488079   0.005690
  75   4   7.613189   5.188290  -2.820890   0.004439   0.536887   0.008269
  76   4   6.753915   3.927066  -3.611233   0.003942   0.488079   0.008078
  77   4   5.591127   3.853417  -3.254442   0.002944   0.439271   0.006701
  78   4   4.851322   2.364754  -3.052801   0.003627   0.585695   0.006193
  79   4   5.767753   1.145523  -3.344491   0.004120   0.488079   0.008440
  80   4   5.871062  -0.133351  -2.512322   0.004353   0.488079   0.008918
  81   4   7.094097  -1.367879   0.115136   0.003983   0.488079   0.008161
  82   4  10.194161  -0.055638   0.269868   0.001521   0.585695   0.002597
  83   4  11.170482   2.583768   0.013205   0.001524   0.683311   0.002230
  84   4  10.143532   3.632347  -2.423292   0.001283   0.585695   0.002191
  85   4   8.585622   1.806026  -3.640013   0.001794   0.634503   0.002828
  86   4   8.733070  -0.579040  -1.919263   0.001261   0.536887   0.002348
  87   4   8.720417  -0.111289   2.433879   0.004108   0.488079   0.008417
  88   4  10.291724   3.910467   1.959644   0.004507   0.536887   0.008394
  89   4   8.460997   5.648602  -1.981699   0.003615   0.439271   0.008230
  90   4   6.160308   2.562140  -3.754768   0.004946   0.585695   0.008445
  91   4   6.493251  -1.026275  -1.447152   0.003750   0.439271   0.008536
  92   4   6.310502   4.970644  -2.865342   0.003033   0.439271   0.006904
  93   4   4.920098   1.066185  -2.755069   0.002009   0.292848   0.006860
  94   5  -3.481874   3.557350   4.916774  -0.001722   0.536887  -0.003207
  95   5  -0.929931   6.108457   3.957006   0.002289   0.341655   0.006699
  96   5  -0.280504   3.796401   7.157992   0.003081   0.439271   0.007013
  97   5  -1.779977   0.231724   6.312433   0.003383   0.488079   0.006932
  98   5  -3.183424   0.314205   2.542269   0.003400   0.488079   0.006966
  99   5  -2.329084   4.033868   0.920903   0.003214   0.439271   0.007316
 100   5  -2.878337   4.813421   4.563833  -0.000711   0.585695  -0.001213
 101   5  -1.826728   5.696487   4.405702   0.001523   0.488079   0.003120
 102   5  -2.635619   3.923934   5.995036  -0.000583   0.585695  -0.000995
 103   5  -1.485197   4.055452   6.742494   0.001680   0.488079   0.003442
 104   5  -3.297933   2.350931   5.688111  -0.000687   0.585695  -0.001173
 105   5  -2.812683   1.069725   5.967329   0.001684   0.536887   0.003137
 106   5  -3.876777   2.398524   4.199632  -0.000851   0.536887  -0.001585
 107   5  -3.795436   1.383953   3.301084   0.001274   0.488079   0.002610
 108   5  -3.661232   3.765058   3.464602  -0.001031   0.683311  -0.001509
 109   5  -3.237714   4.008001   2.105821   0.001737   0.585695   0.002966
 110   5  -0.872371   5.691328   5.359774   0.002251   0.390463   0.005764
 111   5  -0.513840   4.920589   6.435180   0.003013   0.439271   0.006859
 112   5  -0.825632   2.667604   7.352967   0.004238   0.634503   0.006680
 113   5  -1.434609   1.280836   7.026340   0.003800   0.585695   0.006488
 114   5  -2.529757  -0.198960   5.105857   0.003942   0.585695   0.006730
 115   5  -3.051958  -0.089995   3.787543   0.003796   0.585695   0.006481
 116   5  -3.293735   1.315805   1.715567   0.003571   0.536887   0.006650
 117   5  -3.013171   2.764706   1.102323   0.003930   0.585695   0.006710
 118   5  -2.080001   5.036104   1.641933   0.004321   0.634503   0.006810
 119   5  -1.588947   5.830756   2.814406   0.002855   0.488079   0.005849
 120   5   0.659916   3.815494   7.085491   0.002124   0.244040   0.008702
 121   5   0.878258   2.774642   7.305825   0.004086   0.488079   0.008372
 122   5   1.483000   1.728426   7.069544   0.002897   0.488079   0.005936
 123   5   0.804712   0.314979   6.748841   0.003078   0.488079   0.006307
 124   5  -0.413153   0.000068   6.624743   0.004697   0.585695   0.008020
 125   5  -1.167587  -0.826375   5.479938   0.005215   0.634503   0.008218
 126   5  -0.443193  -1.418790   4.355378   0.003674   0.585695   0.006273
 127   5  -0.917713  -1.326358   2.725129   0.002682   0.488079   0.005494
 128   5  -2.180063  -0.748532   2.641788   0.004407   0.536887   0.008208
 129   5  -2.428039   0.297956   1.301247   0.003927   0.488079   0.008045
 130   5  -1.460178   0.355967   0.563223   0.002841   0.439271   0.006468
 131   5  -1.070006   1.799766  -0.127677   0.003279   0.536887   0.006107
 132   5  -1.910398   3.013111   0.233245   0.004019   0.488079   0.008234
 133   5  -1.175328   4.452408   0.511506   0.003625   0.439271   0.008252
 134   5  -0.558133   6.106093   2.744490   0.002439   0.292848   0.008330
 135   5  -1.878421   5.025462   5.702068   0.000880   0.488079   0.001802
 136   5  -2.293245   2.534174   6.726025   0.001364   0.683311   0.001997
 137   5  -3.522404   1.014941   4.659202   0.001193   0.585695   0.002037
 138   5  -3.752923   2.497286   2.424821   0.001608   0.634503   0.002534
 139   5  -2.694113   5.151489   3.102011   0.001151   0.585695   0.001966
 140   5   0.068406   1.439041   7.331607   0.004807   0.585695   0.008208
 141   5  -1.816608  -1.075173   3.942866   0.004801   0.585695   0.008198
 142   5  -2.327947   1.575647   0.530870   0.004891   0.585695   0.008351
 143   5  -0.766011   5.644830   1.652130   0.003621   0.439271   0.008243
 144   5   0.297170  -0.868392   5.689734   0.002577   0.488079   0.005280
 145   5  -1.463951  -0.627583   1.537752   0.002966   0.439271   0.006752
 146   5  -0.814520   3.179147  -0.138696   0.002683   0.390463   0.006870
 147   6   4.828743  -1.215179   5.646221  -0.004293   0.412182  -0.010416
 148   6   3.841932   0.350712   6.470120  -0.003501   0.333671  -0.010493
 149   6   6.058319  -0.286891   5.027027  -0.002754   0.235532  -0.011691
 150   6   4.913873  -1.844900   4.316046  -0.003059   0.392554  -0.007794
 151   6   3.213335  -1.481054   5.450227  -0.002716   0.314043  -0.008650
 152   6   4.698541   0.030248   6.318990  -0.003872   0.353299  -0.010959
 153   6   5.485702  -0.328790   5.771352  -0.003677   0.333671  -0.011021
 154   6   5.709510  -1.203634   4.585131  -0.003872   0.392554  -0.009863
 155   6   4.038865  -1.878357   4.969049  -0.003132   0.392554  -0.007979
 156   6   3.654471  -0.836181   6.131200  -0.003543   0.431809  -0.008204
 157   7   2.098643  -1.736065  -0.671317  -0.005047   0.471065  -0.010713
 158   7   1.237228   0.074654  -1.065881  -0.003600   0.392554  -0.009171
 159   7   1.090625  -1.765394   0.369977  -0.003677   0.372926  -0.009860
 160   7   2.842014  -2.392386   0.605601  -0.002546   0.333671  -0.007629
 161   7   2.204650  -0.148009  -1.472340  -0.004934   0.490692  -0.010054
 162   7   1.096650  -1.036636  -0.625076  -0.004261   0.451437  -0.009438
 163   7   1.912395  -2.282374   0.620763  -0.003035   0.372926  -0.008139
 164   7   3.506862  -2.037719  -0.078151  -0.004241   0.471065  -0.009003
 165   7   2.978879  -1.230650  -1.147235  -0.004440   0.431809  -0.010283
 166   8   2.347487   5.885741  -1.649372  -0.004438   0.451437  -0.009831
 167   8   3.683457   6.855417  -0.866705  -0.002492   0.333671  -0.007469
 168   8   1.876311   6.533530   0.070951  -0.002578   0.294415  -0.008757
 169   8   2.396611   4.014789  -1.970216  -0.003863   0.431809  -0.008947
 170   8   3.684821   6.179585  -1.732814  -0.004466   0.471065  -0.009481
 171   8   2.624185   6.819961  -0.621256  -0.003839   0.451437  -0.008504
 172   8   1.597590   5.852891  -0.919004  -0.003617   0.353299  -0.010239
 173   8   1.676348   4.667884  -1.546680  -0.003959   0.392554  -0.010084
 174   8   3.060459   5.095533  -2.219014  -0.003835   0.431809  -0.008880
 175   9   7.380078   9.072336   2.266297  -0.003909   0.510320  -0.007660
 176   9   5.619851   9.392156   2.873185  -0.001330   0.333671  -0.003985
 177   9   5.928733   8.525041   1.105732  -0.002241   0.392554  -0.005709
 178   9   8.587622   7.784681   3.142088  -0.001796   0.392554  -0.004574
 179   9   7.207931   9.015675   4.099201  -0.001778   0.412182  -0.004314
 180   9   5.944400   9.182739   1.892506  -0.002422   0.431809  -0.005608
 181   9   7.180619   8.364552   1.184159  -0.003383   0.471065  -0.007182
 182   9   8.243791   8.098702   2.061626  -0.002940   0.431809  -0.006807
 183   9   8.039369   8.637684   3.518415  -0.002745   0.471065  -0.005826
 184   9   6.566471   9.444625   3.300547  -0.002829   0.471065  -0.006005
 185  10   8.097332   3.664086   6.769733  -0.003428   0.471065  -0.007278
 186  10   6.060397   3.341745   7.243636  -0.001691   0.333671  -0.005068
 187  10   6.982976   4.586731   7.462983  -0.001834   0.392554  -0.004672
 188  10   8.663148   4.839149   6.112361  -0.001729   0.372926  -0.004637
 189  10   7.210676   2.668681   6.656745  -0.003663   0.451437  -0.008114
 190  10   6.873627   3.669319   7.380042  -0.001959   0.333671  -0.005871
 191  10   7.927179   4.974116   6.967920  -0.002074   0.412182  -0.005033
 192  10   8.858858   3.986608   5.554112  -0.002376   0.451437  -0.005264
 193  10   8.161895   2.762100   5.816143  -0.003383   0.431809  -0.007835
 194  11   1.888800   7.350182   5.879792  -0.003082   0.392554  -0.007851
 195  11   3.006944   6.019128   7.117557  -0.001661   0.314043  -0.005290
 196  11   2.561495   8.215077   5.030169  -0.001254   0.294415  -0.004260
 197  11   3.294614   7.385588   6.743393  -0.001514   0.353299  -0.004287
 198  11   1.820332   7.697060   4.573585  -0.002570   0.431809  -0.005953
 199  11   2.879547   8.014315   5.953991  -0.001802   0.353299  -0.005101
 200  11   2.400326   6.734191   6.751630  -0.002763   0.392554  -0.007038
 201   1   2.389927   1.537728  -1.271086  -0.000392   0.022979  -0.017043
 202   2   2.657622   1.940145  -1.378129  -0.000366   0.022979  -0.015909
 203   7   2.377183   1.240973  -1.292110  -0.000338   0.022979  -0.014711
 204   1   2.043266   2.365363  -1.160801  -0.000413   0.026634  -0.015519
 205   2   2.278083   2.759770  -1.346432  -0.000330   0.026634  -0.012374
 206   8   2.222521   3.047360  -1.404139  -0.000328   0.026634  -0.012315
 207   2   2.558889   2.395690  -1.460299  -0.000733   0.101807  -0.007195
 208   1   2.101214   1.896303  -1.215263  -0.000876   0.101807  -0.008600
 209   1   5.973391  -1.044142   2.880291  -0.000550   0.061556  -0.008937
 210   4   6.675994  -0.768396   2.420711  -0.000076   0.061556  -0.001238
 211   6   5.941291  -1.026747   3.178104  -0.000557   0.061556  -0.009050
 212   1   4.853354  -1.508973   0.667178  -0.000560   0.073159  -0.007659
 213   4   5.582123  -1.237524   0.245933  -0.000031   0.073159  -0.000426
 214   7   4.641906  -1.541173   0.456768  -0.000720   0.073159  -0.009844
 215   4   6.942767  -1.060846   1.745387   0.001636   0.347686   0.004706
 216   4   6.299020  -1.335764   0.520275   0.001459   0.347686   0.004195
 217   1   5.541572  -1.423813   1.750574  -0.002388   0.686571  -0.003478
 218   1   2.002399  -1.102672   5.176835  -0.000354   0.035272  -0.010050
 219   5   1.477658  -0.897854   5.345219  -0.000205   0.035272  -0.005816
 220   6   2.275640  -1.092473   5.298329  -0.000487   0.035272  -0.013807
 221   1   0.673515   1.114791  -0.515316  -0.000356   0.035961  -0.009895
 222   5   0.160052   1.291864  -0.290169  -0.000220   0.035961  -0.006121
 223   7   0.777307   0.844763  -0.587432  -0.000386   0.035961  -0.010731
 224   1   0.619622  -1.512560   1.741109  -0.000406   0.035961  -0.011289
 225   5   0.106791  -1.304624   1.939749  -0.000235   0.035961  -0.006531
 226   7   0.728275  -1.545575   1.465440  -0.000386   0.035961  -0.010728
 227   1   1.082184   2.572269  -0.609773  -0.001222   0.125807  -0.009712
 228   5   0.561962   2.749166  -0.390900  -0.000720   0.125807  -0.005719
 229   8   1.352858   3.238576  -0.815451  -0.001533   0.125807  -0.012188
 230   5   0.010359   2.107667  -0.341960  -0.000143   0.213386  -0.000668
 231   1   0.711940   1.651108  -0.574956  -0.001021   0.210631  -0.004846
 232   5  -0.098026  -1.430187   2.597497  -0.000040   0.246249  -0.000164
 233   5   0.596375  -1.295287   4.392084  -0.000664   0.495756  -0.001340
 234   1   0.916474  -1.656032   3.017635  -0.002567   0.492670  -0.005211
 235   1   1.646325  -1.365349   4.767528  -0.001063   0.243071  -0.004372
 236   6   2.729290  -1.429758   5.167724  -0.000620   0.066854  -0.009270
 237   6   3.411168  -1.923285   4.471454  -0.001421   0.148179  -0.009586
 238   6   4.553502  -1.929286   3.806833  -0.001402   0.148179  -0.009458
 239   6   5.499631  -1.444311   3.555915  -0.000678   0.066854  -0.010141
 240   1   2.644831  -1.672374   4.638252  -0.001401   0.146722  -0.009551
 241   1   3.749617  -2.094938   3.740675  -0.001278   0.146722  -0.008708
 242   1   5.079180  -1.685162   3.221926  -0.001394   0.146722  -0.009501
 243   7   1.224649   0.729632  -0.933331  -0.000553   0.065594  -0.008437
 244   7   1.974884   0.904776  -1.258900  -0.000706   0.065594  -0.010770
 245   1   1.559365   1.204936  -0.980631  -0.001585   0.144277  -0.010988
 246   7   4.073442  -1.954575   0.690722  -0.000752   0.073855  -0.010176
 247   7   3.054444  -2.302062   1.226520  -0.001724   0.167771  -0.010275
 248   7   1.632028  -2.074668   1.366002  -0.001821   0.167771  -0.010852
 249   1   3.906212  -2.077623   1.272169  -0.001604   0.158323  -0.010130
 250   1   2.379211  -2.268007   1.792969  -0.001546   0.158323  -0.009762
 251   1   1.122146  -1.847878   1.729065  -0.000805   0.090230  -0.008923
 252   8   1.965702   3.311242  -1.371819  -0.001397   0.142502  -0.009805
 253   1   1.516786   2.363025  -0.983858  -0.001212   0.200972  -0.006033
 254   2   4.468567   7.113300   0.077287  -0.000280   0.023888  -0.011721
 255   3   4.604254   7.377463   0.472384  -0.000211   0.023888  -0.008818
 256   8   4.235892   7.044265  -0.096382  -0.000377   0.023888  -0.015794
 257   2   4.914303   7.308590   0.368158  -0.000214   0.025634  -0.008339
 258   3   5.046959   7.640048   0.710025  -0.000185   0.025634  -0.007212
 259   9   5.285666   7.799601   0.799420  -0.000232   0.025634  -0.009046
 260   3   4.866926   7.608093   0.642407  -0.000081   0.026761  -0.003021
 261   2   4.642073   7.183931   0.120142  -0.000147   0.026761  -0.005506
 262   2   3.299505   1.923080  -1.618418  -0.001226   0.130008  -0.009432
 263   4   3.797522   1.726642  -1.881701  -0.000650   0.130008  -0.004997
 264   7   3.023053   1.233857  -1.454225  -0.001500   0.130008  -0.011538
 265   2   3.477852   3.073038  -2.014681  -0.000380   0.038258  -0.009923
 266   4   3.978833   2.881382  -2.267194  -0.000232   0.038258  -0.006059
 267   8   3.350827   3.342999  -2.032532  -0.000411   0.038258  -0.010747
 268   2   5.223192   6.132146  -1.173854  -0.000411   0.038258  -0.010744
 269   4   5.704002   5.905135  -1.436084  -0.000219   0.038258  -0.005712
 270   8   4.939321   6.127198  -1.267266  -0.000410   0.038258  -0.010713
 271   2   6.012618   6.660993  -0.204794  -0.000892   0.126165  -0.007073
 272   4   6.496187   6.433630  -0.469002  -0.000406   0.126165  -0.003217
 273   9   6.301872   7.124993   0.313668  -0.000846   0.126165  -0.006704
 274   4   6.270551   6.069142  -1.332115  -0.000008   0.182224  -0.000043
 275   2   5.685708   6.403220  -0.784543  -0.000862   0.179864  -0.004790
 276   4   4.103819   2.219282  -2.339613  -0.000114   0.153471  -0.000743
 277   2   3.455494   2.648410  -1.966339  -0.000766   0.151483  -0.005057
 278   7   2.433084   1.030148  -1.382135  -0.000515   0.055961  -0.009206
 279   2   2.893610   2.039604  -1.593810  -0.000281   0.078897  -0.003561
 280   8   4.279498   6.715431  -0.723893  -0.001158   0.115089  -0.010066
 281   2   4.756999   6.593856  -0.692457  -0.001372   0.140607  -0.009758
 282   8   2.732857   3.455189  -1.850343  -0.000796   0.085326  -0.009323
 283   2   2.718916   3.025471  -1.671661  -0.001028   0.104244  -0.009860
 284   9   5.914214   7.738935   0.660681  -0.001244   0.197849  -0.006288
 285   2   5.246610   7.099578   0.005349  -0.001156   0.278754  -0.004147
 286   3   8.812048   6.218612   2.557060   0.000012   0.071326   0.000170
 287   4   9.090320   5.681010   1.892391   0.000424   0.071326   0.005947
 288   9   8.727923   6.494876   2.466793  -0.000182   0.071326  -0.002550
 289   3   8.975237   4.444480   3.983869  -0.000007   0.073300  -0.000101
 290   4   9.252967   3.937102   3.295470   0.000449   0.073300   0.006129
 291  10   8.931723   4.277099   4.233865  -0.000191   0.073300  -0.002606
 292   4   9.562557   4.780980   2.184255   0.003520   0.624256   0.005639
 293   3   9.067786   5.169592   3.376582   0.000841   0.614173   0.001369
 294   3   3.797286   2.705811   6.377041  -0.001442   0.235174  -0.006131
 295   5   2.862492   2.159678   6.389214  -0.001103   0.235174  -0.004692
 296   6   3.568434   1.744026   6.247837  -0.002515   0.235174  -0.010694
 297   3   1.938632   6.591683   2.006022  -0.001581   0.222892  -0.007093
 298   5   1.013665   6.031126   1.983199  -0.000232   0.222892  -0.001041
 299   8   1.756244   6.296308   1.326014  -0.002194   0.222892  -0.009843
 300   3   3.054142   4.554450   6.813375  -0.000286   0.088425  -0.003238
 301   5   2.123357   4.025708   6.710080   0.000315   0.088425   0.003562
 302  11   2.815334   4.742575   6.791877  -0.000360   0.088425  -0.004073
 303   3   1.791125   6.985037   3.145731  -0.000509   0.088425  -0.005756
 304   5   0.892803   6.393822   3.136703   0.000176   0.088425   0.001985
 305  11   1.653302   6.978822   3.417482  -0.000453   0.088425  -0.005119
 306   5   2.268662   2.872964   6.825020   0.001335   0.554558   0.002407
 307   3   3.451859   3.900952   6.894765  -0.000093   0.544379  -0.000171
 308   5   0.453472   6.305630   2.631503   0.001245   0.256289   0.004856
 309   3   1.828157   7.005093   2.545690  -0.000288   0.251575  -0.001146
 310   3   4.909516   2.792896   6.558312  -0.000446   0.086548  -0.005158
 311   6   4.647572   1.880015   6.282077  -0.000962   0.086548  -0.011110
 312  10   5.209131   2.753531   6.599315  -0.000530   0.086548  -0.006118
 313   6   4.175861   1.416140   6.383884  -0.001026   0.125852  -0.008155
 314   3   4.446528   2.819965   6.692233  -0.000129   0.178576  -0.000721
 315   8   2.230243   6.732742   0.798548  -0.001809   0.184069  -0.009829
 316   8   3.355332   7.056548   0.153768  -0.003919   0.375216  -0.010446
 317   3   2.980834   7.416658   1.477598  -0.002266   0.505996  -0.004479
 318   3   4.294473   7.660721   0.752513  -0.000710   0.259323  -0.002739
 319   9   5.305222   8.242414   1.115017  -0.000337   0.070410  -0.004785
 320   9   5.008427   8.826594   2.048588  -0.000819   0.157428  -0.005205
 321   9   5.312275   9.206775   3.336778  -0.000761   0.157428  -0.004832
 322   9   6.279721   9.050975   4.304284  -0.000799   0.157428  -0.005077
 323   9   7.487076   8.427426   4.527392  -0.000833   0.157428  -0.005293
 324   9   8.405582   7.609209   3.908391  -0.000658   0.157428  -0.004178
 325   9   8.709314   7.022543   2.978618  -0.000331   0.070410  -0.004707
 326   3   4.796515   8.274195   1.437447  -0.000777   0.153273  -0.005069
 327   3   4.684062   8.946549   2.825725  -0.000548   0.153273  -0.003574
 328   3   5.440591   9.080074   4.168057  -0.000510   0.153273  -0.003330
 329   3   6.734783   8.616295   4.876575  -0.000657   0.153273  -0.004288
 330   3   7.999852   7.758321   4.640985  -0.000535   0.153273  -0.003492
 331   3   8.681766   6.881899   3.564463  -0.000468   0.153273  -0.003054
 332  10   8.921906   4.642941   4.856369  -0.000272   0.067433  -0.004030
 333  10   8.622927   5.335415   5.645013  -0.000687   0.149135  -0.004609
 334  10   7.805650   5.656269   6.631443  -0.000765   0.149135  -0.005127
 335  10   6.742655   5.247279   7.299801  -0.000787   0.149135  -0.005278
 336  10   5.857095   4.271254   7.384029  -0.000612   0.149135  -0.004103
 337  10   5.471325   3.315320   7.025921  -0.000361   0.067433  -0.005349
 338   3   8.835211   5.227845   4.854936  -0.000459   0.148360  -0.003097
 339   3   8.205619   5.964191   5.978707  -0.000534   0.148360  -0.003596
 340   3   7.092497   5.912014   6.958343  -0.000629   0.148360  -0.004238
 341   3   5.938951   5.092084   7.403874  -0.000486   0.148360  -0.003279
 342   3   5.204181   3.830796   7.137946  -0.000514   0.148360  -0.003466
 343  11   3.243562   5.275488   7.049874  -0.000376   0.070101  -0.005369
 344  11   3.670958   6.323007   7.110322  -0.000839   0.156391  -0.005366
 345  11   3.801421   7.563490   6.547460  -0.000865   0.156391  -0.005532
 346  11   3.423852   8.290094   5.451047  -0.000759   0.156391  -0.004854
 347  11   2.700931   8.189755   4.293485  -0.000828   0.156391  -0.005297
 348  11   2.058408   7.556232   3.608335  -0.000463   0.070101  -0.006604
 349   3   3.795830   5.486724   7.162589  -0.000608   0.152937  -0.003974
 350   3   4.219581   6.949497   6.954704  -0.000669   0.152937  -0.004376
 351   3   4.072668   8.118996   5.968210  -0.000633   0.152937  -0.004139
 352   3   3.418390   8.491332   4.628146  -0.000474   0.152937  -0.003096
 353   3   2.538649   7.906080   3.511892  -0.000676   0.152937  -0.004419
 354   4   7.437731   1.208138   3.850748  -0.000682   0.312294  -0.002185
 355   6   6.603919   0.865442   4.478528  -0.003175   0.312294  -0.010167
 356  10   7.186936   1.764277   4.718512  -0.002254   0.312294  -0.007216
 357   6   6.130895  -0.908072   3.642129  -0.002030   0.288766  -0.007028
 358   6   6.448480  -0.050528   4.351573  -0.002428   0.288766  -0.008408
 359   4   7.467836  -0.092210   3.001554   0.001866   0.834490   0.002236
 360   7   2.920793   0.589709  -1.567790  -0.001772   0.225236  -0.007868
 361   7   3.538636  -0.488415  -1.355044  -0.004037   0.454094  -0.008890
 362   7   4.243140  -1.416500  -0.360675  -0.003660   0.454094  -0.008059
 363   4   4.349013   0.779068  -2.166988   0.001212   0.646869   0.001874
 364   4   5.235893  -0.626091  -1.506176   0.002709   0.646869   0.004188
 365   4   5.835636  -1.297656  -0.363927   0.001481   0.327904   0.004516
 366   8   4.646315   5.978924  -1.579231  -0.001702   0.196188  -0.008675
 367   8   4.036387   4.940003  -2.169776  -0.004141   0.398958  -0.010381
 368   8   3.384567   3.767422  -2.187085  -0.001751   0.196188  -0.008926
 369   4   5.503997   5.234342  -2.219562  -0.000043   0.553531  -0.000078
 370   4   4.593470   3.638434  -2.658214   0.000024   0.553531   0.000044
 371   9   8.692828   6.879936   2.170392  -0.000507   0.250010  -0.002028
 372   9   7.932272   7.370686   1.189929  -0.002369   0.504048  -0.004701
 373   9   6.777863   7.543806   0.543432  -0.001026   0.250010  -0.004103
 374   4   9.049187   6.011251   0.828674   0.003429   0.721777   0.004751
 375   4   7.658017   6.493534  -0.353268   0.002130   0.721777   0.002951
 376  10   7.918627   2.252380   4.985710  -0.001344   0.266992  -0.005033
 377  10   8.731007   3.389774   4.693024  -0.002297   0.539433  -0.004258
 378   4   8.763970   1.924996   3.628552   0.003274   0.768104   0.004263
 379   4   9.572539   3.310183   3.243413   0.002147   0.390236   0.005501
 380   6   3.342634   0.911962   6.389670  -0.002193   0.227309  -0.009646
 381   6   2.738715  -0.406695   5.943282  -0.005259   0.465057  -0.011307
 382   5   2.008808   0.863794   6.520023  -0.000515   0.637873  -0.000807
 383   5   1.356219  -0.603962   5.848091   0.000007   0.327967   0.000021
 384   7   0.658055  -1.477179   1.043102  -0.001744   0.187021  -0.009324
 385   7   0.466657  -0.633136   0.102963  -0.004030   0.379497  -0.010618
 386   7   0.696945   0.418717  -0.585134  -0.001585   0.187021  -0.008473
 387   5  -0.437926  -0.810711   1.259723  -0.000237   0.528787  -0.000448
 388   5  -0.409846   0.558200   0.084073  -0.000143   0.528787  -0.000271
 389   8   1.303589   3.833350  -1.043975  -0.001676   0.212578  -0.007885
 390   8   1.046932   4.898751  -0.592206  -0.003752   0.427959  -0.008767
 391   8   1.293600   5.950665   0.366929  -0.003394   0.427959  -0.007931
 392   5  -0.033580   3.631336  -0.253127   0.000904   0.612204   0.001476
 393   5  -0.147621   5.081204   0.603024   0.002246   0.612204   0.003669
 394   5   0.274883   5.918945   1.598815   0.001145   0.309819   0.003695
 395  11   1.449973   7.103040   3.839268  -0.000869   0.231636  -0.003750
 396  11   1.283219   6.864820   5.110610  -0.002710   0.467490  -0.005797
 397  11   1.719616   6.025005   6.377852  -0.002855   0.467490  -0.006107
 398  11   2.492875   5.096049   6.867726  -0.000791   0.231636  -0.003415
 399   5   0.110739   6.333849   3.984138   0.003642   0.663825   0.005487
 400   5   0.168232   5.722146   5.724352   0.003693   0.663825   0.005563
 401   5   1.068119   4.491438   6.764251   0.003738   0.663825   0.005630
 402  10   5.559979   2.523330   6.760297  -0.000537   0.242904  -0.002209
 403  10   6.444702   2.073285   6.319250  -0.002230   0.485630  -0.004592
 404  10   7.149389   1.829596   5.529420  -0.000962   0.242904  -0.003961
 405   6   5.087124   1.063230   6.282048  -0.003273   0.485630  -0.006739
 406   6   6.079066   0.630274   5.513865  -0.003460   0.485630  -0.007125
 =====================================================

              1609266  WORDS OF DYNAMIC MEMORY USED
 EXECUTION OF GAMESS TERMINATED NORMALLY Tue Nov 22 19:00:21 2016
 DDI: 263640 bytes (0.3 MB / 0 MWords) used by master data server.

 ----------------------------------------
 CPU timing information for all processes
 ========================================
 0: 298.376 + 0.116 = 298.492
 ----------------------------------------
 ddikick.x: exited gracefully.
