----- GAMESS execution script -----

          ******************************************************
          *         GAMESS VERSION =  5 DEC 2014 (R1)          *
          *             FROM IOWA STATE UNIVERSITY             *
          * M.W.SCHMIDT, K.K.BALDRIDGE, J.A.BOATZ, S.T.ELBERT, *
          *   M.S.GORDON, J.H.JENSEN, S.KOSEKI, N.MATSUNAGA,   *
          *          K.A.NGUYEN, S.J.SU, T.L.WINDUS,           *
          *       TOGETHER WITH M.DUPUIS, J.A.MONTGOMERY       *
          *         J.COMPUT.CHEM.  14, 1347-1363(1993)        *
          **************** 64 BIT LINUX VERSION ****************

 EXECUTION OF GAMESS BEGUN Tue Nov 22 18:53:36 2016

            ECHO OF THE FIRST FEW INPUT CARDS -
 INPUT CARD>! SELECT RESTRICTED HARTREE-FOCK AS DEFAULT                                     
 INPUT CARD>$contrl scftyp=rhf $end                                                         
 INPUT CARD>                                                                                
 INPUT CARD>! THEORY: HF OR DFT                                                             
 INPUT CARD> $contrl mplevl=0 $end                                                          
 INPUT CARD>                                                                                
 INPUT CARD> $system timlim=10000 mwords=20 $end                                            
 INPUT CARD> $SCF DIRSCF=.TRUE. $end                                                        
 INPUT CARD>                                                                                
 INPUT CARD>                                                                                
 INPUT CARD>! BASIS SETS                                                                    
 INPUT CARD>! 6-311G(d,p)                                                                   
 INPUT CARD> $BASIS GBASIS=N311 NGAUSS=6 NDFUNC=1 NPFUNC=1 $END                             
 INPUT CARD>                                                                                
 INPUT CARD>! One of the following                                                          
 INPUT CARD> $guess guess=HUCKEL $end                                                       
 INPUT CARD>                                                                                
 INPUT CARD> $statpt projct=.FALSE. $end                                                    
 INPUT CARD> $STATPT IFREEZ(1)=1,2,3 $END                                                   
 INPUT CARD>                                                                                
 INPUT CARD>! Optimize the geometry with COSMO effects                                      
 INPUT CARD> $statpt opttol=0.0005 nstep=50 $end                                            
 INPUT CARD> $contrl nzvar=1 $end                                                           
 INPUT CARD> $zmat dlc=.t. auto=.t. $end                                                    
 INPUT CARD> $contrl runtyp=OPTIMIZE maxit=200 $end                                         
 INPUT CARD>                                                                                
 INPUT CARD>! Run COSMO on perfect conductor                                                
 INPUT CARD> $COSGMS PRFCND=.TRUE. $end                                                     
 INPUT CARD>                                                                                
 INPUT CARD>! Specifying RSOLV                                                              
 INPUT CARD> $COSGMS COSRAD = 1.4 $end                                                      
 INPUT CARD>                                                                                
 INPUT CARD>! available memory                                                              
 INPUT CARD> $SYSTEM MWORDS=40 $END                                                         
 INPUT CARD>                                                                                
 INPUT CARD> $DATA                                                                          
 INPUT CARD>Ethane, 1,2-dichloro-, ID: C107062                                              
 INPUT CARD>C1                                                                              
 INPUT CARD>C      6.0      2.3785000000    0.7551000000    0.8326000000                    
 INPUT CARD>C      6.0      1.5134000000    1.8542000000    1.3880000000                    
 INPUT CARD>Cl    17.0      0.0000000000    1.1383000000    1.9817000000                    
 INPUT CARD>Cl    17.0      3.8896000000    1.4714000000    0.2337000000                    
 INPUT CARD>H      1.0      1.8822000000    0.2254000000    0.0000000000                    
 INPUT CARD>H      1.0      2.6233000000    0.0000000000    1.6007000000                    
 INPUT CARD>H      1.0      1.2715000000    2.6111000000    0.6209000000                    
 INPUT CARD>H      1.0      2.0083000000    2.3814000000    2.2230000000                    
 INPUT CARD> $END                                                                           
 INPUT CARD>                                                                                
 INPUT CARD>                                                                                
   40000000 WORDS OF MEMORY AVAILABLE

     BASIS OPTIONS
     -------------
     GBASIS=N311         IGAUSS=       6      POLAR=POPN311 
     NDFUNC=       1     NFFUNC=       0     DIFFSP=       F
     NPFUNC=       1      DIFFS=       F     BASNAM=        


     RUN TITLE
     ---------
 Ethane, 1,2-dichloro-, ID: C107062                                              

 THE POINT GROUP OF THE MOLECULE IS C1      
 THE ORDER OF THE PRINCIPAL AXIS IS     0

 ATOM      ATOMIC                      COORDINATES (BOHR)
           CHARGE         X                   Y                   Z
 C           6.0     4.4947132618        1.4269320933        1.5733858574
 C           6.0     2.8599113098        3.5039299264        2.6229396710
 CL         17.0     0.0000000000        2.1510750918        3.7448699899
 CL         17.0     7.3502782018        2.7805428183        0.4416289633
 H           1.0     3.5568422541        0.4259442376        0.0000000000
 H           1.0     4.9573181836        0.0000000000        3.0248843885
 H           1.0     2.4027865934        4.9342635265        1.1733308658
 H           1.0     3.7951367011        4.5001934672        4.2008608707

          INTERNUCLEAR DISTANCES (ANGS.)




     $CONTRL OPTIONS
     ---------------
 SCFTYP=RHF          RUNTYP=OPTIMIZE     EXETYP=RUN     
 MPLEVL=       0     CITYP =NONE         CCTYP =NONE         VBTYP =NONE    
 DFTTYP=NONE         TDDFT =NONE    
 MULT  =       1     ICHARG=       0     NZVAR =       1     COORD =UNIQUE  
 PP    =NONE         RELWFN=NONE         LOCAL =NONE         NUMGRD=       F
 ISPHER=      -1     NOSYM =       0     MAXIT =     200     UNITS =ANGS    
 PLTORB=       F     MOLPLT=       F     AIMPAC=       F     FRIEND=        
 NPRINT=       7     IREST =       0     GEOM  =INPUT   
 NORMF =       0     NORMP =       0     ITOL  =      20     ICUT  =       9
 INTTYP=BEST         GRDTYP=BEST         QMTTOL= 1.0E-06

     $SYSTEM OPTIONS
     ---------------
  REPLICATED MEMORY=    40000000 WORDS (ON EVERY NODE).
 DISTRIBUTED MEMDDI=           0 MILLION WORDS IN AGGREGATE,
 MEMDDI DISTRIBUTED OVER   1 PROCESSORS IS           0 WORDS/PROCESSOR.
 TOTAL MEMORY REQUESTED ON EACH PROCESSOR=    40000000 WORDS.
 TIMLIM=       10000.00 MINUTES, OR       6.9 DAYS.
 PARALL= F  BALTYP=  DLB     KDIAG=    0  COREFL= F
 MXSEQ2=     300 MXSEQ3=     150  mem10=         0

     $COSGMS OPTIONS
     ---------------
     EPSI  =   INFTY     NSPA  =      92     COSRAD=    1.40
     DISEX =   10.00     OUTCHG=DBLCAV       COSBUG=       F
     COSWRT=       F     DCOSMO=       F

     SYMMETRY COORDINATES WILL NOT BE USED FOR 
     THE COSMO CALCULATION, EVEN IF SPECIFIED:
         -- SWITCHING TO C1 POINT GROUP --


     DEFINITION OF CAVITY
     ---------------------------
     ATOM         COORDINATES           RADIUS 
     1    4.4947    1.4269    1.5734    2.0000
     2    2.8599    3.5039    2.6229    2.0000
     3    0.0000    2.1511    3.7449    2.0500
     4    7.3503    2.7805    0.4416    2.0500
     5    3.5568    0.4259    0.0000    1.3000
     6    4.9573    0.0000    3.0249    1.3000
     7    2.4028    4.9343    1.1733    1.3000
     8    3.7951    4.5002    4.2009    1.3000

          ----------------
          PROPERTIES INPUT
          ----------------

     MOMENTS            FIELD           POTENTIAL          DENSITY
 IEMOM =       1   IEFLD =       0   IEPOT =       0   IEDEN =       0
 WHERE =COMASS     WHERE =NUCLEI     WHERE =NUCLEI     WHERE =NUCLEI  
 OUTPUT=BOTH       OUTPUT=BOTH       OUTPUT=BOTH       OUTPUT=BOTH    
 IEMINT=       0   IEFINT=       0                     IEDINT=       0
                                                       MORB  =       0
          EXTRAPOLATION IN EFFECT
          SOSCF IN EFFECT
 ORBITAL PRINTING OPTION: NPREO=     1   116     2     1

     -------------------------------
     INTEGRAL TRANSFORMATION OPTIONS
     -------------------------------
     NWORD  =            0
     CUTOFF = 1.0E-09     MPTRAN =       0
     DIRTRF =       T     AOINTS =DUP     

          ----------------------
          INTEGRAL INPUT OPTIONS
          ----------------------
 NOPK  =       1 NORDER=       0 SCHWRZ=       T


 -----------------------------------------------
  STATISTICS ON AUTOMATIC COORDINATE GENERATION 
 -----------------------------------------------
  NUMBER OF USER SPECIFIED BONDS                             0
  NUMBER OF BONDS                                            7
  NUMBER OF ANGLES                                          12
  NUMBER OF TORSIONS                                         9
  NUMBER OF EXTRA COORD.                                     0
  NUMBER OF EXTRA COORD. FOR CONSTRAINTS                     0
  NUMBER OF CONSTRAINED COORD.                               0

  TOTAL NUMBER OF PRIMITIVES                                28
 -----------------------------------------------

   --- ENCODED Z MATRIX ---
 COORD  TYPE   I   J   K   L   M   N
    1      1    1   2
    2      1    1   4
    3      1    1   5
    4      1    1   6
    5      1    2   7
    6      1    2   8
    7      1    2   3
    8      2    1   2   8
    9      2    1   2   3
   10      2    1   2   7
   11      2    2   1   6
   12      2    2   1   5
   13      2    2   1   4
   14      2    3   2   8
   15      2    3   2   7
   16      2    4   1   5
   17      2    4   1   6
   18      2    5   1   6
   19      2    7   2   8
   20      3    3   2   1   6
   21      3    3   2   1   5
   22      3    3   2   1   4
   23      3    4   1   2   7
   24      3    4   1   2   8
   25      3    5   1   2   7
   26      3    5   1   2   8
   27      3    6   1   2   8
   28      3    6   1   2   7

          INDEP./SYM. INTERNAL COORDINATES
          --------------------------------
 CRD  1=  -0.1936 (  8)  0.5798 (  9) -0.1945 ( 10)  0.1936 ( 11)  0.1946 ( 12)
          -0.5796 ( 13) -0.1573 ( 14) -0.1572 ( 15)  0.1571 ( 16)  0.1572 ( 17)
          -0.1099 ( 18)  0.1099 ( 19)  0.1278 ( 26) -0.1278 ( 28)
 CRD  2=  -0.5343 (  1) -0.4193 (  9) -0.4195 ( 13)  0.2681 ( 14)  0.2684 ( 15)
           0.2685 ( 16)  0.2682 ( 17)  0.1077 ( 18)  0.1078 ( 19)
 CRD  3=   0.4630 (  8) -0.4605 ( 10)  0.4629 ( 11) -0.4605 ( 12) -0.1350 ( 14)
           0.1342 ( 15)  0.1342 ( 16) -0.1350 ( 17) -0.1679 ( 22)
 CRD  4=  -0.3809 (  1)  0.1217 (  2) -0.1232 (  3) -0.1224 (  4) -0.1231 (  5)
          -0.1225 (  6)  0.1217 (  7) -0.2791 (  8)  0.3620 (  9) -0.2819 ( 10)
          -0.2789 ( 11) -0.2821 ( 12)  0.3620 ( 13)  0.2988 ( 18)  0.2987 ( 19)
 CRD  5=   0.1472 (  3) -0.1476 (  4) -0.1473 (  5)  0.1476 (  6)  0.4069 (  8)
          -0.4068 ( 10) -0.4070 ( 11)  0.4067 ( 12) -0.2446 ( 14)  0.2451 ( 15)
          -0.2451 ( 16)  0.2447 ( 17)
 CRD  6=  -0.1851 (  3)  0.1848 (  4) -0.1851 (  5)  0.1849 (  6)  0.2431 ( 14)
          -0.2432 ( 15) -0.2432 ( 16)  0.2429 ( 17) -0.2787 ( 20) -0.2786 ( 21)
          -0.5576 ( 22) -0.2785 ( 23) -0.2786 ( 24)
 CRD  7=  -0.3308 (  2) -0.2697 (  3) -0.2698 (  4)  0.2697 (  5)  0.2696 (  6)
           0.3306 (  7) -0.2382 (  8) -0.2382 ( 10)  0.2383 ( 11)  0.2382 ( 12)
           0.1851 ( 14)  0.1850 ( 15) -0.1850 ( 16) -0.1853 ( 17) -0.2271 ( 18)
           0.2270 ( 19)
 CRD  8=   0.2567 (  1)  0.4182 (  2)  0.3398 (  3)  0.3395 (  4)  0.3396 (  5)
           0.3401 (  6)  0.4183 (  7) -0.1216 (  8) -0.1217 ( 10) -0.1216 ( 11)
          -0.1216 ( 12)  0.1209 ( 18)  0.1210 ( 19)
 CRD  9=   0.3815 (  3) -0.3819 (  4) -0.3818 (  5)  0.3814 (  6)  0.1982 ( 14)
          -0.1983 ( 15)  0.1982 ( 16) -0.1984 ( 17) -0.2547 ( 20) -0.2546 ( 21)
           0.2546 ( 23)  0.2547 ( 24)
 CRD 10=  -0.4506 (  2)  0.2613 (  3)  0.2610 (  4)  0.2609 (  5)  0.2607 (  6)
          -0.4502 (  7) -0.1012 ( 14) -0.1012 ( 15) -0.1013 ( 16) -0.1014 ( 17)
           0.2273 ( 18)  0.2270 ( 19) -0.1178 ( 20)  0.1177 ( 21)  0.1175 ( 23)
          -0.1176 ( 24)  0.2352 ( 25) -0.2353 ( 27)
 CRD 11=   0.4243 (  2) -0.2542 (  3) -0.2543 (  4)  0.2545 (  5)  0.2546 (  6)
          -0.4249 (  7) -0.1102 ( 14) -0.1101 ( 15)  0.1100 ( 16)  0.1100 ( 17)
          -0.2324 ( 18)  0.2327 ( 19)  0.1360 ( 20) -0.1358 ( 21)  0.1359 ( 23)
          -0.1361 ( 24) -0.2719 ( 26)  0.2719 ( 28)
 CRD 12=   0.2878 (  3) -0.2880 (  4)  0.2879 (  5) -0.2881 (  6) -0.2206 ( 20)
          -0.2207 ( 21) -0.1176 ( 22) -0.2208 ( 23) -0.2207 ( 24) -0.3239 ( 25)
          -0.3238 ( 26) -0.3237 ( 27) -0.3238 ( 28)
 CRD 13=  -0.2915 (  2) -0.2826 (  3) -0.2827 (  4)  0.2826 (  5)  0.2827 (  6)
           0.2914 (  7)  0.2337 (  8)  0.1263 (  9)  0.2338 ( 10) -0.2337 ( 11)
          -0.2337 ( 12) -0.1263 ( 13) -0.1856 ( 14) -0.1857 ( 15)  0.1856 ( 16)
           0.1857 ( 17)  0.2471 ( 18) -0.2472 ( 19)
 CRD 14=  -0.3582 (  3)  0.3584 (  4) -0.3582 (  5)  0.3584 (  6) -0.1777 ( 14)
           0.1783 ( 15)  0.1782 ( 16) -0.1777 ( 17)  0.2247 ( 22) -0.2736 ( 25)
          -0.2732 ( 26) -0.2729 ( 27) -0.2732 ( 28)
 CRD 15=  -0.7093 (  1)  0.1513 (  2)  0.1834 (  3)  0.1838 (  4)  0.1834 (  5)
           0.1837 (  6)  0.1512 (  7)  0.1790 (  8)  0.1094 (  9)  0.1790 ( 10)
           0.1790 ( 11)  0.1790 ( 12)  0.1094 ( 13) -0.1405 ( 14) -0.1404 ( 15)
          -0.1404 ( 16) -0.1406 ( 17) -0.2056 ( 18) -0.2056 ( 19)
 CRD 16=   0.3535 (  2) -0.1792 (  3) -0.1762 (  4)  0.1792 (  5)  0.1762 (  6)
          -0.3534 (  7)  0.1434 ( 14)  0.1421 ( 15) -0.1421 ( 16) -0.1435 ( 17)
           0.2640 ( 18) -0.2640 ( 19) -0.1839 ( 20)  0.1812 ( 21) -0.1812 ( 23)
           0.1839 ( 24)  0.3651 ( 26) -0.3651 ( 28)
 CRD 17=  -0.2867 (  3)  0.2882 (  4)  0.2867 (  5) -0.2882 (  6)  0.2275 (  8)
          -0.2269 ( 10) -0.2275 ( 11)  0.2269 ( 12)  0.1370 ( 14) -0.1383 ( 15)
           0.1383 ( 16) -0.1370 ( 17) -0.3102 ( 20) -0.3120 ( 21)  0.3121 ( 23)
           0.3103 ( 24)
 CRD 18=  -0.2791 (  2)  0.1331 (  3)  0.1326 (  4)  0.1332 (  5)  0.1326 (  6)
          -0.2792 (  7) -0.1142 (  8)  0.1983 (  9) -0.1148 ( 10) -0.1142 ( 11)
          -0.1149 ( 12)  0.1983 ( 13)  0.1185 ( 14)  0.1183 ( 15)  0.1182 ( 16)
           0.1185 ( 17) -0.1978 ( 18) -0.1979 ( 19)  0.2057 ( 20) -0.2057 ( 21)
          -0.2058 ( 23)  0.2057 ( 24) -0.4112 ( 25)  0.4118 ( 27)

 THE DETERMINANT OF THE G MATRIX IS 10**(    -9)


                     --------------------
                     INTERNAL COORDINATES
                     --------------------

                 - - ATOMS - -         COORDINATE      COORDINATE
 NO.   TYPE    I  J  K  L  M  N        (BOHR,RAD)       (ANG,DEG)
 ----------------------------------------------------------------
   1 STRETCH   1  2                     2.8439516       1.5049545
   2 STRETCH   1  4                     3.3566928       1.7762855
   3 STRETCH   1  5                     2.0873720       1.1045898
   4 STRETCH   1  6                     2.0873396       1.1045726
   5 STRETCH   2  7                     2.0871471       1.1044707
   6 STRETCH   2  8                     2.0873483       1.1045772
   7 STRETCH   2  3                     3.3567896       1.7763367
   8 BEND      1  2  8                  1.9498062     111.7156657
   9 BEND      1  2  3                  1.8952152     108.5878306
  10 BEND      1  2  7                  1.9498851     111.7201888
  11 BEND      2  1  6                  1.9498322     111.7171567
  12 BEND      2  1  5                  1.9499335     111.7229623
  13 BEND      2  1  4                  1.8954059     108.5987592
  14 BEND      3  2  8                  1.8980283     108.7490108
  15 BEND      3  2  7                  1.8983495     108.7674137
  16 BEND      4  1  5                  1.8980742     108.7516410
  17 BEND      4  1  6                  1.8982071     108.7592532
  18 BEND      5  1  6                  1.8712028     107.2120224
  19 BEND      7  2  8                  1.8713802     107.2221850
  20 TORSION   3  2  1  6              -1.0514217     -60.2420278
  21 TORSION   3  2  1  5               1.0447651      59.8606281
  22 TORSION   3  2  1  4               3.1382132     179.8063698
  23 TORSION   4  1  2  7               1.0445780      59.8499089
  24 TORSION   4  1  2  8              -1.0517843     -60.2628000
  25 TORSION   5  1  2  7              -1.0488701     -60.0958327
  26 TORSION   5  1  2  8               3.1379529     179.7914583
  27 TORSION   6  1  2  8               1.0417661      59.6888024
  28 TORSION   6  1  2  7               3.1381284     179.8015114

     ------------------------------------------
     THE POINT GROUP IS C1 , NAXIS= 1, ORDER= 1
     ------------------------------------------

     DIMENSIONS OF THE SYMMETRY SUBSPACES ARE
 A   =  116

 ..... DONE SETTING UP THE RUN .....
 STEP CPU TIME =     0.00 TOTAL CPU TIME =        0.0 (    0.0 MIN)
 TOTAL WALL CLOCK TIME=        0.0 SECONDS, CPU UTILIZATION IS   0.00%


          -----------------------------
          STATIONARY POINT LOCATION RUN
          -----------------------------

 OBTAINING INITIAL HESSIAN, HESS=GUESS   
 DIAGONAL GUESS HESSIAN IN INTERNAL COORDS IS
     1  0.3855     2  0.3489     3  0.3367     4  0.3367     5  0.3368
     6  0.3367     7  0.3488     8  0.2247     9  0.2576    10  0.2247
    11  0.2247    12  0.2247    13  0.2576    14  0.2293    15  0.2293
    16  0.2293    17  0.2293    18  0.2019    19  0.2019    20  0.2500
    21  0.2500    22  0.2500    23  0.2500    24  0.2500    25  0.2500
    26  0.2500    27  0.2500    28  0.2500
 TRANSFORMING HESSIAN TO SYMMETRY COORDINATES

          PARAMETERS CONTROLLING GEOMETRY SEARCH ARE
          METHOD =QA                  UPHESS =BFGS    
          NNEG   =         0          NFRZ   =         3
          NSTEP  =        50          IFOLOW =         1
          HESS   =GUESS               RESTAR =         F
          IHREP  =         0          HSSEND =         F
          NPRT   =         0          NPUN   =         0
          OPTTOL = 5.000E-04          RMIN   = 1.500E-03
          RMAX   = 1.000E-01          RLIM   = 7.000E-02
          DXMAX  = 3.000E-01          PURIFY =         F
          MOVIE  =         F          TRUPD  =         T
          TRMAX  = 5.000E-01          TRMIN  = 5.000E-02
          ITBMAT =         5          STPT   =         F
          STSTEP = 1.000E-02          PROJCT=          F
          FROZEN COORD(S)=   1   2   3


      ***** EQUILIBRIUM GEOMETRY LOCATED *****
            (SUBJECT TO   3 CONSTRAINT(S))
 COORDINATES OF ALL ATOMS ARE (ANGS)
   ATOM   CHARGE       X              Y              Z
 ------------------------------------------------------------
 C           6.0   2.3675920761   0.7452594400   0.8359512976
 C           6.0   1.5241159388   1.8640115396   1.3842174928
 CL         17.0  -0.0155183560   1.1356264761   1.9885986458
 CL         17.0   3.9052091805   1.4740741089   0.2269994430
 H           1.0   1.8872207239   0.2581506051   0.0043666810
 H           1.0   2.6264488283   0.0329981225   1.6009281536
 H           1.0   1.2677447807   2.5778536946   0.6198398825
 H           1.0   2.0030202306   2.3492228206   2.2177264699


                     --------------------
                     INTERNAL COORDINATES
                     --------------------

                 - - ATOMS - -         COORDINATE      COORDINATE
 NO.   TYPE    I  J  K  L  M  N        (BOHR,RAD)       (ANG,DEG)
 ----------------------------------------------------------------
   1 STRETCH   1  2                     2.8431768       1.5045445
   2 STRETCH   1  4                     3.4152632       1.8072796
   3 STRETCH   1  5                     2.0349152       1.0768308
   4 STRETCH   1  6                     2.0348695       1.0768067
   5 STRETCH   2  7                     2.0349198       1.0768333
   6 STRETCH   2  8                     2.0348730       1.0768085
   7 STRETCH   2  3                     3.4152818       1.8072894
   8 BEND      1  2  8                  1.9474361     111.5798687
   9 BEND      1  2  3                  1.8752500     107.4439091
  10 BEND      1  2  7                  1.9473615     111.5755959
  11 BEND      2  1  6                  1.9473709     111.5761342
  12 BEND      2  1  5                  1.9473153     111.5729488
  13 BEND      2  1  4                  1.8753765     107.4511611
  14 BEND      3  2  8                  1.8771968     107.5554529
  15 BEND      3  2  7                  1.8773019     107.5614754
  16 BEND      4  1  5                  1.8773231     107.5626878
  17 BEND      4  1  6                  1.8771543     107.5530193
  18 BEND      5  1  6                  1.9354687     110.8941866
  19 BEND      7  2  8                  1.9354552     110.8934125
  20 TORSION   3  2  1  6              -1.0908875     -62.5032507
  21 TORSION   3  2  1  5               1.0849033      62.1603788
  22 TORSION   3  2  1  4               3.1386873     179.8335347
  23 TORSION   4  1  2  7               1.0849803      62.1647947
  24 TORSION   4  1  2  8              -1.0908767     -62.5026312
  25 TORSION   5  1  2  7              -0.9688037     -55.5083613
  26 TORSION   5  1  2  8               3.1385246     179.8242128
  27 TORSION   6  1  2  8               0.9627338      55.1605834
  28 TORSION   6  1  2  7               3.1385908     179.8280093

          INTERNUCLEAR DISTANCES (ANGS.)


 =====================================================
   GAMESS/COSab RESULTS
 =====================================================

   Dielectric Constant                  = INFTY
   Basic Grid Size                      =                 1082
   Number of Segments                   =                   92
   Number of Segments located on spheres=                  180
   Number of Segments of the cavity     =                  348
   Solvent Radius (rsolv)               = 1.40
   Outlying Charge Error Method         = double cavity

 =====================================================

  Total solvated Energy (a.u.)          =  -997.1170500940
  Total Energy corrected (a.u.)         =  -997.1173280664

  Outlying charge effect (a.u.)         =    -0.0002779724
  Outlying charge effect (kcal/mol)     =    -0.1744304810

  Dielectric Energy (a.u.)              =    -0.0092720879
  Dielectric energy corr. (a.u.)        =    -0.0095500603

  Sum of polarization charges           =     0.0194940567
  Sum of polarization charges(cor.)     =    -0.0194940567

  Total surface area of cavity (A**2)   =  116.58
  Total volume of cavity (A**3)         =  103.54

 =====================================================
 NPS=                   348
NR.  ATOM  (X, Y, Z)(a.u.)                  CHARGE(e)  AREA(A**2) SIGMA(e/A**2)
   1   1   6.191000  -1.753256   0.421735  -0.000484   0.232280  -0.002085
   2   1   3.027381  -2.037955   2.140389  -0.000914   0.418105  -0.002186
   3   1   6.390822   1.618686   4.830280  -0.000983   0.139368  -0.007051
   4   1   2.822951  -1.961741   1.131869  -0.001183   0.278737  -0.004243
   5   1   5.414513  -1.658891  -0.418301  -0.001761   0.418105  -0.004213
   6   1   2.784361   2.595084  -1.585829  -0.000935   0.139368  -0.006708
   7   1   3.512286   2.864178  -1.772851  -0.000188   0.046456  -0.004047
   8   1   5.242368  -2.167494   0.627074  -0.000714   0.325193  -0.002194
   9   1   4.054706  -2.347749   1.594921  -0.000649   0.325193  -0.001996
  10   1   6.343663  -1.871454   1.400746  -0.000972   0.371649  -0.002615
  11   1   4.235807  -2.248502   0.655020  -0.000557   0.278737  -0.001997
  12   1   3.283444   2.518452  -1.831186  -0.000260   0.046456  -0.005602
  13   1   5.257975  -2.287769   1.486657  -0.000710   0.232280  -0.003055
  14   2   1.225514   6.664526   3.909552  -0.000484   0.232280  -0.002086
  15   2   4.612823   6.880820   2.675589  -0.000915   0.418105  -0.002188
  16   2   4.036700   2.366232   6.023105  -0.000983   0.139368  -0.007051
  17   2   3.983559   7.061159   1.877956  -0.001183   0.278737  -0.004243
  18   2   1.094843   6.849397   2.784277  -0.001761   0.418105  -0.004213
  19   2   1.490318   3.283558  -0.890709  -0.000935   0.139368  -0.006707
  20   2   0.845321   2.988859  -0.524108  -0.000188   0.046456  -0.004048
  21   2   2.044088   7.118894   3.422575  -0.000714   0.325193  -0.002195
  22   2   3.565046   7.196752   3.176841  -0.000649   0.325193  -0.001996
  23   2   1.871028   6.537104   4.659762  -0.000972   0.371649  -0.002615
  24   2   2.732382   7.297966   2.705154  -0.000557   0.278737  -0.001997
  25   2   0.988151   3.361067  -0.652010  -0.000260   0.046456  -0.005603
  26   2   2.690121   7.035581   3.996416  -0.000710   0.232280  -0.003056
  27   3  -3.268790   0.508440   5.111298  -0.001761   0.536887  -0.003280
  28   3  -0.509013   2.042769   7.600650   0.003497   0.488079   0.007165
  29   3   0.107492  -1.226001   5.660065   0.002872   0.439271   0.006538
  30   3  -1.458829  -0.933940   1.893021   0.002963   0.439271   0.006746
  31   3  -3.253353   2.581332   1.654679   0.003350   0.488079   0.006865
  32   3  -2.618690   4.642827   5.196156   0.003147   0.439271   0.007165
  33   3  -2.717871   1.051112   6.323129  -0.000689   0.585695  -0.001176
  34   3  -1.668503   1.494832   7.207038   0.001742   0.536887   0.003244
  35   3  -2.297500  -0.417665   5.571846  -0.000734   0.585695  -0.001253
  36   3  -1.064256  -1.002021   5.764451   0.001543   0.488079   0.003160
  37   3  -2.986879  -0.345969   3.982250  -0.000840   0.585695  -0.001434
  38   3  -2.466299  -0.684343   2.729484   0.001550   0.536887   0.002888
  39   3  -3.744823   1.057745   3.892784  -0.000893   0.536887  -0.001663
  40   3  -3.771106   1.858562   2.796718   0.001246   0.488079   0.002553
  41   3  -3.626401   1.940682   5.181404  -0.000969   0.683311  -0.001418
  42   3  -3.374353   3.358158   5.290536   0.001803   0.585695   0.003079
  43   3  -0.225370   0.744262   7.364025   0.003558   0.536887   0.006628
  44   3  -0.011547  -0.397366   6.679947   0.003240   0.488079   0.006639
  45   3  -0.516598  -1.626577   4.491069   0.002801   0.488079   0.005738
  46   3  -1.005750  -1.541209   3.080870   0.003252   0.536887   0.006057
  47   3  -2.298049   0.038998   1.429650   0.003503   0.536887   0.006524
  48   3  -3.011986   1.372213   1.410060   0.003405   0.536887   0.006342
  49   3  -3.468273   3.479948   2.573976   0.003501   0.536887   0.006520
  50   3  -3.270625   4.258434   3.955638   0.003861   0.585695   0.006592
  51   3  -2.286321   4.056815   6.260358   0.004257   0.634503   0.006708
  52   3  -1.477541   3.077167   7.228220   0.004178   0.634503   0.006585
  53   3   0.853812   1.733643   7.507232   0.004325   0.536887   0.008056
  54   3   2.081697   1.642025   6.966797   0.002820   0.488079   0.005777
  55   3   2.162916   0.454383   6.467123   0.001756   0.292848   0.005998
  56   3   1.268669  -0.623556   6.135319   0.004225   0.488079   0.008657
  57   3   0.861916  -1.483402   4.777916   0.003887   0.488079   0.007964
  58   3  -0.323964  -1.287990   1.989239   0.003468   0.439271   0.007894
  59   3  -1.002199  -0.193772   0.827667   0.004494   0.536887   0.008370
  60   3  -1.138114   1.224637   0.162210   0.002956   0.390463   0.007571
  61   3  -0.976450   2.522776   0.020477   0.002619   0.488079   0.005366
  62   3  -2.241535   2.505013   0.598058   0.004411   0.536887   0.008215
  63   3  -2.565037   3.984734   1.478282   0.004711   0.585695   0.008044
  64   3  -1.644871   4.879955   1.539127   0.002197   0.390463   0.005627
  65   3  -1.490280   5.620318   2.862230   0.003165   0.536887   0.005895
  66   3  -2.126276   5.381270   4.136519   0.005191   0.634503   0.008181
  67   3  -1.408079   5.284864   5.561817   0.004240   0.536887   0.007898
  68   3  -0.162818   5.408487   5.842582   0.002818   0.488079   0.005774
  69   3   0.628235   4.356382   6.870671   0.002981   0.488079   0.006108
  70   3   0.162534   3.247265   7.467066   0.004713   0.585695   0.008048
  71   3  -1.486406   0.110236   6.714250   0.001253   0.585695   0.002139
  72   3  -1.862670  -1.230228   4.255160   0.001184   0.683311   0.001733
  73   3  -3.331538   0.515358   2.556333   0.001115   0.585695   0.001904
  74   3  -3.840877   2.835583   3.821274   0.001608   0.634503   0.002534
  75   3  -2.716330   2.550025   6.519109   0.001216   0.585695   0.002076
  76   3   1.148851   0.454057   7.037631   0.003994   0.488079   0.008183
  77   3   0.370522  -1.680882   3.308047   0.003911   0.488079   0.008014
  78   3  -2.055203   1.093419   0.628169   0.003483   0.439271   0.007930
  79   3  -2.656708   4.793746   2.712056   0.004729   0.585695   0.008074
  80   3  -0.812878   4.419093   6.795438   0.005168   0.634503   0.008145
  81   3  -1.667305   3.695184   0.607591   0.002954   0.439271   0.006725
  82   3  -0.816319   5.881121   4.418994   0.002763   0.488079   0.005662
  83   3   1.459496   2.990302   7.233248   0.002263   0.390463   0.005795
  84   4  10.687358   4.401832  -0.777264  -0.001761   0.536887  -0.003280
  85   4  10.581122   2.050882   2.482975   0.003497   0.488079   0.007165
  86   4   9.072989   5.594366   2.490822   0.002872   0.439271   0.006538
  87   4   7.247298   6.346358  -1.091166   0.002964   0.439271   0.006747
  88   4   7.869202   3.191708  -3.392400   0.003350   0.488079   0.006865
  89   4   9.885283   0.314150  -1.190198   0.003147   0.439271   0.007165
  90   4  11.176110   3.539136   0.263608  -0.000689   0.585695  -0.001176
  91   4  11.103702   2.794769   1.496503   0.001742   0.536887   0.003244
  92   4  10.494969   5.088310   0.449485  -0.000734   0.585695  -0.001253
  93   4   9.894189   5.478142   1.627006   0.001543   0.488079   0.003161
  94   4   9.748670   5.458511  -1.071432  -0.000840   0.585695  -0.001434
  95   4   8.506235   6.019200  -1.382730   0.001551   0.536887   0.002888
  96   4  10.028349   4.201878  -2.017767  -0.000893   0.536887  -0.001663
  97   4   9.139863   3.682647  -2.903403   0.001246   0.488079   0.002553
  98   4  10.821427   3.038304  -1.331279  -0.000969   0.683311  -0.001418
  99   4  10.587262   1.615298  -1.401259   0.001803   0.585695   0.003078
 100   4  10.356582   3.331284   2.847279   0.003558   0.536887   0.006628
 101   4   9.826107   4.570473   2.844971   0.003240   0.488079   0.006639
 102   4   8.649065   6.317520   1.389080   0.002801   0.488079   0.005738
 103   4   7.904545   6.611885   0.126439   0.003252   0.536887   0.006058
 104   4   7.346147   5.601201  -2.231596   0.003503   0.536887   0.006524
 105   4   7.656833   4.391982  -3.085303   0.003405   0.536887   0.006343
 106   4   8.602334   2.133490  -3.188685   0.003501   0.536887   0.006520
 107   4   9.424323   1.041090  -2.360983   0.003861   0.585695   0.006591
 108   4  10.526719   0.600432  -0.144728   0.004256   0.634503   0.006708
 109   4  10.826134   1.239057   1.288136   0.004178   0.634503   0.006585
 110   4   9.652136   2.226640   3.516257   0.004325   0.536887   0.008056
 111   4   8.453707   2.309357   4.120486   0.002820   0.488079   0.005777
 112   4   8.152952   3.564645   4.144171   0.001757   0.292848   0.005998
 113   4   8.604614   4.778764   3.516764   0.004225   0.488079   0.008657
 114   4   7.946303   5.966484   2.566356   0.003887   0.488079   0.007965
 115   4   6.614242   6.546085  -0.100269   0.003468   0.439271   0.007895
 116   4   6.072192   5.827412  -1.582246   0.004494   0.536887   0.008371
 117   4   5.512042   4.623218  -2.424469   0.002956   0.390463   0.007571
 118   4   5.161954   3.383057  -2.690599   0.002619   0.488079   0.005366
 119   4   6.424179   3.401533  -3.274383   0.004411   0.536887   0.008215
 120   4   7.137271   1.801768  -3.310097   0.004711   0.585695   0.008044
 121   4   6.485272   0.824075  -2.789673   0.002197   0.390463   0.005627
 122   4   7.295667  -0.213381  -2.021830   0.003165   0.536887   0.005895
 123   4   8.691219  -0.208246  -1.650539   0.005191   0.634503   0.008181
 124   4   9.298305  -0.519746  -0.204514   0.004240   0.536887   0.007898
 125   4   8.680287  -0.836312   0.873737   0.002818   0.488079   0.005774
 126   4   9.044099  -0.139599   2.347470   0.002981   0.488079   0.006108
 127   4   9.913385   0.845253   2.625162   0.004713   0.585695   0.008048
 128   4  10.763042   4.228260   1.645350   0.001253   0.585695   0.002139
 129   4   9.311288   6.131507   0.143482   0.001185   0.683311   0.001734
 130   4   8.815215   4.990585  -2.414421   0.001116   0.585695   0.001905
 131   4   9.848438   2.508914  -2.543648   0.001607   0.634503   0.002533
 132   4  11.162240   2.043957   0.041348   0.001216   0.585695   0.002076
 133   4   9.243734   3.541218   3.739877   0.003994   0.488079   0.008183
 134   4   7.188696   6.548427   1.330090   0.003912   0.488079   0.008014
 135   4   6.475027   4.740190  -2.791026   0.003483   0.439271   0.007930
 136   4   8.034669   0.744658  -2.797951   0.004729   0.585695   0.008074
 137   4   9.924314  -0.029824   1.207483   0.005168   0.634503   0.008145
 138   4   5.928789   2.187117  -3.112758   0.002954   0.439271   0.006725
 139   4   7.992088  -0.895994  -0.609458   0.002763   0.488079   0.005662
 140   4   8.916860   1.009906   3.509830   0.002263   0.390463   0.005794
 141   5   2.607460  -0.620991  -1.963079  -0.005128   0.490692  -0.010451
 142   5   3.676415   0.415828  -2.444865  -0.002563   0.274788  -0.009327
 143   5   2.191043   1.316391  -1.851100  -0.003124   0.333671  -0.009364
 144   5   2.458278  -1.683300  -0.297449  -0.002758   0.353299  -0.007805
 145   5   4.284349  -1.353169  -1.451272  -0.002822   0.353299  -0.007989
 146   5   2.890452   0.801942  -2.332607  -0.003914   0.431809  -0.009065
 147   5   1.731580   0.245328  -1.607290  -0.004469   0.431809  -0.010348
 148   5   1.884936  -1.000897  -0.987572  -0.004366   0.431809  -0.010111
 149   5   3.277188  -1.689628  -1.091798  -0.004217   0.510320  -0.008263
 150   5   3.859690  -0.625714  -2.161776  -0.003533   0.431809  -0.008182
 151   6   5.610509  -1.825247   4.458181  -0.004727   0.451437  -0.010470
 152   6   5.262531   0.049196   5.463620  -0.003771   0.372926  -0.010112
 153   6   6.452692   0.116270   4.978211  -0.003131   0.392554  -0.007977
 154   6   6.666766  -1.664211   3.415409  -0.003755   0.392554  -0.009567
 155   6   4.933513  -2.384317   3.244357  -0.002569   0.333671  -0.007700
 156   6   5.783206  -0.838777   5.158559  -0.003726   0.372926  -0.009991
 157   6   6.730832  -0.966798   4.386072  -0.003559   0.412182  -0.008636
 158   6   5.854216  -2.220337   3.200303  -0.002996   0.372926  -0.008035
 159   6   4.228291  -2.076085   3.985485  -0.004547   0.471065  -0.009652
 160   6   4.622718  -1.254321   5.071147  -0.004237   0.431809  -0.009812
 161   7   1.665332   6.500111  -0.516592  -0.005128   0.490692  -0.010451
 162   7   0.494930   5.494404  -0.254893  -0.002563   0.274788  -0.009327
 163   7   1.815884   4.644674  -1.205123  -0.003124   0.333671  -0.009364
 164   7   3.122682   7.159883   0.652132  -0.002758   0.353299  -0.007805
 165   7   1.028761   6.911930   1.225583  -0.002823   0.353299  -0.007989
 166   7   1.052340   5.178739  -0.862406  -0.003914   0.431809  -0.009065
 167   7   2.412882   5.673436  -1.150654  -0.004469   0.431809  -0.010349
 168   7   2.908812   6.719806  -0.363376  -0.004367   0.431809  -0.010113
 169   7   1.992761   7.261793   0.772704  -0.004216   0.510320  -0.008262
 170   7   0.697540   6.417142   0.298318  -0.003533   0.431809  -0.008182
 171   8   4.634693   5.866319   6.001218  -0.004727   0.451437  -0.010470
 172   8   5.415989   3.858688   5.933963  -0.003771   0.372926  -0.010112
 173   8   4.266567   3.778919   6.507610  -0.003132   0.392554  -0.007978
 174   8   3.145691   5.838286   6.106439  -0.003756   0.392554  -0.009567
 175   8   4.228499   6.758718   4.868574  -0.002569   0.333671  -0.007700
 176   8   4.941179   4.732441   6.338651  -0.003726   0.372926  -0.009991
 177   8   3.756309   4.933317   6.597209  -0.003560   0.412182  -0.008636
 178   8   3.575529   6.512246   5.492598  -0.002997   0.372926  -0.008035
 179   8   5.212105   6.364947   4.730449  -0.004548   0.471065  -0.009654
 180   8   5.679389   5.278046   5.511360  -0.004238   0.431809  -0.009814
 181   1   2.230415   2.405471  -1.302120  -0.000304   0.024148  -0.012596
 182   2   1.974725   2.763835  -1.086027  -0.000353   0.024148  -0.014609
 183   5   2.210147   2.122833  -1.395186  -0.000406   0.024148  -0.016821
 184   1   5.277020   1.477264   5.278892  -0.000384   0.024141  -0.015901
 185   2   4.985936   1.846412   5.418528  -0.000398   0.024141  -0.016476
 186   6   5.303749   1.180336   5.287226  -0.000345   0.024141  -0.014286
 187   1   2.376339   3.091320  -1.224876  -0.000353   0.024144  -0.014609
 188   2   2.085346   3.460550  -1.085268  -0.000304   0.024144  -0.012596
 189   7   2.058969   3.757536  -1.093173  -0.000406   0.024144  -0.016822
 190   1   5.372380   2.160042   5.284686  -0.000398   0.024136  -0.016476
 191   2   5.116607   2.518324   5.500814  -0.000384   0.024136  -0.015902
 192   8   5.136883   2.800775   5.594430  -0.000345   0.024136  -0.014286
 193   2   4.984856   2.233104   5.548368  -0.000531   0.057401  -0.009253
 194   1   5.429191   1.756209   5.275518  -0.000531   0.057401  -0.009253
 195   2   1.977098   3.221984  -1.096714  -0.000398   0.060923  -0.006530
 196   1   2.318079   2.650378  -1.335310  -0.000398   0.060923  -0.006530
 197   1   1.828427  -1.303229   1.070122  -0.000528   0.069251  -0.007619
 198   3   1.071984  -1.105154   1.468501  -0.000044   0.069251  -0.000640
 199   5   1.822801  -1.258832   0.773387  -0.000589   0.069251  -0.008501
 200   1   2.839708  -1.609290   3.262877  -0.000578   0.069067  -0.008361
 201   3   2.066719  -1.405955   3.625185  -0.000058   0.069067  -0.000836
 202   6   3.063670  -1.634741   3.460945  -0.000601   0.069067  -0.008705
 203   3   0.822613  -1.407120   2.121280   0.001309   0.329606   0.003971
 204   3   1.382888  -1.576570   3.337039   0.001422   0.329606   0.004314
 205   1   2.229888  -1.614024   2.192696  -0.002174   0.650537  -0.003341
 206   1   5.540887  -0.685840  -1.395928  -0.000357   0.034004  -0.010486
 207   4   6.035221  -0.421879  -1.567632  -0.000193   0.034004  -0.005678
 208   5   5.260304  -0.695917  -1.497226  -0.000485   0.034004  -0.014262
 209   1   3.932762   2.113171  -2.106499  -0.000407   0.034004  -0.011975
 210   4   4.446491   2.343372  -2.269633  -0.000220   0.034004  -0.006457
 211   5   3.797894   1.849470  -2.143411  -0.000383   0.034004  -0.011277
 212   1   6.960294   1.191112   4.434482  -0.000339   0.034016  -0.009974
 213   4   7.442379   1.430951   4.202975  -0.000207   0.034016  -0.006099
 214   6   6.872141   0.913179   4.498251  -0.000479   0.034016  -0.014081
 215   1   7.180918  -1.185846   2.146680  -0.000407   0.034016  -0.011977
 216   4   7.660342  -0.917345   1.942760  -0.000218   0.034016  -0.006398
 217   6   7.072775  -1.248406   2.417744  -0.000370   0.034016  -0.010876
 218   1   3.558562   3.474700  -1.513010  -0.001267   0.125462  -0.010099
 219   4   4.073048   3.706299  -1.684180  -0.000733   0.125462  -0.005846
 220   7   3.195585   4.094088  -1.290593  -0.001545   0.125462  -0.012317
 221   1   6.415270   2.601645   4.658579  -0.001265   0.125396  -0.010086
 222   4   6.903903   2.841091   4.431590  -0.000765   0.125396  -0.006104
 223   8   6.075649   3.212106   4.935831  -0.001595   0.125396  -0.012720
 224   4   7.521225   2.258396   4.308773  -0.000190   0.216439  -0.000878
 225   1   6.879270   1.719885   4.532854  -0.001019   0.213648  -0.004772
 226   4   7.852803  -0.998706   1.247728   0.000057   0.262374   0.000216
 227   4   7.029679  -0.823599  -0.621125  -0.000694   0.529695  -0.001311
 228   1   6.834480  -1.302259   0.802672  -0.002877   0.526894  -0.005461
 229   1   5.955843  -0.957914  -1.003797  -0.001160   0.258993  -0.004480
 230   4   4.564444   2.984401  -2.288321  -0.000167   0.216999  -0.000769
 231   1   3.802722   2.834937  -1.901022  -0.001121   0.214201  -0.005234
 232   5   2.501588   1.852921  -1.736377  -0.000584   0.065136  -0.008961
 233   5   3.241357   1.726440  -2.089630  -0.000653   0.065136  -0.010032
 234   1   2.999634   2.150706  -1.773876  -0.001581   0.143552  -0.011011
 235   5   4.831336  -1.113423  -1.344648  -0.000723   0.077641  -0.009315
 236   5   4.106980  -1.761370  -0.546674  -0.001733   0.178613  -0.009703
 237   5   2.798777  -1.755191   0.205412  -0.001875   0.178613  -0.010496
 238   1   4.913282  -1.412470  -0.792183  -0.001714   0.164550  -0.010415
 239   1   3.686774  -1.961429   0.237885  -0.001552   0.164550  -0.009432
 240   1   2.445417  -1.674363   0.786825  -0.000792   0.094856  -0.008349
 241   6   6.455567   0.747429   4.854152  -0.000632   0.065108  -0.009700
 242   6   5.721304   0.872044   5.218644  -0.000673   0.065108  -0.010329
 243   1   6.105838   1.204500   4.936492  -0.001687   0.143501  -0.011753
 244   6   3.636369  -1.993794   3.255828  -0.000671   0.064907  -0.010336
 245   6   4.497837  -2.278863   2.698896  -0.001362   0.143137  -0.009517
 246   6   5.746740  -2.132106   2.412925  -0.001357   0.143137  -0.009483
 247   6   6.677544  -1.636430   2.559468  -0.000629   0.064907  -0.009692
 248   1   3.714533  -2.080467   2.687104  -0.001379   0.143143  -0.009633
 249   1   5.019745  -2.255632   2.082343  -0.001241   0.143143  -0.008668
 250   1   6.383926  -1.766790   2.075873  -0.001436   0.143143  -0.010030
 251   7   2.440870   4.174332  -1.228775  -0.001839   0.174286  -0.010551
 252   1   2.797649   3.132785  -1.470714  -0.001421   0.245656  -0.005786
 253   8   5.407036   3.123123   5.561546  -0.001846   0.177941  -0.010376
 254   1   5.962878   2.280597   5.058631  -0.001626   0.250797  -0.006483
 255   2   0.944596   2.333754  -0.468635  -0.001267   0.125465  -0.010099
 256   3   0.455118   2.094391  -0.243335  -0.000733   0.125465  -0.005846
 257   5   1.282732   1.721984  -0.744750  -0.001545   0.125465  -0.012317
 258   2   3.787541   1.452475   5.708268  -0.001265   0.125397  -0.010086
 259   3   3.272376   1.221129   5.877723  -0.000765   0.125397  -0.006104
 260   6   4.152417   0.834241   5.485802  -0.001595   0.125397  -0.012720
 261   2   0.176980   6.119984   2.046861  -0.000357   0.034007  -0.010486
 262   3  -0.303140   5.851589   2.249299  -0.000193   0.034007  -0.005678
 263   7   0.285849   6.182930   1.776162  -0.000485   0.034007  -0.014262
 264   2   0.400251   3.747302  -0.243842  -0.000407   0.034007  -0.011975
 265   3  -0.082563   3.507525  -0.013776  -0.000220   0.034007  -0.006457
 266   7   0.488889   4.025241  -0.306976  -0.000384   0.034007  -0.011277
 267   2   3.412933   2.810516   6.301885  -0.000339   0.034014  -0.009975
 268   3   2.898625   2.580531   6.463527  -0.000207   0.034014  -0.006098
 269   8   3.547905   3.074047   6.339582  -0.000479   0.034014  -0.014081
 270   2   1.808574   5.612963   5.592283  -0.000407   0.034014  -0.011978
 271   3   1.313614   5.349182   5.762482  -0.000218   0.034014  -0.006398
 272   8   2.088917   5.622565   5.694277  -0.000370   0.034014  -0.010876
 273   3   2.838326   1.747380   6.397682  -0.000190   0.216450  -0.000878
 274   2   3.483434   2.284999   6.180571  -0.001020   0.213660  -0.004772
 275   3   0.676015   5.567485   5.493173   0.000057   0.262372   0.000216
 276   3  -0.202805   5.916245   3.674745  -0.000694   0.529690  -0.001311
 277   2   1.041613   6.072034   4.524172  -0.002878   0.526888  -0.005461
 278   2   0.227841   6.248643   2.663978  -0.001160   0.258990  -0.004480
 279   3  -0.241902   2.879351  -0.084811  -0.000167   0.216929  -0.000769
 280   2   0.562421   3.015867  -0.379726  -0.001121   0.214132  -0.005234
 281   2   4.518700   6.543762   0.942839  -0.000528   0.069248  -0.007624
 282   4   5.290941   6.340745   0.578657  -0.000045   0.069248  -0.000643
 283   7   4.295489   6.569795   0.743952  -0.000589   0.069248  -0.008503
 284   2   5.530953   6.227089   3.134069  -0.000578   0.069065  -0.008365
 285   4   6.286455   6.029059   2.733844  -0.000058   0.069065  -0.000839
 286   8   5.535293   6.182286   3.430741  -0.000601   0.069065  -0.008707
 287   4   5.974993   6.508964   0.867440   0.001309   0.329683   0.003972
 288   4   6.536496   6.333193   2.082022   0.001422   0.329683   0.004314
 289   2   5.129434   6.543076   2.013081  -0.002176   0.650690  -0.003344
 290   5   1.814394   1.710375  -1.289680  -0.001838   0.174253  -0.010551
 291   2   1.510584   2.735617  -0.933085  -0.001421   0.245609  -0.005786
 292   6   5.067953   0.847353   5.394783  -0.001847   0.177982  -0.010376
 293   2   4.417309   1.719035   5.692284  -0.001626   0.250855  -0.006483
 294   7   0.725225   6.597313   1.646137  -0.000723   0.077655  -0.009315
 295   7   1.865705   7.117345   1.749274  -0.001734   0.178652  -0.009704
 296   7   3.284350   7.077142   1.235918  -0.001876   0.178652  -0.010499
 297   2   1.117046   6.750608   2.119861  -0.001714   0.164573  -0.010416
 298   2   2.749430   7.174770   1.968483  -0.001552   0.164573  -0.009433
 299   2   3.942315   6.902505   1.314126  -0.000792   0.094873  -0.008350
 300   7   1.641538   4.066195  -1.024973  -0.000584   0.065129  -0.008962
 301   7   0.906445   4.191119  -0.661759  -0.000653   0.065129  -0.010032
 302   2   1.255914   3.733746  -0.744126  -0.001580   0.143541  -0.011010
 303   8   5.045073   6.516054   3.814610  -0.000671   0.064921  -0.010342
 304   8   4.094476   6.828641   4.178811  -0.001363   0.143172  -0.009519
 305   8   3.047185   6.619734   4.902145  -0.001358   0.143172  -0.009484
 306   8   2.494915   6.007363   5.575932  -0.000629   0.064921  -0.009693
 307   2   4.577383   6.722637   3.539431  -0.001379   0.143169  -0.009635
 308   2   3.288788   6.892713   4.180790  -0.001241   0.143169  -0.008670
 309   2   2.338962   6.276130   5.085445  -0.001436   0.143169  -0.010031
 310   8   4.104638   3.196713   6.287227  -0.000632   0.065125  -0.009700
 311   8   4.844985   3.070343   5.935424  -0.000673   0.065125  -0.010329
 312   2   4.346692   2.772850   5.971266  -0.001687   0.143532  -0.011754
 313   5   1.627210  -1.178834   0.328528  -0.001767   0.251845  -0.007017
 314   5   1.217760  -0.175089  -0.507981  -0.004872   0.508428  -0.009582
 315   5   1.279378   1.096808  -1.011351  -0.002033   0.251845  -0.008072
 316   3   0.221412  -0.637740   0.885839   0.002242   0.723985   0.003097
 317   3  -0.030957   1.013350  -0.086309   0.001037   0.723985   0.001432
 318   6   4.284932   0.169635   5.509876  -0.002154   0.250697  -0.008593
 319   6   3.737458  -0.945918   4.951732  -0.004757   0.506021  -0.009402
 320   6   3.276931  -1.679770   3.900499  -0.001749   0.250697  -0.006975
 321   3   2.724462   0.164357   5.894372   0.000876   0.720916   0.001215
 322   3   1.993024  -1.177630   4.726557   0.002390   0.720916   0.003315
 323   7   0.357705   4.507033  -0.225716  -0.002061   0.238108  -0.008655
 324   7   0.175854   5.667594   0.826642  -0.005573   0.488358  -0.011412
 325   3  -0.687924   4.336535   0.616577  -0.000567   0.666962  -0.000850
 326   3  -0.740931   5.606201   1.904693   0.000090   0.343489   0.000261
 327   8   2.392490   5.396394   6.030022  -0.002197   0.238151  -0.009227
 328   8   3.139385   4.073744   6.455689  -0.005571   0.488455  -0.011405
 329   3   1.575294   4.413547   6.475068  -0.000596   0.667075  -0.000894
 330   3   2.468454   2.869868   6.782891   0.000113   0.343552   0.000329
 331   5   3.893273   1.378680  -2.302039  -0.002061   0.238090  -0.008655
 332   5   4.676426   0.032999  -2.051184  -0.005572   0.488319  -0.011411
 333   4   5.226246   1.460604  -2.521787  -0.000567   0.666915  -0.000850
 334   4   6.089927  -0.058619  -2.053055   0.000090   0.343464   0.000261
 335   6   7.149498  -1.139231   2.905863  -0.002197   0.238162  -0.009227
 336   6   7.120063  -0.037218   4.034346  -0.005571   0.488481  -0.011405
 337   4   8.122075  -0.204279   2.797278  -0.000596   0.667104  -0.000894
 338   4   7.932203   1.123164   4.012887   0.000113   0.343568   0.000329
 339   7   4.081967   6.615722   0.302590  -0.001767   0.251820  -0.007019
 340   7   3.617031   5.881169  -0.755033  -0.004871   0.508373  -0.009582
 341   7   3.064667   4.760533  -1.314829  -0.002033   0.251820  -0.008072
 342   4   5.361776   6.113321  -0.527857   0.002242   0.723925   0.003097
 343   4   4.623671   4.767282  -1.701380   0.001037   0.723925   0.001432
 344   8   6.077615   3.835298   5.203124  -0.002154   0.250688  -0.008592
 345   8   6.136819   5.101008   4.703273  -0.004758   0.506001  -0.009403
 346   8   5.729489   6.101928   3.874044  -0.001749   0.250688  -0.006977
 347   4   7.387390   3.917574   4.275248   0.000876   0.720901   0.001215
 348   4   7.134777   5.562319   3.310822   0.002389   0.720901   0.003315
 =====================================================

              1269826  WORDS OF DYNAMIC MEMORY USED
 EXECUTION OF GAMESS TERMINATED NORMALLY Tue Nov 22 18:55:20 2016
 DDI: 263640 bytes (0.3 MB / 0 MWords) used by master data server.

 ----------------------------------------
 CPU timing information for all processes
 ========================================
 0: 103.288 + 0.80 = 103.368
 ----------------------------------------
 ddikick.x: exited gracefully.
