----- GAMESS execution script -----

          ******************************************************
          *         GAMESS VERSION =  5 DEC 2014 (R1)          *
          *             FROM IOWA STATE UNIVERSITY             *
          * M.W.SCHMIDT, K.K.BALDRIDGE, J.A.BOATZ, S.T.ELBERT, *
          *   M.S.GORDON, J.H.JENSEN, S.KOSEKI, N.MATSUNAGA,   *
          *          K.A.NGUYEN, S.J.SU, T.L.WINDUS,           *
          *       TOGETHER WITH M.DUPUIS, J.A.MONTGOMERY       *
          *         J.COMPUT.CHEM.  14, 1347-1363(1993)        *
          **************** 64 BIT LINUX VERSION ****************

 EXECUTION OF GAMESS BEGUN Tue Nov 22 19:03:38 2016

            ECHO OF THE FIRST FEW INPUT CARDS -
 INPUT CARD>! SELECT RESTRICTED HARTREE-FOCK AS DEFAULT                                     
 INPUT CARD>$contrl scftyp=rhf $end                                                         
 INPUT CARD>                                                                                
 INPUT CARD>! THEORY: HF OR DFT                                                             
 INPUT CARD> $contrl mplevl=0 $end                                                          
 INPUT CARD>                                                                                
 INPUT CARD> $system timlim=10000 mwords=20 $end                                            
 INPUT CARD> $SCF DIRSCF=.TRUE. $end                                                        
 INPUT CARD>                                                                                
 INPUT CARD>                                                                                
 INPUT CARD>! BASIS SETS                                                                    
 INPUT CARD>! 6-311G(d,p)                                                                   
 INPUT CARD> $BASIS GBASIS=N311 NGAUSS=6 NDFUNC=1 NPFUNC=1 $END                             
 INPUT CARD>                                                                                
 INPUT CARD>! One of the following                                                          
 INPUT CARD> $guess guess=HUCKEL $end                                                       
 INPUT CARD>                                                                                
 INPUT CARD> $statpt projct=.FALSE. $end                                                    
 INPUT CARD> $STATPT IFREEZ(1)=1,2,3 $END                                                   
 INPUT CARD>                                                                                
 INPUT CARD>! Optimize the geometry with COSMO effects                                      
 INPUT CARD> $statpt opttol=0.0005 nstep=50 $end                                            
 INPUT CARD> $contrl nzvar=1 $end                                                           
 INPUT CARD> $zmat dlc=.t. auto=.t. $end                                                    
 INPUT CARD> $contrl runtyp=OPTIMIZE maxit=200 $end                                         
 INPUT CARD>                                                                                
 INPUT CARD>! Run COSMO on perfect conductor                                                
 INPUT CARD> $COSGMS PRFCND=.TRUE. $end                                                     
 INPUT CARD>                                                                                
 INPUT CARD>! Specifying RSOLV                                                              
 INPUT CARD> $COSGMS COSRAD = 1.4 $end                                                      
 INPUT CARD>                                                                                
 INPUT CARD>! available memory                                                              
 INPUT CARD> $SYSTEM MWORDS=40 $END                                                         
 INPUT CARD>                                                                                
 INPUT CARD> $DATA                                                                          
 INPUT CARD>1,3,5-Cycloheptatriene, ID: C544252                                             
 INPUT CARD>C1                                                                              
 INPUT CARD>C      6.0      3.0874000000    2.9907000000    2.9824000000                    
 INPUT CARD>C      6.0      3.9617000000    1.7870000000    2.9824000000                    
 INPUT CARD>C      6.0      1.6494000000    2.6088000000    2.9824000000                    
 INPUT CARD>C      6.0      3.9309000000    0.8391000000    2.0377000000                    
 INPUT CARD>C      6.0      1.0765000000    1.8540000000    2.0371000000                    
 INPUT CARD>C      6.0      3.0279000000    0.8121000000    0.9058000000                    
 INPUT CARD>C      6.0      1.7635000000    1.2634000000    0.9068000000                    
 INPUT CARD>H      1.0      3.3141000000    3.6282000000    3.8582000000                    
 INPUT CARD>H      1.0      3.3088000000    3.6138000000    2.0907000000                    
 INPUT CARD>H      1.0      4.6724000000    1.7028000000    3.8126000000                    
 INPUT CARD>H      1.0      1.0440000000    2.9916000000    3.8120000000                    
 INPUT CARD>H      1.0      4.6363000000    0.0000000000    2.0902000000                    
   40000000 WORDS OF MEMORY AVAILABLE

     BASIS OPTIONS
     -------------
     GBASIS=N311         IGAUSS=       6      POLAR=POPN311 
     NDFUNC=       1     NFFUNC=       0     DIFFSP=       F
     NPFUNC=       1      DIFFS=       F     BASNAM=        


     RUN TITLE
     ---------
 1,3,5-Cycloheptatriene, ID: C544252                                             

 THE POINT GROUP OF THE MOLECULE IS C1      
 THE ORDER OF THE PRINCIPAL AXIS IS     0

 ATOM      ATOMIC                      COORDINATES (BOHR)
           CHARGE         X                   Y                   Z
 C           6.0     5.8343400145        5.6516035115        5.6359187858
 C           6.0     7.4865274456        3.3769403401        5.6359187858
 C           6.0     3.1169140441        4.9299171568        5.6359187858
 C           6.0     7.4283238851        1.5856690763        3.8506946452
 C           6.0     2.0342900258        3.5035519812        3.8495608096
 C           6.0     5.7219013182        1.5346464746        1.7117137997
 C           6.0     3.3325317793        2.3874798129        1.7136035257
 H           1.0     6.2627408959        6.8563038287        7.2909408058
 H           1.0     6.2527253482        6.8290917744        3.9508501225
 H           1.0     8.8295557050        3.2178254119        7.2047693008
 H           1.0     1.9728739312        5.6533042649        7.2036354652
 H           1.0     8.7613365969        0.0000000000        3.9499052595
 H           1.0     0.0000000000        3.1131345922        3.9455588898
 H           1.0     6.4789255489        0.6413730002        0.0000000000
 H           1.0     2.1828224884        2.1739407763        0.0003779452

          INTERNUCLEAR DISTANCES (ANGS.)




     $CONTRL OPTIONS
     ---------------
 SCFTYP=RHF          RUNTYP=OPTIMIZE     EXETYP=RUN     
 MPLEVL=       0     CITYP =NONE         CCTYP =NONE         VBTYP =NONE    
 DFTTYP=NONE         TDDFT =NONE    
 MULT  =       1     ICHARG=       0     NZVAR =       1     COORD =UNIQUE  
 PP    =NONE         RELWFN=NONE         LOCAL =NONE         NUMGRD=       F
 ISPHER=      -1     NOSYM =       0     MAXIT =     200     UNITS =ANGS    
 PLTORB=       F     MOLPLT=       F     AIMPAC=       F     FRIEND=        
 NPRINT=       7     IREST =       0     GEOM  =INPUT   
 NORMF =       0     NORMP =       0     ITOL  =      20     ICUT  =       9
 INTTYP=BEST         GRDTYP=BEST         QMTTOL= 1.0E-06

     $SYSTEM OPTIONS
     ---------------
  REPLICATED MEMORY=    40000000 WORDS (ON EVERY NODE).
 DISTRIBUTED MEMDDI=           0 MILLION WORDS IN AGGREGATE,
 MEMDDI DISTRIBUTED OVER   1 PROCESSORS IS           0 WORDS/PROCESSOR.
 TOTAL MEMORY REQUESTED ON EACH PROCESSOR=    40000000 WORDS.
 TIMLIM=       10000.00 MINUTES, OR       6.9 DAYS.
 PARALL= F  BALTYP=  DLB     KDIAG=    0  COREFL= F
 MXSEQ2=     300 MXSEQ3=     150  mem10=         0

     $COSGMS OPTIONS
     ---------------
     EPSI  =   INFTY     NSPA  =      92     COSRAD=    1.40
     DISEX =   10.00     OUTCHG=DBLCAV       COSBUG=       F
     COSWRT=       F     DCOSMO=       F

     SYMMETRY COORDINATES WILL NOT BE USED FOR 
     THE COSMO CALCULATION, EVEN IF SPECIFIED:
         -- SWITCHING TO C1 POINT GROUP --


     DEFINITION OF CAVITY
     ---------------------------
     ATOM         COORDINATES           RADIUS 
     1    5.8343    5.6516    5.6359    2.0000
     2    7.4865    3.3769    5.6359    2.0000
     3    3.1169    4.9299    5.6359    2.0000
     4    7.4283    1.5857    3.8507    2.0000
     5    2.0343    3.5036    3.8496    2.0000
     6    5.7219    1.5346    1.7117    2.0000
     7    3.3325    2.3875    1.7136    2.0000
     8    6.2627    6.8563    7.2909    1.3000
     9    6.2527    6.8291    3.9509    1.3000
    10    8.8296    3.2178    7.2048    1.3000
    11    1.9729    5.6533    7.2036    1.3000
    12    8.7613    0.0000    3.9499    1.3000
    13    0.0000    3.1131    3.9456    1.3000
    14    6.4789    0.6414    0.0000    1.3000
    15    2.1828    2.1739    0.0004    1.3000

          ----------------
          PROPERTIES INPUT
          ----------------

     MOMENTS            FIELD           POTENTIAL          DENSITY
 IEMOM =       1   IEFLD =       0   IEPOT =       0   IEDEN =       0
 WHERE =COMASS     WHERE =NUCLEI     WHERE =NUCLEI     WHERE =NUCLEI  
 OUTPUT=BOTH       OUTPUT=BOTH       OUTPUT=BOTH       OUTPUT=BOTH    
 IEMINT=       0   IEFINT=       0                     IEDINT=       0
                                                       MORB  =       0
          EXTRAPOLATION IN EFFECT
          SOSCF IN EFFECT
 ORBITAL PRINTING OPTION: NPREO=     1   181     2     1

     -------------------------------
     INTEGRAL TRANSFORMATION OPTIONS
     -------------------------------
     NWORD  =            0
     CUTOFF = 1.0E-09     MPTRAN =       0
     DIRTRF =       T     AOINTS =DUP     

          ----------------------
          INTEGRAL INPUT OPTIONS
          ----------------------
 NOPK  =       1 NORDER=       0 SCHWRZ=       T


 -----------------------------------------------
  STATISTICS ON AUTOMATIC COORDINATE GENERATION 
 -----------------------------------------------
  NUMBER OF USER SPECIFIED BONDS                             0
  NUMBER OF BONDS                                           15
  NUMBER OF ANGLES                                          24
  NUMBER OF TORSIONS                                        32
  NUMBER OF EXTRA COORD.                                     0
  NUMBER OF EXTRA COORD. FOR CONSTRAINTS                     0
  NUMBER OF CONSTRAINED COORD.                               0

  TOTAL NUMBER OF PRIMITIVES                                71
 -----------------------------------------------

   --- ENCODED Z MATRIX ---
 COORD  TYPE   I   J   K   L   M   N
    1      1    1   8
    2      1    1   2
    3      1    1   3
    4      1    1   9
    5      1    2  10
    6      1    2   4
    7      1    3  11
    8      1    3   5
    9      1    4  12
   10      1    4   6
   11      1    5  13
   12      1    5   7
   13      1    6   7
   14      1    6  14
   15      1    7  15
   16      2    1   3  11
   17      2    1   3   5
   18      2    1   2  10
   19      2    1   2   4
   20      2    2   1   8
   21      2    2   4   6
   22      2    2   1   3
   23      2    2   4  12
   24      2    2   1   9
   25      2    3   5  13
   26      2    3   1   8
   27      2    3   1   9
   28      2    3   5   7
   29      2    4   6   7
   30      2    4   2  10
   31      2    4   6  14
   32      2    5   3  11
   33      2    5   7  15
   34      2    5   7   6
   35      2    6   7  15
   36      2    6   4  12
   37      2    7   6  14
   38      2    7   5  13
   39      2    8   1   9
   40      3    1   2   4  12
   41      3    1   3   5  13
   42      3    1   2   4   6
   43      3    1   3   5   7
   44      3    2   4   6  14
   45      3    2   1   3   5
   46      3    2   4   6   7
   47      3    2   1   3  11
   48      3    3   1   2   4
   49      3    3   1   2  10
   50      3    3   5   7  15
   51      3    3   5   7   6
   52      3    4   2   1   9
   53      3    4   2   1   8
   54      3    4   6   7  15
   55      3    4   6   7   5
   56      3    5   7   6  14
   57      3    5   3   1   9
   58      3    5   3   1   8
   59      3    6   7   5  13
   60      3    6   4   2  10
   61      3    7   6   4  12
   62      3    7   5   3  11
   63      3    8   1   3  11
   64      3    8   1   2  10
   65      3    9   1   3  11
   66      3    9   1   2  10
   67      3   10   2   4  12
   68      3   11   3   5  13
   69      3   12   4   6  14
   70      3   13   5   7  15
   71      3   14   6   7  15

          INDEP./SYM. INTERNAL COORDINATES
          --------------------------------
 CRD  1=  -0.1020 (  1) -0.1571 (  6) -0.1572 (  8)  0.1165 ( 13)  0.1017 ( 16)
          -0.1503 ( 17)  0.1017 ( 18) -0.1502 ( 19) -0.1423 ( 20) -0.2599 ( 21)
           0.4699 ( 22)  0.1181 ( 23) -0.1631 ( 24)  0.1179 ( 25) -0.1423 ( 26)
          -0.1630 ( 27) -0.2597 ( 28)  0.2235 ( 29) -0.1267 ( 31) -0.1274 ( 33)
           0.2244 ( 34)  0.1414 ( 36)  0.1415 ( 38)  0.1175 ( 39) -0.1290 ( 59)
           0.1165 ( 60)  0.1292 ( 61) -0.1168 ( 62)
 CRD  2=  -0.2886 (  2)  0.2877 (  3)  0.1177 (  5) -0.1277 (  6) -0.1182 (  7)
           0.1257 (  8) -0.1016 (  9)  0.2359 ( 10)  0.1014 ( 11) -0.2380 ( 12)
          -0.1079 ( 14)  0.1070 ( 15)  0.2320 ( 17) -0.2319 ( 19) -0.1105 ( 20)
           0.1407 ( 21) -0.1679 ( 23) -0.1260 ( 24)  0.1685 ( 25)  0.1105 ( 26)
           0.1268 ( 27) -0.1419 ( 28)  0.1531 ( 29)  0.1699 ( 30) -0.1700 ( 32)
          -0.1528 ( 34)  0.1521 ( 35) -0.1521 ( 37) -0.1071 ( 40) -0.1073 ( 41)
          -0.1316 ( 42) -0.1322 ( 43) -0.1119 ( 52) -0.1125 ( 57) -0.1093 ( 60)
          -0.1100 ( 62) -0.1332 ( 65) -0.1327 ( 66)
 CRD  3=   0.1618 (  1)  0.3578 (  2)  0.3588 (  3)  0.1273 (  5)  0.2946 (  6)
           0.1261 (  7)  0.2940 (  8)  0.1398 ( 10)  0.1372 ( 12)  0.1164 ( 16)
           0.1166 ( 18) -0.1234 ( 36) -0.1234 ( 38)  0.1394 ( 44)  0.1902 ( 45)
           0.1617 ( 46)  0.1696 ( 47) -0.1907 ( 48) -0.1702 ( 49) -0.1394 ( 50)
          -0.1615 ( 51) -0.1058 ( 59)  0.1055 ( 61)
 CRD  4=   0.1776 (  2)  0.3021 (  6) -0.3297 (  8)  0.1266 ( 10) -0.1569 ( 11)
          -0.4107 ( 12) -0.2002 ( 13) -0.1557 ( 15)  0.1640 ( 16)  0.1486 ( 20)
           0.1554 ( 23)  0.1242 ( 30)  0.2747 ( 31) -0.1767 ( 32) -0.2424 ( 33)
           0.1498 ( 34) -0.1936 ( 37) -0.1171 ( 38)
 CRD  5=   0.1954 (  3) -0.1743 (  6)  0.1143 (  8) -0.1253 (  9) -0.4342 ( 10)
          -0.1875 ( 12) -0.4358 ( 13) -0.2035 ( 14) -0.1312 ( 15) -0.1072 ( 17)
           0.1881 ( 18) -0.1039 ( 22)  0.1627 ( 23)  0.2234 ( 25)  0.1113 ( 26)
           0.1256 ( 29) -0.1284 ( 30)  0.1525 ( 33) -0.1753 ( 35) -0.2103 ( 36)
          -0.1859 ( 38) -0.1240 ( 46)
 CRD  6=   0.1177 (  2) -0.1166 (  3) -0.1944 ( 10)  0.1952 ( 12) -0.1689 ( 16)
           0.1551 ( 17)  0.1685 ( 18) -0.1546 ( 19)  0.2349 ( 20)  0.1293 ( 21)
           0.1476 ( 23) -0.1866 ( 24) -0.1475 ( 25) -0.2349 ( 26)  0.1871 ( 27)
          -0.1300 ( 28) -0.1252 ( 35) -0.2767 ( 36)  0.1252 ( 37)  0.2774 ( 38)
          -0.1397 ( 40) -0.1398 ( 41) -0.1763 ( 42) -0.1769 ( 43)  0.1154 ( 45)
           0.1158 ( 48)  0.1320 ( 54)  0.1929 ( 55)  0.1316 ( 56) -0.1416 ( 60)
          -0.1421 ( 62) -0.1050 ( 67) -0.1050 ( 68)
 CRD  7=   0.1724 (  2)  0.1720 (  3) -0.2586 (  6) -0.2602 (  8) -0.1129 ( 10)
          -0.1135 ( 12)  0.2522 ( 13)  0.2837 ( 16)  0.2832 ( 18) -0.1421 ( 23)
          -0.1428 ( 25) -0.3144 ( 30) -0.2279 ( 31) -0.3151 ( 32) -0.2286 ( 33)
           0.2735 ( 35)  0.2727 ( 37)
 CRD  8=   0.1078 (  2) -0.1086 (  3) -0.2085 (  6)  0.2060 (  8)  0.1009 ( 10)
          -0.2326 ( 16)  0.2346 ( 18)  0.1586 ( 20) -0.2854 ( 23)  0.2818 ( 25)
          -0.1585 ( 26) -0.1524 ( 29) -0.2959 ( 30)  0.1972 ( 31)  0.2939 ( 32)
          -0.1942 ( 33)  0.1523 ( 34)  0.2580 ( 36) -0.2553 ( 38)
 CRD  9=  -0.2081 (  6) -0.2103 (  8)  0.1086 ( 10)  0.1106 ( 12) -0.2993 ( 13)
           0.1564 ( 16)  0.1530 ( 18) -0.2638 ( 23) -0.2671 ( 25) -0.1590 ( 30)
           0.3061 ( 31) -0.1626 ( 32)  0.3082 ( 33) -0.3077 ( 35)  0.2241 ( 36)
          -0.3060 ( 37)  0.2274 ( 38)
 CRD 10=   0.2835 (  2) -0.2825 (  3)  0.2090 (  5) -0.2089 (  7)  0.1098 ( 10)
          -0.1086 ( 12) -0.1598 ( 14)  0.1599 ( 15) -0.2559 ( 16)  0.1698 ( 17)
           0.2566 ( 18) -0.1695 ( 19)  0.2782 ( 24) -0.2776 ( 27)  0.2135 ( 29)
          -0.1104 ( 31)  0.1121 ( 33) -0.2134 ( 34)  0.1009 ( 35) -0.1028 ( 37)
          -0.1261 ( 45) -0.1252 ( 48) -0.1677 ( 53) -0.1682 ( 58) -0.1141 ( 63)
          -0.1138 ( 64)
 CRD 11=   0.2692 (  2)  0.2706 (  3)  0.2070 (  4)  0.2418 (  9)  0.1669 ( 10)
           0.2411 ( 11)  0.1671 ( 12)  0.1064 ( 13) -0.1949 ( 21) -0.1952 ( 22)
           0.1241 ( 24)  0.1249 ( 27) -0.1934 ( 28) -0.1295 ( 35)  0.1873 ( 36)
          -0.1298 ( 37)  0.1854 ( 38) -0.1292 ( 39) -0.1612 ( 44) -0.1266 ( 45)
          -0.1926 ( 46) -0.1118 ( 47)  0.1273 ( 48)  0.1122 ( 49)  0.1609 ( 50)
           0.1921 ( 51)  0.1609 ( 59) -0.1611 ( 61) -0.1296 ( 69)  0.1297 ( 70)
 CRD 12=   0.2781 (  5)  0.2788 (  7) -0.1628 (  9)  0.1508 ( 10) -0.1632 ( 11)
           0.1505 ( 12)  0.1825 ( 14)  0.1832 ( 15)  0.1622 ( 16) -0.2199 ( 17)
           0.1619 ( 18) -0.2195 ( 19)  0.1954 ( 21) -0.1192 ( 23) -0.1193 ( 25)
           0.1961 ( 28) -0.1118 ( 29) -0.1128 ( 34)  0.1306 ( 42) -0.1307 ( 43)
          -0.1187 ( 44) -0.1082 ( 45) -0.1162 ( 46)  0.1085 ( 48)  0.1190 ( 50)
           0.1163 ( 51)  0.1560 ( 52)  0.1405 ( 53) -0.1562 ( 57) -0.1403 ( 58)
           0.1872 ( 60) -0.1873 ( 62) -0.1008 ( 65)  0.1005 ( 66)  0.1020 ( 67)
          -0.1020 ( 68)
 CRD 13=  -0.2213 (  5)  0.2205 (  7)  0.2723 (  9) -0.2721 ( 11) -0.3387 ( 14)
           0.3384 ( 15) -0.1307 ( 17)  0.1311 ( 19)  0.1401 ( 20) -0.1921 ( 21)
          -0.1912 ( 24) -0.1403 ( 26)  0.1911 ( 27)  0.1918 ( 28)  0.2343 ( 29)
          -0.1399 ( 31)  0.1399 ( 33) -0.2341 ( 34)  0.1168 ( 36) -0.1168 ( 38)
 CRD 14=   0.1596 (  9) -0.1602 ( 11) -0.2704 ( 20)  0.2078 ( 24)  0.2699 ( 26)
          -0.2080 ( 27) -0.1530 ( 40) -0.1544 ( 41) -0.1109 ( 42) -0.1118 ( 43)
           0.2134 ( 52)  0.2479 ( 53)  0.2302 ( 54)  0.2387 ( 55)  0.2290 ( 56)
           0.2142 ( 57)  0.2489 ( 58)  0.1842 ( 63)  0.1840 ( 64)  0.1495 ( 65)
           0.1495 ( 66)  0.2205 ( 71)
 CRD 15=  -0.4744 (  1)  0.4631 (  4)  0.2499 (  5)  0.2499 (  7) -0.1403 ( 20)
           0.1181 ( 24) -0.1407 ( 26)  0.1184 ( 27)  0.1220 ( 44) -0.1766 ( 47)
           0.1764 ( 49) -0.1222 ( 50) -0.1532 ( 52) -0.1511 ( 53)  0.1529 ( 57)
           0.1508 ( 58) -0.1552 ( 60)  0.1553 ( 62)
 CRD 16=   0.6202 (  1)  0.6161 (  4)  0.2650 ( 39)  0.1473 ( 52) -0.1472 ( 57)
           0.1034 ( 63) -0.1032 ( 64) -0.1386 ( 65)  0.1388 ( 66)
 CRD 17=   0.1007 (  9)  0.1013 ( 11) -0.1069 ( 20)  0.1053 ( 22) -0.1083 ( 26)
           0.2097 ( 39)  0.3091 ( 40) -0.3071 ( 41)  0.1587 ( 42) -0.1576 ( 43)
           0.1221 ( 45) -0.1227 ( 48) -0.2624 ( 53)  0.1169 ( 54) -0.1160 ( 56)
           0.2611 ( 58)  0.2332 ( 59) -0.2353 ( 61)  0.2013 ( 63) -0.2028 ( 64)
           0.2470 ( 67) -0.2449 ( 68) -0.1222 ( 69)  0.1201 ( 70)
 CRD 18=  -0.1664 (  9)  0.1675 ( 11) -0.1384 ( 14)  0.1400 ( 15) -0.1724 ( 40)
          -0.1734 ( 41) -0.1085 ( 42) -0.1096 ( 43)  0.2238 ( 44)  0.1634 ( 46)
           0.2268 ( 50)  0.1643 ( 51)  0.1017 ( 53) -0.2135 ( 54) -0.1515 ( 55)
          -0.2115 ( 56)  0.1041 ( 58)  0.2256 ( 59) -0.1141 ( 60)  0.2249 ( 61)
          -0.1154 ( 62)  0.1096 ( 63)  0.1071 ( 64) -0.1780 ( 67) -0.1791 ( 68)
           0.2853 ( 69)  0.2880 ( 70) -0.2736 ( 71)
 CRD 19=   0.2377 (  5) -0.3018 (  7)  0.3309 (  9) -0.3439 ( 11)  0.2776 ( 14)
          -0.1824 ( 15) -0.1016 ( 23)  0.1504 ( 25) -0.2509 ( 31)  0.2797 ( 33)
          -0.2850 ( 35)  0.1220 ( 36)  0.2577 ( 37) -0.1656 ( 38)  0.1057 ( 61)
 CRD 20=  -0.1309 (  1)  0.1283 (  4) -0.3231 (  5) -0.1106 (  6) -0.2642 (  7)
           0.1581 ( 13)  0.4144 ( 14)  0.4634 ( 15)  0.2385 ( 23)  0.2109 ( 25)
           0.1614 ( 31) -0.1005 ( 32)  0.1039 ( 33) -0.2164 ( 36) -0.1558 ( 37)
          -0.1848 ( 38)
 CRD 21=  -0.1070 (  1)  0.1994 (  4) -0.2938 (  9) -0.2945 ( 11) -0.2749 ( 44)
           0.1845 ( 47) -0.1850 ( 49)  0.2735 ( 50) -0.1321 ( 52) -0.2424 ( 54)
           0.2439 ( 56)  0.1323 ( 57)  0.1498 ( 60) -0.1491 ( 62)  0.1489 ( 63)
          -0.1495 ( 64)  0.2348 ( 65) -0.2348 ( 66) -0.1455 ( 69)  0.1433 ( 70)
 CRD 22=  -0.1220 (  2)  0.1190 (  3) -0.2655 (  5)  0.2654 (  7)  0.2155 (  9)
           0.1624 ( 10) -0.2102 ( 11) -0.1613 ( 12)  0.2428 ( 14) -0.2441 ( 15)
          -0.2379 ( 16)  0.2401 ( 18) -0.1184 ( 20)  0.2279 ( 23) -0.2281 ( 25)
           0.1183 ( 26) -0.1881 ( 30)  0.1863 ( 32)  0.1174 ( 35) -0.2495 ( 36)
          -0.1161 ( 37)  0.2487 ( 38) -0.1027 ( 54) -0.1020 ( 56) -0.1324 ( 71)
 CRD 23=  -0.3023 (  1) -0.2178 (  2) -0.2188 (  3)  0.2353 (  4)  0.1809 (  6)
           0.1807 (  8)  0.3735 (  9)  0.3751 ( 11) -0.2560 ( 13)  0.1762 ( 16)
           0.1736 ( 18) -0.1546 ( 30) -0.1565 ( 32) -0.1118 ( 40)  0.1128 ( 41)
          -0.1066 ( 44)  0.1049 ( 50) -0.1097 ( 54)  0.1123 ( 56) -0.1236 ( 59)
           0.1223 ( 61)
 CRD 24=   0.3266 (  5)  0.1140 (  6) -0.3265 (  7) -0.1142 (  8)  0.1044 (  9)
          -0.1933 ( 10) -0.1052 ( 11)  0.1936 ( 12) -0.2285 ( 14)  0.2288 ( 15)
          -0.1494 ( 16)  0.1492 ( 18) -0.1360 ( 20) -0.1735 ( 24)  0.1360 ( 26)
           0.1736 ( 27) -0.2194 ( 30)  0.2105 ( 31)  0.2195 ( 32) -0.2102 ( 33)
           0.1292 ( 35) -0.1295 ( 37) -0.1233 ( 65) -0.1234 ( 66)  0.1185 ( 67)
           0.1182 ( 68)
 CRD 25=  -0.1568 (  1)  0.1303 (  2)  0.1301 (  3)  0.1414 (  4) -0.3903 (  5)
          -0.3905 (  7) -0.1783 (  9)  0.2916 ( 10) -0.1779 ( 11)  0.2915 ( 12)
          -0.3555 ( 14) -0.3561 ( 15)
 CRD 26=   0.2401 (  2) -0.2403 (  3)  0.1081 (  5) -0.1453 (  6) -0.1075 (  7)
           0.1457 (  8) -0.2192 (  9)  0.2189 ( 11)  0.1883 ( 14) -0.1885 ( 15)
          -0.1201 ( 21)  0.1385 ( 23) -0.1219 ( 24) -0.1387 ( 25)  0.1220 ( 27)
           0.1198 ( 28)  0.1266 ( 29) -0.1265 ( 34)  0.1318 ( 35) -0.1320 ( 37)
          -0.1558 ( 40) -0.1555 ( 41) -0.1441 ( 47) -0.1444 ( 49)  0.1192 ( 54)
           0.1193 ( 56)  0.1703 ( 59)  0.1790 ( 60)  0.1708 ( 61)  0.1785 ( 62)
          -0.2155 ( 65) -0.2158 ( 66)  0.1013 ( 69)  0.1011 ( 70)  0.1949 ( 71)
 CRD 27=  -0.1508 (  2) -0.1507 (  3) -0.1567 (  4)  0.1079 (  5)  0.2355 (  6)
           0.1083 (  7)  0.2354 (  8) -0.2058 (  9) -0.2060 ( 11)  0.3906 ( 13)
          -0.1638 ( 14) -0.1634 ( 15)  0.1331 ( 16)  0.1071 ( 17)  0.1330 ( 18)
           0.1069 ( 19)  0.1075 ( 23)  0.1077 ( 25) -0.2393 ( 30)  0.1104 ( 31)
          -0.2396 ( 32)  0.1101 ( 33)  0.1773 ( 39) -0.1110 ( 44)  0.1106 ( 50)
          -0.1314 ( 54)  0.1317 ( 56) -0.1356 ( 65)  0.1358 ( 66) -0.1407 ( 69)
           0.1404 ( 70)
 CRD 28=   0.2407 (  5) -0.3866 (  6) -0.2406 (  7)  0.3864 (  8)  0.2322 (  9)
          -0.1380 ( 10) -0.2322 ( 11)  0.1383 ( 12)  0.1499 ( 14) -0.1498 ( 15)
           0.1946 ( 16) -0.1945 ( 18)  0.1499 ( 20) -0.1500 ( 26)  0.1184 ( 30)
           0.1050 ( 31) -0.1185 ( 32) -0.1048 ( 33)  0.1899 ( 35) -0.1899 ( 37)
           0.1038 ( 65)  0.1037 ( 66) -0.1252 ( 71)
 CRD 29=  -0.2100 (  1)  0.1635 (  4) -0.1389 (  5)  0.3246 (  6) -0.1393 (  7)
           0.3245 (  8) -0.3493 ( 10) -0.3491 ( 12)  0.1256 ( 14)  0.1248 ( 15)
          -0.2205 ( 23) -0.2209 ( 25)  0.2335 ( 36)  0.2334 ( 38)  0.1195 ( 44)
          -0.1187 ( 50)  0.1393 ( 54) -0.1405 ( 56)
 CRD 30=   0.1699 (  2)  0.1304 (  3) -0.2373 (  4) -0.1647 (  7)  0.1004 (  8)
           0.1373 ( 10) -0.3922 ( 13)  0.1741 ( 14)  0.1549 ( 15) -0.1060 ( 20)
          -0.2113 ( 31) -0.1282 ( 33)  0.1169 ( 37)  0.2001 ( 39) -0.1216 ( 47)
           0.2039 ( 49)  0.1132 ( 50) -0.1531 ( 53) -0.1180 ( 54)  0.1831 ( 58)
          -0.2508 ( 60)  0.1614 ( 62) -0.1538 ( 65)  0.1958 ( 66) -0.1469 ( 67)
           0.1782 ( 68) -0.1646 ( 69)
 CRD 31=   0.1120 (  3) -0.1708 (  5)  0.1004 (  7)  0.1804 (  9) -0.2290 ( 10)
          -0.2023 ( 11)  0.2660 ( 12) -0.1062 ( 13)  0.1040 ( 17) -0.1374 ( 19)
           0.1586 ( 21) -0.1773 ( 23)  0.1236 ( 24)  0.1464 ( 25) -0.1287 ( 27)
          -0.1694 ( 28)  0.1138 ( 30)  0.1070 ( 31) -0.1988 ( 33)  0.1183 ( 35)
          -0.1910 ( 40) -0.1916 ( 41) -0.1131 ( 44) -0.1965 ( 47) -0.1081 ( 49)
          -0.1002 ( 53)  0.1889 ( 59)  0.1101 ( 60)  0.1759 ( 61)  0.2217 ( 62)
          -0.1816 ( 63) -0.1867 ( 64) -0.1262 ( 65) -0.1010 ( 67)  0.1613 ( 70)
           0.1116 ( 71)
 CRD 32=   0.2709 (  2) -0.2698 (  3) -0.2331 (  6)  0.2318 (  8)  0.1353 (  9)
           0.2046 ( 10) -0.1326 ( 11) -0.2067 ( 12) -0.2478 ( 14)  0.2465 ( 15)
           0.1465 ( 21) -0.1440 ( 28) -0.2570 ( 29)  0.1312 ( 30) -0.1293 ( 32)
           0.2561 ( 34) -0.2069 ( 35) -0.1485 ( 36)  0.2058 ( 37)  0.1474 ( 38)
          -0.1035 ( 65) -0.1033 ( 66) -0.1168 ( 71)
 CRD 33=   0.1479 (  2)  0.1519 (  3) -0.1173 (  5) -0.1129 (  6) -0.1190 (  7)
          -0.1144 (  8)  0.2478 (  9) -0.2059 ( 10)  0.2498 ( 11) -0.2059 ( 12)
           0.3165 ( 13) -0.1383 ( 17) -0.1367 ( 19)  0.2429 ( 21) -0.1357 ( 23)
          -0.1370 ( 25)  0.2447 ( 28)  0.1802 ( 30)  0.1773 ( 31)  0.1823 ( 32)
           0.1777 ( 33) -0.1070 ( 36) -0.1076 ( 38) -0.1204 ( 44)  0.1186 ( 50)
          -0.1930 ( 54)  0.1947 ( 56) -0.1531 ( 69)  0.1514 ( 70)
 CRD 34=   0.3169 (  2) -0.3162 (  3) -0.1665 (  5)  0.1663 (  7) -0.2378 ( 10)
           0.2368 ( 12)  0.1502 ( 14) -0.1506 ( 15)  0.1540 ( 17) -0.1545 ( 19)
          -0.1834 ( 20) -0.1634 ( 23) -0.1345 ( 24)  0.1631 ( 25)  0.1832 ( 26)
           0.1345 ( 27)  0.1561 ( 29)  0.1325 ( 30) -0.1317 ( 32) -0.1567 ( 34)
           0.1520 ( 35)  0.1035 ( 36) -0.1523 ( 37) -0.1043 ( 38)  0.1306 ( 40)
           0.1308 ( 41) -0.1256 ( 59) -0.1246 ( 61)  0.1236 ( 63)  0.1234 ( 64)
 CRD 35=  -0.2736 (  1)  0.2180 (  2)  0.2179 (  3) -0.1529 (  4) -0.1155 (  6)
          -0.1153 (  8) -0.1391 ( 16) -0.1391 ( 18) -0.2244 ( 22)  0.2975 ( 39)
          -0.1769 ( 40)  0.1769 ( 41) -0.1235 ( 46)  0.1247 ( 47) -0.1247 ( 49)
           0.1235 ( 51)  0.2142 ( 52) -0.1321 ( 53)  0.1212 ( 54) -0.1216 ( 56)
          -0.2140 ( 57)  0.1323 ( 58)  0.1220 ( 60) -0.1217 ( 62)  0.2178 ( 63)
          -0.2178 ( 64) -0.1285 ( 65)  0.1286 ( 66)  0.1961 ( 69) -0.1958 ( 70)
 CRD 36=   0.2750 (  1) -0.2522 (  4) -0.1129 (  5)  0.1307 (  6) -0.1128 (  7)
           0.1308 (  8)  0.1572 ( 16) -0.1549 ( 17)  0.1571 ( 18) -0.1550 ( 19)
          -0.1723 ( 20)  0.1635 ( 24) -0.1723 ( 26)  0.1633 ( 27) -0.1502 ( 40)
           0.1502 ( 41) -0.1993 ( 45) -0.1290 ( 46) -0.1439 ( 47)  0.1995 ( 48)
           0.1437 ( 49)  0.1289 ( 51) -0.1381 ( 52) -0.1153 ( 53)  0.1231 ( 54)
          -0.1236 ( 56)  0.1384 ( 57)  0.1155 ( 58)  0.1133 ( 60) -0.1128 ( 62)
           0.1709 ( 63) -0.1711 ( 64)  0.1937 ( 65) -0.1939 ( 66)  0.1907 ( 69)
          -0.1902 ( 70)
 CRD 37=   0.1535 ( 42)  0.1539 ( 43) -0.2114 ( 44) -0.1204 ( 45)  0.1172 ( 46)
           0.1591 ( 47) -0.1196 ( 48)  0.1588 ( 49) -0.2115 ( 50)  0.1180 ( 51)
          -0.1744 ( 52) -0.3099 ( 55) -0.1747 ( 57)  0.2205 ( 59) -0.1336 ( 60)
           0.2192 ( 61) -0.1341 ( 62)  0.1867 ( 63)  0.1855 ( 64)  0.1048 ( 65)
           0.1040 ( 66) -0.2399 ( 67) -0.2408 ( 68) -0.1094 ( 69) -0.1091 ( 70)
           0.3737 ( 71)
 CRD 38=  -0.1239 (  4) -0.1329 ( 22) -0.3152 ( 42)  0.3163 ( 43)  0.1250 ( 44)
          -0.2681 ( 45)  0.1978 ( 46)  0.2677 ( 48) -0.1248 ( 50) -0.2007 ( 51)
           0.2052 ( 52) -0.2057 ( 57)  0.2309 ( 63) -0.2302 ( 64)  0.1177 ( 65)
          -0.1172 ( 66)  0.2932 ( 67) -0.2947 ( 68) -0.1400 ( 69)  0.1418 ( 70)
 CRD 39=  -0.2694 ( 42) -0.2667 ( 43)  0.1141 ( 45)  0.3529 ( 46)  0.1162 ( 48)
           0.3523 ( 51)  0.1451 ( 52)  0.1045 ( 53) -0.3623 ( 55)  0.1435 ( 57)
           0.1037 ( 58) -0.1026 ( 63) -0.1042 ( 64)  0.2350 ( 67)  0.2330 ( 68)
          -0.2356 ( 69) -0.2345 ( 70)  0.2819 ( 71)

 THE DETERMINANT OF THE G MATRIX IS 10**(   -13)


                     --------------------
                     INTERNAL COORDINATES
                     --------------------

                 - - ATOMS - -         COORDINATE      COORDINATE
 NO.   TYPE    I  J  K  L  M  N        (BOHR,RAD)       (ANG,DEG)
 ----------------------------------------------------------------
   1 STRETCH   1  8                     2.0913938       1.1067180
   2 STRETCH   1  2                     2.8113726       1.4877144
   3 STRETCH   1  3                     2.8116250       1.4878480
   4 STRETCH   1  9                     2.0978516       1.1101353
   5 STRETCH   2 10                     2.0713122       1.0960913
   6 STRETCH   2  4                     2.5296374       1.3386266
   7 STRETCH   3 11                     2.0711959       1.0960297
   8 STRETCH   3  5                     2.5293610       1.3384803
   9 STRETCH   4 12                     2.0739123       1.0974672
  10 STRETCH   4  6                     2.7367353       1.4482181
  11 STRETCH   5 13                     2.0736387       1.0973224
  12 STRETCH   5  7                     2.7374006       1.4485701
  13 STRETCH   6  7                     2.5370091       1.3425275
  14 STRETCH   6 14                     2.0738822       1.0974513
  15 STRETCH   7 15                     2.0742643       1.0976535
  16 BEND      1  3 11                  2.0310813     116.3723845
  17 BEND      1  3  5                  2.1632883     123.9472904
  18 BEND      1  2 10                  2.0299638     116.3083593
  19 BEND      1  2  4                  2.1644684     124.0149042
  20 BEND      2  1  8                  1.9237594     110.2232966
  21 BEND      2  4  6                  2.1884554     125.3892573
  22 BEND      2  1  3                  1.9393998     111.1194227
  23 BEND      2  4 12                  2.0861698     119.5287265
  24 BEND      2  1  9                  1.9144467     109.6897175
  25 BEND      3  5 13                  2.0867663     119.5629000
  26 BEND      3  1  8                  1.9239211     110.2325604
  27 BEND      3  1  9                  1.9143372     109.6834426
  28 BEND      3  5  7                  2.1870727     125.3100329
  29 BEND      4  6  7                  2.1900037     125.4779720
  30 BEND      4  2 10                  2.0886893     119.6730813
  31 BEND      4  6 14                  2.0103303     115.1834400
  32 BEND      5  3 11                  2.0887509     119.6766111
  33 BEND      5  7 15                  2.0081851     115.0605330
  34 BEND      5  7  6                  2.1948112     125.7534172
  35 BEND      6  7 15                  2.0792146     119.1302219
  36 BEND      6  4 12                  2.0085507     115.0814762
  37 BEND      7  6 14                  2.0819585     119.2874327
  38 BEND      7  5 13                  2.0093403     115.1267210
  39 BEND      8  1  9                  1.8457192     105.7519213
  40 TORSION   1  2  4 12               3.1012191     177.6867684
  41 TORSION   1  3  5 13              -3.1011429    -177.6824001
  42 TORSION   1  2  4  6              -0.0354675      -2.0321396
  43 TORSION   1  3  5  7               0.0365242       2.0926844
  44 TORSION   2  4  6 14               2.6012816     149.0424554
  45 TORSION   2  1  3  5              -1.0185761     -58.3601132
  46 TORSION   2  4  6  7              -0.5862807     -33.5914077
  47 TORSION   2  1  3 11               2.1353273     122.3452401
  48 TORSION   3  1  2  4               1.0186592      58.3648755
  49 TORSION   3  1  2 10              -2.1351480    -122.3349666
  50 TORSION   3  5  7 15              -2.6009591    -149.0239779
  51 TORSION   3  5  7  6               0.5887521      33.7330084
  52 TORSION   4  2  1  9              -1.1010040     -63.0828814
  53 TORSION   4  2  1  8              -3.1263992    -179.1294779
  54 TORSION   4  6  7 15              -3.0940257    -177.2746164
  55 TORSION   4  6  7  5              -0.0023348      -0.1337739
  56 TORSION   5  7  6 14               3.0915596     177.1333175
  57 TORSION   5  3  1  9               1.1011512      63.0913145
  58 TORSION   5  3  1  8               3.1265758     179.1395977
  59 TORSION   6  7  5 13              -2.5566119    -146.4830741
  60 TORSION   6  4  2 10               3.1187271     178.6899003
  61 TORSION   7  6  4 12               2.5600251     146.6786364
  62 TORSION   7  5  3 11              -3.1177631    -178.6346647
  63 TORSION   8  1  3 11              -0.0027061      -0.1550490
  64 TORSION   8  1  2 10               0.0029789       0.1706800
  65 TORSION   9  1  3 11              -2.0281307    -116.2033321
  66 TORSION   9  1  2 10               2.0283741     116.2172765
  67 TORSION  10  2  4 12              -0.0277715      -1.5911917
  68 TORSION  11  3  5 13               0.0277551       1.5902509
  69 TORSION  12  4  6 14              -0.5355979     -30.6875005
  70 TORSION  13  5  7 15               0.5368622      30.7599396
  71 TORSION  14  6  7 15              -0.0001313      -0.0075251

     ------------------------------------------
     THE POINT GROUP IS C1 , NAXIS= 1, ORDER= 1
     ------------------------------------------

     DIMENSIONS OF THE SYMMETRY SUBSPACES ARE
 A   =  181

 ..... DONE SETTING UP THE RUN .....
 STEP CPU TIME =     0.01 TOTAL CPU TIME =        0.0 (    0.0 MIN)
 TOTAL WALL CLOCK TIME=        0.0 SECONDS, CPU UTILIZATION IS  50.00%


          -----------------------------
          STATIONARY POINT LOCATION RUN
          -----------------------------

 OBTAINING INITIAL HESSIAN, HESS=GUESS   
 DIAGONAL GUESS HESSIAN IN INTERNAL COORDS IS
     1  0.3353     2  0.3986     3  0.3985     4  0.3331     5  0.3423
     6  0.5326     7  0.3423     8  0.5328     9  0.3414    10  0.4304
    11  0.3415    12  0.4301    13  0.5286    14  0.3414    15  0.3413
    16  0.2262    17  0.2658    18  0.2262    19  0.2658    20  0.2256
    21  0.2689    22  0.2545    23  0.2355    24  0.2254    25  0.2355
    26  0.2256    27  0.2254    28  0.2688    29  0.2685    30  0.2356
    31  0.2286    32  0.2356    33  0.2285    34  0.2685    35  0.2352
    36  0.2286    37  0.2352    38  0.2286    39  0.2016    40  0.2500
    41  0.2500    42  0.2500    43  0.2500    44  0.2500    45  0.2500
    46  0.2500    47  0.2500    48  0.2500    49  0.2500    50  0.2500
    51  0.2500    52  0.2500    53  0.2500    54  0.2500    55  0.2500
    56  0.2500    57  0.2500    58  0.2500    59  0.2500    60  0.2500
    61  0.2500    62  0.2500    63  0.2500    64  0.2500    65  0.2500
    66  0.2500    67  0.2500    68  0.2500    69  0.2500    70  0.2500
    71  0.2500
 TRANSFORMING HESSIAN TO SYMMETRY COORDINATES

          PARAMETERS CONTROLLING GEOMETRY SEARCH ARE
          METHOD =QA                  UPHESS =BFGS    
          NNEG   =         0          NFRZ   =         3
          NSTEP  =        50          IFOLOW =         1
          HESS   =GUESS               RESTAR =         F
          IHREP  =         0          HSSEND =         F
          NPRT   =         0          NPUN   =         0
          OPTTOL = 5.000E-04          RMIN   = 1.500E-03
          RMAX   = 1.000E-01          RLIM   = 7.000E-02
          DXMAX  = 3.000E-01          PURIFY =         F
          MOVIE  =         F          TRUPD  =         T
          TRMAX  = 5.000E-01          TRMIN  = 5.000E-02
          ITBMAT =         5          STPT   =         F
          STSTEP = 1.000E-02          PROJCT=          F
          FROZEN COORD(S)=   1   2   3


      ***** EQUILIBRIUM GEOMETRY LOCATED *****
            (SUBJECT TO   3 CONSTRAINT(S))
 COORDINATES OF ALL ATOMS ARE (ANGS)
   ATOM   CHARGE       X              Y              Z
 ------------------------------------------------------------
 C           6.0   3.0915745553   3.0025813162   2.9696960697
 C           6.0   3.9662105198   1.7724475981   2.9918778142
 C           6.0   1.6371396685   2.6001335753   2.9917685807
 C           6.0   3.9447425268   0.8449117015   2.0400377018
 C           6.0   1.0702023863   1.8670045703   2.0390411121
 C           6.0   3.0265469281   0.8164422866   0.9006972602
 C           6.0   1.7658712116   1.2652617568   0.9003010549
 H           1.0   3.3161073212   3.6349302339   3.8192440197
 H           1.0   3.2978323303   3.5856755644   2.0729163078
 H           1.0   4.6448960152   1.6555420481   3.8202934437
 H           1.0   1.0361718430   2.9378537728   3.8197624192
 H           1.0   4.6468491600   0.0289918561   2.0978971943
 H           1.0   0.0105871965   1.6776661023   2.0954276842
 H           1.0   3.3778513679   0.3015671681   0.0207450075
 H           1.0   1.1695159265   1.0884544379   0.0195688207


                     --------------------
                     INTERNAL COORDINATES
                     --------------------

                 - - ATOMS - -         COORDINATE      COORDINATE
 NO.   TYPE    I  J  K  L  M  N        (BOHR,RAD)       (ANG,DEG)
 ----------------------------------------------------------------
   1 STRETCH   1  8                     2.0458078       1.0825950
   2 STRETCH   1  2                     2.8526157       1.5095394
   3 STRETCH   1  3                     2.8520669       1.5092489
   4 STRETCH   1  9                     2.0586352       1.0893829
   5 STRETCH   2 10                     2.0357826       1.0772898
   6 STRETCH   2  4                     2.5118314       1.3292040
   7 STRETCH   3 11                     2.0359910       1.0774001
   8 STRETCH   3  5                     2.5116909       1.3291297
   9 STRETCH   4 12                     2.0370743       1.0779734
  10 STRETCH   4  6                     2.7657160       1.4635540
  11 STRETCH   5 13                     2.0368869       1.0778742
  12 STRETCH   5  7                     2.7662248       1.4638232
  13 STRETCH   6  7                     2.5288053       1.3381862
  14 STRETCH   6 14                     2.0377759       1.0783446
  15 STRETCH   7 15                     2.0375678       1.0782345
  16 BEND      1  3 11                  2.0546460     117.7225424
  17 BEND      1  3  5                  2.1503561     123.2063295
  18 BEND      1  2 10                  2.0541529     117.6942890
  19 BEND      1  2  4                  2.1516908     123.2828016
  20 BEND      2  1  8                  1.9222783     110.1384361
  21 BEND      2  4  6                  2.1909634     125.5329563
  22 BEND      2  1  3                  1.9186165     109.9286259
  23 BEND      2  4 12                  2.0705625     118.6344900
  24 BEND      2  1  9                  1.9161986     109.7900927
  25 BEND      3  5 13                  2.0699870     118.6015179
  26 BEND      3  1  8                  1.9221268     110.1297506
  27 BEND      3  1  9                  1.9147635     109.7078657
  28 BEND      3  5  7                  2.1915513     125.5666384
  29 BEND      4  6  7                  2.1953576     125.7847267
  30 BEND      4  2 10                  2.0772915     119.0200330
  31 BEND      4  6 14                  2.0265660     116.1136781
  32 BEND      5  3 11                  2.0781273     119.0679256
  33 BEND      5  7 15                  2.0263810     116.1030779
  34 BEND      5  7  6                  2.1961156     125.8281560
  35 BEND      6  7 15                  2.0558926     117.7939718
  36 BEND      6  4 12                  2.0215927     115.8287271
  37 BEND      7  6 14                  2.0564760     117.8273973
  38 BEND      7  5 13                  2.0215860     115.8283447
  39 BEND      8  1  9                  1.8692895     107.1024010
  40 TORSION   1  2  4 12               3.0727341     176.0546962
  41 TORSION   1  3  5 13              -3.0713765    -175.9769108
  42 TORSION   1  2  4  6              -0.0818327      -4.6886711
  43 TORSION   1  3  5  7               0.0826232       4.7339627
  44 TORSION   2  4  6 14               2.6868969     153.9478504
  45 TORSION   2  1  3  5              -1.0688173     -61.2387181
  46 TORSION   2  4  6  7              -0.5624777     -32.2276002
  47 TORSION   2  1  3 11               2.0842609     119.4193544
  48 TORSION   3  1  2  4               1.0687239      61.2333710
  49 TORSION   3  1  2 10              -2.0837600    -119.3906515
  50 TORSION   3  5  7 15              -2.6859679    -153.8946261
  51 TORSION   3  5  7  6               0.5635651      32.2899044
  52 TORSION   4  2  1  9              -1.0392096     -59.5423216
  53 TORSION   4  2  1  8              -3.0934628    -177.2423600
  54 TORSION   4  6  7 15              -3.0329715    -173.7764659
  55 TORSION   4  6  7  5              -0.0009576      -0.0548678
  56 TORSION   5  7  6 14               3.0311933     173.6745828
  57 TORSION   5  3  1  9               1.0399805      59.5864953
  58 TORSION   5  3  1  8               3.0932788     177.2318220
  59 TORSION   6  7  5 13              -2.5659255    -147.0167030
  60 TORSION   6  4  2 10               3.0707880     175.9431943
  61 TORSION   7  6  4 12               2.5664637     147.0475378
  62 TORSION   7  5  3 11              -3.0706017    -175.9325174
  63 TORSION   8  1  3 11              -0.0368283      -2.1101055
  64 TORSION   8  1  2 10               0.0372386       2.1336175
  65 TORSION   9  1  3 11              -2.0901266    -119.7554322
  66 TORSION   9  1  2 10               2.0914918     119.8336558
  67 TORSION  10  2  4 12              -0.0578304      -3.3134384
  68 TORSION  11  3  5 13               0.0585839       3.3566091
  69 TORSION  12  4  6 14              -0.4673470     -26.7770116
  70 TORSION  13  5  7 15               0.4677267      26.7987664
  71 TORSION  14  6  7 15              -0.0008206      -0.0470153

          INTERNUCLEAR DISTANCES (ANGS.)


 =====================================================
   GAMESS/COSab RESULTS
 =====================================================

   Dielectric Constant                  = INFTY
   Basic Grid Size                      =                 1082
   Number of Segments                   =                   92
   Number of Segments located on spheres=                  243
   Number of Segments of the cavity     =                  598
   Solvent Radius (rsolv)               = 1.40
   Outlying Charge Error Method         = double cavity

 =====================================================

  Total solvated Energy (a.u.)          =  -269.7490550642
  Total Energy corrected (a.u.)         =  -269.7490915198

  Outlying charge effect (a.u.)         =    -0.0000364556
  Outlying charge effect (kcal/mol)     =    -0.0228762439

  Dielectric Energy (a.u.)              =    -0.0064797250
  Dielectric energy corr. (a.u.)        =    -0.0065161806

  Sum of polarization charges           =     0.0241771469
  Sum of polarization charges(cor.)     =    -0.0241771469

  Total surface area of cavity (A**2)   =  136.25
  Total volume of cavity (A**3)         =  130.15

 =====================================================
 NPS=                   598
NR.  ATOM  (X, Y, Z)(a.u.)                  CHARGE(e)  AREA(A**2) SIGMA(e/A**2)
   1   1   9.105431   7.578881   5.698075   0.000170   0.325193   0.000523
   2   1   5.847723   9.419986   5.109719   0.000938   0.371649   0.002523
   3   1   6.310513   9.400255   6.036601   0.000660   0.278737   0.002369
   4   1   8.614233   8.172539   6.210098   0.000358   0.278737   0.001286
   5   1   5.345570   5.328469   9.342607   0.000018   0.185824   0.000097
   6   1   5.560859   4.573435   9.216585  -0.000068   0.046456  -0.001455
   7   1   9.060709   7.308831   6.731356   0.000041   0.185824   0.000219
   8   1   8.451990   8.344756   5.028149   0.000722   0.371649   0.001944
   9   1   7.139361   9.209677   5.293997   0.001127   0.325193   0.003465
  10   1   5.014793   9.359417   5.744829   0.000575   0.418105   0.001376
  11   1   4.270854   9.072504   6.127199   0.000327   0.185824   0.001759
  12   1   9.027825   7.343084   4.449749   0.000451   0.325193   0.001386
  13   1   4.668609   9.055941   4.399601   0.000160   0.185824   0.000863
  14   1   4.608436   9.016158   6.873772  -0.000094   0.185824  -0.000504
  15   1   7.897361   8.839362   5.815650   0.000799   0.278737   0.002865
  16   1   5.938379   5.168737   9.356188  -0.000028   0.046456  -0.000612
  17   1   4.262349   9.033705   4.904133   0.000009   0.185824   0.000049
  18   2   6.306887   3.169902   9.237159  -0.000030   0.278737  -0.000106
  19   2   7.408174   0.423387   8.044426   0.001899   0.278737   0.006814
  20   2  10.887898   4.960798   5.233879   0.001398   0.371649   0.003762
  21   2  10.889302   4.874358   6.315587   0.000641   0.278737   0.002299
  22   2  11.007590   2.014966   6.060695   0.000069   0.092912   0.000744
  23   2   8.339813   0.553814   8.052817   0.000539   0.232280   0.002321
  24   2   6.939167   2.722397   9.339212   0.000189   0.232280   0.000814
  25   2   7.045404   3.883856   9.368184   0.000033   0.185824   0.000179
  26   2   6.148358   1.982891   8.910086   0.001108   0.371649   0.002982
  27   2   6.698605   0.880236   8.402098   0.001345   0.232280   0.005789
  28   2  11.234422   2.808388   5.746817   0.001070   0.278737   0.003840
  29   2  11.201722   3.683874   4.995794   0.002173   0.371649   0.005846
  30   2  10.395642   5.725581   6.127900   0.000637   0.325193   0.001958
  31   2  10.057728   5.794655   6.972093   0.000025   0.139368   0.000180
  32   2   6.235224   0.477857   7.763600   0.001735   0.185824   0.009336
  33   2  10.671173   4.673771   4.090931   0.003670   0.464561   0.007899
  34   2  10.245882   5.788122   4.776339   0.000902   0.418105   0.002158
  35   2  11.216638   3.921416   5.980774   0.001019   0.278737   0.003655
  36   2   7.127289   1.432252   8.890093   0.001259   0.325193   0.003873
  37   2  10.015286   5.543679   7.419599  -0.000201   0.185824  -0.001084
  38   2   9.822214   5.356328   3.453610   0.002339   0.371649   0.006294
  39   2   5.626978   1.092257   8.041233   0.002651   0.418105   0.006339
  40   3   2.812114   7.709323   3.126080   0.000811   0.139368   0.005817
  41   3   2.535454   8.626224   6.087779   0.000281   0.278737   0.001008
  42   3   0.065598   7.144008   5.280006   0.001767   0.278737   0.006340
  43   3   2.543978   2.644059   8.625413   0.001530   0.325193   0.004705
  44   3   2.646433   3.586742   9.164155   0.000657   0.278737   0.002359
  45   3   0.252551   3.443266   7.666145   0.000053   0.092912   0.000576
  46   3  -0.288868   6.569977   5.967343   0.000476   0.278737   0.001706
  47   3   2.402743   8.327246   7.121052  -0.000035   0.278737  -0.000127
  48   3   1.689853   8.420451   5.775595   0.000880   0.325193   0.002705
  49   3   0.699007   7.799537   5.184068   0.001260   0.232280   0.005424
  50   3   0.854232   2.976348   8.002284   0.001117   0.232280   0.004808
  51   3   1.791109   2.328671   8.083834   0.002452   0.325193   0.007541
  52   3   3.615689   3.734995   9.206496   0.000348   0.325193   0.001071
  53   3   3.985226   4.461847   9.298554  -0.000050   0.139368  -0.000357
  54   3   2.432720   8.549158   4.860196   0.000954   0.325193   0.002934
  55   3   2.540936   8.185398   3.844330   0.001166   0.232280   0.005018
  56   3   1.922807   7.860912   3.597873   0.002167   0.232280   0.009328
  57   3   0.874380   7.628990   4.244731   0.001801   0.278737   0.006461
  58   3   3.038407   1.853010   7.870472   0.003223   0.371649   0.008673
  59   3   3.409160   2.710962   8.708698   0.000876   0.232280   0.003771
  60   3   1.548584   3.199625   8.646833   0.000892   0.232280   0.003839
  61   3   0.943982   7.992293   6.082614   0.001210   0.371649   0.003255
  62   3   3.424718   4.909386   9.418557  -0.000261   0.185824  -0.001404
  63   3   1.508607   8.166956   4.564203   0.001391   0.278737   0.004991
  64   4   9.168565   4.304783   1.852081   0.001368   0.139368   0.009813
  65   4  10.136962   1.326222   1.206466   0.000413   0.232280   0.001777
  66   4  11.206812   2.047068   3.818563   0.002163   0.278737   0.007760
  67   4   6.239603  -1.486195   5.672922   0.001697   0.371649   0.004566
  68   4   7.045714  -1.944997   5.109669   0.000917   0.278737   0.003290
  69   4   8.945892  -0.449284   6.661199   0.000059   0.092912   0.000635
  70   4  11.183822   1.302788   4.393500   0.000601   0.232280   0.002587
  71   4  10.035317   0.234312   1.453554  -0.000070   0.278737  -0.000253
  72   4  10.641542   1.584363   1.823696   0.001122   0.325193   0.003451
  73   4  11.071466   2.251812   2.976268   0.001911   0.278737   0.006856
  74   4   8.172533  -0.873573   6.623990   0.001250   0.278737   0.004483
  75   4   7.021118  -0.949311   6.614566   0.002238   0.371649   0.006021
  76   4   6.266630  -1.936447   4.480016   0.001047   0.325193   0.003219
  77   4  10.094669   2.500678   1.306327   0.001240   0.325193   0.003813
  78   4   9.611298   3.668593   1.544402   0.001527   0.232280   0.006573
  79   4  10.043370   3.833347   2.249175   0.002053   0.185824   0.011046
  80   4  10.748676   3.083525   2.749820   0.001546   0.232280   0.006656
  81   4   5.587052  -0.626243   6.274983   0.004585   0.511017   0.008972
  82   4   5.305260  -1.228382   5.152936   0.001872   0.371649   0.005038
  83   4   7.527484  -1.538751   5.964191   0.001177   0.278737   0.004223
  84   4  11.004013   1.267210   2.599539   0.001489   0.371649   0.004007
  85   4   7.088399  -2.161778   3.698767   0.000337   0.278737   0.001208
  86   4  10.458588   2.945651   2.000466   0.002150   0.325193   0.006611
  87   5   0.845722  -0.016403   4.432845   0.000643   0.232280   0.002767
  88   5   0.361611   1.716242   6.724313   0.001368   0.278737   0.004908
  89   5  -0.184811   6.008034   2.046952   0.001762   0.371649   0.004741
  90   5  -0.938426   5.337725   2.355489   0.001161   0.325193   0.003570
  91   5  -0.991534   5.521762   4.960475   0.000173   0.092912   0.001866
  92   5  -0.343664   2.309958   6.536903   0.000648   0.232280   0.002792
  93   5  -0.039437   0.360625   3.851472   0.000402   0.278737   0.001442
  94   5   0.666557   0.267671   5.200578   0.001260   0.325193   0.003874
  95   5   0.761754   1.015689   6.379624   0.001786   0.278737   0.006408
  96   5  -0.890347   5.886451   4.341685   0.000865   0.185824   0.004653
  97   5  -0.392301   6.371213   3.244583   0.002961   0.418105   0.007081
  98   5  -0.342606   4.991045   1.293747   0.000558   0.325193   0.001717
  99   5   1.811005  -0.029806   5.110458   0.001654   0.325193   0.005088
 100   5   2.563849   0.615866   6.200518   0.001914   0.185824   0.010298
 101   5   1.660395   0.879689   6.525111   0.002254   0.232280   0.009706
 102   5   0.702069   6.745028   2.372479   0.003969   0.464561   0.008544
 103   5   0.649858   5.922472   1.271066   0.001738   0.418105   0.004157
 104   5  -0.978215   5.798044   3.495236   0.000965   0.232280   0.004154
 105   5   0.063715   0.816342   5.612215   0.001482   0.371649   0.003989
 106   5  -0.843252   4.197311   1.481613   0.000065   0.278737   0.000235
 107   5   1.869839   6.659221   1.741999   0.003569   0.418105   0.008537
 108   5   1.765843   0.365236   5.906155   0.001715   0.278737   0.006152
 109   6   4.081729  -0.993507   3.975673   0.000385   0.046456   0.008296
 110   6   6.588972  -2.135010   1.738555   0.000257   0.232280   0.001105
 111   6   4.177046  -1.642269   0.375213   0.001887   0.278737   0.006770
 112   6   7.392351   3.707171  -0.905825   0.001539   0.371649   0.004140
 113   6   7.547913   2.772264  -1.368636   0.001080   0.325193   0.003323
 114   6   5.163356   1.925709  -2.016614   0.000004   0.092912   0.000039
 115   6   4.414779  -1.272053  -0.456326   0.000577   0.232280   0.002484
 116   6   7.186251  -1.879710   1.055128  -0.000218   0.185824  -0.001174
 117   6   9.019614   1.081117  -0.081010  -0.000171   0.092912  -0.001845
 118   6   5.749530  -2.234810   1.589837   0.000762   0.278737   0.002734
 119   6   4.549808  -1.997786   1.085393   0.001741   0.278737   0.006246
 120   6   5.587631   2.510153  -1.949136   0.000726   0.185824   0.003908
 121   6   6.279453   3.504033  -1.479814   0.002154   0.418105   0.005151
 122   6   8.502893   3.117219  -0.312274   0.001084   0.371649   0.002916
 123   6   8.913193   1.932015  -0.280917   0.000316   0.232280   0.001358
 124   6   5.438644  -2.101844   2.662075   0.000902   0.278737   0.003237
 125   6   4.493989  -1.544133   3.505736   0.000932   0.139368   0.006689
 126   6   4.201066  -1.673174   2.981208   0.002128   0.232280   0.009159
 127   6   4.057892  -1.842485   1.953598   0.000945   0.185824   0.005083
 128   6   6.633857   4.449977  -0.533243   0.003910   0.418105   0.009351
 129   6   7.884202   4.161017   0.045885   0.001859   0.418105   0.004447
 130   6   6.405057   2.727735  -1.820740   0.000777   0.232280   0.003343
 131   6   5.527930  -2.095937   0.698665   0.001249   0.371649   0.003361
 132   6   8.389699   2.381270  -0.837737   0.000424   0.185824   0.002280
 133   6   4.761273  -2.087255   2.136387   0.001470   0.278737   0.005275
 134   7   2.018962   5.350769  -0.244623   0.000507   0.232280   0.002181
 135   7   4.216814   3.706604  -1.730789   0.001569   0.278737   0.005630
 136   7   1.283948  -0.781659   1.642365   0.001215   0.325193   0.003735
 137   7   0.954979  -0.400254   0.796264   0.000926   0.325193   0.002847
 138   7   3.028184  -0.432290  -0.792269   0.000071   0.092912   0.000762
 139   7   3.824174   2.899264  -2.011980   0.000305   0.232280   0.001315
 140   7   1.875879   4.711828  -0.899266   0.000427   0.232280   0.001838
 141   7   1.261350   4.897256  -0.220788   0.000262   0.185824   0.001411
 142   7   2.873410   5.149437  -0.840391   0.001122   0.325193   0.003450
 143   7   3.991702   4.478766  -1.380374   0.001697   0.278737   0.006089
 144   7   2.688391  -0.778336  -0.252888   0.000847   0.185824   0.004556
 145   7   2.223368  -1.132221   0.906938   0.002456   0.418105   0.005873
 146   7   0.369229   0.056464   1.538550   0.000330   0.278737   0.001184
 147   7   3.060293   5.782631   0.056801   0.001816   0.418105   0.004343
 148   7   4.575009   4.918988  -0.820753   0.001851   0.232280   0.007970
 149   7   2.193367  -1.162749   2.290619   0.003367   0.418105   0.008054
 150   7   1.228866  -0.611418   2.609900   0.001089   0.325193   0.003350
 151   7   1.948695  -0.776576   0.177064   0.000832   0.232280   0.003582
 152   7   3.053998   4.350414  -1.518123   0.001179   0.325193   0.003625
 153   7   0.704395   4.400390  -0.119634   0.000145   0.139368   0.001039
 154   7  -0.008033   0.747589   1.073512  -0.000128   0.185824  -0.000690
 155   7   2.551198  -0.875215   3.432985   0.002454   0.371649   0.006603
 156   7   4.113871   5.447441  -0.381671   0.002890   0.418105   0.006912
 157   8   6.806259   8.354734   9.097877  -0.003775   0.549575  -0.006868
 158   8   7.416252   6.877385   9.388315  -0.001705   0.333671  -0.005110
 159   8   5.670386   6.793301   9.599347  -0.001652   0.353299  -0.004676
 160   8   5.136885   8.685585   8.425269  -0.001940   0.372926  -0.005203
 161   8   6.777115   9.260131   7.456042  -0.001238   0.372926  -0.003319
 162   8   8.344816   7.995043   7.886570  -0.001267   0.353299  -0.003587
 163   8   6.580383   6.841257   9.653689  -0.002147   0.412182  -0.005208
 164   8   5.529919   7.982023   9.279793  -0.002661   0.471065  -0.005650
 165   8   5.957443   9.130676   8.125343  -0.002091   0.431809  -0.004842
 166   8   7.583119   8.809736   7.948975  -0.002335   0.471065  -0.004956
 167   8   7.972943   7.604391   8.824340  -0.002709   0.471065  -0.005750
 168   9   6.522427   8.471774   2.163691  -0.002348   0.392554  -0.005981
 169   9   8.208096   7.292659   2.552269  -0.001592   0.333671  -0.004771
 170   9   7.239556   8.966221   3.445375  -0.001283   0.372926  -0.003442
 171   9   5.299872   8.854187   2.996817  -0.001414   0.372926  -0.003793
 172   9   6.259966   7.569096   1.592326  -0.002577   0.392554  -0.006564
 173   9   7.398220   7.366979   1.837408  -0.002194   0.353299  -0.006209
 174   9   7.579822   8.286136   2.525188  -0.001683   0.314043  -0.005359
 175   9   6.278497   9.133069   3.226631  -0.001487   0.392554  -0.003789
 176   9   5.172056   8.165944   2.191107  -0.002329   0.431809  -0.005394
 177   9   8.148761   8.183327   3.300461  -0.000873   0.294415  -0.002965
 178  10  10.393810   2.860695   9.049927  -0.005104   0.608459  -0.008388
 179  10   8.506453   3.205804   9.659710  -0.001903   0.372926  -0.005102
 180  10   9.872602   4.668082   8.789583  -0.002157   0.314043  -0.006869
 181  10  11.129935   3.731386   7.590952  -0.001563   0.353299  -0.004423
 182  10  10.762813   1.737592   7.618438  -0.001737   0.274788  -0.006321
 183  10   9.121330   1.282272   8.803065  -0.001198   0.314043  -0.003815
 184  10   9.396353   3.846269   9.485808  -0.004027   0.529948  -0.007599
 185  10  10.657468   4.202388   8.380316  -0.002908   0.471065  -0.006173
 186  10  11.119357   2.638717   7.777260  -0.003222   0.510320  -0.006314
 187  10  10.103463   1.467982   8.452092  -0.003429   0.510320  -0.006720
 188  10   9.011945   2.182618   9.474392  -0.003442   0.549575  -0.006262
 189  11   0.568990   6.235797   9.125557  -0.005099   0.608459  -0.008381
 190  11   1.612877   7.757647   8.242942  -0.001785   0.353299  -0.005054
 191  11   2.420465   6.189926   9.545111  -0.002106   0.314043  -0.006706
 192  11   1.319155   4.561204   9.373707  -0.001496   0.353299  -0.004233
 193  11  -0.234208   4.900923   8.115772  -0.001707   0.274788  -0.006212
 194  11  -0.055696   6.950044   7.374963  -0.001727   0.412182  -0.004190
 195  11   1.798904   7.070534   9.142628  -0.003889   0.510320  -0.007621
 196  11   1.757067   5.451008   9.664644  -0.002925   0.471065  -0.006209
 197  11   0.341498   4.788642   8.903383  -0.003188   0.510320  -0.006247
 198  11  -0.358948   5.990724   7.906630  -0.003598   0.529948  -0.006789
 199  11   0.634443   7.413387   8.122374  -0.003246   0.490692  -0.006614
 200  12  10.346860  -1.826424   4.176655  -0.005008   0.608459  -0.008231
 201  12  10.368232  -0.902241   2.351781  -0.001799   0.353299  -0.005092
 202  12   8.811748  -2.216654   3.029207  -0.001756   0.333671  -0.005262
 203  12   8.766371  -2.127078   5.093307  -0.001467   0.353299  -0.004152
 204  12  10.200760  -0.854288   5.751549  -0.001718   0.274788  -0.006252
 205  12  11.235278  -0.053147   4.000119  -0.001661   0.412182  -0.004031
 206  12   9.834761  -1.822696   2.781125  -0.003710   0.510320  -0.007270
 207  12   8.934256  -2.393977   4.087774  -0.002968   0.490692  -0.006048
 208  12   9.683581  -1.646851   5.489358  -0.003168   0.510320  -0.006208
 209  12  10.933129  -0.612230   4.944078  -0.003528   0.529948  -0.006658
 210  12  10.959879  -0.788704   3.204687  -0.003159   0.490692  -0.006438
 211  13  -2.403622   2.782619   4.063473  -0.005375   0.647714  -0.008298
 212  13  -1.377423   1.153449   3.839572  -0.001931   0.392554  -0.004919
 213  13  -1.697458   2.577831   2.306195  -0.002103   0.314043  -0.006695
 214  13  -1.970850   4.396259   3.205689  -0.001491   0.353299  -0.004219
 215  13  -1.831943   4.182499   5.217097  -0.001701   0.274788  -0.006189
 216  13  -1.406801   2.079276   5.635749  -0.001674   0.412182  -0.004062
 217  13  -1.800703   1.806470   3.032432  -0.003083   0.471065  -0.006544
 218  13  -2.090426   3.460389   2.736256  -0.002946   0.490692  -0.006003
 219  13  -2.150396   4.272023   4.292463  -0.003157   0.510320  -0.006186
 220  13  -1.878730   3.107957   5.517327  -0.003537   0.529948  -0.006675
 221  13  -1.702083   1.585762   4.707180  -0.003005   0.471065  -0.006380
 222  14   7.119519  -0.520901  -2.035199  -0.005085   0.608459  -0.008358
 223  14   7.508720  -1.587694  -0.297308  -0.001985   0.353299  -0.005619
 224  14   8.616871   0.151607  -0.894019  -0.001734   0.333671  -0.005198
 225  14   7.433897   1.325935  -2.048739  -0.001286   0.314043  -0.004094
 226  14   5.753487   0.478653  -2.333602  -0.002428   0.372926  -0.006510
 227  14   5.643055  -1.460170  -1.129639  -0.001771   0.412182  -0.004297
 228  14   8.128921  -0.860222  -0.931580  -0.003787   0.510320  -0.007420
 229  14   8.102816   0.598157  -1.715002  -0.003269   0.510320  -0.006405
 230  14   6.655596   0.835263  -2.387821  -0.002484   0.412182  -0.006027
 231  14   5.621247  -0.664842  -1.943214  -0.003605   0.529948  -0.006802
 232  14   6.741658  -1.624792  -1.004856  -0.003152   0.490692  -0.006424
 233  15   0.846805   1.581640  -1.950672  -0.005246   0.628086  -0.008352
 234  15   0.840827   3.526705  -1.377211  -0.001657   0.353299  -0.004691
 235  15  -0.196573   1.970500  -0.448568  -0.002146   0.314043  -0.006833
 236  15   0.795002   0.187737  -0.697170  -0.001358   0.333671  -0.004070
 237  15   2.247606   0.477072  -1.843938  -0.002522   0.372926  -0.006762
 238  15   2.459318   2.701691  -2.320388  -0.001756   0.412182  -0.004259
 239  15   0.158437   2.684130  -1.159895  -0.003390   0.490692  -0.006909
 240  15   0.136612   0.996842  -0.745460  -0.003147   0.490692  -0.006414
 241  15   1.400991   0.302945  -1.480971  -0.002570   0.412182  -0.006234
 242  15   2.361525   1.568868  -2.365930  -0.003771   0.529948  -0.007115
 243  15   1.411255   3.008931  -2.082127  -0.003181   0.490692  -0.006482
 244   1   5.301542   4.152269   9.052218  -0.000261   0.063046  -0.004132
 245   2   5.593718   3.756113   9.022405  -0.000238   0.063046  -0.003783
 246   3   4.825002   4.029291   9.022379  -0.000245   0.063046  -0.003894
 247   1   8.920514   6.723181   7.551835  -0.000127   0.026542  -0.004775
 248   2   9.174738   6.302013   7.539227  -0.000111   0.026542  -0.004197
 249   8   8.756119   6.883674   7.746475  -0.000159   0.026542  -0.005992
 250   1   6.737820   5.202094   9.260875  -0.000138   0.026542  -0.005186
 251   2   7.020071   4.800458   9.226323  -0.000130   0.026542  -0.004911
 252   8   6.768736   5.498696   9.302588  -0.000132   0.026542  -0.004969
 253   1   8.886332   6.626180   3.570183  -0.000020   0.027479  -0.000744
 254   2   9.140992   6.206025   3.598595   0.000066   0.027479   0.002414
 255   9   8.717019   6.774011   3.364930  -0.000067   0.027479  -0.002424
 256   2   9.578716   6.121173   4.147662   0.000342   0.221552   0.001545
 257   2   9.674041   6.225997   6.201972  -0.001081   0.452175  -0.002390
 258   1   9.254687   6.770473   4.921891  -0.000856   0.452175  -0.001893
 259   1   9.193673   6.764210   6.980168  -0.000392   0.221552  -0.001769
 260   2   6.655670   4.134714   9.240508  -0.000574   0.247882  -0.002317
 261   1   6.004558   4.536741   9.198782  -0.000578   0.247882  -0.002332
 262   1   4.849650   5.872597   9.260901  -0.000126   0.026551  -0.004728
 263   3   4.377351   5.739113   9.226335  -0.000125   0.026551  -0.004693
 264   8   5.012691   6.122288   9.302624  -0.000148   0.026551  -0.005591
 265   1   4.115768   8.430994   7.550564  -0.000136   0.026551  -0.005114
 266   3   3.652888   8.264677   7.537948  -0.000118   0.026551  -0.004449
 267   8   4.344474   8.451768   7.745322  -0.000131   0.026551  -0.004930
 268   1   4.080070   8.338322   3.577585  -0.000024   0.027576  -0.000888
 269   3   3.617480   8.173056   3.605831   0.000056   0.027576   0.002041
 270   9   4.304076   8.346048   3.371638  -0.000093   0.027576  -0.003374
 271   3   4.318985   4.705891   9.209095  -0.000521   0.247759  -0.002102
 272   1   4.919797   5.180921   9.230138  -0.000584   0.247759  -0.002358
 273   3   3.250214   8.446685   6.990494  -0.000302   0.220914  -0.001369
 274   3   3.206550   8.491843   4.937287  -0.000474   0.450779  -0.001052
 275   1   3.897522   8.708811   6.193707  -0.001322   0.450779  -0.002932
 276   1   3.904790   8.570106   4.144241   0.000056   0.220914   0.000253
 277   8   5.538464   6.163883   9.452420  -0.000268   0.071511  -0.003752
 278   8   6.386978   5.862624   9.452408  -0.000301   0.071511  -0.004210
 279   1   5.831598   5.643943   9.338563  -0.000733   0.155236  -0.004723
 280   8   8.608449   7.410050   7.713515  -0.000302   0.071340  -0.004230
 281   8   8.173731   8.318840   7.151965  -0.000680   0.159897  -0.004255
 282   8   7.060456   9.102358   6.862990  -0.000558   0.159897  -0.003490
 283   8   5.702269   9.197310   7.151261  -0.000661   0.159897  -0.004134
 284   8   4.791207   8.766871   7.712428  -0.000295   0.071340  -0.004132
 285   1   8.643464   7.601259   7.138545  -0.000650   0.154944  -0.004194
 286   1   7.759750   8.736206   6.527322  -0.000309   0.154944  -0.001996
 287   1   6.287114   9.259648   6.526902  -0.000348   0.154944  -0.002245
 288   1   4.885020   8.937181   7.137475  -0.000610   0.154944  -0.003937
 289   9   4.753264   8.659124   3.374077  -0.000214   0.071562  -0.002984
 290   9   5.677653   9.109083   3.879255  -0.000591   0.159758  -0.003700
 291   9   7.033907   9.025604   4.136907  -0.000491   0.159758  -0.003076
 292   9   8.136620   8.232963   3.875134  -0.000627   0.159758  -0.003927
 293   9   8.566727   7.300403   3.367685  -0.000244   0.071562  -0.003407
 294   1   4.861329   8.858456   3.938303  -0.000508   0.156085  -0.003254
 295   1   6.273150   9.202834   4.486938  -0.000251   0.156085  -0.001605
 296   1   7.736376   8.681493   4.484485  -0.000248   0.156085  -0.001589
 297   1   8.610727   7.522561   3.932019  -0.000529   0.156085  -0.003386
 298   2   4.845426   0.902589   6.927826   0.001665   0.098631   0.016881
 299   3   4.103329   1.238801   6.888656   0.001591   0.098631   0.016130
 300   4   4.855655   0.619623   6.596841   0.001602   0.098631   0.016239
 301   3   3.772857   1.586523   7.537936   0.002790   0.317079   0.008798
 302   3   4.253342   2.938729   8.666334   0.000806   0.636232   0.001267
 303   2   5.042289   1.686010   8.007100   0.003501   0.636232   0.005502
 304   2   5.553191   3.123795   9.009279   0.000030   0.317079   0.000095
 305   2   8.839546   5.280246   2.657597   0.000664   0.082118   0.008091
 306   4   8.809106   4.952747   2.373794   0.000835   0.082118   0.010173
 307   9   8.387666   5.864617   2.551816   0.000127   0.082118   0.001550
 308   2   9.503075   0.549523   7.212020  -0.000045   0.010558  -0.004297
 309   4   9.475914   0.272637   6.880851  -0.000048   0.010558  -0.004515
 310  10   9.616520   0.735292   7.415879  -0.000074   0.010558  -0.007020
 311   2  10.704788   1.197776   5.898725  -0.000046   0.011648  -0.003911
 312   4  10.732229   0.884628   5.601618  -0.000051   0.011648  -0.004379
 313  12  10.742792   0.609882   5.485221  -0.000070   0.011648  -0.006014
 314   4   9.479536   4.425094   2.373470   0.001881   0.170663   0.011019
 315   4  10.624122   3.397501   3.349003   0.004230   0.346619   0.012204
 316   4  10.982874   1.820108   4.878029   0.001045   0.346619   0.003015
 317   2   9.961748   4.486273   3.170099   0.004080   0.346619   0.011770
 318   2  10.989778   3.060740   4.536041   0.002871   0.346619   0.008283
 319   2  10.921400   1.757924   5.807137   0.000083   0.170663   0.000487
 320   4   8.885850  -0.152093   6.847186   0.000095   0.224218   0.000425
 321   4   6.554358  -0.115883   6.864501   0.005223   0.468920   0.011138
 322   2   7.993842   0.240315   7.352046   0.001865   0.468920   0.003976
 323   2   5.677191   0.454830   7.195273   0.002969   0.224218   0.013240
 324   2   7.722357   4.712167   9.192049  -0.000192   0.037143  -0.005179
 325   8   7.421496   5.393273   9.175843  -0.000192   0.037143  -0.005164
 326  10   7.982323   4.568338   9.220485  -0.000249   0.037143  -0.006693
 327   2   9.162357   5.678317   8.148646  -0.000175   0.037143  -0.004707
 328   8   8.691526   6.245384   8.255598  -0.000192   0.037143  -0.005176
 329  10   9.277666   5.437432   8.281898  -0.000218   0.037143  -0.005870
 330   8   6.932042   5.725927   9.364899  -0.000311   0.088813  -0.003502
 331   2   7.420985   4.726643   9.306073  -0.000116   0.125303  -0.000923
 332   8   8.594442   6.838321   8.167040  -0.000502   0.123431  -0.004069
 333   2   9.294946   6.038314   7.825859  -0.000137   0.174103  -0.000788
 334   9   8.518919   6.691832   2.943957  -0.000582   0.202955  -0.002867
 335   2   9.097715   5.731693   3.054424   0.001152   0.286036   0.004028
 336   2  10.610914   1.290836   6.323507  -0.000128   0.026503  -0.004834
 337  10  10.611083   1.405372   6.598694  -0.000189   0.026503  -0.007115
 338  12  10.575400   0.738346   5.865544  -0.000115   0.026503  -0.004331
 339  10  10.869195   1.882108   6.895127  -0.000375   0.067400  -0.005567
 340  10  11.141574   2.947710   6.822349  -0.000603   0.149734  -0.004029
 341  10  10.922645   4.212907   7.180249  -0.000688   0.149734  -0.004597
 342  10  10.134668   4.979527   7.933993  -0.000887   0.149734  -0.005923
 343   2  10.972371   2.236023   6.433645  -0.000568   0.147582  -0.003849
 344   2  11.103428   3.724195   6.536279  -0.000411   0.147582  -0.002782
 345   2  10.506387   4.928950   7.195423  -0.000492   0.147582  -0.003331
 346   2   9.680486   5.420371   7.941402  -0.000350   0.082344  -0.004254
 347  10   8.131405   3.969590   9.432678  -0.000479   0.070055  -0.006842
 348  10   7.925585   2.845538   9.442679  -0.000794   0.156958  -0.005062
 349  10   8.266960   1.589610   8.985771  -0.000653   0.156958  -0.004161
 350  10   9.169741   0.956738   8.156846  -0.000847   0.156958  -0.005398
 351   2   7.632356   3.640040   9.368131  -0.000899   0.152151  -0.005906
 352   2   7.614679   2.104256   9.165891  -0.000386   0.152151  -0.002538
 353   2   8.355493   0.979599   8.400262  -0.000317   0.152151  -0.002083
 354   2   9.271472   0.641254   7.602086  -0.000260   0.085588  -0.003040
 355  12  10.763641   0.404402   5.482181  -0.000152   0.036424  -0.004172
 356   2  10.738299   1.240321   6.157267   0.000029   0.051526   0.000567
 357   3   3.605948   1.228171   6.737642   0.001820   0.127011   0.014331
 358   4   4.394043   0.701887   6.367641   0.002042   0.127011   0.016081
 359   5   3.419262   0.986729   6.423945   0.001996   0.127011   0.015716
 360   3   3.266148   7.262523   2.659314   0.000674   0.082133   0.008203
 361   5   3.083695   6.989308   2.375104   0.000787   0.082133   0.009580
 362   9   3.984836   7.430858   2.553191   0.000167   0.082133   0.002035
 363   3  -0.236399   4.014725   7.203396  -0.000054   0.010436  -0.005211
 364   5  -0.389401   3.782713   6.872012  -0.000047   0.010436  -0.004496
 365  11  -0.206928   4.229942   7.407803  -0.000092   0.010436  -0.008795
 366   3  -0.754147   5.274841   5.887961  -0.000046   0.011720  -0.003935
 367   5  -0.972484   5.049269   5.590446  -0.000061   0.011720  -0.005201
 368  13  -1.153878   4.842593   5.474267  -0.000084   0.011720  -0.007160
 369   5   2.548225   1.114063   6.716818   0.002260   0.168516   0.013412
 370   5   0.978577   1.944780   7.011627   0.002819   0.342001   0.008242
 371   5  -0.304766   3.191941   6.815615   0.000009   0.168516   0.000053
 372   3   2.203617   1.742633   7.304418   0.004116   0.342001   0.012035
 373   3   0.424967   3.038052   7.366011   0.000888   0.342001   0.002595
 374   5  -0.833021   5.502610   5.351913   0.000046   0.170201   0.000269
 375   5  -0.062689   6.553043   4.085214   0.002897   0.345626   0.008381
 376   5   1.631989   7.010352   2.724876   0.004211   0.345626   0.012184
 377   3  -0.310325   6.273142   5.314173   0.000970   0.345626   0.002806
 378   3   0.963224   7.267822   3.790930   0.003922   0.345626   0.011346
 379   3   2.496760   7.344389   2.819460   0.001793   0.170201   0.010533
 380   3   3.268721   7.772222   8.148579  -0.000178   0.037089  -0.004797
 381   8   3.991630   7.915125   8.255552  -0.000203   0.037089  -0.005481
 382  11   3.027061   7.658171   8.281623  -0.000235   0.037089  -0.006340
 383   3   3.775113   6.116741   9.191357  -0.000188   0.037089  -0.005062
 384   8   4.438251   6.455047   9.175246  -0.000186   0.037089  -0.005017
 385  11   3.482579   6.169007   9.219639  -0.000233   0.037089  -0.006270
 386   8   4.448225   8.385924   8.062464  -0.000496   0.123700  -0.004011
 387   3   3.386759   8.070183   7.919948  -0.000177   0.174485  -0.001015
 388   8   4.984541   6.482503   9.354588  -0.000338   0.089465  -0.003779
 389   3   4.059003   5.864015   9.314870  -0.000098   0.126224  -0.000773
 390   9   4.398271   8.020977   2.790883  -0.000529   0.203843  -0.002595
 391   3   3.357247   7.899927   3.202465   0.001000   0.287295   0.003480
 392   3  -0.623098   5.279823   6.321066  -0.000109   0.026356  -0.004126
 393  11  -0.551119   5.369143   6.596232  -0.000131   0.026356  -0.004982
 394  13  -0.943383   4.829401   5.862278  -0.000144   0.026356  -0.005462
 395  11  -0.030432   4.266785   7.865036  -0.000358   0.070218  -0.005101
 396  11   0.800812   3.963773   8.591953  -0.000600   0.157394  -0.003813
 397  11   1.946195   4.322851   9.276824  -0.000738   0.157394  -0.004689
 398  11   2.798679   5.395369   9.458110  -0.000994   0.157394  -0.006315
 399   3   0.337483   3.791251   7.898769  -0.000552   0.152440  -0.003620
 400   3   1.573228   3.699063   8.833287  -0.000376   0.152440  -0.002469
 401   3   2.763107   4.551685   9.349148  -0.000565   0.152440  -0.003707
 402   3   3.381839   5.653552   9.348804  -0.000411   0.085786  -0.004795
 403  11   2.396566   7.759263   8.202073  -0.000428   0.067472  -0.006351
 404  11   1.538829   7.899018   7.522517  -0.000706   0.149918  -0.004712
 405  11   0.449484   7.401547   6.934766  -0.000565   0.149918  -0.003766
 406  11  -0.295711   6.298829   6.843669  -0.000818   0.149918  -0.005454
 407   3   2.353412   7.977351   7.654536  -0.000764   0.147719  -0.005175
 408   3   1.122879   7.867509   6.806205  -0.000374   0.147719  -0.002530
 409   3   0.035005   6.918604   6.403651  -0.000342   0.147719  -0.002312
 410   3  -0.484260   5.819584   6.475029  -0.000295   0.082432  -0.003573
 411  13  -1.299190   4.664438   5.503033  -0.000199   0.038497  -0.005157
 412   3  -0.754064   5.350615   6.124872   0.000037   0.054460   0.000676
 413   4   4.297946  -0.521506   4.757418   0.001081   0.112563   0.009603
 414   5   3.353407  -0.143969   4.739125   0.001052   0.112563   0.009344
 415   6   3.981125  -0.555032   4.397820   0.001056   0.112563   0.009377
 416   5   3.126984   0.196970   5.566525   0.004207   0.555010   0.007580
 417   4   4.556532  -0.112144   5.838587   0.004621   0.555010   0.008326
 418   4   8.323571   4.706167   1.723345   0.001012   0.144981   0.006978
 419   6   8.011419   4.686539   1.355783   0.001009   0.144981   0.006963
 420   9   7.891066   5.598057   1.968149   0.000506   0.144981   0.003489
 421   4   7.641909  -1.977653   2.628649  -0.000100   0.016965  -0.005920
 422   6   7.336437  -1.944668   2.264101  -0.000083   0.016965  -0.004884
 423  12   7.914624  -2.009220   2.746116  -0.000100   0.016965  -0.005912
 424   4   9.329612   0.643672   0.588378  -0.000091   0.016392  -0.005527
 425   6   9.064844   0.625003   0.192353  -0.000101   0.016392  -0.006171
 426  14   8.929753   0.485118  -0.034469  -0.000108   0.016392  -0.006607
 427   6   8.460963   3.965086   0.769212   0.001071   0.218086   0.004912
 428   6   9.060748   2.013203   0.334625  -0.000433   0.446270  -0.000971
 429   4   9.164426   3.250177   1.098686   0.001572   0.446270   0.003523
 430   4   9.618932   1.237210   0.782704  -0.000128   0.218086  -0.000587
 431   6   6.669561  -2.052546   2.363236  -0.000124   0.214808  -0.000577
 432   6   5.116020  -1.510811   3.601675   0.001578   0.438980   0.003594
 433   4   6.490913  -1.888282   3.381622  -0.000217   0.438980  -0.000495
 434   4   4.981033  -1.164350   4.580323   0.001116   0.214808   0.005195
 435   9   8.170788   6.227646   2.261006  -0.000127   0.114848  -0.001108
 436   4   8.718024   4.868767   1.915184   0.000912   0.163470   0.005577
 437   4   9.600303   0.067093   6.585155  -0.000127   0.027600  -0.004602
 438  10   9.687880   0.588374   7.073911  -0.000109   0.027600  -0.003954
 439  12   9.709299  -0.117825   6.377819  -0.000189   0.027600  -0.006844
 440  10   9.729876   0.815497   7.546368  -0.000086   0.016494  -0.005189
 441   4   9.569730   0.089337   6.768214   0.000029   0.023330   0.001234
 442   4   9.138406  -0.690438   1.335890  -0.000208   0.028749  -0.007227
 443  12   9.261973  -0.829880   1.568962  -0.000251   0.028749  -0.008719
 444  14   8.699671  -0.688801   0.720814  -0.000273   0.028749  -0.009509
 445  12   9.798938  -0.804053   1.899346  -0.000422   0.066235  -0.006367
 446  12  10.537133  -0.138297   2.329871  -0.000613   0.146550  -0.004181
 447  12  11.089500   0.411778   3.384078  -0.000455   0.146550  -0.003101
 448  12  11.038716   0.460914   4.693295  -0.000718   0.146550  -0.004902
 449   4   9.947043  -0.251110   1.774014  -0.000714   0.145608  -0.004906
 450   4  10.828504   0.567685   2.624154  -0.000255   0.145608  -0.001749
 451   4  11.125340   0.922296   4.022823  -0.000209   0.145608  -0.001432
 452   4  10.904577   0.815310   5.193084  -0.000230   0.080920  -0.002841
 453  12   9.584261  -0.686349   6.164429  -0.000361   0.067390  -0.005364
 454  12   8.787060  -1.392213   5.884343  -0.000555   0.149640  -0.003710
 455  12   8.112497  -2.039898   4.936487  -0.000593   0.149640  -0.003960
 456  12   8.031675  -2.202979   3.617458  -0.000794   0.149640  -0.005305
 457   4   9.016956  -0.728877   6.323260  -0.000536   0.147635  -0.003633
 458   4   8.028706  -1.627073   5.649277  -0.000335   0.147635  -0.002266
 459   4   7.580883  -2.107729   4.305375  -0.000403   0.147635  -0.002732
 460   4   7.689524  -2.100065   3.095060  -0.000316   0.082332  -0.003843
 461  14   8.762031  -0.046135  -0.038436  -0.001804   0.270681  -0.006665
 462   4   9.312578  -0.144512   0.968649  -0.000897   0.380858  -0.002355
 463   5   2.967788  -0.172905   4.603284   0.000414   0.044942   0.009209
 464   6   3.612927  -0.522529   4.229508   0.000553   0.044942   0.012298
 465   7   3.193092  -0.407184   4.253688   0.000511   0.044942   0.011360
 466   5   3.308413   6.488372   1.719970   0.001069   0.144843   0.007377
 467   7   3.538629   6.276047   1.352652   0.001039   0.144843   0.007176
 468   9   4.205200   6.907865   1.965277   0.000514   0.144843   0.003551
 469   5  -0.378442   0.875555   2.622432  -0.000112   0.016956  -0.006595
 470   7  -0.120196   0.708278   2.258137  -0.000069   0.016956  -0.004061
 471  13  -0.609939   1.023223   2.739660  -0.000157   0.016956  -0.009232
 472   5  -0.027827   3.975651   0.583304  -0.000078   0.016405  -0.004773
 473   7   0.166279   3.794052   0.187428  -0.000125   0.016405  -0.007620
 474  15   0.182903   3.600345  -0.039368  -0.000168   0.016405  -0.010232
 475   7   0.446816   4.336396   0.245949  -0.000418   0.217634  -0.001921
 476   7   2.066133   5.608382   0.563046   0.000953   0.445252   0.002141
 477   5   0.718705   5.147118   0.862956  -0.000225   0.445252  -0.000505
 478   5   2.411721   6.280660   1.298234   0.001300   0.217634   0.005974
 479   7   2.521514  -0.455934   4.045848   0.001310   0.214920   0.006094
 480   7   0.894730  -0.063532   2.844668  -0.000084   0.439217  -0.000190
 481   5   1.549073  -0.076809   4.130751   0.001129   0.439217   0.002571
 482   5   0.003590   0.484559   2.889950  -0.000262   0.214920  -0.001217
 483   9   4.420509   7.526816   2.198355  -0.000075   0.116431  -0.000645
 484   5   3.068344   6.908888   1.972219   0.001017   0.165704   0.006137
 485   5  -0.611086   3.695648   6.579798  -0.000107   0.027648  -0.003863
 486  11  -0.350724   4.155400   7.069119  -0.000138   0.027648  -0.004994
 487  13  -0.812059   3.621226   6.372178  -0.000132   0.027648  -0.004762
 488  11  -0.250364   4.373335   7.532441  -0.000100   0.014991  -0.006697
 489   5  -0.568513   3.685220   6.768003   0.000032   0.021204   0.001532
 490   5  -0.724101   2.817917   1.330277  -0.000220   0.028711  -0.007655
 491  13  -0.908236   2.787839   1.563076  -0.000213   0.028711  -0.007405
 492  15  -0.381981   2.542493   0.715525  -0.000273   0.028711  -0.009501
 493  13  -0.857974   1.009764   3.188376  -0.000361   0.067371  -0.005366
 494  13  -0.785133   0.928320   4.283825  -0.000589   0.149599  -0.003940
 495  13  -0.825610   1.511083   5.480202  -0.000485   0.149599  -0.003240
 496  13  -1.003623   2.686036   6.080507  -0.000777   0.149599  -0.005196
 497   5  -0.459387   0.755867   3.542547  -0.000629   0.147591  -0.004265
 498   5  -0.416030   0.954475   5.024380  -0.000240   0.147591  -0.001626
 499   5  -0.545560   1.996515   6.089521  -0.000267   0.147591  -0.001806
 500   5  -0.734830   3.152194   6.413516  -0.000276   0.082309  -0.003356
 501  13  -1.434328   4.800057   5.085412  -0.000310   0.066144  -0.004694
 502  13  -1.528393   5.011727   4.028433  -0.000487   0.146319  -0.003329
 503  13  -1.520728   4.598748   2.785569  -0.000600   0.146319  -0.004097
 504  13  -1.371493   3.538851   2.030805  -0.000845   0.146319  -0.005778
 505   5  -1.191462   5.211195   4.746392  -0.000439   0.145439  -0.003016
 506   5  -1.267951   5.201670   3.276857  -0.000260   0.145439  -0.001788
 507   5  -1.175109   4.330124   2.094799  -0.000439   0.145439  -0.003019
 508   5  -1.008446   3.252409   1.607751  -0.000405   0.080810  -0.005016
 509  15  -0.118970   2.843287   0.043698  -0.001834   0.271217  -0.006762
 510   5  -0.425982   3.569443   0.883757  -0.000825   0.381609  -0.002163
 511   6   5.920765   5.221728   0.462138   0.002064   0.141584   0.014577
 512   7   5.504861   5.369909   0.461924   0.002023   0.141584   0.014285
 513   9   5.985957   6.068640   1.167341   0.000885   0.141584   0.006252
 514   6   4.361474   1.540190  -1.924300  -0.000080   0.013544  -0.005886
 515   7   3.951622   1.682417  -1.962576  -0.000063   0.013544  -0.004686
 516  15   3.658358   1.662234  -2.015750  -0.000122   0.013544  -0.008996
 517   6   3.760117  -0.148322  -1.178156  -0.000055   0.013544  -0.004068
 518   7   3.343167  -0.026023  -1.207626  -0.000052   0.013544  -0.003834
 519  15   3.104388   0.106778  -1.328402  -0.000114   0.013544  -0.008384
 520   7   5.217117   4.832187  -0.445459   0.002839   0.217750   0.013039
 521   7   4.569862   3.013072  -1.618040   0.001094   0.452554   0.002418
 522   6   5.568802   3.955614  -0.958949   0.004392   0.452554   0.009706
 523   6   4.884433   2.032429  -1.926452  -0.000106   0.217750  -0.000487
 524   7   3.348759  -0.416218  -0.831296   0.000046   0.173415   0.000267
 525   7   3.079390  -1.171409   0.821671   0.002825   0.352336   0.008018
 526   7   3.132198  -1.021115   3.060153   0.003792   0.352336   0.010761
 527   6   3.820905  -0.953440  -0.220237   0.001001   0.352336   0.002840
 528   6   3.633910  -1.476793   1.954002   0.003959   0.352336   0.011237
 529   6   3.799208  -1.010936   3.723416   0.001724   0.173415   0.009941
 530   9   7.583365   6.295014   1.743915  -0.000387   0.272182  -0.001422
 531   9   6.624209   6.554674   1.352471  -0.000328   0.272182  -0.001205
 532   6   7.102540   5.080318   0.659373   0.005170   0.772355   0.006693
 533   6   8.133868  -1.310091   1.037517  -0.000199   0.027926  -0.007122
 534  12   8.592861  -1.341898   1.634967  -0.000260   0.027926  -0.009307
 535  14   8.081916  -1.264951   0.747021  -0.000243   0.027926  -0.008707
 536  12   8.412033  -1.869503   2.490502  -0.001756   0.281002  -0.006248
 537   6   7.802038  -1.682719   1.531297  -0.000889   0.395347  -0.002249
 538   6   4.092696  -0.234172  -1.230981  -0.000121   0.032418  -0.003727
 539  14   4.365998  -0.275733  -1.344408  -0.000195   0.032418  -0.006011
 540  15   3.452166   0.079809  -1.315476  -0.000141   0.032418  -0.004354
 541   6   4.663092   1.365518  -1.939290  -0.000155   0.032418  -0.004776
 542  14   4.879204   1.163570  -1.981700  -0.000225   0.032418  -0.006954
 543  15   3.956270   1.493582  -1.941465  -0.000170   0.032418  -0.005229
 544  14   5.488624   1.199274  -2.158225  -0.000382   0.069966  -0.005462
 545  14   6.496879   1.721694  -2.061386  -0.000685   0.156597  -0.004376
 546  14   7.772832   1.712654  -1.546702  -0.000688   0.156597  -0.004391
 547  14   8.610235   0.949644  -0.765928  -0.000912   0.156597  -0.005827
 548   6   5.649979   1.761549  -2.019561  -0.000643   0.152119  -0.004225
 549   6   7.096254   2.201908  -1.699836  -0.000415   0.152119  -0.002727
 550   6   8.354105   1.742392  -0.928791  -0.000565   0.152119  -0.003714
 551   6   8.917614   0.884492  -0.201841  -0.000304   0.085479  -0.003553
 552  14   7.681259  -1.496077   0.294263  -0.000454   0.071890  -0.006310
 553  14   6.585229  -1.815401   0.043544  -0.000747   0.161920  -0.004614
 554  14   5.382212  -1.502298  -0.619938  -0.000640   0.161920  -0.003955
 555  14   4.800001  -0.746185  -1.294797  -0.000372   0.071890  -0.005171
 556   6   7.211891  -1.695978   0.627098  -0.000774   0.155372  -0.004983
 557   6   5.723015  -1.823023   0.107036  -0.000368   0.155372  -0.002370
 558   6   4.671438  -1.034786  -0.774002  -0.000594   0.155372  -0.003824
 559   9   5.795848   6.849162   1.351491  -0.000308   0.272827  -0.001130
 560   9   4.884261   7.253905   1.741504  -0.000322   0.272827  -0.001181
 561   7   4.495885   6.006850   0.657542   0.005156   0.774055   0.006662
 562   7  -0.336033   1.704836   1.031432  -0.000226   0.027920  -0.008106
 563  13  -0.712817   1.969799   1.628555  -0.000259   0.027920  -0.009284
 564  15  -0.266847   1.707158   0.741084  -0.000229   0.027920  -0.008208
 565  13  -0.976558   1.655735   2.309184  -0.001821   0.281127  -0.006479
 566   7  -0.251407   1.014845   1.684111  -0.000782   0.395520  -0.001977
 567  15   2.605086   0.035346  -1.295554  -0.000342   0.071808  -0.004768
 568  15   1.675647  -0.181493  -0.622683  -0.000671   0.161703  -0.004151
 569  15   0.545655   0.336172   0.038543  -0.000813   0.161703  -0.005028
 570  15  -0.101734   1.275378   0.288367  -0.000469   0.071808  -0.006528
 571   7   2.521534  -0.269219  -0.775085  -0.000555   0.155222  -0.003574
 572   7   1.208242  -0.214505   0.103189  -0.000437   0.155222  -0.002814
 573   7   0.134996   0.824087   0.621419  -0.000795   0.155222  -0.005121
 574  15   0.392465   3.611464  -0.515212  -0.000433   0.069910  -0.006197
 575  15   1.275350   3.905440  -1.172044  -0.000786   0.156454  -0.005023
 576  15   2.402319   3.515883  -1.856939  -0.000607   0.156454  -0.003878
 577  15   3.153330   2.399655  -2.141393  -0.000896   0.156454  -0.005727
 578   7   0.805732   4.046292  -0.479576  -0.000786   0.152011  -0.005170
 579   7   2.076603   4.116818  -1.354267  -0.000350   0.152011  -0.002304
 580   7   3.194289   3.220645  -1.931178  -0.000377   0.152011  -0.002478
 581   7   3.704912   2.077911  -2.047539  -0.000341   0.085410  -0.003993
 582  10   9.199624   5.267124   8.706126  -0.000793   0.306884  -0.002582
 583  10   8.410258   4.737509   9.278089  -0.000819   0.306884  -0.002668
 584   8   7.992108   6.173841   8.955103  -0.002035   0.614917  -0.003310
 585  11   3.257420   6.569753   9.277055  -0.000843   0.306436  -0.002752
 586  11   2.979833   7.477230   8.705440  -0.000792   0.306436  -0.002585
 587   8   4.488485   7.419477   8.954672  -0.002057   0.614010  -0.003351
 588  12  10.391707   0.130991   5.999190  -0.001213   0.431388  -0.002813
 589  10  10.211257   0.965084   7.159092  -0.001229   0.431388  -0.002848
 590  13  -1.132369   4.023535   6.124472  -0.001195   0.430262  -0.002778
 591  11  -0.571063   4.996665   7.025364  -0.001220   0.430262  -0.002835
 592  14   8.455873  -1.055581   0.423231  -0.000674   0.261080  -0.002582
 593  12   9.116788  -1.327488   1.714519  -0.000663   0.261080  -0.002538
 594  15  -0.415608   1.958121   0.463947  -0.000559   0.260520  -0.002145
 595  13  -1.118634   2.457940   1.661480  -0.000519   0.260520  -0.001992
 596  15   3.522381   1.223367  -2.096450  -0.000661   0.272479  -0.002427
 597  15   3.210305   0.348142  -1.708919  -0.000630   0.272479  -0.002313
 598  14   4.689914   0.328185  -1.870226  -0.002097   0.545522  -0.003843
 =====================================================

              2871418  WORDS OF DYNAMIC MEMORY USED
 EXECUTION OF GAMESS TERMINATED NORMALLY Tue Nov 22 19:17:33 2016
 DDI: 263640 bytes (0.3 MB / 0 MWords) used by master data server.

 ----------------------------------------
 CPU timing information for all processes
 ========================================
 0: 833.884 + 0.344 = 834.228
 ----------------------------------------
 ddikick.x: exited gracefully.
