----- GAMESS execution script -----

          ******************************************************
          *         GAMESS VERSION =  5 DEC 2014 (R1)          *
          *             FROM IOWA STATE UNIVERSITY             *
          * M.W.SCHMIDT, K.K.BALDRIDGE, J.A.BOATZ, S.T.ELBERT, *
          *   M.S.GORDON, J.H.JENSEN, S.KOSEKI, N.MATSUNAGA,   *
          *          K.A.NGUYEN, S.J.SU, T.L.WINDUS,           *
          *       TOGETHER WITH M.DUPUIS, J.A.MONTGOMERY       *
          *         J.COMPUT.CHEM.  14, 1347-1363(1993)        *
          **************** 64 BIT LINUX VERSION ****************

 EXECUTION OF GAMESS BEGUN Tue Nov 22 19:04:03 2016

            ECHO OF THE FIRST FEW INPUT CARDS -
 INPUT CARD>! SELECT RESTRICTED HARTREE-FOCK AS DEFAULT                                     
 INPUT CARD>$contrl scftyp=rhf $end                                                         
 INPUT CARD>                                                                                
 INPUT CARD>! THEORY: HF OR DFT                                                             
 INPUT CARD> $contrl mplevl=0 $end                                                          
 INPUT CARD>                                                                                
 INPUT CARD> $system timlim=10000 mwords=20 $end                                            
 INPUT CARD> $SCF DIRSCF=.TRUE. $end                                                        
 INPUT CARD>                                                                                
 INPUT CARD>                                                                                
 INPUT CARD>! BASIS SETS                                                                    
 INPUT CARD>! 6-311G(d,p)                                                                   
 INPUT CARD> $BASIS GBASIS=N311 NGAUSS=6 NDFUNC=1 NPFUNC=1 $END                             
 INPUT CARD>                                                                                
 INPUT CARD>! One of the following                                                          
 INPUT CARD> $guess guess=HUCKEL $end                                                       
 INPUT CARD>                                                                                
 INPUT CARD> $statpt projct=.FALSE. $end                                                    
 INPUT CARD> $STATPT IFREEZ(1)=1,2,3 $END                                                   
 INPUT CARD>                                                                                
 INPUT CARD>! Optimize the geometry with COSMO effects                                      
 INPUT CARD> $statpt opttol=0.0005 nstep=50 $end                                            
 INPUT CARD> $contrl nzvar=1 $end                                                           
 INPUT CARD> $zmat dlc=.t. auto=.t. $end                                                    
 INPUT CARD> $contrl runtyp=OPTIMIZE maxit=200 $end                                         
 INPUT CARD>                                                                                
 INPUT CARD>! Run COSMO on perfect conductor                                                
 INPUT CARD> $COSGMS PRFCND=.TRUE. $end                                                     
 INPUT CARD>                                                                                
 INPUT CARD>! Specifying RSOLV                                                              
 INPUT CARD> $COSGMS COSRAD = 1.4 $end                                                      
 INPUT CARD>                                                                                
 INPUT CARD>! available memory                                                              
 INPUT CARD> $SYSTEM MWORDS=40 $END                                                         
 INPUT CARD>                                                                                
 INPUT CARD> $DATA                                                                          
 INPUT CARD>Benzene, 1,3,5-trimethyl-, ID: C108678                                          
 INPUT CARD>C1                                                                              
 INPUT CARD>C      6.0      1.9240000000    3.9947000000    2.0741000000                    
 INPUT CARD>C      6.0      0.6528000000    4.7609000000    2.1450000000                    
 INPUT CARD>C      6.0      3.0578000000    4.5756000000    1.5050000000                    
 INPUT CARD>C      6.0      4.2496000000    3.8565000000    1.4254000000                    
 INPUT CARD>C      6.0      5.4580000000    4.4858000000    0.8319000000                    
 INPUT CARD>C      6.0      4.3065000000    2.5513000000    1.9149000000                    
 INPUT CARD>C      6.0      3.1771000000    1.9671000000    2.4865000000                    
 INPUT CARD>C      6.0      1.9869000000    2.6913000000    2.5644000000                    
 INPUT CARD>C      6.0      3.2333000000    0.5820000000    3.0220000000                    
 INPUT CARD>H      1.0      0.8332000000    5.8301000000    2.3179000000                    
 INPUT CARD>H      1.0      0.0965000000    4.6679000000    1.2021000000                    
 INPUT CARD>H      1.0      0.0000000000    4.4000000000    2.9507000000                    
   40000000 WORDS OF MEMORY AVAILABLE

     BASIS OPTIONS
     -------------
     GBASIS=N311         IGAUSS=       6      POLAR=POPN311 
     NDFUNC=       1     NFFUNC=       0     DIFFSP=       F
     NPFUNC=       1      DIFFS=       F     BASNAM=        


     RUN TITLE
     ---------
 Benzene, 1,3,5-trimethyl-, ID: C108678                                          

 THE POINT GROUP OF THE MOLECULE IS C1      
 THE ORDER OF THE PRINCIPAL AXIS IS     0

 ATOM      ATOMIC                      COORDINATES (BOHR)
           CHARGE         X                   Y                   Z
 C           6.0     3.6358328004        7.5488884032        3.9194806711
 C           6.0     1.2336131248        8.9967964549        4.0534622437
 C           6.0     5.7784041253        8.6466302294        2.8440376115
 C           6.0     8.0305795574        7.2877282716        2.6936154229
 C           6.0    10.3141244410        8.4769328357        1.5720630492
 C           6.0     8.1381049661        4.8212579125        3.6186362939
 C           6.0     6.0038484356        3.7172799904        4.6988036685
 C           6.0     3.7546965650        5.0858195508        4.8460133229
 C           6.0     6.1100510361        1.0998205249        5.7107519349
 H           1.0     1.5745196930       11.0172914810        4.3801958669
 H           1.0     0.1823585578        8.8210519381        2.2716396098
 H           1.0     0.0000000000        8.3147943460        5.5760144720
 H           1.0     5.6897759764       10.5837883394        2.1146033803
 H           1.0    11.3126556529        9.6096345928        2.9967274713
 H           1.0    11.6507276321        7.0641736873        0.8488649137
 H           1.0     9.8258192458        9.7404036311        0.0000000000
 H           1.0     9.9074554084        3.7494053322        3.4948592417
 H           1.0     2.0766198879        4.2148448430        5.6937444010
 H           1.0     4.4470921669        0.0000000000        5.1349524264
 H           1.0     7.7945527816        0.0761559573        5.0621979759
 H           1.0     6.1544595968        1.1245759353        7.7860490146

          INTERNUCLEAR DISTANCES (ANGS.)




     $CONTRL OPTIONS
     ---------------
 SCFTYP=RHF          RUNTYP=OPTIMIZE     EXETYP=RUN     
 MPLEVL=       0     CITYP =NONE         CCTYP =NONE         VBTYP =NONE    
 DFTTYP=NONE         TDDFT =NONE    
 MULT  =       1     ICHARG=       0     NZVAR =       1     COORD =UNIQUE  
 PP    =NONE         RELWFN=NONE         LOCAL =NONE         NUMGRD=       F
 ISPHER=      -1     NOSYM =       0     MAXIT =     200     UNITS =ANGS    
 PLTORB=       F     MOLPLT=       F     AIMPAC=       F     FRIEND=        
 NPRINT=       7     IREST =       0     GEOM  =INPUT   
 NORMF =       0     NORMP =       0     ITOL  =      20     ICUT  =       9
 INTTYP=BEST         GRDTYP=BEST         QMTTOL= 1.0E-06

     $SYSTEM OPTIONS
     ---------------
  REPLICATED MEMORY=    40000000 WORDS (ON EVERY NODE).
 DISTRIBUTED MEMDDI=           0 MILLION WORDS IN AGGREGATE,
 MEMDDI DISTRIBUTED OVER   1 PROCESSORS IS           0 WORDS/PROCESSOR.
 TOTAL MEMORY REQUESTED ON EACH PROCESSOR=    40000000 WORDS.
 TIMLIM=       10000.00 MINUTES, OR       6.9 DAYS.
 PARALL= F  BALTYP=  DLB     KDIAG=    0  COREFL= F
 MXSEQ2=     300 MXSEQ3=     150  mem10=         0

     $COSGMS OPTIONS
     ---------------
     EPSI  =   INFTY     NSPA  =      92     COSRAD=    1.40
     DISEX =   10.00     OUTCHG=DBLCAV       COSBUG=       F
     COSWRT=       F     DCOSMO=       F

     SYMMETRY COORDINATES WILL NOT BE USED FOR 
     THE COSMO CALCULATION, EVEN IF SPECIFIED:
         -- SWITCHING TO C1 POINT GROUP --


     DEFINITION OF CAVITY
     ---------------------------
     ATOM         COORDINATES           RADIUS 
     1    3.6358    7.5489    3.9195    2.0000
     2    1.2336    8.9968    4.0535    2.0000
     3    5.7784    8.6466    2.8440    2.0000
     4    8.0306    7.2877    2.6936    2.0000
     5   10.3141    8.4769    1.5721    2.0000
     6    8.1381    4.8213    3.6186    2.0000
     7    6.0038    3.7173    4.6988    2.0000
     8    3.7547    5.0858    4.8460    2.0000
     9    6.1101    1.0998    5.7108    2.0000
    10    1.5745   11.0173    4.3802    1.3000
    11    0.1824    8.8211    2.2716    1.3000
    12    0.0000    8.3148    5.5760    1.3000
    13    5.6898   10.5838    2.1146    1.3000
    14   11.3127    9.6096    2.9967    1.3000
    15   11.6507    7.0642    0.8489    1.3000
    16    9.8258    9.7404    0.0000    1.3000
    17    9.9075    3.7494    3.4949    1.3000
    18    2.0766    4.2148    5.6937    1.3000
    19    4.4471    0.0000    5.1350    1.3000
    20    7.7946    0.0762    5.0622    1.3000
    21    6.1545    1.1246    7.7860    1.3000

          ----------------
          PROPERTIES INPUT
          ----------------

     MOMENTS            FIELD           POTENTIAL          DENSITY
 IEMOM =       1   IEFLD =       0   IEPOT =       0   IEDEN =       0
 WHERE =COMASS     WHERE =NUCLEI     WHERE =NUCLEI     WHERE =NUCLEI  
 OUTPUT=BOTH       OUTPUT=BOTH       OUTPUT=BOTH       OUTPUT=BOTH    
 IEMINT=       0   IEFINT=       0                     IEDINT=       0
                                                       MORB  =       0
          EXTRAPOLATION IN EFFECT
          SOSCF IN EFFECT
 ORBITAL PRINTING OPTION: NPREO=     1   243     2     1

     -------------------------------
     INTEGRAL TRANSFORMATION OPTIONS
     -------------------------------
     NWORD  =            0
     CUTOFF = 1.0E-09     MPTRAN =       0
     DIRTRF =       T     AOINTS =DUP     

          ----------------------
          INTEGRAL INPUT OPTIONS
          ----------------------
 NOPK  =       1 NORDER=       0 SCHWRZ=       T


 -----------------------------------------------
  STATISTICS ON AUTOMATIC COORDINATE GENERATION 
 -----------------------------------------------
  NUMBER OF USER SPECIFIED BONDS                             0
  NUMBER OF BONDS                                           21
  NUMBER OF ANGLES                                          36
  NUMBER OF TORSIONS                                        42
  NUMBER OF EXTRA COORD.                                     0
  NUMBER OF EXTRA COORD. FOR CONSTRAINTS                     0
  NUMBER OF CONSTRAINED COORD.                               0

  TOTAL NUMBER OF PRIMITIVES                                99
 -----------------------------------------------

   --- ENCODED Z MATRIX ---
 COORD  TYPE   I   J   K   L   M   N
    1      1    1   2
    2      1    1   3
    3      1    1   8
    4      1    2  12
    5      1    2  11
    6      1    2  10
    7      1    3  13
    8      1    3   4
    9      1    4   6
   10      1    4   5
   11      1    5  14
   12      1    5  15
   13      1    5  16
   14      1    6   7
   15      1    6  17
   16      1    7   9
   17      1    7   8
   18      1    8  18
   19      1    9  21
   20      1    9  20
   21      1    9  19
   22      2    1   8  18
   23      2    1   3   4
   24      2    1   2  11
   25      2    1   8   7
   26      2    1   2  10
   27      2    1   3  13
   28      2    1   2  12
   29      2    2   1   8
   30      2    2   1   3
   31      2    3   4   6
   32      2    3   1   8
   33      2    3   4   5
   34      2    4   3  13
   35      2    4   5  16
   36      2    4   5  15
   37      2    4   5  14
   38      2    4   6  17
   39      2    4   6   7
   40      2    5   4   6
   41      2    6   7   8
   42      2    6   7   9
   43      2    7   9  21
   44      2    7   6  17
   45      2    7   8  18
   46      2    7   9  19
   47      2    7   9  20
   48      2    8   7   9
   49      2   10   2  11
   50      2   10   2  12
   51      2   11   2  12
   52      2   14   5  16
   53      2   14   5  15
   54      2   15   5  16
   55      2   19   9  20
   56      2   19   9  21
   57      2   20   9  21
   58      3    1   3   4   5
   59      3    1   8   7   9
   60      3    1   3   4   6
   61      3    1   8   7   6
   62      3    2   1   3  13
   63      3    2   1   3   4
   64      3    2   1   8   7
   65      3    2   1   8  18
   66      3    3   4   6   7
   67      3    3   1   2  11
   68      3    3   1   2  10
   69      3    3   4   5  16
   70      3    3   4   5  15
   71      3    3   1   8   7
   72      3    3   4   5  14
   73      3    3   1   8  18
   74      3    3   1   2  12
   75      3    3   4   6  17
   76      3    4   6   7   8
   77      3    4   6   7   9
   78      3    4   3   1   8
   79      3    5   4   6   7
   80      3    5   4   6  17
   81      3    5   4   3  13
   82      3    6   4   3  13
   83      3    6   4   5  14
   84      3    6   4   5  15
   85      3    6   4   5  16
   86      3    6   7   9  19
   87      3    6   7   9  20
   88      3    6   7   9  21
   89      3    6   7   8  18
   90      3    8   7   6  17
   91      3    8   1   2  10
   92      3    8   7   9  20
   93      3    8   7   9  19
   94      3    8   1   2  12
   95      3    8   7   9  21
   96      3    8   1   3  13
   97      3    8   1   2  11
   98      3    9   7   8  18
   99      3    9   7   6  17

          INDEP./SYM. INTERNAL COORDINATES
          --------------------------------
 CRD  1=  -0.2006 (  2)  0.2056 (  3) -0.2160 (  8) -0.1052 ( 10)  0.1031 ( 16)
           0.2199 ( 17) -0.1197 ( 26)  0.1338 ( 28)  0.4786 ( 29) -0.4781 ( 30)
          -0.2564 ( 33)  0.2073 ( 40) -0.2238 ( 42)  0.2724 ( 48)
 CRD  2=   0.1212 (  1)  0.1386 (  2)  0.1313 (  3)  0.1133 (  8) -0.2420 (  9)
          -0.2426 ( 14)  0.1055 ( 17)  0.4058 ( 33) -0.1304 ( 36)  0.1098 ( 39)
          -0.4331 ( 40) -0.4240 ( 42) -0.1358 ( 47)  0.3959 ( 48)
 CRD  3=   0.3755 (  1)  0.2275 (  2)  0.2240 (  3)  0.2228 (  8)  0.2310 (  9)
           0.3826 ( 10)  0.2275 ( 14)  0.3826 ( 16)  0.2264 ( 17)  0.1007 ( 37)
           0.1014 ( 43) -0.1000 ( 54)
 CRD  4=   0.1510 ( 22) -0.1441 ( 26) -0.1536 ( 27)  0.1656 ( 28)  0.3338 ( 29)
          -0.3315 ( 30)  0.3330 ( 33)  0.1487 ( 34)  0.1458 ( 35) -0.1588 ( 36)
          -0.1505 ( 38) -0.3272 ( 40)  0.3298 ( 42)  0.1479 ( 44) -0.1511 ( 45)
          -0.1214 ( 46)  0.1732 ( 47) -0.3304 ( 48)
 CRD  5=  -0.2948 ( 24)  0.1321 ( 26) -0.1301 ( 35) -0.1230 ( 36)  0.2860 ( 37)
           0.2769 ( 43) -0.1683 ( 46) -0.2390 ( 58)  0.2371 ( 59)  0.2378 ( 63)
          -0.2377 ( 64)  0.1458 ( 70) -0.1467 ( 74) -0.2391 ( 77)  0.2397 ( 79)
          -0.1419 ( 85)  0.1337 ( 86)  0.1393 ( 91) -0.1506 ( 92)
 CRD  6=   0.4354 (  1) -0.1396 (  9) -0.1883 ( 10) -0.1418 ( 14)  0.1050 ( 15)
          -0.2391 ( 16)  0.1299 ( 23)  0.1024 ( 25)  0.1290 ( 26)  0.1378 ( 28)
           0.1701 ( 29)  0.1569 ( 30)  0.1432 ( 31) -0.3272 ( 32) -0.1565 ( 33)
          -0.1610 ( 34) -0.1867 ( 35)  0.1235 ( 38) -0.2298 ( 39)  0.1816 ( 41)
           0.1063 ( 44) -0.1554 ( 45) -0.1854 ( 46) -0.1685 ( 48) -0.1095 ( 49)
          -0.1258 ( 50) -0.1134 ( 51)
 CRD  7=  -0.1172 (  2)  0.1273 (  3) -0.1240 (  8) -0.3941 ( 10)  0.3675 ( 16)
           0.1308 ( 17) -0.1556 ( 22) -0.1965 ( 23)  0.2109 ( 25)  0.1341 ( 26)
           0.1620 ( 27) -0.1228 ( 28)  0.1025 ( 30)  0.2980 ( 31) -0.1030 ( 33)
          -0.1613 ( 36) -0.1139 ( 38) -0.1950 ( 40) -0.2780 ( 41)  0.1957 ( 42)
           0.1281 ( 44)  0.1679 ( 47)  0.1198 ( 53)  0.1089 ( 54) -0.1026 ( 55)
          -0.1164 ( 57)
 CRD  8=   0.3206 ( 24) -0.1885 ( 26) -0.1372 ( 28)  0.1433 ( 37)  0.1708 ( 43)
          -0.1256 ( 46) -0.1994 ( 62) -0.2803 ( 63)  0.2668 ( 64)  0.1997 ( 65)
           0.1986 ( 66) -0.1137 ( 69)  0.1984 ( 71)  0.1314 ( 73)  0.1256 ( 74)
          -0.2123 ( 76) -0.2483 ( 77) -0.2122 ( 78)  0.2284 ( 79) -0.1133 ( 83)
          -0.1435 ( 85)  0.1425 ( 86)  0.1197 ( 88) -0.1045 ( 91)  0.1065 ( 93)
          -0.1313 ( 96)  0.1157 ( 98) -0.1026 ( 99)
 CRD  9=  -0.1718 ( 35) -0.1209 ( 36)  0.2849 ( 37) -0.2593 ( 43)  0.1947 ( 46)
          -0.2967 ( 58) -0.2936 ( 59) -0.2359 ( 60) -0.2362 ( 61)  0.1026 ( 63)
           0.1342 ( 64)  0.1293 ( 66) -0.1033 ( 67) -0.1089 ( 68)  0.1540 ( 70)
           0.1303 ( 71)  0.1214 ( 75)  0.1059 ( 76)  0.1636 ( 77)  0.1065 ( 78)
           0.1902 ( 79)  0.1823 ( 80) -0.1749 ( 81) -0.1142 ( 82)  0.1049 ( 87)
          -0.1063 ( 89)  0.1138 ( 90) -0.1128 ( 91)  0.1628 ( 92) -0.1026 ( 94)
          -0.1072 ( 97) -0.1636 ( 98)  0.1715 ( 99)
 CRD 10=   0.1440 (  2) -0.1305 (  3) -0.1389 (  7) -0.2167 (  8) -0.3500 (  9)
           0.3473 ( 14)  0.2058 ( 17)  0.1419 ( 18) -0.1069 ( 22)  0.1525 ( 23)
          -0.1560 ( 25) -0.1109 ( 26)  0.1219 ( 27)  0.1223 ( 28) -0.2744 ( 34)
          -0.3846 ( 38)  0.3812 ( 44)  0.2629 ( 45)
 CRD 11=  -0.3205 (  2) -0.3249 (  3)  0.2763 (  8)  0.1623 ( 15)  0.2858 ( 17)
          -0.3787 ( 22) -0.3739 ( 27)  0.2822 ( 34)  0.1063 ( 36) -0.1772 ( 39)
           0.2930 ( 45)  0.1113 ( 47)
 CRD 12=   0.1285 (  2) -0.1259 (  3)  0.1067 (  4) -0.1305 (  8)  0.1296 (  9)
          -0.1110 ( 12) -0.1283 ( 14)  0.1329 ( 17)  0.1177 ( 20) -0.1596 ( 22)
          -0.2832 ( 26)  0.1599 ( 27)  0.3170 ( 28) -0.1603 ( 34)  0.2813 ( 35)
          -0.3300 ( 36)  0.1584 ( 38) -0.1142 ( 43) -0.1586 ( 44)  0.1607 ( 45)
          -0.2403 ( 46)  0.3496 ( 47)  0.1299 ( 49) -0.1146 ( 51) -0.1356 ( 52)
           0.1131 ( 53)  0.1444 ( 56)
 CRD 13=   0.1678 (  5)  0.1067 ( 19)  0.4809 ( 24) -0.2776 ( 26) -0.1939 ( 28)
           0.1661 ( 37)  0.3055 ( 43) -0.2146 ( 46)  0.2027 ( 50) -0.1235 ( 51)
           0.1307 ( 55)  0.1032 ( 63) -0.1266 ( 66)  0.1076 ( 69)  0.1318 ( 70)
          -0.1261 ( 71)  0.1211 ( 72)  0.1557 ( 76)  0.1203 ( 77)  0.1554 ( 78)
          -0.1081 ( 79)  0.1025 ( 83)  0.1132 ( 84) -0.1328 ( 92) -0.1021 ( 95)
 CRD 14=   0.1599 ( 11) -0.1257 ( 19) -0.2664 ( 35) -0.1817 ( 36)  0.4581 ( 37)
          -0.3598 ( 43)  0.2646 ( 46) -0.1190 ( 53)  0.1927 ( 54) -0.1514 ( 55)
           0.1163 ( 57)  0.1126 ( 58)  0.1228 ( 59)  0.1623 ( 60)  0.1624 ( 61)
          -0.1063 ( 66)  0.1237 ( 67)  0.1133 ( 68) -0.1067 ( 71)  0.1260 ( 74)
          -0.1186 ( 86) -0.1053 ( 88)  0.1036 ( 91)  0.1163 ( 94)  0.1140 ( 97)
 CRD 15=   0.1153 (  2) -0.1271 (  3)  0.1440 (  4) -0.1300 (  6)  0.1883 (  7)
           0.1493 (  8) -0.1531 ( 17) -0.2007 ( 18) -0.1531 ( 23)  0.1635 ( 25)
          -0.4174 ( 26)  0.4630 ( 28) -0.2196 ( 35)  0.1753 ( 36)  0.2260 ( 46)
          -0.2344 ( 47)  0.1838 ( 49) -0.1681 ( 51)  0.1072 ( 52) -0.1296 ( 56)
 CRD 16=   0.1133 (  2)  0.1022 (  3)  0.1240 (  7) -0.1533 (  9)  0.1289 ( 12)
          -0.1139 ( 13) -0.1573 ( 14) -0.2245 ( 15)  0.1030 ( 18)  0.1292 ( 20)
          -0.1008 ( 23) -0.3583 ( 35)  0.4217 ( 36)  0.1838 ( 39) -0.2919 ( 46)
           0.4231 ( 47)  0.1502 ( 52) -0.1616 ( 53)  0.1484 ( 56) -0.1377 ( 57)
 CRD 17=  -0.1207 (  1)  0.2364 (  2)  0.2371 (  3)  0.3563 (  7)  0.2363 (  8)
           0.2367 (  9) -0.1214 ( 10)  0.2372 ( 14)  0.3564 ( 15) -0.1214 ( 16)
           0.2355 ( 17)  0.3563 ( 18) -0.1507 ( 23) -0.1508 ( 25)  0.1506 ( 31)
           0.1508 ( 32) -0.1507 ( 39)  0.1507 ( 41)
 CRD 18=  -0.2390 ( 67) -0.2363 ( 68) -0.2346 ( 69) -0.2333 ( 70) -0.2371 ( 72)
          -0.2356 ( 74) -0.2379 ( 83) -0.2341 ( 84) -0.2353 ( 85) -0.2340 ( 86)
          -0.2316 ( 87) -0.2357 ( 88) -0.2342 ( 91) -0.2350 ( 92) -0.2374 ( 93)
          -0.2335 ( 94) -0.2391 ( 95) -0.2369 ( 97)
 CRD 19=   0.1608 (  5) -0.1623 ( 11) -0.1575 ( 19)  0.1162 ( 21)  0.3022 ( 24)
          -0.1674 ( 26) -0.1208 ( 28)  0.1703 ( 35)  0.1206 ( 36) -0.3040 ( 37)
          -0.2936 ( 43)  0.2099 ( 46)  0.1735 ( 50) -0.1083 ( 51)  0.1096 ( 53)
          -0.1752 ( 54) -0.1713 ( 55)  0.1312 ( 57) -0.1681 ( 58)  0.1680 ( 59)
          -0.1095 ( 60)  0.1096 ( 61)  0.1669 ( 63) -0.1672 ( 64)  0.1106 ( 66)
          -0.1085 ( 71) -0.1106 ( 76) -0.1694 ( 77)  0.1084 ( 78)  0.1694 ( 79)
           0.1008 ( 80) -0.1007 ( 99)
 CRD 20=   0.1488 ( 62) -0.1398 ( 65) -0.2219 ( 69) -0.2378 ( 70) -0.2333 ( 72)
          -0.1463 ( 73) -0.2091 ( 75) -0.2057 ( 80) -0.2366 ( 83) -0.2411 ( 84)
          -0.2253 ( 85)  0.2187 ( 86)  0.2340 ( 87)  0.2262 ( 88)  0.2118 ( 90)
           0.2311 ( 92)  0.2158 ( 93)  0.2233 ( 95)  0.1554 ( 96)  0.2089 ( 99)
 CRD 21=  -0.1021 ( 60) -0.1023 ( 61)  0.1539 ( 62)  0.1635 ( 65)  0.2673 ( 67)
           0.2621 ( 68) -0.1435 ( 69) -0.1099 ( 70) -0.1320 ( 72)  0.1631 ( 73)
           0.2619 ( 74) -0.2011 ( 81) -0.2075 ( 82) -0.1255 ( 83) -0.1035 ( 84)
          -0.1371 ( 85) -0.1485 ( 86) -0.1155 ( 87) -0.1417 ( 88) -0.2114 ( 89)
           0.2616 ( 91) -0.1223 ( 92) -0.1552 ( 93)  0.2615 ( 94) -0.1484 ( 95)
           0.1543 ( 96)  0.2669 ( 97) -0.2047 ( 98)
 CRD 22=   0.1245 (  7) -0.2303 ( 11) -0.2378 ( 12) -0.2259 ( 13) -0.1158 ( 16)
          -0.1048 ( 18)  0.2743 ( 19)  0.2810 ( 20)  0.2726 ( 21) -0.1226 ( 22)
          -0.1149 ( 23)  0.1008 ( 27)  0.1121 ( 31)  0.1675 ( 35)  0.1586 ( 36)
           0.1593 ( 37) -0.1287 ( 38) -0.1336 ( 41) -0.1907 ( 43)  0.1104 ( 44)
          -0.1954 ( 46) -0.1928 ( 47) -0.1741 ( 52) -0.1656 ( 53) -0.1781 ( 54)
           0.2111 ( 55)  0.2033 ( 56)  0.2030 ( 57)
 CRD 23=  -0.1228 (  1)  0.2922 (  4)  0.2942 (  5)  0.2938 (  6) -0.1863 ( 11)
          -0.1777 ( 12) -0.1908 ( 13)  0.1319 ( 15) -0.1107 ( 19) -0.1133 ( 21)
          -0.1992 ( 24) -0.2063 ( 26) -0.2093 ( 28) -0.1416 ( 32) -0.1340 ( 34)
           0.1255 ( 35)  0.1377 ( 36)  0.1243 ( 37) -0.1216 ( 39) -0.1323 ( 45)
           0.2120 ( 49)  0.2277 ( 50)  0.2161 ( 51) -0.1275 ( 52) -0.1410 ( 53)
          -0.1448 ( 54)
 CRD 24=  -0.2781 (  4) -0.2730 (  5) -0.2769 (  6) -0.2743 ( 11) -0.2790 ( 12)
          -0.2777 ( 13) -0.2746 ( 19) -0.2798 ( 20) -0.2765 ( 21)  0.1180 ( 24)
           0.1194 ( 26)  0.1196 ( 28)  0.1200 ( 35)  0.1204 ( 36)  0.1178 ( 37)
           0.1180 ( 43)  0.1198 ( 46)  0.1204 ( 47) -0.1247 ( 49) -0.1303 ( 50)
          -0.1257 ( 51) -0.1246 ( 52) -0.1259 ( 53) -0.1315 ( 54) -0.1309 ( 55)
          -0.1240 ( 56) -0.1270 ( 57)
 CRD 25=  -0.3008 ( 12)  0.3356 ( 13)  0.1032 ( 15)  0.1551 ( 19) -0.3621 ( 20)
           0.3182 ( 21)  0.2487 ( 52) -0.2202 ( 53)  0.2917 ( 56) -0.2092 ( 57)
          -0.1066 ( 69)  0.1684 ( 72)  0.1675 ( 83) -0.1075 ( 85)  0.1416 ( 86)
          -0.1798 ( 88)  0.1407 ( 93) -0.1807 ( 95)
 CRD 26=   0.4316 (  4) -0.3830 (  6)  0.2699 ( 12) -0.1328 ( 13) -0.2345 ( 20)
          -0.3153 ( 49)  0.2818 ( 51) -0.1597 ( 52)  0.1356 ( 53)  0.1323 ( 56)
          -0.2145 ( 67)  0.1306 ( 68) -0.1060 ( 72) -0.1063 ( 83)  0.1307 ( 91)
          -0.2144 ( 97)
 CRD 27=   0.2768 (  4) -0.2520 (  6) -0.3240 ( 12)  0.2874 ( 13)  0.3304 ( 20)
          -0.2394 ( 21) -0.2002 ( 49)  0.1795 ( 51)  0.2331 ( 52) -0.2062 ( 53)
          -0.2381 ( 56)  0.1710 ( 57) -0.1373 ( 67)  0.1589 ( 72)  0.1589 ( 83)
          -0.1135 ( 86)  0.1487 ( 88) -0.1136 ( 93)  0.1486 ( 95) -0.1373 ( 97)
 CRD 28=   0.1373 (  4) -0.3529 (  5)  0.1970 (  6)  0.3481 ( 11) -0.1268 ( 12)
          -0.2053 ( 13)  0.3352 ( 19) -0.2529 ( 21)  0.2288 ( 50) -0.1345 ( 51)
           0.1396 ( 53) -0.2263 ( 54) -0.2190 ( 55)  0.1700 ( 57)  0.1153 ( 68)
          -0.1114 ( 69)  0.1455 ( 70) -0.1443 ( 74)  0.1328 ( 84) -0.1241 ( 85)
           0.1063 ( 86) -0.1423 ( 87)  0.1282 ( 91) -0.1550 ( 92) -0.1314 ( 94)
 CRD 29=  -0.4091 ( 11)  0.1592 ( 12)  0.2279 ( 13)  0.4254 ( 19) -0.1045 ( 20)
          -0.3034 ( 21) -0.1135 ( 52) -0.1608 ( 53)  0.2735 ( 54) -0.2857 ( 55)
           0.2113 ( 57)  0.1414 ( 69) -0.1699 ( 70) -0.1588 ( 84)  0.1524 ( 85)
           0.1414 ( 86) -0.1837 ( 87) -0.1956 ( 92)  0.1295 ( 93)
 CRD 30=   0.1956 (  4) -0.4877 (  5)  0.2724 (  6) -0.2724 ( 11)  0.1081 ( 12)
           0.1565 ( 13) -0.2066 ( 19)  0.1538 ( 21) -0.1383 ( 49)  0.3278 ( 50)
          -0.1909 ( 51) -0.1092 ( 53)  0.1836 ( 54)  0.1403 ( 55) -0.1054 ( 57)
           0.1691 ( 68) -0.1166 ( 70) -0.2042 ( 74) -0.1092 ( 84)  0.1822 ( 91)
          -0.1910 ( 94)
 CRD 31=  -0.3639 (  1) -0.2853 (  4) -0.2672 (  5) -0.2921 (  6) -0.1242 (  7)
           0.1674 ( 10)  0.1063 ( 11)  0.2632 ( 12)  0.2314 ( 15)  0.1956 ( 16)
          -0.1064 ( 18)  0.1058 ( 19)  0.2887 ( 20)  0.1499 ( 22)  0.1342 ( 27)
          -0.1525 ( 32) -0.2160 ( 34) -0.1516 ( 39) -0.1002 ( 42) -0.2195 ( 45)
 CRD 32=  -0.1563 (  4)  0.1171 (  6)  0.1955 (  7)  0.3243 ( 10)  0.2454 ( 11)
           0.1923 ( 12)  0.3156 ( 13) -0.3080 ( 16) -0.2059 ( 18) -0.2515 ( 19)
          -0.1680 ( 20) -0.2979 ( 21) -0.1632 ( 22) -0.1284 ( 23)  0.1354 ( 25)
           0.1762 ( 27)  0.1362 ( 31) -0.1001 ( 33) -0.2051 ( 38) -0.1292 ( 41)
           0.2121 ( 44)  0.1014 ( 48)
 CRD 33=  -0.2071 ( 62)  0.2073 ( 65)  0.3185 ( 73) -0.3189 ( 75) -0.2078 ( 80)
           0.2072 ( 81)  0.3180 ( 82) -0.3175 ( 89)  0.3191 ( 90) -0.3180 ( 96)
          -0.2070 ( 98)  0.2077 ( 99)
 CRD 34=  -0.1291 (  4)  0.1184 (  6)  0.1301 ( 12) -0.1172 ( 13) -0.1363 ( 20)
           0.1041 ( 21) -0.3085 ( 22)  0.3088 ( 27)  0.1955 ( 29) -0.1957 ( 30)
           0.1952 ( 33) -0.3083 ( 34)  0.3083 ( 38) -0.1958 ( 40)  0.1956 ( 42)
          -0.3080 ( 44)  0.3085 ( 45) -0.1957 ( 48)
 CRD 35=  -0.2844 (  2)  0.2927 (  3)  0.1512 (  4) -0.1173 (  6) -0.5102 (  7)
          -0.1626 (  8)  0.2042 (  9)  0.1444 ( 12) -0.1295 ( 14)  0.4253 ( 18)
          -0.1201 ( 20) -0.1023 ( 26)  0.1283 ( 28) -0.1416 ( 29)  0.1173 ( 30)
           0.1225 ( 31)  0.1154 ( 36) -0.1437 ( 40) -0.1469 ( 41)  0.1208 ( 42)
 CRD 36=  -0.1961 (  7) -0.2438 (  8)  0.2103 (  9) -0.1445 ( 13)  0.2629 ( 14)
           0.5395 ( 15) -0.2819 ( 17) -0.3432 ( 18)  0.1136 ( 20) -0.1313 ( 21)
           0.1556 ( 32)  0.1512 ( 33) -0.1172 ( 35) -0.1087 ( 46)  0.1022 ( 47)
           0.1504 ( 48)
 CRD 37=   0.1225 (  1) -0.2081 (  2) -0.2075 (  3)  0.1380 (  4)  0.1320 (  5)
           0.1356 (  6)  0.2481 (  7) -0.2077 (  8) -0.2083 (  9)  0.1226 ( 10)
           0.1309 ( 11)  0.1379 ( 12)  0.1370 ( 13) -0.2078 ( 14)  0.2497 ( 15)
           0.1225 ( 16) -0.2086 ( 17)  0.2482 ( 18)  0.1312 ( 19)  0.1399 ( 20)
           0.1349 ( 21) -0.1185 ( 23)  0.1063 ( 24) -0.1184 ( 25)  0.1063 ( 26)
           0.1072 ( 28)  0.1184 ( 31)  0.1184 ( 32)  0.1070 ( 35)  0.1070 ( 36)
           0.1061 ( 37) -0.1182 ( 39)  0.1183 ( 41)  0.1060 ( 43)  0.1062 ( 46)
           0.1080 ( 47) -0.1124 ( 49) -0.1152 ( 50) -0.1136 ( 51) -0.1125 ( 52)
          -0.1128 ( 53) -0.1160 ( 54) -0.1160 ( 55) -0.1115 ( 56) -0.1139 ( 57)
 CRD 38=  -0.2531 (  1) -0.2600 (  2) -0.2626 (  3)  0.1755 (  4)  0.1702 (  5)
           0.1709 (  6)  0.1107 (  7)  0.1381 (  8)  0.1048 (  9)  0.1179 ( 10)
          -0.1181 ( 13)  0.1240 ( 14) -0.2087 ( 15)  0.1365 ( 16)  0.1541 ( 17)
           0.1002 ( 18) -0.1000 ( 19) -0.1247 ( 21)  0.1865 ( 22)  0.1683 ( 24)
           0.1692 ( 26)  0.1751 ( 27)  0.1693 ( 28) -0.2200 ( 34) -0.2266 ( 45)
          -0.1783 ( 49) -0.1811 ( 50) -0.1812 ( 51)  0.1114 ( 52)  0.1247 ( 56)
 CRD 39=  -0.1750 (  7)  0.2205 (  8)  0.2408 (  9)  0.2252 ( 10) -0.1594 ( 11)
          -0.1718 ( 12) -0.1280 ( 13) -0.2328 ( 14) -0.2148 ( 16) -0.2082 ( 17)
           0.1815 ( 18)  0.1470 ( 19)  0.1716 ( 20)  0.1190 ( 21) -0.1446 ( 22)
           0.1590 ( 27) -0.1516 ( 35) -0.1489 ( 36) -0.1498 ( 37) -0.2331 ( 38)
           0.1432 ( 43)  0.2359 ( 44)  0.1444 ( 46)  0.1418 ( 47)  0.1475 ( 52)
           0.1777 ( 53)  0.1553 ( 54) -0.1515 ( 55) -0.1351 ( 56) -0.1712 ( 57)
 CRD 40=   0.3388 (  5) -0.1349 (  6) -0.1257 (  7)  0.1982 ( 11) -0.1123 ( 15)
          -0.1216 ( 18)  0.1688 ( 19) -0.1296 ( 49)  0.1685 ( 50) -0.1607 ( 51)
          -0.1026 ( 53) -0.1051 ( 57)  0.1030 ( 58)  0.1082 ( 63) -0.1038 ( 64)
          -0.1811 ( 70)  0.1685 ( 73) -0.2487 ( 74)  0.2278 ( 75)  0.1195 ( 80)
           0.1629 ( 81) -0.2231 ( 90)  0.2290 ( 91)  0.1673 ( 92) -0.1505 ( 96)
           0.1104 ( 97) -0.1687 ( 98) -0.1311 ( 99)
 CRD 41=   0.2702 ( 11) -0.1135 ( 12) -0.1522 ( 13) -0.2759 ( 19)  0.2105 ( 21)
          -0.1084 ( 53)  0.1850 ( 54) -0.2047 ( 55)  0.1331 ( 57) -0.1152 ( 60)
          -0.1151 ( 61)  0.1761 ( 62)  0.1812 ( 65) -0.1837 ( 70)  0.1673 ( 73)
          -0.1272 ( 77) -0.1252 ( 79) -0.1356 ( 80) -0.2413 ( 82)  0.1349 ( 83)
           0.2407 ( 85)  0.2340 ( 86)  0.1607 ( 88) -0.2305 ( 89) -0.2177 ( 92)
           0.1900 ( 96) -0.1168 ( 99)
 CRD 42=   0.1915 (  1) -0.1147 (  2) -0.1093 (  3) -0.1429 (  4) -0.1605 (  6)
           0.3075 (  7) -0.1087 (  8) -0.1166 (  9)  0.1905 ( 10) -0.1269 ( 12)
          -0.1363 ( 13) -0.1113 ( 14)  0.3090 ( 15)  0.1897 ( 16) -0.1188 ( 17)
           0.3107 ( 18) -0.1027 ( 20) -0.1202 ( 21)  0.1295 ( 23)  0.1311 ( 25)
          -0.1300 ( 31) -0.1310 ( 32)  0.1302 ( 39) -0.1295 ( 41)  0.1809 ( 50)
           0.1531 ( 54)  0.1254 ( 55)
 CRD 43=  -0.3532 (  2)  0.3555 (  3)  0.3622 (  8) -0.3541 (  9)  0.3570 ( 14)
          -0.3603 ( 17)  0.1046 ( 20) -0.1523 ( 22)  0.1542 ( 27) -0.1503 ( 34)
           0.1497 ( 38) -0.1476 ( 44)  0.1519 ( 45)
 CRD 44=   0.2574 (  2) -0.2576 (  3) -0.1837 (  4)  0.1644 (  6) -0.3050 (  7)
           0.2259 (  8) -0.2441 ( 10)  0.1673 ( 13)  0.2405 ( 16) -0.2304 ( 17)
           0.3084 ( 18) -0.1009 ( 19) -0.1581 ( 21) -0.1153 ( 22) -0.1674 ( 23)
           0.1696 ( 25)  0.1131 ( 27)  0.1154 ( 29) -0.1144 ( 30) -0.1246 ( 49)
           0.1150 ( 51) -0.1498 ( 52)  0.1555 ( 56) -0.1037 ( 67) -0.1042 ( 97)
 CRD 45=   0.2807 (  1) -0.1231 (  2) -0.1182 (  3) -0.1008 (  6)  0.1770 (  7)
          -0.1607 (  8)  0.2825 (  9) -0.1377 ( 10)  0.2056 ( 12)  0.2796 ( 14)
          -0.3560 ( 15) -0.1436 ( 16) -0.1565 ( 17)  0.1706 ( 18)  0.2151 ( 20)
          -0.1021 ( 34) -0.1964 ( 39) -0.1046 ( 40) -0.1046 ( 42)  0.1041 ( 49)
           0.1093 ( 50)  0.1013 ( 51) -0.1502 ( 53) -0.1391 ( 57)
 CRD 46=  -0.3337 (  1)  0.1773 (  7) -0.3391 ( 10)  0.1759 ( 15) -0.3392 ( 16)
           0.1773 ( 18) -0.1038 ( 22)  0.2102 ( 23)  0.2102 ( 25) -0.1031 ( 27)
           0.1038 ( 29)  0.1046 ( 30) -0.2108 ( 31) -0.2084 ( 32)  0.1062 ( 33)
          -0.1070 ( 34) -0.1045 ( 38)  0.2098 ( 39)  0.1046 ( 40) -0.2109 ( 41)
           0.1040 ( 42) -0.1053 ( 44) -0.1064 ( 45)  0.1069 ( 48)
 CRD 47=   0.3656 (  1) -0.2452 (  2) -0.2423 (  3)  0.2381 (  8) -0.1852 ( 10)
          -0.1156 ( 12)  0.1597 ( 13) -0.1713 ( 16)  0.2313 ( 17) -0.1293 ( 20)
           0.1422 ( 21)  0.2153 ( 22)  0.2179 ( 27) -0.1143 ( 29) -0.1176 ( 30)
          -0.1177 ( 31)  0.2319 ( 32) -0.1576 ( 34)  0.1195 ( 39) -0.1098 ( 41)
          -0.1517 ( 45) -0.1423 ( 52) -0.1477 ( 56) -0.1052 ( 72) -0.1045 ( 83)
           0.1034 ( 88)  0.1041 ( 95)
 CRD 48=  -0.1258 (  2)  0.1359 (  3)  0.1730 (  4) -0.1527 (  6)  0.1390 (  8)
           0.2767 (  9) -0.3108 ( 10)  0.1426 ( 12) -0.2790 ( 14)  0.3187 ( 16)
          -0.1470 ( 17) -0.1435 ( 20)  0.1066 ( 23) -0.1045 ( 25) -0.1976 ( 31)
          -0.1564 ( 34) -0.2132 ( 38)  0.1212 ( 40)  0.2019 ( 41) -0.1207 ( 42)
           0.2151 ( 44)  0.1628 ( 45)  0.1177 ( 49) -0.1083 ( 51) -0.1198 ( 53)
           0.1096 ( 57)  0.1244 ( 67)  0.1243 ( 97)
 CRD 49=   0.1105 (  4) -0.2627 (  5)  0.1533 (  6)  0.2662 ( 11) -0.1056 ( 12)
          -0.1617 ( 13)  0.2564 ( 19) -0.1962 ( 21)  0.1157 ( 24) -0.1173 ( 37)
          -0.1122 ( 43) -0.1831 ( 50)  0.1059 ( 51) -0.1117 ( 53)  0.1856 ( 54)
           0.1785 ( 55) -0.1359 ( 57) -0.1232 ( 58)  0.1230 ( 59) -0.1047 ( 60)
           0.1046 ( 61)  0.1215 ( 63) -0.1216 ( 64)  0.1060 ( 66) -0.1567 ( 68)
           0.1570 ( 69) -0.1604 ( 70) -0.1033 ( 71)  0.1563 ( 74) -0.1059 ( 76)
          -0.1244 ( 77)  0.1033 ( 78)  0.1245 ( 79) -0.1789 ( 84)  0.1384 ( 85)
          -0.1159 ( 86)  0.1895 ( 87) -0.1383 ( 91)  0.1709 ( 92) -0.1345 ( 93)
           0.1747 ( 94)
 CRD 50=   0.1050 (  2) -0.1046 (  3)  0.2263 (  4) -0.2044 (  6) -0.1067 (  8)
           0.1049 (  9) -0.2306 ( 12)  0.2058 ( 13) -0.1047 ( 14)  0.1070 ( 17)
           0.2449 ( 20) -0.1780 ( 21)  0.1243 ( 26) -0.1373 ( 28)  0.1226 ( 29)
          -0.1220 ( 30)  0.1243 ( 33) -0.1252 ( 35)  0.1399 ( 36) -0.1245 ( 40)
           0.1251 ( 42)  0.1087 ( 46) -0.1482 ( 47) -0.1238 ( 48)  0.1581 ( 49)
          -0.1422 ( 51) -0.1612 ( 52)  0.1431 ( 53)  0.1716 ( 56) -0.1233 ( 57)
           0.1833 ( 67) -0.1059 ( 68)  0.1093 ( 69) -0.1854 ( 72) -0.1855 ( 83)
           0.1091 ( 85)  0.1333 ( 86) -0.1798 ( 88) -0.1059 ( 91)  0.1335 ( 93)
          -0.1796 ( 95)  0.1833 ( 97)
 CRD 51=   0.2271 (  2) -0.2264 (  3)  0.2571 (  4) -0.2314 (  6) -0.1299 (  7)
          -0.1651 (  9)  0.1180 ( 12) -0.1253 ( 13)  0.1630 ( 14)  0.1293 ( 18)
          -0.1218 ( 20)  0.1068 ( 21) -0.1370 ( 23)  0.1365 ( 25)  0.1601 ( 26)
          -0.1777 ( 28)  0.2063 ( 29) -0.2062 ( 30) -0.1511 ( 33) -0.1027 ( 36)
           0.1055 ( 47)  0.1487 ( 48)  0.1800 ( 49) -0.1609 ( 51)  0.1046 ( 52)
          -0.1078 ( 56)  0.2154 ( 67) -0.1276 ( 68)  0.1082 ( 72)  0.1088 ( 83)
           0.1028 ( 88) -0.1274 ( 91)  0.1020 ( 95)  0.2157 ( 97)
 CRD 52=  -0.1024 (  1) -0.2256 (  8)  0.1657 (  9) -0.2290 ( 12)  0.1892 ( 13)
           0.1661 ( 14) -0.1498 ( 15) -0.2270 ( 17) -0.2438 ( 20)  0.1642 ( 21)
          -0.1106 ( 32)  0.1492 ( 33) -0.1437 ( 35)  0.1459 ( 36) -0.1586 ( 39)
          -0.2052 ( 40) -0.2065 ( 42) -0.1263 ( 46)  0.1562 ( 47)  0.1505 ( 48)
          -0.1475 ( 52)  0.1443 ( 53) -0.1587 ( 56)  0.1260 ( 57)  0.1109 ( 69)
          -0.1852 ( 72) -0.1861 ( 83)  0.1100 ( 85) -0.1347 ( 86)  0.1816 ( 88)
          -0.1356 ( 93)  0.1806 ( 95)
 CRD 53=  -0.1017 (  4)  0.2441 (  5) -0.1405 (  6)  0.1231 ( 11)  0.1113 ( 19)
          -0.1434 ( 24)  0.1685 ( 50) -0.1868 ( 63)  0.1908 ( 64)  0.1962 ( 68)
           0.1797 ( 69)  0.1014 ( 71)  0.1124 ( 72) -0.1197 ( 74) -0.2406 ( 75)
          -0.1389 ( 77)  0.1439 ( 79) -0.1949 ( 80) -0.2114 ( 81) -0.1658 ( 82)
           0.1339 ( 85) -0.1221 ( 86)  0.1740 ( 89)  0.2447 ( 90)  0.1066 ( 91)
          -0.1666 ( 93) -0.2093 ( 94) -0.1273 ( 95)  0.2181 ( 98)  0.2002 ( 99)
 CRD 54=   0.2048 ( 11) -0.1211 ( 13) -0.2029 ( 19)  0.1506 ( 21) -0.1213 ( 37)
           0.1198 ( 43)  0.1417 ( 54) -0.1406 ( 55)  0.1053 ( 57) -0.1902 ( 58)
          -0.1910 ( 59) -0.1134 ( 60) -0.1135 ( 61) -0.2396 ( 62) -0.2386 ( 65)
           0.1125 ( 69) -0.1535 ( 70) -0.2378 ( 73)  0.1378 ( 77)  0.1303 ( 79)
           0.1397 ( 80)  0.1103 ( 81)  0.1871 ( 82) -0.2306 ( 84) -0.2396 ( 87)
           0.1772 ( 89) -0.1615 ( 92)  0.1019 ( 93) -0.2404 ( 96)  0.1284 ( 99)
 CRD 55=  -0.2440 ( 60) -0.2437 ( 61) -0.1432 ( 62)  0.1221 ( 63)  0.1225 ( 64)
          -0.1396 ( 65)  0.1199 ( 66) -0.2400 ( 69)  0.1204 ( 71) -0.1799 ( 72)
          -0.1417 ( 73)  0.1232 ( 75)  0.1231 ( 76) -0.1655 ( 77)  0.1242 ( 78)
          -0.1663 ( 79) -0.1630 ( 80)  0.3069 ( 81)  0.1066 ( 83)  0.1906 ( 84)
           0.1992 ( 87)  0.1197 ( 90) -0.2297 ( 93) -0.1922 ( 95) -0.1411 ( 96)
           0.3039 ( 98) -0.1689 ( 99)
 CRD 56=  -0.1148 ( 24) -0.1653 ( 58)  0.1659 ( 59) -0.2700 ( 62) -0.1202 ( 63)
           0.1188 ( 64)  0.2752 ( 65) -0.2115 ( 66)  0.1731 ( 67)  0.2432 ( 68)
          -0.2123 ( 71)  0.2092 ( 76)  0.2100 ( 78)  0.2590 ( 80)  0.1510 ( 82)
          -0.1284 ( 83) -0.1775 ( 84)  0.1793 ( 87)  0.1205 ( 88) -0.1525 ( 89)
          -0.2549 ( 94) -0.1589 ( 97) -0.2586 ( 99)
 CRD 57=  -0.2699 ( 60)  0.2701 ( 61) -0.2088 ( 62)  0.2100 ( 65)  0.2704 ( 66)
           0.1217 ( 67)  0.1498 ( 68) -0.1497 ( 69) -0.2696 ( 71) -0.1220 ( 72)
          -0.2702 ( 76)  0.2694 ( 78) -0.2102 ( 80)  0.2089 ( 81)  0.1157 ( 83)
           0.1545 ( 84) -0.1577 ( 87) -0.1103 ( 88)  0.1449 ( 93) -0.1542 ( 94)
           0.1277 ( 95) -0.1157 ( 97) -0.2079 ( 98)  0.2114 ( 99)

 THE DETERMINANT OF THE G MATRIX IS 10**(   -24)


                     --------------------
                     INTERNAL COORDINATES
                     --------------------

                 - - ATOMS - -         COORDINATE      COORDINATE
 NO.   TYPE    I  J  K  L  M  N        (BOHR,RAD)       (ANG,DEG)
 ----------------------------------------------------------------
   1 STRETCH   1  2                     2.8080328       1.4859471
   2 STRETCH   1  3                     2.6367076       1.3952857
   3 STRETCH   1  8                     2.6342550       1.3939878
   4 STRETCH   2 12                     2.0748719       1.0979750
   5 STRETCH   2 11                     2.0762741       1.0987170
   6 STRETCH   2 10                     2.0749391       1.0980106
   7 STRETCH   3 13                     2.0718375       1.0963693
   8 STRETCH   3  4                     2.6346794       1.3942124
   9 STRETCH   4  6                     2.6364183       1.3951326
  10 STRETCH   4  5                     2.8083206       1.4860994
  11 STRETCH   5 14                     2.0759929       1.0985682
  12 STRETCH   5 15                     2.0749487       1.0980156
  13 STRETCH   5 16                     2.0751344       1.0981139
  14 STRETCH   6  7                     2.6344980       1.3941164
  15 STRETCH   6 17                     2.0723874       1.0966603
  16 STRETCH   7  9                     2.8082757       1.4860756
  17 STRETCH   7  8                     2.6369026       1.3953889
  18 STRETCH   8 18                     2.0720005       1.0964555
  19 STRETCH   9 21                     2.0759198       1.0985295
  20 STRETCH   9 20                     2.0751042       1.0980979
  21 STRETCH   9 19                     2.0752307       1.0981649
  22 BEND      1  8 18                  2.0948542     120.0263036
  23 BEND      1  3  4                  2.0980648     120.2102566
  24 BEND      1  2 11                  1.9268234     110.3988508
  25 BEND      1  8  7                  2.0991590     120.2729501
  26 BEND      1  2 10                  1.9487952     111.6577396
  27 BEND      1  3 13                  2.0922103     119.8748222
  28 BEND      1  2 12                  1.9542790     111.9719361
  29 BEND      2  1  8                  2.0989528     120.2611387
  30 BEND      2  1  3                  2.0943338     119.9964854
  31 BEND      3  4  6                  2.0913482     119.8254266
  32 BEND      3  1  8                  2.0898613     119.7402322
  33 BEND      3  4  5                  2.0937905     119.9653612
  34 BEND      4  3 13                  2.0929101     119.9149184
  35 BEND      4  5 16                  1.9487678     111.6561725
  36 BEND      4  5 15                  1.9548355     112.0038216
  37 BEND      4  5 14                  1.9263266     110.3703867
  38 BEND      4  6 17                  2.0917778     119.8500387
  39 BEND      4  6  7                  2.0976900     120.1887816
  40 BEND      5  4  6                  2.0980022     120.2066691
  41 BEND      6  7  8                  2.0902419     119.7620366
  42 BEND      6  7  9                  2.1032876     120.5095028
  43 BEND      7  9 21                  1.9282940     110.4831084
  44 BEND      7  6 17                  2.0937176     119.9611797
  45 BEND      7  8 18                  2.0891719     119.7007321
  46 BEND      7  9 19                  1.9430088     111.3262037
  47 BEND      7  9 20                  1.9582858     112.2015086
  48 BEND      8  7  9                  2.0896331     119.7271585
  49 BEND     10  2 11                  1.8762700     107.5023495
  50 BEND     10  2 12                  1.8778005     107.5900437
  51 BEND     11  2 12                  1.8764181     107.5108360
  52 BEND     14  5 16                  1.8763956     107.5095508
  53 BEND     14  5 15                  1.8763739     107.5083055
  54 BEND     15  5 16                  1.8776804     107.5831603
  55 BEND     19  9 20                  1.8779429     107.5982030
  56 BEND     19  9 21                  1.8763718     107.5081836
  57 BEND     20  9 21                  1.8764996     107.5155046
  58 TORSION   1  3  4  5              -3.1297404    -179.3209161
  59 TORSION   1  8  7  9               3.1337860     179.5527108
  60 TORSION   1  3  4  6               0.0017490       0.1002077
  61 TORSION   1  8  7  6              -0.0005993      -0.0343373
  62 TORSION   2  1  3 13               0.0096362       0.5521126
  63 TORSION   2  1  3  4              -3.1316147    -179.4283046
  64 TORSION   2  1  8  7               3.1310129     179.3938245
  65 TORSION   2  1  8 18              -0.0098228      -0.5628028
  66 TORSION   3  4  6  7              -0.0036445      -0.2088161
  67 TORSION   3  1  2 11               1.4750318      84.5130975
  68 TORSION   3  1  2 10              -0.6111932     -35.0187891
  69 TORSION   3  4  5 16              -0.6179851     -35.4079401
  70 TORSION   3  4  5 15              -2.7251552    -156.1398897
  71 TORSION   3  1  8  7              -0.0012840      -0.0735665
  72 TORSION   3  4  5 14               1.4680489      84.1130046
  73 TORSION   3  1  8 18               3.1410657     179.9698062
  74 TORSION   3  1  2 12              -2.7181465    -155.7383211
  75 TORSION   3  4  6 17               3.1379665     179.7922347
  76 TORSION   4  6  7  8               0.0030700       0.1758985
  77 TORSION   4  6  7  9              -3.1312580    -179.4078655
  78 TORSION   4  3  1  8               0.0007071       0.0405123
  79 TORSION   5  4  6  7               3.1278201     179.2108935
  80 TORSION   5  4  6 17              -0.0137542      -0.7880557
  81 TORSION   5  4  3 13               0.0121942       0.6986746
  82 TORSION   6  4  3 13              -3.1395018    -179.8802016
  83 TORSION   6  4  5 14              -1.6634016     -95.3058896
  84 TORSION   6  4  5 15               0.4265797      24.4412161
  85 TORSION   6  4  5 16               2.5337497     145.1731657
  86 TORSION   6  7  9 19              -2.3657187    -135.5456963
  87 TORSION   6  7  9 20              -0.2598654     -14.8891888
  88 TORSION   6  7  9 21               1.8339027     105.0748866
  89 TORSION   6  7  8 18               3.1402388     179.9224313
  90 TORSION   8  7  6 17              -3.1385410    -179.8251535
  91 TORSION   8  1  2 10               2.5397192     145.5151896
  92 TORSION   8  7  9 20               2.8889894     165.5269025
  93 TORSION   8  7  9 19               0.7831361      44.8703950
  94 TORSION   8  1  2 12               0.4327659      24.7956577
  95 TORSION   8  7  9 21              -1.3004278     -74.5090221
  96 TORSION   8  1  3 13              -3.1412274    -179.9790705
  97 TORSION   8  1  2 11              -1.6572412     -94.9529238
  98 TORSION   9  7  8 18              -0.0085612      -0.4905206
  99 TORSION   9  7  6 17               0.0103163       0.5910826

     ------------------------------------------
     THE POINT GROUP IS C1 , NAXIS= 1, ORDER= 1
     ------------------------------------------

     DIMENSIONS OF THE SYMMETRY SUBSPACES ARE
 A   =  243

 ..... DONE SETTING UP THE RUN .....
 STEP CPU TIME =     0.01 TOTAL CPU TIME =        0.0 (    0.0 MIN)
 TOTAL WALL CLOCK TIME=        0.0 SECONDS, CPU UTILIZATION IS  50.00%


          -----------------------------
          STATIONARY POINT LOCATION RUN
          -----------------------------

 OBTAINING INITIAL HESSIAN, HESS=GUESS   
 DIAGONAL GUESS HESSIAN IN INTERNAL COORDS IS
     1  0.4000     2  0.4771     3  0.4783     4  0.3410     5  0.3405
     6  0.3410     7  0.3421     8  0.4781     9  0.4772    10  0.3999
    11  0.3406    12  0.3410    13  0.3409    14  0.4782    15  0.3419
    16  0.3999    17  0.4770    18  0.3420    19  0.3407    20  0.3410
    21  0.3409    22  0.2320    23  0.2686    24  0.2262    25  0.2687
    26  0.2262    27  0.2319    28  0.2262    29  0.2616    30  0.2615
    31  0.2687    32  0.2687    33  0.2616    34  0.2320    35  0.2262
    36  0.2262    37  0.2262    38  0.2319    39  0.2687    40  0.2615
    41  0.2686    42  0.2616    43  0.2262    44  0.2320    45  0.2319
    46  0.2262    47  0.2262    48  0.2615    49  0.2026    50  0.2026
    51  0.2026    52  0.2026    53  0.2026    54  0.2026    55  0.2026
    56  0.2026    57  0.2026    58  0.2500    59  0.2500    60  0.2500
    61  0.2500    62  0.2500    63  0.2500    64  0.2500    65  0.2500
    66  0.2500    67  0.2500    68  0.2500    69  0.2500    70  0.2500
    71  0.2500    72  0.2500    73  0.2500    74  0.2500    75  0.2500
    76  0.2500    77  0.2500    78  0.2500    79  0.2500    80  0.2500
    81  0.2500    82  0.2500    83  0.2500    84  0.2500    85  0.2500
    86  0.2500    87  0.2500    88  0.2500    89  0.2500    90  0.2500
    91  0.2500    92  0.2500    93  0.2500    94  0.2500    95  0.2500
    96  0.2500    97  0.2500    98  0.2500    99  0.2500
 TRANSFORMING HESSIAN TO SYMMETRY COORDINATES

          PARAMETERS CONTROLLING GEOMETRY SEARCH ARE
          METHOD =QA                  UPHESS =BFGS    
          NNEG   =         0          NFRZ   =         3
          NSTEP  =        50          IFOLOW =         1
          HESS   =GUESS               RESTAR =         F
          IHREP  =         0          HSSEND =         F
          NPRT   =         0          NPUN   =         0
          OPTTOL = 5.000E-04          RMIN   = 1.500E-03
          RMAX   = 1.000E-01          RLIM   = 7.000E-02
          DXMAX  = 3.000E-01          PURIFY =         F
          MOVIE  =         F          TRUPD  =         T
          TRMAX  = 5.000E-01          TRMIN  = 5.000E-02
          ITBMAT =         5          STPT   =         F
          STSTEP = 1.000E-02          PROJCT=          F
          FROZEN COORD(S)=   1   2   3


      ***** EQUILIBRIUM GEOMETRY LOCATED *****
            (SUBJECT TO   3 CONSTRAINT(S))
 COORDINATES OF ALL ATOMS ARE (ANGS)
   ATOM   CHARGE       X              Y              Z
 ------------------------------------------------------------
 C           6.0   1.9276608602   3.9946915866   2.0811004535
 C           6.0   0.6372959398   4.7677698304   2.1406910731
 C           6.0   3.0599153509   4.5635347188   1.5121656167
 C           6.0   4.2458016017   3.8544461071   1.4197799588
 C           6.0   5.4737550620   4.4966587694   0.8311898825
 C           6.0   4.2915295210   2.5529452216   1.9042579614
 C           6.0   3.1766397886   1.9672300874   2.4808992932
 C           6.0   1.9985618952   2.6987019167   2.5632231776
 C           6.0   3.2345165070   0.5681275433   3.0338273711
 H           1.0   0.8289167952   5.8215911897   2.3065716147
 H           1.0   0.0980350629   4.6679800833   1.2026490572
 H           1.0   0.0025683192   4.3973761664   2.9366361441
 H           1.0   3.0133175925   5.5713727494   1.1352895488
 H           1.0   5.9907813583   5.0779165450   1.5898695637
 H           1.0   6.1591048363   3.7465122101   0.4554620924
 H           1.0   5.2069338318   5.1654403175   0.0210665239
 H           1.0   5.2086257071   1.9937039297   1.8327954713
 H           1.0   1.1267616466   2.2482345854   3.0068540491
 H           1.0   2.3560032078   0.0045443236   2.7393533368
 H           1.0   4.1172209692   0.0486286247   2.6820115255
 H           1.0   3.2639822188   0.5961279492   4.1194311992


                     --------------------
                     INTERNAL COORDINATES
                     --------------------

                 - - ATOMS - -         COORDINATE      COORDINATE
 NO.   TYPE    I  J  K  L  M  N        (BOHR,RAD)       (ANG,DEG)
 ----------------------------------------------------------------
   1 STRETCH   1  2                     2.8448020       1.5054045
   2 STRETCH   1  3                     2.6247944       1.3889815
   3 STRETCH   1  8                     2.6164746       1.3845788
   4 STRETCH   2 12                     2.0471927       1.0833278
   5 STRETCH   2 11                     2.0533620       1.0865924
   6 STRETCH   2 10                     2.0482175       1.0838701
   7 STRETCH   3 13                     2.0352484       1.0770072
   8 STRETCH   3  4                     2.6168905       1.3847989
   9 STRETCH   4  6                     2.6257772       1.3895015
  10 STRETCH   4  5                     2.8451173       1.5055713
  11 STRETCH   5 14                     2.0534389       1.0866332
  12 STRETCH   5 15                     2.0471896       1.0833261
  13 STRETCH   5 16                     2.0482069       1.0838645
  14 STRETCH   6  7                     2.6174967       1.3851197
  15 STRETCH   6 17                     2.0343522       1.0765329
  16 STRETCH   7  9                     2.8450056       1.5055122
  17 STRETCH   7  8                     2.6250843       1.3891349
  18 STRETCH   8 18                     2.0350909       1.0769238
  19 STRETCH   9 21                     2.0529313       1.0863645
  20 STRETCH   9 20                     2.0465136       1.0829685
  21 STRETCH   9 19                     2.0493960       1.0844937
  22 BEND      1  8 18                  2.0869235     119.5719086
  23 BEND      1  3  4                  2.1126195     121.0441834
  24 BEND      1  2 11                  1.9220335     110.1244090
  25 BEND      1  8  7                  2.1125822     121.0420449
  26 BEND      1  2 10                  1.9324455     110.7209733
  27 BEND      1  3 13                  2.0843798     119.4261658
  28 BEND      1  2 12                  1.9344761     110.8373184
  29 BEND      2  1  8                  2.1068964     120.7162709
  30 BEND      2  1  3                  2.0997462     120.3065938
  31 BEND      3  4  6                  2.0766374     118.9825593
  32 BEND      3  1  8                  2.0762698     118.9614980
  33 BEND      3  4  5                  2.1014699     120.4053554
  34 BEND      4  3 13                  2.0861838     119.5295244
  35 BEND      4  5 16                  1.9333073     110.7703471
  36 BEND      4  5 15                  1.9349960     110.8671060
  37 BEND      4  5 14                  1.9212140     110.0774559
  38 BEND      4  6 17                  2.0845773     119.4374842
  39 BEND      4  6  7                  2.1115099     120.9806077
  40 BEND      5  4  6                  2.1048316     120.5979667
  41 BEND      6  7  8                  2.0767239     118.9875129
  42 BEND      6  7  9                  2.1117220     120.9927597
  43 BEND      7  9 21                  1.9220785     110.1269834
  44 BEND      7  6 17                  2.0870924     119.5815840
  45 BEND      7  8 18                  2.0836757     119.3858262
  46 BEND      7  9 19                  1.9305854     110.6143927
  47 BEND      7  9 20                  1.9367245     110.9661394
  48 BEND      8  7  9                  2.0946096     120.0122874
  49 BEND     10  2 11                  1.8850985     108.0081881
  50 BEND     10  2 12                  1.9002896     108.8785715
  51 BEND     11  2 12                  1.8881995     108.1858610
  52 BEND     14  5 16                  1.8848614     107.9946005
  53 BEND     14  5 15                  1.8876128     108.1522485
  54 BEND     15  5 16                  1.9005080     108.8910902
  55 BEND     19  9 20                  1.8994525     108.8306092
  56 BEND     19  9 21                  1.8825278     107.8608994
  57 BEND     20  9 21                  1.8911386     108.3542590
  58 TORSION   1  3  4  5              -3.1152218    -178.4890630
  59 TORSION   1  8  7  9               3.1233068     178.9523002
  60 TORSION   1  3  4  6               0.0026589       0.1523442
  61 TORSION   1  8  7  6              -0.0011419      -0.0654262
  62 TORSION   2  1  3 13               0.0255678       1.4649263
  63 TORSION   2  1  3  4              -3.1137559    -178.4050714
  64 TORSION   2  1  8  7               3.1128773     178.3547298
  65 TORSION   2  1  8 18              -0.0257165      -1.4734486
  66 TORSION   3  4  6  7              -0.0076340      -0.4373980
  67 TORSION   3  1  2 11               1.4656702      83.9767185
  68 TORSION   3  1  2 10              -0.6179521     -35.4060469
  69 TORSION   3  4  5 16              -0.6198708     -35.5159779
  70 TORSION   3  4  5 15              -2.7318640    -156.5242793
  71 TORSION   3  1  8  7              -0.0036858      -0.2111832
  72 TORSION   3  4  5 14               1.4634775      83.8510829
  73 TORSION   3  1  8 18               3.1409057     179.9606384
  74 TORSION   3  1  2 12              -2.7287422    -156.3454101
  75 TORSION   3  4  6 17               3.1375890     179.7706058
  76 TORSION   4  6  7  8               0.0068847       0.3944662
  77 TORSION   4  6  7  9              -3.1173903    -178.6133064
  78 TORSION   4  3  1  8               0.0029125       0.1668730
  79 TORSION   5  4  6  7               3.1101997     178.2013155
  80 TORSION   5  4  6 17              -0.0277626      -1.5906807
  81 TORSION   5  4  3 13               0.0286421       1.6410720
  82 TORSION   6  4  3 13              -3.1366625    -179.7175209
  83 TORSION   6  4  5 14              -1.6540173     -94.7682116
  84 TORSION   6  4  5 15               0.4338265      24.8564262
  85 TORSION   6  4  5 16               2.5458198     145.8647276
  86 TORSION   6  7  9 19              -2.3741560    -136.0291192
  87 TORSION   6  7  9 20              -0.2641678     -15.1357004
  88 TORSION   6  7  9 21               1.8297439     104.8366018
  89 TORSION   6  7  8 18               3.1374574     179.7630675
  90 TORSION   8  7  6 17              -3.1383434    -179.8138339
  91 TORSION   8  1  2 10               2.5490067     146.0473259
  92 TORSION   8  7  9 20               2.8949186     165.8666198
  93 TORSION   8  7  9 19               0.7849304      44.9732010
  94 TORSION   8  1  2 12               0.4382166      25.1079627
  95 TORSION   8  7  9 21              -1.2943550     -74.1610780
  96 TORSION   8  1  3 13              -3.1409491    -179.9631293
  97 TORSION   8  1  2 11              -1.6505563     -94.5699087
  98 TORSION   9  7  8 18              -0.0212792      -1.2192062
  99 TORSION   9  7  6 17               0.0205668       1.1783935

          INTERNUCLEAR DISTANCES (ANGS.)


 =====================================================
   GAMESS/COSab RESULTS
 =====================================================

   Dielectric Constant                  = INFTY
   Basic Grid Size                      =                 1082
   Number of Segments                   =                   92
   Number of Segments located on spheres=                  297
   Number of Segments of the cavity     =                  746
   Solvent Radius (rsolv)               = 1.40
   Outlying Charge Error Method         = double cavity

 =====================================================

  Total solvated Energy (a.u.)          =  -347.8979115564
  Total Energy corrected (a.u.)         =  -347.8979155326

  Outlying charge effect (a.u.)         =    -0.0000039762
  Outlying charge effect (kcal/mol)     =    -0.0024951077

  Dielectric Energy (a.u.)              =    -0.0065665865
  Dielectric energy corr. (a.u.)        =    -0.0065705627

  Sum of polarization charges           =     0.0277198243
  Sum of polarization charges(cor.)     =    -0.0277198243

  Total surface area of cavity (A**2)   =  176.58
  Total volume of cavity (A**3)         =  174.07

 =====================================================
 NPS=                   746
NR.  ATOM  (X, Y, Z)(a.u.)                  CHARGE(e)  AREA(A**2) SIGMA(e/A**2)
   1   1   3.528216   8.326021   7.629614   0.000742   0.139368   0.005326
   2   1   4.531780   9.609805   6.973495   0.001137   0.232280   0.004896
   3   1   4.186600   8.853151   7.438030   0.001007   0.232280   0.004335
   4   1   4.726895   8.409700   7.449498   0.000549   0.139368   0.003939
   5   1   3.232852   5.915482   0.549168   0.002535   0.371649   0.006821
   6   1   2.649930   6.780961   0.367750   0.000786   0.139368   0.005643
   7   1   2.126014   5.840434   0.921885   0.001057   0.232280   0.004551
   8   1   5.283629   8.712860   7.132219   0.001715   0.232280   0.007383
   9   2  -2.474153   8.262630   3.603838   0.001626   0.418105   0.003888
  10   2   2.195841   9.957417   7.567118   0.000562   0.325193   0.001728
  11   2  -0.862615  11.565018   2.179102   0.001287   0.418105   0.003079
  12   2  -1.415616  10.857585   6.046762   0.000876   0.371649   0.002358
  13   2  -0.045099   6.115700   1.960229   0.000038   0.046456   0.000822
  14   2  -1.105775   6.116775   3.284839   0.000305   0.139368   0.002191
  15   2  -1.652166   6.648537   3.304133   0.000751   0.232280   0.003234
  16   2  -0.651520  11.643108   6.021589   0.000945   0.371649   0.002543
  17   2  -0.246947  12.183336   2.593914   0.000754   0.278737   0.002703
  18   2   1.781127  11.922581   1.707138   0.000227   0.139368   0.001629
  19   2   2.056954  10.952179   7.173303   0.000717   0.325193   0.002205
  20   2  -2.005486   7.275835   3.057946   0.000705   0.232280   0.003034
  21   2  -2.139838   7.249424   4.090857   0.001081   0.325193   0.003324
  22   2   2.908538  10.343644   7.143809   0.000161   0.139368   0.001155
  23   2   1.253088  11.406495   1.123401   0.001040   0.325193   0.003197
  24   2   0.218660  11.581889   1.457470   0.001021   0.278737   0.003664
  25   2  -1.322204  11.753371   3.434086   0.000831   0.464561   0.001789
  26   2  -1.628537  11.352477   4.923337   0.000674   0.464561   0.001452
  27   2  -0.341479  10.881818   6.941900   0.001573   0.418105   0.003762
  28   2   1.240188  10.426397   7.549047   0.000704   0.232280   0.003030
  29   2   1.388382   9.305831   7.808654   0.000428   0.232280   0.001842
  30   2   1.987872   8.883888   7.740508   0.000224   0.185824   0.001206
  31   2   1.669931  10.659726   0.677066   0.000198   0.139368   0.001420
  32   2  -1.877295  10.779447   2.758392   0.000618   0.418105   0.001479
  33   2  -2.462350   9.580539   3.328353   0.000825   0.418105   0.001974
  34   2  -2.549542   9.225737   4.427625   0.000933   0.464561   0.002009
  35   2  -2.139545  10.256417   5.289791   0.000415   0.325193   0.001276
  36   2  -0.797868   6.208988   2.486105   0.000385   0.232280   0.001659
  37   2  -1.388986   6.260680   4.005893   0.000382   0.185824   0.002054
  38   2  -1.051045  12.012133   4.473583   0.000329   0.278737   0.001179
  39   2   0.809488  12.015452   1.788273   0.000643   0.185824   0.003458
  40   2   2.932478  10.961181   6.782047   0.000192   0.139368   0.001379
  41   2   0.758546  11.253192   7.054068   0.001075   0.325193   0.003305
  42   2  -2.187663  10.676189   4.003173   0.000506   0.464561   0.001089
  43   2   0.547306  10.227555   7.562358   0.000732   0.232280   0.003153
  44   3   4.722705   6.438407  -0.038151   0.000932   0.092912   0.010035
  45   3   5.886601   8.784201  -0.917026   0.000792   0.139368   0.005686
  46   3   6.825047  11.342804   5.266788   0.001797   0.325193   0.005526
  47   3   6.790690  11.888977   4.472006   0.001065   0.232280   0.004587
  48   3   3.969631  10.232253  -0.042605   0.000315   0.139368   0.002259
  49   3   5.329873   9.337032  -0.826275   0.001601   0.325193   0.004922
  50   3   4.185230   9.434463  -0.470507   0.001661   0.325193   0.005106
  51   3   5.711748  11.384664   5.437703   0.001413   0.278737   0.005071
  52   3   7.473712  11.546250   4.555558   0.000667   0.139368   0.004783
  53   3   5.452215   8.038180  -0.861592   0.002496   0.325193   0.007676
  54   3   5.102254   7.029281  -0.500855   0.001655   0.232280   0.007126
  55   3   4.306799   7.259354  -0.343214   0.001782   0.185824   0.009587
  56   3   3.931080   8.337544  -0.424936   0.001497   0.232280   0.006443
  57   3   6.200058  10.547926   6.083670   0.003813   0.511017   0.007463
  58   3   7.423018  10.567600   5.652997   0.002521   0.325193   0.007751
  59   3   5.927585  11.994883   4.560264   0.000811   0.232280   0.003493
  60   3   4.997440  10.032197  -0.560688   0.001001   0.232280   0.004310
  61   3   7.385303  11.921513   3.774195   0.000126   0.092912   0.001361
  62   3   6.891598   9.413487   6.383254   0.003842   0.464561   0.008270
  63   3   4.602267   8.205178  -0.708408   0.001794   0.278737   0.006435
  64   4   8.184031   5.465638  -0.626461   0.000704   0.139368   0.005052
  65   4   7.064155   6.782623  -0.938168   0.001188   0.232280   0.005113
  66   4   7.481015   5.936299  -0.806149   0.001044   0.232280   0.004496
  67   4   6.977753   5.552280  -0.509575   0.000528   0.139368   0.003786
  68   4   8.461671   8.293402   6.298661   0.002620   0.371649   0.007050
  69   4   8.969347   9.109714   5.854068   0.000794   0.139368   0.005695
  70   4   9.581352   8.080361   6.033018   0.001059   0.232280   0.004557
  71   4   6.389954   5.944166  -0.450905   0.001941   0.232280   0.008354
  72   5   8.986899   7.145134  -1.687194   0.000389   0.232280   0.001674
  73   5  12.151090   8.522355  -1.748567   0.001590   0.418105   0.003803
  74   5  12.833845   7.334577   4.165354   0.000562   0.232280   0.002421
  75   5  14.121818   8.443227   1.663568   0.001259   0.418105   0.003010
  76   5  12.113296  11.600530   0.336036   0.000917   0.371649   0.002468
  77   5   8.513533   8.006863  -1.699344   0.000246   0.232280   0.001059
  78   5   9.697789   5.968833  -1.162925   0.000345   0.232280   0.001485
  79   5   9.767937   6.848417  -1.780870   0.000620   0.325193   0.001906
  80   5  10.613956   7.557603  -2.080029   0.001419   0.371649   0.003817
  81   5  12.215059  11.777422   1.413012   0.001015   0.371649   0.002732
  82   5  13.985845   8.957581   2.470033   0.000734   0.278737   0.002634
  83   5  12.268561   7.654537   4.712283   0.000171   0.185824   0.000918
  84   5   9.796752  11.968049   2.963533   0.000459   0.232280   0.001977
  85   5  11.485917   7.508500  -1.893667   0.000674   0.232280   0.002901
  86   5  11.107452   8.482830  -2.130767   0.000923   0.278737   0.003312
  87   5  13.166873   6.761856   3.388065   0.000779   0.325193   0.002396
  88   5  13.861825   7.681220   2.685254   0.001325   0.325193   0.004074
  89   5  13.908932   9.712560   1.257173   0.000832   0.464561   0.001791
  90   5  13.102876  10.889370   0.595498   0.000706   0.464561   0.001519
  91   5  11.103992  12.177386   1.164915   0.001414   0.371649   0.003804
  92   5   9.792823  12.232626   1.741397   0.001097   0.371649   0.002952
  93   5  13.897597   8.798988   0.319905   0.000609   0.418105   0.001456
  94   5  13.156910   8.873566  -0.925225   0.000769   0.418105   0.001840
  95   5  12.443447   9.687568  -1.337849   0.000927   0.464561   0.001995
  96   5  12.486124  10.818251  -0.505104   0.000432   0.325193   0.001330
  97   5  10.358763   6.286359  -1.494413   0.000463   0.232280   0.001992
  98   5   9.613805   7.986291  -2.102141   0.000631   0.278737   0.002265
  99   5  13.429985  10.678151   1.500654   0.000357   0.278737   0.001282
 100   5  13.489401   7.714769   3.514288   0.000942   0.278737   0.003380
 101   5  10.657266  12.214237   2.180351   0.001016   0.325193   0.003124
 102   5  13.409725   9.897967  -0.139113   0.000483   0.464561   0.001040
 103   6   6.295968   4.162839   0.349430   0.000930   0.092912   0.010012
 104   6   7.941170   2.052527   1.034789   0.000801   0.139368   0.005751
 105   6  10.385494   4.983046   6.611888   0.001846   0.325193   0.005676
 106   6  10.897182   4.334784   6.103552   0.001228   0.278737   0.004407
 107   6   9.008057   1.927442   1.343468   0.000906   0.232280   0.003900
 108   6   8.547231   2.405051   0.728006   0.001227   0.232280   0.005282
 109   6   9.140386   3.455225   0.229890   0.001487   0.278737   0.005334
 110   6  10.965183   5.623402   5.942175   0.001652   0.325193   0.005080
 111   6  10.211285   3.958414   6.618159   0.000688   0.185824   0.003703
 112   6   7.426318   2.606838   0.615292   0.002566   0.325193   0.007890
 113   6   6.659444   3.406806   0.409290   0.001696   0.232280   0.007300
 114   6   7.189086   3.948145   0.039200   0.001897   0.185824   0.010209
 115   6   8.319691   3.782304  -0.028371   0.001505   0.232280   0.006480
 116   6   9.954817   6.209368   6.592183   0.003714   0.511017   0.007268
 117   6   9.426423   5.071764   7.132582   0.002961   0.371649   0.007967
 118   6  11.440610   5.006458   5.375303   0.000675   0.232280   0.002908
 119   6   9.524991   2.762095   0.765040   0.001432   0.325193   0.004403
 120   6  10.592840   3.392135   6.061765   0.000157   0.092912   0.001685
 121   6   8.666723   6.346201   7.012920   0.003799   0.464561   0.008178
 122   6   7.918605   3.199880   0.191358   0.001850   0.278737   0.006636
 123   7   4.159931   1.994084   1.874465   0.000784   0.139368   0.005622
 124   7   5.633266   1.928351   1.379674   0.001127   0.232280   0.004850
 125   7   4.805596   2.009544   1.536494   0.000838   0.185824   0.004507
 126   7   4.566849   2.681172   1.349389   0.000486   0.139368   0.003490
 127   7   7.039974   5.668072   7.754849   0.002492   0.371649   0.006705
 128   7   7.800775   4.537063   7.910102   0.000891   0.185824   0.004796
 129   7   6.622181   4.791741   8.258496   0.001457   0.325193   0.004480
 130   7   5.157509   2.967510   1.081706   0.001915   0.232280   0.008245
 131   8   5.528392   6.867840   7.688086   0.000706   0.092912   0.007593
 132   8   1.527310   3.341042   2.367684   0.001839   0.325193   0.005654
 133   8   1.122147   2.869063   3.340049   0.001197   0.278737   0.004293
 134   8   2.889392   4.209393   8.408075   0.000460   0.139368   0.003298
 135   8   3.430896   4.978554   8.605442   0.001603   0.325193   0.004929
 136   8   2.746999   6.178866   8.316486   0.001491   0.278737   0.005348
 137   8   0.886773   3.976275   2.682754   0.001411   0.278737   0.005063
 138   8   1.896830   2.548609   2.784273   0.001181   0.232280   0.005085
 139   8   4.474175   5.432977   8.543369   0.002410   0.325193   0.007410
 140   8   5.228503   6.229021   8.145536   0.002229   0.232280   0.009595
 141   8   4.610800   6.742391   8.143873   0.002261   0.232280   0.009735
 142   8   3.563277   6.767004   8.228935   0.001228   0.185824   0.006606
 143   8   1.951089   4.088885   1.692712   0.003521   0.464561   0.007580
 144   8   2.600880   2.933833   1.978452   0.002415   0.325193   0.007427
 145   8   0.502998   3.805546   3.468348   0.000701   0.232280   0.003020
 146   8   2.436864   5.275918   8.373391   0.001438   0.325193   0.004422
 147   8   3.214277   3.975738   1.279478   0.004160   0.464561   0.008955
 148   8   3.804546   6.088145   8.491630   0.001772   0.278737   0.006358
 149   9   8.525970  -0.983585   7.788977   0.001591   0.418105   0.003806
 150   9   5.981213   0.064923   2.093102   0.000419   0.325193   0.001289
 151   9   6.768623  -2.593260   5.094679   0.000767   0.325193   0.002359
 152   9   4.867225  -1.455881   8.250159   0.000940   0.371649   0.002530
 153   9   8.564428   2.638725   8.145983   0.000235   0.278737   0.000844
 154   9   9.319305   1.672046   7.641392   0.000486   0.232280   0.002094
 155   9   9.234992   0.694064   7.828167   0.001116   0.325193   0.003432
 156   9   4.023226  -1.497665   7.551987   0.001015   0.371649   0.002732
 157   9   5.690548  -2.519113   4.638275   0.001071   0.371649   0.002881
 158   9   5.269350  -0.689131   2.497931   0.000730   0.325193   0.002243
 159   9   9.292976  -0.122064   7.387860   0.000703   0.232280   0.003026
 160   9   8.699667   0.003168   8.271643   0.000895   0.278737   0.003212
 161   9   4.692980   0.197699   2.341581   0.000373   0.232280   0.001606
 162   9   6.344271  -0.905215   2.521451   0.001004   0.325193   0.003086
 163   9   6.392400  -2.225341   3.910271   0.001411   0.371649   0.003797
 164   9   5.820520  -2.687277   5.967151   0.000783   0.464561   0.001686
 165   9   5.319110  -2.231370   7.386009   0.000729   0.464561   0.001569
 166   9   3.778032  -0.532899   8.233969   0.001408   0.371649   0.003790
 167   9   3.227917   0.643268   8.137080   0.000973   0.278737   0.003492
 168   9   3.477413   1.328829   8.430552   0.000156   0.092912   0.001679
 169   9   7.014550  -0.018116   2.229046   0.000404   0.278737   0.001448
 170   9   7.110297  -2.541757   6.199406   0.000578   0.418105   0.001381
 171   9   7.823106  -1.964485   7.191703   0.000787   0.418105   0.001882
 172   9   7.429078  -1.493859   8.174118   0.000991   0.464561   0.002133
 173   9   6.046087  -1.716167   8.282020   0.000464   0.325193   0.001426
 174   9   9.668299   1.036973   7.012998   0.000318   0.185824   0.001714
 175   9   8.816983   1.561622   8.327531   0.000431   0.232280   0.001854
 176   9   4.898920  -2.419351   6.514789   0.000338   0.278737   0.001213
 177   9   5.714607  -1.625096   3.117187   0.001005   0.278737   0.003604
 178   9   3.018619  -0.016559   7.610498   0.000993   0.325193   0.003054
 179   9   6.685871  -1.578234   3.101939   0.000672   0.232280   0.002894
 180   9   6.540924  -2.349203   7.277413   0.000410   0.418105   0.000980
 181  10   1.628276  13.426714   4.743750  -0.003087   0.471065  -0.006553
 182  10   2.010536  12.305099   6.392924  -0.001141   0.372926  -0.003060
 183  10   0.322717  12.873599   5.349952  -0.001451   0.392554  -0.003695
 184  10   0.893303  13.096849   3.267775  -0.001308   0.372926  -0.003507
 185  10   2.827543  12.647175   5.676165  -0.002977   0.510320  -0.005834
 186  10   1.207066  12.853500   5.931983  -0.002323   0.510320  -0.004552
 187  10   0.364469  13.139826   4.229573  -0.001917   0.451437  -0.004247
 188  10   1.871069  13.108091   3.132668  -0.002260   0.431809  -0.005234
 189  10   2.604998  13.227333   4.388094  -0.003148   0.431809  -0.007291
 190  11  -1.020376   8.670608   0.137531  -0.003971   0.588831  -0.006745
 191  11  -1.865252   7.614547   1.660702  -0.001133   0.372926  -0.003039
 192  11  -0.295045   6.926481   0.784574  -0.001391   0.353299  -0.003937
 193  11   0.700349   8.767559  -0.128754  -0.001537   0.314043  -0.004895
 194  11  -0.334638  10.381816   0.448054  -0.001195   0.372926  -0.003204
 195  11  -1.967067   9.691205   1.469132  -0.001401   0.412182  -0.003400
 196  11  -1.180085   7.355438   0.850536  -0.002422   0.490692  -0.004935
 197  11   0.149809   7.802685   0.037403  -0.002678   0.490692  -0.005458
 198  11   0.172549   9.572945  -0.066079  -0.002129   0.451437  -0.004716
 199  11  -1.279176  10.004051   0.694269  -0.002247   0.471065  -0.004770
 200  11  -2.057980   8.595237   1.297010  -0.002335   0.490692  -0.004758
 201  12  -1.648938   7.956233   7.331310  -0.002926   0.451437  -0.006481
 202  12  -1.812683   6.659286   5.635111  -0.001268   0.314043  -0.004038
 203  12  -2.403069   8.314581   6.036283  -0.001273   0.333671  -0.003815
 204  12  -1.221259   9.317595   7.424596  -0.001369   0.372926  -0.003670
 205  12   0.251677   8.145964   7.988154  -0.001390   0.333671  -0.004165
 206  12  -1.485276   6.890946   6.891589  -0.002879   0.412182  -0.006985
 207  12  -2.260028   7.430568   5.913185  -0.001634   0.392554  -0.004162
 208  12  -2.045667   9.020318   6.700840  -0.001680   0.412182  -0.004076
 209  12  -0.516569   8.804828   7.898530  -0.001639   0.412182  -0.003977
 210  12  -0.608295   7.423962   7.757239  -0.002432   0.372926  -0.006521
 211  13   5.580151  12.829708   1.293384  -0.002672   0.353299  -0.007562
 212  13   6.004541  12.726692   3.197165  -0.001493   0.333671  -0.004476
 213  13   4.452841  11.623043   0.330044  -0.001238   0.274788  -0.004504
 214  13   6.291254  12.555714   0.892907  -0.003135   0.353299  -0.008872
 215  13   6.708668  12.760494   2.299920  -0.003119   0.471065  -0.006622
 216  13   5.351307  12.952997   2.341834  -0.002993   0.372926  -0.008026
 217  13   4.653578  12.520239   1.153239  -0.003123   0.353299  -0.008839
 218  13   5.448089  11.787021   0.050084  -0.003169   0.510320  -0.006209
 219  14  12.593203  10.904303   4.648931  -0.004069   0.608459  -0.006688
 220  14  10.964839  10.402366   5.297423  -0.001403   0.294415  -0.004766
 221  14  10.965946  11.861878   3.884340  -0.001306   0.372926  -0.003502
 222  14  12.780012  11.571050   2.935041  -0.001182   0.353299  -0.003347
 223  14  13.666429   9.731734   3.722255  -0.001186   0.372926  -0.003181
 224  14  12.383593   8.916207   5.112484  -0.001181   0.353299  -0.003343
 225  14  11.160264  11.256786   4.807369  -0.002698   0.490692  -0.005498
 226  14  12.013936  11.878842   3.589953  -0.002226   0.490692  -0.004537
 227  14  13.410646  10.818418   3.421015  -0.002289   0.490692  -0.004664
 228  14  13.168131   9.542958   4.623112  -0.002184   0.471065  -0.004635
 229  14  11.835471   9.806540   5.397322  -0.002606   0.490692  -0.005312
 230  15  13.497315   5.714599   0.013471  -0.002909   0.451437  -0.006445
 231  15  12.237077   6.435617  -1.433275  -0.000820   0.314043  -0.002612
 232  15  11.547018   5.381268  -0.911674  -0.001515   0.372926  -0.004063
 233  15  13.858103   6.308880   1.579236  -0.001196   0.372926  -0.003208
 234  15  13.793500   7.191036  -0.314431  -0.001316   0.372926  -0.003530
 235  15  12.621459   5.694084  -0.913965  -0.001920   0.353299  -0.005435
 236  15  12.466050   4.972186  -0.092553  -0.002738   0.392554  -0.006976
 237  15  13.410923   5.413506   1.205089  -0.002694   0.412182  -0.006536
 238  15  14.061851   6.767949   0.600600  -0.001606   0.392554  -0.004091
 239  15  13.227707   6.751557  -0.984116  -0.001651   0.372926  -0.004428
 240  16   9.658376  11.238067  -1.915009  -0.003471   0.529948  -0.006549
 241  16   9.357954   9.375071  -2.337989  -0.001155   0.372926  -0.003096
 242  16  10.994455  10.587648  -1.964870  -0.001344   0.372926  -0.003605
 243  16  10.307508  12.095355  -0.567051  -0.001422   0.392554  -0.003623
 244  16   8.480181  10.009253  -1.991293  -0.003074   0.529948  -0.005800
 245  16  10.148302  10.075167  -2.377082  -0.001919   0.451437  -0.004250
 246  16  10.902648  11.529257  -1.294149  -0.001789   0.431809  -0.004143
 247  16   9.324221  12.107863  -0.472908  -0.002593   0.471065  -0.005506
 248  16   8.615317  11.308917  -1.423343  -0.003063   0.412182  -0.007430
 249  17  11.955220   2.572259   3.843432  -0.002764   0.372926  -0.007411
 250  17  10.536287   1.906953   2.016957  -0.001102   0.215905  -0.005103
 251  17  11.852168   3.627176   4.869944  -0.001434   0.372926  -0.003845
 252  17  11.092179   2.715468   1.628428  -0.001598   0.255160  -0.006262
 253  17  11.438145   1.915890   3.215388  -0.002968   0.333671  -0.008894
 254  17  11.504528   2.616813   4.859841  -0.002604   0.353299  -0.007372
 255  17  12.261022   3.698643   3.891140  -0.002900   0.372926  -0.007776
 256  17  12.012289   2.920492   2.681689  -0.003145   0.372926  -0.008433
 257  17  11.272326   2.147701   2.293941  -0.001607   0.255160  -0.006299
 258  18   0.109015   3.113496   6.497790  -0.002795   0.372926  -0.007495
 259  18   1.572919   3.494484   7.953019  -0.001586   0.294415  -0.005387
 260  18   0.258634   2.933578   4.783991  -0.001619   0.372926  -0.004342
 261  18   0.992041   4.486143   7.846697  -0.001513   0.274788  -0.005507
 262  18   0.908680   2.650071   7.092837  -0.002916   0.353299  -0.008253
 263  18   0.450066   2.457383   5.766190  -0.002888   0.372926  -0.007743
 264  18  -0.250614   3.709080   5.398905  -0.003141   0.412182  -0.007619
 265  18   0.037757   4.016605   6.949751  -0.003066   0.353299  -0.008678
 266  18   0.764594   3.611209   7.622887  -0.001604   0.255160  -0.006284
 267  19   2.641784  -1.517146   4.521164  -0.003041   0.471065  -0.006455
 268  19   2.385845  -0.546935   6.383538  -0.001246   0.314043  -0.003966
 269  19   3.212786  -1.859802   6.180655  -0.001152   0.353299  -0.003262
 270  19   4.122549  -2.232423   4.225659  -0.001180   0.372926  -0.003164
 271  19   3.615664  -0.672523   2.969499  -0.001185   0.372926  -0.003176
 272  19   2.064077  -0.482340   4.875080  -0.003238   0.471065  -0.006874
 273  19   2.452772  -1.247151   5.855220  -0.001872   0.372926  -0.005019
 274  19   3.528211  -2.267329   5.216212  -0.002176   0.471065  -0.004619
 275  19   3.599695  -1.625318   3.552215  -0.002177   0.471065  -0.004622
 276  19   2.659709  -0.363548   3.538463  -0.003125   0.510320  -0.006124
 277  20   9.707645  -1.353449   4.586780  -0.002779   0.431809  -0.006435
 278  20   9.895913  -0.525694   6.153784  -0.001154   0.372926  -0.003095
 279  20   8.624474  -0.724156   2.910335  -0.001880   0.392554  -0.004790
 280  20   8.128039  -1.817100   3.561630  -0.001167   0.372926  -0.003129
 281  20   8.743387  -2.119198   5.536073  -0.001313   0.372926  -0.003521
 282  20  10.192081  -0.322757   5.285069  -0.002511   0.392554  -0.006397
 283  20   9.746962  -0.609704   3.773854  -0.002402   0.314043  -0.007649
 284  20   9.061417  -1.403754   3.599554  -0.001673   0.294415  -0.005681
 285  20   8.502641  -2.191082   4.519196  -0.001815   0.412182  -0.004403
 286  20   9.470425  -1.509865   5.851416  -0.001728   0.392554  -0.004402
 287  21   6.507244   1.173353  10.217249  -0.003529   0.529948  -0.006660
 288  21   6.388366   2.683129   9.672319  -0.002165   0.412182  -0.005252
 289  21   8.012226   1.384975   9.386860  -0.001042   0.333671  -0.003122
 290  21   7.019283  -0.297545   9.596358  -0.001660   0.431809  -0.003844
 291  21   4.785966   0.146116   9.563286  -0.001230   0.392554  -0.003134
 292  21   4.471274   1.500200   9.521380  -0.001652   0.392554  -0.004210
 293  21   7.404826   2.233332   9.595783  -0.002038   0.451437  -0.004516
 294  21   7.626364   0.544292   9.673872  -0.001873   0.431809  -0.004337
 295  21   5.895468  -0.380972   9.705071  -0.002128   0.490692  -0.004336
 296  21   5.331357   0.927313  10.085755  -0.002392   0.412182  -0.005804
 297  21   5.465290   2.194867   9.882177  -0.002391   0.412182  -0.005800
 298   1   4.390869  10.460040   6.246937   0.000265   0.051989   0.005104
 299   2   3.954619  10.685695   6.235677   0.000057   0.051989   0.001099
 300   3   4.755240  10.620325   6.030724   0.000297   0.051989   0.005720
 301   1   2.972984   7.984037   7.640868   0.000221   0.051549   0.004281
 302   2   2.549321   8.231599   7.617083   0.000084   0.051549   0.001621
 303   8   2.998787   7.549265   7.759995   0.000291   0.051549   0.005652
 304   2   2.638127   9.049426   7.531513   0.000128   0.240660   0.000532
 305   2   3.404979  10.387454   6.778451   0.000147   0.240660   0.000611
 306   1   3.609765   9.336390   7.075145   0.000238   0.495254   0.000480
 307   1   6.033301   7.844295   6.862672   0.000797   0.048541   0.016410
 308   3   6.385982   8.025772   6.643912   0.000652   0.048541   0.013436
 309   8   6.036263   7.411229   6.990399   0.000645   0.048541   0.013289
 310   1   4.169535   5.484827   0.794396   0.000668   0.048541   0.013757
 311   3   4.541883   5.691202   0.639671   0.000629   0.048541   0.012954
 312   8   4.192099   5.076577   0.985949   0.000623   0.048541   0.012828
 313   1   2.608827   7.816182   0.284083   0.000340   0.074803   0.004551
 314   3   2.996449   8.009823   0.151044   0.000434   0.074803   0.005796
[...]
 487   6   6.386232   4.576976   0.262128   0.002310   0.218615   0.010567
 488   6   8.023280   4.481732  -0.148292   0.001623   0.218615   0.007424
 489   4   7.197182   5.156735  -0.118885   0.003792   0.451160   0.008404
 490  14  10.353853  10.025745   5.238598  -0.000861   0.233801  -0.003684
 491  14  11.093092   8.951699   5.380286  -0.000756   0.233801  -0.003233
 492   4   9.835803   8.906277   5.525600   0.000855   0.635089   0.001347
 493   5  11.135741   7.940280   5.243578   0.000011   0.016695   0.000642
 494   6  10.699103   7.285527   5.500623   0.000066   0.016695   0.003953
 495  14  11.261041   8.214739   5.230696  -0.000050   0.016695  -0.002970
 496   5  10.173971   5.254449  -0.447665  -0.000122   0.069558  -0.001751
 497   6   9.777906   4.655904  -0.031203   0.000108   0.069558   0.001557
 498  15  10.467924   5.187462  -0.413327  -0.000258   0.069558  -0.003704
 499   5  12.108567   5.962383   4.120256  -0.000093   0.066432  -0.001402
 500   6  11.785800   5.309168   4.516928  -0.000119   0.066432  -0.001793
 501  17  11.870489   5.053701   4.384616  -0.000276   0.066432  -0.004157
 502   6  11.648364   5.721789   4.939109   0.000461   0.319631   0.001442
 503   6  10.874667   6.600407   5.678214   0.001224   0.319631   0.003828
 504   5  11.790811   7.076546   4.774483   0.000199   0.641109   0.000310
 505   6   9.063226   4.468540  -0.179107   0.000880   0.213353   0.004127
 506   5   9.756593   5.324160  -0.640895   0.000241   0.213353   0.001130
 507   5   8.811205  11.993084   1.108444  -0.000141   0.085691  -0.001645
 508  13   7.856903  12.069558   1.279678  -0.000462   0.085691  -0.005388
 509  16   8.786278  11.980927   0.804984  -0.000337   0.085691  -0.003939
 510  13   7.471718  12.263946   2.384486  -0.001993   0.413242  -0.004822
 511   5   8.858939  12.086520   1.953673   0.000147   0.584281   0.000252
 512  14  11.803897   8.544838   5.172876  -0.000207   0.067480  -0.003065
 513  14  12.726993   8.470447   4.600799  -0.000505   0.149059  -0.003388
 514  14  13.538575   8.949974   3.680345  -0.000385   0.149059  -0.002583
 515  14  13.696448   9.934144   2.818756  -0.000519   0.149059  -0.003483
 516  14  13.138269  11.034320   2.356266  -0.000555   0.149059  -0.003725
 517  14  12.084457  11.816056   2.475506  -0.000429   0.149059  -0.002876
 518  14  10.951150  11.970652   3.129390  -0.000422   0.149059  -0.002830
 519  14  10.241901  11.623548   3.878654  -0.000214   0.067480  -0.003176
 520   5  12.044884   8.095513   4.872710  -0.000398   0.148655  -0.002678
 521   5  13.202590   8.252358   3.963595  -0.000168   0.148655  -0.001127
 522   5  13.776271   9.118510   2.909060  -0.000201   0.148655  -0.001354
 523   5  13.539387  10.351936   2.125528  -0.000331   0.148655  -0.002230
 524   5  12.585481  11.465569   1.922408  -0.000306   0.148655  -0.002060
 525   5  11.291239  12.019650   2.379908  -0.000170   0.148655  -0.001141
 526   5  10.167743  11.795377   3.317368  -0.000405   0.148655  -0.002726
 527   5  12.743044   5.801494   2.912239  -0.000180   0.086179  -0.002083
 528  15  12.817400   5.670847   2.647335  -0.000335   0.086179  -0.003887
 529  17  12.344900   4.956810   3.194495  -0.000397   0.086179  -0.004609
 530  15  10.864314   5.523197  -0.873741  -0.000281   0.069187  -0.004061
 531  15  11.442084   6.319100  -1.408894  -0.000483   0.153946  -0.003136
 532  15  12.443961   7.228627  -1.397304  -0.000494   0.153946  -0.003207
 533  15  13.423757   7.729233  -0.609571  -0.000541   0.153946  -0.003515
 534  15  13.969409   7.610382   0.623016  -0.000550   0.153946  -0.003573
 535  15  13.851436   6.922060   1.782079  -0.000494   0.153946  -0.003211
 536  15  13.322083   6.138273   2.381356  -0.000259   0.069187  -0.003745
 537   5  10.695781   6.005617  -1.184783  -0.000417   0.151321  -0.002753
 538   5  11.648419   7.101332  -1.634736  -0.000200   0.151321  -0.001324
 539   5  12.825006   7.938576  -1.160150  -0.000319   0.151321  -0.002105
 540   5  13.730717   8.165237   0.039383  -0.000396   0.151321  -0.002617
 541   5  13.984645   7.685991   1.459387  -0.000268   0.151321  -0.001773
 542   5  13.479997   6.702389   2.502664  -0.000266   0.151321  -0.001759
 543  16   9.468757  12.137535   0.534056  -0.000215   0.070214  -0.003063
 544  16  10.523059  12.060039   0.122848  -0.000468   0.156675  -0.002989
 545  16  11.410552  11.417696  -0.699712  -0.000570   0.156675  -0.003637
 546  16  11.493466  10.376664  -1.586409  -0.000608   0.156675  -0.003882
 547  16  10.735999   9.386454  -2.154373  -0.000423   0.156675  -0.002698
 548  16   9.465221   8.874632  -2.158360  -0.000552   0.156675  -0.003524
 549  16   8.401975   8.925195  -1.766441  -0.000229   0.070214  -0.003260
 550   5  10.011469  12.130651   0.795411  -0.000227   0.153156  -0.001483
 551   5  11.317433  11.768751   0.066538  -0.000267   0.153156  -0.001746
 552   5  11.894444  10.767806  -0.949797  -0.000381   0.153156  -0.002488
 553   5  11.493350   9.560017  -1.814747  -0.000268   0.153156  -0.001750
 554   5  10.287343   8.666900  -2.154833  -0.000253   0.153156  -0.001651
 555   5   8.797168   8.474097  -1.823207  -0.000406   0.153156  -0.002650
 556  17  12.201306   4.666582   3.880995  -0.000988   0.266418  -0.003708
 557   5  12.624806   6.039339   3.673879   0.000235   0.377263   0.000622
 558   6   7.232043   6.667462   6.898408   0.000643   0.048552   0.013246
 559   7   6.874047   6.498520   7.115959   0.000604   0.048552   0.012435
 560   8   6.476338   6.715434   7.115495   0.000604   0.048552   0.012440
 561   6   5.360953   4.328536   0.905074   0.000642   0.048552   0.013217
 562   7   4.983045   4.134704   1.058844   0.000703   0.048552   0.014472
 563   8   4.605308   4.376583   1.122352   0.000624   0.048552   0.012859
 564   6   7.003939   1.744784   1.499704   0.000411   0.051385   0.008006
 565   7   6.638323   1.529972   1.655324   0.000236   0.051385   0.004592
 566   9   6.655015   1.091189   1.875679   0.000085   0.051385   0.001652
 567   6   8.781228   4.136372   7.365175   0.000443   0.051385   0.008629
 568   7   8.436207   3.949273   7.588761   0.000196   0.051385   0.003812
 569   9   8.430498   3.480346   7.735187   0.000075   0.051385   0.001464
 570   7   8.225405   4.665267   7.581300   0.001314   0.207392   0.006338
 571   7   7.385700   6.019455   7.333306   0.001728   0.207392   0.008333
 572   6   8.312037   5.598777   7.142525   0.003805   0.425715   0.008938
 573   7   5.413269   3.515628   0.976541   0.002116   0.217057   0.009748
 574   7   6.307578   2.124077   1.292156   0.001392   0.217057   0.006411
 575   6   6.395979   3.114110   0.914212   0.004349   0.447812   0.009711
 576   8   4.409751   4.503252   1.023960   0.000142   0.011242   0.012616
 577   6   5.487264   4.426219   0.715563   0.000164   0.011242   0.014549
 578   6  10.352508   2.783863   5.921436  -0.000078   0.066229  -0.001176
 579   9   9.937777   2.144283   6.249687  -0.000107   0.066229  -0.001615
 580  17  10.530226   2.693195   5.697549  -0.000246   0.066229  -0.003717
 581   6   8.232845   1.120521   2.103294   0.000044   0.070093   0.000631
 582   9   7.902270   0.425941   2.415640  -0.000112   0.070093  -0.001596
 583  20   8.142916   0.289400   2.539954  -0.000222   0.070093  -0.003163
 584   9   9.645146   2.147570   6.948409   0.000190   0.326428   0.000583
 585   9   8.835676   3.014733   7.714656   0.000380   0.326428   0.001164
 586   6   9.708798   3.514241   6.770362   0.001610   0.654964   0.002458
 587   9   7.132955   0.675134   2.010317   0.000331   0.350261   0.000946
 588   6   7.859278   1.532904   1.558165   0.001218   0.350261   0.003477
 589  14  11.368436   8.409951   5.368926   0.000049   0.020892   0.002369
 590   6  10.606466   7.045225   5.898027   0.000166   0.030120   0.005513
 591   6  10.607878   3.683608   0.909620  -0.000100   0.082642  -0.001216
 592  15  11.189467   4.356206   0.573230  -0.000291   0.082642  -0.003517
 593  17  10.814678   3.569998   1.096627  -0.000335   0.082642  -0.004054
 594  15  11.139195   4.794996  -0.105120  -0.001162   0.314168  -0.003699
 595   6  10.019580   4.000606   0.263091   0.000929   0.443750   0.002093
 596   6   9.366152   1.460685   2.226828  -0.000169   0.081936  -0.002066
 597  17   9.646048   1.474788   2.336797  -0.000356   0.081936  -0.004345
 598  20   9.162501   0.703289   2.749911  -0.000345   0.081936  -0.004209
 599  17  11.785564   4.463741   4.786481  -0.000313   0.073905  -0.004229
 600  17  11.270174   3.544619   5.365299  -0.000703   0.167832  -0.004187
 601   6  11.406491   4.410995   5.271200  -0.000380   0.158485  -0.002399
 602   6  10.803546   3.354594   5.800713  -0.000091   0.090291  -0.001012
 603  17  10.034442   1.970294   1.826745  -0.000337   0.088895  -0.003791
 604  17  10.524146   2.838817   1.314286  -0.000334   0.088895  -0.003763
 605   6   9.938760   2.498232   1.403868  -0.000555   0.181593  -0.003056
 606  20   8.568864   0.157504   2.629436  -0.000543   0.206093  -0.002635
 607   6   8.935970   1.322799   1.945507   0.000471   0.291141   0.001619
 608   7   3.566129   1.692991   2.557671   0.000271   0.092740   0.002926
 609   8   3.195792   1.951441   2.611812   0.000526   0.092740   0.005669
 610  19   3.433129   1.044143   2.905484  -0.000089   0.092740  -0.000960
 611   7   5.689686   4.300259   8.436730   0.000345   0.081935   0.004206
 612   8   5.297429   4.527539   8.415153   0.000595   0.081935   0.007263
 613  21   5.736208   3.629557   8.758653  -0.000008   0.081935  -0.000095
 614   8   5.354497   5.378835   8.270507   0.001522   0.183102   0.008310
 615   8   5.983242   6.467472   7.595220   0.001902   0.183102   0.010387
 616   7   6.207708   5.566637   7.859820   0.002895   0.371972   0.007782
 617   8   3.964524   3.928414   1.267537   0.001882   0.210873   0.008923
 618   8   3.236006   2.671037   2.014349   0.001551   0.210873   0.007355
 619   7   4.165578   2.976761   1.648646   0.003641   0.433415   0.008400
 620   7   3.898064   1.267152   2.529613   0.000029   0.026040   0.001122
 621   9   3.893896   0.799007   2.676825  -0.000033   0.026040  -0.001262
 622  19   3.711239   0.601690   2.814325  -0.000095   0.026040  -0.003655
 623   7   7.678597   3.663342   8.192584   0.000042   0.026799   0.001581
 624   9   7.718324   3.222900   8.405423  -0.000032   0.026799  -0.001199
 625  21   7.586429   3.064788   8.627603  -0.000072   0.026799  -0.002672
 626   9   8.125608   3.260075   8.139561   0.000071   0.104473   0.000679
 627   7   7.992012   3.935635   7.947211   0.000241   0.104473   0.002303
 628   9   4.436640   0.820815   2.353557   0.000099   0.220237   0.000450
 629   9   5.964294   0.732729   1.970775   0.000097   0.220237   0.000440
 630   7   5.185376   1.448372   1.947391   0.000350   0.449421   0.000778
 631  19   3.505446   0.507523   2.884220  -0.000082   0.033973  -0.002418
 632   7   3.766019   1.473791   2.395558   0.000175   0.047936   0.003653
 633  21   7.250002   3.087075   8.889890  -0.000495   0.176605  -0.002804
 634  21   6.278919   3.256503   9.083430  -0.000590   0.176605  -0.003340
 635   7   6.807433   4.092374   8.396380   0.000740   0.486082   0.001523
 636   8   2.877168   3.284255   8.082205  -0.000112   0.066558  -0.001679
 637   9   3.317844   2.589448   8.165530  -0.000076   0.066558  -0.001141
 638  18   2.599609   3.217813   7.989393  -0.000205   0.066558  -0.003076
 639   8   3.411388   2.979221   8.247968  -0.000015   0.051896  -0.000297
 640   9   3.768330   2.272532   8.484016  -0.000081   0.051896  -0.001568
 641  21   3.984326   2.208676   8.687283  -0.000115   0.051896  -0.002222
 642   9   3.576922   2.302215   8.473287   0.000050   0.015362   0.003256
 643   8   2.986989   3.299157   8.246805   0.000064   0.015362   0.004186
 644  11   0.297562   6.379770   1.261124   0.000057   0.028181   0.002011
 645   8   1.175041   5.066839   1.732953   0.000207   0.040621   0.005084
 646   8   1.291641   5.789543   7.693116  -0.000097   0.082649  -0.001172
 647  12   0.650878   6.471491   7.526416  -0.000290   0.082649  -0.003506
 648  18   1.100822   5.564896   7.630861  -0.000335   0.082649  -0.004056
 649  12   0.650471   7.253430   7.754256  -0.001234   0.318480  -0.003875
 650   8   1.840637   6.504106   7.961074   0.000963   0.449816   0.002140
 651   8   1.561696   2.011370   4.286340  -0.000044   0.084305  -0.000518
 652  18   1.399976   2.050238   4.537459  -0.000329   0.084305  -0.003907
 653  19   1.985972   1.143631   4.457626  -0.000242   0.084305  -0.002872
 654  18   2.077252   3.826516   8.075500  -0.000301   0.096602  -0.003120
 655  18   1.469931   4.867084   7.938619  -0.000381   0.096602  -0.003945
 656   8   2.100686   4.543845   8.053723  -0.000711   0.192783  -0.003686
 657  18   0.220552   3.684617   4.282693  -0.000352   0.094467  -0.003724
 658  18   0.808497   2.659667   4.397357  -0.000383   0.094467  -0.004052
 659   8   0.715628   3.251673   4.019769  -0.000714   0.189727  -0.003766
 660  19   2.243958   0.568589   4.004010  -0.001003   0.261374  -0.003839
 661  19   2.994431   0.612855   3.158025  -0.000585   0.261374  -0.002237
 662   8   2.198732   1.925585   3.277872   0.001696   0.727998   0.002329
 663  21   5.402346   3.162463   9.155757  -0.000642   0.322237  -0.001993
 664  21   4.338761   2.432109   9.033839  -0.000616   0.322237  -0.001911
 665   8   4.103979   4.006691   8.537240   0.002354   0.903632   0.002605
 666   9   9.949756   1.266503   6.023510  -0.000236   0.086000  -0.002740
 667  17  10.415350   1.882047   5.422621  -0.000398   0.086000  -0.004630
 668  20  10.026965   1.051823   5.821947  -0.000345   0.086000  -0.004015
 669  17  10.763306   2.487689   5.519994  -0.000325   0.138292  -0.002348
 670   9  10.027031   1.542926   6.331104   0.000219   0.196007   0.001115
 671   9   2.426604   0.819982   6.775199  -0.000100   0.083541  -0.001193
 672  18   1.894079   1.614490   6.615961  -0.000373   0.083541  -0.004468
 673  19   2.349734   0.635104   6.545471  -0.000298   0.083541  -0.003567
 674  18   1.609765   2.182519   7.088614  -0.001484   0.276385  -0.005370
 675  18   2.182300   2.913122   7.857077  -0.001039   0.276385  -0.003757
 676   9   2.847409   1.534174   7.727741  -0.000012   0.767310  -0.000016
 677  19   3.743253   0.058018   2.826943  -0.000228   0.071048  -0.003213
 678  19   4.322888  -0.920029   2.969588  -0.000552   0.158884  -0.003471
 679  19   4.699907  -1.948803   3.813780  -0.000436   0.158884  -0.002743
 680  19   4.544239  -2.386823   5.116501  -0.000581   0.158884  -0.003660
 681  19   3.924476  -2.041089   6.303741  -0.000628   0.158884  -0.003953
 682  19   3.113700  -1.063939   6.852373  -0.000454   0.158884  -0.002855
 683  19   2.534981  -0.085782   6.706783  -0.000234   0.071048  -0.003294
 684   9   4.309084  -0.111835   2.692812  -0.000446   0.154660  -0.002881
 685   9   4.976171  -1.418504   3.203505  -0.000172   0.154660  -0.001113
 686   9   5.107940  -2.291678   4.481551  -0.000266   0.154660  -0.001721
 687   9   4.646330  -2.346616   5.963811  -0.000384   0.154660  -0.002481
 688   9   3.794738  -1.559110   6.997166  -0.000293   0.154660  -0.001897
 689   9   2.928396  -0.276155   7.126294  -0.000259   0.154660  -0.001675
 690  20   9.915208   0.452975   6.227495  -0.000215   0.069172  -0.003114
 691  20   9.506595  -0.510890   6.625576  -0.000506   0.153942  -0.003288
 692  20   8.768723  -1.627453   6.423018  -0.000550   0.153942  -0.003570
 693  20   8.023194  -2.260498   5.487262  -0.000574   0.153942  -0.003727
 694  20   7.583907  -2.143487   4.212298  -0.000470   0.153942  -0.003055
 695  20   7.635818  -1.325687   3.134937  -0.000522   0.153942  -0.003389
 696  20   8.007762  -0.377793   2.668436  -0.000236   0.069172  -0.003405
 697   9   9.626469   0.313594   6.732455  -0.000290   0.151257  -0.001920
 698   9   8.939228  -1.020329   6.977901  -0.000278   0.151257  -0.001836
 699   9   8.058427  -2.059196   6.302003  -0.000374   0.151257  -0.002476
 700   9   7.354917  -2.365602   4.989341  -0.000388   0.151257  -0.002562
 701   9   7.124904  -1.810539   3.592597  -0.000230   0.151257  -0.001520
 702   9   7.465233  -0.627709   2.699858  -0.000313   0.151257  -0.002070
 703  21   4.094857   1.600858   9.011698  -0.000219   0.070660  -0.003098
 704  21   4.228924   0.472151   9.037168  -0.000456   0.157623  -0.002891
 705  21   5.081321  -0.604318   9.041791  -0.000560   0.157623  -0.003550
 706  21   6.417553  -0.919086   9.013634  -0.000579   0.157623  -0.003672
 707  21   7.659749  -0.336027   8.964876  -0.000487   0.157623  -0.003092
 708  21   8.270706   0.892708   8.916601  -0.000475   0.157623  -0.003012
 709  21   7.986206   2.235736   8.889688  -0.000627   0.157623  -0.003978
 710   9   3.846698   1.150115   8.694765  -0.000291   0.154197  -0.001888
 711   9   4.353541  -0.306267   8.718566  -0.000190   0.154197  -0.001231
 712   9   5.655027  -1.133578   8.704571  -0.000350   0.154197  -0.002272
 713   9   7.188311  -0.974036   8.658833  -0.000348   0.154197  -0.002257
 714   9   8.290304   0.103363   8.601132  -0.000185   0.154197  -0.001198
 715   9   8.484435   1.632683   8.556421  -0.000359   0.154197  -0.002330
 716   9   7.981227   2.782004   8.540440  -0.000152   0.086326  -0.001756
 717  13   3.894853  12.476447   1.789830  -0.000774   0.229126  -0.003379
 718  13   4.402831  12.753460   2.678013  -0.001758   0.458138  -0.003837
 719  13   4.887341  12.616614   3.610842  -0.000292   0.229126  -0.001275
 720  10   2.776440  12.756847   2.823724  -0.001054   0.458138  -0.002301
 721  10   3.395881  12.844329   3.960270  -0.001434   0.458138  -0.003131
 722  18   0.686393   5.325850   7.635600  -0.000430   0.265036  -0.001623
 723  18  -0.116907   4.878523   6.805257  -0.002450   0.530295  -0.004620
 724  18  -0.498124   4.641387   5.650570  -0.000809   0.265036  -0.003051
 725  12  -0.316352   6.430843   7.301518  -0.002058   0.530295  -0.003881
 726  12  -1.054689   6.004201   6.064201  -0.001712   0.530295  -0.003228
 727  16   7.694386  10.958493  -1.021463  -0.000468   0.229108  -0.002045
 728  16   8.138173  11.709999  -0.421550  -0.001393   0.458100  -0.003040
 729  16   8.639453  12.123656   0.414638  -0.000153   0.229108  -0.000669
 730  13   6.541093  11.505899  -0.142206  -0.001326   0.458100  -0.002895
 731  13   7.130942  12.233118   0.754115  -0.001815   0.458100  -0.003961
 732  17  11.248186   3.418670   1.236998  -0.000425   0.266421  -0.001596
 733  17  12.064536   3.685414   2.139812  -0.002499   0.533089  -0.004687
 734  17  12.429067   4.293114   3.164736  -0.000812   0.266421  -0.003046
 735  15  12.153714   4.546852   0.744605  -0.002127   0.533089  -0.003991
 736  15  12.889744   5.091883   1.946142  -0.001634   0.533089  -0.003066
 737  20   9.401392   0.155647   2.966068  -0.000578   0.237599  -0.002434
 738  20  10.087219   0.167033   3.873567  -0.001913   0.475262  -0.004026
 739  20  10.327438   0.598423   5.170362  -0.001432   0.475262  -0.003014
 740  17  10.335372   1.306136   2.790258  -0.001771   0.475262  -0.003726
 741  17  10.963326   1.488152   4.014195  -0.002275   0.475262  -0.004786
 742  17  10.947987   1.950496   5.053448  -0.000670   0.237599  -0.002818
 743  19   2.037353   0.455006   6.263413  -0.000153   0.254675  -0.000601
 744  19   1.868732   0.496622   5.139489  -0.001294   0.509218  -0.002542
 745  18   1.207040   1.806567   5.998499  -0.001718   0.509218  -0.003374
 746  18   1.123313   1.895501   4.867813  -0.000258   0.254675  -0.001015
 =====================================================

              5147415  WORDS OF DYNAMIC MEMORY USED
 EXECUTION OF GAMESS TERMINATED NORMALLY Tue Nov 22 19:24:15 2016
 DDI: 263640 bytes (0.3 MB / 0 MWords) used by master data server.

 ----------------------------------------
 CPU timing information for all processes
 ========================================
 0: 1210.500 + 0.356 = 1210.856
 ----------------------------------------
 ddikick.x: exited gracefully.
