----- GAMESS execution script -----

          ******************************************************
          *         GAMESS VERSION =  5 DEC 2014 (R1)          *
          *             FROM IOWA STATE UNIVERSITY             *
          * M.W.SCHMIDT, K.K.BALDRIDGE, J.A.BOATZ, S.T.ELBERT, *
          *   M.S.GORDON, J.H.JENSEN, S.KOSEKI, N.MATSUNAGA,   *
          *          K.A.NGUYEN, S.J.SU, T.L.WINDUS,           *
          *       TOGETHER WITH M.DUPUIS, J.A.MONTGOMERY       *
          *         J.COMPUT.CHEM.  14, 1347-1363(1993)        *
          **************** 64 BIT LINUX VERSION ****************

 EXECUTION OF GAMESS BEGUN Tue Nov 22 19:17:36 2016

            ECHO OF THE FIRST FEW INPUT CARDS -
 INPUT CARD>! SELECT RESTRICTED HARTREE-FOCK AS DEFAULT                                     
 INPUT CARD>$contrl scftyp=rhf $end                                                         
 INPUT CARD>                                                                                
 INPUT CARD>! THEORY: HF OR DFT                                                             
 INPUT CARD> $contrl mplevl=0 $end                                                          
 INPUT CARD>                                                                                
 INPUT CARD> $system timlim=10000 mwords=20 $end                                            
 INPUT CARD> $SCF DIRSCF=.TRUE. $end                                                        
 INPUT CARD>                                                                                
 INPUT CARD>                                                                                
 INPUT CARD>! BASIS SETS                                                                    
 INPUT CARD>! 6-311G(d,p)                                                                   
 INPUT CARD> $BASIS GBASIS=N311 NGAUSS=6 NDFUNC=1 NPFUNC=1 $END                             
 INPUT CARD>                                                                                
 INPUT CARD>! One of the following                                                          
 INPUT CARD> $guess guess=HUCKEL $end                                                       
 INPUT CARD>                                                                                
 INPUT CARD> $statpt projct=.FALSE. $end                                                    
 INPUT CARD> $STATPT IFREEZ(1)=1,2,3 $END                                                   
 INPUT CARD>                                                                                
 INPUT CARD>! Optimize the geometry with COSMO effects                                      
 INPUT CARD> $statpt opttol=0.0005 nstep=50 $end                                            
 INPUT CARD> $contrl nzvar=1 $end                                                           
 INPUT CARD> $zmat dlc=.t. auto=.t. $end                                                    
 INPUT CARD> $contrl runtyp=OPTIMIZE maxit=200 $end                                         
 INPUT CARD>                                                                                
 INPUT CARD>! Run COSMO on perfect conductor                                                
 INPUT CARD> $COSGMS PRFCND=.TRUE. $end                                                     
 INPUT CARD>                                                                                
 INPUT CARD>! Specifying RSOLV                                                              
 INPUT CARD> $COSGMS COSRAD = 1.4 $end                                                      
 INPUT CARD>                                                                                
 INPUT CARD>! available memory                                                              
 INPUT CARD> $SYSTEM MWORDS=40 $END                                                         
 INPUT CARD>                                                                                
 INPUT CARD> $DATA                                                                          
 INPUT CARD>1,3-Butadiene, ID: C106990                                                      
 INPUT CARD>C1                                                                              
 INPUT CARD>C      6.0      1.0427000000    0.2926000000    0.9930000000                    
 INPUT CARD>C      6.0      1.7336000000    0.7541000000    2.0332000000                    
 INPUT CARD>C      6.0      3.1324000000    1.1452000000    1.9266000000                    
 INPUT CARD>C      6.0      3.8225000000    1.6082000000    2.9667000000                    
 INPUT CARD>H      1.0      0.0000000000    0.0000000000    1.0678000000                    
 INPUT CARD>H      1.0      1.4683000000    0.1758000000    0.0000000000                    
 INPUT CARD>H      1.0      1.2652000000    0.8568000000    3.0203000000                    
 INPUT CARD>H      1.0      3.6011000000    1.0414000000    0.9399000000                    
 INPUT CARD>H      1.0      4.8653000000    1.9012000000    2.8925000000                    
 INPUT CARD>H      1.0      3.3958000000    1.7261000000    3.9591000000                    
 INPUT CARD> $END                                                                           
 INPUT CARD>                                                                                
   40000000 WORDS OF MEMORY AVAILABLE

     BASIS OPTIONS
     -------------
     GBASIS=N311         IGAUSS=       6      POLAR=POPN311 
     NDFUNC=       1     NFFUNC=       0     DIFFSP=       F
     NPFUNC=       1      DIFFS=       F     BASNAM=        


     RUN TITLE
     ---------
 1,3-Butadiene, ID: C106990                                                      

 THE POINT GROUP OF THE MOLECULE IS C1      
 THE ORDER OF THE PRINCIPAL AXIS IS     0

 ATOM      ATOMIC                      COORDINATES (BOHR)
           CHARGE         X                   Y                   Z
 C           6.0     1.9704172874        0.5529338240        1.8764979058
 C           6.0     3.2760289723        1.4250423673        3.8421908782
 C           6.0     5.9193776839        2.1641142011        3.6407460879
 C           6.0     7.2234775881        3.0390573335        5.6062500878
 H           1.0     0.0000000000        0.0000000000        2.0178494097
 H           1.0     2.7746846678        0.3322138286        0.0000000000
 H           1.0     2.3908813197        1.6191172263        5.7075394007
 H           1.0     6.8050922544        1.9679606436        1.7761534559
 H           1.0     9.1940838481        3.5927470479        5.4660324195
 H           1.0     6.4171315091        3.2618560274        7.4816141580

          INTERNUCLEAR DISTANCES (ANGS.)




     $CONTRL OPTIONS
     ---------------
 SCFTYP=RHF          RUNTYP=OPTIMIZE     EXETYP=RUN     
 MPLEVL=       0     CITYP =NONE         CCTYP =NONE         VBTYP =NONE    
 DFTTYP=NONE         TDDFT =NONE    
 MULT  =       1     ICHARG=       0     NZVAR =       1     COORD =UNIQUE  
 PP    =NONE         RELWFN=NONE         LOCAL =NONE         NUMGRD=       F
 ISPHER=      -1     NOSYM =       0     MAXIT =     200     UNITS =ANGS    
 PLTORB=       F     MOLPLT=       F     AIMPAC=       F     FRIEND=        
 NPRINT=       7     IREST =       0     GEOM  =INPUT   
 NORMF =       0     NORMP =       0     ITOL  =      20     ICUT  =       9
 INTTYP=BEST         GRDTYP=BEST         QMTTOL= 1.0E-06

     $SYSTEM OPTIONS
     ---------------
  REPLICATED MEMORY=    40000000 WORDS (ON EVERY NODE).
 DISTRIBUTED MEMDDI=           0 MILLION WORDS IN AGGREGATE,
 MEMDDI DISTRIBUTED OVER   1 PROCESSORS IS           0 WORDS/PROCESSOR.
 TOTAL MEMORY REQUESTED ON EACH PROCESSOR=    40000000 WORDS.
 TIMLIM=       10000.00 MINUTES, OR       6.9 DAYS.
 PARALL= F  BALTYP=  DLB     KDIAG=    0  COREFL= F
 MXSEQ2=     300 MXSEQ3=     150  mem10=         0

     $COSGMS OPTIONS
     ---------------
     EPSI  =   INFTY     NSPA  =      92     COSRAD=    1.40
     DISEX =   10.00     OUTCHG=DBLCAV       COSBUG=       F
     COSWRT=       F     DCOSMO=       F

     SYMMETRY COORDINATES WILL NOT BE USED FOR 
     THE COSMO CALCULATION, EVEN IF SPECIFIED:
         -- SWITCHING TO C1 POINT GROUP --


     DEFINITION OF CAVITY
     ---------------------------
     ATOM         COORDINATES           RADIUS 
     1    1.9704    0.5529    1.8765    2.0000
     2    3.2760    1.4250    3.8422    2.0000
     3    5.9194    2.1641    3.6407    2.0000
     4    7.2235    3.0391    5.6063    2.0000
     5    0.0000    0.0000    2.0178    1.3000
     6    2.7747    0.3322    0.0000    1.3000
     7    2.3909    1.6191    5.7075    1.3000
     8    6.8051    1.9680    1.7762    1.3000
     9    9.1941    3.5927    5.4660    1.3000
    10    6.4171    3.2619    7.4816    1.3000

          ----------------
          PROPERTIES INPUT
          ----------------

     MOMENTS            FIELD           POTENTIAL          DENSITY
 IEMOM =       1   IEFLD =       0   IEPOT =       0   IEDEN =       0
 WHERE =COMASS     WHERE =NUCLEI     WHERE =NUCLEI     WHERE =NUCLEI  
 OUTPUT=BOTH       OUTPUT=BOTH       OUTPUT=BOTH       OUTPUT=BOTH    
 IEMINT=       0   IEFINT=       0                     IEDINT=       0
                                                       MORB  =       0
          EXTRAPOLATION IN EFFECT
          SOSCF IN EFFECT
 ORBITAL PRINTING OPTION: NPREO=     1   112     2     1

     -------------------------------
     INTEGRAL TRANSFORMATION OPTIONS
     -------------------------------
     NWORD  =            0
     CUTOFF = 1.0E-09     MPTRAN =       0
     DIRTRF =       T     AOINTS =DUP     

          ----------------------
          INTEGRAL INPUT OPTIONS
          ----------------------
 NOPK  =       1 NORDER=       0 SCHWRZ=       T


 -----------------------------------------------
  STATISTICS ON AUTOMATIC COORDINATE GENERATION 
 -----------------------------------------------
  NUMBER OF USER SPECIFIED BONDS                             0
  NUMBER OF BONDS                                            9
  NUMBER OF ANGLES                                          12
  NUMBER OF TORSIONS                                        12
  NUMBER OF EXTRA COORD.                                     0
  NUMBER OF EXTRA COORD. FOR CONSTRAINTS                     0
  NUMBER OF CONSTRAINED COORD.                               0

  TOTAL NUMBER OF PRIMITIVES                                33
 -----------------------------------------------

   --- ENCODED Z MATRIX ---
 COORD  TYPE   I   J   K   L   M   N
    1      1    1   5
    2      1    1   6
    3      1    1   2
    4      1    2   7
    5      1    2   3
    6      1    3   8
    7      1    3   4
    8      1    4  10
    9      1    4   9
   10      2    1   2   3
   11      2    1   2   7
   12      2    2   1   6
   13      2    2   3   4
   14      2    2   1   5
   15      2    2   3   8
   16      2    3   2   7
   17      2    3   4  10
   18      2    3   4   9
   19      2    4   3   8
   20      2    5   1   6
   21      2    9   4  10
   22      3    1   2   3   8
   23      3    1   2   3   4
   24      3    2   3   4   9
   25      3    2   3   4  10
   26      3    3   2   1   6
   27      3    3   2   1   5
   28      3    4   3   2   7
   29      3    5   1   2   7
   30      3    6   1   2   7
   31      3    7   2   3   8
   32      3    8   3   4   9
   33      3    8   3   4  10

          INDEP./SYM. INTERNAL COORDINATES
          --------------------------------
 CRD  1=  -0.5272 ( 10)  0.1975 ( 11) -0.1914 ( 12)  0.5274 ( 13)  0.1829 ( 14)
          -0.3298 ( 15)  0.3298 ( 16)  0.1914 ( 17) -0.1829 ( 18) -0.1976 ( 19)
 CRD  2=   0.3311 (  3)  0.3900 (  5)  0.3311 (  7)  0.3731 ( 10) -0.2876 ( 11)
           0.2224 ( 12)  0.3729 ( 13)  0.2223 ( 17) -0.2875 ( 19) -0.1370 ( 20)
          -0.1369 ( 21)
 CRD  3=  -0.4187 ( 22) -0.5634 ( 23)  0.1702 ( 24) -0.1342 ( 25) -0.1342 ( 26)
           0.1700 ( 27) -0.4188 ( 28) -0.2846 ( 30) -0.2742 ( 31) -0.2847 ( 33)
 CRD  4=   0.1539 (  1)  0.3724 (  3)  0.1344 (  5)  0.3721 (  7)  0.1539 (  9)
          -0.1131 ( 10)  0.2753 ( 11) -0.1924 ( 12) -0.1131 ( 13)  0.3690 ( 14)
          -0.1619 ( 15) -0.1622 ( 16) -0.1923 ( 17)  0.3689 ( 18)  0.2750 ( 19)
          -0.1767 ( 20) -0.1766 ( 21)
 CRD  5=  -0.1394 (  1) -0.3630 (  3)  0.3632 (  7)  0.1397 (  9) -0.2953 ( 11)
           0.1266 ( 12) -0.3055 ( 14) -0.3348 ( 15)  0.3349 ( 16) -0.1269 ( 17)
           0.3060 ( 18)  0.2953 ( 19)  0.1790 ( 20) -0.1791 ( 21)
 CRD  6=   0.1243 (  1) -0.1751 (  2) -0.1463 (  3)  0.1246 (  4)  0.5402 (  5)
           0.1244 (  6) -0.1468 (  7) -0.1751 (  8)  0.1241 (  9) -0.2594 ( 11)
          -0.2484 ( 12)  0.1763 ( 14)  0.3196 ( 15)  0.3194 ( 16) -0.2485 ( 17)
           0.1762 ( 18) -0.2596 ( 19)
 CRD  7=   0.1885 ( 23) -0.4926 ( 24) -0.3535 ( 25) -0.3531 ( 26) -0.4924 ( 27)
          -0.2348 ( 29) -0.3068 ( 31) -0.2348 ( 32)
 CRD  8=   0.1806 (  1) -0.2529 (  2) -0.2734 (  3) -0.2864 (  4)  0.2866 (  6)
           0.2734 (  7)  0.2529 (  8) -0.1805 (  9)  0.1245 ( 10) -0.3846 ( 12)
          -0.1246 ( 13)  0.2186 ( 14)  0.3846 ( 17) -0.2185 ( 18)  0.1660 ( 20)
          -0.1661 ( 21)
 CRD  9=  -0.1801 (  1)  0.1815 (  2)  0.1125 (  3)  0.4854 (  4)  0.1632 (  5)
           0.4853 (  6)  0.1125 (  7)  0.1814 (  8) -0.1800 (  9) -0.2351 ( 10)
           0.2333 ( 12) -0.2350 ( 13) -0.1437 ( 14)  0.1774 ( 15)  0.1775 ( 16)
           0.2332 ( 17) -0.1436 ( 18)
 CRD 10=  -0.3449 (  1) -0.4126 (  2)  0.4162 (  8)  0.3482 (  9)  0.1574 ( 12)
           0.1996 ( 14) -0.1588 ( 17) -0.2012 ( 18) -0.3570 ( 20)  0.3600 ( 21)
 CRD 11=  -0.3770 (  1) -0.4084 (  2) -0.4048 (  8) -0.3740 (  9)  0.1649 ( 12)
           0.1856 ( 14)  0.1635 ( 17)  0.1838 ( 18) -0.3505 ( 20) -0.3473 ( 21)
 CRD 12=   0.3519 ( 24)  0.3294 ( 25) -0.3293 ( 26) -0.3524 ( 27) -0.3768 ( 29)
          -0.3538 ( 30)  0.3763 ( 32)  0.3538 ( 33)
 CRD 13=  -0.3855 (  1) -0.2580 (  3)  0.2579 (  7)  0.3855 (  9)  0.3589 ( 11)
          -0.1278 ( 14)  0.3093 ( 15) -0.3093 ( 16)  0.1278 ( 18) -0.3590 ( 19)
           0.1856 ( 20) -0.1855 ( 21)
 CRD 14=  -0.1244 (  1)  0.3249 (  2) -0.5882 (  4)  0.5882 (  6) -0.3250 (  8)
           0.1241 (  9) -0.1206 ( 20)  0.1208 ( 21)
 CRD 15=  -0.3830 (  1) -0.1200 (  2)  0.3929 (  5) -0.1198 (  8) -0.3832 (  9)
           0.1064 ( 10)  0.1495 ( 11) -0.1908 ( 12)  0.1064 ( 13) -0.1291 ( 14)
          -0.2560 ( 15) -0.2559 ( 16) -0.1908 ( 17) -0.1290 ( 18)  0.1496 ( 19)
           0.3198 ( 20)  0.3198 ( 21)
 CRD 16=   0.2035 ( 22)  0.4242 ( 24) -0.2194 ( 25)  0.2191 ( 26) -0.4239 ( 27)
          -0.2031 ( 28) -0.2126 ( 29)  0.4305 ( 30)  0.2125 ( 32) -0.4311 ( 33)
 CRD 17=   0.2766 (  1) -0.4431 (  2)  0.3530 (  4) -0.2885 (  5)  0.3529 (  6)
          -0.4433 (  8)  0.2764 (  9)  0.1048 ( 10)  0.1047 ( 13) -0.1529 ( 14)
          -0.1106 ( 15) -0.1106 ( 16) -0.1529 ( 18)  0.1067 ( 20)  0.1069 ( 21)
 CRD 18=   0.2613 ( 22)  0.1278 ( 24) -0.2254 ( 25) -0.2255 ( 26)  0.1285 ( 27)
           0.2618 ( 28) -0.1201 ( 29) -0.4741 ( 30)  0.5002 ( 31) -0.1202 ( 32)
          -0.4735 ( 33)
 CRD 19=   0.1764 (  1)  0.2742 (  2) -0.4628 (  3)  0.1697 (  4) -0.1698 (  6)
           0.4628 (  7) -0.2740 (  8) -0.1766 (  9)  0.1043 ( 12)  0.2015 ( 14)
          -0.1043 ( 17) -0.2014 ( 18) -0.3058 ( 20)  0.3057 ( 21)
 CRD 20=  -0.3638 (  1)  0.2886 (  2)  0.1620 (  4) -0.1621 (  6) -0.2888 (  8)
           0.3637 (  9)  0.1774 ( 10) -0.2527 ( 11) -0.2956 ( 12) -0.1775 ( 13)
           0.2444 ( 14)  0.2955 ( 17) -0.2445 ( 18)  0.2527 ( 19)
 CRD 21=   0.1389 (  1)  0.1295 (  2) -0.4561 (  3)  0.1580 (  4)  0.3128 (  5)
           0.1580 (  6) -0.4560 (  7)  0.1293 (  8)  0.1391 (  9)  0.1475 ( 10)
           0.1466 ( 11)  0.1038 ( 12)  0.1474 ( 13) -0.2942 ( 15) -0.2941 ( 16)
           0.1039 ( 17)  0.1467 ( 19) -0.1863 ( 20) -0.1863 ( 21)
 CRD 22=  -0.1957 (  1)  0.2039 (  2)  0.2855 (  4) -0.4177 (  5)  0.2855 (  6)
           0.2039 (  8) -0.1956 (  9)  0.2802 ( 10) -0.2438 ( 11) -0.2335 ( 12)
           0.2802 ( 13)  0.2393 ( 14) -0.2334 ( 17)  0.2393 ( 18) -0.2438 ( 19)
 CRD 23=  -0.3696 ( 23) -0.1646 ( 24)  0.3482 ( 25)  0.3484 ( 26) -0.1645 ( 27)
          -0.4949 ( 29)  0.2655 ( 31) -0.4952 ( 32)
 CRD 24=   0.4453 ( 22)  0.1054 ( 24)  0.3979 ( 25) -0.3982 ( 26) -0.1055 ( 27)
          -0.4451 ( 28)  0.3577 ( 29) -0.3578 ( 32)

 THE DETERMINANT OF THE G MATRIX IS 10**(    -8)


                     --------------------
                     INTERNAL COORDINATES
                     --------------------

                 - - ATOMS - -         COORDINATE      COORDINATE
 NO.   TYPE    I  J  K  L  M  N        (BOHR,RAD)       (ANG,DEG)
 ----------------------------------------------------------------
   1 STRETCH   1  5                     2.0514045       1.0855566
   2 STRETCH   1  6                     2.0534867       1.0866585
   3 STRETCH   1  2                     2.5157790       1.3312930
   4 STRETCH   2  7                     2.0738073       1.0974116
   5 STRETCH   2  3                     2.7521082       1.4563531
   6 STRETCH   3  8                     2.0735651       1.0972835
   7 STRETCH   3  4                     2.5158315       1.3313208
   8 STRETCH   4 10                     2.0534906       1.0866605
   9 STRETCH   4  9                     2.0517120       1.0857193
  10 BEND      1  2  3                  2.1345489     122.3006457
  11 BEND      1  2  7                  2.1103330     120.9131751
  12 BEND      2  1  6                  2.1507715     123.2301319
  13 BEND      2  3  4                  2.1342174     122.2816521
  14 BEND      2  1  5                  2.1389534     122.5530051
  15 BEND      2  3  8                  2.0383250     116.7874199
  16 BEND      3  2  7                  2.0383033     116.7861791
  17 BEND      3  4 10                  2.1503786     123.2076204
  18 BEND      3  4  9                  2.1392471     122.5698275
  19 BEND      4  3  8                  2.1106428     120.9309272
  20 BEND      5  1  6                  1.9934603     114.2168626
  21 BEND      9  4 10                  1.9935596     114.2225519
  22 TORSION   1  2  3  8              -0.0012893      -0.0738693
  23 TORSION   1  2  3  4               3.1401314     179.9162758
  24 TORSION   2  3  4  9              -3.1414560    -179.9921730
  25 TORSION   2  3  4 10               0.0000241       0.0013809
  26 TORSION   3  2  1  6              -0.0000514      -0.0029436
  27 TORSION   3  2  1  5              -3.1415108    -179.9953096
  28 TORSION   4  3  2  7              -0.0013983      -0.0801157
  29 TORSION   5  1  2  7               0.0000163       0.0009357
  30 TORSION   6  1  2  7               3.1414757     179.9933018
  31 TORSION   7  2  3  8               3.1403664     179.9297392
  32 TORSION   8  3  4  9              -0.0000424      -0.0024288
  33 TORSION   8  3  4 10               3.1414378     179.9911251

     ------------------------------------------
     THE POINT GROUP IS C1 , NAXIS= 1, ORDER= 1
     ------------------------------------------

     DIMENSIONS OF THE SYMMETRY SUBSPACES ARE
 A   =  112

 ..... DONE SETTING UP THE RUN .....
 STEP CPU TIME =     0.00 TOTAL CPU TIME =        0.0 (    0.0 MIN)
 TOTAL WALL CLOCK TIME=        0.0 SECONDS, CPU UTILIZATION IS   0.00%


          -----------------------------
          STATIONARY POINT LOCATION RUN
          -----------------------------

 OBTAINING INITIAL HESSIAN, HESS=GUESS   
 DIAGONAL GUESS HESSIAN IN INTERNAL COORDS IS
     1  0.3494     2  0.3486     3  0.5403     4  0.3414     5  0.4237
     6  0.3415     7  0.5403     8  0.3486     9  0.3493    10  0.2688
    11  0.2359    12  0.2366    13  0.2688    14  0.2367    15  0.2281
    16  0.2281    17  0.2366    18  0.2367    19  0.2359    20  0.2038
    21  0.2038    22  0.2500    23  0.2500    24  0.2500    25  0.2500
    26  0.2500    27  0.2500    28  0.2500    29  0.2500    30  0.2500
    31  0.2500    32  0.2500    33  0.2500
 TRANSFORMING HESSIAN TO SYMMETRY COORDINATES

          PARAMETERS CONTROLLING GEOMETRY SEARCH ARE
          METHOD =QA                  UPHESS =BFGS    
          NNEG   =         0          NFRZ   =         3
          NSTEP  =        50          IFOLOW =         1
          HESS   =GUESS               RESTAR =         F
          IHREP  =         0          HSSEND =         F
          NPRT   =         0          NPUN   =         0
          OPTTOL = 5.000E-04          RMIN   = 1.500E-03
          RMAX   = 1.000E-01          RLIM   = 7.000E-02
          DXMAX  = 3.000E-01          PURIFY =         F
          MOVIE  =         F          TRUPD  =         T
          TRMAX  = 5.000E-01          TRMIN  = 5.000E-02
          ITBMAT =         5          STPT   =         F
          STSTEP = 1.000E-02          PROJCT=          F
          FROZEN COORD(S)=   1   2   3


      ***** EQUILIBRIUM GEOMETRY LOCATED *****
            (SUBJECT TO   3 CONSTRAINT(S))
 COORDINATES OF ALL ATOMS ARE (ANGS)
   ATOM   CHARGE       X              Y              Z
 ------------------------------------------------------------
 C           6.0   1.0340631011   0.2899566457   0.9927841167
 C           6.0   1.7275015281   0.7495269929   2.0219661695
 C           6.0   3.1384975790   1.1498065310   1.9378318205
 C           6.0   3.8311158521   1.6108102148   2.9669231099
 H           1.0   0.0010572817   0.0058226712   1.0902506301
 H           1.0   1.4812257477   0.1839941329   0.0177477037
 H           1.0   1.2572388759   0.8466274416   2.9885339005
 H           1.0   3.6093098399   1.0516777750   0.9716279040
 H           1.0   4.8640825278   1.8952576034   2.8699585042
 H           1.0   3.3830469585   1.7179157984   3.9414192447


                     --------------------
                     INTERNAL COORDINATES
                     --------------------

                 - - ATOMS - -         COORDINATE      COORDINATE
 NO.   TYPE    I  J  K  L  M  N        (BOHR,RAD)       (ANG,DEG)
 ----------------------------------------------------------------
   1 STRETCH   1  5                     2.0329560       1.0757941
   2 STRETCH   1  6                     2.0369445       1.0779047
   3 STRETCH   1  2                     2.5007848       1.3233584
   4 STRETCH   2  7                     2.0395289       1.0792723
   5 STRETCH   2  3                     2.7761690       1.4690855
   6 STRETCH   3  8                     2.0395418       1.0792791
   7 STRETCH   3  4                     2.5007818       1.3233568
   8 STRETCH   4 10                     2.0369459       1.0779054
   9 STRETCH   4  9                     2.0329558       1.0757939
  10 BEND      1  2  3                  2.1571916     123.5979722
  11 BEND      1  2  7                  2.0937229     119.9614883
  12 BEND      2  1  6                  2.1179356     121.3487705
  13 BEND      2  3  4                  2.1568368     123.5776439
  14 BEND      2  1  5                  2.1228287     121.6291275
  15 BEND      2  3  8                  2.0325024     116.4538093
  16 BEND      3  2  7                  2.0322708     116.4405394
  17 BEND      3  4 10                  2.1177499     121.3381312
  18 BEND      3  4  9                  2.1229968     121.6387572
  19 BEND      4  3  8                  2.0938461     119.9685463
  20 BEND      5  1  6                  2.0424210     117.0221015
  21 BEND      9  4 10                  2.0424386     117.0231111
  22 TORSION   1  2  3  8              -0.0013017      -0.0745825
  23 TORSION   1  2  3  4               3.1401541     179.9175786
  24 TORSION   2  3  4  9              -3.1414395    -179.9912239
  25 TORSION   2  3  4 10               0.0000013       0.0000722
  26 TORSION   3  2  1  6              -0.0000424      -0.0024268
  27 TORSION   3  2  1  5              -3.1414831    -179.9937224
  28 TORSION   4  3  2  7              -0.0013740      -0.0787255
  29 TORSION   5  1  2  7               0.0000429       0.0024578
  30 TORSION   6  1  2  7               3.1414836     179.9937534
  31 TORSION   7  2  3  8               3.1403554     179.9291134
  32 TORSION   8  3  4  9               0.0000118       0.0006748
  33 TORSION   8  3  4 10               3.1414525     179.9919710

          INTERNUCLEAR DISTANCES (ANGS.)


 =====================================================
   GAMESS/COSab RESULTS
 =====================================================

   Dielectric Constant                  = INFTY
   Basic Grid Size                      =                 1082
   Number of Segments                   =                   92
   Number of Segments located on spheres=                  202
   Number of Segments of the cavity     =                  414
   Solvent Radius (rsolv)               = 1.40
   Outlying Charge Error Method         = double cavity

 =====================================================

  Total solvated Energy (a.u.)          =  -154.9643090111
  Total Energy corrected (a.u.)         =  -154.9643544644

  Outlying charge effect (a.u.)         =    -0.0000454533
  Outlying charge effect (kcal/mol)     =    -0.0285224144

  Dielectric Energy (a.u.)              =    -0.0049954739
  Dielectric energy corr. (a.u.)        =    -0.0050409272

  Sum of polarization charges           =     0.0202808719
  Sum of polarization charges(cor.)     =    -0.0202808719

  Total surface area of cavity (A**2)   =  107.82
  Total volume of cavity (A**3)         =   90.75

 =====================================================
 NPS=                   414
NR.  ATOM  (X, Y, Z)(a.u.)                  CHARGE(e)  AREA(A**2) SIGMA(e/A**2)
   1   1   2.131980   4.015869   0.384091   0.002898   0.325193   0.008910
   2   1   3.978275  -2.264378   0.366812   0.000997   0.278737   0.003578
   3   1  -0.548097   3.181381   2.919251   0.001663   0.325193   0.005115
   4   1  -0.318909   2.106918  -0.709889   0.000681   0.418105   0.001628
   5   1   0.768117  -1.955818  -0.694703   0.000175   0.278737   0.000628
   6   1   1.328800  -3.037164   2.896050   0.001889   0.371649   0.005082
   7   1   4.621424  -1.869335   0.724355   0.000937   0.278737   0.003361
   8   1   0.280805  -2.689066   2.879164   0.001143   0.371649   0.003076
   9   1  -0.271472  -1.595729  -0.300107  -0.000108   0.371649  -0.000292
  10   1  -1.094656   1.419832  -0.180402   0.000368   0.418105   0.000879
  11   1  -1.147526   2.548420   2.689842   0.001050   0.278737   0.003768
  12   1  -0.408046  -0.407648   4.667385  -0.000230   0.092912  -0.002480
  13   1   2.928794   3.376915  -0.432835   0.001446   0.325193   0.004446
  14   1   2.335261   3.109376  -0.876733   0.000836   0.232280   0.003600
  15   1   4.179423  -2.501982   1.702227   0.002588   0.371649   0.006965
  16   1  -0.946019   2.183099   3.664875   0.000615   0.185824   0.003309
  17   1  -0.737288   3.201097   1.838777   0.001732   0.325193   0.005326
  18   1  -0.708060   2.742399   0.332881   0.001453   0.464561   0.003128
  19   1  -0.352442   0.770026  -1.109683   0.000325   0.371649   0.000874
  20   1   0.041950  -0.651339  -1.155368   0.000149   0.371649   0.000402
  21   1   0.617401  -2.591570   0.250962   0.000825   0.603929   0.001366
  22   1   0.949098  -3.091690   1.710643   0.001378   0.464561   0.002967
  23   1   0.958055  -2.390014   4.034927   0.002626   0.371649   0.007066
  24   1   0.056175  -1.319108   4.558671   0.000442   0.185824   0.002379
  25   1   0.164815   3.876976   1.862668   0.003634   0.371649   0.009778
  26   1   1.234787   4.181032   1.122798   0.002464   0.371649   0.006629
  27   1   1.346205   3.672542  -0.161451   0.002086   0.418105   0.004989
  28   1   0.407242   2.991280  -0.557340   0.001334   0.464561   0.002871
  29   1   0.412673   1.553421  -1.425017   0.000386   0.371649   0.001038
  30   1   1.258911   2.183347  -1.459543   0.000338   0.232280   0.001457
  31   1   0.746212  -1.218055  -1.239452  -0.000132   0.278737  -0.000473
  32   1   1.836301  -2.275325  -0.633819   0.000306   0.418105   0.000732
  33   1   3.015558  -2.566212   0.016062   0.000968   0.371649   0.002605
  34   1   3.223563  -2.959851   1.269300   0.002027   0.464561   0.004364
  35   1   2.334781  -3.197906   2.204768   0.002527   0.511017   0.004946
  36   1   2.213347  -2.813522   3.584201   0.003008   0.418105   0.007193
  37   1   0.109020  -2.710595   1.364294   0.000286   0.278737   0.001027
  38   1  -0.680688  -0.050710  -0.766601  -0.000127   0.325193  -0.000390
  39   1  -1.212784   2.496745   1.199901   0.000988   0.325193   0.003037
  40   1  -0.907826   1.548230   4.132855  -0.000041   0.092912  -0.000438
  41   1   0.211745  -2.018777   4.034889   0.000850   0.232280   0.003659
  42   1   1.472594   2.892692  -1.048729   0.001052   0.325193   0.003236
  43   1   3.465020  -2.811291   2.722839   0.004108   0.418105   0.009826
  44   1   0.109925   3.655618   0.769031   0.002467   0.464561   0.005310
  45   1   0.555880   0.380623  -1.631231  -0.000145   0.232280  -0.000622
  46   1   1.970904  -3.031970   0.664358   0.001278   0.557473   0.002292
  47   2   2.815358   4.681734   1.971618   0.001264   0.185824   0.006800
  48   2   2.667392   5.015959   4.806261   0.000311   0.139368   0.002233
  49   2   0.265750   3.618268   4.486884   0.001671   0.278737   0.005995
  50   2   3.575087  -1.620591   6.049082   0.001357   0.418105   0.003247
  51   2   3.084118  -0.932032   6.776736   0.000674   0.325193   0.002072
  52   2   0.704999  -0.578780   5.758088   0.000176   0.092912   0.001898
  53   2  -0.000557   2.877228   5.041439   0.000482   0.278737   0.001729
  54   2   2.341400   4.512493   5.782153   0.000126   0.232280   0.000542
  55   2   1.928280   4.762552   4.961995   0.000683   0.278737   0.002452
  56   2   0.893929   4.285682   4.478069   0.001083   0.232280   0.004661
  57   2   1.246735  -1.052198   5.850471   0.000538   0.185824   0.002896
  58   2   2.365863  -1.704147   5.754591   0.002149   0.418105   0.005141
  59   2   4.229748  -0.854346   6.683879   0.000302   0.232280   0.001301
  60   2   2.546947   5.124622   3.956557   0.001085   0.325193   0.003338
  61   2   2.650038   5.014110   2.839579   0.001242   0.232280   0.005346
  62   2   1.881202   4.784104   2.806442   0.002197   0.232280   0.009460
  63   2   0.930216   4.372721   3.511992   0.001558   0.278737   0.005591
  64   2   3.552803  -2.183633   4.934944   0.003998   0.511017   0.007824
  65   2   4.588515  -1.601869   5.670650   0.001161   0.371649   0.003124
  66   2   1.979662  -1.148948   6.281133   0.000636   0.232280   0.002740
  67   2   1.179088   4.211470   5.277948   0.000838   0.325193   0.002578
  68   2   3.701246  -0.205744   7.206544  -0.000101   0.092912  -0.001092
  69   2   4.717555  -2.059473   4.123075   0.002820   0.418105   0.006744
  70   2   1.615500   4.816803   3.868210   0.001280   0.278737   0.004593
  71   3   4.378738   5.613166   3.859528   0.000933   0.185824   0.005020
  72   3   4.693351   4.722806   1.161922   0.000191   0.139368   0.001370
  73   3   7.407532   5.072776   1.739998   0.001672   0.278737   0.005997
  74   3   7.530135  -1.188989   3.010067   0.001357   0.418105   0.003244
  75   3   7.680848  -0.736594   2.001469   0.000679   0.325193   0.002089
  76   3   9.377610   1.196181   2.457567   0.000176   0.092912   0.001898
  77   3   8.088248   4.425416   1.527532   0.000483   0.278737   0.001732
  78   3   5.355157   4.101632   0.463158   0.000171   0.232280   0.000736
  79   3   5.469447   4.852394   1.036874   0.000703   0.278737   0.002522
  80   3   6.529111   5.244023   1.542058   0.001081   0.232280   0.004656
  81   3   9.177351   0.525236   2.646954   0.000538   0.185824   0.002893
  82   3   8.557697  -0.496848   3.154940   0.002147   0.418105   0.005136
  83   3   6.660468  -1.234122   2.197466   0.000265   0.232280   0.001140
  84   3   4.629911   5.229711   1.860015   0.000900   0.325193   0.002768
  85   3   4.457094   5.572972   2.919631   0.001482   0.232280   0.006381
  86   3   5.221973   5.816209   2.949701   0.002207   0.232280   0.009502
  87   3   6.329537   5.703421   2.373514   0.001557   0.278737   0.005585
  88   3   7.698520  -1.116530   4.245062   0.004041   0.511017   0.007908
  89   3   6.615508  -1.539152   3.469893   0.001011   0.371649   0.002721
  90   3   8.663334  -0.111316   2.396751   0.000636   0.232280   0.002738
  91   3   6.429090   4.698430   0.894792   0.000835   0.325193   0.002567
  92   3   6.837386  -0.703974   1.384556  -0.000097   0.092912  -0.001049
  93   3   6.545769  -1.281591   5.066715   0.002738   0.418105   0.006548
  94   3   5.565530   5.523474   1.952058   0.001305   0.278737   0.004682
  95   4   5.098238   6.155499   5.477429   0.002699   0.325193   0.008299
  96   4   6.794846   0.559602   8.419888   0.000999   0.278737   0.003584
  97   4   8.121639   5.843932   3.226165   0.001665   0.325193   0.005120
  98   4   8.019765   6.484760   6.962020   0.000681   0.418105   0.001628
  99   4   9.211424   2.909180   8.828262   0.000175   0.278737   0.000629
 100   4   9.759604   0.280315   6.151371   0.001889   0.371649   0.005083
 101   4   6.092193   0.364700   8.012668   0.001155   0.278737   0.004145
 102   4  10.462464   1.089106   5.883797   0.001104   0.371649   0.002971
 103   4   9.953768   3.546225   8.188564  -0.000108   0.371649  -0.000292
 104   4   9.099882   6.152577   6.684113   0.000369   0.418105   0.000882
 105   4   8.927258   5.785293   3.626319   0.001055   0.278737   0.003785
 106   4  10.090180   2.368085   3.218701  -0.000231   0.092912  -0.002482
 107   4   4.651580   5.619156   6.583492   0.001634   0.325193   0.005024
 108   4   5.235050   5.919585   7.019621   0.000834   0.232280   0.003592
 109   4   6.919552  -0.292557   7.352871   0.002438   0.371649   0.006560
 110   4   9.071686   4.992853   2.936438   0.000614   0.185824   0.003305
 111   4   8.132622   6.419539   4.160061   0.001733   0.325193   0.005330
 112   4   8.152690   6.710142   5.707358   0.001453   0.464561   0.003127
 113   4   8.690578   5.684682   7.888371   0.000325   0.371649   0.000874
 114   4   9.089030   4.448279   8.588694   0.000149   0.371649   0.000402
 115   4   9.790092   2.112189   8.235704   0.000824   0.603929   0.001365
 116   4   9.956651   0.944873   7.186683   0.001376   0.464561   0.002961
 117   4   9.883254   0.463606   4.808087   0.002625   0.371649   0.007064
 118   4  10.156913   1.499537   3.765738   0.000443   0.185824   0.002384
 119   4   7.022560   6.440801   3.963889   0.003633   0.371649   0.009775
 120   4   5.865564   6.427057   4.631623   0.002463   0.371649   0.006627
 121   4   5.870460   6.543225   6.012475   0.002106   0.418105   0.005037
 122   4   6.966722   6.696456   6.538998   0.001332   0.464561   0.002868
 123   4   7.596953   6.001884   7.932091   0.000386   0.371649   0.001039
 124   4   6.550453   6.043188   7.800753   0.000339   0.232280   0.001460
 125   4   8.777156   3.699516   8.996509  -0.000131   0.278737  -0.000471
 126   4   8.482311   2.092207   9.046799   0.000307   0.418105   0.000734
 127   4   7.720071   0.986447   8.740379   0.000970   0.371649   0.002609
 128   4   7.909409   0.050528   7.814620   0.002049   0.464561   0.004411
 129   4   8.904132  -0.064769   6.966718   0.002526   0.511017   0.004942
 130   4   8.984322  -0.308292   5.552646   0.003007   0.418105   0.007192
 131   4  10.424389   1.811236   7.226139   0.000283   0.278737   0.001016
 132   4   9.437938   5.101158   7.891477  -0.000127   0.325193  -0.000389
 133   4   8.817999   6.419142   4.972852   0.001007   0.325193   0.003097
 134   4   9.428938   4.303042   2.794832  -0.000040   0.092912  -0.000427
 135   4  10.321310   1.125660   4.553948   0.000848   0.232280   0.003653
 136   4   6.054475   6.280894   7.156470   0.001054   0.325193   0.003241
 137   4   7.814809  -0.587558   6.481562   0.004087   0.418105   0.009776
 138   4   7.043461   6.774026   5.029993   0.002465   0.464561   0.005305
 139   4   8.058087   5.148488   8.637469  -0.000144   0.232280  -0.000620
 140   4   8.927833   0.906679   8.227087   0.001276   0.557473   0.002288
 141   5  -2.338959  -0.677683   2.344398  -0.005437   0.608459  -0.008936
 142   5  -2.025011   1.063267   2.965318  -0.002249   0.412182  -0.005457
 143   5  -1.376192  -0.645804   3.984929  -0.001897   0.353299  -0.005369
 144   5  -1.143762  -2.115623   2.507216  -0.001733   0.353299  -0.004907
 145   5  -1.558057  -1.217103   0.613535  -0.001960   0.333671  -0.005874
 146   5  -1.996810   0.667578   0.791894  -0.001628   0.333671  -0.004879
 147   5  -1.932114   0.135495   3.569853  -0.003268   0.490692  -0.006660
 148   5  -1.509734  -1.495625   3.276752  -0.003217   0.490692  -0.006555
 149   5  -1.590223  -1.787999   1.546965  -0.003458   0.510320  -0.006776
 150   5  -2.120941  -0.384538   0.889050  -0.003511   0.490692  -0.007155
 151   5  -2.306449   0.836696   1.903992  -0.003768   0.549575  -0.006856
 152   6   3.436083   0.258490  -2.337424  -0.004156   0.490692  -0.008469
 153   6   4.459999  -1.155248  -0.975294  -0.002281   0.392554  -0.005811
 154   6   2.928972   1.728577  -1.994135  -0.001932   0.392554  -0.004923
 155   6   1.984802  -0.213197  -2.215333  -0.002166   0.372926  -0.005807
 156   6   3.253469  -1.609684  -1.379732  -0.001720   0.372926  -0.004611
 157   6   4.537721   0.113008  -1.686147  -0.003388   0.372926  -0.009085
 158   6   3.933713   1.507738  -1.810953  -0.003740   0.471065  -0.007939
 159   6   2.239910   0.876738  -2.299388  -0.002629   0.431809  -0.006089
 160   6   2.536794  -1.008331  -1.998086  -0.002684   0.412182  -0.006511
 161   6   3.860093  -0.803837  -1.859457  -0.002851   0.372926  -0.007644
 162   7   1.031129   1.369320   7.690468  -0.003567   0.431809  -0.008260
 163   7   1.634453   3.474318   7.051766  -0.002495   0.392554  -0.006357
 164   7   1.971607   0.108413   7.557273  -0.002083   0.392554  -0.005306
 165   7   0.232196   0.937890   6.648332  -0.002332   0.353299  -0.006601
 166   7   0.520799   2.991702   6.457918  -0.001724   0.372926  -0.004622
 167   7   1.869264   2.241815   7.964057  -0.003837   0.412182  -0.009310
 168   7   2.400801   0.866708   7.992060  -0.003579   0.431809  -0.008289
 169   7   0.940761   0.235245   7.101263  -0.002482   0.412182  -0.006023
 170   7   0.139902   1.947119   6.604120  -0.002769   0.412182  -0.006718
 171   7   0.990608   2.620667   7.400857  -0.002845   0.372926  -0.007630
 172   8   8.338332   1.639779  -0.064077  -0.003568   0.431809  -0.008263
 173   8   6.654066   3.156953  -0.317822  -0.002497   0.392554  -0.006362
 174   8   8.180954   0.276065   0.715438  -0.002083   0.392554  -0.005307
 175   8   9.103968   2.181930   0.950983  -0.002334   0.353299  -0.006605
 176   8   7.769653   3.632593   0.278023  -0.001724   0.372926  -0.004623
 177   8   7.212201   1.732713  -0.575703  -0.003840   0.412182  -0.009317
 178   8   7.480337   0.427790   0.056368  -0.003582   0.431809  -0.008294
 179   8   8.927879   1.100390   0.937396  -0.002483   0.412182  -0.006024
 180   8   8.652462   2.995172   0.546265  -0.002770   0.412182  -0.006720
 181   8   7.685973   2.710332  -0.346439  -0.002846   0.372926  -0.007632
 182   9  11.564020   4.165900   5.166340  -0.005449   0.608459  -0.008955
 183   9  10.474919   5.024504   3.904726  -0.002250   0.412182  -0.005459
 184   9  10.944383   2.986926   3.807905  -0.001899   0.353299  -0.005374
 185   9  11.321064   2.412156   5.789262  -0.001860   0.353299  -0.005264
 186   9  10.961857   4.102898   7.045196  -0.001962   0.333671  -0.005879
 187   9  10.377483   5.648161   6.021964  -0.001630   0.333671  -0.004886
 188   9  10.955469   4.031175   3.773488  -0.003270   0.490692  -0.006663
 189   9  11.407367   2.731087   4.788586  -0.003213   0.490692  -0.006548
 190   9  11.405110   3.297563   6.450881  -0.003444   0.510320  -0.006749
 191   9  11.040856   4.892878   6.370212  -0.003517   0.490692  -0.007167
 192   9  10.694130   5.457656   4.915310  -0.003669   0.549575  -0.006676
 193  10   5.596720   3.865245   9.688279  -0.004155   0.490692  -0.008467
 194  10   5.639886   1.704629   9.206270  -0.002281   0.392554  -0.005810
 195  10   5.306443   5.068734   8.686521  -0.001932   0.392554  -0.004921
 196  10   7.083668   4.217602   9.596419  -0.002165   0.372926  -0.005805
 197  10   6.843461   2.168197   9.609148  -0.001719   0.372926  -0.004609
 198  10   4.824801   2.906724   9.308394  -0.003386   0.372926  -0.009079
 199  10   4.595440   4.305287   8.745289  -0.003738   0.471065  -0.007935
 200  10   6.291661   4.927243   9.236921  -0.002628   0.431809  -0.006087
 201  10   7.057692   3.249896   9.813214  -0.002683   0.412182  -0.006508
 202  10   5.851026   2.654704   9.770095  -0.002850   0.372926  -0.007642
 203   1   4.838521  -1.924652   2.670821   0.000673   0.046172   0.014569
 204   2   5.083994  -1.808095   3.005718   0.000500   0.046172   0.010829
 205   3   5.531084  -1.637299   2.982744   0.000278   0.046172   0.006024
 206   1   3.006840   4.215197   1.163290   0.000697   0.046172   0.015103
 207   2   3.232116   4.399452   1.481564   0.000420   0.046172   0.009095
 208   3   3.701560   4.495318   1.476988   0.000273   0.046172   0.005917
 209   1  -0.446967   1.186229   4.846517  -0.000061   0.007888  -0.007774
 210   2  -0.254935   1.337974   5.200769  -0.000079   0.007888  -0.010002
 211   7  -0.153476   1.379760   5.479062  -0.000075   0.007888  -0.009555
 212   1  -0.122562   0.098592   5.113611  -0.000047   0.007888  -0.005958
 213   2   0.073349   0.237331   5.471057  -0.000079   0.007888  -0.009980
 214   7   0.145317   0.377993   5.725069  -0.000105   0.007888  -0.013251
 215   2   0.289784  -0.293228   5.378314  -0.000258   0.193266  -0.001336
 216   2   1.757587  -1.675604   5.006631   0.002870   0.396638   0.007235
 217   2   3.876928  -2.169907   3.799402   0.004595   0.396638   0.011586
 218   1   0.502120  -1.076257   4.789982   0.000564   0.396638   0.001422
 219   1   2.496501  -2.346091   4.013251   0.004493   0.396638   0.011327
 220   1   4.191256  -2.319952   2.859700   0.002077   0.193266   0.010745
 221   2   2.554499   4.467169   1.726720   0.001806   0.193252   0.009346
 222   2   0.961693   4.099665   2.964013   0.004416   0.396605   0.011134
 223   2  -0.163651   2.456453   4.455993   0.000339   0.396605   0.000854
 224   1   1.599122   4.165086   1.710401   0.004897   0.396605   0.012346
 225   1  -0.089210   3.214937   3.272229   0.002858   0.396605   0.007207
 226   1  -0.659522   1.588697   4.382665  -0.000178   0.193252  -0.000919
 227   1   5.552417  -0.738078   0.700063  -0.000137   0.064289  -0.002127
 228   3   6.282972  -0.508973   0.968462  -0.000223   0.064289  -0.003472
 229   8   6.421071  -0.321717   0.777373  -0.000411   0.064289  -0.006391
 230   1   4.481137   2.859076  -0.187270  -0.000139   0.064289  -0.002167
 231   3   5.183365   3.183300   0.057665  -0.000230   0.064289  -0.003576
 232   8   5.421603   3.034309  -0.050479  -0.000418   0.064289  -0.006504
 233   3   5.910419  -1.546734   2.540337   0.000703   0.305719   0.002299
 234   3   6.194727  -0.946452   1.361086   0.000063   0.305719   0.000205
 235   1   5.044725  -1.619864   1.517719   0.002382   0.613144   0.003884
 236   3   4.831027   3.630710   0.233259   0.000029   0.306807   0.000095
 237   3   4.126406   4.435211   1.070326   0.000757   0.306807   0.002466
 238   1   3.488343   3.600858   0.233414   0.002446   0.615359   0.003975
 239   5  -1.754662   1.611087   1.431540  -0.000217   0.064750  -0.003353
 240   5  -1.655491   0.963080   0.593656  -0.000720   0.142812  -0.005040
 241   5  -1.383358  -0.195685   0.099986  -0.000851   0.142812  -0.005960
 242   5  -1.024850  -1.397285   0.396860  -0.000933   0.142812  -0.006533
 243   5  -0.716905  -2.182749   1.370883  -0.000710   0.142812  -0.004970
 244   5  -0.577147  -2.252056   2.650011  -0.000661   0.142812  -0.004627
 245   5  -0.658959  -1.578733   3.745661  -0.000599   0.142812  -0.004196
 246   5  -0.931092  -0.419968   4.239331  -0.000823   0.142812  -0.005764
 247   5  -1.289599   0.781632   3.942456  -0.000836   0.142812  -0.005853
 248   5  -1.597545   1.567095   2.968434  -0.000631   0.142812  -0.004416
 249   5  -1.742539   1.737451   1.928360  -0.000156   0.064750  -0.002416
 250   1  -1.480135   1.677978   0.925187  -0.000439   0.142769  -0.003078
 251   1  -1.271036   0.595638  -0.013733  -0.000680   0.142769  -0.004760
 252   1  -0.898473  -0.798791  -0.129994  -0.000752   0.142769  -0.005269
 253   1  -0.504754  -1.972686   0.620812  -0.000651   0.142769  -0.004557
 254   1  -0.240265  -2.477657   1.951903  -0.000443   0.142769  -0.003103
 255   1  -0.206032  -2.120824   3.354846  -0.000302   0.142769  -0.002117
 256   1  -0.415131  -1.038484   4.293766  -0.000546   0.142769  -0.003825
 257   1  -0.787694   0.355945   4.410027  -0.000838   0.142769  -0.005873
 258   1  -1.181413   1.529839   3.659221  -0.000555   0.142769  -0.003889
 259   1  -1.445902   2.034811   2.328131  -0.000273   0.142769  -0.001914
 260   1   4.175637   2.581068  -0.511530  -0.000215   0.084025  -0.002564
 261   6   4.217112   2.360919  -0.713711  -0.000423   0.084025  -0.005029
 262   8   5.101610   2.671909  -0.252365  -0.000414   0.084025  -0.004929
 263   1   5.190286  -0.826067   0.324056  -0.000218   0.084025  -0.002600
 264   6   5.136930  -0.727778   0.043779  -0.000426   0.084025  -0.005072
 265   8   5.987440  -0.302658   0.477136  -0.000421   0.084025  -0.005011
 266   6   4.667019  -1.216829  -0.268863  -0.000304   0.069008  -0.004400
 267   6   3.747163  -1.754675  -0.632273  -0.000735   0.154024  -0.004773
 268   6   2.515109  -1.689175  -1.204426  -0.000852   0.154024  -0.005535
 269   6   1.618441  -0.801565  -1.712107  -0.000901   0.154024  -0.005852
 270   6   1.441356   0.527839  -1.937788  -0.000971   0.154024  -0.006307
 271   6   2.059730   1.729423  -1.784770  -0.000793   0.154024  -0.005149
 272   6   3.208607   2.288341  -1.318618  -0.000683   0.154024  -0.004436
 273   1   4.313418  -1.630400  -0.022668  -0.000486   0.150429  -0.003232
 274   1   2.963302  -2.057841  -0.595399  -0.000535   0.150429  -0.003559
 275   1   1.698101  -1.491362  -1.237196  -0.000761   0.150429  -0.005057
 276   1   1.059918  -0.173684  -1.673068  -0.000821   0.150429  -0.005460
 277   1   1.322197   1.330603  -1.716255  -0.000627   0.150429  -0.004171
 278   1   2.372559   2.376954  -1.348253  -0.000421   0.150429  -0.002798
 279   1   3.485331   2.650016  -0.867595  -0.000175   0.084308  -0.002073
 280   7  -0.027288   1.029193   5.753749  -0.001268   0.212704  -0.005960
 281   1  -0.437505   0.468811   4.903536  -0.000466   0.300301  -0.001552
 282   8   6.558655  -0.288265   0.607832  -0.000027   0.015364  -0.001758
 283   1   5.334518  -0.993046   0.411401   0.000092   0.021758   0.004224
 284   8   5.578892   3.001426  -0.209830  -0.000042   0.013657  -0.003108
 285   1   4.198299   2.822456  -0.519219   0.000086   0.019341   0.004443
 286   2   3.663604   5.227574   4.494465   0.000316   0.046186   0.006840
 287   3   4.110693   5.398365   4.471420   0.000389   0.046186   0.008412
 288   4   4.355894   5.515401   4.806350   0.000537   0.046186   0.011622
 289   2   5.493190  -0.903298   6.009568   0.000318   0.046186   0.006892
 290   3   5.962627  -0.807394   6.005030   0.000442   0.046186   0.009565
 291   4   6.187637  -0.622700   6.323240   0.000517   0.046186   0.011192
 292   3   5.898177  -1.189362   5.361301   0.001029   0.234302   0.004394
 293   3   5.913865  -1.594341   3.697565   0.000813   0.234302   0.003471
 294   2   5.230648  -1.525231   4.555532   0.001414   0.482712   0.002930
 295   3   3.956261   4.967166   2.084309   0.000747   0.233450   0.003200
 296   3   3.940540   5.371042   3.742245   0.001021   0.233450   0.004375
 297   2   3.304941   4.928767   2.965722   0.001621   0.480756   0.003372
 298   2   2.910364   4.096533   6.515859  -0.000228   0.064302  -0.003540
 299   4   3.640671   4.326198   6.784221  -0.000148   0.064302  -0.002309
 300   7   2.772668   3.909031   6.706999  -0.000418   0.064302  -0.006493
 301   2   4.014497   0.403365   7.424062  -0.000218   0.064302  -0.003383
 302   4   4.716378   0.728113   7.669041  -0.000145   0.064302  -0.002248
 303   7   3.776264   0.552148   7.532505  -0.000410   0.064302  -0.006379
 304   4   4.273174   5.542058   5.382776   0.001978   0.306800   0.006449
 305   4   3.987907   4.940167   6.566409   0.000697   0.306800   0.002270
 306   2   3.159100   4.804550   5.518469   0.000558   0.615347   0.000907
 307   4   5.355850   0.362605   7.693422   0.000673   0.305646   0.002201
 308   4   6.058541  -0.438642   6.859442   0.001888   0.305646   0.006178
 309   2   4.718113  -0.415734   6.805946   0.000535   0.612999   0.000873
 310   7   2.103676   3.836898   6.629135  -0.000360   0.065351  -0.005505
 311   7   1.157493   3.605523   6.192035  -0.000703   0.144091  -0.004881
 312   7   0.262545   2.739619   5.843606  -0.000726   0.144091  -0.005040
 313   7  -0.075182   1.728751   5.780844  -0.000334   0.065351  -0.005114
 314   2   1.860990   4.002838   6.126181  -0.000573   0.144167  -0.003975
 315   2   0.645953   3.409051   5.594683  -0.000409   0.144167  -0.002839
 316   2  -0.051601   2.152316   5.381555  -0.000738   0.144167  -0.005121
 317   7   0.354298   0.289150   6.134418  -0.000424   0.065398  -0.006479
 318   7   1.157135  -0.257099   6.579896  -0.000769   0.144214  -0.005335
 319   7   2.319365  -0.283785   7.148033  -0.000733   0.144214  -0.005083
 320   7   3.183580   0.224186   7.517467  -0.000326   0.065398  -0.004982
 321   2   0.645297  -0.182882   5.955206  -0.000719   0.144250  -0.004988
 322   2   1.860997  -0.659697   6.594578  -0.000446   0.144250  -0.003093
 323   2   3.128899  -0.239909   7.169275  -0.000583   0.144250  -0.004042
 324   3   9.450913   2.252563   2.283723  -0.000079   0.007862  -0.010004
 325   4   9.642664   2.404767   2.637930  -0.000047   0.007862  -0.005975
 326   8   9.349622   2.210236   2.005449  -0.000104   0.007862  -0.013270
 327   3   9.123492   3.349251   2.012799  -0.000079   0.007862  -0.010033
 328   4   9.319112   3.488495   2.370209  -0.000061   0.007862  -0.007797
 329   8   9.051615   3.208403   1.758864  -0.000075   0.007862  -0.009572
 330   4   6.964136  -0.659875   6.240974   0.001998   0.193314   0.010337
 331   4   8.558003  -0.292959   5.003877   0.004491   0.396746   0.011320
 332   4   9.683516   1.349840   3.510434   0.000561   0.396746   0.001413
 333   3   7.272459  -0.788080   5.295906   0.004588   0.396746   0.011565
 334   3   8.961700   0.161471   3.733613   0.002868   0.396746   0.007229
 335   3   9.531722   1.787468   2.621561  -0.000259   0.193314  -0.001342
 336   4   9.230609   4.095276   2.585369  -0.000179   0.193283  -0.000924
 337   4   7.762472   5.478379   2.953880   0.002857   0.396675   0.007203
 338   4   5.642019   5.974467   4.158785   0.004884   0.396675   0.012313
 339   3   8.370678   4.448489   2.210913   0.000336   0.396675   0.000848
 340   3   6.375579   5.719610   2.984253   0.004418   0.396675   0.011138
 341   3   4.679773   5.695098   4.136571   0.001826   0.193283   0.009448
 342   8   9.271728   1.860456   1.704121  -0.000424   0.065447  -0.006481
 343   8   8.934042   0.847955   1.642401  -0.000771   0.144344  -0.005340
 344   8   8.037932  -0.019225   1.293814  -0.000735   0.144344  -0.005089
 345   8   7.090522  -0.250332   0.855631  -0.000327   0.065447  -0.004996
 346   3   9.247987   1.436861   2.103927  -0.000721   0.144338  -0.004994
 347   3   8.549887   0.178101   1.891594  -0.000447   0.144338  -0.003098
 348   3   7.333222  -0.416089   1.359082  -0.000584   0.144338  -0.004043
 349   8   6.014585   3.361839  -0.035496  -0.000361   0.065398  -0.005518
 350   8   6.878790   3.869752   0.334031  -0.000704   0.144214  -0.004884
 351   8   8.040658   3.843055   0.902897  -0.000728   0.144214  -0.005045
 352   8   8.842988   3.296849   1.349328  -0.000335   0.065398  -0.005121
 353   3   6.069251   3.826207   0.312335  -0.000578   0.144250  -0.004009
 354   3   7.336977   4.245940   0.887446  -0.000410   0.144250  -0.002842
 355   3   8.552080   3.769157   1.527962  -0.000739   0.144250  -0.005126
 356   4   5.019805   1.012129   7.996865  -0.000230   0.084006  -0.002739
 357   7   4.094230   0.919952   7.737660  -0.000419   0.084006  -0.004991
 358  10   4.977804   1.232566   8.198612  -0.000427   0.084006  -0.005089
 359   4   4.001496   4.418086   7.154315  -0.000226   0.084006  -0.002691
 360   7   3.205155   3.893657   7.002039  -0.000413   0.084006  -0.004914
 361  10   4.054645   4.320272   7.434790  -0.000422   0.084006  -0.005026
 362   7   3.621001   0.578190   7.687405  -0.000027   0.015384  -0.001744
 363   4   4.995904   0.776342   8.008608   0.000077   0.021786   0.003518
 364   7   2.636511   3.871340   6.883702  -0.000042   0.013642  -0.003096
 365   4   3.856216   4.588135   7.060598   0.000071   0.019320   0.003683
 366   8   9.161733   2.767218   1.679177  -0.001263   0.212022  -0.005955
 367   4   9.690182   2.930633   2.627357  -0.000463   0.299341  -0.001548
 368   9  10.936775   1.855596   5.555938  -0.000214   0.064751  -0.003299
 369   9  10.792200   2.026033   4.515816  -0.000602   0.142813  -0.004214
 370   9  10.484457   2.811522   3.541745  -0.000823   0.142813  -0.005762
 371   9  10.125718   4.013052   3.244852  -0.000836   0.142813  -0.005852
 372   9   9.853009   5.171678   3.738539  -0.000627   0.142813  -0.004394
 373   9   9.770495   5.844846   4.834235  -0.000537   0.142813  -0.003762
 374   9   9.909695   5.775427   6.113422  -0.000717   0.142813  -0.005021
 375   9  10.217437   4.989938   7.087492  -0.000850   0.142813  -0.005950
 376   9  10.576177   3.788408   7.384386  -0.000934   0.142813  -0.006537
 377   9  10.848886   2.629782   6.890698  -0.000712   0.142813  -0.004983
 378   9  10.948634   1.981904   6.052779  -0.000245   0.064751  -0.003789
 379   4  10.640407   1.558193   5.155996  -0.000312   0.142771  -0.002183
 380   4  10.376368   2.063245   3.824843  -0.000546   0.142771  -0.003825
 381   4   9.982631   3.237113   3.073997  -0.000838   0.142771  -0.005872
 382   4   9.609591   4.631419   3.190257  -0.000555   0.142771  -0.003887
 383   4   9.399737   5.713585   4.129214  -0.000259   0.142771  -0.001812
 384   4   9.433225   6.070261   5.532220  -0.000435   0.142771  -0.003045
 385   4   9.697264   5.565208   6.863373  -0.000679   0.142771  -0.004757
 386   4  10.091001   4.391340   7.614218  -0.000752   0.142771  -0.005270
 387   4  10.464041   2.997034   7.497959  -0.000652   0.142771  -0.004565
 388   4  10.673895   1.914868   6.559001  -0.000447   0.142771  -0.003130
 389  10   5.588558   1.248899   8.627662  -0.000307   0.068988  -0.004453
 390  10   6.598087   1.484793   9.065907  -0.000734   0.153971  -0.004767
 391  10   7.531421   2.418055   9.392471  -0.000852   0.153971  -0.005531
 392  10   7.763210   3.757219   9.351860  -0.000900   0.153971  -0.005848
 393  10   7.194188   4.928775   8.961467  -0.000970   0.153971  -0.006303
 394  10   6.068045   5.430992   8.388480  -0.000792   0.153971  -0.005144
 395  10   4.867061   5.048793   7.878287  -0.000682   0.153971  -0.004432
 396   4   6.133601   1.021358   8.539669  -0.000502   0.150394  -0.003340
 397   4   7.422410   1.651911   9.062947  -0.000534   0.150394  -0.003553
 398   4   8.114879   3.002486   9.232898  -0.000760   0.150394  -0.005053
 399   4   7.914451   4.494685   8.976739  -0.000820   0.150394  -0.005455
 400   4   6.906962   5.489461   8.404172  -0.000627   0.150394  -0.004167
 401   4   5.523877   5.560791   7.760404  -0.000419   0.150394  -0.002788
 402   4   4.503484   4.979743   7.355100  -0.000186   0.084284  -0.002211
 403   8   6.532272  -0.083322   0.177346  -0.000737   0.262014  -0.002812
 404   8   6.434669   0.901922  -0.501107  -0.002737   0.524084  -0.005222
 405   8   5.920916   2.263737  -0.593693  -0.002426   0.524084  -0.004628
 406   6   5.235137  -0.241841  -0.679251  -0.002155   0.524084  -0.004112
 407   6   4.951776   1.073008  -1.243106  -0.002488   0.524084  -0.004748
 408   6   4.437256   2.143242  -1.068751  -0.000527   0.262014  -0.002012
 409  10   3.936080   4.196970   7.873804  -0.000528   0.262042  -0.002015
 410  10   4.034373   3.212688   8.554523  -0.002487   0.524143  -0.004746
 411  10   4.549790   1.851006   8.649755  -0.002156   0.524143  -0.004113
 412   7   2.681044   3.312483   7.587166  -0.002425   0.524143  -0.004626
 413   7   2.965621   1.998411   8.153850  -0.002736   0.524143  -0.005220
 414   7   3.481646   0.927973   7.981418  -0.000736   0.262042  -0.002808
 =====================================================

              1190934  WORDS OF DYNAMIC MEMORY USED
 EXECUTION OF GAMESS TERMINATED NORMALLY Tue Nov 22 19:18:40 2016
 DDI: 263640 bytes (0.3 MB / 0 MWords) used by master data server.

 ----------------------------------------
 CPU timing information for all processes
 ========================================
 0: 64.544 + 0.40 = 64.584
 ----------------------------------------
 ddikick.x: exited gracefully.
