----- GAMESS execution script -----

          ******************************************************
          *         GAMESS VERSION =  5 DEC 2014 (R1)          *
          *             FROM IOWA STATE UNIVERSITY             *
          * M.W.SCHMIDT, K.K.BALDRIDGE, J.A.BOATZ, S.T.ELBERT, *
          *   M.S.GORDON, J.H.JENSEN, S.KOSEKI, N.MATSUNAGA,   *
          *          K.A.NGUYEN, S.J.SU, T.L.WINDUS,           *
          *       TOGETHER WITH M.DUPUIS, J.A.MONTGOMERY       *
          *         J.COMPUT.CHEM.  14, 1347-1363(1993)        *
          **************** 64 BIT LINUX VERSION ****************

 EXECUTION OF GAMESS BEGUN Tue Nov 22 19:29:03 2016

            ECHO OF THE FIRST FEW INPUT CARDS -
 INPUT CARD>! SELECT RESTRICTED HARTREE-FOCK AS DEFAULT                                     
 INPUT CARD>$contrl scftyp=rhf $end                                                         
 INPUT CARD>                                                                                
 INPUT CARD>! THEORY: HF OR DFT                                                             
 INPUT CARD> $contrl mplevl=0 $end                                                          
 INPUT CARD>                                                                                
 INPUT CARD> $system timlim=10000 mwords=20 $end                                            
 INPUT CARD> $SCF DIRSCF=.TRUE. $end                                                        
 INPUT CARD>                                                                                
 INPUT CARD>                                                                                
 INPUT CARD>! BASIS SETS                                                                    
 INPUT CARD>! 6-311G(d,p)                                                                   
 INPUT CARD> $BASIS GBASIS=N311 NGAUSS=6 NDFUNC=1 NPFUNC=1 $END                             
 INPUT CARD>                                                                                
 INPUT CARD>! One of the following                                                          
 INPUT CARD> $guess guess=HUCKEL $end                                                       
 INPUT CARD>                                                                                
 INPUT CARD> $statpt projct=.FALSE. $end                                                    
 INPUT CARD> $STATPT IFREEZ(1)=1,2,3 $END                                                   
 INPUT CARD>                                                                                
 INPUT CARD>! Optimize the geometry with COSMO effects                                      
 INPUT CARD> $statpt opttol=0.0005 nstep=50 $end                                            
 INPUT CARD> $contrl nzvar=1 $end                                                           
 INPUT CARD> $zmat dlc=.t. auto=.t. $end                                                    
 INPUT CARD> $contrl runtyp=OPTIMIZE maxit=200 $end                                         
 INPUT CARD>                                                                                
 INPUT CARD>! Run COSMO on perfect conductor                                                
 INPUT CARD> $COSGMS PRFCND=.TRUE. $end                                                     
 INPUT CARD>                                                                                
 INPUT CARD>! Specifying RSOLV                                                              
 INPUT CARD> $COSGMS COSRAD = 1.4 $end                                                      
 INPUT CARD>                                                                                
 INPUT CARD>! available memory                                                              
 INPUT CARD> $SYSTEM MWORDS=40 $END                                                         
 INPUT CARD>                                                                                
 INPUT CARD> $DATA                                                                          
 INPUT CARD>                                                                                
 INPUT CARD>C1                                                                              
 INPUT CARD>C      6.0     -0.2472000000   -1.3021000000    0.6488000000                    
 INPUT CARD>C      6.0     -1.3596000000   -0.5859000000   -0.1276000000                    
 INPUT CARD>C      6.0     -1.1377000000    0.9320000000   -0.1206000000                    
 INPUT CARD>C      6.0      0.2472000000    1.3021000000   -0.6488000000                    
 INPUT CARD>C      6.0      1.3596000000    0.5859000000    0.1276000000                    
 INPUT CARD>C      6.0      1.1377000000   -0.9320000000    0.1206000000                    
 INPUT CARD>H      1.0     -0.3080000000   -1.0443000000    1.7135000000                    
 INPUT CARD>H      1.0     -0.3817000000   -2.3883000000    0.5772000000                    
 INPUT CARD>H      1.0     -1.3347000000   -0.9344000000   -1.1684000000                    
 INPUT CARD>C      6.0     -2.7303000000   -0.9331000000    0.4507000000                    
 INPUT CARD>H      1.0     -1.9012000000    1.4237000000   -0.7355000000                    
 INPUT CARD>H      1.0     -1.2514000000    1.3222000000    0.8985000000                    
   40000000 WORDS OF MEMORY AVAILABLE

     BASIS OPTIONS
     -------------
     GBASIS=N311         IGAUSS=       6      POLAR=POPN311 
     NDFUNC=       1     NFFUNC=       0     DIFFSP=       F
     NPFUNC=       1      DIFFS=       F     BASNAM=        


     RUN TITLE
     ---------
                                                                                 

 THE POINT GROUP OF THE MOLECULE IS C1      
 THE ORDER OF THE PRINCIPAL AXIS IS     0

 ATOM      ATOMIC                      COORDINATES (BOHR)
           CHARGE         X                   Y                   Z
 C           6.0    -0.4671402642       -2.4606122086        1.2260542208
 C           6.0    -2.5692714529       -1.1071904562       -0.2411290360
 C           6.0    -2.1499412562        1.7612246206       -0.2279009541
 C           6.0     0.4671402642        2.4606122086       -1.2260542208
 C           6.0     2.5692714529        1.1071904562        0.2411290360
 C           6.0     2.1499412562       -1.7612246206        0.2279009541
 H           1.0    -0.5820356042       -1.9734408490        3.2380454800
 H           1.0    -0.7213084095       -4.5132325765        1.0907498401
 H           1.0    -2.5222172758       -1.7657599629       -2.2079558441
 C           6.0    -5.1595188643       -1.7633033191        0.8516995027
 H           1.0    -3.5927470479        2.6904028887       -1.3898934640
 H           1.0    -2.3648031010        2.4985957010        1.6979188000
 H           1.0     0.5820356042        1.9734408490       -3.2380454800
 H           1.0     0.7213084095        4.5132325765       -1.0907498401
 C           6.0     5.1595188643        1.7633033191       -0.8516995027
 H           1.0     2.5222172758        1.7657599629        2.2079558441
 H           1.0     3.5927470479       -2.6904028887        1.3898934640
 H           1.0     2.3648031010       -2.4985957010       -1.6979188000
 H           1.0    -5.3241139978       -1.1506541539        2.8215498723
 H           1.0    -5.4864414602       -3.8059081393        0.7872598465
 H           1.0    -6.6658194491       -0.8469751877       -0.2316804061
 H           1.0     5.4864414602        3.8059081393       -0.7872598465
 H           1.0     5.3241139978        1.1506541539       -2.8215498723
 H           1.0     6.6658194491        0.8469751877        0.2316804061

          INTERNUCLEAR DISTANCES (ANGS.)




     $CONTRL OPTIONS
     ---------------
 SCFTYP=RHF          RUNTYP=OPTIMIZE     EXETYP=RUN     
 MPLEVL=       0     CITYP =NONE         CCTYP =NONE         VBTYP =NONE    
 DFTTYP=NONE         TDDFT =NONE    
 MULT  =       1     ICHARG=       0     NZVAR =       1     COORD =UNIQUE  
 PP    =NONE         RELWFN=NONE         LOCAL =NONE         NUMGRD=       F
 ISPHER=      -1     NOSYM =       0     MAXIT =     200     UNITS =ANGS    
 PLTORB=       F     MOLPLT=       F     AIMPAC=       F     FRIEND=        
 NPRINT=       7     IREST =       0     GEOM  =INPUT   
 NORMF =       0     NORMP =       0     ITOL  =      20     ICUT  =       9
 INTTYP=BEST         GRDTYP=BEST         QMTTOL= 1.0E-06

     $SYSTEM OPTIONS
     ---------------
  REPLICATED MEMORY=    40000000 WORDS (ON EVERY NODE).
 DISTRIBUTED MEMDDI=           0 MILLION WORDS IN AGGREGATE,
 MEMDDI DISTRIBUTED OVER   1 PROCESSORS IS           0 WORDS/PROCESSOR.
 TOTAL MEMORY REQUESTED ON EACH PROCESSOR=    40000000 WORDS.
 TIMLIM=       10000.00 MINUTES, OR       6.9 DAYS.
 PARALL= F  BALTYP=  DLB     KDIAG=    0  COREFL= F
 MXSEQ2=     300 MXSEQ3=     150  mem10=         0

     $COSGMS OPTIONS
     ---------------
     EPSI  =   INFTY     NSPA  =      92     COSRAD=    1.40
     DISEX =   10.00     OUTCHG=DBLCAV       COSBUG=       F
     COSWRT=       F     DCOSMO=       F

     SYMMETRY COORDINATES WILL NOT BE USED FOR 
     THE COSMO CALCULATION, EVEN IF SPECIFIED:
         -- SWITCHING TO C1 POINT GROUP --


     DEFINITION OF CAVITY
     ---------------------------
     ATOM         COORDINATES           RADIUS 
     1   -0.4671   -2.4606    1.2261    2.0000
     2   -2.5693   -1.1072   -0.2411    2.0000
     3   -2.1499    1.7612   -0.2279    2.0000
     4    0.4671    2.4606   -1.2261    2.0000
     5    2.5693    1.1072    0.2411    2.0000
     6    2.1499   -1.7612    0.2279    2.0000
     7   -0.5820   -1.9734    3.2380    1.3000
     8   -0.7213   -4.5132    1.0907    1.3000
     9   -2.5222   -1.7658   -2.2080    1.3000
    10   -5.1595   -1.7633    0.8517    2.0000
    11   -3.5927    2.6904   -1.3899    1.3000
    12   -2.3648    2.4986    1.6979    1.3000
    13    0.5820    1.9734   -3.2380    1.3000
    14    0.7213    4.5132   -1.0907    1.3000
    15    5.1595    1.7633   -0.8517    2.0000
    16    2.5222    1.7658    2.2080    1.3000
    17    3.5927   -2.6904    1.3899    1.3000
    18    2.3648   -2.4986   -1.6979    1.3000
    19   -5.3241   -1.1507    2.8215    1.3000
    20   -5.4864   -3.8059    0.7873    1.3000
    21   -6.6658   -0.8470   -0.2317    1.3000
    22    5.4864    3.8059   -0.7873    1.3000
    23    5.3241    1.1507   -2.8215    1.3000
    24    6.6658    0.8470    0.2317    1.3000

          ----------------
          PROPERTIES INPUT
          ----------------

     MOMENTS            FIELD           POTENTIAL          DENSITY
 IEMOM =       1   IEFLD =       0   IEPOT =       0   IEDEN =       0
 WHERE =COMASS     WHERE =NUCLEI     WHERE =NUCLEI     WHERE =NUCLEI  
 OUTPUT=BOTH       OUTPUT=BOTH       OUTPUT=BOTH       OUTPUT=BOTH    
 IEMINT=       0   IEFINT=       0                     IEDINT=       0
                                                       MORB  =       0
          EXTRAPOLATION IN EFFECT
          SOSCF IN EFFECT
 ORBITAL PRINTING OPTION: NPREO=     1   248     2     1

     -------------------------------
     INTEGRAL TRANSFORMATION OPTIONS
     -------------------------------
     NWORD  =            0
     CUTOFF = 1.0E-09     MPTRAN =       0
     DIRTRF =       T     AOINTS =DUP     

          ----------------------
          INTEGRAL INPUT OPTIONS
          ----------------------
 NOPK  =       1 NORDER=       0 SCHWRZ=       T


 -----------------------------------------------
  STATISTICS ON AUTOMATIC COORDINATE GENERATION 
 -----------------------------------------------
  NUMBER OF USER SPECIFIED BONDS                             0
  NUMBER OF BONDS                                           24
  NUMBER OF ANGLES                                          48
  NUMBER OF TORSIONS                                        72
  NUMBER OF EXTRA COORD.                                     0
  NUMBER OF EXTRA COORD. FOR CONSTRAINTS                     0
  NUMBER OF CONSTRAINED COORD.                               0

  TOTAL NUMBER OF PRIMITIVES                               144
 -----------------------------------------------

   --- ENCODED Z MATRIX ---
 COORD  TYPE   I   J   K   L   M   N
    1      1    1   7
    2      1    1   2
    3      1    1   8
    4      1    1   6
    5      1    2   3
    6      1    2  10
    7      1    2   9
    8      1    3   4
    9      1    3  11
   10      1    3  12
   11      1    4  14
   12      1    4  13
   13      1    4   5
   14      1    5  15
   15      1    5   6
   16      1    5  16
   17      1    6  18
   18      1    6  17
   19      1   10  21
   20      1   10  20
   21      1   10  19
   22      1   15  24
   23      1   15  23
   24      1   15  22
   25      2    1   2   3
   26      2    1   2  10
   27      2    1   6   5
   28      2    1   2   9
   29      2    1   6  17
   30      2    1   6  18
   31      2    2   3  12
   32      2    2   1   6
   33      2    2  10  20
   34      2    2   1   7
   35      2    2  10  21
   36      2    2  10  19
   37      2    2   1   8
   38      2    2   3  11
   39      2    2   3   4
   40      2    3   2   9
   41      2    3   2  10
   42      2    3   4   5
   43      2    3   4  13
   44      2    3   4  14
   45      2    4   5  15
   46      2    4   3  12
   47      2    4   3  11
   48      2    4   5  16
   49      2    4   5   6
   50      2    5   4  13
   51      2    5   4  14
   52      2    5   6  17
   53      2    5   6  18
   54      2    5  15  22
   55      2    5  15  24
   56      2    5  15  23
   57      2    6   1   7
   58      2    6   5  16
   59      2    6   1   8
   60      2    6   5  15
   61      2    7   1   8
   62      2    9   2  10
   63      2   11   3  12
   64      2   13   4  14
   65      2   15   5  16
   66      2   17   6  18
   67      2   19  10  20
   68      2   19  10  21
   69      2   20  10  21
   70      2   22  15  23
   71      2   22  15  24
   72      2   23  15  24
   73      3    1   2   3  12
   74      3    1   2  10  19
   75      3    1   2   3  11
   76      3    1   2  10  21
   77      3    1   2   3   4
   78      3    1   6   5  16
   79      3    1   6   5  15
   80      3    1   6   5   4
   81      3    1   2  10  20
   82      3    2   3   4   5
   83      3    2   3   4  13
   84      3    2   3   4  14
   85      3    2   1   6  18
   86      3    2   1   6   5
   87      3    2   1   6  17
   88      3    3   2   1   7
   89      3    3   2   1   6
   90      3    3   2  10  19
   91      3    3   2   1   8
   92      3    3   2  10  21
   93      3    3   2  10  20
   94      3    3   4   5  16
   95      3    3   4   5   6
   96      3    3   4   5  15
   97      3    4   3   2   9
   98      3    4   3   2  10
   99      3    4   5   6  17
  100      3    4   5   6  18
  101      3    4   5  15  22
  102      3    4   5  15  23
  103      3    4   5  15  24
  104      3    5   6   1   8
  105      3    5   6   1   7
  106      3    5   4   3  12
  107      3    5   4   3  11
  108      3    6   5  15  23
  109      3    6   5  15  24
  110      3    6   5  15  22
  111      3    6   5   4  13
  112      3    6   5   4  14
  113      3    6   1   2   9
  114      3    6   1   2  10
  115      3    7   1   2  10
  116      3    7   1   6  18
  117      3    7   1   6  17
  118      3    7   1   2   9
  119      3    8   1   6  18
  120      3    8   1   6  17
  121      3    8   1   2   9
  122      3    8   1   2  10
  123      3    9   2   3  12
  124      3    9   2   3  11
  125      3    9   2  10  19
  126      3    9   2  10  21
  127      3    9   2  10  20
  128      3   10   2   3  12
  129      3   10   2   3  11
  130      3   11   3   4  14
  131      3   11   3   4  13
  132      3   12   3   4  14
  133      3   12   3   4  13
  134      3   13   4   5  16
  135      3   13   4   5  15
  136      3   14   4   5  16
  137      3   14   4   5  15
  138      3   15   5   6  18
  139      3   15   5   6  17
  140      3   16   5  15  23
  141      3   16   5  15  24
  142      3   16   5  15  22
  143      3   16   5   6  18
  144      3   16   5   6  17

          INDEP./SYM. INTERNAL COORDINATES
          --------------------------------
 CRD  1=  -0.1778 (  2) -0.1759 (  4)  0.1778 (  5)  0.1759 (  8)  0.1778 ( 13)
          -0.1778 ( 15) -0.3027 ( 26) -0.1250 ( 33)  0.1250 ( 35)  0.3027 ( 41)
           0.3027 ( 45)  0.1250 ( 54) -0.1250 ( 55) -0.3027 ( 60) -0.1413 ( 79)
          -0.1414 ( 96) -0.1413 ( 98) -0.1414 (114) -0.1079 (115) -0.1193 (122)
          -0.1079 (128) -0.1193 (129) -0.1079 (135) -0.1193 (137) -0.1079 (138)
          -0.1193 (139)
 CRD  2=  -0.1710 (  2) -0.1709 (  5)  0.1710 ( 13)  0.1709 ( 15) -0.1482 ( 27)
           0.1522 ( 30)  0.1482 ( 32) -0.1710 ( 36)  0.1482 ( 39) -0.1482 ( 42)
           0.1523 ( 43) -0.1522 ( 46)  0.1710 ( 56) -0.1523 ( 57)  0.1287 ( 62)
          -0.1287 ( 65) -0.1211 ( 77) -0.1199 ( 78) -0.2346 ( 79) -0.1211 ( 80)
           0.1210 ( 89)  0.1199 ( 94)  0.1210 ( 95)  0.2345 ( 96) -0.1199 ( 97)
          -0.2346 ( 98)  0.1199 (113)  0.2345 (114)  0.1208 (115)  0.1013 (122)
          -0.1208 (128) -0.1014 (129)  0.1208 (135)  0.1013 (137) -0.1208 (138)
          -0.1014 (139)
 CRD  3=   0.1075 (  2)  0.2809 (  4)  0.1074 (  5)  0.3929 (  6)  0.2809 (  8)
           0.1075 ( 13)  0.3929 ( 14)  0.1074 ( 15) -0.1683 ( 25)  0.1253 ( 26)
           0.1585 ( 36)  0.1250 ( 41)  0.1253 ( 45) -0.1683 ( 49)  0.1585 ( 56)
           0.1250 ( 60) -0.1071 ( 62) -0.1071 ( 65) -0.1032 ( 67) -0.1032 ( 68)
          -0.1032 ( 70) -0.1032 ( 72)
 CRD  4=  -0.1487 (  2)  0.1488 (  5) -0.1487 ( 13)  0.1488 ( 15) -0.3153 ( 26)
           0.1012 ( 28) -0.1519 ( 33)  0.1520 ( 35) -0.1012 ( 40)  0.3154 ( 41)
          -0.3153 ( 45)  0.1012 ( 48) -0.1519 ( 54)  0.1520 ( 55) -0.1012 ( 58)
           0.3154 ( 60)  0.1572 ( 79)  0.1573 ( 96) -0.1572 ( 98) -0.1573 (114)
          -0.1419 (122) -0.1419 (129)  0.1419 (137)  0.1419 (139)
 CRD  5=   0.1776 (  2)  0.1776 (  5)  0.4057 (  6) -0.1776 ( 13) -0.4057 ( 14)
          -0.1776 ( 15) -0.1915 ( 25)  0.1094 ( 26) -0.1212 ( 27)  0.1079 ( 30)
           0.1212 ( 32)  0.1226 ( 36)  0.1212 ( 39)  0.1094 ( 41) -0.1212 ( 42)
           0.1080 ( 43) -0.1094 ( 45) -0.1079 ( 46)  0.1915 ( 49) -0.1226 ( 56)
          -0.1080 ( 57) -0.1094 ( 60) -0.1088 ( 67) -0.1088 ( 68) -0.1109 ( 69)
           0.1088 ( 70)  0.1109 ( 71)  0.1088 ( 72)
 CRD  6=  -0.1246 (  4) -0.1264 (  6) -0.1246 (  8) -0.1264 ( 14) -0.2347 ( 33)
          -0.2338 ( 35)  0.3634 ( 36) -0.2347 ( 54) -0.2338 ( 55)  0.3634 ( 56)
          -0.1357 ( 62) -0.1357 ( 65)  0.1520 ( 69)  0.1520 ( 71) -0.1529 ( 79)
           0.1533 ( 96)  0.1529 ( 98) -0.1533 (114) -0.1331 (115)  0.1329 (128)
           0.1331 (135) -0.1329 (138)
 CRD  7=  -0.2210 (  2)  0.1038 (  3)  0.2207 (  5) -0.1041 (  9)  0.1038 ( 11)
          -0.2210 ( 13)  0.2207 ( 15) -0.1041 ( 18)  0.2135 ( 27) -0.1703 ( 29)
          -0.2135 ( 32)  0.1983 ( 33) -0.1993 ( 35)  0.2135 ( 39) -0.2135 ( 42)
           0.1701 ( 44) -0.1703 ( 47)  0.1983 ( 54) -0.1993 ( 55)  0.1701 ( 59)
           0.1205 ( 77) -0.1195 ( 78) -0.1116 ( 79) -0.1205 ( 80)  0.1204 ( 89)
          -0.1194 ( 94) -0.1204 ( 95) -0.1110 ( 96)  0.1195 ( 97)  0.1116 ( 98)
           0.1194 (113)  0.1110 (114)
 CRD  8=  -0.1533 (  6)  0.1533 ( 14) -0.1909 ( 25) -0.1762 ( 27)  0.1206 ( 28)
          -0.2024 ( 31)  0.1762 ( 32) -0.2024 ( 34)  0.1762 ( 39)  0.1206 ( 40)
          -0.1762 ( 42) -0.1206 ( 48)  0.1909 ( 49)  0.2024 ( 50)  0.2024 ( 53)
          -0.1206 ( 58) -0.1136 ( 62)  0.1136 ( 65)  0.1283 ( 75)  0.1182 ( 77)
           0.1182 ( 80) -0.1010 ( 81)  0.1110 ( 83) -0.1110 ( 85) -0.1182 ( 89)
          -0.1282 ( 91)  0.1010 ( 92) -0.1182 ( 95)  0.1283 ( 99) -0.1010 (101)
           0.1110 (105) -0.1110 (106)  0.1010 (109) -0.1282 (112)
 CRD  9=  -0.3755 (  2) -0.1262 (  3) -0.3756 (  5) -0.1262 (  9) -0.1262 ( 11)
          -0.3755 ( 13) -0.3756 ( 15) -0.1262 ( 18) -0.1478 ( 25) -0.1350 ( 37)
          -0.1351 ( 38) -0.1478 ( 49) -0.1350 ( 51) -0.1351 ( 52) -0.1063 ( 83)
           0.1063 ( 85)  0.1063 (105) -0.1063 (106)  0.1240 (116) -0.1240 (133)
 CRD 10=  -0.1360 (  2)  0.1360 (  5)  0.1360 ( 13) -0.1360 ( 15) -0.1520 ( 28)
          -0.1330 ( 31)  0.1329 ( 34) -0.1037 ( 37)  0.1037 ( 38)  0.1520 ( 40)
           0.1520 ( 48) -0.1329 ( 50)  0.1037 ( 51) -0.1037 ( 52)  0.1330 ( 53)
          -0.1520 ( 58)  0.1255 ( 74)  0.1407 ( 76) -0.1192 ( 77) -0.1192 ( 80)
           0.1407 ( 81)  0.2666 ( 82)  0.1316 ( 83)  0.1328 ( 84)  0.1316 ( 85)
           0.2666 ( 86)  0.1328 ( 87) -0.1192 ( 89)  0.1255 ( 90)  0.1407 ( 92)
           0.1408 ( 93) -0.1192 ( 95)  0.1407 (101)  0.1255 (102)  0.1407 (103)
           0.1328 (104)  0.1316 (105)  0.1316 (106)  0.1328 (107)  0.1255 (108)
           0.1407 (109)  0.1408 (110)
 CRD 11=   0.1689 (  2)  0.1690 (  5) -0.1689 ( 13) -0.1690 ( 15)  0.1171 ( 27)
          -0.1170 ( 32)  0.2054 ( 33)  0.2051 ( 35) -0.4163 ( 36)  0.1310 ( 37)
           0.1310 ( 38) -0.1171 ( 39)  0.1170 ( 42) -0.1310 ( 51) -0.1310 ( 52)
          -0.2054 ( 54) -0.2051 ( 55)  0.4163 ( 56) -0.1534 ( 69)  0.1534 ( 71)
 CRD 12=  -0.1155 (  2) -0.2651 (  4)  0.1152 (  5)  0.2651 (  8)  0.1155 ( 13)
          -0.1152 ( 15)  0.3614 ( 33) -0.3616 ( 35) -0.3614 ( 54)  0.3616 ( 55)
          -0.1478 ( 67)  0.1477 ( 68)  0.1478 ( 70) -0.1477 ( 72)
 CRD 13=   0.1468 (  2) -0.3915 (  4) -0.1467 (  5)  0.3915 (  8) -0.1468 ( 13)
           0.1467 ( 15) -0.1531 ( 29) -0.1017 ( 30) -0.1616 ( 33)  0.1615 ( 35)
           0.1035 ( 37) -0.1034 ( 38)  0.1017 ( 43)  0.1531 ( 44)  0.1017 ( 46)
           0.1531 ( 47) -0.1035 ( 51)  0.1034 ( 52)  0.1616 ( 54) -0.1615 ( 55)
          -0.1017 ( 57) -0.1531 ( 59) -0.1175 (116)  0.1080 (120)  0.1080 (130)
          -0.1175 (133)
 CRD 14=   0.4324 (  4)  0.4324 (  8)  0.1124 ( 25)  0.1032 ( 29)  0.1343 ( 30)
          -0.1074 ( 31) -0.1127 ( 33) -0.1072 ( 34) -0.1121 ( 35)  0.1514 ( 36)
           0.1342 ( 43)  0.1034 ( 44)  0.1343 ( 46)  0.1032 ( 47)  0.1124 ( 49)
          -0.1072 ( 50) -0.1074 ( 53) -0.1127 ( 54) -0.1121 ( 55)  0.1514 ( 56)
           0.1342 ( 57)  0.1034 ( 59)  0.1089 ( 69)  0.1089 ( 71)
 CRD 15=  -0.1478 (  2)  0.1477 (  5) -0.1478 ( 13)  0.1477 ( 15) -0.1045 ( 19)
           0.1044 ( 20) -0.1045 ( 22)  0.1044 ( 24) -0.1557 ( 27)  0.1311 ( 31)
           0.1556 ( 32)  0.2970 ( 33) -0.1313 ( 34) -0.2972 ( 35) -0.1557 ( 39)
           0.1556 ( 42) -0.1313 ( 50)  0.1311 ( 53)  0.2970 ( 54) -0.2972 ( 55)
          -0.1359 ( 67)  0.1358 ( 68) -0.1359 ( 70)  0.1358 ( 72)
 CRD 16=  -0.1350 (  2) -0.1864 (  4) -0.1351 (  5)  0.2968 (  6) -0.1864 (  8)
          -0.1350 ( 13)  0.2968 ( 14) -0.1351 ( 15)  0.1204 ( 21)  0.1204 ( 23)
           0.1066 ( 25)  0.2595 ( 36)  0.1066 ( 49)  0.2595 ( 56)  0.1804 ( 62)
           0.1804 ( 65) -0.1523 ( 67) -0.1523 ( 68) -0.1523 ( 70) -0.1523 ( 72)
           0.1082 (122) -0.1081 (129) -0.1082 (137)  0.1081 (139)
 CRD 17=  -0.1518 (  2)  0.1518 (  5) -0.1518 ( 13)  0.1518 ( 15) -0.1667 ( 28)
           0.1029 ( 30) -0.1281 ( 33)  0.1281 ( 35) -0.1740 ( 37)  0.1740 ( 38)
           0.1668 ( 40) -0.1030 ( 43)  0.1029 ( 46) -0.1667 ( 48) -0.1740 ( 51)
           0.1740 ( 52) -0.1281 ( 54)  0.1281 ( 55) -0.1030 ( 57)  0.1668 ( 58)
           0.1356 ( 74)  0.1534 ( 76)  0.1535 ( 81)  0.1193 ( 84)  0.1193 ( 87)
           0.1356 ( 90)  0.1535 ( 92)  0.1535 ( 93) -0.1535 (101) -0.1356 (102)
          -0.1534 (103) -0.1193 (104) -0.1193 (107) -0.1356 (108) -0.1535 (109)
          -0.1535 (110)
 CRD 18=  -0.1926 (  2) -0.1927 (  5)  0.2969 (  6)  0.1926 ( 13) -0.2969 ( 14)
           0.1927 ( 15) -0.1716 ( 30) -0.1157 ( 31)  0.1255 ( 33) -0.1157 ( 34)
           0.1256 ( 35) -0.1716 ( 43)  0.1716 ( 46)  0.1157 ( 50)  0.1157 ( 53)
          -0.1255 ( 54) -0.1256 ( 55)  0.1716 ( 57)  0.1328 ( 62) -0.1328 ( 65)
          -0.1017 ( 67) -0.1018 ( 68) -0.1160 ( 69)  0.1017 ( 70)  0.1160 ( 71)
           0.1018 ( 72)  0.1513 ( 78) -0.1513 ( 94)  0.1513 ( 97) -0.1513 (113)
 CRD 19=   0.1399 (  3)  0.1108 (  7)  0.1399 (  9) -0.1399 ( 11) -0.1108 ( 16)
          -0.1399 ( 18)  0.1443 ( 21) -0.1443 ( 23) -0.1078 ( 31) -0.1126 ( 33)
          -0.1078 ( 34) -0.1127 ( 35)  0.2145 ( 36)  0.1995 ( 37)  0.1995 ( 38)
           0.1078 ( 50) -0.1995 ( 51) -0.1995 ( 52)  0.1078 ( 53)  0.1126 ( 54)
           0.1127 ( 55) -0.2145 ( 56)  0.1345 ( 69) -0.1345 ( 71)  0.1199 ( 83)
           0.1540 ( 84) -0.1199 ( 85) -0.1540 ( 87)  0.1540 (104)  0.1199 (105)
          -0.1199 (106) -0.1540 (107)  0.1063 (122) -0.1063 (129)  0.1063 (137)
          -0.1063 (139)
 CRD 20=  -0.1561 (  1) -0.1559 (  2)  0.1045 (  3)  0.1559 (  5) -0.1045 (  9)
           0.1561 ( 10)  0.1045 ( 11) -0.1561 ( 12) -0.1559 ( 13)  0.1559 ( 15)
           0.1561 ( 17) -0.1045 ( 18) -0.1287 ( 30)  0.2004 ( 31) -0.1346 ( 33)
          -0.2004 ( 34)  0.1346 ( 35)  0.1463 ( 37) -0.1462 ( 38)  0.1288 ( 43)
          -0.1287 ( 46) -0.2004 ( 50)  0.1463 ( 51) -0.1462 ( 52)  0.2004 ( 53)
          -0.1346 ( 54)  0.1346 ( 55)  0.1288 ( 57) -0.1589 ( 83) -0.1241 ( 84)
          -0.1589 ( 85) -0.1241 ( 87)  0.1241 (104)  0.1589 (105)  0.1589 (106)
           0.1241 (107)
 CRD 21=   0.2036 (  1) -0.2417 (  7)  0.2036 ( 10)  0.2036 ( 12) -0.2417 ( 16)
           0.2036 ( 17) -0.1082 ( 21) -0.1082 ( 23) -0.1052 ( 29)  0.1645 ( 30)
           0.1086 ( 33)  0.1086 ( 35) -0.1590 ( 36)  0.1644 ( 43) -0.1052 ( 44)
           0.1645 ( 46) -0.1052 ( 47)  0.1086 ( 54)  0.1086 ( 55) -0.1590 ( 56)
           0.1644 ( 57) -0.1052 ( 59) -0.1250 ( 69) -0.1250 ( 71) -0.1392 ( 78)
          -0.1523 ( 79)  0.1391 ( 94)  0.1523 ( 96)  0.1392 ( 97)  0.1523 ( 98)
          -0.1391 (113) -0.1523 (114)
 CRD 22=   0.2213 (  1)  0.1513 (  2) -0.1513 (  5) -0.2214 ( 10) -0.2213 ( 12)
          -0.1513 ( 13)  0.1513 ( 15)  0.2214 ( 17) -0.1084 ( 31)  0.1144 ( 33)
           0.1084 ( 34) -0.1144 ( 35) -0.1084 ( 50)  0.1084 ( 53) -0.1144 ( 54)
           0.1144 ( 55) -0.1074 ( 74) -0.1195 ( 78) -0.1105 ( 79) -0.1074 ( 90)
          -0.1195 ( 94) -0.1105 ( 96) -0.1195 ( 97) -0.1105 ( 98) -0.1074 (102)
          -0.1074 (108) -0.1195 (113) -0.1105 (114) -0.1031 (118) -0.1031 (123)
          -0.1031 (134) -0.1031 (143)
 CRD 23=   0.2070 (  1) -0.2071 ( 10) -0.2070 ( 12)  0.2071 ( 17) -0.1575 ( 29)
           0.1727 ( 30)  0.1380 ( 37) -0.1380 ( 38) -0.1727 ( 43)  0.1575 ( 44)
          -0.1727 ( 46)  0.1575 ( 47) -0.1380 ( 51)  0.1380 ( 52)  0.1727 ( 57)
          -0.1575 ( 59)  0.1139 ( 73)  0.1031 ( 75)  0.1140 ( 88)  0.1033 ( 91)
           0.1031 ( 99)  0.1139 (100)  0.1140 (111)  0.1033 (112)  0.1036 (117)
           0.1008 (118)  0.1036 (119)  0.1282 (120)  0.1008 (123)  0.1282 (130)
           0.1036 (131)  0.1036 (132)  0.1008 (134)  0.1008 (143)
 CRD 24=  -0.1479 (  1) -0.5009 (  7) -0.1477 ( 10)  0.1479 ( 12)  0.5009 ( 16)
           0.1477 ( 17)  0.1350 ( 19)  0.1350 ( 20) -0.1350 ( 22) -0.1350 ( 24)
          -0.1174 ( 36)  0.1174 ( 56) -0.1139 ( 75)  0.1138 ( 91) -0.1139 ( 99)
           0.1138 (112)
 CRD 25=   0.1425 (  1)  0.2558 (  7)  0.1425 ( 10)  0.1425 ( 12)  0.2558 ( 16)
           0.1425 ( 17) -0.1953 ( 19) -0.1953 ( 20) -0.2339 ( 21) -0.1953 ( 22)
          -0.2339 ( 23) -0.1953 ( 24)  0.1056 ( 29)  0.1169 ( 33)  0.1170 ( 35)
           0.1173 ( 36)  0.1056 ( 44)  0.1056 ( 47)  0.1169 ( 54)  0.1170 ( 55)
           0.1173 ( 56)  0.1056 ( 59) -0.1216 ( 67) -0.1216 ( 68) -0.1267 ( 69)
          -0.1216 ( 70) -0.1267 ( 71) -0.1216 ( 72)  0.1309 ( 75) -0.1309 ( 91)
          -0.1309 ( 99)  0.1309 (112)
 CRD 26=  -0.2059 (  1) -0.4442 (  7) -0.2059 ( 10) -0.2059 ( 12) -0.4442 ( 16)
          -0.2059 ( 17) -0.1362 ( 19) -0.1362 ( 20) -0.2307 ( 21) -0.1362 ( 22)
          -0.2307 ( 23) -0.1362 ( 24)
 CRD 27=  -0.1319 (  6) -0.2233 (  7)  0.1319 ( 14)  0.2233 ( 16) -0.3101 ( 19)
          -0.3101 ( 20) -0.3604 ( 21)  0.3101 ( 22)  0.3604 ( 23)  0.3101 ( 24)
           0.1188 ( 33)  0.1189 ( 35) -0.1188 ( 54) -0.1189 ( 55) -0.1109 ( 67)
          -0.1109 ( 68) -0.1300 ( 69)  0.1109 ( 70)  0.1300 ( 71)  0.1109 ( 72)
 CRD 28=  -0.1616 (  1)  0.1616 ( 10) -0.1616 ( 12)  0.1616 ( 17)  0.1067 ( 30)
          -0.1069 ( 43)  0.1067 ( 46) -0.1069 ( 57) -0.1229 ( 73) -0.1512 ( 74)
          -0.1138 ( 75) -0.1600 ( 76) -0.1601 ( 81) -0.1230 ( 88) -0.1513 ( 90)
          -0.1141 ( 91) -0.1600 ( 92) -0.1601 ( 93)  0.1138 ( 99)  0.1229 (100)
           0.1601 (101)  0.1512 (102)  0.1600 (103)  0.1513 (108)  0.1600 (109)
           0.1601 (110)  0.1230 (111)  0.1141 (112) -0.1085 (118) -0.1083 (123)
          -0.1566 (125) -0.1654 (126) -0.1654 (127)  0.1085 (134)  0.1566 (140)
           0.1654 (141)  0.1654 (142)  0.1083 (143)
 CRD 29=  -0.1807 (  6) -0.1807 ( 14) -0.2637 ( 19) -0.2636 ( 20) -0.1714 ( 21)
          -0.2637 ( 22) -0.1714 ( 23) -0.2636 ( 24) -0.1272 ( 29) -0.1270 ( 44)
          -0.1272 ( 47) -0.1270 ( 59) -0.1048 ( 75)  0.1046 ( 91)  0.1048 ( 99)
          -0.1046 (112)  0.1085 (117)  0.1086 (119)  0.1304 (120)  0.1215 (121)
          -0.1217 (124) -0.1304 (130) -0.1085 (131) -0.1086 (132) -0.1215 (136)
           0.1217 (144)
 CRD 30=  -0.3615 (  3) -0.3543 (  9)  0.3615 ( 11)  0.3543 ( 18) -0.1696 ( 19)
          -0.1674 ( 20)  0.1185 ( 21)  0.1696 ( 22) -0.1185 ( 23)  0.1674 ( 24)
          -0.1013 ( 73)  0.1024 ( 88) -0.1013 (100)  0.1024 (111)
 CRD 31=   0.1036 (  2)  0.2959 (  3) -0.1026 (  5) -0.3049 (  9) -0.2959 ( 11)
          -0.1036 ( 13)  0.1026 ( 15)  0.3049 ( 18) -0.1108 ( 67)  0.1116 ( 68)
           0.1108 ( 70) -0.1116 ( 72)  0.1587 ( 76)  0.1582 ( 81)  0.1588 ( 92)
           0.1583 ( 93)  0.1582 (101)  0.1587 (103)  0.1588 (109)  0.1583 (110)
           0.1741 (126)  0.1737 (127)  0.1741 (141)  0.1737 (142)
 CRD 32=   0.2564 (  3) -0.2564 (  9)  0.2564 ( 11) -0.2564 ( 18)  0.2706 ( 19)
          -0.2689 ( 20)  0.2706 ( 22) -0.2689 ( 24) -0.1816 ( 67)  0.1807 ( 68)
          -0.1816 ( 70)  0.1807 ( 72)  0.1074 ( 76)  0.1084 ( 81)  0.1075 ( 92)
           0.1084 ( 93) -0.1084 (101) -0.1074 (103) -0.1075 (109) -0.1084 (110)
           0.1081 (126)  0.1091 (127) -0.1081 (141) -0.1091 (142)
 CRD 33=   0.1240 (  3) -0.1237 (  9) -0.1240 ( 11)  0.1237 ( 18) -0.3840 ( 19)
           0.3839 ( 20)  0.3840 ( 22) -0.3839 ( 24)  0.1793 ( 67) -0.1792 ( 68)
          -0.1793 ( 70)  0.1792 ( 72)  0.1713 ( 74)  0.1713 ( 90)  0.1713 (102)
           0.1713 (108)  0.1869 (125)  0.1869 (140)
 CRD 34=   0.2242 ( 19)  0.2282 ( 20) -0.4423 ( 21)  0.2242 ( 22) -0.4423 ( 23)
           0.2282 ( 24) -0.1205 ( 67) -0.1225 ( 68)  0.2421 ( 69) -0.1205 ( 70)
           0.2421 ( 71) -0.1225 ( 72) -0.1356 ( 76)  0.1245 ( 81) -0.1252 ( 92)
           0.1349 ( 93) -0.1245 (101)  0.1356 (103)  0.1252 (109) -0.1349 (110)
          -0.1303 (126)  0.1298 (127)  0.1303 (141) -0.1298 (142)
 CRD 35=   0.3035 (  3) -0.3034 (  9)  0.3035 ( 11) -0.3034 ( 18) -0.2836 ( 19)
           0.2821 ( 20) -0.2836 ( 22)  0.2821 ( 24)  0.1037 ( 67) -0.1028 ( 68)
           0.1037 ( 70) -0.1028 ( 72)  0.1448 ( 74)  0.1448 ( 90) -0.1448 (102)
          -0.1448 (108)  0.1592 (125) -0.1592 (140)
 CRD 36=  -0.1419 (  3) -0.1411 (  9)  0.1419 ( 11)  0.1411 ( 18)  0.1890 ( 19)
           0.1896 ( 20) -0.4203 ( 21) -0.1890 ( 22)  0.4203 ( 23) -0.1896 ( 24)
          -0.1130 ( 67) -0.1134 ( 68)  0.2397 ( 69)  0.1130 ( 70) -0.2397 ( 71)
           0.1134 ( 72) -0.1309 ( 76)  0.1205 ( 81) -0.1208 ( 92)  0.1306 ( 93)
           0.1205 (101) -0.1309 (103) -0.1208 (109)  0.1306 (110) -0.1259 (126)
           0.1255 (127) -0.1259 (141)  0.1255 (142)
 CRD 37=   0.3568 (  1) -0.1076 (  2)  0.1067 (  5) -0.3525 ( 10)  0.3568 ( 12)
          -0.1076 ( 13)  0.1067 ( 15) -0.3525 ( 17)  0.1075 ( 61) -0.1053 ( 63)
           0.1075 ( 64) -0.1053 ( 66)  0.1133 (117) -0.1130 (119) -0.1176 (125)
          -0.1066 (126) -0.1064 (127) -0.1133 (131)  0.1130 (132)  0.1176 (140)
           0.1066 (141)  0.1064 (142)
 CRD 38=   0.2486 (  1)  0.3423 (  3)  0.3439 (  9)  0.2547 ( 10)  0.3423 ( 11)
           0.2486 ( 12)  0.2547 ( 17)  0.3439 ( 18)  0.1257 ( 61)  0.1276 ( 63)
           0.1257 ( 64)  0.1276 ( 66)  0.1184 (116) -0.1184 (133)
 CRD 39=  -0.3623 (  1) -0.3607 ( 10)  0.3623 ( 12)  0.3607 ( 17) -0.1146 ( 29)
          -0.1147 ( 44)  0.1146 ( 47)  0.1147 ( 59) -0.1170 ( 61) -0.1164 ( 63)
           0.1170 ( 64)  0.1164 ( 66)  0.1538 ( 75) -0.1540 ( 91)  0.1538 ( 99)
          -0.1540 (112) -0.1272 (121) -0.1229 (122)  0.1268 (124)  0.1225 (129)
          -0.1272 (136) -0.1229 (137)  0.1225 (139)  0.1268 (144)
 CRD 40=   0.2831 (  1) -0.1176 (  2)  0.1998 (  3)  0.1177 (  5) -0.2002 (  9)
          -0.2851 ( 10) -0.1998 ( 11) -0.2831 ( 12)  0.1176 ( 13) -0.1177 ( 15)
           0.2851 ( 17)  0.2002 ( 18)  0.1265 ( 61) -0.1271 ( 63) -0.1265 ( 64)
           0.1271 ( 66)  0.1207 (116) -0.1164 (120) -0.1130 (125) -0.1100 (126)
          -0.1100 (127) -0.1164 (130)  0.1207 (133) -0.1130 (140) -0.1100 (141)
          -0.1100 (142)
 CRD 41=  -0.1879 (  1)  0.1968 (  3) -0.1968 (  9)  0.1880 ( 10) -0.1968 ( 11)
           0.1879 ( 12) -0.1880 ( 17)  0.1968 ( 18)  0.1321 ( 83)  0.1445 ( 84)
           0.1321 ( 85)  0.1445 ( 87)  0.1445 (104)  0.1321 (105)  0.1321 (106)
           0.1445 (107)  0.1946 (116)  0.2071 (117)  0.2071 (119)  0.2196 (120)
           0.2196 (130)  0.2071 (131)  0.2071 (132)  0.1946 (133)
 CRD 42=  -0.1871 (  1)  0.1832 (  3)  0.1493 (  7)  0.1832 (  9) -0.1872 ( 10)
           0.1832 ( 11) -0.1871 ( 12)  0.1493 ( 16) -0.1872 ( 17)  0.1832 ( 18)
           0.1084 ( 75) -0.1123 ( 83) -0.1125 ( 84)  0.1123 ( 85)  0.1125 ( 87)
          -0.1084 ( 91) -0.1084 ( 99)  0.1125 (104)  0.1123 (105) -0.1123 (106)
          -0.1125 (107)  0.1084 (112)  0.1837 (116)  0.1839 (117)  0.1839 (119)
           0.1841 (120) -0.1036 (122)  0.1036 (129) -0.1841 (130) -0.1839 (131)
          -0.1839 (132) -0.1837 (133)  0.1036 (137) -0.1036 (139)
 CRD 43=   0.1733 (  1) -0.1018 (  6) -0.2723 (  7)  0.1732 ( 10) -0.1733 ( 12)
           0.1018 ( 14)  0.2723 ( 16) -0.1732 ( 17)  0.1082 ( 19)  0.1082 ( 20)
           0.1943 ( 21) -0.1082 ( 22) -0.1943 ( 23) -0.1082 ( 24)  0.1159 ( 33)
           0.1159 ( 35)  0.1637 ( 36) -0.1159 ( 54) -0.1159 ( 55) -0.1637 ( 56)
          -0.1596 ( 67) -0.1596 ( 68)  0.1596 ( 70)  0.1596 ( 72)  0.1230 ( 75)
          -0.1230 ( 91)  0.1230 ( 99) -0.1230 (112)  0.1121 (118) -0.1121 (123)
           0.1121 (134) -0.1121 (143)
 CRD 44=  -0.1563 (  4) -0.1770 (  6) -0.1252 (  7) -0.1563 (  8) -0.1770 ( 14)
          -0.1252 ( 16)  0.1645 ( 19)  0.1645 ( 20)  0.1844 ( 21)  0.1645 ( 22)
           0.1844 ( 23)  0.1645 ( 24)  0.1613 ( 33)  0.1614 ( 35)  0.1797 ( 36)
           0.1613 ( 54)  0.1614 ( 55)  0.1797 ( 56) -0.1082 ( 62) -0.1082 ( 65)
          -0.1806 ( 67) -0.1806 ( 68) -0.1680 ( 69) -0.1806 ( 70) -0.1680 ( 71)
          -0.1806 ( 72)  0.1247 ( 78) -0.1247 ( 94) -0.1247 ( 97)  0.1247 (113)
           0.1315 (118) -0.1315 (123) -0.1315 (134)  0.1315 (143)
 CRD 45=  -0.1623 (  1)  0.1394 (  3) -0.1212 (  6)  0.2297 (  7)  0.1394 (  9)
          -0.1623 ( 10) -0.1394 ( 11)  0.1623 ( 12)  0.1212 ( 14) -0.2297 ( 16)
           0.1623 ( 17) -0.1394 ( 18)  0.1210 ( 19)  0.1209 ( 20) -0.1210 ( 22)
          -0.1209 ( 24) -0.1493 ( 62)  0.1493 ( 65) -0.1457 ( 69)  0.1457 ( 71)
          -0.1128 ( 73) -0.1017 ( 78)  0.1128 ( 88)  0.1017 ( 94) -0.1017 ( 97)
          -0.1128 (100)  0.1128 (111)  0.1017 (113)  0.1869 (118)  0.1308 (121)
          -0.1869 (123) -0.1308 (124)  0.1869 (134)  0.1308 (136) -0.1869 (143)
          -0.1308 (144)
 CRD 46=  -0.3132 (  6)  0.3132 ( 14)  0.1250 ( 19)  0.1251 ( 20) -0.1250 ( 22)
          -0.1251 ( 24)  0.1337 ( 29)  0.1137 ( 30)  0.1212 ( 33)  0.1212 ( 35)
           0.1162 ( 36)  0.1138 ( 43)  0.1337 ( 44) -0.1137 ( 46) -0.1337 ( 47)
          -0.1212 ( 54) -0.1212 ( 55) -0.1162 ( 56) -0.1138 ( 57) -0.1337 ( 59)
          -0.1180 ( 67) -0.1180 ( 68) -0.1418 ( 69)  0.1180 ( 70)  0.1418 ( 71)
           0.1180 ( 72)  0.1078 ( 73) -0.1077 ( 88)  0.1078 (100) -0.1077 (111)
          -0.1057 (115) -0.1496 (118)  0.1497 (123)  0.1057 (128) -0.1496 (134)
          -0.1057 (135)  0.1057 (138)  0.1497 (143)
 CRD 47=  -0.1409 (  2)  0.1406 (  5) -0.1409 ( 13)  0.1406 ( 15)  0.1651 ( 29)
           0.1481 ( 30) -0.1054 ( 31)  0.1057 ( 34)  0.1854 ( 37) -0.1852 ( 38)
          -0.1482 ( 43) -0.1653 ( 44)  0.1481 ( 46)  0.1651 ( 47)  0.1057 ( 50)
           0.1854 ( 51) -0.1852 ( 52) -0.1054 ( 53) -0.1482 ( 57) -0.1653 ( 59)
          -0.1167 ( 73)  0.1005 ( 75) -0.1109 ( 84) -0.1108 ( 87) -0.1167 ( 88)
           0.1006 ( 91) -0.1005 ( 99)  0.1167 (100)  0.1109 (104)  0.1108 (107)
           0.1167 (111) -0.1006 (112) -0.1465 (115) -0.1327 (117)  0.1326 (119)
           0.1188 (121)  0.1188 (124) -0.1465 (128)  0.1327 (131) -0.1326 (132)
           0.1465 (135) -0.1188 (136)  0.1465 (138) -0.1188 (144)
 CRD 48=   0.1475 (  2) -0.1017 (  3) -0.2508 (  4)  0.1478 (  5)  0.2891 (  6)
          -0.1346 (  7) -0.2508 (  8) -0.1015 (  9) -0.1017 ( 11)  0.1475 ( 13)
           0.2891 ( 14)  0.1478 ( 15) -0.1346 ( 16) -0.1015 ( 18) -0.1045 ( 19)
          -0.1044 ( 20) -0.1045 ( 22) -0.1044 ( 24) -0.1151 ( 31) -0.1048 ( 33)
          -0.1149 ( 34) -0.1048 ( 35) -0.1149 ( 50) -0.1151 ( 53) -0.1048 ( 54)
          -0.1048 ( 55)  0.1193 ( 69)  0.1193 ( 71)  0.2077 (116) -0.2077 (133)
 CRD 49=   0.1343 (  3)  0.1545 (  4) -0.1545 (  8) -0.1342 (  9) -0.1343 ( 11)
           0.1342 ( 18) -0.1362 ( 31)  0.1362 ( 34) -0.1362 ( 50)  0.1362 ( 53)
          -0.1105 ( 61)  0.1104 ( 63)  0.1105 ( 64) -0.1104 ( 66) -0.1362 ( 83)
          -0.1362 ( 85) -0.1362 (105) -0.1362 (106) -0.2699 (116)  0.1120 (118)
           0.1131 (120)  0.1137 (121)  0.1119 (123)  0.1137 (124) -0.1994 (125)
          -0.1289 (126) -0.1289 (127)  0.1131 (130) -0.2699 (133)  0.1120 (134)
           0.1137 (136) -0.1994 (140) -0.1289 (141) -0.1289 (142)  0.1119 (143)
           0.1137 (144)
 CRD 50=  -0.2761 (  7) -0.2761 ( 16)  0.2087 ( 21)  0.2087 ( 23)  0.1478 ( 69)
           0.1478 ( 71) -0.1564 ( 76) -0.1314 ( 84)  0.1314 ( 87)  0.1564 ( 93)
           0.1564 (103)  0.1314 (104) -0.1314 (107) -0.1564 (110)  0.1963 (120)
          -0.1963 (130)
 CRD 51=   0.1580 (  2)  0.1214 (  3) -0.1580 (  5) -0.1214 (  9)  0.1214 ( 11)
           0.1580 ( 13) -0.1580 ( 15) -0.1214 ( 18) -0.1553 ( 19)  0.1553 ( 20)
          -0.1553 ( 22)  0.1553 ( 24) -0.1403 ( 28)  0.1403 ( 40) -0.1403 ( 48)
           0.1403 ( 58) -0.1176 ( 67)  0.1177 ( 68) -0.1176 ( 70)  0.1177 ( 72)
          -0.1076 ( 74) -0.1077 ( 90)  0.1076 (102)  0.1077 (108)  0.1513 (118)
           0.1137 (121)  0.1513 (123)  0.1137 (124) -0.2948 (125) -0.1458 (126)
          -0.1458 (127) -0.1513 (134) -0.1137 (136)  0.2948 (140)  0.1458 (141)
           0.1458 (142) -0.1513 (143) -0.1137 (144)
 CRD 52=  -0.2169 (  2)  0.1682 (  4)  0.2166 (  5) -0.1682 (  8)  0.2169 ( 13)
          -0.2166 ( 15)  0.2025 ( 19) -0.2022 ( 20) -0.2025 ( 22)  0.2022 ( 24)
           0.1001 ( 28) -0.1001 ( 40) -0.1001 ( 48)  0.1001 ( 58)  0.1538 ( 67)
          -0.1536 ( 68) -0.1538 ( 70)  0.1536 ( 72)  0.1331 ( 74)  0.1330 ( 90)
           0.1331 (102)  0.1330 (108) -0.1016 (116)  0.1068 (120)  0.2404 (125)
           0.1068 (130) -0.1016 (133)  0.2404 (140)
 CRD 53=  -0.1132 (  1)  0.1292 (  2)  0.1296 (  5) -0.1053 (  6) -0.1132 ( 10)
           0.1132 ( 12) -0.1292 ( 13)  0.1053 ( 14) -0.1296 ( 15)  0.1132 ( 17)
          -0.1122 ( 19) -0.1126 ( 20)  0.2683 ( 21)  0.1122 ( 22) -0.2683 ( 23)
           0.1126 ( 24) -0.1052 ( 37) -0.1054 ( 38)  0.1052 ( 51)  0.1054 ( 52)
          -0.1133 ( 67) -0.1136 ( 68)  0.1752 ( 69)  0.1133 ( 70) -0.1752 ( 71)
           0.1136 ( 72) -0.1879 ( 76)  0.1073 ( 81) -0.1230 ( 84)  0.1232 ( 87)
          -0.1075 ( 92)  0.1878 ( 93)  0.1073 (101) -0.1879 (103) -0.1230 (104)
           0.1232 (107) -0.1075 (109)  0.1878 (110) -0.1476 (126)  0.1476 (127)
          -0.1476 (141)  0.1476 (142)
 CRD 54=  -0.2065 (  1)  0.2063 ( 10) -0.2065 ( 12)  0.2063 ( 17)  0.1238 ( 19)
          -0.1236 ( 20)  0.1238 ( 22) -0.1236 ( 24)  0.1019 ( 61) -0.1013 ( 63)
           0.1019 ( 64) -0.1013 ( 66)  0.1753 ( 75) -0.1040 ( 76) -0.1040 ( 81)
           0.1422 ( 84)  0.1419 ( 87)  0.1755 ( 91) -0.1041 ( 92) -0.1041 ( 93)
          -0.1753 ( 99)  0.1040 (101)  0.1040 (103) -0.1422 (104) -0.1419 (107)
           0.1041 (109)  0.1041 (110) -0.1755 (112)  0.1382 (121)  0.1351 (122)
           0.1385 (124)  0.1350 (129) -0.1382 (136) -0.1351 (137) -0.1350 (139)
          -0.1385 (144)
 CRD 55=   0.1483 (  2) -0.1602 (  3)  0.1281 (  4)  0.1484 (  5) -0.2108 (  6)
           0.1281 (  8) -0.1599 (  9) -0.1602 ( 11)  0.1483 ( 13) -0.2108 ( 14)
           0.1484 ( 15) -0.1599 ( 18)  0.1603 ( 61)  0.1152 ( 62)  0.1607 ( 63)
           0.1603 ( 64)  0.1152 ( 65)  0.1607 ( 66)  0.2124 (116) -0.1954 (118)
          -0.1064 (120)  0.1954 (123)  0.1064 (130) -0.2124 (133)  0.1954 (134)
          -0.1954 (143)
 CRD 56=  -0.1320 (  3)  0.3113 (  4) -0.3113 (  8)  0.1320 (  9)  0.1320 ( 11)
          -0.1320 ( 18) -0.1084 ( 19)  0.1084 ( 20)  0.1084 ( 22) -0.1084 ( 24)
          -0.1219 ( 30)  0.1219 ( 43)  0.1219 ( 46) -0.1219 ( 57)  0.1228 ( 61)
          -0.1229 ( 63) -0.1228 ( 64)  0.1229 ( 66) -0.1052 ( 73)  0.1066 ( 75)
          -0.1052 ( 88)  0.1066 ( 91)  0.1066 ( 99) -0.1052 (100) -0.1052 (111)
           0.1066 (112) -0.1035 (115) -0.1311 (118)  0.1084 (122) -0.1311 (123)
           0.1098 (126)  0.1098 (127) -0.1035 (128)  0.1084 (129) -0.1311 (134)
          -0.1035 (135)  0.1084 (137) -0.1035 (138)  0.1084 (139)  0.1098 (141)
           0.1098 (142) -0.1311 (143)
 CRD 57=  -0.1635 ( 19)  0.1632 ( 20) -0.1635 ( 22)  0.1632 ( 24) -0.1018 ( 33)
           0.1020 ( 35) -0.1018 ( 54)  0.1020 ( 55)  0.1316 ( 61) -0.1316 ( 63)
           0.1316 ( 64) -0.1316 ( 66) -0.1234 ( 67)  0.1232 ( 68) -0.1234 ( 70)
           0.1232 ( 72) -0.1790 ( 74) -0.1791 ( 90)  0.1790 (102)  0.1791 (108)
           0.1752 (117) -0.1754 (119)  0.1129 (122)  0.1622 (126)  0.1625 (127)
           0.1130 (129) -0.1752 (131)  0.1754 (132) -0.1129 (137) -0.1130 (139)
          -0.1622 (141) -0.1625 (142)
 CRD 58=   0.1040 ( 19)  0.1044 ( 20) -0.2209 ( 21)  0.1040 ( 22) -0.2209 ( 23)
           0.1044 ( 24) -0.1044 ( 30)  0.1243 ( 36) -0.1044 ( 43) -0.1044 ( 46)
           0.1243 ( 56) -0.1044 ( 57) -0.1565 ( 69) -0.1565 ( 71)  0.1200 ( 76)
           0.1522 ( 79) -0.1679 ( 81)  0.1681 ( 92) -0.1198 ( 93) -0.1524 ( 96)
          -0.1522 ( 98)  0.1679 (101) -0.1200 (103) -0.1681 (109)  0.1198 (110)
           0.1524 (114)  0.1553 (120)  0.1441 (126) -0.1437 (127) -0.1553 (130)
          -0.1441 (141)  0.1437 (142)
 CRD 59=  -0.1851 (  2)  0.1058 (  3) -0.1850 (  5)  0.1711 (  6)  0.1057 (  9)
          -0.1058 ( 11)  0.1851 ( 13) -0.1711 ( 14)  0.1850 ( 15) -0.1057 ( 18)
           0.1158 ( 29)  0.1039 ( 31)  0.1039 ( 34)  0.1157 ( 44) -0.1158 ( 47)
          -0.1039 ( 50) -0.1039 ( 53) -0.1157 ( 59) -0.1424 ( 62)  0.1424 ( 65)
           0.1008 ( 77)  0.1008 ( 80) -0.1394 ( 83)  0.1394 ( 85) -0.1008 ( 89)
          -0.1008 ( 95) -0.1394 (105)  0.1394 (106) -0.1745 (117)  0.1153 (118)
           0.1745 (119)  0.1218 (121) -0.1153 (123) -0.1219 (124) -0.1745 (131)
           0.1745 (132)  0.1153 (134)  0.1218 (136) -0.1153 (143) -0.1219 (144)
 CRD 60=   0.1072 (  1) -0.1770 (  2) -0.1173 (  4)  0.1770 (  5)  0.1173 (  8)
          -0.1072 ( 10) -0.1072 ( 12)  0.1770 ( 13) -0.1770 ( 15)  0.1072 ( 17)
          -0.1054 ( 19)  0.1054 ( 20)  0.1054 ( 22) -0.1054 ( 24)  0.1235 ( 26)
          -0.1234 ( 41) -0.1235 ( 45)  0.1234 ( 60) -0.1107 ( 61)  0.1108 ( 63)
           0.1107 ( 64) -0.1108 ( 66) -0.1351 ( 74) -0.1025 ( 75) -0.1351 ( 90)
          -0.1025 ( 91) -0.1025 ( 99) -0.1351 (102) -0.1351 (108) -0.1025 (112)
           0.1013 (115)  0.1638 (120) -0.1429 (121) -0.1428 (124)  0.1801 (126)
           0.1801 (127)  0.1013 (128)  0.1638 (130)  0.1013 (135) -0.1429 (136)
           0.1013 (138)  0.1801 (141)  0.1801 (142) -0.1428 (144)
 CRD 61=  -0.1098 (  3)  0.1686 (  6) -0.1098 (  9)  0.1098 ( 11) -0.1686 ( 14)
           0.1098 ( 18)  0.1085 ( 25)  0.1450 ( 27) -0.1450 ( 32) -0.1450 ( 39)
           0.1450 ( 42) -0.1085 ( 49)  0.1332 ( 61)  0.1332 ( 63) -0.1332 ( 64)
          -0.1332 ( 66)  0.1960 ( 73) -0.1431 ( 78)  0.1114 ( 83) -0.1113 ( 85)
          -0.1959 ( 88)  0.1431 ( 94) -0.1431 ( 97)  0.1960 (100)  0.1114 (105)
          -0.1113 (106) -0.1959 (111)  0.1431 (113) -0.1070 (115)  0.1529 (117)
          -0.1530 (119)  0.1874 (121) -0.1874 (124)  0.1071 (128)  0.1529 (131)
          -0.1530 (132) -0.1070 (135)  0.1874 (136)  0.1071 (138) -0.1874 (144)
 CRD 62=  -0.2285 (  4) -0.1738 (  6) -0.2285 (  8) -0.1738 ( 14) -0.1293 ( 25)
          -0.1293 ( 49)  0.1335 ( 62)  0.1335 ( 65) -0.1840 ( 73) -0.1274 ( 78)
           0.1840 ( 88)  0.1274 ( 94)  0.1274 ( 97)  0.1840 (100) -0.1840 (111)
          -0.1274 (113)  0.1413 (115) -0.1989 (121)  0.1989 (124) -0.1413 (128)
          -0.1413 (135)  0.1989 (136)  0.1413 (138) -0.1989 (144)
 CRD 63=   0.1934 (  2) -0.1215 (  3) -0.1935 (  5)  0.1215 (  9) -0.1215 ( 11)
           0.1934 ( 13) -0.1935 ( 15)  0.1215 ( 18)  0.1026 ( 27) -0.1011 ( 28)
          -0.1027 ( 32)  0.1026 ( 39)  0.1012 ( 40) -0.1027 ( 42) -0.1011 ( 48)
           0.1012 ( 58)  0.1348 ( 74) -0.1191 ( 78) -0.1677 ( 83) -0.1677 ( 85)
           0.1348 ( 90) -0.1191 ( 94)  0.1191 ( 97) -0.1348 (102)  0.1677 (105)
           0.1677 (106) -0.1348 (108)  0.1191 (113) -0.1264 (115)  0.1434 (117)
          -0.1434 (119) -0.1464 (126) -0.1464 (127) -0.1263 (128) -0.1434 (131)
           0.1434 (132)  0.1264 (135)  0.1263 (138)  0.1464 (141)  0.1464 (142)
 CRD 64=   0.1448 (  1) -0.1448 ( 10) -0.1448 ( 12)  0.1448 ( 17) -0.1041 ( 28)
          -0.1174 ( 30)  0.1042 ( 40)  0.1174 ( 43)  0.1174 ( 46)  0.1041 ( 48)
          -0.1174 ( 57) -0.1042 ( 58)  0.1236 ( 74)  0.1548 ( 78) -0.1985 ( 82)
          -0.1985 ( 86)  0.1236 ( 90)  0.1549 ( 94)  0.1548 ( 97)  0.1236 (102)
           0.1236 (108)  0.1549 (113)  0.1251 (117)  0.1250 (119)  0.1920 (120)
          -0.1171 (122) -0.1172 (129)  0.1920 (130)  0.1251 (131)  0.1250 (132)
          -0.1171 (137) -0.1172 (139)
 CRD 65=  -0.1763 (  7)  0.1763 ( 16) -0.1002 ( 21)  0.1002 ( 23) -0.1030 ( 25)
           0.1041 ( 36)  0.1030 ( 49) -0.1041 ( 56) -0.1105 ( 74)  0.1337 ( 77)
           0.1337 ( 80) -0.1905 ( 81) -0.1325 ( 83) -0.1080 ( 84)  0.1325 ( 85)
           0.1080 ( 87) -0.1338 ( 89)  0.1105 ( 90)  0.1905 ( 92) -0.1338 ( 95)
          -0.1905 (101) -0.1105 (102) -0.1080 (104) -0.1325 (105)  0.1325 (106)
           0.1080 (107)  0.1105 (108)  0.1905 (109)  0.1418 (115)  0.1653 (122)
          -0.1417 (128) -0.1653 (129)  0.1418 (135)  0.1653 (137) -0.1417 (138)
          -0.1653 (139)
 CRD 66=  -0.1161 (  1) -0.1333 (  7) -0.1162 ( 10) -0.1161 ( 12) -0.1333 ( 16)
          -0.1162 ( 17)  0.1885 ( 77) -0.1057 ( 78) -0.1885 ( 80) -0.1367 ( 81)
          -0.2032 ( 82)  0.2032 ( 86) -0.1885 ( 89)  0.1367 ( 92)  0.1057 ( 94)
           0.1885 ( 95)  0.1057 ( 97)  0.1367 (101) -0.1367 (109) -0.1057 (113)
          -0.1508 (120)  0.1524 (122) -0.1524 (129)  0.1508 (130) -0.1524 (137)
           0.1524 (139)

 THE DETERMINANT OF THE G MATRIX IS 10**(   -17)


                     --------------------
                     INTERNAL COORDINATES
                     --------------------

                 - - ATOMS - -         COORDINATE      COORDINATE
 NO.   TYPE    I  J  K  L  M  N        (BOHR,RAD)       (ANG,DEG)
 ----------------------------------------------------------------
   1 STRETCH   1  7                     2.0733176       1.0971525
   2 STRETCH   1  2                     2.8988502       1.5340056
   3 STRETCH   1  8                     2.0727178       1.0968351
   4 STRETCH   1  6                     2.8869653       1.5277164
   5 STRETCH   2  3                     2.8989339       1.5340499
   6 STRETCH   2 10                     2.8868911       1.5276771
   7 STRETCH   2  9                     2.0746893       1.0978784
   8 STRETCH   3  4                     2.8869653       1.5277164
   9 STRETCH   3 11                     2.0725075       1.0967238
  10 STRETCH   3 12                     2.0733218       1.0971547
  11 STRETCH   4 14                     2.0727178       1.0968351
  12 STRETCH   4 13                     2.0733176       1.0971525
  13 STRETCH   4  5                     2.8988502       1.5340056
  14 STRETCH   5 15                     2.8868911       1.5276771
  15 STRETCH   5  6                     2.8989339       1.5340499
  16 STRETCH   5 16                     2.0746893       1.0978784
  17 STRETCH   6 18                     2.0733218       1.0971547
  18 STRETCH   6 17                     2.0725075       1.0967238
  19 STRETCH  10 21                     2.0693745       1.0950659
  20 STRETCH  10 20                     2.0696051       1.0951879
  21 STRETCH  10 19                     2.0694784       1.0951209
  22 STRETCH  15 24                     2.0693745       1.0950659
  23 STRETCH  15 23                     2.0694784       1.0951209
  24 STRETCH  15 22                     2.0696051       1.0951879
  25 BEND      1  2  3                  1.9334572     110.7789395
  26 BEND      1  2 10                  1.9315111     110.6674359
  27 BEND      1  6  5                  1.9490051     111.6697637
  28 BEND      1  2  9                  1.8914250     108.3706688
  29 BEND      1  6 17                  1.9056419     109.1852393
  30 BEND      1  6 18                  1.9059702     109.2040460
  31 BEND      2  3 12                  1.9189376     109.9470284
  32 BEND      2  1  6                  1.9490238     111.6708407
  33 BEND      2 10 20                  1.9329122     110.7477119
  34 BEND      2  1  7                  1.9190592     109.9539932
  35 BEND      2 10 21                  1.9329472     110.7497189
  36 BEND      2 10 19                  1.9437897     111.3709453
  37 BEND      2  1  8                  1.9181310     109.9008106
  38 BEND      2  3 11                  1.9180929     109.8986251
  39 BEND      2  3  4                  1.9490051     111.6697637
  40 BEND      3  2  9                  1.8913940     108.3688929
  41 BEND      3  2 10                  1.9315072     110.6672089
  42 BEND      3  4  5                  1.9490238     111.6708407
  43 BEND      3  4 13                  1.9058609     109.1977871
  44 BEND      3  4 14                  1.9055117     109.1777772
  45 BEND      4  5 15                  1.9315111     110.6674359
  46 BEND      4  3 12                  1.9059702     109.2040460
  47 BEND      4  3 11                  1.9056419     109.1852393
  48 BEND      4  5 16                  1.8914250     108.3706688
  49 BEND      4  5  6                  1.9334572     110.7789395
  50 BEND      5  4 13                  1.9190592     109.9539932
  51 BEND      5  4 14                  1.9181310     109.9008106
  52 BEND      5  6 17                  1.9180929     109.8986251
  53 BEND      5  6 18                  1.9189376     109.9470284
  54 BEND      5 15 22                  1.9329122     110.7477119
  55 BEND      5 15 24                  1.9329472     110.7497189
  56 BEND      5 15 23                  1.9437897     111.3709453
  57 BEND      6  1  7                  1.9058609     109.1977871
  58 BEND      6  5 16                  1.8913940     108.3688929
  59 BEND      6  1  8                  1.9055117     109.1777772
  60 BEND      6  5 15                  1.9315072     110.6672089
  61 BEND      7  1  8                  1.8642354     106.8128198
  62 BEND      9  2 10                  1.8829134     107.8829934
  63 BEND     11  3 12                  1.8641752     106.8093685
  64 BEND     13  4 14                  1.8642354     106.8128198
  65 BEND     15  5 16                  1.8829134     107.8829934
  66 BEND     17  6 18                  1.8641752     106.8093685
  67 BEND     19 10 20                  1.8852026     108.0141507
  68 BEND     19 10 21                  1.8853007     108.0197748
  69 BEND     20 10 21                  1.8815169     107.8029753
  70 BEND     22 15 23                  1.8852026     108.0141507
  71 BEND     22 15 24                  1.8815169     107.8029753
  72 BEND     23 15 24                  1.8853007     108.0197748
  73 TORSION   1  2  3 12              -1.1612588     -66.5352271
  74 TORSION   1  2 10 19               1.0750359      61.5950224
  75 TORSION   1  2  3 11               3.0747732     176.1715272
  76 TORSION   1  2 10 21              -3.1097319    -178.1745116
  77 TORSION   1  2  3  4               0.9572548      54.8466574
  78 TORSION   1  6  5 16               1.1155441      63.9159661
  79 TORSION   1  6  5 15              -3.1063414    -177.9802494
  80 TORSION   1  6  5  4              -0.9572548     -54.8466574
  81 TORSION   1  2 10 20              -1.0232339     -58.6269838
  82 TORSION   2  3  4  5              -0.9659195     -55.3431105
  83 TORSION   2  3  4 13               1.1601815      66.4735029
  84 TORSION   2  3  4 14              -3.0906124    -177.0790478
  85 TORSION   2  1  6 18              -1.1600906     -66.4682963
  86 TORSION   2  1  6  5               0.9659195      55.3431105
  87 TORSION   2  1  6 17               3.0906409     177.0806815
  88 TORSION   3  2  1  7               1.1612059      66.5321964
  89 TORSION   3  2  1  6              -0.9572654     -54.8472652
  90 TORSION   3  2 10 19              -1.0751773     -61.6031194
  91 TORSION   3  2  1  8              -3.0746577    -176.1649085
  92 TORSION   3  2 10 21               1.0232402      58.6273466
  93 TORSION   3  2 10 20               3.1097382     178.1748745
  94 TORSION   3  4  5 16              -1.1155147     -63.9142840
  95 TORSION   3  4  5  6               0.9572654      54.8472652
  96 TORSION   3  4  5 15               3.1063497     177.9807260
  97 TORSION   4  3  2  9              -1.1155441     -63.9159661
  98 TORSION   4  3  2 10               3.1063414     177.9802494
  99 TORSION   4  5  6 17              -3.0747732    -176.1715272
 100 TORSION   4  5  6 18               1.1612588      66.5352271
 101 TORSION   4  5 15 22               1.0232339      58.6269838
 102 TORSION   4  5 15 23              -1.0750359     -61.5950224
 103 TORSION   4  5 15 24               3.1097319     178.1745116
 104 TORSION   5  6  1  8               3.0906124     177.0790478
 105 TORSION   5  6  1  7              -1.1601815     -66.4735029
 106 TORSION   5  4  3 12               1.1600906      66.4682963
 107 TORSION   5  4  3 11              -3.0906409    -177.0806815
 108 TORSION   6  5 15 23               1.0751773      61.6031194
 109 TORSION   6  5 15 24              -1.0232402     -58.6273466
 110 TORSION   6  5 15 22              -3.1097382    -178.1748745
 111 TORSION   6  5  4 13              -1.1612059     -66.5321964
 112 TORSION   6  5  4 14               3.0746577     176.1649085
 113 TORSION   6  1  2  9               1.1155147      63.9142840
 114 TORSION   6  1  2 10              -3.1063497    -177.9807260
 115 TORSION   7  1  2 10              -0.9878784     -56.6012644
 116 TORSION   7  1  6 18               2.9969937     171.7150903
 117 TORSION   7  1  6 17               0.9645399      55.2640681
 118 TORSION   7  1  2  9              -3.0491994    -174.7062544
 119 TORSION   8  1  6 18               0.9646023      55.2676410
 120 TORSION   8  1  6 17              -1.0678514     -61.1833812
 121 TORSION   8  1  2  9              -1.0018776     -57.4033594
 122 TORSION   8  1  2 10               1.0594433      60.7016307
 123 TORSION   9  2  3 12               3.0491277     174.7021494
 124 TORSION   9  2  3 11               1.0019744      57.4089037
 125 TORSION   9  2 10 19               3.1415419     179.9970922
 126 TORSION   9  2 10 21              -1.0432259     -59.7724419
 127 TORSION   9  2 10 20               1.0432721      59.7750860
 128 TORSION  10  2  3 12               0.9878278      56.5983649
 129 TORSION  10  2  3 11              -1.0593255     -60.6948808
 130 TORSION  11  3  4 14               1.0678514      61.1833812
 131 TORSION  11  3  4 13              -0.9645399     -55.2640681
 132 TORSION  12  3  4 14              -0.9646023     -55.2676410
 133 TORSION  12  3  4 13              -2.9969937    -171.7150903
 134 TORSION  13  4  5 16               3.0491994     174.7062544
 135 TORSION  13  4  5 15               0.9878784      56.6012644
 136 TORSION  14  4  5 16               1.0018776      57.4033594
 137 TORSION  14  4  5 15              -1.0594433     -60.7016307
 138 TORSION  15  5  6 18              -0.9878278     -56.5983649
 139 TORSION  15  5  6 17               1.0593255      60.6948808
 140 TORSION  16  5 15 23              -3.1415419    -179.9970922
 141 TORSION  16  5 15 24               1.0432259      59.7724419
 142 TORSION  16  5 15 22              -1.0432721     -59.7750860
 143 TORSION  16  5  6 18              -3.0491277    -174.7021494
 144 TORSION  16  5  6 17              -1.0019744     -57.4089037

     ------------------------------------------
     THE POINT GROUP IS C1 , NAXIS= 1, ORDER= 1
     ------------------------------------------

     DIMENSIONS OF THE SYMMETRY SUBSPACES ARE
 A   =  248

 ..... DONE SETTING UP THE RUN .....
 STEP CPU TIME =     0.03 TOTAL CPU TIME =        0.0 (    0.0 MIN)
 TOTAL WALL CLOCK TIME=        0.0 SECONDS, CPU UTILIZATION IS  75.00%


          -----------------------------
          STATIONARY POINT LOCATION RUN
          -----------------------------

 OBTAINING INITIAL HESSIAN, HESS=GUESS   
 DIAGONAL GUESS HESSIAN IN INTERNAL COORDS IS
     1  0.3416     2  0.3643     3  0.3418     4  0.3688     5  0.3643
     6  0.3688     7  0.3411     8  0.3688     9  0.3419    10  0.3416
    11  0.3418    12  0.3416    13  0.3643    14  0.3688    15  0.3643
    16  0.3411    17  0.3416    18  0.3419    19  0.3430    20  0.3429
    21  0.3429    22  0.3430    23  0.3429    24  0.3429    25  0.2479
    26  0.2484    27  0.2484    28  0.2234    29  0.2238    30  0.2238
    31  0.2234    32  0.2484    33  0.2239    34  0.2234    35  0.2239
    36  0.2239    37  0.2234    38  0.2234    39  0.2484    40  0.2234
    41  0.2484    42  0.2484    43  0.2238    44  0.2238    45  0.2484
    46  0.2238    47  0.2238    48  0.2234    49  0.2479    50  0.2234
    51  0.2234    52  0.2234    53  0.2234    54  0.2239    55  0.2239
    56  0.2239    57  0.2238    58  0.2234    59  0.2238    60  0.2484
    61  0.2027    62  0.2237    63  0.2027    64  0.2027    65  0.2237
    66  0.2027    67  0.2029    68  0.2029    69  0.2029    70  0.2029
    71  0.2029    72  0.2029    73  0.2500    74  0.2500    75  0.2500
    76  0.2500    77  0.2500    78  0.2500    79  0.2500    80  0.2500
    81  0.2500    82  0.2500    83  0.2500    84  0.2500    85  0.2500
    86  0.2500    87  0.2500    88  0.2500    89  0.2500    90  0.2500
    91  0.2500    92  0.2500    93  0.2500    94  0.2500    95  0.2500
    96  0.2500    97  0.2500    98  0.2500    99  0.2500   100  0.2500
   101  0.2500   102  0.2500   103  0.2500   104  0.2500   105  0.2500
   106  0.2500   107  0.2500   108  0.2500   109  0.2500   110  0.2500
   111  0.2500   112  0.2500   113  0.2500   114  0.2500   115  0.2500
   116  0.2500   117  0.2500   118  0.2500   119  0.2500   120  0.2500
   121  0.2500   122  0.2500   123  0.2500   124  0.2500   125  0.2500
   126  0.2500   127  0.2500   128  0.2500   129  0.2500   130  0.2500
   131  0.2500   132  0.2500   133  0.2500   134  0.2500   135  0.2500
   136  0.2500   137  0.2500   138  0.2500   139  0.2500   140  0.2500
   141  0.2500   142  0.2500   143  0.2500   144  0.2500
 TRANSFORMING HESSIAN TO SYMMETRY COORDINATES

          PARAMETERS CONTROLLING GEOMETRY SEARCH ARE
          METHOD =QA                  UPHESS =BFGS    
          NNEG   =         0          NFRZ   =         3
          NSTEP  =        50          IFOLOW =         1
          HESS   =GUESS               RESTAR =         F
          IHREP  =         0          HSSEND =         F
          NPRT   =         0          NPUN   =         0
          OPTTOL = 5.000E-04          RMIN   = 1.500E-03
          RMAX   = 1.000E-01          RLIM   = 7.000E-02
          DXMAX  = 3.000E-01          PURIFY =         F
          MOVIE  =         F          TRUPD  =         T
          TRMAX  = 5.000E-01          TRMIN  = 5.000E-02
          ITBMAT =         5          STPT   =         F
          STSTEP = 1.000E-02          PROJCT=          F
          FROZEN COORD(S)=   1   2   3


      ***** EQUILIBRIUM GEOMETRY LOCATED *****
            (SUBJECT TO   3 CONSTRAINT(S))
 COORDINATES OF ALL ATOMS ARE (ANGS)
   ATOM   CHARGE       X              Y              Z
 ------------------------------------------------------------
 C           6.0  -0.2485857749  -1.3024272822   0.6438319983
 C           6.0  -1.3658715730  -0.5866791558  -0.1226455811
 C           6.0  -1.1378906595   0.9286211929  -0.1245058622
 C           6.0   0.2485844207   1.3024303667  -0.6438331134
 C           6.0   1.3658713157   0.5866800957   0.1226458368
 C           6.0   1.1378918020  -0.9286180402   0.1245114052
 H           1.0  -0.3213474973  -1.0428927799   1.7006228671
 H           1.0  -0.3905700453  -2.3790758367   0.5759752164
 H           1.0  -1.3289021151  -0.9286338284  -1.1583725554
 C           6.0  -2.7356362343  -0.9353671002   0.4503372469
 H           1.0  -1.9018610732   1.4123424124  -0.7297334765
 H           1.0  -1.2576802271   1.3062429823   0.8916204300
 H           1.0   0.3213361108   1.0428915820  -1.7006222697
 H           1.0   0.3905799690   2.3790787370  -0.5759716098
 C           6.0   2.7356372549   0.9353622871  -0.4503416548
 H           1.0   1.3288872579   0.9286296162   1.1583784860
 H           1.0   1.9018490489  -1.4123671841   0.7297284618
 H           1.0   1.2576909883  -1.3062290608  -0.8916168760
 H           1.0  -2.8062214878  -0.6071231451   1.4852503455
 H           1.0  -2.9086564898  -2.0078383392   0.4250648151
 H           1.0  -3.5294759694  -0.4504144552  -0.1112637826
 H           1.0   2.9086482370   2.0078314601  -0.4250561775
 H           1.0   2.8062308682   0.6071220703  -1.4852556929
 H           1.0   3.5294858557   0.4504076214   0.1112485356


                     --------------------
                     INTERNAL COORDINATES
                     --------------------

                 - - ATOMS - -         COORDINATE      COORDINATE
 NO.   TYPE    I  J  K  L  M  N        (BOHR,RAD)       (ANG,DEG)
 ----------------------------------------------------------------
   1 STRETCH   1  7                     2.0609794       1.0906234
   2 STRETCH   1  2                     2.8957304       1.5323547
   3 STRETCH   1  8                     2.0561888       1.0880883
   4 STRETCH   1  6                     2.8856229       1.5270060
   5 STRETCH   2  3                     2.8957323       1.5323557
   6 STRETCH   2 10                     2.8821561       1.5251714
   7 STRETCH   2  9                     2.0623397       1.0913433
   8 STRETCH   3  4                     2.8856229       1.5270060
   9 STRETCH   3 11                     2.0561899       1.0880889
  10 STRETCH   3 12                     2.0609802       1.0906239
  11 STRETCH   4 14                     2.0561918       1.0880899
  12 STRETCH   4 13                     2.0609769       1.0906221
  13 STRETCH   4  5                     2.8957351       1.5323572
  14 STRETCH   5 15                     2.8821590       1.5251730
  15 STRETCH   5  6                     2.8957278       1.5323533
  16 STRETCH   5 16                     2.0623478       1.0913475
  17 STRETCH   6 18                     2.0609787       1.0906230
  18 STRETCH   6 17                     2.0561848       1.0880862
  19 STRETCH  10 21                     2.0534256       1.0866261
  20 STRETCH  10 20                     2.0534369       1.0866321
  21 STRETCH  10 19                     2.0560458       1.0880126
  22 STRETCH  15 24                     2.0534290       1.0866279
  23 STRETCH  15 23                     2.0560463       1.0880129
  24 STRETCH  15 22                     2.0534308       1.0866289
  25 BEND      1  2  3                  1.9326626     110.7334120
  26 BEND      1  2 10                  1.9392064     111.1083449
  27 BEND      1  6  5                  1.9579711     112.1834803
  28 BEND      1  2  9                  1.8793183     107.6770053
  29 BEND      1  6 17                  1.9171777     109.8461927
  30 BEND      1  6 18                  1.9090487     109.3804362
  31 BEND      2  3 12                  1.9017212     108.9605987
  32 BEND      2  1  6                  1.9579712     112.1834881
  33 BEND      2 10 20                  1.9389647     111.0944929
  34 BEND      2  1  7                  1.9016831     108.9584132
  35 BEND      2 10 21                  1.9389762     111.0951542
  36 BEND      2 10 19                  1.9247839     110.2819947
  37 BEND      2  1  8                  1.9132951     109.6237335
  38 BEND      2  3 11                  1.9132798     109.6228581
  39 BEND      2  3  4                  1.9579702     112.1834273
  40 BEND      3  2  9                  1.8793220     107.6772206
  41 BEND      3  2 10                  1.9392272     111.1095314
  42 BEND      3  4  5                  1.9579670     112.1832433
  43 BEND      3  4 13                  1.9090676     109.3815154
  44 BEND      3  4 14                  1.9171855     109.8466355
  45 BEND      4  5 15                  1.9392063     111.1083370
  46 BEND      4  3 12                  1.9090409     109.3799872
  47 BEND      4  3 11                  1.9171879     109.8467760
  48 BEND      4  5 16                  1.8793117     107.6766299
  49 BEND      4  5  6                  1.9326658     110.7335942
  50 BEND      5  4 13                  1.9016877     108.9586820
  51 BEND      5  4 14                  1.9132849     109.6231492
  52 BEND      5  6 17                  1.9133121     109.6247099
  53 BEND      5  6 18                  1.9017065     108.9597540
  54 BEND      5 15 22                  1.9389480     111.0935361
  55 BEND      5 15 24                  1.9389874     111.0957930
  56 BEND      5 15 23                  1.9247963     110.2827065
  57 BEND      6  1  7                  1.9090732     109.3818384
  58 BEND      6  5 16                  1.8793104     107.6765547
  59 BEND      6  1  8                  1.9171782     109.8462168
  60 BEND      6  5 15                  1.9392236     111.1093307
  61 BEND      7  1  8                  1.8620883     106.6898021
  62 BEND      9  2 10                  1.8915979     108.3805747
  63 BEND     11  3 12                  1.8620893     106.6898599
  64 BEND     13  4 14                  1.8620971     106.6903039
  65 BEND     15  5 16                  1.8916164     108.3816373
  66 BEND     17  6 18                  1.8620722     106.6888756
  67 BEND     19 10 20                  1.8855186     108.0322558
  68 BEND     19 10 21                  1.8855362     108.0332661
  69 BEND     20 10 21                  1.8882331     108.1877892
  70 BEND     22 15 23                  1.8855266     108.0327157
  71 BEND     22 15 24                  1.8882335     108.1878110
  72 BEND     23 15 24                  1.8855206     108.0323740
  73 TORSION   1  2  3 12              -1.1771627     -67.4464551
  74 TORSION   1  2 10 19               1.0800505      61.8823335
  75 TORSION   1  2  3 11               3.0741851     176.1378333
  76 TORSION   1  2 10 21              -3.1130057    -178.3620891
  77 TORSION   1  2  3  4               0.9393192      53.8190259
  78 TORSION   1  6  5 16               1.1110528      63.6586353
  79 TORSION   1  6  5 15              -3.1031753    -177.7988475
  80 TORSION   1  6  5  4              -0.9393121     -53.8186184
  81 TORSION   1  2 10 20              -1.0100491     -57.8715522
  82 TORSION   2  3  4  5              -0.9531179     -54.6096324
  83 TORSION   2  3  4 13               1.1591270      66.4130832
  84 TORSION   2  3  4 14              -3.0857648    -176.8013000
  85 TORSION   2  1  6 18              -1.1591467     -66.4142148
  86 TORSION   2  1  6  5               0.9531115      54.6092688
  87 TORSION   2  1  6 17               3.0857906     176.8027788
  88 TORSION   3  2  1  7               1.1771826      67.4475923
  89 TORSION   3  2  1  6              -0.9393146     -53.8187627
  90 TORSION   3  2 10 19              -1.0800867     -61.8844078
  91 TORSION   3  2  1  8              -3.0741796    -176.1375176
  92 TORSION   3  2 10 21               1.0100425      57.8711697
  93 TORSION   3  2 10 20               3.1129990     178.3617065
  94 TORSION   3  4  5 16              -1.1110491     -63.6584242
  95 TORSION   3  4  5  6               0.9393150      53.8187833
  96 TORSION   3  4  5 15               3.1031881     177.7995816
  97 TORSION   4  3  2  9              -1.1110587     -63.6589734
  98 TORSION   4  3  2 10               3.1031828     177.7992778
  99 TORSION   4  5  6 17              -3.0741885    -176.1380286
 100 TORSION   4  5  6 18               1.1771702      67.4468838
 101 TORSION   4  5 15 22               1.0100595      57.8721463
 102 TORSION   4  5 15 23              -1.0800475     -61.8821633
 103 TORSION   4  5 15 24               3.1130128     178.3624963
 104 TORSION   5  6  1  8               3.0857692     176.8015534
 105 TORSION   5  6  1  7              -1.1591341     -66.4134899
 106 TORSION   5  4  3 12               1.1591530      66.4145750
 107 TORSION   5  4  3 11              -3.0857622    -176.8011534
 108 TORSION   6  5 15 23               1.0800911      61.8846627
 109 TORSION   6  5 15 24              -1.0100339     -57.8706777
 110 TORSION   6  5 15 22              -3.1129872    -178.3610276
 111 TORSION   6  5  4 13              -1.1771755     -67.4471899
 112 TORSION   6  5  4 14               3.0741792     176.1374924
 113 TORSION   6  1  2  9               1.1110656      63.6593686
 114 TORSION   6  1  2 10              -3.1031901    -177.7996942
 115 TORSION   7  1  2 10              -0.9866929     -56.5333391
 116 TORSION   7  1  6 18               3.0117930     172.5630265
 117 TORSION   7  1  6 17               0.9735450      55.7800201
 118 TORSION   7  1  2  9              -3.0556226    -175.0742764
 119 TORSION   8  1  6 18               0.9735110      55.7780698
 120 TORSION   8  1  6 17              -1.0647370     -61.0049366
 121 TORSION   8  1  2  9              -1.0237994     -58.6593864
 122 TORSION   8  1  2 10               1.0451302      59.8815509
 123 TORSION   9  2  3 12               3.0556447     175.0755456
 124 TORSION   9  2  3 11               1.0238072      58.6598341
 125 TORSION   9  2 10 19               3.1415662     179.9984856
 126 TORSION   9  2 10 21              -1.0514900     -60.2459369
 127 TORSION   9  2 10 20               1.0514666      60.2445999
 128 TORSION  10  2  3 12               0.9867009      56.5337968
 129 TORSION  10  2  3 11              -1.0451366     -59.8819147
 130 TORSION  11  3  4 14               1.0647761      61.0071791
 131 TORSION  11  3  4 13              -0.9735174     -55.7784377
 132 TORSION  12  3  4 14              -0.9734939     -55.7770926
 133 TORSION  12  3  4 13              -3.0117874    -172.5627094
 134 TORSION  13  4  5 16               3.0556457     175.0756026
 135 TORSION  13  4  5 15               0.9866976      56.5336084
 136 TORSION  14  4  5 16               1.0238151      58.6602849
 137 TORSION  14  4  5 15              -1.0451330     -59.8817093
 138 TORSION  15  5  6 18              -0.9866930     -56.5333454
 139 TORSION  15  5  6 17               1.0451336      59.8817422
 140 TORSION  16  5 15 23              -3.1415666    -179.9985066
 141 TORSION  16  5 15 24               1.0514937      60.2461530
 142 TORSION  16  5 15 22              -1.0514596     -60.2441969
 143 TORSION  16  5  6 18              -3.0556502    -175.0758626
 144 TORSION  16  5  6 17              -1.0238237     -58.6607749

          INTERNUCLEAR DISTANCES (ANGS.)


 =====================================================
   GAMESS/COSab RESULTS
 =====================================================

   Dielectric Constant                  = INFTY
   Basic Grid Size                      =                 1082
   Number of Segments                   =                   92
   Number of Segments located on spheres=                  254
   Number of Segments of the cavity     =                  738
   Solvent Radius (rsolv)               = 1.40
   Outlying Charge Error Method         = double cavity

 =====================================================

  Total solvated Energy (a.u.)          =  -312.3548391258
  Total Energy corrected (a.u.)         =  -312.3547348399

  Outlying charge effect (a.u.)         =     0.0001042859
  Outlying charge effect (kcal/mol)     =     0.0654404367

  Dielectric Energy (a.u.)              =    -0.0012560981
  Dielectric energy corr. (a.u.)        =    -0.0011518122

  Sum of polarization charges           =     0.0310941496
  Sum of polarization charges(cor.)     =    -0.0310941496

  Total surface area of cavity (A**2)   =  167.14
  Total volume of cavity (A**3)         =  171.79

 =====================================================
 NPS=                   738
NR.  ATOM  (X, Y, Z)(a.u.)                  CHARGE(e)  AREA(A**2) SIGMA(e/A**2)
   1   1   0.002833  -5.131763   3.848996   0.001873   0.371649   0.005041
   2   1  -0.502164  -4.828034  -1.729778   0.000201   0.092912   0.002163
   3   1  -0.260417  -4.465995   4.413746   0.001501   0.278737   0.005385
   4   1  -2.200246  -4.783434   3.645041   0.001130   0.232280   0.004866
   5   1  -1.294873  -4.928497   3.958201   0.001920   0.325193   0.005903
   6   1   1.048240  -4.459112   4.043041   0.001573   0.418105   0.003762
   7   1   1.145424  -5.315110   3.095717   0.001137   0.325193   0.003496
   8   1  -0.239384  -5.047665  -1.529537   0.000107   0.046456   0.002304
   9   1   1.384264  -3.447428   4.358998   0.000518   0.185824   0.002787
  10   1  -1.893115  -4.224276   4.241552   0.000637   0.139368   0.004569
  11   2  -4.703299  -0.398481  -3.277464   0.000189   0.092912   0.002030
  12   2  -2.931052  -4.414713  -2.029520   0.000197   0.139368   0.001413
  13   2  -4.400222  -0.176051  -3.410662   0.000074   0.046456   0.001583
  14   3  -3.782210   4.938735   0.982881   0.001915   0.371649   0.005152
  15   3  -4.322172   4.808053   0.259795   0.001391   0.278737   0.004992
  16   3  -2.959784   1.845654  -3.925908   0.000305   0.139368   0.002191
  17   3  -5.211388   3.262849   1.389508   0.001087   0.232280   0.004682
  18   3  -4.782288   4.094197   1.137423   0.001963   0.325193   0.006037
  19   3  -3.173816   5.373590   0.140590   0.001245   0.325193   0.003830
  20   3  -2.824619   5.458710  -0.568204   0.000385   0.139368   0.002761
  21   3  -2.448879   5.278308   1.098972   0.001226   0.325193   0.003771
  22   3  -3.036764   5.327970  -1.090340   0.000466   0.185824   0.002510
  23   3  -5.367798   3.560804   0.583547   0.000641   0.139368   0.004597
  24   3  -3.315373   1.425492  -3.815559   0.000110   0.046456   0.002359
  25   4  -1.398467   4.539529  -3.761209   0.000873   0.278737   0.003131
  26   4   2.072929   4.856991  -3.660922   0.001449   0.325193   0.004456
  27   4   0.486789   4.830176   1.728185   0.000201   0.092912   0.002165
  28   4   1.731057   4.345828  -4.240178   0.001227   0.232280   0.005281
  29   4  -1.031902   3.852680  -4.393637   0.000968   0.278737   0.003475
  30   4  -0.462257   5.005355  -3.851633   0.001728   0.371649   0.004650
  31   4   0.961699   5.010644  -3.963068   0.001687   0.278737   0.006054
  32   4  -1.123070   5.398303  -2.983249   0.000910   0.278737   0.003265
  33   4   0.833419   4.965482   1.590611   0.000108   0.046456   0.002315
  34   4   0.195682   4.649598  -4.285896   0.001453   0.278737   0.005213
  35   5   2.912002   4.472410   1.922939   0.000178   0.092912   0.001919
  36   5   4.541686   0.207564   3.334743   0.000179   0.092912   0.001930
  37   5   4.724881   0.559675   3.295615   0.000088   0.046456   0.001896
  38   6   2.862099  -5.444840  -0.166529   0.001179   0.325193   0.003624
  39   6   5.133012  -3.450717  -1.349562   0.001318   0.278737   0.004729
  40   6   5.257019  -3.719290  -0.644227   0.001211   0.232280   0.005211
  41   6   3.338931  -5.319021   0.645148   0.000867   0.278737   0.003109
  42   6   3.344381  -1.392376   3.802787   0.000309   0.139368   0.002214
  43   6   3.545023  -5.099459  -0.838266   0.001416   0.278737   0.005082
  44   6   4.549931  -4.345532  -1.111699   0.001719   0.278737   0.006168
  45   6   2.392323  -5.233972  -1.221173   0.000925   0.278737   0.003317
  46   6   4.198095  -4.856426  -0.450978   0.001427   0.278737   0.005120
  47   6   2.988724  -1.810576   3.920146   0.000108   0.046456   0.002322
  48   7  -0.690384  -1.601530   5.641018  -0.001235   0.333671  -0.003702
  49   7   0.907551  -1.986281   5.147673  -0.000730   0.314043  -0.002323
  50   7  -0.773202  -3.261783   5.297191  -0.000333   0.353299  -0.000942
  51   7  -0.753450  -0.501926   5.177419  -0.001731   0.372926  -0.004642
  52   7   0.299370  -1.149245   5.344011  -0.001338   0.333671  -0.004009
  53   7  -0.126932  -2.377300   5.588395  -0.001009   0.314043  -0.003213
  54   7  -1.589523  -2.763880   5.321138  -0.001058   0.392554  -0.002695
  55   7  -1.553503  -1.391076   5.405430  -0.001502   0.314043  -0.004783
  56   7   0.423178  -3.003650   5.190197  -0.000118   0.274788  -0.000431
  57   8  -0.797142  -6.946542   0.928778  -0.001944   0.431809  -0.004501
  58   8   0.323899  -6.453240   0.051265  -0.000711   0.294415  -0.002415
  59   8  -1.299985  -5.996781  -0.773390  -0.000753   0.333671  -0.002257
  60   8  -1.496916  -6.189554   2.697941  -0.000554   0.372926  -0.001486
  61   8   0.506034  -6.354926   2.103799  -0.000529   0.353299  -0.001499
  62   8  -0.452387  -6.404837  -0.431117  -0.001134   0.412182  -0.002750
  63   8  -1.639478  -6.610100   0.221075  -0.001882   0.412182  -0.004566
  64   8  -1.754620  -6.657664   1.661249  -0.001779   0.412182  -0.004316
  65   8  -0.526550  -6.591769   2.352281  -0.001146   0.451437  -0.002539
  66   8   0.415387  -6.664701   1.110778  -0.001191   0.451437  -0.002637
  67   9  -2.753534  -2.587621  -4.487463  -0.001141   0.333671  -0.003420
  68   9  -3.154444  -0.785946  -4.352946  -0.000640   0.274788  -0.002330
  69   9  -4.057313  -1.604720  -4.092237  -0.000437   0.372926  -0.001171
  70   9  -3.398881  -3.670931  -3.444347  -0.000387   0.274788  -0.001408
  71   9  -1.689332  -3.607068  -3.577831  -0.000691   0.235532  -0.002936
  72   9  -3.105474  -1.628610  -4.569358  -0.000906   0.314043  -0.002884
  73   9  -3.793022  -2.788663  -4.012033  -0.000869   0.372926  -0.002330
  74   9  -2.583144  -3.435466  -3.979390  -0.000850   0.294415  -0.002887
  75   9  -1.641520  -2.727038  -4.270714  -0.001204   0.294415  -0.004091
  76   9  -1.980993  -1.784158  -4.587559  -0.001326   0.314043  -0.004221
  77   9  -2.505951  -4.010417  -3.162404  -0.000260   0.235532  -0.001105
  78  10  -7.613908   0.954683   1.799062   0.001175   0.232280   0.005060
  79  10  -8.258595  -2.975833   2.662764   0.001001   0.371649   0.002692
  80  10  -4.898531  -4.324350   3.621160   0.001841   0.371649   0.004955
  81  10  -6.408939  -2.716354  -2.591106   0.001462   0.418105   0.003497
  82  10  -7.349639  -2.918569  -2.013765   0.000786   0.185824   0.004229
  83  10  -5.759647  -3.778435  -2.294245   0.000901   0.278737   0.003234
  84  10  -6.363057  -3.948938  -1.995330   0.000713   0.185824   0.003838
  85  10  -5.044519  -3.568604   4.171390   0.001358   0.278737   0.004872
[...]
 479   6   3.894746  -0.911176   3.549156   0.000033   0.011216   0.002914
 480   5   3.989321  -0.201143   3.554103   0.000031   0.011216   0.002750
 481   5   3.092817   4.836555   1.084842   0.000184   0.168527   0.001093
 482  14   2.640560   5.271135   0.660012  -0.000016   0.168527  -0.000093
 483  22   3.703483   5.113939   0.723277  -0.000011   0.168527  -0.000066
 484  14   1.789596   5.415306   0.992553  -0.000117   0.159264  -0.000736
 485   5   2.535489   4.770540   1.545106   0.000484   0.224464   0.002156
 486   5   3.706493   4.153453   2.184074   0.000044   0.029446   0.001485
 487  15   4.149940   4.233174   1.973508   0.000102   0.029446   0.003456
 488  16   3.611538   4.034982   2.449045   0.000017   0.029446   0.000589
 489   5   4.907090   1.141525   3.221322   0.000052   0.029446   0.001765
 490  15   5.335229   1.259646   2.997531   0.000099   0.029446   0.003371
 491  16   4.704877   1.292130   3.393628   0.000014   0.029446   0.000473
 492   5   3.882700   4.499576   1.619337   0.000039   0.025720   0.001508
 493  15   4.328959   4.648243   1.458142   0.000009   0.025720   0.000353
 494  22   4.457643   4.848472   1.270658  -0.000024   0.025720  -0.000927
 495   5   5.376877   0.751004   2.910111   0.000051   0.025718   0.001964
 496  15   5.839546   0.858502   2.763093   0.000019   0.025718   0.000735
 497  24   6.101479   0.724499   2.690704  -0.000020   0.025718  -0.000777
 498  15   4.317336   4.523633   1.675889   0.000133   0.054727   0.002439
 499   5   3.706003   4.325296   1.991142   0.000131   0.054727   0.002389
 500  15   5.695629   1.102868   2.889142   0.000140   0.054772   0.002551
 501   5   5.066044   0.876253   3.143556   0.000132   0.054772   0.002403
 502  16   4.034753   0.780675   3.798453  -0.000167   0.109332  -0.001523
 503   5   4.405032   0.693500   3.483491  -0.000019   0.133573  -0.000145
 504  16   2.959535   4.084848   2.669197  -0.000172   0.109332  -0.001573
 505   5   2.782535   4.267179   2.245720  -0.000005   0.133574  -0.000041
 506   5   5.108641  -0.220483   2.826310   0.000180   0.168534   0.001068
 507  17   5.131367  -0.977563   2.811867   0.000032   0.168534   0.000191
 508  24   5.818218  -0.191213   2.550171  -0.000057   0.168534  -0.000340
 509  17   4.650018  -1.397783   3.263255  -0.000167   0.159264  -0.001046
 510   5   4.422853  -0.294693   3.358239   0.000489   0.224464   0.002179
 511  22   4.347547   5.131277   1.000565  -0.000132   0.107853  -0.001227
 512   5   3.529334   4.638095   1.606971   0.000359   0.152026   0.002364
 513  24   6.260133   0.456882   2.667536  -0.000131   0.107816  -0.001215
 514   5   5.194308   0.348500   3.031875   0.000328   0.151973   0.002161
 515   6   2.364873  -0.927475   3.988525   0.000251   0.164301   0.001526
 516   7   1.685155  -1.018270   4.303682   0.000043   0.164301   0.000263
 517  16   2.383349  -0.184736   4.075290   0.000113   0.164301   0.000685
 518   7   1.452939  -2.025535   4.599609  -0.000193   0.214844  -0.000898
 519   6   2.432909  -1.756943   4.095456   0.000687   0.302653   0.002269
 520   8   0.463180  -5.746212  -0.692136  -0.000106   0.212454  -0.000501
 521   8   1.083410  -5.971265   0.684633  -0.000988   0.436732  -0.002263
 522   6   1.659374  -5.408965  -0.575313   0.001194   0.580151   0.002057
 523   6   2.262282  -5.539267   1.047215   0.000830   0.299264   0.002775
 524   6   5.039954  -2.634271  -2.103675   0.000203   0.068286   0.002970
 525  15   5.517465  -1.969800  -2.252566   0.000276   0.068286   0.004046
 526  18   4.855276  -2.687653  -2.342678   0.000021   0.068286   0.000306
 527   6   6.075363  -2.292624  -0.393203   0.000269   0.065744   0.004092
 528  15   6.661193  -1.737197  -0.592588   0.000143   0.065744   0.002176
 529  24   6.842996  -1.657393  -0.361584  -0.000035   0.065744  -0.000531
 530  15   6.372766  -1.840213  -1.358793   0.001383   0.481727   0.002870
 531   6   5.486142  -2.700922  -1.407527   0.001409   0.481727   0.002924
 532  16   3.142595   0.237147   4.052303  -0.000183   0.205479  -0.000891
 533   6   3.357829  -0.835794   3.796532   0.000630   0.289632   0.002174
 534   6   5.870532  -2.694526  -0.046867   0.000157   0.088721   0.001775
 535  17   5.905370  -2.787958   0.243386  -0.000051   0.088721  -0.000571
 536  24   6.527696  -1.947514   0.005805   0.000217   0.088721   0.002450
 537  17   4.033200  -1.805525   3.632892  -0.000073   0.073892  -0.000992
 538  17   3.448548  -2.492716   3.821603  -0.000056   0.073892  -0.000756
 539   6   3.428313  -1.882358   3.730306  -0.000182   0.159911  -0.001140
 540  17   3.379308  -5.072771   1.846778  -0.000043   0.066919  -0.000649
 541  17   4.074161  -5.002400   1.025946  -0.000155   0.147445  -0.001052
 542  17   5.000400  -4.348932   0.379112  -0.000007   0.147445  -0.000047
 543  17   5.632945  -3.482815   0.272963  -0.000027   0.066919  -0.000410
 544   6   3.306503  -5.155804   1.267615  -0.000023   0.147793  -0.000153
 545   6   4.322281  -4.796253   0.272834   0.000235   0.147793   0.001589
 546   6   5.285065  -3.759915  -0.114104   0.000189   0.147793   0.001278
 547  18   4.556832  -3.361209  -2.354311   0.000042   0.079774   0.000521
 548  18   3.797467  -4.334664  -2.082084  -0.000156   0.182745  -0.000856
 549  18   2.358184  -4.815365  -2.073129  -0.000393   0.182745  -0.002150
 550   6   4.475699  -3.755316  -1.854389   0.000201   0.169949   0.001181
 551   6   3.158583  -4.808258  -1.618378   0.000106   0.169949   0.000623
 552   6   1.776091  -4.959362  -1.725212   0.000041   0.097461   0.000419
 553  24   7.038549  -1.697209  -0.206274   0.000047   0.027186   0.001728
 554   6   5.998848  -2.733795  -0.288198   0.000201   0.038609   0.005207
 555   7  -2.967008  -2.794683   4.479062   0.000223   0.086758   0.002565
 556  10  -3.925797  -2.903044   4.306816   0.000109   0.086758   0.001258
 557  19  -4.022096  -2.655152   4.459647  -0.000085   0.086758  -0.000984
 558  10  -3.835028  -3.270053   4.304932   0.000427   0.109671   0.003890
 559   7  -2.446951  -3.086638   4.673500   0.000102   0.077348   0.001324
 560   7  -0.354455   0.637763   4.122072   0.000228   0.339046   0.000672
 561  12  -0.754163   1.640578   3.776725   0.000200   0.339046   0.000588
 562  16   0.349203   1.479970   3.893244   0.000181   0.339046   0.000534
 563   7  -2.286728  -0.066750   4.310578  -0.000039   0.318351  -0.000122
 564  12  -2.685951   0.934847   3.965638  -0.000037   0.318351  -0.000116
 565  19  -3.343632   0.123842   4.229704  -0.000285   0.318351  -0.000895
 566  12  -1.934276   1.561752   4.142692  -0.000086   0.435916  -0.000197
 567   7  -1.148265   0.223833   4.609911  -0.000041   0.435916  -0.000093
 568  16   1.035171   1.346963   4.404510   0.000112   0.266258   0.000420
 569  16   1.936832   0.617022   4.494611   0.000062   0.532343   0.000117
 570   7   0.386902  -0.114690   4.797044  -0.000080   0.532343  -0.000150
 571   7   1.277704  -0.863211   4.786542   0.000258   0.266258   0.000970
 572  19  -4.033041  -2.393393   4.814601   0.000323   0.230496   0.001403
 573  19  -3.870756  -1.372805   5.007220  -0.000315   0.460838  -0.000683
 574  19  -3.674836  -0.363224   4.789505  -0.000094   0.230496  -0.000408
 575   7  -2.480897  -2.271033   5.042283   0.000069   0.460838   0.000150
 576   7  -2.257307  -1.003810   5.026617  -0.000271   0.460838  -0.000588
 577  20  -4.025752  -5.625605  -0.491492   0.000084   0.251384   0.000335
 578  20  -4.148956  -6.035171   0.556752  -0.000494   0.502656  -0.000983
 579  20  -4.193566  -5.786153   1.913695  -0.000117   0.502656  -0.000233
 580   8  -2.561953  -6.032664  -0.011584  -0.000226   0.502656  -0.000449
 581   8  -2.675450  -6.250341   1.346735  -0.000230   0.502656  -0.000458
 582   8  -2.674177  -5.816604   2.392493   0.000382   0.251384   0.001521
 583  10  -5.584641  -1.685472  -3.010209   0.000640   0.238242   0.002687
 584  10  -5.276832  -3.049327  -2.746761   0.000965   0.465873   0.002072
 585  10  -4.600327  -4.154812  -2.159824   0.000663   0.238242   0.002782
 586   9  -4.535473  -2.145390  -3.476347  -0.000390   0.343556  -0.001136
 587   9  -3.998986  -3.491270  -3.012856  -0.000405   0.343556  -0.001179
 588   9  -0.349213  -1.479977  -3.893239   0.000182   0.339046   0.000537
 589  13   0.354448  -0.637774  -4.122072   0.000200   0.339046   0.000589
 590  18   0.754161  -1.640575  -3.776720   0.000228   0.339046   0.000672
 591  13  -0.039830  -0.157840  -4.731572   0.000126   0.266261   0.000475
 592  13  -0.941498   0.572111  -4.821674   0.000044   0.532349   0.000083
 593   9  -1.382272  -1.074459  -4.469982  -0.000080   0.532349  -0.000150
 594   9  -2.273080  -0.325927  -4.459479   0.000265   0.266261   0.000994
 595  18   0.607450  -3.866283  -3.157778   0.000259   0.266258   0.000973
 596  18   0.811821  -2.892700  -3.761344  -0.000080   0.532342  -0.000150
 597   9  -0.874184  -3.283020  -3.576483   0.000093   0.532342   0.000174
 598   9  -0.671681  -2.258929  -4.090442   0.000128   0.266258   0.000480
 599  10  -5.686379   1.513942   2.785792   0.000085   0.086760   0.000978
 600  12  -4.935477   2.143885   2.778395   0.000223   0.086760   0.002572
 601  19  -5.636870   1.396029   3.064587  -0.000079   0.086760  -0.000915
 602  12  -4.787141   2.760901   2.614842   0.000109   0.077373   0.001415
 603  10  -5.829816   1.756321   2.615742   0.000391   0.109706   0.003561
 604  19  -6.272302   1.060229   3.279253  -0.000061   0.068959  -0.000878
 605  19  -7.086098   0.328312   3.455888  -0.000103   0.152866  -0.000672
 606  19  -7.468896  -0.903807   3.820566  -0.000204   0.152866  -0.001337
 607  19  -6.996060  -2.090063   4.229058  -0.000216   0.152866  -0.001414
 608  19  -5.861215  -2.744686   4.514084  -0.000102   0.152866  -0.000669
 609  19  -4.755138  -2.746048   4.589957  -0.000079   0.068959  -0.001145
 610  10  -6.740005   0.893480   2.946692   0.000129   0.151406   0.000852
 611  10  -7.608262  -0.295569   3.264599   0.000171   0.151406   0.001128
 612  10  -7.554881  -1.729375   3.722996  -0.000004   0.151406  -0.000024
 613  10  -6.601720  -2.820794   4.134169   0.000163   0.151406   0.001074
 614  10  -5.139098  -3.122892   4.329743   0.000123   0.151406   0.000811
 615  20  -4.856640  -5.140741   2.757433  -0.000036   0.067127  -0.000541
 616  20  -5.921569  -4.971339   2.859858  -0.000134   0.148122  -0.000901
 617  20  -7.096933  -4.768868   2.314788  -0.000193   0.148122  -0.001303
 618  20  -7.720330  -4.641282   1.168194  -0.000233   0.148122  -0.001572
 619  20  -7.548101  -4.638448  -0.131770  -0.000127   0.148122  -0.000857
 620  20  -6.647564  -4.761474  -1.077008  -0.000164   0.148122  -0.001106
 621  20  -5.370698  -4.962275  -1.298070  -0.000313   0.148122  -0.002114
 622  10  -5.161583  -4.759672   3.089425   0.000046   0.148026   0.000312
 623  10  -6.606666  -4.522685   2.926436   0.000085   0.148026   0.000575
 624  10  -7.670539  -4.327473   1.925906   0.000018   0.148026   0.000124
 625  10  -7.937381  -4.250337   0.478896   0.000095   0.148026   0.000644
 626  10  -7.302897  -4.321424  -0.849023   0.000149   0.148026   0.001008
 627  10  -6.015077  -4.512950  -1.538828   0.000022   0.148026   0.000148
 628  10  -4.835205  -4.703988  -1.510014  -0.000006   0.082010  -0.000072
 629  21  -6.594422  -0.924056  -2.665935  -0.000074   0.067127  -0.001108
 630  21  -7.280550  -1.709999  -2.374752  -0.000211   0.148122  -0.001423
 631  21  -8.167141  -2.190674  -1.536603  -0.000137   0.148122  -0.000922
 632  21  -8.805857  -1.941671  -0.418737  -0.000166   0.148122  -0.001122
 633  21  -8.947051  -1.060314   0.541919  -0.000232   0.148122  -0.001565
 634  21  -8.535537   0.108911   0.969884  -0.000115   0.148122  -0.000779
 635  21  -7.732157   1.109002   0.697886  -0.000196   0.148122  -0.001325
 636  10  -6.523438  -1.508410  -2.622189  -0.000096   0.148026  -0.000649
 637  10  -7.513832  -2.397446  -1.989941   0.000121   0.148026   0.000815
 638  10  -8.415971  -2.534467  -0.833060   0.000223   0.148026   0.001503
 639  10  -8.877247  -1.865919   0.396277   0.000023   0.148026   0.000152
 640  10  -8.717367  -0.653107   1.217574   0.000008   0.148026   0.000054
 641  10  -7.998820   0.629931   1.309820   0.000198   0.148026   0.001339
 642  10  -7.210673   1.417069   0.875462   0.000180   0.082010   0.002197
 643  21  -7.131745   1.790650  -0.241210   0.000224   0.251381   0.000891
 644  21  -7.178626   1.471329  -1.326350  -0.000480   0.502649  -0.000954
 645  21  -6.665615   0.686706  -2.339472  -0.000376   0.502649  -0.000748
 646  11  -6.193795   2.807382  -1.031937   0.000158   0.502649   0.000314
 647  11  -6.024062   2.244451  -2.280747  -0.000323   0.502649  -0.000643
 648  11  -5.450650   1.524539  -2.940005   0.000133   0.251381   0.000529
 649  16   0.952682   3.638559   3.318666   0.000287   0.266263   0.001077
 650  16   0.748298   2.664958   3.922246  -0.000085   0.532352  -0.000160
 651  12  -0.685918   3.510802   3.415591   0.000045   0.532352   0.000085
 652  12  -0.888435   2.486690   3.929558   0.000127   0.266263   0.000475
 653  19  -4.016687   0.494417   4.494138  -0.000101   0.230484  -0.000437
 654  19  -4.840641   1.060463   4.169250  -0.000297   0.460814  -0.000645
 655  19  -5.558030   1.432526   3.497101   0.000330   0.230484   0.001433
 656  12  -3.402459   1.869208   4.037196  -0.000264   0.460814  -0.000574
 657  12  -4.364560   2.454773   3.414848   0.000111   0.460814   0.000240
 658  13   2.967004   2.794669  -4.479074   0.000224   0.086759   0.002583
 659  15   3.925795   2.903032  -4.306830   0.000088   0.086759   0.001012
 660  23   4.022099   2.655141  -4.459661  -0.000079   0.086759  -0.000909
 661  15   3.845750   3.221278  -4.329853   0.000397   0.109676   0.003623
 662  13   2.435380   3.139194  -4.646664   0.000112   0.077352   0.001446
 663  13   2.286734   0.066749  -4.310586  -0.000037   0.318349  -0.000115
 664  18   2.685962  -0.934835  -3.965645  -0.000038   0.318349  -0.000120
 665  23   3.343645  -0.123841  -4.229713  -0.000288   0.318349  -0.000906
 666  18   1.713671  -1.642343  -4.121397  -0.000040   0.435918  -0.000093
 667  13   1.368873  -0.143241  -4.631205  -0.000086   0.435918  -0.000196
 668  23   3.674849   0.363220  -4.789514  -0.000126   0.230496  -0.000547
 669  23   3.870765   1.372798  -5.007232  -0.000283   0.460839  -0.000615
 670  23   4.033046   2.393383  -4.814616   0.000344   0.230496   0.001492
 671  13   2.257308   1.003801  -5.026626  -0.000264   0.460839  -0.000572
 672  13   2.480893   2.271021  -5.042294   0.000112   0.460839   0.000242
 673  22   4.188393   5.593364  -2.301704   0.000221   0.251382   0.000879
 674  22   4.189663   6.027091  -1.255946  -0.000480   0.502651  -0.000956
 675  22   4.076162   5.809409   0.102368  -0.000376   0.502651  -0.000747
 676  14   2.679349   6.009395  -2.004406   0.000155   0.502651   0.000309
 677  14   2.634736   6.258404  -0.647465  -0.000323   0.502651  -0.000643
 678  14   2.511527   5.848835   0.400774   0.000133   0.251382   0.000530
 679  16   4.612115   1.673847   3.541395   0.000014   0.168959   0.000081
 680  16   4.349390   2.875915   3.316690  -0.000448   0.343549  -0.001303
 681  16   3.748308   3.840874   2.795114   0.000018   0.168959   0.000105
 682  15   5.491173   2.207852   2.930657   0.001038   0.465865   0.002228
 683  15   4.873199   3.758160   2.396762   0.001070   0.465865   0.002296
 684  15   5.686382  -1.513946  -2.785801   0.000126   0.086759   0.001448
 685  18   4.935484  -2.143879  -2.778400   0.000223   0.086759   0.002572
 686  23   5.636876  -1.396031  -3.064596  -0.000078   0.086759  -0.000900
 687  18   4.768789  -2.738411  -2.667543   0.000104   0.077372   0.001348
 688  15   5.846844  -1.777178  -2.566854   0.000434   0.109705   0.003958
 689  22   4.957800   5.029921   1.252038  -0.000074   0.067124  -0.001108
 690  22   6.026281   4.856628   1.291148  -0.000198   0.148116  -0.001337
 691  22   7.172378   4.686212   0.677203  -0.000158   0.148116  -0.001065
 692  22   7.737020   4.622987  -0.504614  -0.000170   0.148116  -0.001145
 693  22   7.499519   4.691665  -1.792398  -0.000230   0.148116  -0.001555
 694  22   6.552702   4.865404  -2.682825  -0.000107   0.148116  -0.000720
 695  22   5.266625   5.076298  -2.827879  -0.000208   0.148116  -0.001403
 696  15   5.278557   4.631547   1.546693  -0.000106   0.148021  -0.000717
 697  15   6.713232   4.405959   1.298249   0.000062   0.148021   0.000420
 698  15   7.725043   4.267773   0.236152   0.000161   0.148021   0.001091
 699  15   7.918529   4.270998  -1.224485  -0.000001   0.148021  -0.000006
 700  15   7.218069   4.414375  -2.512780   0.000008   0.148021   0.000055
 701  15   5.897431   4.641864  -3.125212   0.000208   0.148021   0.001408
 702  15   4.720796   4.829356  -3.026520   0.000086   0.082007   0.001051
 703  23   4.755144   2.746043  -4.589972  -0.000041   0.068960  -0.000599
 704  23   5.861230   2.744693  -4.514094  -0.000140   0.152868  -0.000915
 705  23   6.996086   2.090074  -4.229059  -0.000193   0.152868  -0.001261
 706  23   7.468926   0.903810  -3.820563  -0.000224   0.152868  -0.001466
 707  23   7.086119  -0.328319  -3.455887  -0.000069   0.152868  -0.000453
 708  23   6.272310  -1.060236  -3.279261  -0.000040   0.068960  -0.000584
 709  15   5.139102   3.122892  -4.329755   0.000094   0.151407   0.000619
 710  15   6.601736   2.820806  -4.134173   0.000125   0.151407   0.000823
 711  15   7.554907   1.729382  -3.722992   0.000008   0.151407   0.000051
 712  15   7.608286   0.295566  -3.264594   0.000159   0.151407   0.001052
 713  15   6.740013  -0.893489  -2.946695   0.000144   0.151407   0.000953
 714  24   7.449233  -1.363339  -0.517655  -0.000042   0.067128  -0.000622
 715  24   8.165552  -0.658170  -0.921285  -0.000072   0.148125  -0.000485
 716  24   8.805053   0.483724  -0.839186  -0.000198   0.148125  -0.001339
 717  24   8.947352   1.563109  -0.108225  -0.000238   0.148125  -0.001604
 718  24   8.536829   2.158091   0.985892  -0.000125   0.148125  -0.000841
 719  24   7.733943   2.036113   2.015513  -0.000170   0.148125  -0.001144
 720  24   6.852514   1.244852   2.578197  -0.000297   0.148125  -0.002006
 721  15   7.511848  -1.136504  -1.058999   0.000178   0.148029   0.001202
 722  15   8.414544  -0.012769  -1.364633   0.000192   0.148029   0.001297
 723  15   8.876938   1.301002  -0.883750   0.000007   0.148029   0.000047
 724  15   8.718297   2.291304   0.195689   0.000092   0.148029   0.000618
 725  15   8.000629   2.571061   1.451770   0.000210   0.148029   0.001419
 726  15   7.004444   2.030928   2.393535   0.000009   0.148029   0.000059
 727  15   6.243491   1.171004   2.726620  -0.000000   0.082012  -0.000006
 728  24   6.429418  -0.404431   2.568056   0.000056   0.251379   0.000225
 729  24   7.002811  -1.124333   1.908811  -0.000524   0.502646  -0.001042
 730  24   7.172542  -1.687266   0.660030  -0.000148   0.502646  -0.000295
 731  17   5.686864  -1.806897   2.711353  -0.000228   0.502646  -0.000453
 732  17   6.199859  -2.591513   1.698254  -0.000230   0.502646  -0.000458
 733  17   6.152984  -2.910839   0.613139   0.000387   0.251379   0.001541
 734  23   5.558036  -1.432528  -3.497109   0.000325   0.230482   0.001412
 735  23   4.840650  -1.060464  -4.169256  -0.000275   0.460811  -0.000597
 736  23   4.016701  -0.494416  -4.494146  -0.000103   0.230482  -0.000447
 737  18   4.364564  -2.454760  -3.414847   0.000070   0.460811   0.000152
 738  18   3.402468  -1.869193  -4.037194  -0.000270   0.460811  -0.000587
 =====================================================

              5551409  WORDS OF DYNAMIC MEMORY USED
 EXECUTION OF GAMESS TERMINATED NORMALLY Tue Nov 22 19:45:54 2016
 DDI: 263640 bytes (0.3 MB / 0 MWords) used by master data server.

 ----------------------------------------
 CPU timing information for all processes
 ========================================
 0: 1010.216 + 0.344 = 1010.560
 ----------------------------------------
 ddikick.x: exited gracefully.
