----- GAMESS execution script -----

          ******************************************************
          *         GAMESS VERSION =  5 DEC 2014 (R1)          *
          *             FROM IOWA STATE UNIVERSITY             *
          * M.W.SCHMIDT, K.K.BALDRIDGE, J.A.BOATZ, S.T.ELBERT, *
          *   M.S.GORDON, J.H.JENSEN, S.KOSEKI, N.MATSUNAGA,   *
          *          K.A.NGUYEN, S.J.SU, T.L.WINDUS,           *
          *       TOGETHER WITH M.DUPUIS, J.A.MONTGOMERY       *
          *         J.COMPUT.CHEM.  14, 1347-1363(1993)        *
          **************** 64 BIT LINUX VERSION ****************

 EXECUTION OF GAMESS BEGUN Tue Nov 22 19:25:22 2016

            ECHO OF THE FIRST FEW INPUT CARDS -
 INPUT CARD>! SELECT RESTRICTED HARTREE-FOCK AS DEFAULT                                     
 INPUT CARD>$contrl scftyp=rhf $end                                                         
 INPUT CARD>                                                                                
 INPUT CARD>! THEORY: HF OR DFT                                                             
 INPUT CARD> $contrl mplevl=0 $end                                                          
 INPUT CARD>                                                                                
 INPUT CARD> $system timlim=10000 mwords=20 $end                                            
 INPUT CARD> $SCF DIRSCF=.TRUE. $end                                                        
 INPUT CARD>                                                                                
 INPUT CARD>                                                                                
 INPUT CARD>! BASIS SETS                                                                    
 INPUT CARD>! 6-311G(d,p)                                                                   
 INPUT CARD> $BASIS GBASIS=N311 NGAUSS=6 NDFUNC=1 NPFUNC=1 $END                             
 INPUT CARD>                                                                                
 INPUT CARD>! One of the following                                                          
 INPUT CARD> $guess guess=HUCKEL $end                                                       
 INPUT CARD>                                                                                
 INPUT CARD> $statpt projct=.FALSE. $end                                                    
 INPUT CARD> $STATPT IFREEZ(1)=1,2,3 $END                                                   
 INPUT CARD>                                                                                
 INPUT CARD>! Optimize the geometry with COSMO effects                                      
 INPUT CARD> $statpt opttol=0.0005 nstep=50 $end                                            
 INPUT CARD> $contrl nzvar=1 $end                                                           
 INPUT CARD> $zmat dlc=.t. auto=.t. $end                                                    
 INPUT CARD> $contrl runtyp=OPTIMIZE maxit=200 $end                                         
 INPUT CARD>                                                                                
 INPUT CARD>! Run COSMO on perfect conductor                                                
 INPUT CARD> $COSGMS PRFCND=.TRUE. $end                                                     
 INPUT CARD>                                                                                
 INPUT CARD>! Specifying RSOLV                                                              
 INPUT CARD> $COSGMS COSRAD = 1.4 $end                                                      
 INPUT CARD>                                                                                
 INPUT CARD>! available memory                                                              
 INPUT CARD> $SYSTEM MWORDS=40 $END                                                         
 INPUT CARD>                                                                                
 INPUT CARD> $DATA                                                                          
 INPUT CARD>1,4-Cyclohexadiene, ID: C628411                                                 
 INPUT CARD>C1                                                                              
 INPUT CARD>C      6.0      1.7363000000    3.4486000000    0.8997000000                    
 INPUT CARD>C      6.0      1.0957000000    2.1081000000    0.8772000000                    
 INPUT CARD>C      6.0      1.7900000000    0.9699000000    0.8696000000                    
 INPUT CARD>C      6.0      3.2751000000    0.9258000000    0.8818000000                    
 INPUT CARD>C      6.0      3.9157000000    2.2666000000    0.8848000000                    
 INPUT CARD>C      6.0      3.2216000000    3.4048000000    0.8932000000                    
 INPUT CARD>H      1.0      1.3927000000    4.0012000000    1.7981000000                    
 INPUT CARD>H      1.0      1.3848000000    4.0356000000    0.0265000000                    
 INPUT CARD>H      1.0      0.0000000000    2.0993000000    0.8678000000                    
 INPUT CARD>H      1.0      1.2806000000    0.0000000000    0.8538000000                    
 INPUT CARD>H      1.0      3.6302000000    0.3539000000    0.0000000000                    
 INPUT CARD>H      1.0      3.6153000000    0.3579000000    1.7721000000                    
   40000000 WORDS OF MEMORY AVAILABLE

     BASIS OPTIONS
     -------------
     GBASIS=N311         IGAUSS=       6      POLAR=POPN311 
     NDFUNC=       1     NFFUNC=       0     DIFFSP=       F
     NPFUNC=       1      DIFFS=       F     BASNAM=        


     RUN TITLE
     ---------
 1,4-Cyclohexadiene, ID: C628411                                                 

 THE POINT GROUP OF THE MOLECULE IS C1      
 THE ORDER OF THE PRINCIPAL AXIS IS     0

 ATOM      ATOMIC                      COORDINATES (BOHR)
           CHARGE         X                   Y                   Z
 C           6.0     3.2811312325        6.5169090413        1.7001864712
 C           6.0     2.0705727647        3.9837313547        1.6576676364
 C           6.0     3.3826095180        1.8328452355        1.6433057189
 C           6.0     6.1890415824        1.7495083194        1.6663603760
 C           6.0     7.3996000501        4.2832529238        1.6720295539
 C           6.0     6.0879412420        6.4341390430        1.6879032522
 H           1.0     2.6318213831        7.5611716221        3.3979162985
 H           1.0     2.6168925478        7.6261781961        0.0500777387
 H           1.0     0.0000000000        3.9671017660        1.6399042121
 H           1.0     2.4199830999        0.0000000000        1.6134480483
 H           1.0     6.8600832806        0.6687740271        0.0000000000
 H           1.0     6.8319263634        0.6763329310        3.3487834228
 H           1.0     9.4699838423        4.3004494303        1.6633368144
 H           1.0     7.0503786876        8.2671732511        1.6928165398

          INTERNUCLEAR DISTANCES (ANGS.)




     $CONTRL OPTIONS
     ---------------
 SCFTYP=RHF          RUNTYP=OPTIMIZE     EXETYP=RUN     
 MPLEVL=       0     CITYP =NONE         CCTYP =NONE         VBTYP =NONE    
 DFTTYP=NONE         TDDFT =NONE    
 MULT  =       1     ICHARG=       0     NZVAR =       1     COORD =UNIQUE  
 PP    =NONE         RELWFN=NONE         LOCAL =NONE         NUMGRD=       F
 ISPHER=      -1     NOSYM =       0     MAXIT =     200     UNITS =ANGS    
 PLTORB=       F     MOLPLT=       F     AIMPAC=       F     FRIEND=        
 NPRINT=       7     IREST =       0     GEOM  =INPUT   
 NORMF =       0     NORMP =       0     ITOL  =      20     ICUT  =       9
 INTTYP=BEST         GRDTYP=BEST         QMTTOL= 1.0E-06

     $SYSTEM OPTIONS
     ---------------
  REPLICATED MEMORY=    40000000 WORDS (ON EVERY NODE).
 DISTRIBUTED MEMDDI=           0 MILLION WORDS IN AGGREGATE,
 MEMDDI DISTRIBUTED OVER   1 PROCESSORS IS           0 WORDS/PROCESSOR.
 TOTAL MEMORY REQUESTED ON EACH PROCESSOR=    40000000 WORDS.
 TIMLIM=       10000.00 MINUTES, OR       6.9 DAYS.
 PARALL= F  BALTYP=  DLB     KDIAG=    0  COREFL= F
 MXSEQ2=     300 MXSEQ3=     150  mem10=         0

     $COSGMS OPTIONS
     ---------------
     EPSI  =   INFTY     NSPA  =      92     COSRAD=    1.40
     DISEX =   10.00     OUTCHG=DBLCAV       COSBUG=       F
     COSWRT=       F     DCOSMO=       F

     SYMMETRY COORDINATES WILL NOT BE USED FOR 
     THE COSMO CALCULATION, EVEN IF SPECIFIED:
         -- SWITCHING TO C1 POINT GROUP --


     DEFINITION OF CAVITY
     ---------------------------
     ATOM         COORDINATES           RADIUS 
     1    3.2811    6.5169    1.7002    2.0000
     2    2.0706    3.9837    1.6577    2.0000
     3    3.3826    1.8328    1.6433    2.0000
     4    6.1890    1.7495    1.6664    2.0000
     5    7.3996    4.2833    1.6720    2.0000
     6    6.0879    6.4341    1.6879    2.0000
     7    2.6318    7.5612    3.3979    1.3000
     8    2.6169    7.6262    0.0501    1.3000
     9    0.0000    3.9671    1.6399    1.3000
    10    2.4200    0.0000    1.6134    1.3000
    11    6.8601    0.6688    0.0000    1.3000
    12    6.8319    0.6763    3.3488    1.3000
    13    9.4700    4.3004    1.6633    1.3000
    14    7.0504    8.2672    1.6928    1.3000

          ----------------
          PROPERTIES INPUT
          ----------------

     MOMENTS            FIELD           POTENTIAL          DENSITY
 IEMOM =       1   IEFLD =       0   IEPOT =       0   IEDEN =       0
 WHERE =COMASS     WHERE =NUCLEI     WHERE =NUCLEI     WHERE =NUCLEI  
 OUTPUT=BOTH       OUTPUT=BOTH       OUTPUT=BOTH       OUTPUT=BOTH    
 IEMINT=       0   IEFINT=       0                     IEDINT=       0
                                                       MORB  =       0
          EXTRAPOLATION IN EFFECT
          SOSCF IN EFFECT
 ORBITAL PRINTING OPTION: NPREO=     1   162     2     1

     -------------------------------
     INTEGRAL TRANSFORMATION OPTIONS
     -------------------------------
     NWORD  =            0
     CUTOFF = 1.0E-09     MPTRAN =       0
     DIRTRF =       T     AOINTS =DUP     

          ----------------------
          INTEGRAL INPUT OPTIONS
          ----------------------
 NOPK  =       1 NORDER=       0 SCHWRZ=       T


 -----------------------------------------------
  STATISTICS ON AUTOMATIC COORDINATE GENERATION 
 -----------------------------------------------
  NUMBER OF USER SPECIFIED BONDS                             0
  NUMBER OF BONDS                                           14
  NUMBER OF ANGLES                                          24
  NUMBER OF TORSIONS                                        32
  NUMBER OF EXTRA COORD.                                     0
  NUMBER OF EXTRA COORD. FOR CONSTRAINTS                     0
  NUMBER OF CONSTRAINED COORD.                               0

  TOTAL NUMBER OF PRIMITIVES                                70
 -----------------------------------------------

   --- ENCODED Z MATRIX ---
 COORD  TYPE   I   J   K   L   M   N
    1      1    1   2
    2      1    1   8
    3      1    1   7
    4      1    1   6
    5      1    2   3
    6      1    2   9
    7      1    3   4
    8      1    3  10
    9      1    4  12
   10      1    4  11
   11      1    4   5
   12      1    5  13
   13      1    5   6
   14      1    6  14
   15      2    1   6   5
   16      2    1   2   3
   17      2    1   6  14
   18      2    1   2   9
   19      2    2   1   6
   20      2    2   1   7
   21      2    2   3   4
   22      2    2   1   8
   23      2    2   3  10
   24      2    3   4  12
   25      2    3   2   9
   26      2    3   4   5
   27      2    3   4  11
   28      2    4   3  10
   29      2    4   5   6
   30      2    4   5  13
   31      2    5   6  14
   32      2    5   4  11
   33      2    5   4  12
   34      2    6   1   8
   35      2    6   5  13
   36      2    6   1   7
   37      2    7   1   8
   38      2   11   4  12
   39      3    1   2   3  10
   40      3    1   6   5  13
   41      3    1   2   3   4
   42      3    1   6   5   4
   43      3    2   1   6   5
   44      3    2   3   4  11
   45      3    2   3   4  12
   46      3    2   1   6  14
   47      3    2   3   4   5
   48      3    3   2   1   7
   49      3    3   2   1   8
   50      3    3   4   5   6
   51      3    3   4   5  13
   52      3    3   2   1   6
   53      3    4   5   6  14
   54      3    4   3   2   9
   55      3    5   6   1   7
   56      3    5   4   3  10
   57      3    5   6   1   8
   58      3    6   5   4  11
   59      3    6   5   4  12
   60      3    6   1   2   9
   61      3    7   1   2   9
   62      3    7   1   6  14
   63      3    8   1   2   9
   64      3    8   1   6  14
   65      3    9   2   3  10
   66      3   10   3   4  11
   67      3   10   3   4  12
   68      3   11   4   5  13
   69      3   12   4   5  13
   70      3   13   5   6  14

          INDEP./SYM. INTERNAL COORDINATES
          --------------------------------
 CRD  1=   0.1230 (  2)  0.1212 (  3)  0.3282 (  5)  0.1212 (  9)  0.1230 ( 10)
           0.3282 ( 13)  0.1882 ( 15)  0.1882 ( 16) -0.1280 ( 17) -0.1280 ( 18)
          -0.3763 ( 19)  0.1363 ( 20)  0.1881 ( 21)  0.1348 ( 22)  0.1362 ( 24)
          -0.3763 ( 26)  0.1350 ( 27) -0.1279 ( 28)  0.1881 ( 29) -0.1279 ( 30)
           0.1348 ( 32)  0.1365 ( 33)  0.1350 ( 34)  0.1362 ( 36) -0.1524 ( 37)
          -0.1524 ( 38)
 CRD  2=   0.3458 (  1)  0.3458 (  4) -0.3457 (  7) -0.3457 ( 11)  0.2393 ( 17)
           0.2394 ( 18) -0.1655 ( 19)  0.1926 ( 23) -0.1928 ( 25)  0.1654 ( 26)
          -0.2393 ( 28) -0.2393 ( 30) -0.1927 ( 31)  0.1927 ( 35)
 CRD  3=   0.2217 (  1) -0.2217 (  4)  0.3955 (  5)  0.1551 (  6)  0.2221 (  7)
           0.1550 (  8) -0.2222 ( 11) -0.1551 ( 12) -0.3954 ( 13) -0.1552 ( 14)
           0.1355 ( 15) -0.1356 ( 16)  0.1113 ( 20) -0.1354 ( 21)  0.1124 ( 22)
           0.1916 ( 23)  0.1116 ( 24)  0.1918 ( 25)  0.1124 ( 27)  0.1355 ( 29)
          -0.1917 ( 31) -0.1124 ( 32) -0.1117 ( 33) -0.1125 ( 34) -0.1915 ( 35)
          -0.1112 ( 36)
 CRD  4=  -0.3342 (  1)  0.3342 (  4)  0.1161 (  6)  0.3339 (  7) -0.1163 (  8)
          -0.3340 ( 11)  0.1163 ( 12) -0.1161 ( 14)  0.1479 ( 15) -0.1479 ( 16)
          -0.1288 ( 20)  0.1481 ( 21) -0.1247 ( 22) -0.2162 ( 23)  0.1287 ( 24)
           0.2160 ( 25)  0.1246 ( 27) -0.1481 ( 29) -0.2159 ( 31) -0.1246 ( 32)
          -0.1287 ( 33)  0.1248 ( 34)  0.2163 ( 35)  0.1288 ( 36)
 CRD  5=  -0.3282 (  1) -0.3281 (  4) -0.1250 (  6) -0.3285 (  7) -0.1249 (  8)
          -0.3281 ( 11) -0.1250 ( 12) -0.1248 ( 14) -0.2479 ( 17) -0.2482 ( 18)
           0.2437 ( 23)  0.2436 ( 25) -0.2481 ( 28) -0.2480 ( 30)  0.2435 ( 31)
           0.2435 ( 35)
 CRD  6=  -0.1979 (  1) -0.1979 (  4) -0.3546 (  5) -0.2141 (  6) -0.1976 (  7)
          -0.2141 (  8) -0.1980 ( 11) -0.2142 ( 12) -0.3545 ( 13) -0.2141 ( 14)
           0.1263 ( 17)  0.1262 ( 18) -0.1931 ( 19) -0.2230 ( 23) -0.2228 ( 25)
          -0.1931 ( 26)  0.1265 ( 28)  0.1260 ( 30) -0.2227 ( 31) -0.2227 ( 35)
 CRD  7=  -0.2609 ( 20)  0.2690 ( 22)  0.2629 ( 24) -0.2673 ( 27)  0.2692 ( 32)
          -0.2609 ( 33) -0.2671 ( 34)  0.2629 ( 36) -0.1903 ( 39) -0.1904 ( 40)
          -0.2497 ( 41) -0.2497 ( 42)  0.1255 ( 43)  0.1255 ( 47)  0.1256 ( 50)
           0.1256 ( 52) -0.1903 ( 53) -0.1904 ( 54) -0.1310 ( 65) -0.1310 ( 70)
 CRD  8=   0.2071 (  1) -0.2072 (  4) -0.1530 (  5)  0.2071 (  7) -0.2071 ( 11)
           0.1534 ( 13) -0.2778 ( 17)  0.2775 ( 18)  0.1229 ( 20)  0.1236 ( 22)
          -0.2619 ( 23)  0.1230 ( 24) -0.2619 ( 25)  0.1234 ( 27)  0.2773 ( 28)
          -0.2776 ( 30)  0.2623 ( 31) -0.1235 ( 32) -0.1230 ( 33) -0.1236 ( 34)
           0.2623 ( 35) -0.1230 ( 36)
 CRD  9=  -0.2296 (  6)  0.2296 (  8) -0.2296 ( 12)  0.2297 ( 14) -0.2949 ( 15)
           0.2949 ( 16)  0.2808 ( 17) -0.2807 ( 18) -0.1021 ( 20) -0.2949 ( 21)
           0.1023 ( 24)  0.2810 ( 28)  0.2949 ( 29) -0.2809 ( 30) -0.1023 ( 33)
           0.1022 ( 36)
 CRD 10=   0.1109 (  2)  0.1135 (  3) -0.3121 (  6)  0.3121 (  8) -0.1132 (  9)
          -0.1111 ( 10)  0.3122 ( 12) -0.3122 ( 14)  0.2423 ( 15)  0.2422 ( 16)
          -0.1603 ( 17) -0.1602 ( 18) -0.2238 ( 19) -0.2422 ( 21)  0.2238 ( 26)
           0.1602 ( 28) -0.2423 ( 29)  0.1603 ( 30) -0.1167 ( 37)  0.1167 ( 38)
 CRD 11=  -0.2677 (  2)  0.2692 (  3)  0.2693 (  9) -0.2676 ( 10) -0.2494 ( 43)
          -0.2790 ( 46) -0.2494 ( 47)  0.2494 ( 50)  0.2790 ( 51)  0.2494 ( 52)
          -0.2791 ( 56)  0.2791 ( 60)
 CRD 12=  -0.2876 ( 20)  0.2867 ( 22) -0.2873 ( 24)  0.2869 ( 27) -0.2864 ( 32)
           0.2873 ( 33) -0.2868 ( 34)  0.2871 ( 36)  0.1578 ( 44)  0.1583 ( 45)
          -0.1583 ( 48) -0.1578 ( 49) -0.1584 ( 55) -0.1578 ( 57)  0.1579 ( 58)
           0.1583 ( 59) -0.1298 ( 61) -0.1298 ( 62) -0.1294 ( 63) -0.1292 ( 64)
           0.1293 ( 66)  0.1298 ( 67)  0.1293 ( 68)  0.1297 ( 69)
 CRD 13=   0.1162 (  2) -0.1117 (  3) -0.1121 (  9)  0.1163 ( 10) -0.1756 ( 39)
           0.1756 ( 40) -0.1033 ( 43) -0.2771 ( 44) -0.2764 ( 45) -0.1032 ( 47)
           0.2762 ( 48)  0.2770 ( 49)  0.1032 ( 50)  0.1033 ( 52) -0.1755 ( 53)
           0.1756 ( 54) -0.2762 ( 55) -0.2770 ( 57)  0.2770 ( 58)  0.2762 ( 59)
           0.1085 ( 61) -0.1086 ( 62)  0.1094 ( 63) -0.1093 ( 64) -0.1095 ( 66)
          -0.1087 ( 67)  0.1094 ( 68)  0.1086 ( 69)
 CRD 14=  -0.4026 (  2)  0.4040 (  3) -0.4038 (  9)  0.4025 ( 10) -0.1139 ( 39)
           0.1139 ( 40) -0.1054 ( 46) -0.1053 ( 51)  0.1140 ( 53) -0.1141 ( 54)
           0.1053 ( 56)  0.1054 ( 60) -0.1380 ( 65)  0.1379 ( 70)
 CRD 15=  -0.3485 (  2) -0.3473 (  3)  0.5001 (  9)  0.5010 ( 10) -0.1656 ( 37)
           0.2395 ( 38)  0.1076 ( 44) -0.1080 ( 45) -0.1076 ( 58)  0.1080 ( 59)
           0.1075 ( 66) -0.1081 ( 67) -0.1075 ( 68)  0.1081 ( 69)
 CRD 16=  -0.4996 (  2) -0.5001 (  3) -0.3472 (  9) -0.3463 ( 10) -0.2412 ( 37)
          -0.1682 ( 38) -0.1077 ( 48)  0.1086 ( 49)  0.1077 ( 55) -0.1086 ( 57)
          -0.1080 ( 61)  0.1079 ( 62)  0.1083 ( 63) -0.1084 ( 64)
 CRD 17=  -0.1205 ( 20)  0.1224 ( 22)  0.1206 ( 24) -0.1224 ( 27)  0.1224 ( 32)
          -0.1206 ( 33) -0.1224 ( 34)  0.1206 ( 36)  0.2048 ( 39)  0.2048 ( 40)
           0.2014 ( 41)  0.2014 ( 42) -0.1013 ( 43) -0.1687 ( 44) -0.1678 ( 45)
          -0.1045 ( 46) -0.1013 ( 47) -0.1678 ( 48) -0.1687 ( 49) -0.1013 ( 50)
          -0.1045 ( 51) -0.1013 ( 52)  0.2048 ( 53)  0.2049 ( 54) -0.1677 ( 55)
          -0.1045 ( 56) -0.1686 ( 57) -0.1687 ( 58) -0.1677 ( 59) -0.1046 ( 60)
          -0.1710 ( 61) -0.1709 ( 62) -0.1720 ( 63) -0.1718 ( 64)  0.2083 ( 65)
          -0.1719 ( 66) -0.1710 ( 67) -0.1720 ( 68) -0.1710 ( 69)  0.2082 ( 70)
 CRD 18=  -0.1686 ( 39)  0.1687 ( 40) -0.1305 ( 41)  0.1306 ( 42) -0.1196 ( 43)
           0.1769 ( 44)  0.1741 ( 45) -0.1559 ( 46)  0.1195 ( 47)  0.1739 ( 48)
           0.1771 ( 49) -0.1196 ( 50) -0.1560 ( 51)  0.1196 ( 52)  0.1687 ( 53)
          -0.1686 ( 54) -0.1741 ( 55)  0.1559 ( 56) -0.1770 ( 57) -0.1771 ( 58)
          -0.1740 ( 59)  0.1560 ( 60)  0.2103 ( 61) -0.2105 ( 62)  0.2135 ( 63)
          -0.2133 ( 64) -0.2067 ( 65)  0.2133 ( 66)  0.2105 ( 67) -0.2135 ( 68)
          -0.2104 ( 69)  0.2068 ( 70)
 CRD 19=  -0.4244 (  6) -0.4248 (  8)  0.4245 ( 12)  0.4247 ( 14)  0.1014 ( 17)
          -0.1016 ( 18)  0.1148 ( 20)  0.1141 ( 22)  0.1006 ( 23)  0.1148 ( 24)
           0.1009 ( 25)  0.1140 ( 27) -0.1013 ( 28)  0.1015 ( 30) -0.1007 ( 31)
          -0.1141 ( 32) -0.1148 ( 33) -0.1140 ( 34) -0.1009 ( 35) -0.1148 ( 36)
 CRD 20=  -0.1363 (  1) -0.1006 (  2) -0.1362 (  4) -0.2690 (  6)  0.1363 (  7)
           0.2685 (  8)  0.1003 ( 10)  0.1361 ( 11)  0.2687 ( 12) -0.2683 ( 14)
           0.2355 ( 17)  0.2355 ( 18)  0.1134 ( 19)  0.2006 ( 23) -0.2005 ( 25)
          -0.1133 ( 26) -0.2357 ( 28) -0.2354 ( 30) -0.2005 ( 31)  0.2004 ( 35)
           0.1832 ( 37) -0.1832 ( 38)
 CRD 21=  -0.1994 (  1)  0.1993 (  4) -0.3185 (  6)  0.1993 (  7)  0.3185 (  8)
          -0.1995 ( 11) -0.3186 ( 12)  0.3188 ( 14) -0.2579 ( 17)  0.2577 ( 18)
           0.1781 ( 23) -0.1781 ( 25) -0.2578 ( 28)  0.2580 ( 30)  0.1782 ( 31)
          -0.1783 ( 35)
 CRD 22=   0.3633 (  2) -0.3669 (  3) -0.3668 (  9)  0.3635 ( 10)  0.1776 ( 39)
          -0.1775 ( 40) -0.2092 ( 46)  0.2092 ( 51)  0.1776 ( 53) -0.1776 ( 54)
          -0.2093 ( 56)  0.2092 ( 60)  0.1308 ( 61) -0.1309 ( 62)  0.1271 ( 63)
          -0.1270 ( 64) -0.1271 ( 66) -0.1308 ( 67)  0.1271 ( 68)  0.1307 ( 69)
 CRD 23=   0.2503 (  1)  0.2504 (  4) -0.1707 (  5) -0.3516 (  6)  0.2504 (  7)
          -0.3515 (  8)  0.2503 ( 11) -0.3517 ( 12) -0.1707 ( 13) -0.3516 ( 14)
           0.1254 ( 23)  0.1254 ( 25)  0.1254 ( 31)  0.1253 ( 35) -0.1007 ( 37)
          -0.1006 ( 38)
 CRD 24=   0.2342 (  6) -0.2343 (  8)  0.2341 ( 12) -0.2342 ( 14) -0.1170 ( 15)
           0.1171 ( 16) -0.1264 ( 17)  0.1264 ( 18) -0.1785 ( 20) -0.1171 ( 21)
          -0.1781 ( 22)  0.2435 ( 23)  0.1785 ( 24) -0.2435 ( 25)  0.1781 ( 27)
          -0.1264 ( 28)  0.1170 ( 29)  0.1264 ( 30)  0.2434 ( 31) -0.1781 ( 32)
          -0.1785 ( 33)  0.1782 ( 34) -0.2434 ( 35)  0.1785 ( 36)
 CRD 25=  -0.1311 (  2) -0.1290 (  3)  0.4363 (  5) -0.2440 (  6) -0.2440 (  8)
          -0.1292 (  9) -0.1310 ( 10) -0.2439 ( 12)  0.4362 ( 13) -0.2440 ( 14)
           0.1231 ( 17)  0.1231 ( 18)  0.1231 ( 28)  0.1231 ( 30)  0.1913 ( 37)
           0.1913 ( 38)
 CRD 26=   0.2043 (  1) -0.2043 (  4) -0.5039 (  5)  0.1581 (  6)  0.2043 (  7)
           0.1581 (  8) -0.2043 ( 11) -0.1581 ( 12)  0.5040 ( 13) -0.1582 ( 14)
           0.1892 ( 17) -0.1891 ( 18)  0.1295 ( 23)  0.1294 ( 25) -0.1892 ( 28)
           0.1892 ( 30) -0.1295 ( 31) -0.1295 ( 35)
 CRD 27=  -0.2067 (  1) -0.2066 (  4)  0.2744 (  6)  0.2067 (  7) -0.2744 (  8)
           0.2066 ( 11) -0.2744 ( 12)  0.2744 ( 14)  0.2324 ( 15)  0.2325 ( 16)
          -0.2324 ( 21)  0.2668 ( 23) -0.2668 ( 25) -0.2325 ( 29) -0.2669 ( 31)
           0.2668 ( 35)
 CRD 28=   0.2822 (  2) -0.2877 (  3)  0.2876 (  9) -0.2822 ( 10) -0.1032 ( 22)
          -0.1004 ( 24)  0.1024 ( 27)  0.1032 ( 32) -0.1024 ( 34)  0.1004 ( 36)
          -0.1605 ( 39)  0.1609 ( 40) -0.1640 ( 44) -0.1606 ( 45) -0.1514 ( 46)
          -0.1611 ( 48) -0.1637 ( 49) -0.1518 ( 51)  0.1606 ( 53) -0.1610 ( 54)
           0.1605 ( 55)  0.1514 ( 56)  0.1641 ( 57)  0.1635 ( 58)  0.1611 ( 59)
           0.1518 ( 60) -0.2735 ( 65)  0.2734 ( 70)
 CRD 29=  -0.3060 (  1)  0.3061 (  4)  0.1407 (  6) -0.3062 (  7)  0.1409 (  8)
           0.3060 ( 11) -0.1408 ( 12) -0.1409 ( 14)  0.1834 ( 20)  0.1980 ( 22)
           0.1830 ( 24)  0.1984 ( 27) -0.1980 ( 32) -0.1834 ( 33) -0.1985 ( 34)
          -0.1830 ( 36)  0.1080 ( 44) -0.1020 ( 45)  0.1014 ( 48) -0.1086 ( 49)
           0.1020 ( 55) -0.1080 ( 57)  0.1087 ( 58) -0.1014 ( 59)  0.1326 ( 61)
           0.1328 ( 62) -0.1327 ( 67) -0.1326 ( 69)
 CRD 30=  -0.2681 ( 39) -0.2677 ( 40) -0.2559 ( 46)  0.2556 ( 51)  0.2682 ( 53)
           0.2678 ( 54)  0.2559 ( 56) -0.2555 ( 60) -0.2111 ( 61) -0.2110 ( 62)
          -0.2374 ( 63) -0.2374 ( 64)  0.2374 ( 66)  0.2109 ( 67)  0.2374 ( 68)
           0.2112 ( 69)
 CRD 31=  -0.3040 (  1)  0.3039 (  4)  0.1655 (  6)  0.3040 (  7) -0.1655 (  8)
          -0.3038 ( 11)  0.1656 ( 12) -0.1656 ( 14) -0.1942 ( 15)  0.1941 ( 16)
           0.1395 ( 20) -0.1941 ( 21)  0.1409 ( 22)  0.1696 ( 23) -0.1396 ( 24)
          -0.1696 ( 25) -0.1408 ( 27)  0.1942 ( 29)  0.1696 ( 31)  0.1408 ( 32)
           0.1395 ( 33) -0.1408 ( 34) -0.1696 ( 35) -0.1396 ( 36)
 CRD 32=   0.1725 (  1) -0.1940 (  2) -0.1882 (  3)  0.1727 (  4) -0.1727 (  7)
           0.1885 (  9)  0.1940 ( 10) -0.1729 ( 11)  0.1036 ( 15)  0.1038 ( 16)
          -0.1311 ( 17) -0.1311 ( 18) -0.1972 ( 19) -0.1039 ( 21)  0.1973 ( 26)
           0.1312 ( 28) -0.1037 ( 29)  0.1312 ( 30)  0.2692 ( 37) -0.2694 ( 38)
          -0.1542 ( 44)  0.1569 ( 45)  0.1569 ( 48) -0.1540 ( 49) -0.1567 ( 55)
           0.1540 ( 57)  0.1541 ( 58) -0.1569 ( 59)  0.1565 ( 61) -0.1565 ( 62)
          -0.1544 ( 63)  0.1542 ( 64) -0.1544 ( 66)  0.1567 ( 67)  0.1545 ( 68)
          -0.1564 ( 69)
 CRD 33=   0.1892 (  1) -0.1700 (  2) -0.1665 (  3)  0.1892 (  4) -0.2078 (  5)
           0.1890 (  7) -0.1664 (  9) -0.1697 ( 10)  0.1891 ( 11) -0.2077 ( 13)
          -0.1518 ( 17) -0.1518 ( 18) -0.1976 ( 19) -0.1974 ( 26) -0.1517 ( 28)
          -0.1517 ( 30)  0.2360 ( 37)  0.2358 ( 38)  0.1387 ( 44) -0.1408 ( 45)
           0.1410 ( 48) -0.1389 ( 49) -0.1409 ( 55)  0.1388 ( 57) -0.1387 ( 58)
           0.1408 ( 59)  0.1402 ( 61) -0.1400 ( 62) -0.1396 ( 63)  0.1398 ( 64)
           0.1396 ( 66) -0.1399 ( 67) -0.1396 ( 68)  0.1399 ( 69)
 CRD 34=   0.1765 (  2) -0.1787 (  3) -0.1786 (  9)  0.1765 ( 10)  0.1218 ( 20)
          -0.1216 ( 22)  0.1218 ( 24) -0.1216 ( 27) -0.1216 ( 32)  0.1218 ( 33)
          -0.1216 ( 34)  0.1218 ( 36) -0.2056 ( 39)  0.2055 ( 40) -0.2290 ( 43)
          -0.2290 ( 47)  0.2290 ( 50)  0.2291 ( 52) -0.2056 ( 53)  0.2056 ( 54)
          -0.2139 ( 61)  0.2139 ( 62) -0.2159 ( 63)  0.2159 ( 64)  0.2158 ( 66)
           0.2140 ( 67) -0.2158 ( 68) -0.2139 ( 69)
 CRD 35=  -0.2801 ( 41) -0.2800 ( 42)  0.1408 ( 43)  0.1662 ( 44)  0.1672 ( 45)
          -0.1641 ( 46)  0.1409 ( 47)  0.1672 ( 48)  0.1661 ( 49)  0.1408 ( 50)
          -0.1641 ( 51)  0.1408 ( 52)  0.1672 ( 55) -0.1641 ( 56)  0.1661 ( 57)
           0.1662 ( 58)  0.1672 ( 59) -0.1640 ( 60) -0.1376 ( 61) -0.1377 ( 62)
          -0.1388 ( 63) -0.1387 ( 64)  0.3587 ( 65) -0.1387 ( 66) -0.1377 ( 67)
          -0.1388 ( 68) -0.1377 ( 69)  0.3587 ( 70)
 CRD 36=   0.2995 ( 41) -0.2995 ( 42)  0.2744 ( 43) -0.1195 ( 44) -0.1208 ( 45)
          -0.2744 ( 47) -0.1208 ( 48) -0.1194 ( 49)  0.2744 ( 50) -0.2744 ( 52)
           0.1208 ( 55)  0.1194 ( 57)  0.1195 ( 58)  0.1208 ( 59)  0.1516 ( 61)
          -0.1516 ( 62)  0.1530 ( 63) -0.1530 ( 64) -0.2713 ( 65)  0.1530 ( 66)
           0.1517 ( 67) -0.1530 ( 68) -0.1517 ( 69)  0.2713 ( 70)

 THE DETERMINANT OF THE G MATRIX IS 10**(   -10)


                     --------------------
                     INTERNAL COORDINATES
                     --------------------

                 - - ATOMS - -         COORDINATE      COORDINATE
 NO.   TYPE    I  J  K  L  M  N        (BOHR,RAD)       (ANG,DEG)
 ----------------------------------------------------------------
   1 STRETCH   1  2                     2.8078905       1.4858718
   2 STRETCH   1  8                     2.0963182       1.1093239
   3 STRETCH   1  7                     2.0962763       1.1093017
   4 STRETCH   1  6                     2.8080570       1.4859599
   5 STRETCH   2  3                     2.5195154       1.3332702
   6 STRETCH   2  9                     2.0707157       1.0957757
   7 STRETCH   3  4                     2.8077638       1.4858047
   8 STRETCH   3 10                     2.0704740       1.0956478
   9 STRETCH   4 12                     2.0965576       1.1094506
  10 STRETCH   4 11                     2.0964352       1.1093858
  11 STRETCH   4  5                     2.8080858       1.4859751
  12 STRETCH   5 13                     2.0704735       1.0956474
  13 STRETCH   5  6                     2.5193277       1.3331709
  14 STRETCH   6 14                     2.0703440       1.0955790
  15 BEND      1  6  5                  2.1479012     123.0656719
  16 BEND      1  2  3                  2.1480750     123.0756324
  17 BEND      1  6 14                  2.0247857     116.0116747
  18 BEND      1  2  9                  2.0246949     116.0064708
  19 BEND      2  1  6                  1.9869852     113.8458656
  20 BEND      2  1  7                  1.9051286     109.1558285
  21 BEND      2  3  4                  2.1481329     123.0789490
  22 BEND      2  1  8                  1.9058870     109.1992794
  23 BEND      2  3 10                  2.1102671     120.9093979
  24 BEND      3  4 12                  1.9052729     109.1640988
  25 BEND      3  2  9                  2.1104151     120.9178762
  26 BEND      3  4  5                  1.9868220     113.8365166
  27 BEND      3  4 11                  1.9057331     109.1904622
  28 BEND      4  3 10                  2.0247853     116.0116528
  29 BEND      4  5  6                  2.1482733     123.0869934
  30 BEND      4  5 13                  2.0247970     116.0123210
  31 BEND      5  6 14                  2.1104984     120.9226532
  32 BEND      5  4 11                  1.9057895     109.1936965
  33 BEND      5  4 12                  1.9050406     109.1507868
  34 BEND      6  1  8                  1.9059062     109.2003835
  35 BEND      6  5 13                  2.1101149     120.9006781
  36 BEND      6  1  7                  1.9048052     109.1372967
  37 BEND      7  1  8                  1.8501664     106.0067266
  38 BEND     11  4 12                  1.8502372     106.0107829
  39 TORSION   1  2  3 10               3.1406289     179.9447830
  40 TORSION   1  6  5 13               3.1415883     179.9997517
  41 TORSION   1  2  3  4              -0.0008463      -0.0484902
  42 TORSION   1  6  5  4              -0.0005782      -0.0331288
  43 TORSION   2  1  6  5              -0.0138200      -0.7918250
  44 TORSION   2  3  4 11              -2.1480978    -123.0769367
  45 TORSION   2  3  4 12               2.1196428     121.4465844
  46 TORSION   2  1  6 14               3.1278774     179.2141716
  47 TORSION   2  3  4  5              -0.0135727      -0.7776565
  48 TORSION   3  2  1  7              -2.1183794    -121.3742000
  49 TORSION   3  2  1  8               2.1494404     123.1538647
  50 TORSION   3  4  5  6               0.0142897       0.8187403
  51 TORSION   3  4  5 13              -3.1278509    -179.2126532
  52 TORSION   3  2  1  6               0.0145372       0.8329192
  53 TORSION   4  5  6 14               3.1409048     179.9605891
  54 TORSION   4  3  2  9              -3.1414935    -179.9943218
  55 TORSION   5  6  1  7               2.1192749     121.4255065
  56 TORSION   5  4  3 10               3.1281321     179.2287655
  57 TORSION   5  6  1  8              -2.1487126    -123.1121628
  58 TORSION   6  5  4 11               2.1487837     123.1162395
  59 TORSION   6  5  4 12              -2.1190538    -121.4128365
  60 TORSION   6  1  2  9              -3.1279579    -179.2187877
  61 TORSION   7  1  2  9               1.0223108      58.5740931
  62 TORSION   7  1  6 14              -1.0222131     -58.5684969
  63 TORSION   8  1  2  9              -0.9930547     -56.8978422
  64 TORSION   8  1  6 14               0.9929847      56.8938338
  65 TORSION   9  2  3 10              -0.0000183      -0.0010486
  66 TORSION  10  3  4 11               0.9936070      56.9294853
  67 TORSION  10  3  4 12              -1.0218378     -58.5469936
  68 TORSION  11  4  5 13              -0.9933568     -56.9151540
  69 TORSION  12  4  5 13               1.0219910      58.5557700
  70 TORSION  13  5  6 14              -0.0001140      -0.0065304

     ------------------------------------------
     THE POINT GROUP IS C1 , NAXIS= 1, ORDER= 1
     ------------------------------------------

     DIMENSIONS OF THE SYMMETRY SUBSPACES ARE
 A   =  162

 ..... DONE SETTING UP THE RUN .....
 STEP CPU TIME =     0.00 TOTAL CPU TIME =        0.0 (    0.0 MIN)
 TOTAL WALL CLOCK TIME=        0.0 SECONDS, CPU UTILIZATION IS   0.00%


          -----------------------------
          STATIONARY POINT LOCATION RUN
          -----------------------------

 OBTAINING INITIAL HESSIAN, HESS=GUESS   
 DIAGONAL GUESS HESSIAN IN INTERNAL COORDS IS
     1  0.4001     2  0.3336     3  0.3336     4  0.4000     5  0.5382
     6  0.3425     7  0.4001     8  0.3426     9  0.3335    10  0.3336
    11  0.4000    12  0.3426    13  0.5383    14  0.3426    15  0.2663
    16  0.2663    17  0.2264    18  0.2264    19  0.2548    20  0.2256
    21  0.2663    22  0.2256    23  0.2359    24  0.2256    25  0.2359
    26  0.2548    27  0.2256    28  0.2264    29  0.2663    30  0.2264
    31  0.2359    32  0.2255    33  0.2255    34  0.2256    35  0.2359
    36  0.2256    37  0.2015    38  0.2015    39  0.2500    40  0.2500
    41  0.2500    42  0.2500    43  0.2500    44  0.2500    45  0.2500
    46  0.2500    47  0.2500    48  0.2500    49  0.2500    50  0.2500
    51  0.2500    52  0.2500    53  0.2500    54  0.2500    55  0.2500
    56  0.2500    57  0.2500    58  0.2500    59  0.2500    60  0.2500
    61  0.2500    62  0.2500    63  0.2500    64  0.2500    65  0.2500
    66  0.2500    67  0.2500    68  0.2500    69  0.2500    70  0.2500
 TRANSFORMING HESSIAN TO SYMMETRY COORDINATES

          PARAMETERS CONTROLLING GEOMETRY SEARCH ARE
          METHOD =QA                  UPHESS =BFGS    
          NNEG   =         0          NFRZ   =         3
          NSTEP  =        50          IFOLOW =         1
          HESS   =GUESS               RESTAR =         F
          IHREP  =         0          HSSEND =         F
          NPRT   =         0          NPUN   =         0
          OPTTOL = 5.000E-04          RMIN   = 1.500E-03
          RMAX   = 1.000E-01          RLIM   = 7.000E-02
          DXMAX  = 3.000E-01          PURIFY =         F
          MOVIE  =         F          TRUPD  =         T
          TRMAX  = 5.000E-01          TRMIN  = 5.000E-02
          ITBMAT =         5          STPT   =         F
          STSTEP = 1.000E-02          PROJCT=          F
          FROZEN COORD(S)=   1   2   3


      ***** EQUILIBRIUM GEOMETRY LOCATED *****
            (SUBJECT TO   3 CONSTRAINT(S))
 COORDINATES OF ALL ATOMS ARE (ANGS)
   ATOM   CHARGE       X              Y              Z
 ------------------------------------------------------------
 C           6.0   1.7302302493   3.4585776630   0.8997933082
 C           6.0   1.0902046506   2.0962279786   0.8771292817
 C           6.0   1.7768666341   0.9704870616   0.8695714059
 C           6.0   3.2812373132   0.9158985143   0.8817312916
 C           6.0   3.9212621139   2.2784498108   0.8849389432
 C           6.0   3.2345845122   3.4041481446   0.8931988073
 H           1.0   1.3905682534   4.0047248395   1.7785782584
 H           1.0   1.3834431014   4.0377961983   0.0455544852
 H           1.0   0.0119152395   2.0670726767   0.8676353187
 H           1.0   1.2572941315   0.0252622071   0.8539576598
 H           1.0   3.6317230077   0.3514651341   0.0191321875
 H           1.0   3.6173347709   0.3548099026   1.7524356457
 H           1.0   4.9995639775   2.3079049781   0.8806061504
 H           1.0   3.7541304849   4.3494929799   0.8956497135


                     --------------------
                     INTERNAL COORDINATES
                     --------------------

                 - - ATOMS - -         COORDINATE      COORDINATE
 NO.   TYPE    I  J  K  L  M  N        (BOHR,RAD)       (ANG,DEG)
 ----------------------------------------------------------------
   1 STRETCH   1  2                     2.8447395       1.5053714
   2 STRETCH   1  8                     2.0575284       1.0887972
   3 STRETCH   1  7                     2.0579021       1.0889949
   4 STRETCH   1  6                     2.8447048       1.5053531
   5 STRETCH   2  3                     2.4918991       1.3186563
   6 STRETCH   2  9                     2.0384952       1.0787253
   7 STRETCH   3  4                     2.8448122       1.5054099
   8 STRETCH   3 10                     2.0384962       1.0787258
   9 STRETCH   4 12                     2.0579003       1.0889940
  10 STRETCH   4 11                     2.0575484       1.0888078
  11 STRETCH   4  5                     2.8447677       1.5053864
  12 STRETCH   5 13                     2.0384716       1.0787128
  13 STRETCH   5  6                     2.4918537       1.3186323
  14 STRETCH   6 14                     2.0384625       1.0787080
  15 BEND      1  6  5                  2.1547165     123.4561624
  16 BEND      1  2  3                  2.1547029     123.4553836
  17 BEND      1  6 14                  2.0371369     116.7193488
  18 BEND      1  2  9                  2.0370933     116.7168493
  19 BEND      2  1  6                  1.9737000     113.0846777
  20 BEND      2  1  7                  1.9107113     109.4756906
  21 BEND      2  3  4                  2.1546933     123.4548308
  22 BEND      2  1  8                  1.9115633     109.5245085
  23 BEND      2  3 10                  2.0913061     119.8230146
  24 BEND      3  4 12                  1.9108733     109.4849757
  25 BEND      3  2  9                  2.0913888     119.8277512
  26 BEND      3  4  5                  1.9736653     113.0826920
  27 BEND      3  4 11                  1.9114199     109.5162943
  28 BEND      4  3 10                  2.0371859     116.7221545
  29 BEND      4  5  6                  2.1547173     123.4562056
  30 BEND      4  5 13                  2.0372269     116.7245009
  31 BEND      5  6 14                  2.0913318     119.8244883
  32 BEND      5  4 11                  1.9113827     109.5141611
  33 BEND      5  4 12                  1.9107343     109.4770089
  34 BEND      6  1  8                  1.9114375     109.5173008
  35 BEND      6  5 13                  2.0912411     119.8192865
  36 BEND      6  1  7                  1.9106675     109.4731863
  37 BEND      7  1  8                  1.8410599     105.4849625
  38 BEND     11  4 12                  1.8410671     105.4853762
  39 TORSION   1  2  3 10               3.1407327     179.9507287
  40 TORSION   1  6  5 13              -3.1415205    -179.9958650
  41 TORSION   1  2  3  4              -0.0007896      -0.0452401
  42 TORSION   1  6  5  4              -0.0004736      -0.0271375
  43 TORSION   2  1  6  5              -0.0136209      -0.7804208
  44 TORSION   2  3  4 11              -2.1501755    -123.1959831
  45 TORSION   2  3  4 12               2.1222744     121.5973632
  46 TORSION   2  1  6 14               3.1281073     179.2273451
  47 TORSION   2  3  4  5              -0.0133338      -0.7639717
  48 TORSION   3  2  1  7              -2.1211689    -121.5340248
  49 TORSION   3  2  1  8               2.1513002     123.2604195
  50 TORSION   3  4  5  6               0.0139725       0.8005630
  51 TORSION   3  4  5 13              -3.1281504    -179.2298138
  52 TORSION   3  2  1  6               0.0142592       0.8169932
  53 TORSION   4  5  6 14               3.1409795     179.9648669
  54 TORSION   4  3  2  9              -3.1415553    -179.9978588
  55 TORSION   5  6  1  7               2.1218316     121.5719952
  56 TORSION   5  4  3 10               3.1283272     179.2399438
  57 TORSION   5  6  1  8              -2.1507320    -123.2278666
  58 TORSION   6  5  4 11               2.1508349     123.2337643
  59 TORSION   6  5  4 12              -2.1217133    -121.5652190
  60 TORSION   6  1  2  9              -3.1281366    -179.2290241
  61 TORSION   7  1  2  9               1.0196206      58.4199579
  62 TORSION   7  1  6 14              -1.0196255     -58.4202389
  63 TORSION   8  1  2  9              -0.9910957     -56.7855978
  64 TORSION   8  1  6 14               0.9909962      56.7798993
  65 TORSION   9  2  3 10              -0.0000330      -0.0018900
  66 TORSION  10  3  4 11               0.9914855      56.8079324
  67 TORSION  10  3  4 12              -1.0192500     -58.3987213
  68 TORSION  11  4  5 13              -0.9912879     -56.7966125
  69 TORSION  12  4  5 13               1.0193491      58.4044041
  70 TORSION  13  5  6 14              -0.0000674      -0.0038607

          INTERNUCLEAR DISTANCES (ANGS.)


 =====================================================
   GAMESS/COSab RESULTS
 =====================================================

   Dielectric Constant                  = INFTY
   Basic Grid Size                      =                 1082
   Number of Segments                   =                   92
   Number of Segments located on spheres=                  224
   Number of Segments of the cavity     =                  568
   Solvent Radius (rsolv)               = 1.40
   Outlying Charge Error Method         = double cavity

 =====================================================

  Total solvated Energy (a.u.)          =  -231.8918818872
  Total Energy corrected (a.u.)         =  -231.8918970960

  Outlying charge effect (a.u.)         =    -0.0000152088
  Outlying charge effect (kcal/mol)     =    -0.0095436574

  Dielectric Energy (a.u.)              =    -0.0047378705
  Dielectric energy corr. (a.u.)        =    -0.0047530793

  Sum of polarization charges           =     0.0244247227
  Sum of polarization charges(cor.)     =    -0.0244247227

  Total surface area of cavity (A**2)   =  125.11
  Total volume of cavity (A**3)         =  114.31

 =====================================================
 NPS=                   568
NR.  ATOM  (X, Y, Z)(a.u.)                  CHARGE(e)  AREA(A**2) SIGMA(e/A**2)
   1   1   3.766384  10.282040   1.754192   0.000116   0.232280   0.000498
   2   1   0.406801   8.981779   1.375949   0.000935   0.325193   0.002876
   3   1   3.755374   5.794423  -1.973713   0.000271   0.139368   0.001946
   4   1   3.868060   6.537945  -2.031426   0.000024   0.046456   0.000514
   5   1   0.679872   9.232166   2.254066   0.000798   0.278737   0.002864
   6   1   3.539216  10.168456   2.707877   0.000236   0.371649   0.000635
   7   1   3.274006   5.802350   5.407961   0.000194   0.185824   0.001042
   8   1   4.040671   5.697056   5.304017   0.000112   0.092912   0.001203
   9   1   2.782884  10.279496   1.522240   0.000937   0.371649   0.002522
  10   1   1.340720   9.780967   1.521353   0.001155   0.325193   0.003551
  11   1  -0.173964   8.080026   1.902585   0.000642   0.418105   0.001534
  12   1  -0.247128   7.671489   2.491886   0.000008   0.139368   0.000055
  13   1   3.612698  10.205860   0.865525   0.000197   0.278737   0.000706
  14   1  -0.122108   7.938411   0.798864   0.000202   0.325193   0.000622
  15   1   3.275206   5.993931  -2.040054   0.000067   0.046456   0.001432
  16   1  -0.084735   7.640575   3.046320  -0.000088   0.185824  -0.000473
  17   1   2.113107  10.117368   2.044872   0.000863   0.278737   0.003096
  18   1   3.772066   6.161065   5.427478   0.000075   0.046456   0.001615
  19   2   3.130954   4.050466  -1.965973   0.000943   0.139368   0.006765
  20   2   0.240666   5.286417  -1.378524   0.000473   0.232280   0.002035
  21   2   0.025018   2.393157  -1.114348   0.002355   0.278737   0.008448
  22   2   0.443340   3.933478   5.073562   0.002123   0.418105   0.005078
  23   2  -0.456518   4.305308   4.456117   0.000886   0.278737   0.003178
  24   2  -0.564548   1.722768   3.201564   0.000316   0.092912   0.003399
  25   2  -0.519624   2.094628  -0.378252   0.000806   0.278737   0.002892
  26   2  -0.545813   5.502232  -0.604880   0.000203   0.278737   0.000730
  27   2   0.097489   4.475003  -1.531226   0.001148   0.325193   0.003529
  28   2   0.229494   3.171429  -1.553224   0.001543   0.232280   0.006644
  29   2  -0.399224   2.201734   3.924579   0.001422   0.278737   0.005101
  30   2   0.274196   2.678348   4.731379   0.002617   0.371649   0.007041
  31   2   0.031743   5.073228   4.646384   0.000724   0.278737   0.002596
  32   2   1.208866   4.607415  -1.967663   0.001217   0.278737   0.004365
  33   2   2.369735   4.368714  -2.087126   0.001527   0.232280   0.006572
  34   2   2.105648   3.610403  -2.105325   0.002610   0.232280   0.011237
  35   2   1.113121   2.891593  -1.841481   0.001960   0.278737   0.007031
  36   2   1.523995   3.256701   5.331806   0.004739   0.464561   0.010201
  37   2   1.239070   4.515627   5.304820   0.001458   0.371649   0.003924
  38   2  -0.479310   3.247773   4.364205   0.001313   0.278737   0.004711
  39   2  -0.404802   3.787027  -1.202140   0.001627   0.371649   0.004379
  40   2  -0.601152   5.568780   3.806362   0.000152   0.278737   0.000545
  41   2   2.699719   4.081355   5.380545   0.002971   0.418105   0.007105
  42   2   1.030173   3.768711  -1.973757   0.001756   0.278737   0.006298
  43   3   3.932881   2.789675   5.254365   0.001274   0.185824   0.006858
  44   3   3.469491  -0.569073   4.558266   0.000558   0.232280   0.002401
  45   3   0.969116   0.704421   4.345606   0.002351   0.278737   0.008435
  46   3   2.671425   0.457260  -1.808975   0.002131   0.418105   0.005097
  47   3   2.575993  -0.521498  -1.207172   0.000887   0.278737   0.003183
  48   3   0.202315   0.547698   0.008376   0.000316   0.092912   0.003406
  49   3   0.471393   0.367316   3.593128   0.000800   0.278737   0.002870
  50   3   3.483079  -1.219733   3.866677   0.000205   0.278737   0.000735
  51   3   2.815164  -0.094976   4.847797   0.001030   0.278737   0.003695
  52   3   1.744404   0.523609   4.799880   0.001539   0.232280   0.006626
  53   3   0.720264   0.485392  -0.703900   0.001413   0.278737   0.005069
  54   3   1.470556   0.876956  -1.488324   0.002649   0.371649   0.007127
  55   3   3.486357  -0.436537  -1.375458   0.000729   0.278737   0.002616
  56   3   3.459469   0.730689   5.256667   0.001208   0.278737   0.004332
  57   3   3.775796   1.870183   5.399346   0.001510   0.232280   0.006501
  58   3   2.980500   1.982483   5.400895   0.002585   0.232280   0.011127
  59   3   1.893430   1.433155   5.104367   0.001977   0.278737   0.007093
  60   3   2.570312   1.731360  -2.051824   0.004702   0.464561   0.010122
  61   3   3.558309   0.901167  -2.013788   0.001462   0.371649   0.003934
  62   3   1.623463  -0.058714  -1.130590   0.001314   0.278737   0.004713
  63   3   2.009359  -0.317213   4.442992   0.001623   0.371649   0.004367
  64   3   3.617962  -1.237775  -0.543315   0.000156   0.278737   0.000561
  65   3   3.842457   2.399416  -2.062090   0.003046   0.418105   0.007285
  66   3   2.632072   0.955879   5.246948   0.001732   0.278737   0.006214
  67   4   9.758909   0.457771   1.714231   0.000116   0.232280   0.000498
  68   4   7.056660  -1.928915   2.063693   0.000938   0.325193   0.002885
  69   4   5.677900   2.554823   5.317541   0.000269   0.139368   0.001929
  70   4   6.388961   2.315692   5.395408   0.000023   0.046456   0.000496
  71   4   7.424780  -1.813353   1.192209   0.000798   0.278737   0.002862
  72   4   9.576342   0.293994   0.758266   0.000239   0.371649   0.000643
  73   4   5.637705   2.016666  -2.060105   0.000199   0.185824   0.001070
  74   4   5.892595   2.747978  -1.960703   0.000114   0.092912   0.001227
  75   4   9.301050  -0.412146   1.948092   0.000947   0.371649   0.002549
  76   4   8.197846  -1.466287   1.938322   0.001156   0.325193   0.003554
  77   4   6.001715  -2.040332   1.513719   0.000629   0.418105   0.001505
  78   4   5.618941  -1.926987   0.913580   0.000012   0.139368   0.000087
  79   4   9.629367   0.453751   2.613430   0.000177   0.325193   0.000543
  80   4   5.873704  -1.913509   2.613025   0.000203   0.325193   0.000624
  81   4   5.633888   2.037591   5.390343   0.000066   0.046456   0.001419
  82   4   5.678795  -1.776464   0.358166  -0.000090   0.185824  -0.000485
  83   4   8.862643  -0.941016   1.422614   0.000861   0.278737   0.003090
  84   4   6.184954   2.295101  -2.070814   0.000076   0.046456   0.001627
  85   5   6.355039   4.276779  -1.956790   0.000943   0.139368   0.006767
  86   5   9.243023   3.031607  -1.377540   0.000473   0.232280   0.002035
  87   5   9.456912   5.920088  -1.064212   0.002355   0.278737   0.008448
  88   5   9.012170   4.276708   5.095278   0.002124   0.418105   0.005080
  89   5   9.914768   3.915355   4.475616   0.000886   0.278737   0.003179
  90   5  10.027672   6.518477   3.264792   0.000315   0.092912   0.003392
  91   5   9.998303   6.206374  -0.320890   0.000805   0.278737   0.002889
  92   5  10.026196   2.803028  -0.604207   0.000204   0.278737   0.000731
  93   5   9.386687   3.845476  -1.516065   0.001148   0.325193   0.003529
  94   5   9.254501   5.149217  -1.516888   0.001543   0.232280   0.006645
  95   5   9.859325   6.027495   3.978995   0.001422   0.278737   0.005102
  96   5   9.182525   5.537395   4.774812   0.002616   0.371649   0.007038
  97   5   9.425852   3.144299   4.650933   0.000724   0.278737   0.002598
  98   5   8.277236   3.720206  -1.959455   0.001216   0.278737   0.004364
  99   5   7.116843   3.960703  -2.079940   0.001526   0.232280   0.006568
 100   5   7.380845   4.719250  -2.084345   0.002610   0.232280   0.011236
 101   5   8.372069   5.433698  -1.804258   0.001960   0.278737   0.007031
 102   5   7.930265   4.948931   5.360097   0.004741   0.464561   0.010204
 103   5   8.215571   3.690670   5.313349   0.001460   0.371649   0.003928
 104   5   9.937733   4.974279   4.401456   0.001314   0.278737   0.004713
 105   5   9.887404   4.527937  -1.173380   0.001628   0.371649   0.004380
 106   5  10.062479   2.662917   3.805509   0.000152   0.278737   0.000546
 107   5   6.754516   4.123414   5.389987   0.002972   0.418105   0.007108
 108   5   8.455774   4.558920  -1.950785   0.001756   0.278737   0.006299
 109   6   5.521645   5.416949   5.279964   0.001275   0.185824   0.006860
 110   6   5.987802   8.786867   4.642142   0.000558   0.232280   0.002400
 111   6   8.489191   7.517131   4.419192   0.002351   0.278737   0.008434
 112   6   6.813861   7.867117  -1.737803   0.002131   0.418105   0.005097
 113   6   6.906573   8.835679  -1.119312   0.000887   0.278737   0.003182
 114   6   9.274988   7.746338   0.088592   0.000316   0.092912   0.003401
 115   6   8.990181   7.866771   3.674643   0.000800   0.278737   0.002870
 116   6   5.977192   9.448996   3.961474   0.000205   0.278737   0.000734
 117   6   6.640893   8.308003   4.926575   0.001030   0.278737   0.003695
 118   6   7.711905   7.690317   4.873021   0.001539   0.232280   0.006626
 119   6   8.760162   7.820536  -0.624807   0.001413   0.278737   0.005071
 120   6   8.013349   7.442131  -1.418949   0.002648   0.371649   0.007126
 121   6   5.996962   8.753534  -1.292984   0.000729   0.278737   0.002615
 122   6   5.994871   7.475613   5.318758   0.001207   0.278737   0.004330
 123   6   5.678017   6.333890   5.440982   0.001510   0.232280   0.006501
 124   6   6.473307   6.221588   5.444141   0.002584   0.232280   0.011125
 125   6   7.561621   6.775806   5.161606   0.001978   0.278737   0.007095
 126   6   6.916145   6.597254  -2.001469   0.004702   0.464561   0.010122
 127   6   5.927921   7.426686  -1.953894   0.001462   0.371649   0.003934
 128   6   7.858797   8.371690  -1.046299   0.001313   0.278737   0.004712
 129   6   7.448447   8.536984   4.529079   0.001623   0.371649   0.004367
 130   6   5.861643   9.540749  -0.448150   0.000155   0.278737   0.000557
 131   6   5.644112   5.929451  -2.028479   0.003046   0.418105   0.007285
 132   6   6.822322   7.250625   5.308905   0.001732   0.278737   0.006213
 133   7   2.110990   8.862885   5.383602  -0.002742   0.451437  -0.006073
 134   7   3.485471   8.379223   5.515349  -0.001154   0.274788  -0.004201
 135   7   2.342113   6.974438   5.727745  -0.001131   0.353299  -0.003202
 136   7   0.543801   7.761226   4.647358  -0.001431   0.333671  -0.004290
 137   7   1.182839   9.513277   3.764018  -0.001172   0.372926  -0.003144
 138   7   3.106570   9.853904   4.122409  -0.001107   0.333671  -0.003316
 139   7   2.885169   7.761492   5.796459  -0.002079   0.451437  -0.004606
 140   7   1.345632   7.623660   5.455787  -0.002184   0.471065  -0.004636
 141   7   1.105355   8.804537   4.840148  -0.002048   0.372926  -0.005493
 142   7   2.039030   9.819911   4.146233  -0.001882   0.451437  -0.004168
 143   7   3.197927   9.323183   4.982368  -0.001760   0.431809  -0.004077
 144   7   0.469106   8.593272   3.929890  -0.000928   0.314043  -0.002956
 145   8   1.691136   8.758944  -1.891037  -0.002880   0.471065  -0.006114
 146   8   1.422195   7.290483  -2.034859  -0.001158   0.294415  -0.003934
 147   8   3.226928   7.687756  -2.292247  -0.001130   0.353299  -0.003200
 148   8   3.371729   9.611700  -1.153093  -0.001455   0.333671  -0.004361
 149   8   1.538901   9.816726  -0.227325  -0.001179   0.372926  -0.003163
 150   8   0.348506   8.273882  -0.611779  -0.001109   0.333671  -0.003322
 151   8   2.277419   7.567032  -2.346515  -0.002096   0.451437  -0.004642
 152   8   3.172232   8.833309  -1.981914  -0.002061   0.471065  -0.004375
 153   8   2.183591   9.595598  -1.323614  -0.002052   0.372926  -0.005502
 154   8   0.867006   9.207961  -0.616090  -0.001887   0.451437  -0.004180
 155   8   0.761833   7.977234  -1.489675  -0.001759   0.431809  -0.004074
 156   8   2.680200  10.035786  -0.408393  -0.000933   0.314043  -0.002972
 157   9  -2.433818   3.889481   1.674859  -0.004801   0.608459  -0.007891
 158   9  -1.717009   4.980716   0.277759  -0.001740   0.392554  -0.004432
 159   9  -1.716193   5.497967   2.331186  -0.001760   0.333671  -0.005274
 160   9  -1.690997   3.723761   3.390502  -0.001271   0.353299  -0.003598
 161   9  -1.638256   2.124469   1.959487  -0.002037   0.353299  -0.005767
 162   9  -1.621092   2.972709   0.070444  -0.001406   0.412182  -0.003411
 163   9  -1.993433   5.274211   1.323956  -0.003003   0.471065  -0.006375
 164   9  -1.968122   4.611377   2.894662  -0.002736   0.490692  -0.005576
 165   9  -1.917205   2.863818   2.728629  -0.002876   0.510320  -0.005636
 166   9  -1.952792   2.567234   1.056157  -0.003201   0.510320  -0.006273
 167   9  -1.978531   3.994317   0.217219  -0.002796   0.471065  -0.005936
 168  10   1.237828  -2.127431   1.521978  -0.004801   0.608459  -0.007891
 169  10   2.503795  -2.009571   2.950240  -0.001739   0.392554  -0.004430
 170  10   3.010971  -2.217049   0.904797  -0.001758   0.333671  -0.005270
 171  10   1.469758  -1.367309  -0.178346  -0.001271   0.353299  -0.003598
 172  10   0.039573  -0.607982   1.231021  -0.002036   0.353299  -0.005762
 173  10   0.758114  -1.007589   3.131627  -0.001406   0.412182  -0.003411
 174  10   2.662140  -2.375070   1.902187  -0.003003   0.471065  -0.006376
 175  10   2.120543  -2.027068   0.323367  -0.002737   0.490692  -0.005578
 176  10   0.586715  -1.183786   0.466094  -0.002877   0.510320  -0.005638
 177  10   0.268495  -1.102954   2.133005  -0.003200   0.510320  -0.006271
 178  10   1.505966  -1.791123   2.990988  -0.002795   0.471065  -0.005933
 179  11   7.794625  -0.430231  -1.956172  -0.002874   0.471065  -0.006102
 180  11   8.027204   1.024421  -2.096875  -0.001152   0.274788  -0.004193
 181  11   6.260296   0.647470  -2.345356  -0.001132   0.353299  -0.003205
 182  11   6.111146  -1.295759  -1.239997  -0.001452   0.333671  -0.004353
 183  11   7.940136  -1.516384  -0.310234  -0.001175   0.372926  -0.003151
 184  11   9.131800   0.032997  -0.663180  -0.001107   0.333671  -0.003319
 185  11   7.209997   0.769240  -2.393576  -0.002078   0.451437  -0.004604
 186  11   6.313938  -0.503233  -2.054500  -0.002061   0.471065  -0.004375
 187  11   7.299982  -1.276567  -1.405251  -0.002051   0.372926  -0.005500
 188  11   8.613520  -0.900944  -0.685685  -0.001884   0.451437  -0.004172
 189  11   8.722079   0.344607  -1.537576  -0.001760   0.431809  -0.004077
 190  11   6.799649  -1.732465  -0.499802  -0.000928   0.314043  -0.002955
 191  12   7.344383  -0.658983   5.313846  -0.002742   0.451437  -0.006074
 192  12   5.969261  -0.177844   5.448115  -0.001155   0.274788  -0.004202
 193  12   7.111423   1.223252   5.689353  -0.001131   0.353299  -0.003201
 194  12   8.914404   0.455359   4.603167  -0.001434   0.333671  -0.004297
 195  12   8.279437  -1.281375   3.687245  -0.001177   0.372926  -0.003155
 196  12   6.354296  -1.628367   4.031688  -0.001106   0.333671  -0.003316
 197  12   6.568252   0.435059   5.742286  -0.002079   0.451437  -0.004606
 198  12   8.109170   0.578928   5.410473  -0.002185   0.471065  -0.004638
 199  12   8.352269  -0.591183   4.775685  -0.002050   0.372926  -0.005496
 200  12   7.421719  -1.594638   4.060559  -0.001885   0.451437  -0.004175
 201  12   6.259231  -1.112485   4.900232  -0.001762   0.431809  -0.004081
 202  12   8.992275  -0.364250   3.871855  -0.000933   0.314043  -0.002971
 203  13  11.903970   4.377793   1.710261  -0.004801   0.608459  -0.007890
 204  13  11.193440   3.309913   0.292066  -0.001739   0.392554  -0.004431
 205  13  11.183857   2.758482   2.336557  -0.001759   0.333671  -0.005272
 206  13  11.153704   4.514769   3.425200  -0.001271   0.353299  -0.003598
 207  13  11.106810   6.137700   2.020844  -0.002036   0.353299  -0.005762
 208  13  11.097993   5.321085   0.117859  -0.001406   0.412182  -0.003411
 209  13  11.465401   2.999047   1.334408  -0.003003   0.471065  -0.006375
 210  13  11.433159   3.635585   2.915827  -0.002736   0.490692  -0.005576
 211  13  11.382588   5.385664   2.778747  -0.002877   0.510320  -0.005637
 212  13  11.425343   5.710109   1.111624  -0.003200   0.510320  -0.006271
 213  13  11.455012   4.297222   0.249119  -0.002796   0.471065  -0.005935
 214  14   8.232608  10.395750   1.642142  -0.004801   0.608459  -0.007891
 215  14   6.960400  10.254019   3.062670  -0.001739   0.392554  -0.004430
 216  14   6.462180  10.495654   1.018776  -0.001759   0.333671  -0.005272
 217  14   8.008198   9.664153  -0.071650  -0.001271   0.353299  -0.003598
 218  14   9.432253   8.881388   1.331085  -0.002038   0.353299  -0.005767
 219  14   8.705353   9.249163   3.234936  -0.001406   0.412182  -0.003410
 220  14   6.806621  10.636984   2.020188  -0.003003   0.471065  -0.006376
 221  14   7.355165  10.315427   0.438162  -0.002738   0.490692  -0.005579
 222  14   8.888423   9.469893   0.573498  -0.002877   0.510320  -0.005638
 223  14   9.199338   9.361212   2.240205  -0.003201   0.510320  -0.006272
 224  14   7.958060  10.034931   3.104135  -0.002795   0.471065  -0.005932
 225   1   4.165976   5.108017  -1.703622   0.000172   0.061072   0.002815
 226   2   3.948075   4.668412  -1.672197   0.000264   0.061072   0.004323
 227   6   4.656187   5.100312  -1.666892   0.000266   0.061072   0.004348
 228   1   4.191064   4.984010   5.042803   0.000167   0.061072   0.002742
 229   2   3.972876   4.545827   4.996865   0.000253   0.061072   0.004140
 230   6   4.680987   4.977726   5.002171   0.000246   0.061072   0.004033
 231   1   2.547335   5.758032   5.335748  -0.000003   0.027785  -0.000120
 232   2   2.340618   5.315591   5.287111   0.000081   0.027785   0.002910
 233   7   2.454744   6.042520   5.390892  -0.000074   0.027785  -0.002656
 234   1   0.027032   6.970803   3.607909  -0.000091   0.027785  -0.003259
 235   2  -0.147763   6.513001   3.581156  -0.000068   0.027785  -0.002456
 236   7   0.159743   7.146876   3.817512  -0.000102   0.027785  -0.003674
 237   1   0.012148   7.040718  -0.164071  -0.000092   0.027711  -0.003309
 238   2  -0.162473   6.582208  -0.152862  -0.000076   0.027711  -0.002755
 239   8   0.143124   7.224857  -0.367602  -0.000134   0.027711  -0.004847
 240   1   2.511319   5.896400  -1.954592   0.000016   0.027711   0.000570
 241   2   2.305020   5.452395  -1.920687   0.000118   0.027711   0.004269
 242   8   2.418863   6.182844  -1.998045  -0.000044   0.027711  -0.001576
 243   1  -0.516955   6.725927   2.575498  -0.000078   0.014637  -0.005321
 244   2  -0.764525   6.302550   2.580999  -0.000092   0.014637  -0.006294
 245   9  -0.965472   6.099386   2.493346  -0.000085   0.014637  -0.005829
 246   1  -0.501650   6.748830   0.766372  -0.000077   0.014637  -0.005294
 247   2  -0.749000   6.325781   0.745969  -0.000089   0.014637  -0.006091
 248   9  -0.951358   6.120506   0.825039  -0.000091   0.014637  -0.006243
 249   2   3.118246   4.588094   5.211841   0.000972   0.255817   0.003801
 250   1   3.139969   5.354332   5.268674   0.000282   0.255817   0.001101
 251   2  -0.512367   6.327735   3.168355  -0.000234   0.157790  -0.001482
 252   1  -0.278972   6.998245   3.001886  -0.000200   0.157790  -0.001270
 253   2  -0.573931   6.403113   0.375594  -0.000256   0.141267  -0.001809
 254   1  -0.215225   7.014455   0.226977  -0.000199   0.141267  -0.001409
 255   2   2.808605   4.852161  -1.917973   0.000960   0.257500   0.003727
 256   1   3.387281   5.356862  -1.868171   0.000373   0.257500   0.001448
 257   1   4.346065   9.605226   3.640059  -0.000091   0.027787  -0.003263
 258   6   4.833362   9.551255   3.618271  -0.000073   0.027787  -0.002638
 259   7   4.126519   9.566437   3.847043  -0.000133   0.027787  -0.004787
 260   1   4.251982   6.797658   5.348529   0.000018   0.027787   0.000647
 261   6   4.740470   6.779245   5.305104   0.000124   0.027787   0.004479
 262   7   4.040846   7.009849   5.402786  -0.000043   0.027787  -0.001557
 263   1   4.225079   6.941426  -1.941781   0.000000   0.027719   0.000017
 264   6   4.713866   6.921379  -1.902674   0.000076   0.027719   0.002757
 265   8   4.013256   7.155086  -1.986131  -0.000072   0.027719  -0.002596
 266   1   4.331942   9.675814  -0.131079  -0.000098   0.027719  -0.003535
 267   6   4.819374   9.621112  -0.114919  -0.000073   0.027719  -0.002644
 268   8   4.110565   9.645017  -0.337307  -0.000106   0.027719  -0.003814
 269   1   4.816400   9.992580   0.806740  -0.000078   0.014626  -0.005347
 270   6   5.305935  10.018983   0.791865  -0.000091   0.014626  -0.006236
 271  14   5.580197  10.104368   0.874449  -0.000085   0.014626  -0.005818
 272   1   4.824005   9.983698   2.614844  -0.000079   0.014626  -0.005415
 273   6   5.313649  10.009973   2.625859  -0.000091   0.014626  -0.006214
 274  14   5.587210  10.096177   2.541815  -0.000092   0.014626  -0.006261
 275   6   5.158106   9.837820   0.259512  -0.000211   0.141237  -0.001492
 276   1   4.458047   9.926736   0.422251  -0.000203   0.141237  -0.001440
 277   6   5.171377   9.868486   3.033854  -0.000287   0.157867  -0.001817
 278   1   4.466380   9.818819   3.213588  -0.000225   0.157867  -0.001422
 279   6   5.043453   6.061018   5.274591   0.000949   0.255799   0.003709
 280   1   4.329130   5.780862   5.229266   0.000356   0.255799   0.001390
 281   6   5.005963   5.889790  -1.864404   0.000936   0.257454   0.003634
 282   1   4.313931   6.224399  -1.898361   0.000302   0.257454   0.001173
 283   7   3.623701   9.762065   3.839650  -0.000233   0.069310  -0.003364
 284   7   2.654479   9.970893   3.335252  -0.000510   0.153711  -0.003319
 285   7   1.386920   9.605707   3.072277  -0.000401   0.153711  -0.002608
 286   7   0.479333   8.644144   3.319070  -0.000560   0.153711  -0.003644
 287   7   0.215999   7.683509   3.814299  -0.000253   0.069310  -0.003645
 288   1   3.488466   9.913049   3.275902  -0.000501   0.152123  -0.003296
 289   1   2.081099   9.922778   2.725890  -0.000167   0.152123  -0.001098
 290   1   0.791107   9.135937   2.716293  -0.000212   0.152123  -0.001394
 291   1   0.149760   7.876578   3.251064  -0.000465   0.152123  -0.003060
 292   7   2.758869   6.468431   5.552294  -0.000200   0.071619  -0.002792
 293   7   3.521231   6.933368   5.558010  -0.000191   0.071619  -0.002666
 294   1   3.344791   6.366794   5.424281  -0.000448   0.156141  -0.002870
 295   8   3.491038   7.083106  -2.140473  -0.000198   0.072084  -0.002742
 296   8   2.723591   6.615155  -2.146209  -0.000191   0.072084  -0.002650
 297   1   3.312773   6.510747  -2.026819  -0.000438   0.156917  -0.002788
 298   8   0.199165   7.761113  -0.344324  -0.000234   0.069346  -0.003373
 299   8   0.466050   8.702894   0.185915  -0.000516   0.153826  -0.003352
 300   8   1.376140   9.655375   0.462282  -0.000429   0.153826  -0.002787
 301   8   2.642493  10.030548   0.202565  -0.000568   0.153826  -0.003690
 302   8   3.607872   9.840460  -0.318246  -0.000257   0.069346  -0.003703
 303   1   0.137288   7.932623   0.226469  -0.000525   0.152164  -0.003449
 304   1   0.782841   9.171805   0.804634  -0.000233   0.152164  -0.001528
 305   1   2.073732   9.959263   0.814510  -0.000232   0.152164  -0.001523
 306   1   3.477326   9.970081   0.252022  -0.000519   0.152164  -0.003413
 307   9  -1.160881   6.057618   2.149420  -0.000840   0.180056  -0.004663
 308   9  -1.152548   6.070087   1.164443  -0.000808   0.180056  -0.004490
 309   1  -0.527621   7.010931   1.674243  -0.001058   0.495969  -0.002134
 310  14   5.713429  10.257825   1.216129  -0.000840   0.179932  -0.004669
 311  14   5.717569  10.252989   2.200550  -0.000810   0.179932  -0.004499
 312   1   4.585363  10.129591   1.712475  -0.001002   0.495641  -0.002021
 313   2   4.154104   3.926282  -1.608624   0.000790   0.102778   0.007688
 314   3   4.382872   3.559552  -1.628481   0.000677   0.102778   0.006584
 315   5   5.093291   3.982740  -1.558547   0.000487   0.102778   0.004737
 316   2   4.028550   4.061440   4.951203   0.000646   0.102777   0.006290
 317   3   4.250103   3.690310   4.931290   0.000717   0.102777   0.006976
 318   6   4.730649   4.499805   4.891621   0.000415   0.102777   0.004039
 319   2  -0.361138   0.994174   2.226965  -0.000021   0.008429  -0.002548
 320   3  -0.170943   0.609620   2.231423  -0.000019   0.008429  -0.002280
 321  10  -0.090114   0.328075   2.171986  -0.000066   0.008429  -0.007796
 322   2  -0.350555   1.009016   0.976906  -0.000022   0.008429  -0.002610
 323   3  -0.160234   0.624638   0.966539  -0.000026   0.008429  -0.003091
 324  10  -0.080367   0.341745   1.020635  -0.000079   0.008429  -0.009419
 325   3   3.612822   3.064340   5.196858   0.001886   0.189770   0.009938
 326   3   1.895447   2.018296   4.975073   0.005246   0.388968   0.013488
 327   3   0.272614   1.038928   3.410482   0.001262   0.388968   0.003244
 328   2   2.628461   3.185660   5.171628   0.005160   0.388968   0.013266
 329   2   0.643415   1.980257   4.367085   0.003860   0.388968   0.009925
 330   2  -0.416291   1.344624   2.765283   0.000088   0.189770   0.000463
 331   3  -0.077767   0.845098   0.446294   0.000085   0.188247   0.000452
 332   3   0.995599   1.510287  -1.115282   0.003795   0.385552   0.009842
 333   3   2.974509   2.722423  -1.872127   0.005148   0.385552   0.013351
 334   2  -0.024263   1.603532  -0.183737   0.001234   0.385552   0.003201
 335   2   1.605922   2.608039  -1.697552   0.005198   0.385552   0.013483
 336   2   3.312376   3.650166  -1.884898   0.002006   0.188247   0.010654
 337   2   4.391323   4.338128  -1.557133   0.000487   0.102775   0.004735
 338   5   5.330721   4.395381  -1.602085   0.000790   0.102775   0.007688
 339   6   5.102026   4.762387  -1.616813   0.000676   0.102775   0.006581
 340   6   4.933124   4.901844   5.110379   0.000174   0.026668   0.006530
 341   2   3.933725   4.269921   5.098909   0.000115   0.026668   0.004309
 342   6   4.942387   4.971142  -1.767125   0.000209   0.048754   0.004284
 343   2   3.914809   4.385450  -1.781004   0.000334   0.048754   0.006855
 344   7   0.367612   7.095173   4.265113  -0.000755   0.215617  -0.003501
 345   7   1.509630   6.496848   5.151328  -0.002206   0.444439  -0.004963
 346   2   0.359149   5.862365   4.425430  -0.000194   0.587924  -0.000330
 347   2   1.771660   5.227092   5.299743   0.000743   0.303901   0.002446
 348   8   1.993707   6.436613  -1.997322  -0.000551   0.215137  -0.002563
 349   8   0.750623   6.960738  -1.211921  -0.002375   0.443358  -0.005356
 350   2   1.173000   5.581621  -1.623040   0.000443   0.586687   0.000754
 351   2  -0.126866   6.217836  -0.595951   0.000071   0.303221   0.000233
 352   2  -0.553204   1.289538   1.010617  -0.000049   0.021038  -0.002349
 353   9  -0.758209   1.497867   1.071640  -0.000094   0.021038  -0.004463
 354  10  -0.202955   0.664038   1.076033  -0.000070   0.021038  -0.003312
 355   2  -0.563261   1.275458   2.196408  -0.000059   0.021038  -0.002827
 356   9  -0.767243   1.485218   2.136881  -0.000120   0.021038  -0.005695
 357  10  -0.211827   0.651616   2.122108  -0.000057   0.021038  -0.002712
 358   9  -1.218247   5.733410   0.574621  -0.000372   0.073526  -0.005056
 359   9  -1.186976   4.829779  -0.203298  -0.000704   0.166467  -0.004227
 360   9  -1.146889   3.405442  -0.383726  -0.000507   0.166467  -0.003045
 361   9  -1.121473   2.207290   0.407906  -0.000792   0.166467  -0.004758
 362   2  -0.880863   5.603515   0.075910  -0.000757   0.158144  -0.004787
 363   2  -0.835677   4.174606  -0.669846  -0.000258   0.158144  -0.001631
 364   2  -0.796465   2.604711  -0.303963  -0.000200   0.158144  -0.001262
 365   2  -0.779992   1.687810   0.640139  -0.000219   0.089828  -0.002438
 366   9  -1.130958   1.896193   2.440726  -0.000338   0.073480  -0.004603
 367   9  -1.160314   2.693969   3.326014  -0.000538   0.166337  -0.003234
 368   9  -1.201025   4.083224   3.685136  -0.000647   0.166337  -0.003888
 369   9  -1.230275   5.371452   3.052468  -0.000905   0.166337  -0.005443
 370   2  -0.808279   1.979322   2.958553  -0.000497   0.158068  -0.003142
 371   2  -0.852123   3.301835   3.878457  -0.000282   0.158068  -0.001783
 372   2  -0.894000   4.904526   3.714717  -0.000470   0.158068  -0.002975
 373   2  -0.914596   5.933368   2.895344  -0.000333   0.089772  -0.003714
 374   3   4.828537   3.223167  -1.682130   0.000268   0.061076   0.004386
 375   4   5.318919   3.216067  -1.716871   0.000183   0.061076   0.002989
 376   5   5.536654   3.655082  -1.677056   0.000266   0.061076   0.004354
 377   3   4.774954   3.232655   4.987877   0.000245   0.061076   0.004003
 378   4   5.264715   3.225665   5.030511   0.000157   0.061076   0.002566
 379   5   5.483071   3.664570   4.992951   0.000251   0.061076   0.004103
 380   3   4.152731  -1.758449   2.524197  -0.000091   0.014621  -0.006213
 381   4   4.642434  -1.732005   2.515737  -0.000079   0.014621  -0.005432
 382  10   3.879511  -1.843207   2.437575  -0.000092   0.014621  -0.006260
 383   3   4.168339  -1.736734   0.691131  -0.000090   0.014621  -0.006187
 384   4   4.657821  -1.710597   0.708551  -0.000076   0.014621  -0.005201
 385  10   3.893701  -1.823466   0.771056  -0.000085   0.014621  -0.005797
 386   3   4.658853  -1.322816  -0.208504  -0.000072   0.027723  -0.002597
 387   4   5.146370  -1.377251  -0.223495  -0.000092   0.027723  -0.003309
 388  11   5.368630  -1.342911  -0.428224  -0.000103   0.027723  -0.003707
 389   3   4.771991   1.407518  -1.949114   0.000076   0.027723   0.002744
 390   4   5.260961   1.388132  -1.986448  -0.000005   0.027723  -0.000198
 391  11   5.472976   1.175242  -2.033567  -0.000075   0.027723  -0.002707
 392   3   4.714234   1.424826   5.259804   0.000124   0.027773   0.004476
 393   4   5.202546   1.405643   5.305029   0.000018   0.027773   0.000643
 394  12   5.413551   1.192641   5.356526  -0.000043   0.027773  -0.001560
 395   3   4.628783  -1.316574   3.526216  -0.000073   0.027773  -0.002637
 396   4   5.115999  -1.370931   3.549197  -0.000090   0.027773  -0.003256
 397  12   5.334740  -1.335716   3.757661  -0.000133   0.027773  -0.004780
 398   4   5.125860   2.425161   5.202794   0.000362   0.256056   0.001413
 399   3   4.411323   2.144001   5.240256   0.000948   0.256056   0.003703
 400   4   4.997488  -1.577268   3.118705  -0.000225   0.157876  -0.001424
 401   3   4.293249  -1.623872   2.935117  -0.000287   0.157876  -0.001818
 402   4   5.017864  -1.637988   0.326067  -0.000175   0.141575  -0.001234
 403   3   4.318494  -1.546150   0.161466  -0.000209   0.141575  -0.001475
 404   4   5.171880   2.103864  -1.931201   0.000274   0.257267   0.001064
 405   3   4.479662   2.437636  -1.894545   0.000941   0.257267   0.003660
 406   3   4.725329   3.713065   4.885017   0.000415   0.102776   0.004037
 407   5   5.427144   4.150357   4.955052   0.000646   0.102776   0.006287
 408   6   5.205664   4.521764   4.940376   0.000717   0.102776   0.006977
 409   5   5.570542   3.939574  -1.780981   0.000333   0.048529   0.006870
 410   3   4.543012   3.353612  -1.781505   0.000208   0.048529   0.004293
 411   5   5.521500   3.939142   5.099726   0.000116   0.026902   0.004298
 412   3   4.522165   3.306990   5.096201   0.000175   0.026902   0.006500
 413  10   3.407537  -1.906660   2.676073  -0.000371   0.073503  -0.005052
 414  10   2.600890  -1.475914   3.441369  -0.000702   0.166403  -0.004220
 415  10   1.349389  -0.790661   3.602608  -0.000506   0.166403  -0.003043
 416  10   0.314342  -0.208384   2.795480  -0.000791   0.166403  -0.004752
 417   3   3.435018  -1.554240   3.180396  -0.000755   0.158105  -0.004774
 418   3   2.168734  -0.870197   3.906515  -0.000256   0.158105  -0.001620
 419   3   0.799993  -0.111446   3.519882  -0.000200   0.158105  -0.001262
 420   3   0.014213   0.336273   2.564136  -0.000215   0.089800  -0.002392
 421  10   0.080149  -0.045976   0.757645  -0.000335   0.073506  -0.004552
 422  10   0.796740  -0.425417  -0.116735  -0.000538   0.166412  -0.003233
 423  10   2.021790  -1.093182  -0.456332  -0.000647   0.166412  -0.003889
 424  10   3.138733  -1.717901   0.194934  -0.000906   0.166412  -0.005446
 425   3   0.313883   0.209821   0.248479  -0.000496   0.158111  -0.003136
 426   3   1.491260  -0.422452  -0.653104  -0.000282   0.158111  -0.001783
 427   3   2.893199  -1.196145  -0.466537  -0.000471   0.158111  -0.002978
 428   3   3.778992  -1.696832   0.367837  -0.000333   0.089804  -0.003707
 429  11   5.428425  -1.141227  -0.876631  -0.000758   0.215212  -0.003520
 430  11   5.439522   0.132680  -1.779685  -0.002138   0.443527  -0.004821
 431   3   4.332248  -0.588004  -1.069385  -0.000235   0.586881  -0.000400
 432   3   4.433649   0.942849  -1.962508   0.000712   0.303328   0.002347
 433  12   5.443998   0.697605   5.363888  -0.000547   0.215540  -0.002536
 434  12   5.358325  -0.661373   4.594798  -0.002415   0.444262  -0.005435
 435   3   4.316979   0.352818   4.968345   0.000547   0.587726   0.000930
 436   3   4.310780  -1.111487   3.960131   0.000085   0.303791   0.000279
 437   4   9.466244   1.257553  -0.192345  -0.000092   0.027726  -0.003309
 438   5   9.640790   1.715811  -0.172614  -0.000076   0.027726  -0.002750
 439  11   9.336149   1.076982  -0.399617  -0.000134   0.027726  -0.004838
 440   4   6.973385   2.432705  -1.974188   0.000016   0.027726   0.000576
 441   5   7.179524   2.876070  -1.931874   0.000118   0.027726   0.004273
 442  11   7.066153   2.147074  -2.022161  -0.000044   0.027726  -0.001576
 443   4   6.908215   2.446308   5.317278   0.000003   0.027783   0.000095
 444   5   7.115099   2.889521   5.277041   0.000081   0.027783   0.002925
 445  12   7.000581   2.160917   5.367929  -0.000071   0.027783  -0.002545
 446   4   9.435432   1.263292   3.579406  -0.000097   0.027783  -0.003480
 447   5   9.610305   1.721489   3.561181  -0.000069   0.027783  -0.002497
 448  12   9.301877   1.083656   3.785414  -0.000105   0.027783  -0.003776
 449   4   9.983767   1.525718   2.553058  -0.000080   0.014615  -0.005488
 450   5  10.231292   1.948941   2.566788  -0.000093   0.014615  -0.006348
 451  13  10.432563   2.153642   2.483581  -0.000085   0.014615  -0.005850
 452   4   9.976285   1.533480   0.746391  -0.000078   0.014615  -0.005311
 453   5  10.223703   1.956815   0.734248  -0.000089   0.014615  -0.006104
 454  13  10.425664   2.160800   0.817541  -0.000091   0.014615  -0.006246
 455   5   9.976649   1.913749   3.152870  -0.000236   0.157893  -0.001495
 456   4   9.744012   1.246155   2.973914  -0.000238   0.157893  -0.001505
 457   5  10.050140   1.885791   0.361411  -0.000256   0.141492  -0.001809
 458   4   9.692058   1.277079   0.200639  -0.000199   0.141492  -0.001409
 459   5   6.676361   3.475913  -1.921072   0.000960   0.257250   0.003733
 460   4   6.097786   2.970303  -1.882308   0.000366   0.257250   0.001423
 461   5   6.337179   3.618468   5.210838   0.000968   0.256002   0.003781
 462   4   6.315463   2.851275   5.254561   0.000309   0.256002   0.001207
 463  10   3.758976  -1.982583   1.109394  -0.000837   0.179863  -0.004655
 464  10   3.750598  -1.994239   2.093318  -0.000808   0.179863  -0.004493
 465   4   4.884962  -1.862763   1.612468  -0.001049   0.495459  -0.002116
 466  11   9.279979   0.540410  -0.385793  -0.000235   0.069342  -0.003384
 467  11   9.010707  -0.410279   0.126876  -0.000513   0.153815  -0.003337
 468  11   8.099438  -1.367206   0.382773  -0.000403   0.153815  -0.002623
 469  11   6.834307  -1.737719   0.111174  -0.000563   0.153815  -0.003659
 470  11   5.871240  -1.538664  -0.410386  -0.000253   0.069342  -0.003649
 471   4   9.339343   0.359085   0.182213  -0.000507   0.152160  -0.003332
 472   4   8.691221  -0.889716   0.736017  -0.000170   0.152160  -0.001117
 473   4   7.400368  -1.677039   0.726704  -0.000215   0.152160  -0.001411
 474   4   5.999307  -1.678085   0.158116  -0.000470   0.152160  -0.003086
 475  11   5.995650   1.249706  -2.184391  -0.000200   0.072022  -0.002784
 476  11   6.762352   1.717400  -2.178902  -0.000190   0.072022  -0.002645
 477   4   6.172948   1.819915  -2.060229  -0.000451   0.156814  -0.002879
 478  12   6.695598   1.732190   5.520802  -0.000197   0.071683  -0.002750
 479  12   5.932667   1.266677   5.515322  -0.000192   0.071683  -0.002672
 480   4   6.109892   1.835648   5.392044  -0.000435   0.156250  -0.002782
 481  12   5.837582  -1.531295   3.748998  -0.000232   0.069319  -0.003350
 482  12   6.808888  -1.731754   3.244886  -0.000513   0.153736  -0.003337
 483  12   8.077681  -1.362294   2.993202  -0.000426   0.153736  -0.002773
 484  12   8.984387  -0.405033   3.260068  -0.000563   0.153736  -0.003661
 485  12   9.245680   0.547122   3.772781  -0.000256   0.069319  -0.003696
 486   4   5.975072  -1.672713   3.183279  -0.000520   0.152138  -0.003417
 487   4   7.384788  -1.673355   2.638701  -0.000230   0.152138  -0.001514
 488   4   8.675009  -0.886518   2.647705  -0.000229   0.152138  -0.001503
 489   4   9.314219   0.363655   3.206582  -0.000508   0.152138  -0.003341
 490  13  10.629351   2.201388   2.141760  -0.000840   0.179794  -0.004674
 491  13  10.625278   2.205614   1.158118  -0.000808   0.179794  -0.004494
 492   4   9.998319   1.256080   1.648473  -0.000996   0.495276  -0.002011
 493   5  10.107370   6.878344   2.307041  -0.000026   0.008443  -0.003092
 494   6   9.852574   7.223489   2.302331  -0.000022   0.008443  -0.002604
 495  13  10.321317   6.678064   2.248321  -0.000079   0.008443  -0.009411
 496   5  10.102104   6.884424   1.039869  -0.000019   0.008443  -0.002287
 497   6   9.847370   7.229497   1.050008  -0.000021   0.008443  -0.002543
 498  13  10.316524   6.683598   1.094885  -0.000066   0.008443  -0.007789
 499   6   9.552845   7.441403   0.521424   0.000087   0.188194   0.000460
 500   6   8.486262   6.802348  -1.055024   0.003795   0.385434   0.009845
 501   6   6.511126   5.603275  -1.840233   0.005146   0.385434   0.013350
 502   5   9.502077   6.693574  -0.121135   0.001235   0.385434   0.003204
 503   5   7.878688   5.714578  -1.657908   0.005196   0.385434   0.013482
 504   5   6.173534   4.675991  -1.869950   0.002005   0.188194   0.010654
 505   6   5.841690   5.143159   5.219218   0.001886   0.189750   0.009937
 506   6   7.559839   6.192668   5.022722   0.005246   0.388923   0.013488
 507   6   9.189551   7.198084   3.482280   0.001263   0.388923   0.003248
 508   5   6.826098   5.022243   5.196364   0.005160   0.388923   0.013267
 509   5   8.814519   6.240860   4.421159   0.003860   0.388923   0.009926
 510   5   9.881362   6.903261   2.835225   0.000087   0.189750   0.000458
 511  11   7.491568   1.893341  -2.024036  -0.000546   0.215228  -0.002539
 512  11   8.731978   1.355699  -1.242239  -0.002414   0.443563  -0.005443
 513   5   8.310816   2.741709  -1.631703   0.000443   0.586921   0.000754
 514   5   9.606982   2.087796  -0.609771   0.000072   0.303350   0.000237
 515  12   9.092185   1.127689   4.232943  -0.000758   0.215603  -0.003514
 516  12   7.946606   1.710754   5.124509  -0.002205   0.444405  -0.004963
 517   5   9.099951   2.357578   4.414293  -0.000195   0.587887  -0.000332
 518   5   7.683956   2.977793   5.293497   0.000744   0.303880   0.002449
 519  13  10.597432   6.357153   2.505203  -0.000334   0.073481  -0.004551
 520  13  10.623147   5.543997   3.376536  -0.000538   0.166340  -0.003233
 521  13  10.662604   4.148642   3.711452  -0.000646   0.166340  -0.003886
 522  13  10.694844   2.871683   3.056411  -0.000906   0.166340  -0.005444
 523   5  10.272552   6.264926   3.020110  -0.000496   0.158069  -0.003135
 524   5  10.312716   4.926495   3.916924  -0.000282   0.158069  -0.001785
 525   5  10.355633   3.326892   3.725303  -0.000470   0.158069  -0.002976
 526   5  10.379967   2.312561   2.888087  -0.000334   0.089773  -0.003722
 527  13  10.693591   2.551920   0.574818  -0.000372   0.073510  -0.005054
 528  13  10.665503   3.467905  -0.188292  -0.000703   0.166423  -0.004227
 529  13  10.625901   4.894712  -0.345847  -0.000507   0.166423  -0.003044
 530  13  10.596794   6.079831   0.464596  -0.000791   0.166423  -0.004752
 531   5  10.358351   2.689797   0.076885  -0.000757   0.158117  -0.004786
 532   5  10.316100   4.130354  -0.645668  -0.000258   0.158117  -0.001630
 533   5  10.274970   5.693886  -0.254841  -0.000199   0.158117  -0.001259
 534   5  10.254204   6.595433   0.703514  -0.000215   0.089809  -0.002394
 535   7   4.010495   7.504929   5.418525  -0.000547   0.215635  -0.002537
 536   7   4.099519   8.877552   4.672865  -0.002418   0.444478  -0.005440
 537   6   5.139117   7.856629   5.033667   0.000546   0.587968   0.000929
 538   6   5.149598   9.338672   4.050200   0.000085   0.303926   0.000278
 539   8   4.052700   9.451096  -0.789336  -0.000760   0.215189  -0.003534
 540   8   4.045548   8.193031  -1.714178  -0.002139   0.443477  -0.004822
 541   6   5.149696   8.901275  -0.986839  -0.000238   0.586820  -0.000405
 542   6   5.052221   7.386161  -1.906582   0.000712   0.303296   0.002347
 543   6   9.690453   7.537924   1.084810  -0.000060   0.021063  -0.002826
 544  13  10.085617   6.939817   1.150229  -0.000057   0.021063  -0.002711
 545  14   9.598466   7.815104   1.146894  -0.000120   0.021063  -0.005694
 546   6   9.695339   7.532151   2.272226  -0.000049   0.021063  -0.002344
 547  13  10.089927   6.934723   2.197744  -0.000070   0.021063  -0.003311
 548  14   9.602855   7.809917   2.213599  -0.000094   0.021063  -0.004457
 549  14   9.393771   8.327442   0.848133  -0.000338   0.073499  -0.004602
 550  14   8.681018   8.721423  -0.022840  -0.000538   0.166394  -0.003233
 551  14   7.457492   9.394716  -0.356591  -0.000647   0.166394  -0.003890
 552  14   6.337692  10.008428   0.300018  -0.000907   0.166394  -0.005449
 553   6   9.162304   8.080201   0.333770  -0.000496   0.158096  -0.003140
 554   6   7.988902   8.727409  -0.562205  -0.000282   0.158096  -0.001783
 555   6   6.586176   9.497817  -0.368940  -0.000471   0.158096  -0.002979
 556   6   5.696703   9.984472   0.469676  -0.000334   0.089795  -0.003715
 557  14   6.058158  10.155595   2.783316  -0.000371   0.073493  -0.005051
 558  14   6.861545   9.712090   3.544557  -0.000702   0.166377  -0.004218
 559  14   8.112288   9.024303   3.699555  -0.000506   0.166377  -0.003042
 560  14   9.150745   8.455701   2.887317  -0.000791   0.166377  -0.004755
 561   6   6.028572   9.794770   3.281487  -0.000755   0.158086  -0.004773
 562   6   7.291724   9.098695   4.001262  -0.000256   0.158086  -0.001618
 563   6   8.662036   8.346622   3.607839  -0.000199   0.158086  -0.001261
 564   6   9.451894   7.915028   2.648225  -0.000218   0.089788  -0.002433
 565  10  -0.241363   0.259911   1.700321  -0.000497   0.352414  -0.001411
 566   9  -0.984513   1.483788   1.496023  -0.000493   0.352414  -0.001398
 567  14   9.711039   8.005842   1.787124  -0.000494   0.352853  -0.001401
 568  13  10.455145   6.785669   1.565346  -0.000499   0.352853  -0.001415
 =====================================================

              2350308  WORDS OF DYNAMIC MEMORY USED
 EXECUTION OF GAMESS TERMINATED NORMALLY Tue Nov 22 19:29:00 2016
 DDI: 263640 bytes (0.3 MB / 0 MWords) used by master data server.

 ----------------------------------------
 CPU timing information for all processes
 ========================================
 0: 217.456 + 0.88 = 217.544
 ----------------------------------------
 ddikick.x: exited gracefully.
