----- GAMESS execution script -----

          ******************************************************
          *         GAMESS VERSION =  5 DEC 2014 (R1)          *
          *             FROM IOWA STATE UNIVERSITY             *
          * M.W.SCHMIDT, K.K.BALDRIDGE, J.A.BOATZ, S.T.ELBERT, *
          *   M.S.GORDON, J.H.JENSEN, S.KOSEKI, N.MATSUNAGA,   *
          *          K.A.NGUYEN, S.J.SU, T.L.WINDUS,           *
          *       TOGETHER WITH M.DUPUIS, J.A.MONTGOMERY       *
          *         J.COMPUT.CHEM.  14, 1347-1363(1993)        *
          **************** 64 BIT LINUX VERSION ****************

 EXECUTION OF GAMESS BEGUN Tue Nov 22 19:33:45 2016

            ECHO OF THE FIRST FEW INPUT CARDS -
 INPUT CARD>! SELECT RESTRICTED HARTREE-FOCK AS DEFAULT                                     
 INPUT CARD>$contrl scftyp=rhf $end                                                         
 INPUT CARD>                                                                                
 INPUT CARD>! THEORY: HF OR DFT                                                             
 INPUT CARD> $contrl mplevl=0 $end                                                          
 INPUT CARD>                                                                                
 INPUT CARD> $system timlim=10000 mwords=20 $end                                            
 INPUT CARD> $SCF DIRSCF=.TRUE. $end                                                        
 INPUT CARD>                                                                                
 INPUT CARD>                                                                                
 INPUT CARD>! BASIS SETS                                                                    
 INPUT CARD>! 6-311G(d,p)                                                                   
 INPUT CARD> $BASIS GBASIS=N311 NGAUSS=6 NDFUNC=1 NPFUNC=1 $END                             
 INPUT CARD>                                                                                
 INPUT CARD>! One of the following                                                          
 INPUT CARD> $guess guess=HUCKEL $end                                                       
 INPUT CARD>                                                                                
 INPUT CARD> $statpt projct=.FALSE. $end                                                    
 INPUT CARD> $STATPT IFREEZ(1)=1,2,3 $END                                                   
 INPUT CARD>                                                                                
 INPUT CARD>! Optimize the geometry with COSMO effects                                      
 INPUT CARD> $statpt opttol=0.0005 nstep=50 $end                                            
 INPUT CARD> $contrl nzvar=1 $end                                                           
 INPUT CARD> $zmat dlc=.t. auto=.t. $end                                                    
 INPUT CARD> $contrl runtyp=OPTIMIZE maxit=200 $end                                         
 INPUT CARD>                                                                                
 INPUT CARD>! Run COSMO on perfect conductor                                                
 INPUT CARD> $COSGMS PRFCND=.TRUE. $end                                                     
 INPUT CARD>                                                                                
 INPUT CARD>! Specifying RSOLV                                                              
 INPUT CARD> $COSGMS COSRAD = 1.4 $end                                                      
 INPUT CARD>                                                                                
 INPUT CARD>! available memory                                                              
 INPUT CARD> $SYSTEM MWORDS=40 $END                                                         
 INPUT CARD>                                                                                
 INPUT CARD> $DATA                                                                          
 INPUT CARD>Naphthalene, 1,4-dimethyl-, ID: C571584                                         
 INPUT CARD>C1                                                                              
 INPUT CARD>C      6.0      4.6066000000    4.7750000000    1.5071000000                    
 INPUT CARD>C      6.0      4.5936000000    6.1868000000    1.0391000000                    
 INPUT CARD>C      6.0      3.3987000000    4.0703000000    1.7974000000                    
 INPUT CARD>C      6.0      5.8134000000    4.1346000000    1.6549000000                    
 INPUT CARD>C      6.0      3.4600000000    2.7247000000    2.2258000000                    
 INPUT CARD>C      6.0      2.1267000000    4.6938000000    1.6674000000                    
 INPUT CARD>C      6.0      5.8756000000    2.7940000000    2.0839000000                    
 INPUT CARD>C      6.0      4.7312000000    2.0878000000    2.3671000000                    
 INPUT CARD>C      6.0      2.2449000000    2.0396000000    2.5069000000                    
 INPUT CARD>C      6.0      0.9755000000    4.0109000000    1.9453000000                    
 INPUT CARD>C      6.0      4.8327000000    0.6735000000    2.8154000000                    
 INPUT CARD>C      6.0      1.0360000000    2.6649000000    2.3697000000                    
   40000000 WORDS OF MEMORY AVAILABLE

     BASIS OPTIONS
     -------------
     GBASIS=N311         IGAUSS=       6      POLAR=POPN311 
     NDFUNC=       1     NFFUNC=       0     DIFFSP=       F
     NPFUNC=       1      DIFFS=       F     BASNAM=        


     RUN TITLE
     ---------
 Naphthalene, 1,4-dimethyl-, ID: C571584                                         

 THE POINT GROUP OF THE MOLECULE IS C1      
 THE ORDER OF THE PRINCIPAL AXIS IS     0

 ATOM      ATOMIC                      COORDINATES (BOHR)
           CHARGE         X                   Y                   Z
 C           6.0     8.7052117350        9.0234415914        2.8480060361
 C           6.0     8.6806452972       11.6913567408        1.9636142738
 C           6.0     6.4226117145        7.6917516878        3.3965934903
 C           6.0    10.9857330570        7.8132610688        3.1273075371
 C           6.0     6.5384519175        5.1489363987        4.2061521035
 C           6.0     4.0188802581        8.8699958412        3.1509291119
 C           6.0    11.1032740135        5.2798944097        3.9379999858
 C           6.0     8.9406715931        3.9453699172        4.4731703855
 C           6.0     4.2422458698        3.8542851246        4.7373540786
 C           6.0     1.8434277010        7.5795019642        3.6760839639
 C           6.0     9.1324787809        1.2727304527        5.3203345458
 C           6.0     1.9577561233        5.0359307847        4.4780836731
 H           1.0     9.3416714477       11.8157007108        0.0000000000
 H           1.0     9.9320218463       12.8724354832        3.1231501399
 H           1.0     6.7782581454       12.5351193944        2.0348569436
 H           1.0    12.7503591844        8.8168945409        2.7166700799
 H           1.0     3.9559523827       10.8540191557        2.5312879606
 H           1.0    12.9616305498        4.3856760723        4.1354763515
 H           1.0     4.3168900464        1.8806553030        5.3634202984
 H           1.0     0.0000000000        8.4982867394        3.4831429406
 H           1.0     8.3036449626        1.0242314853        7.2085487528
 H           1.0    11.1030850409        0.6275780005        5.4223797492
 H           1.0     8.1331916786        0.0000000000        4.0190692307
 H           1.0     0.1989881465        4.0271950524        4.8896659932

          INTERNUCLEAR DISTANCES (ANGS.)




     $CONTRL OPTIONS
     ---------------
 SCFTYP=RHF          RUNTYP=OPTIMIZE     EXETYP=RUN     
 MPLEVL=       0     CITYP =NONE         CCTYP =NONE         VBTYP =NONE    
 DFTTYP=NONE         TDDFT =NONE    
 MULT  =       1     ICHARG=       0     NZVAR =       1     COORD =UNIQUE  
 PP    =NONE         RELWFN=NONE         LOCAL =NONE         NUMGRD=       F
 ISPHER=      -1     NOSYM =       0     MAXIT =     200     UNITS =ANGS    
 PLTORB=       F     MOLPLT=       F     AIMPAC=       F     FRIEND=        
 NPRINT=       7     IREST =       0     GEOM  =INPUT   
 NORMF =       0     NORMP =       0     ITOL  =      20     ICUT  =       9
 INTTYP=BEST         GRDTYP=BEST         QMTTOL= 1.0E-06

     $SYSTEM OPTIONS
     ---------------
  REPLICATED MEMORY=    40000000 WORDS (ON EVERY NODE).
 DISTRIBUTED MEMDDI=           0 MILLION WORDS IN AGGREGATE,
 MEMDDI DISTRIBUTED OVER   1 PROCESSORS IS           0 WORDS/PROCESSOR.
 TOTAL MEMORY REQUESTED ON EACH PROCESSOR=    40000000 WORDS.
 TIMLIM=       10000.00 MINUTES, OR       6.9 DAYS.
 PARALL= F  BALTYP=  DLB     KDIAG=    0  COREFL= F
 MXSEQ2=     300 MXSEQ3=     150  mem10=         0

     $COSGMS OPTIONS
     ---------------
     EPSI  =   INFTY     NSPA  =      92     COSRAD=    1.40
     DISEX =   10.00     OUTCHG=DBLCAV       COSBUG=       F
     COSWRT=       F     DCOSMO=       F

     SYMMETRY COORDINATES WILL NOT BE USED FOR 
     THE COSMO CALCULATION, EVEN IF SPECIFIED:
         -- SWITCHING TO C1 POINT GROUP --


     DEFINITION OF CAVITY
     ---------------------------
     ATOM         COORDINATES           RADIUS 
     1    8.7052    9.0234    2.8480    2.0000
     2    8.6806   11.6914    1.9636    2.0000
     3    6.4226    7.6918    3.3966    2.0000
     4   10.9857    7.8133    3.1273    2.0000
     5    6.5385    5.1489    4.2062    2.0000
     6    4.0189    8.8700    3.1509    2.0000
     7   11.1033    5.2799    3.9380    2.0000
     8    8.9407    3.9454    4.4732    2.0000
     9    4.2422    3.8543    4.7374    2.0000
    10    1.8434    7.5795    3.6761    2.0000
    11    9.1325    1.2727    5.3203    2.0000
    12    1.9578    5.0359    4.4781    2.0000
    13    9.3417   11.8157    0.0000    1.3000
    14    9.9320   12.8724    3.1232    1.3000
    15    6.7783   12.5351    2.0349    1.3000
    16   12.7504    8.8169    2.7167    1.3000
    17    3.9560   10.8540    2.5313    1.3000
    18   12.9616    4.3857    4.1355    1.3000
    19    4.3169    1.8807    5.3634    1.3000
    20    0.0000    8.4983    3.4831    1.3000
    21    8.3036    1.0242    7.2085    1.3000
    22   11.1031    0.6276    5.4224    1.3000
    23    8.1332    0.0000    4.0191    1.3000
    24    0.1990    4.0272    4.8897    1.3000

          ----------------
          PROPERTIES INPUT
          ----------------

     MOMENTS            FIELD           POTENTIAL          DENSITY
 IEMOM =       1   IEFLD =       0   IEPOT =       0   IEDEN =       0
 WHERE =COMASS     WHERE =NUCLEI     WHERE =NUCLEI     WHERE =NUCLEI  
 OUTPUT=BOTH       OUTPUT=BOTH       OUTPUT=BOTH       OUTPUT=BOTH    
 IEMINT=       0   IEFINT=       0                     IEDINT=       0
                                                       MORB  =       0
          EXTRAPOLATION IN EFFECT
          SOSCF IN EFFECT
 ORBITAL PRINTING OPTION: NPREO=     1   300     2     1

     -------------------------------
     INTEGRAL TRANSFORMATION OPTIONS
     -------------------------------
     NWORD  =            0
     CUTOFF = 1.0E-09     MPTRAN =       0
     DIRTRF =       T     AOINTS =DUP     

          ----------------------
          INTEGRAL INPUT OPTIONS
          ----------------------
 NOPK  =       1 NORDER=       0 SCHWRZ=       T


 -----------------------------------------------
  STATISTICS ON AUTOMATIC COORDINATE GENERATION 
 -----------------------------------------------
  NUMBER OF USER SPECIFIED BONDS                             0
  NUMBER OF BONDS                                           25
  NUMBER OF ANGLES                                          42
  NUMBER OF TORSIONS                                        56
  NUMBER OF EXTRA COORD.                                     0
  NUMBER OF EXTRA COORD. FOR CONSTRAINTS                     0
  NUMBER OF CONSTRAINED COORD.                               0

  TOTAL NUMBER OF PRIMITIVES                               123
 -----------------------------------------------

   --- ENCODED Z MATRIX ---
 COORD  TYPE   I   J   K   L   M   N
    1      1    1   4
    2      1    1   3
    3      1    1   2
    4      1    2  14
    5      1    2  15
    6      1    2  13
    7      1    3   6
    8      1    3   5
    9      1    4   7
   10      1    4  16
   11      1    5   8
   12      1    5   9
   13      1    6  10
   14      1    6  17
   15      1    7  18
   16      1    7   8
   17      1    8  11
   18      1    9  12
   19      1    9  19
   20      1   10  12
   21      1   10  20
   22      1   11  23
   23      1   11  22
   24      1   11  21
   25      1   12  24
   26      2    1   3   5
   27      2    1   4   7
   28      2    1   2  15
   29      2    1   4  16
   30      2    1   2  14
   31      2    1   2  13
   32      2    1   3   6
   33      2    2   1   4
   34      2    2   1   3
   35      2    3   6  10
   36      2    3   5   8
   37      2    3   1   4
   38      2    3   5   9
   39      2    3   6  17
   40      2    4   7   8
   41      2    4   7  18
   42      2    5   9  19
   43      2    5   9  12
   44      2    5   8  11
   45      2    5   8   7
   46      2    5   3   6
   47      2    6  10  12
   48      2    6  10  20
   49      2    7   8  11
   50      2    7   4  16
   51      2    8   7  18
   52      2    8   5   9
   53      2    8  11  21
   54      2    8  11  22
   55      2    8  11  23
   56      2    9  12  10
   57      2    9  12  24
   58      2   10   6  17
   59      2   10  12  24
   60      2   12  10  20
   61      2   12   9  19
   62      2   13   2  15
   63      2   13   2  14
   64      2   14   2  15
   65      2   21  11  22
   66      2   21  11  23
   67      2   22  11  23
   68      3    1   4   7  18
   69      3    1   3   5   8
   70      3    1   3   6  17
   71      3    1   3   6  10
   72      3    1   3   5   9
   73      3    1   4   7   8
   74      3    2   1   4   7
   75      3    2   1   4  16
   76      3    2   1   3   6
   77      3    2   1   3   5
   78      3    3   1   2  14
   79      3    3   5   9  19
   80      3    3   5   9  12
   81      3    3   1   4  16
   82      3    3   1   2  15
   83      3    3   1   4   7
   84      3    3   5   8  11
   85      3    3   5   8   7
   86      3    3   6  10  20
   87      3    3   6  10  12
   88      3    3   1   2  13
   89      3    4   1   2  13
   90      3    4   1   2  14
   91      3    4   7   8  11
   92      3    4   1   3   5
   93      3    4   7   8   5
   94      3    4   1   2  15
   95      3    4   1   3   6
   96      3    5   8  11  23
   97      3    5   9  12  24
   98      3    5   9  12  10
   99      3    5   3   6  17
  100      3    5   8   7  18
  101      3    5   8  11  21
  102      3    5   8  11  22
  103      3    5   3   6  10
  104      3    6   3   5   9
  105      3    6  10  12  24
  106      3    6  10  12   9
  107      3    6   3   5   8
  108      3    7   8  11  21
  109      3    7   8  11  22
  110      3    7   8  11  23
  111      3    7   8   5   9
  112      3    8   5   9  12
  113      3    8   5   9  19
  114      3    8   7   4  16
  115      3    9   5   8  11
  116      3    9  12  10  20
  117      3   10  12   9  19
  118      3   11   8   7  18
  119      3   12  10   6  17
  120      3   16   4   7  18
  121      3   17   6  10  20
  122      3   19   9  12  24
  123      3   20  10  12  24

          INDEP./SYM. INTERNAL COORDINATES
          --------------------------------
 CRD  1=  -0.2407 (  2) -0.1212 (  7)  0.2419 ( 11)  0.1214 ( 12) -0.1534 ( 13)
           0.1534 ( 18)  0.1483 ( 26) -0.3437 ( 32)  0.2702 ( 33) -0.3231 ( 34)
          -0.1478 ( 36) -0.1956 ( 38)  0.3263 ( 44)  0.1954 ( 46) -0.2720 ( 49)
           0.3434 ( 52)
 CRD  2=   0.1222 (  1) -0.2080 (  2) -0.1100 (  7) -0.1656 (  8)  0.1797 (  9)
          -0.2082 ( 11) -0.1089 ( 12)  0.1216 ( 16) -0.1260 ( 28) -0.1189 ( 32)
           0.4151 ( 33) -0.3982 ( 34) -0.3969 ( 44)  0.4129 ( 49) -0.1168 ( 52)
           0.1268 ( 54)
 CRD  3=  -0.1326 (  3) -0.1283 ( 17)  0.1410 ( 30) -0.2347 ( 31)  0.1595 ( 53)
          -0.2226 ( 55) -0.1062 ( 68)  0.2678 ( 74)  0.1605 ( 75) -0.2284 ( 76)
          -0.2673 ( 77)  0.1966 ( 83)  0.2667 ( 84)  0.1943 ( 85) -0.2688 ( 91)
          -0.1941 ( 92) -0.1974 ( 93) -0.1382 ( 94) -0.1552 ( 95)  0.1552 (111)
           0.1066 (114)  0.2277 (115) -0.1602 (118)
 CRD  4=  -0.1176 (  1) -0.1211 (  2) -0.4186 (  3) -0.2551 (  8) -0.2480 (  9)
          -0.1144 ( 11) -0.1123 ( 16) -0.4150 ( 17) -0.1107 ( 26) -0.1177 ( 27)
          -0.1071 ( 28) -0.1555 ( 30) -0.1209 ( 33) -0.1105 ( 34) -0.1126 ( 36)
           0.2316 ( 37) -0.1201 ( 40) -0.1181 ( 44)  0.2297 ( 45) -0.1117 ( 49)
          -0.1631 ( 53)  0.1056 ( 62)  0.1056 ( 63)  0.1125 ( 64)  0.1098 ( 65)
           0.1069 ( 66)  0.1035 ( 67)
 CRD  5=   0.3127 (  1)  0.1212 (  2)  0.1445 (  3)  0.1490 (  7) -0.1195 ( 11)
          -0.1427 ( 12) -0.3137 ( 16) -0.1596 ( 17) -0.1087 ( 28)  0.2036 ( 29)
           0.1255 ( 30)  0.1604 ( 32)  0.3222 ( 33) -0.2347 ( 34)  0.1716 ( 41)
           0.2282 ( 44) -0.3259 ( 49) -0.1700 ( 50) -0.2005 ( 51) -0.1543 ( 52)
          -0.1807 ( 54)
 CRD  6=   0.1408 ( 30) -0.1640 ( 31) -0.1527 ( 53)  0.1535 ( 55)  0.2463 ( 69)
          -0.1739 ( 70) -0.1408 ( 71)  0.2363 ( 72)  0.1080 ( 73) -0.2320 ( 76)
          -0.2437 ( 77) -0.1617 ( 79) -0.1303 ( 80) -0.2419 ( 84) -0.1581 ( 85)
          -0.1593 ( 92) -0.1476 ( 95) -0.1623 ( 99)  0.1187 (102) -0.1292 (103)
           0.2249 (104)  0.1212 (105)  0.1668 (106)  0.2348 (107) -0.1478 (111)
          -0.1405 (112) -0.1719 (113) -0.2316 (115)  0.1213 (116)
 CRD  7=   0.1977 (  2)  0.3005 (  3) -0.3050 (  7) -0.1862 ( 11)  0.3155 ( 12)
          -0.1032 ( 14) -0.3011 ( 17)  0.1042 ( 19)  0.2564 ( 26) -0.1245 ( 32)
           0.1157 ( 34)  0.1151 ( 35) -0.2596 ( 36) -0.1451 ( 37)  0.1292 ( 38)
          -0.1811 ( 39)  0.1790 ( 42) -0.1103 ( 43) -0.1211 ( 44)  0.1506 ( 45)
          -0.1320 ( 46)  0.1129 ( 47)  0.1304 ( 52) -0.1149 ( 56)  0.1006 ( 57)
 CRD  8=   0.2395 (  1)  0.2773 (  2)  0.3433 (  7)  0.1270 ( 10)  0.2867 ( 11)
           0.3367 ( 12)  0.1236 ( 13)  0.1288 ( 15)  0.2451 ( 16)  0.1252 ( 18)
          -0.1025 ( 20) -0.1376 ( 28)  0.1011 ( 29)  0.1656 ( 32) -0.1707 ( 34)
           0.1215 ( 35)  0.1431 ( 37)  0.1245 ( 43) -0.1707 ( 44)  0.1365 ( 45)
           0.1073 ( 51)  0.1645 ( 52)  0.1393 ( 54) -0.1773 ( 58) -0.1758 ( 61)
 CRD  9=   0.1594 ( 30) -0.1846 ( 31)  0.1736 ( 53) -0.1721 ( 55) -0.1439 ( 70)
          -0.3133 ( 71)  0.1793 ( 72)  0.1202 ( 76)  0.1795 ( 78)  0.1306 ( 80)
          -0.1280 ( 81)  0.1203 ( 82)  0.2028 ( 86)  0.1320 ( 87)  0.1711 ( 88)
           0.2534 ( 95) -0.1411 ( 96) -0.2029 ( 97) -0.1319 ( 98)  0.1290 (100)
          -0.1416 (101) -0.1939 (102) -0.1300 (103) -0.1800 (107) -0.2539 (111)
           0.3140 (112)  0.1416 (113) -0.1202 (115)
 CRD 10=  -0.2130 (  1)  0.1469 (  2) -0.2036 (  3) -0.1110 (  5)  0.1363 ( 10)
          -0.1479 ( 11)  0.1658 ( 13) -0.1368 ( 15)  0.2116 ( 16)  0.2018 ( 17)
          -0.1646 ( 18) -0.1923 ( 27) -0.3804 ( 28)  0.1468 ( 30)  0.1310 ( 38)
           0.1917 ( 40) -0.1632 ( 41) -0.1302 ( 46)  0.1600 ( 50)  0.2144 ( 53)
          -0.2680 ( 54)  0.2235 ( 55)  0.1086 ( 59) -0.1077 ( 60)  0.1349 ( 62)
           0.1059 ( 64) -0.1815 ( 66)
 CRD 11=   0.1064 (  8) -0.3144 ( 13) -0.3158 ( 18) -0.4575 ( 20) -0.2355 ( 21)
          -0.2332 ( 25) -0.1204 ( 35)  0.3036 ( 39)  0.3037 ( 42) -0.1199 ( 43)
           0.1618 ( 47)  0.1597 ( 56) -0.1832 ( 58) -0.2258 ( 59) -0.2268 ( 60)
          -0.1837 ( 61)
 CRD 12=   0.3564 ( 30) -0.4195 ( 31) -0.3966 ( 53)  0.3915 ( 55)  0.1239 ( 62)
          -0.1465 ( 64)  0.1350 ( 65) -0.1365 ( 67) -0.1254 ( 69) -0.1200 ( 72)
          -0.1291 ( 73)  0.1263 ( 74)  0.1252 ( 91) -0.1441 ( 94) -0.1146 (104)
          -0.1200 (107) -0.1091 (108) -0.1101 (110)
 CRD 13=  -0.3447 ( 13)  0.3450 ( 18)  0.1115 ( 19) -0.1145 ( 28)  0.2435 ( 39)
          -0.2291 ( 42)  0.1212 ( 47) -0.3182 ( 48) -0.1126 ( 56)  0.3044 ( 57)
          -0.3262 ( 58) -0.1918 ( 59)  0.1970 ( 60)  0.3285 ( 61)
 CRD 14=   0.1270 (  8) -0.4721 (  9) -0.1531 ( 10) -0.1489 ( 15)  0.1450 ( 20)
           0.1164 ( 27) -0.1157 ( 28)  0.2911 ( 29)  0.1124 ( 40) -0.4062 ( 41)
          -0.4075 ( 50)  0.2938 ( 51)  0.1266 ( 54)
 CRD 15=   0.1210 (  7)  0.2401 (  8)  0.1750 (  9)  0.1232 ( 12)  0.2047 ( 14)
           0.2004 ( 19)  0.3929 ( 20) -0.1372 ( 28) -0.1551 ( 29) -0.1586 ( 35)
           0.2277 ( 39)  0.1699 ( 41)  0.2350 ( 42) -0.1535 ( 43) -0.2801 ( 48)
           0.1699 ( 50) -0.1514 ( 51)  0.1177 ( 54) -0.2932 ( 57)  0.2074 ( 59)
           0.1969 ( 60)
 CRD 16=   0.2520 (  1)  0.1240 (  5)  0.1330 ( 10) -0.1173 ( 13)  0.1222 ( 15)
           0.2458 ( 16) -0.1204 ( 18)  0.1102 ( 20) -0.1215 ( 23)  0.3846 ( 28)
           0.1649 ( 29) -0.2422 ( 30) -0.1536 ( 31) -0.1031 ( 41) -0.1639 ( 48)
          -0.1045 ( 50)  0.1513 ( 51)  0.1899 ( 53) -0.3769 ( 54)  0.1905 ( 55)
          -0.1610 ( 57)  0.1639 ( 59)  0.1605 ( 60)  0.1594 ( 63) -0.1550 ( 66)
 CRD 17=  -0.2101 (  8) -0.2332 ( 13) -0.2851 ( 14) -0.2241 ( 18) -0.2812 ( 19)
          -0.1150 ( 28)  0.2525 ( 35) -0.1252 ( 38)  0.2504 ( 43) -0.1230 ( 46)
          -0.1286 ( 47) -0.1825 ( 48)  0.1179 ( 54) -0.1260 ( 56) -0.1786 ( 57)
          -0.2423 ( 58)  0.3046 ( 59)  0.3111 ( 60) -0.2382 ( 61)
 CRD 18=  -0.1068 (  1)  0.2054 (  3) -0.2592 ( 10)  0.2668 ( 15)  0.1202 ( 16)
          -0.2050 ( 17) -0.1056 ( 23)  0.2585 ( 27) -0.2130 ( 28) -0.2592 ( 29)
           0.2326 ( 30)  0.1791 ( 31) -0.2623 ( 40) -0.1006 ( 47)  0.2667 ( 51)
          -0.3686 ( 54)  0.1045 ( 56) -0.1850 ( 63)  0.1372 ( 65)  0.1284 ( 67)
 CRD 19=  -0.1317 (  4)  0.1511 (  6)  0.1383 ( 22) -0.1401 ( 24) -0.3187 ( 30)
           0.3646 ( 31) -0.3377 ( 53)  0.3341 ( 55) -0.1560 ( 62)  0.1778 ( 64)
           0.1588 ( 65) -0.1646 ( 67) -0.1028 ( 70) -0.1692 ( 71)  0.1194 ( 74)
          -0.1140 ( 77)  0.1141 ( 83)  0.1147 ( 84)  0.1090 ( 85)  0.1202 ( 86)
          -0.1123 ( 91) -0.1086 ( 92) -0.1066 ( 93) -0.1212 ( 97)  0.1710 (112)
           0.1014 (113)
 CRD 20=  -0.1030 ( 53)  0.1031 ( 55)  0.1802 ( 73) -0.1190 ( 74)  0.2508 ( 78)
           0.2508 ( 82) -0.1084 ( 83)  0.2520 ( 88)  0.2628 ( 89)  0.2617 ( 90)
          -0.1251 ( 91) -0.1190 ( 93)  0.2617 ( 94)  0.2458 ( 96)  0.2458 (101)
           0.2409 (102)  0.2521 (108)  0.2472 (109)  0.2520 (110)
 CRD 21=  -0.1654 (  2) -0.1127 (  7) -0.1622 ( 10)  0.1638 ( 11)  0.1115 ( 12)
           0.1894 ( 14)  0.1604 ( 15) -0.1914 ( 19) -0.3587 ( 21)  0.3612 ( 25)
           0.1474 ( 27) -0.1090 ( 29) -0.1460 ( 35) -0.1467 ( 40)  0.1492 ( 43)
           0.3437 ( 47) -0.1638 ( 48)  0.1086 ( 51) -0.3459 ( 56)  0.1658 ( 57)
           0.1801 ( 59) -0.1799 ( 60)
 CRD 22=   0.1190 ( 68)  0.1212 ( 71)  0.1056 ( 75)  0.2050 ( 78) -0.1258 ( 79)
          -0.1575 ( 80)  0.1461 ( 81)  0.2003 ( 82) -0.1386 ( 86) -0.1597 ( 87)
           0.2057 ( 88)  0.2471 ( 89)  0.2464 ( 90)  0.2418 ( 94) -0.2105 ( 96)
           0.1377 ( 97)  0.1575 ( 98)  0.1245 ( 99) -0.1462 (100) -0.2107 (101)
          -0.2095 (102)  0.1556 (103) -0.2484 (108) -0.2472 (109) -0.2482 (110)
          -0.1202 (112) -0.1204 (114)  0.1256 (117) -0.1091 (118) -0.1278 (119)
          -0.1067 (121)  0.1057 (122)
 CRD 23=   0.2432 (  4)  0.2454 (  5)  0.2400 (  6) -0.1396 (  7) -0.1618 ( 10)
           0.1352 ( 12) -0.1679 ( 14)  0.1651 ( 15)  0.1682 ( 19) -0.2402 ( 22)
          -0.2446 ( 23) -0.2435 ( 24)  0.1111 ( 27) -0.1936 ( 28) -0.1392 ( 30)
          -0.1472 ( 31) -0.1222 ( 39) -0.1119 ( 40)  0.1337 ( 41)  0.1189 ( 42)
          -0.1339 ( 50)  0.1731 ( 53)  0.1318 ( 54)  0.1760 ( 55)  0.1851 ( 62)
           0.1461 ( 63)  0.1810 ( 64) -0.1629 ( 65) -0.1858 ( 66) -0.1660 ( 67)
 CRD 24=  -0.2779 (  4) -0.3027 (  5) -0.2756 (  6) -0.1089 (  8) -0.2891 ( 22)
          -0.2717 ( 23) -0.2842 ( 24)  0.1035 ( 28)  0.1866 ( 30)  0.1779 ( 31)
           0.1197 ( 37)  0.1188 ( 45)  0.1283 ( 53)  0.2092 ( 54)  0.1252 ( 55)
          -0.1470 ( 62) -0.1996 ( 63) -0.1532 ( 64) -0.1880 ( 65) -0.1224 ( 66)
          -0.1843 ( 67)
 CRD 25=  -0.1252 (  6)  0.1090 ( 22) -0.1133 ( 24) -0.1152 ( 64) -0.1019 ( 67)
           0.2661 ( 68)  0.2653 ( 73) -0.2433 ( 74) -0.2492 ( 75) -0.1612 ( 78)
          -0.1903 ( 81) -0.1843 ( 83) -0.1519 ( 88) -0.1009 ( 90) -0.2450 ( 91)
          -0.1834 ( 93) -0.1063 ( 96) -0.1843 (100) -0.1072 (101) -0.1761 (102)
          -0.1136 (109)  0.2712 (114) -0.2458 (118)  0.2720 (120)
 CRD 26=  -0.2031 (  1) -0.1893 (  2) -0.1505 (  4) -0.1270 (  5) -0.1457 (  6)
           0.2349 (  7) -0.2263 ( 10) -0.1915 ( 11)  0.2328 ( 12)  0.1600 ( 13)
          -0.2297 ( 15) -0.2031 ( 16)  0.1597 ( 18)  0.2018 ( 21) -0.1451 ( 22)
          -0.1702 ( 23) -0.1450 ( 24)  0.1994 ( 25)  0.1809 ( 28) -0.1001 ( 29)
           0.1393 ( 33)  0.1093 ( 39)  0.1072 ( 42)  0.1402 ( 49)  0.1207 ( 53)
           0.1199 ( 55) -0.2007 ( 58) -0.1994 ( 61) -0.1167 ( 62) -0.1639 ( 66)
 CRD 27=   0.1054 ( 31)  0.1132 ( 64)  0.1089 ( 65) -0.1075 ( 67) -0.1629 ( 68)
           0.1319 ( 70)  0.1468 ( 72) -0.2805 ( 79) -0.1726 ( 80) -0.1617 ( 81)
          -0.1767 ( 87) -0.1011 ( 89) -0.1598 ( 94)  0.1502 ( 95)  0.1745 ( 98)
           0.2817 ( 99)  0.1645 (100)  0.1740 (103)  0.1459 (105) -0.1476 (107)
           0.1447 (108)  0.1435 (110) -0.1508 (111) -0.1298 (113)  0.1605 (114)
          -0.1443 (116)  0.2831 (117) -0.2871 (119) -0.1394 (121)  0.1366 (122)
 CRD 28=   0.2565 (  3)  0.2769 (  4)  0.2274 (  5)  0.2676 (  6)  0.1828 (  7)
           0.1625 ( 10) -0.1914 ( 12)  0.2551 ( 14) -0.1537 ( 15) -0.2549 ( 17)
          -0.2579 ( 19) -0.2329 ( 22) -0.2936 ( 23) -0.2345 ( 24) -0.1317 ( 32)
          -0.1078 ( 35)  0.1500 ( 39) -0.1479 ( 41) -0.1513 ( 42)  0.1049 ( 43)
           0.1465 ( 50)  0.1311 ( 52)
 CRD 29=   0.2252 (  4) -0.3859 (  5)  0.1224 (  6)  0.2330 ( 22) -0.3989 ( 23)
           0.2293 ( 24) -0.1761 ( 62)  0.2816 ( 63) -0.1561 ( 65)  0.3076 ( 66)
          -0.1541 ( 67) -0.1386 ( 78)  0.1644 ( 88)  0.1639 ( 89) -0.1392 ( 90)
           0.1680 ( 96) -0.1691 (101) -0.1687 (108)  0.1684 (110)
 CRD 30=   0.3842 (  4) -0.4373 (  6)  0.2962 ( 22) -0.3199 ( 24) -0.2587 ( 62)
           0.2927 ( 64) -0.2045 ( 65)  0.2196 ( 67)  0.1279 ( 78) -0.2074 ( 82)
           0.1175 ( 90) -0.2178 ( 94)  0.1612 (102)  0.1495 (109)
 CRD 31=   0.2801 (  4) -0.4219 (  5)  0.1978 (  6) -0.2136 ( 22)  0.4133 ( 23)
          -0.1713 ( 24) -0.1714 ( 62)  0.2890 ( 63) -0.1185 ( 64)  0.1435 ( 65)
          -0.2616 ( 66)  0.1142 ( 67) -0.1576 ( 78)  0.1758 ( 88)  0.1766 ( 89)
          -0.1569 ( 90) -0.1464 ( 96)  0.1561 (101)  0.1567 (108) -0.1458 (110)
 CRD 32=  -0.2765 (  4)  0.3400 (  6)  0.4113 ( 22) -0.4154 ( 24)  0.1694 ( 62)
          -0.2059 ( 64) -0.2600 ( 65)  0.2635 ( 67) -0.1107 ( 78)  0.1384 ( 82)
          -0.1216 ( 90)  0.1275 ( 94)  0.2260 (102)  0.2328 (109)
 CRD 33=  -0.1304 ( 70) -0.1111 ( 71)  0.2198 ( 86)  0.2235 ( 87)  0.2251 ( 97)
           0.2271 ( 98) -0.3157 (105) -0.3177 (106) -0.1120 (112) -0.1315 (113)
          -0.3140 (116)  0.2467 (117)  0.2433 (119)  0.1046 (120)  0.2396 (121)
           0.2447 (122) -0.3120 (123)
 CRD 34=   0.1977 (  1) -0.1895 (  5)  0.1272 ( 10) -0.1475 ( 13)  0.1560 ( 14)
          -0.1242 ( 15) -0.1967 ( 16)  0.1482 ( 18) -0.1564 ( 19) -0.1582 ( 21)
           0.1067 ( 22) -0.1471 ( 23)  0.1070 ( 24)  0.1606 ( 25) -0.1428 ( 26)
          -0.1381 ( 28)  0.1981 ( 29) -0.1706 ( 33)  0.1726 ( 34)  0.1441 ( 36)
          -0.2418 ( 38) -0.1257 ( 39)  0.1965 ( 41)  0.1279 ( 42) -0.1702 ( 44)
           0.2417 ( 46)  0.1714 ( 49) -0.1997 ( 50) -0.1967 ( 51) -0.1189 ( 54)
           0.1880 ( 58) -0.1894 ( 61)
 CRD 35=   0.2719 (  3)  0.1435 (  4)  0.2228 (  5)  0.1487 (  6) -0.3236 (  8)
          -0.3622 (  9) -0.1863 ( 10) -0.1881 ( 15)  0.2742 ( 17)  0.1958 ( 22)
           0.1280 ( 23)  0.1951 ( 24) -0.1022 ( 26)  0.1267 ( 28) -0.1340 ( 34)
          -0.1006 ( 36)  0.1862 ( 37)  0.1518 ( 41) -0.1359 ( 44)  0.1861 ( 45)
           0.1475 ( 50)  0.1084 ( 53)  0.1086 ( 55) -0.1039 ( 62) -0.1028 ( 64)
          -0.1140 ( 66)
 CRD 36=   0.1233 (  1) -0.1393 (  2)  0.2951 ( 10)  0.1433 ( 11) -0.3525 ( 14)
          -0.3020 ( 15) -0.1243 ( 16)  0.3550 ( 19) -0.2395 ( 21)  0.2307 ( 25)
          -0.1795 ( 26) -0.1734 ( 29)  0.1272 ( 32)  0.1792 ( 36) -0.1592 ( 41)
           0.1132 ( 48)  0.1600 ( 50)  0.1717 ( 51) -0.1257 ( 52) -0.1156 ( 57)
           0.1166 ( 59) -0.1148 ( 60)
 CRD 37=   0.1942 (  2) -0.1002 (  4)  0.1407 (  7) -0.2670 ( 10)  0.1915 ( 11)
           0.1396 ( 12)  0.1197 ( 14) -0.2640 ( 15)  0.1057 ( 19) -0.1404 ( 20)
          -0.4209 ( 21) -0.1272 ( 23) -0.4277 ( 25) -0.2033 ( 39) -0.2048 ( 42)
          -0.1207 ( 48) -0.1142 ( 57)  0.1380 ( 58)  0.1171 ( 59)  0.1228 ( 60)
           0.1378 ( 61)
 CRD 38=   0.1008 (  1) -0.1301 (  7)  0.1824 ( 10)  0.1275 ( 12)  0.1323 ( 13)
           0.1858 ( 14) -0.1793 ( 15) -0.1004 ( 16) -0.1334 ( 18) -0.1834 ( 19)
           0.2659 ( 21) -0.2614 ( 25) -0.1046 ( 26) -0.1716 ( 29)  0.1697 ( 32)
           0.1046 ( 36) -0.1479 ( 39) -0.1327 ( 41)  0.1516 ( 42) -0.3073 ( 48)
           0.1323 ( 50)  0.1729 ( 51) -0.1705 ( 52)  0.3083 ( 57)  0.1379 ( 58)
          -0.2649 ( 59)  0.2639 ( 60) -0.1407 ( 61)
 CRD 39=   0.2147 (  2)  0.2749 (  8) -0.2990 ( 10)  0.1964 ( 11) -0.1056 ( 12)
          -0.1277 ( 13) -0.3905 ( 14) -0.2871 ( 15)  0.1013 ( 16) -0.1187 ( 18)
          -0.3938 ( 19)  0.2576 ( 20)  0.1337 ( 21)  0.1481 ( 25) -0.1146 ( 34)
          -0.1018 ( 35) -0.1025 ( 43) -0.1083 ( 44) -0.1139 ( 59) -0.1045 ( 60)
 CRD 40=   0.1868 ( 68)  0.1701 ( 70)  0.1366 ( 75) -0.1303 ( 78) -0.1601 ( 79)
           0.2573 ( 81)  0.3382 ( 86) -0.1239 ( 88)  0.1031 ( 96) -0.3355 ( 97)
           0.1619 ( 99) -0.2617 (100)  0.1035 (101)  0.1389 (102)  0.2750 (105)
          -0.1693 (113) -0.1827 (114) -0.2785 (116)  0.1615 (117) -0.1365 (118)
          -0.1660 (119)  0.1151 (121) -0.1184 (122)
 CRD 41=   0.1129 (  1) -0.2895 (  2) -0.2291 (  7)  0.1837 ( 10)  0.3057 ( 11)
           0.2194 ( 12)  0.1414 ( 13) -0.2047 ( 15) -0.1051 ( 16) -0.1505 ( 18)
           0.2621 ( 21) -0.1267 ( 23) -0.2514 ( 25)  0.2248 ( 39)  0.1290 ( 41)
          -0.2246 ( 42) -0.1044 ( 44)  0.1017 ( 49) -0.1254 ( 50) -0.2092 ( 58)
           0.1560 ( 59) -0.1623 ( 60)  0.2139 ( 61)
 CRD 42=  -0.1968 (  1) -0.1727 (  2)  0.1985 (  7)  0.2098 (  8)  0.2631 ( 10)
          -0.1678 ( 11)  0.1993 ( 12)  0.1301 ( 13) -0.3526 ( 14)  0.2631 ( 15)
          -0.1954 ( 16)  0.1278 ( 18) -0.3527 ( 19)  0.2208 ( 20) -0.2893 ( 21)
          -0.2931 ( 25)
 CRD 43=   0.2063 (  1)  0.1201 (  2)  0.1129 (  3) -0.1534 (  4) -0.1622 (  5)
          -0.1570 (  6)  0.1452 ( 10) -0.1178 ( 11) -0.1353 ( 15) -0.2141 ( 16)
          -0.1099 ( 17)  0.1613 ( 22)  0.1583 ( 23)  0.1539 ( 24)  0.1051 ( 27)
          -0.1541 ( 28) -0.2394 ( 29) -0.1446 ( 30) -0.1463 ( 31)  0.1097 ( 33)
          -0.1964 ( 37) -0.1041 ( 40) -0.1355 ( 41)  0.1967 ( 45) -0.1099 ( 49)
           0.1343 ( 50)  0.2396 ( 51)  0.1504 ( 53)  0.1426 ( 54)  0.1516 ( 55)
           0.1600 ( 62)  0.1572 ( 63)  0.1578 ( 64) -0.1558 ( 65) -0.1592 ( 66)
          -0.1609 ( 67)
 CRD 44=   0.1837 (  4) -0.2112 (  6)  0.1942 ( 22) -0.2010 ( 24)  0.1239 ( 62)
          -0.1477 ( 64)  0.1394 ( 65) -0.1323 ( 67) -0.1840 ( 68) -0.1332 ( 70)
          -0.1061 ( 74)  0.1611 ( 77) -0.1283 ( 78) -0.2416 ( 79) -0.1218 ( 80)
           0.1619 ( 81)  0.1595 ( 84) -0.1026 ( 88) -0.1066 ( 91)  0.2006 ( 94)
          -0.2387 ( 99)  0.1585 (100) -0.1686 (102) -0.1227 (103)  0.1683 (104)
           0.1449 (108)  0.1450 (110) -0.1359 (113) -0.1862 (114)  0.1440 (117)
           0.1431 (119) -0.3059 (120)  0.1395 (121)  0.1368 (122)
 CRD 45=   0.3840 (  1) -0.2876 (  2) -0.1673 (  5) -0.2323 ( 10) -0.2910 ( 11)
           0.2060 ( 13) -0.2352 ( 15)  0.3779 ( 16)  0.2093 ( 18) -0.1742 ( 21)
           0.1503 ( 23) -0.1743 ( 25) -0.1167 ( 33) -0.1192 ( 49)  0.1186 ( 66)
 CRD 46=  -0.3590 (  3)  0.1531 (  4)  0.1404 (  5)  0.1480 (  6) -0.1058 (  7)
           0.2801 (  8)  0.2267 (  9) -0.1332 ( 10) -0.1078 ( 12) -0.1296 ( 15)
          -0.3548 ( 17) -0.2168 ( 20)  0.1434 ( 22)  0.1579 ( 23)  0.1398 ( 24)
           0.1484 ( 28)  0.1495 ( 30)  0.1491 ( 31)  0.1478 ( 53)  0.1503 ( 54)
           0.1473 ( 55) -0.1543 ( 62) -0.1649 ( 63) -0.1580 ( 64) -0.1606 ( 65)
          -0.1528 ( 66) -0.1631 ( 67)
 CRD 47=  -0.2713 (  7)  0.3885 (  8) -0.3927 (  9)  0.1614 ( 10) -0.2640 ( 12)
           0.2372 ( 13)  0.1608 ( 15)  0.2428 ( 18) -0.3457 ( 20) -0.1562 ( 29)
           0.1202 ( 32) -0.1166 ( 48) -0.1569 ( 51)  0.1169 ( 52) -0.1209 ( 57)
           0.1034 ( 59)
 CRD 48=  -0.1035 (  1) -0.1606 (  2)  0.1920 (  3)  0.2610 (  7)  0.1054 ( 10)
           0.1540 ( 11) -0.2654 ( 12)  0.2615 ( 13) -0.2733 ( 14) -0.1055 ( 15)
           0.1114 ( 16) -0.1911 ( 17) -0.2567 ( 18)  0.2741 ( 19) -0.1055 ( 21)
           0.1069 ( 25)  0.1352 ( 26) -0.1275 ( 35) -0.1359 ( 36)  0.1203 ( 41)
           0.1284 ( 43) -0.1774 ( 48) -0.1178 ( 50)  0.1746 ( 57) -0.2077 ( 59)
           0.2099 ( 60)
 CRD 49=   0.1457 (  1) -0.2309 (  2)  0.2799 (  7)  0.1652 (  8) -0.2482 (  9)
          -0.2348 ( 11)  0.2810 ( 12) -0.3076 ( 13)  0.1413 ( 16) -0.3065 ( 18)
           0.1824 ( 21)  0.1779 ( 25) -0.1046 ( 38) -0.2452 ( 39) -0.2481 ( 42)
          -0.1013 ( 46)  0.2207 ( 58)  0.2206 ( 61)
 CRD 50=  -0.1562 (  2) -0.1384 (  3)  0.1986 ( 10)  0.1567 ( 11)  0.2248 ( 14)
          -0.1972 ( 15)  0.1419 ( 17) -0.2246 ( 19) -0.2264 ( 21)  0.2288 ( 25)
           0.1716 ( 26)  0.1682 ( 27)  0.2123 ( 35) -0.1714 ( 36)  0.2357 ( 38)
          -0.1170 ( 39) -0.1676 ( 40)  0.1348 ( 41)  0.1156 ( 42) -0.2130 ( 43)
          -0.2363 ( 46) -0.2130 ( 47)  0.1148 ( 48) -0.1349 ( 50)  0.2143 ( 56)
          -0.1158 ( 57)
 CRD 51=   0.3288 (  1) -0.1493 (  3)  0.1433 (  4) -0.1447 (  5)  0.1063 (  6)
          -0.2282 ( 10)  0.1331 ( 13)  0.2349 ( 15) -0.3282 ( 16)  0.1515 ( 17)
          -0.1329 ( 18) -0.1169 ( 21) -0.2169 ( 23)  0.1137 ( 25)  0.1113 ( 26)
          -0.1861 ( 27) -0.1106 ( 36)  0.1896 ( 40) -0.2518 ( 41)  0.2550 ( 50)
          -0.1131 ( 59)  0.1116 ( 60) -0.1642 ( 63)  0.1036 ( 65)  0.1003 ( 67)
          -0.1004 ( 89)
 CRD 52=  -0.1454 (  4)  0.1686 (  6) -0.1019 ( 62)  0.1156 ( 64)  0.2604 ( 68)
          -0.1048 ( 69) -0.1791 ( 70)  0.1590 ( 75)  0.1205 ( 76) -0.1734 ( 79)
           0.1068 ( 81) -0.1417 ( 82) -0.2451 ( 86)  0.1251 ( 92) -0.1952 ( 94)
           0.1741 ( 95)  0.1161 ( 96) -0.1304 ( 99) -0.2448 (100)  0.1139 (101)
          -0.1526 (107)  0.1005 (110)  0.1514 (112) -0.1871 (114)  0.2371 (116)
           0.2117 (117) -0.2294 (118)  0.1716 (119)  0.2319 (122)  0.2173 (123)
 CRD 53=   0.1603 ( 22) -0.1739 ( 24)  0.1187 ( 65) -0.1121 ( 67)  0.1258 ( 68)
           0.1354 ( 69)  0.1240 ( 70) -0.1403 ( 71)  0.1505 ( 72)  0.1923 ( 75)
           0.1852 ( 79)  0.2158 ( 81) -0.1013 ( 82) -0.1408 ( 85)  0.2431 ( 97)
           0.2103 ( 99) -0.1215 (102) -0.2265 (105)  0.1163 (108)  0.1218 (110)
          -0.1564 (111)  0.2006 (113) -0.2185 (114) -0.2344 (117) -0.1006 (118)
          -0.2647 (119) -0.1156 (120) -0.2092 (121) -0.2812 (123)
 CRD 54=  -0.2025 (  2)  0.3517 (  3) -0.1449 (  5) -0.1374 ( 10)  0.1980 ( 11)
           0.1575 ( 14)  0.1375 ( 15) -0.3546 ( 17) -0.1559 ( 19)  0.1161 ( 22)
           0.1027 ( 24) -0.1709 ( 27)  0.1310 ( 29)  0.1697 ( 32) -0.1009 ( 33)
          -0.1009 ( 34)  0.1432 ( 35)  0.2018 ( 37)  0.1715 ( 40) -0.1413 ( 43)
           0.1051 ( 44) -0.2046 ( 45) -0.1340 ( 51) -0.1710 ( 52)  0.1020 ( 54)
           0.1134 ( 62)  0.1003 ( 64) -0.1343 ( 66)
 CRD 55=  -0.1483 (  1)  0.2023 (  3)  0.1095 (  7)  0.3181 (  9)  0.1115 ( 12)
           0.1342 ( 13) -0.1706 ( 14) -0.1544 ( 16)  0.1986 ( 17)  0.1311 ( 18)
          -0.1721 ( 19) -0.4063 ( 20)  0.1425 ( 21)  0.1455 ( 25)  0.1715 ( 29)
          -0.1603 ( 35)  0.1218 ( 37) -0.1618 ( 43)  0.1187 ( 45)  0.1188 ( 47)
          -0.2196 ( 48)  0.1701 ( 51)  0.1219 ( 56) -0.2199 ( 57)  0.1397 ( 58)
           0.1008 ( 60)  0.1407 ( 61)
 CRD 56=   0.2320 (  4) -0.2654 (  6) -0.2419 ( 22)  0.2453 ( 24)  0.1555 ( 62)
          -0.1887 ( 64) -0.1683 ( 65)  0.1688 ( 67) -0.1051 ( 70) -0.1534 ( 71)
           0.1354 ( 72) -0.1698 ( 78)  0.1027 ( 81)  0.1344 ( 82)  0.1108 ( 83)
           0.1047 ( 85) -0.1403 ( 86) -0.1254 ( 88) -0.1285 ( 90) -0.1134 ( 92)
          -0.1104 ( 93)  0.1756 ( 94)  0.1527 ( 97)  0.2362 (102) -0.1660 (105)
          -0.1274 (107)  0.1972 (109)  0.1476 (112)  0.1195 (113)  0.1558 (116)
          -0.1899 (121)  0.1810 (122)
 CRD 57=   0.1048 (  2)  0.1380 (  5) -0.2761 (  7) -0.1086 ( 11)  0.2757 ( 12)
           0.3098 ( 13) -0.3127 ( 18) -0.2209 ( 21)  0.1397 ( 23)  0.2196 ( 25)
          -0.1273 ( 26)  0.1266 ( 36) -0.1509 ( 38)  0.1495 ( 39) -0.1521 ( 42)
           0.1493 ( 46) -0.2231 ( 47)  0.2220 ( 56) -0.1772 ( 58) -0.1985 ( 59)
           0.1972 ( 60)  0.1770 ( 61)  0.1002 ( 63)
 CRD 58=   0.1144 (  1)  0.1819 (  2) -0.2145 (  3)  0.1318 (  7) -0.3454 (  8)
          -0.2444 (  9)  0.1744 ( 11)  0.1375 ( 12)  0.1171 ( 13) -0.1522 ( 14)
           0.1205 ( 16) -0.2149 ( 17)  0.1129 ( 18) -0.1520 ( 19) -0.2105 ( 20)
          -0.1532 ( 29) -0.1950 ( 32)  0.1071 ( 33) -0.1735 ( 35) -0.1902 ( 37)
           0.1001 ( 39) -0.1729 ( 43) -0.1904 ( 45) -0.1285 ( 48)  0.1044 ( 49)
          -0.1528 ( 51) -0.1952 ( 52) -0.1285 ( 57)
 CRD 59=   0.1418 (  1) -0.1304 (  2) -0.1808 (  4)  0.2954 (  5) -0.1144 (  6)
          -0.1203 ( 11)  0.1291 ( 16)  0.1446 ( 22) -0.2862 ( 23)  0.1435 ( 24)
          -0.1839 ( 28)  0.1154 ( 30) -0.1717 ( 33)  0.1805 ( 34)  0.1708 ( 44)
          -0.1648 ( 49)  0.1792 ( 54) -0.1258 ( 62)  0.2063 ( 63) -0.2015 ( 66)
          -0.1763 ( 78)  0.2049 ( 88)  0.2049 ( 89) -0.1763 ( 90) -0.1866 ( 96)
           0.1870 (101)  0.1869 (108) -0.1866 (110)
 CRD 60=   0.1989 (  1) -0.2152 (  2) -0.1368 (  4)  0.2184 (  5)  0.1443 (  7)
          -0.1032 ( 10)  0.2252 ( 11) -0.1464 ( 12)  0.1072 ( 15) -0.2028 ( 16)
          -0.1181 ( 22)  0.2374 ( 23) -0.1154 ( 24)  0.1280 ( 26) -0.1191 ( 27)
          -0.1567 ( 28) -0.1666 ( 33)  0.1650 ( 34) -0.1278 ( 36)  0.1103 ( 38)
           0.1228 ( 40) -0.1716 ( 44) -0.1093 ( 46)  0.1771 ( 49) -0.1644 ( 54)
           0.1560 ( 63)  0.1639 ( 66) -0.1367 ( 78)  0.1594 ( 88)  0.1595 ( 89)
          -0.1366 ( 90)  0.1597 ( 96) -0.1606 (101) -0.1604 (108)  0.1599 (110)
 CRD 61=   0.1895 (  4) -0.2208 (  6)  0.2051 ( 22) -0.2063 ( 24) -0.1168 ( 30)
           0.1369 ( 31)  0.1287 ( 53) -0.1279 ( 55)  0.1310 ( 62) -0.1521 ( 64)
           0.1414 ( 65) -0.1422 ( 67) -0.1315 ( 73)  0.2308 ( 74) -0.1025 ( 76)
          -0.1865 ( 77) -0.1027 ( 81)  0.2628 ( 82)  0.1055 ( 83) -0.1848 ( 84)
          -0.1150 ( 89) -0.1560 ( 90)  0.2309 ( 91)  0.1045 ( 93)  0.1346 ( 94)
           0.1678 ( 96)  0.1662 (101) -0.1025 (102) -0.1309 (104) -0.2309 (109)
          -0.1003 (115)  0.2746 (120)  0.1167 (123)
 CRD 62=  -0.1143 ( 68)  0.2264 ( 70) -0.1244 ( 71) -0.1715 ( 75) -0.1351 ( 79)
           0.2240 ( 80)  0.2229 ( 87)  0.1105 ( 89)  0.1220 ( 90) -0.1696 ( 95)
          -0.2358 ( 98)  0.1220 ( 99) -0.2288 (103) -0.2000 (105) -0.1388 (109)
           0.1620 (111)  0.1334 (112) -0.2258 (113)  0.1172 (114)  0.1982 (116)
           0.1257 (117)  0.1603 (118) -0.1370 (119) -0.3269 (121)  0.3394 (122)
 CRD 63=   0.1946 ( 69) -0.1375 ( 71)  0.2341 ( 73) -0.1131 ( 74)  0.1512 ( 75)
           0.1164 ( 79)  0.1420 ( 81) -0.1223 ( 83) -0.1030 ( 84) -0.1500 ( 86)
           0.1907 ( 87) -0.1096 ( 91) -0.1249 ( 93) -0.1525 ( 97)  0.1735 ( 98)
           0.1269 ( 99)  0.1465 (100) -0.1670 (104) -0.3006 (106)  0.1030 (111)
          -0.1293 (112)  0.1165 (117)  0.1618 (118)  0.1042 (119) -0.2941 (120)
          -0.2366 (121) -0.2096 (122)  0.3572 (123)
 CRD 64=   0.1164 ( 70) -0.1051 ( 71) -0.2612 ( 73) -0.1982 ( 75) -0.2086 ( 80)
           0.1884 ( 83)  0.2568 ( 87)  0.1166 ( 89)  0.1242 ( 90)  0.1820 ( 93)
          -0.1470 ( 95)  0.2611 ( 98) -0.2051 (103)  0.1748 (104) -0.2850 (106)
           0.1328 (109) -0.1477 (111) -0.1017 (112)  0.1275 (113) -0.1942 (118)
           0.2346 (120) -0.2364 (121) -0.2367 (122)  0.2409 (123)
 CRD 65=  -0.1301 ( 68) -0.2132 ( 70)  0.1655 ( 72) -0.2117 ( 75)  0.2656 ( 76)
          -0.1094 ( 78) -0.2224 ( 82)  0.1894 ( 83)  0.1907 ( 85) -0.1031 ( 87)
          -0.1252 ( 88)  0.1561 ( 89)  0.1719 ( 90) -0.1901 ( 92) -0.1969 ( 93)
           0.1850 ( 96)  0.1845 (101)  0.1019 (103) -0.1673 (107) -0.1008 (108)
          -0.2070 (109) -0.1003 (110)  0.2121 (113)  0.1303 (114) -0.2631 (115)
           0.2220 (118)
 CRD 66=   0.2882 ( 69) -0.1987 ( 70) -0.1927 ( 73) -0.1544 ( 75)  0.2254 ( 76)
          -0.1027 ( 78)  0.2101 ( 80) -0.1562 ( 82)  0.2138 ( 83) -0.2639 ( 85)
          -0.1311 ( 87) -0.1102 ( 88)  0.1047 ( 89)  0.1122 ( 90) -0.2642 ( 92)
           0.2138 ( 93) -0.1372 ( 96) -0.1310 ( 98) -0.1370 (101)  0.2108 (103)
          -0.2444 (104)  0.1269 (109) -0.2010 (113)  0.2240 (115) -0.1564 (118)
           0.1200 (120)

 THE DETERMINANT OF THE G MATRIX IS 10**(   -31)


                     --------------------
                     INTERNAL COORDINATES
                     --------------------

                 - - ATOMS - -         COORDINATE      COORDINATE
 NO.   TYPE    I  J  K  L  M  N        (BOHR,RAD)       (ANG,DEG)
 ----------------------------------------------------------------
   1 STRETCH   1  4                     2.5967910       1.3741627
   2 STRETCH   1  3                     2.6990015       1.4282502
   3 STRETCH   1  2                     2.8107870       1.4874045
   4 STRETCH   2 14                     2.0749491       1.0980158
   5 STRETCH   2 15                     2.0823275       1.1019203
   6 STRETCH   2 13                     2.0756199       1.0983708
   7 STRETCH   3  6                     2.6882216       1.4225457
   8 STRETCH   3  5                     2.6710885       1.4134793
   9 STRETCH   4  7                     2.6625147       1.4089422
  10 STRETCH   4 16                     2.0711853       1.0960242
  11 STRETCH   5  8                     2.7000982       1.4288305
  12 STRETCH   5  9                     2.6890258       1.4229713
  13 STRETCH   6 10                     2.5833614       1.3670561
  14 STRETCH   6 17                     2.0794864       1.1004169
  15 STRETCH   7 18                     2.0717414       1.0963184
  16 STRETCH   7  8                     2.5969621       1.3742533
  17 STRETCH   8 11                     2.8102453       1.4871179
  18 STRETCH   9 12                     2.5850340       1.3679412
  19 STRETCH   9 19                     2.0718941       1.0963992
  20 STRETCH  10 12                     2.6694623       1.4126187
  21 STRETCH  10 20                     2.0687236       1.0947215
  22 STRETCH  11 23                     2.0764655       1.0988183
  23 STRETCH  11 22                     2.0760356       1.0985908
  24 STRETCH  11 21                     2.0770340       1.0991191
  25 STRETCH  12 24                     2.0688675       1.0947976
  26 BEND      1  3  5                  2.0882080     119.6455031
  27 BEND      1  4  7                  2.1117375     120.9936473
  28 BEND      1  2 15                  1.9625668     112.4467932
  29 BEND      1  4 16                  2.0956366     120.0711298
  30 BEND      1  2 14                  1.9381796     111.0495099
  31 BEND      1  2 13                  1.9302272     110.5938738
  32 BEND      1  3  6                  2.1192723     121.4253584
  33 BEND      2  1  4                  2.0758545     118.9377040
  34 BEND      2  1  3                  2.1233735     121.6603409
  35 BEND      3  6 10                  2.1123385     121.0280811
  36 BEND      3  5  8                  2.0862150     119.5313125
  37 BEND      3  1  4                  2.0839384     119.4008758
  38 BEND      3  5  9                  2.0727917     118.7622189
  39 BEND      3  6 17                  2.0628845     118.1945783
  40 BEND      4  7  8                  2.1117301     120.9932248
  41 BEND      4  7 18                  2.0706677     118.6405177
  42 BEND      5  9 19                  2.0800792     119.1797573
  43 BEND      5  9 12                  2.1115078     120.9804867
  44 BEND      5  8 11                  2.1111710     120.9611896
  45 BEND      5  8  7                  2.0845312     119.4348376
  46 BEND      5  3  6                  2.0757036     118.9290549
  47 BEND      6 10 12                  2.0955388     120.0655286
  48 BEND      6 10 20                  2.1054823     120.6352489
  49 BEND      7  8 11                  2.0874831     119.6039717
  50 BEND      7  4 16                  2.0758109     118.9352063
  51 BEND      8  7 18                  2.1007875     120.3662565
  52 BEND      8  5  9                  2.1241781     121.7064429
  53 BEND      8 11 21                  1.9397049     111.1369021
  54 BEND      8 11 22                  1.9553543     112.0335493
  55 BEND      8 11 23                  1.9403058     111.1713361
  56 BEND      9 12 10                  2.0984814     120.2341266
  57 BEND      9 12 24                  2.1041737     120.5602705
  58 BEND     10  6 17                  2.1079576     120.7770748
  59 BEND     10 12 24                  2.0805298     119.2055774
  60 BEND     12 10 20                  2.0821640     119.2992101
  61 BEND     12  9 19                  2.0915983     119.8397550
  62 BEND     13  2 15                  1.8744869     107.4001899
  63 BEND     13  2 14                  1.8781156     107.6080978
  64 BEND     14  2 15                  1.8767574     107.5302787
  65 BEND     21 11 22                  1.8722581     107.2724846
  66 BEND     21 11 23                  1.8800340     107.7180115
  67 BEND     22 11 23                  1.8724846     107.2854624
  68 TORSION   1  4  7 18               3.1413342     179.9851916
  69 TORSION   1  3  5  8               0.0035108       0.2011515
  70 TORSION   1  3  6 17              -0.0051749      -0.2964978
  71 TORSION   1  3  6 10               3.1396664     179.8896310
  72 TORSION   1  3  5  9              -3.1390804    -179.8560577
  73 TORSION   1  4  7  8              -0.0000615      -0.0035218
  74 TORSION   2  1  4  7              -3.1316097    -179.4280175
  75 TORSION   2  1  4 16               0.0091557       0.5245807
  76 TORSION   2  1  3  6              -0.0137207      -0.7861392
  77 TORSION   2  1  3  5               3.1297281     179.3202105
  78 TORSION   3  1  2 14               2.2335674     127.9739876
  79 TORSION   3  5  9 19               3.1399881     179.9080637
  80 TORSION   3  5  9 12              -0.0018033      -0.1033197
  81 TORSION   3  1  4 16              -3.1389223    -179.8469980
  82 TORSION   3  1  2 15               0.1296799       7.4301090
  83 TORSION   3  1  4  7               0.0034977       0.2004038
  84 TORSION   3  5  8 11              -3.1414900    -179.9941179
  85 TORSION   3  5  8  7              -0.0001136      -0.0065061
  86 TORSION   3  6 10 20               3.1414450     179.9915404
  87 TORSION   3  6 10 12               0.0005676       0.0325234
  88 TORSION   3  1  2 13              -1.9657314    -112.6281126
  89 TORSION   4  1  2 13               1.1692234      66.9915638
  90 TORSION   4  1  2 14              -0.9146631     -52.4063360
  91 TORSION   4  7  8 11               3.1397245     179.8929605
  92 TORSION   4  1  3  5              -0.0051966      -0.2977459
  93 TORSION   4  7  8  5              -0.0016549      -0.0948215
  94 TORSION   4  1  2 15              -3.0185507    -172.9502146
  95 TORSION   4  1  3  6               3.1345399     179.5959045
  96 TORSION   5  8 11 23               1.0430137      59.7602836
  97 TORSION   5  9 12 24               3.1411948     179.9772027
  98 TORSION   5  9 12 10              -0.0014195      -0.0813313
  99 TORSION   5  3  6 17               3.1345746     179.5978958
 100 TORSION   5  8  7 18               3.1401381     179.9166591
 101 TORSION   5  8 11 21              -1.0509589     -60.2155106
 102 TORSION   5  8 11 22               3.1379721     179.7925586
 103 TORSION   5  3  6 10              -0.0037695      -0.2159754
 104 TORSION   6  3  5  9               0.0043220       0.2476309
 105 TORSION   6 10 12 24              -3.1405385    -179.9396031
 106 TORSION   6 10 12  9               0.0020620       0.1181411
 107 TORSION   6  3  5  8              -3.1362722    -179.6951599
 108 TORSION   7  8 11 21               2.0908503     119.7968984
 109 TORSION   7  8 11 22              -0.0034040      -0.1950325
 110 TORSION   7  8 11 23              -2.0983624    -120.2273074
 111 TORSION   7  8  5  9              -3.1406774    -179.9475571
 112 TORSION   8  5  9 12               3.1387682     179.8381709
 113 TORSION   8  5  9 19              -0.0026258      -0.1504457
 114 TORSION   8  7  4 16              -3.1408360    -179.9566489
 115 TORSION   9  5  8 11               0.0011315       0.0648311
 116 TORSION   9 12 10 20              -3.1388250    -179.8414233
 117 TORSION  10 12  9 19               3.1399732     179.9072108
 118 TORSION  11  8  7 18              -0.0016678      -0.0955589
 119 TORSION  12 10  6 17              -3.1376926    -179.7765420
 120 TORSION  16  4  7 18               0.0005596       0.0320645
 121 TORSION  17  6 10 20               0.0031848       0.1824750
 122 TORSION  19  9 12 24              -0.0005979      -0.0342551
 123 TORSION  20 10 12 24               0.0017599       0.1008326

     ------------------------------------------
     THE POINT GROUP IS C1 , NAXIS= 1, ORDER= 1
     ------------------------------------------

     DIMENSIONS OF THE SYMMETRY SUBSPACES ARE
 A   =  300

 ..... DONE SETTING UP THE RUN .....
 STEP CPU TIME =     0.02 TOTAL CPU TIME =        0.0 (    0.0 MIN)
 TOTAL WALL CLOCK TIME=        0.0 SECONDS, CPU UTILIZATION IS  66.67%


          -----------------------------
          STATIONARY POINT LOCATION RUN
          -----------------------------

 OBTAINING INITIAL HESSIAN, HESS=GUESS   
 DIAGONAL GUESS HESSIAN IN INTERNAL COORDS IS
     1  0.4971     2  0.4475     3  0.3989     4  0.3410     5  0.3384
     6  0.3408     7  0.4525     8  0.4605     9  0.4646    10  0.3423
    11  0.4470    12  0.4521    13  0.5040    14  0.3394    15  0.3421
    16  0.4970    17  0.3991    18  0.5031    19  0.3421    20  0.4613
    21  0.3432    22  0.3405    23  0.3406    24  0.3403    25  0.3432
    26  0.2646    27  0.2692    28  0.2259    29  0.2333    30  0.2261
    31  0.2261    32  0.2639    33  0.2630    34  0.2589    35  0.2686
    36  0.2645    37  0.2676    38  0.2650    39  0.2300    40  0.2691
    41  0.2311    42  0.2302    43  0.2685    44  0.2589    45  0.2676
    46  0.2650    47  0.2694    48  0.2338    49  0.2631    50  0.2311
    51  0.2333    52  0.2638    53  0.2261    54  0.2261    55  0.2261
    56  0.2694    57  0.2338    58  0.2335    59  0.2309    60  0.2309
    61  0.2337    62  0.2024    63  0.2026    64  0.2024    65  0.2025
    66  0.2025    67  0.2025    68  0.2500    69  0.2500    70  0.2500
    71  0.2500    72  0.2500    73  0.2500    74  0.2500    75  0.2500
    76  0.2500    77  0.2500    78  0.2500    79  0.2500    80  0.2500
    81  0.2500    82  0.2500    83  0.2500    84  0.2500    85  0.2500
    86  0.2500    87  0.2500    88  0.2500    89  0.2500    90  0.2500
    91  0.2500    92  0.2500    93  0.2500    94  0.2500    95  0.2500
    96  0.2500    97  0.2500    98  0.2500    99  0.2500   100  0.2500
   101  0.2500   102  0.2500   103  0.2500   104  0.2500   105  0.2500
   106  0.2500   107  0.2500   108  0.2500   109  0.2500   110  0.2500
   111  0.2500   112  0.2500   113  0.2500   114  0.2500   115  0.2500
   116  0.2500   117  0.2500   118  0.2500   119  0.2500   120  0.2500
   121  0.2500   122  0.2500   123  0.2500
 TRANSFORMING HESSIAN TO SYMMETRY COORDINATES

          PARAMETERS CONTROLLING GEOMETRY SEARCH ARE
          METHOD =QA                  UPHESS =BFGS    
          NNEG   =         0          NFRZ   =         3
          NSTEP  =        50          IFOLOW =         1
          HESS   =GUESS               RESTAR =         F
          IHREP  =         0          HSSEND =         F
          NPRT   =         0          NPUN   =         0
          OPTTOL = 5.000E-04          RMIN   = 1.500E-03
          RMAX   = 1.000E-01          RLIM   = 7.000E-02
          DXMAX  = 3.000E-01          PURIFY =         F
          MOVIE  =         F          TRUPD  =         T
          TRMAX  = 5.000E-01          TRMIN  = 5.000E-02
          ITBMAT =         5          STPT   =         F
          STSTEP = 1.000E-02          PROJCT=          F
          FROZEN COORD(S)=   1   2   3

