----- GAMESS execution script -----

          ******************************************************
          *         GAMESS VERSION =  5 DEC 2014 (R1)          *
          *             FROM IOWA STATE UNIVERSITY             *
          * M.W.SCHMIDT, K.K.BALDRIDGE, J.A.BOATZ, S.T.ELBERT, *
          *   M.S.GORDON, J.H.JENSEN, S.KOSEKI, N.MATSUNAGA,   *
          *          K.A.NGUYEN, S.J.SU, T.L.WINDUS,           *
          *       TOGETHER WITH M.DUPUIS, J.A.MONTGOMERY       *
          *         J.COMPUT.CHEM.  14, 1347-1363(1993)        *
          **************** 64 BIT LINUX VERSION ****************

 EXECUTION OF GAMESS BEGUN Tue Nov 22 19:57:13 2016

            ECHO OF THE FIRST FEW INPUT CARDS -
 INPUT CARD>! SELECT RESTRICTED HARTREE-FOCK AS DEFAULT                                     
 INPUT CARD>$contrl scftyp=rhf $end                                                         
 INPUT CARD>                                                                                
 INPUT CARD>! THEORY: HF OR DFT                                                             
 INPUT CARD> $contrl mplevl=0 $end                                                          
 INPUT CARD>                                                                                
 INPUT CARD> $system timlim=10000 mwords=20 $end                                            
 INPUT CARD> $SCF DIRSCF=.TRUE. $end                                                        
 INPUT CARD>                                                                                
 INPUT CARD>                                                                                
 INPUT CARD>! BASIS SETS                                                                    
 INPUT CARD>! 6-311G(d,p)                                                                   
 INPUT CARD> $BASIS GBASIS=N311 NGAUSS=6 NDFUNC=1 NPFUNC=1 $END                             
 INPUT CARD>                                                                                
 INPUT CARD>! One of the following                                                          
 INPUT CARD> $guess guess=HUCKEL $end                                                       
 INPUT CARD>                                                                                
 INPUT CARD> $statpt projct=.FALSE. $end                                                    
 INPUT CARD> $STATPT IFREEZ(1)=1,2,3 $END                                                   
 INPUT CARD>                                                                                
 INPUT CARD>! Optimize the geometry with COSMO effects                                      
 INPUT CARD> $statpt opttol=0.0005 nstep=50 $end                                            
 INPUT CARD> $contrl nzvar=1 $end                                                           
 INPUT CARD> $zmat dlc=.t. auto=.t. $end                                                    
 INPUT CARD> $contrl runtyp=OPTIMIZE maxit=200 $end                                         
 INPUT CARD>                                                                                
 INPUT CARD>! Run COSMO on perfect conductor                                                
 INPUT CARD> $COSGMS PRFCND=.TRUE. $end                                                     
 INPUT CARD>                                                                                
 INPUT CARD>! Specifying RSOLV                                                              
 INPUT CARD> $COSGMS COSRAD = 1.4 $end                                                      
 INPUT CARD>                                                                                
 INPUT CARD>! available memory                                                              
 INPUT CARD> $SYSTEM MWORDS=40 $END                                                         
 INPUT CARD>                                                                                
 INPUT CARD> $DATA                                                                          
 INPUT CARD>1,5-Hexadiene, ID: C592427                                                      
 INPUT CARD>C1                                                                              
 INPUT CARD>C      6.0      2.1497000000    0.6782000000    3.3931000000                    
 INPUT CARD>C      6.0      1.2840000000    1.8615000000    3.6496000000                    
 INPUT CARD>C      6.0      0.6380000000    2.0560000000    4.7929000000                    
 INPUT CARD>C      6.0      3.5008000000    1.0814000000    2.8163000000                    
 INPUT CARD>C      6.0      3.3876000000    1.6107000000    1.4296000000                    
 INPUT CARD>C      6.0      4.0082000000    2.7103000000    1.0187000000                    
 INPUT CARD>H      1.0      1.6192000000    0.0000000000    2.6940000000                    
 INPUT CARD>H      1.0      2.3050000000    0.0930000000    4.3216000000                    
 INPUT CARD>H      1.0      1.2067000000    2.5781000000    2.8222000000                    
 INPUT CARD>H      1.0      0.0000000000    2.9174000000    4.9648000000                    
 INPUT CARD>H      1.0      0.6972000000    1.3723000000    5.6355000000                    
 INPUT CARD>H      1.0      4.1704000000    0.1979000000    2.7912000000                    
   40000000 WORDS OF MEMORY AVAILABLE

     BASIS OPTIONS
     -------------
     GBASIS=N311         IGAUSS=       6      POLAR=POPN311 
     NDFUNC=       1     NFFUNC=       0     DIFFSP=       F
     NPFUNC=       1      DIFFS=       F     BASNAM=        


     RUN TITLE
     ---------
 1,5-Hexadiene, ID: C592427                                                      

 THE POINT GROUP OF THE MOLECULE IS C1      
 THE ORDER OF THE PRINCIPAL AXIS IS     0

 ATOM      ATOMIC                      COORDINATES (BOHR)
           CHARGE         X                   Y                   Z
 C           6.0     4.0623439558        1.2816121649        6.4120292489
 C           6.0     2.4264081682        3.5177249261        6.8967439648
 C           6.0     1.2056451802        3.8852766308        9.0572676866
 C           6.0     6.6155527378        2.0435496831        5.3220352992
 C           6.0     6.4016357560        3.0437816484        2.7015522720
 C           6.0     7.5743997040        5.1217243445        1.9250638637
 H           1.0     3.0598443193        0.0000000000        5.0909218109
 H           1.0     4.3558184017        0.1757445169        8.1666398285
 H           1.0     2.2803323494        4.8719025689        5.3331846825
 H           1.0     0.0000000000        5.5130865966        9.3821115838
 H           1.0     1.3175169586        2.5932709730       10.6495508038
 H           1.0     7.8809132592        0.3739767730        5.2746031769
 H           1.0     7.5460538142        3.4306085581        6.5858840398
 H           1.0     5.2158326987        1.9413155072        1.4063340801
 H           1.0     7.4349379261        5.8167655628        0.0000000000
 H           1.0     8.7556674189        6.2723784984        3.1490393859

          INTERNUCLEAR DISTANCES (ANGS.)




     $CONTRL OPTIONS
     ---------------
 SCFTYP=RHF          RUNTYP=OPTIMIZE     EXETYP=RUN     
 MPLEVL=       0     CITYP =NONE         CCTYP =NONE         VBTYP =NONE    
 DFTTYP=NONE         TDDFT =NONE    
 MULT  =       1     ICHARG=       0     NZVAR =       1     COORD =UNIQUE  
 PP    =NONE         RELWFN=NONE         LOCAL =NONE         NUMGRD=       F
 ISPHER=      -1     NOSYM =       0     MAXIT =     200     UNITS =ANGS    
 PLTORB=       F     MOLPLT=       F     AIMPAC=       F     FRIEND=        
 NPRINT=       7     IREST =       0     GEOM  =INPUT   
 NORMF =       0     NORMP =       0     ITOL  =      20     ICUT  =       9
 INTTYP=BEST         GRDTYP=BEST         QMTTOL= 1.0E-06

     $SYSTEM OPTIONS
     ---------------
  REPLICATED MEMORY=    40000000 WORDS (ON EVERY NODE).
 DISTRIBUTED MEMDDI=           0 MILLION WORDS IN AGGREGATE,
 MEMDDI DISTRIBUTED OVER   1 PROCESSORS IS           0 WORDS/PROCESSOR.
 TOTAL MEMORY REQUESTED ON EACH PROCESSOR=    40000000 WORDS.
 TIMLIM=       10000.00 MINUTES, OR       6.9 DAYS.
 PARALL= F  BALTYP=  DLB     KDIAG=    0  COREFL= F
 MXSEQ2=     300 MXSEQ3=     150  mem10=         0

     $COSGMS OPTIONS
     ---------------
     EPSI  =   INFTY     NSPA  =      92     COSRAD=    1.40
     DISEX =   10.00     OUTCHG=DBLCAV       COSBUG=       F
     COSWRT=       F     DCOSMO=       F

     SYMMETRY COORDINATES WILL NOT BE USED FOR 
     THE COSMO CALCULATION, EVEN IF SPECIFIED:
         -- SWITCHING TO C1 POINT GROUP --


     DEFINITION OF CAVITY
     ---------------------------
     ATOM         COORDINATES           RADIUS 
     1    4.0623    1.2816    6.4120    2.0000
     2    2.4264    3.5177    6.8967    2.0000
     3    1.2056    3.8853    9.0573    2.0000
     4    6.6156    2.0435    5.3220    2.0000
     5    6.4016    3.0438    2.7016    2.0000
     6    7.5744    5.1217    1.9251    2.0000
     7    3.0598    0.0000    5.0909    1.3000
     8    4.3558    0.1757    8.1666    1.3000
     9    2.2803    4.8719    5.3332    1.3000
    10    0.0000    5.5131    9.3821    1.3000
    11    1.3175    2.5933   10.6496    1.3000
    12    7.8809    0.3740    5.2746    1.3000
    13    7.5461    3.4306    6.5859    1.3000
    14    5.2158    1.9413    1.4063    1.3000
    15    7.4349    5.8168    0.0000    1.3000
    16    8.7557    6.2724    3.1490    1.3000

          ----------------
          PROPERTIES INPUT
          ----------------

     MOMENTS            FIELD           POTENTIAL          DENSITY
 IEMOM =       1   IEFLD =       0   IEPOT =       0   IEDEN =       0
 WHERE =COMASS     WHERE =NUCLEI     WHERE =NUCLEI     WHERE =NUCLEI  
 OUTPUT=BOTH       OUTPUT=BOTH       OUTPUT=BOTH       OUTPUT=BOTH    
 IEMINT=       0   IEFINT=       0                     IEDINT=       0
                                                       MORB  =       0
          EXTRAPOLATION IN EFFECT
          SOSCF IN EFFECT
 ORBITAL PRINTING OPTION: NPREO=     1   174     2     1

     -------------------------------
     INTEGRAL TRANSFORMATION OPTIONS
     -------------------------------
     NWORD  =            0
     CUTOFF = 1.0E-09     MPTRAN =       0
     DIRTRF =       T     AOINTS =DUP     

          ----------------------
          INTEGRAL INPUT OPTIONS
          ----------------------
 NOPK  =       1 NORDER=       0 SCHWRZ=       T


 -----------------------------------------------
  STATISTICS ON AUTOMATIC COORDINATE GENERATION 
 -----------------------------------------------
  NUMBER OF USER SPECIFIED BONDS                             0
  NUMBER OF BONDS                                           15
  NUMBER OF ANGLES                                          24
  NUMBER OF TORSIONS                                        29
  NUMBER OF EXTRA COORD.                                     0
  NUMBER OF EXTRA COORD. FOR CONSTRAINTS                     0
  NUMBER OF CONSTRAINED COORD.                               0

  TOTAL NUMBER OF PRIMITIVES                                68
 -----------------------------------------------

   --- ENCODED Z MATRIX ---
 COORD  TYPE   I   J   K   L   M   N
    1      1    1   7
    2      1    1   4
    3      1    1   2
    4      1    1   8
    5      1    2   3
    6      1    2   9
    7      1    3  11
    8      1    3  10
    9      1    4  13
   10      1    4  12
   11      1    4   5
   12      1    5  14
   13      1    5   6
   14      1    6  16
   15      1    6  15
   16      2    1   2   9
   17      2    1   4   5
   18      2    1   2   3
   19      2    1   4  12
   20      2    1   4  13
   21      2    2   3  10
   22      2    2   3  11
   23      2    2   1   8
   24      2    2   1   4
   25      2    2   1   7
   26      2    3   2   9
   27      2    4   1   7
   28      2    4   1   8
   29      2    4   5  14
   30      2    4   5   6
   31      2    5   6  15
   32      2    5   6  16
   33      2    5   4  12
   34      2    5   4  13
   35      2    6   5  14
   36      2    7   1   8
   37      2   10   3  11
   38      2   12   4  13
   39      2   15   6  16
   40      3    1   4   5  14
   41      3    1   2   3  10
   42      3    1   2   3  11
   43      3    1   4   5   6
   44      3    2   1   4  12
   45      3    2   1   4   5
   46      3    2   1   4  13
   47      3    3   2   1   8
   48      3    3   2   1   4
   49      3    3   2   1   7
   50      3    4   5   6  15
   51      3    4   5   6  16
   52      3    4   1   2   9
   53      3    5   4   1   8
   54      3    5   4   1   7
   55      3    6   5   4  12
   56      3    6   5   4  13
   57      3    7   1   4  12
   58      3    7   1   2   9
   59      3    7   1   4  13
   60      3    8   1   2   9
   61      3    8   1   4  13
   62      3    8   1   4  12
   63      3    9   2   3  11
   64      3    9   2   3  10
   65      3   12   4   5  14
   66      3   13   4   5  14
   67      3   14   5   6  16
   68      3   14   5   6  15

          INDEP./SYM. INTERNAL COORDINATES
          --------------------------------
 CRD  1=  -0.1576 (  2) -0.1830 ( 16) -0.3839 ( 17)  0.2698 ( 18)  0.1710 ( 19)
           0.2427 ( 23) -0.5769 ( 24)  0.1355 ( 25)  0.1498 ( 27)  0.1648 ( 28)
           0.1590 ( 33) -0.1770 ( 43)  0.1527 ( 45)  0.1207 ( 53)
 CRD  2=   0.5189 ( 17)  0.1353 ( 18) -0.1021 ( 19) -0.1761 ( 20)  0.1085 ( 23)
          -0.1539 ( 24)  0.1697 ( 27)  0.2806 ( 29) -0.4592 ( 30)  0.1502 ( 31)
          -0.1473 ( 32) -0.1085 ( 33) -0.2436 ( 34)  0.1785 ( 35)  0.1802 ( 48)
           0.1547 ( 52)  0.1222 ( 53)  0.1095 ( 54)
 CRD  3=   0.2279 (  2)  0.2151 (  3)  0.1971 (  5)  0.1316 ( 11)  0.1002 ( 13)
          -0.2821 ( 16)  0.5744 ( 18) -0.1759 ( 21)  0.2552 ( 22)  0.1971 ( 24)
          -0.1132 ( 25) -0.2924 ( 26) -0.1103 ( 27)  0.1317 ( 44)  0.1235 ( 45)
           0.1240 ( 46) -0.1392 ( 48)
 CRD  4=  -0.1303 (  2) -0.2684 ( 11) -0.2091 ( 13) -0.3197 ( 17)  0.2432 ( 20)
           0.3192 ( 24) -0.1504 ( 25) -0.1442 ( 27)  0.1701 ( 29) -0.4318 ( 30)
           0.1198 ( 31) -0.2047 ( 32)  0.1599 ( 33)  0.2622 ( 35)  0.1083 ( 40)
           0.1108 ( 41)  0.1418 ( 44)  0.1590 ( 45) -0.1255 ( 48)
 CRD  5=  -0.3551 (  3) -0.2772 (  5)  0.1096 ( 11)  0.2156 ( 13) -0.2602 ( 19)
           0.1424 ( 20)  0.1332 ( 23) -0.1739 ( 25)  0.1482 ( 26)  0.1512 ( 27)
           0.1405 ( 30)  0.1411 ( 32)  0.2152 ( 33) -0.1566 ( 34)  0.1180 ( 37)
           0.2325 ( 40)  0.2052 ( 43)  0.1386 ( 44)  0.2571 ( 45)  0.1861 ( 46)
           0.1312 ( 51)  0.1511 ( 53)  0.1199 ( 54)  0.1092 ( 56)  0.1364 ( 66)
           0.1023 ( 67)
 CRD  6=  -0.2946 (  3)  0.2814 ( 11)  0.1088 ( 12) -0.1206 ( 16) -0.1392 ( 23)
          -0.1513 ( 24)  0.1745 ( 25)  0.1314 ( 26) -0.1754 ( 27)  0.3299 ( 28)
           0.1657 ( 29) -0.1588 ( 30)  0.1779 ( 31) -0.1671 ( 32) -0.1683 ( 42)
           0.1404 ( 43) -0.1107 ( 47) -0.3291 ( 48) -0.1306 ( 49) -0.3238 ( 52)
          -0.1253 ( 58) -0.1053 ( 60) -0.1742 ( 63)
 CRD  7=   0.4233 (  2)  0.1620 (  3)  0.1940 ( 10)  0.3069 ( 11)  0.2992 ( 13)
           0.1039 ( 15) -0.1215 ( 17) -0.1506 ( 18)  0.1284 ( 19)  0.2030 ( 21)
          -0.1752 ( 22) -0.1140 ( 25)  0.1068 ( 28)  0.1899 ( 31)  0.1115 ( 33)
          -0.1374 ( 39) -0.1446 ( 40) -0.2477 ( 43)  0.1624 ( 45) -0.1051 ( 49)
           0.1686 ( 50)  0.1705 ( 53)  0.1032 ( 54) -0.1538 ( 56) -0.1045 ( 67)
 CRD  8=   0.2258 (  2)  0.4242 (  5)  0.1328 (  8) -0.2901 ( 11) -0.3474 ( 16)
           0.1634 ( 20)  0.3231 ( 21) -0.1177 ( 22) -0.1312 ( 24)  0.3614 ( 26)
          -0.1016 ( 29) -0.1099 ( 31) -0.1329 ( 34) -0.2053 ( 37)  0.1307 ( 43)
           0.1331 ( 55)  0.1016 ( 65)
 CRD  9=  -0.4394 (  2)  0.1856 (  3)  0.3082 (  5)  0.1381 (  8)  0.3171 ( 11)
          -0.1391 ( 16) -0.2028 ( 19) -0.1067 ( 20)  0.2737 ( 21) -0.1238 ( 22)
           0.1001 ( 23)  0.1258 ( 25)  0.1431 ( 26) -0.1578 ( 27) -0.1320 ( 28)
           0.1833 ( 29)  0.2001 ( 33) -0.1858 ( 35) -0.1499 ( 37)  0.1154 ( 49)
           0.1029 ( 54) -0.1204 ( 55)  0.1073 ( 58)  0.1330 ( 59) -0.1158 ( 62)
           0.1161 ( 66)
 CRD 10=  -0.1532 (  2)  0.4706 ( 13)  0.1550 ( 15)  0.1031 ( 25) -0.4442 ( 29)
           0.3771 ( 31) -0.1478 ( 32)  0.4401 ( 35) -0.2293 ( 39)
 CRD 11=  -0.1347 (  1) -0.1197 (  2) -0.4390 (  3) -0.1648 (  4)  0.1470 (  5)
           0.1344 (  7) -0.3277 ( 16)  0.1127 ( 19) -0.1749 ( 20)  0.1702 ( 22)
           0.2012 ( 24) -0.2627 ( 25)  0.2683 ( 26)  0.1730 ( 34)  0.1161 ( 36)
          -0.1754 ( 40)  0.1418 ( 41) -0.1892 ( 43) -0.1156 ( 51) -0.1373 ( 54)
          -0.1155 ( 55) -0.1085 ( 57) -0.1017 ( 65) -0.1295 ( 67)
 CRD 12=   0.1797 (  1)  0.1860 (  2) -0.1394 (  4)  0.1427 (  5)  0.1666 (  7)
          -0.1213 (  8)  0.1966 (  9)  0.1744 ( 11) -0.1255 ( 13) -0.1229 ( 14)
          -0.1778 ( 17)  0.1203 ( 20) -0.1930 ( 21)  0.2708 ( 22) -0.1750 ( 23)
           0.1165 ( 25)  0.1077 ( 29)  0.1171 ( 31) -0.1853 ( 32)  0.1584 ( 33)
           0.1177 ( 40) -0.1300 ( 41) -0.1792 ( 44) -0.1171 ( 45) -0.1085 ( 46)
           0.2285 ( 47)  0.2574 ( 48)  0.1784 ( 49)  0.1259 ( 51)  0.1618 ( 52)
           0.1329 ( 60)  0.1920 ( 63)  0.1023 ( 67)
 CRD 13=   0.1147 (  2) -0.1208 (  5) -0.1385 (  7)  0.1012 (  8)  0.1874 (  9)
           0.1446 ( 11) -0.1799 ( 13) -0.2162 ( 14)  0.1609 ( 15)  0.1669 ( 19)
          -0.1334 ( 20)  0.1496 ( 21) -0.2169 ( 22)  0.2030 ( 23) -0.1555 ( 25)
           0.1826 ( 27) -0.1207 ( 28)  0.2314 ( 31) -0.3320 ( 32) -0.1944 ( 33)
           0.2487 ( 34)  0.1004 ( 39)  0.1301 ( 43)  0.1167 ( 44)  0.1523 ( 46)
          -0.1725 ( 53) -0.1551 ( 54)  0.1823 ( 55)  0.1487 ( 56)  0.1037 ( 65)
           0.1455 ( 67)
 CRD 14=  -0.3960 ( 12) -0.1637 ( 13) -0.1955 ( 14)  0.1704 ( 15) -0.2722 ( 19)
           0.2469 ( 20) -0.1021 ( 29)  0.1761 ( 30)  0.1575 ( 31) -0.2721 ( 32)
           0.1823 ( 33) -0.2396 ( 34)  0.1148 ( 39) -0.1917 ( 51) -0.2102 ( 55)
          -0.2129 ( 56) -0.1801 ( 65) -0.1828 ( 66) -0.2232 ( 67)
 CRD 15=   0.1021 (  3)  0.1790 (  5)  0.4628 (  6)  0.2202 (  7) -0.1951 (  8)
           0.1315 ( 16) -0.2090 ( 18) -0.1769 ( 21)  0.3037 ( 22)  0.2233 ( 23)
          -0.1347 ( 25)  0.2389 ( 27) -0.2014 ( 28) -0.1270 ( 37) -0.1971 ( 42)
          -0.1964 ( 47) -0.1948 ( 49) -0.1703 ( 58) -0.1720 ( 60) -0.2229 ( 63)
 CRD 16=  -0.1365 (  1)  0.2095 (  4)  0.2309 (  6) -0.3051 (  9) -0.1193 ( 11)
          -0.3648 ( 12) -0.1258 ( 14)  0.1271 ( 15)  0.1320 ( 17) -0.1383 ( 20)
           0.1021 ( 22) -0.1636 ( 27)  0.2419 ( 28) -0.1133 ( 29)  0.1586 ( 30)
          -0.1646 ( 32)  0.2280 ( 41)  0.1885 ( 42)  0.1215 ( 44)  0.1252 ( 45)
          -0.1299 ( 48)  0.1056 ( 58)  0.1413 ( 60)  0.1282 ( 63)  0.1676 ( 64)
 CRD 17=   0.2432 (  4)  0.2372 (  6)  0.2386 (  9)  0.1757 ( 12)  0.1976 ( 20)
           0.1070 ( 23)  0.2247 ( 41)  0.2205 ( 42)  0.1162 ( 43)  0.1114 ( 44)
          -0.3677 ( 50) -0.2988 ( 51) -0.1315 ( 53)  0.1306 ( 60)  0.1717 ( 63)
           0.1759 ( 64) -0.1815 ( 66) -0.2069 ( 67) -0.2758 ( 68)
 CRD 18=   0.4330 (  7)  0.3836 (  8) -0.3849 ( 14) -0.3408 ( 15) -0.2021 ( 21)
          -0.1707 ( 22)  0.1797 ( 31)  0.1516 ( 32)  0.3728 ( 37) -0.3313 ( 39)
 CRD 19=   0.3850 (  7)  0.3418 (  8)  0.4329 ( 14)  0.3849 ( 15) -0.1794 ( 21)
          -0.1518 ( 22) -0.2017 ( 31) -0.1710 ( 32)  0.3312 ( 37)  0.3727 ( 39)
 CRD 20=  -0.3409 (  1)  0.3323 ( 10)  0.1346 ( 19) -0.1275 ( 27) -0.3941 ( 41)
          -0.1903 ( 42)  0.1009 ( 44)  0.1067 ( 45)  0.1125 ( 47)  0.1851 ( 49)
          -0.3189 ( 50) -0.1632 ( 51)  0.1540 ( 55)  0.1076 ( 58) -0.1086 ( 63)
          -0.3123 ( 64) -0.1025 ( 67) -0.2582 ( 68)
 CRD 21=   0.3855 (  1) -0.3145 (  4) -0.1839 (  9)  0.4478 ( 10)  0.1031 ( 27)
           0.2566 ( 41) -0.1028 ( 46) -0.1413 ( 47) -0.1810 ( 49) -0.2859 ( 50)
           0.1086 ( 53)  0.1761 ( 55)  0.1635 ( 56) -0.1276 ( 58)  0.2002 ( 64)
           0.1172 ( 65)  0.1046 ( 66) -0.2245 ( 68)
 CRD 22=   0.5675 (  1)  0.5997 (  4) -0.1198 ( 27) -0.1064 ( 28)  0.2871 ( 36)
          -0.1186 ( 47)  0.1577 ( 49)  0.1305 ( 53)  0.1405 ( 58) -0.1357 ( 60)
           0.1227 ( 61)  0.1182 ( 62)
 CRD 23=   0.6160 (  9)  0.5363 ( 10) -0.1227 ( 19) -0.1096 ( 20)  0.2907 ( 38)
           0.1227 ( 44)  0.1026 ( 50) -0.1755 ( 55)  0.1043 ( 56)  0.1097 ( 57)
          -0.1082 ( 59) -0.1106 ( 61)  0.1073 ( 62) -0.1534 ( 65)  0.1264 ( 66)
 CRD 24=  -0.2881 (  1)  0.3085 (  4) -0.2980 (  9)  0.3186 ( 10)  0.1224 ( 23)
          -0.1149 ( 25)  0.1382 ( 33) -0.1043 ( 34) -0.1842 ( 44) -0.1721 ( 46)
          -0.1726 ( 53) -0.1757 ( 54) -0.2999 ( 57) -0.2877 ( 59) -0.2847 ( 61)
          -0.2968 ( 62)  0.1210 ( 63)  0.1151 ( 67)
 CRD 25=  -0.1973 (  3)  0.1552 (  4)  0.1840 (  5)  0.3755 (  8)  0.1254 ( 11)
          -0.1210 ( 13) -0.2709 ( 15)  0.2808 ( 16) -0.1310 ( 19) -0.1020 ( 20)
           0.1151 ( 21)  0.1078 ( 22) -0.1213 ( 23) -0.1019 ( 25) -0.2866 ( 26)
           0.1522 ( 27)  0.1399 ( 28) -0.2016 ( 29)  0.1258 ( 33)  0.2102 ( 35)
          -0.2230 ( 37)  0.1466 ( 39) -0.1035 ( 49)  0.1333 ( 53)  0.1014 ( 60)
           0.1770 ( 61)  0.1156 ( 66)
 CRD 26=  -0.1991 (  2) -0.1679 (  3)  0.1283 (  5)  0.2846 (  8)  0.1441 (  9)
          -0.2394 ( 11)  0.1810 ( 13)  0.3979 ( 15)  0.2251 ( 16)  0.1135 ( 19)
          -0.2128 ( 26)  0.3023 ( 29)  0.1220 ( 31)  0.1248 ( 32) -0.2929 ( 35)
          -0.1751 ( 37) -0.2468 ( 39) -0.1642 ( 59)
 CRD 27=   0.1746 (  3)  0.1369 (  4) -0.4946 (  6)  0.3687 (  7) -0.2331 (  8)
           0.1340 (  9) -0.4645 ( 12)  0.3491 ( 14) -0.1390 ( 15) -0.1300 ( 39)
 CRD 28=  -0.1269 (  3)  0.4340 (  6) -0.3599 (  7)  0.1625 (  8)  0.1795 ( 11)
          -0.4744 ( 12)  0.3907 ( 14) -0.2192 ( 15)  0.1234 ( 37) -0.1072 ( 39)
          -0.1144 ( 57)
 CRD 29=   0.1123 (  3)  0.1195 (  5) -0.1732 (  7) -0.1171 (  8) -0.1305 ( 11)
           0.1351 ( 15) -0.1088 ( 21) -0.1108 ( 23)  0.1394 ( 28)  0.1895 ( 37)
          -0.1228 ( 39)  0.2468 ( 41) -0.2915 ( 42) -0.1223 ( 44)  0.1418 ( 47)
           0.2454 ( 52)  0.1766 ( 58)  0.3445 ( 60) -0.5057 ( 63)  0.1186 ( 66)
 CRD 30=  -0.1031 ( 20) -0.1099 ( 39)  0.2793 ( 40) -0.1099 ( 41)  0.1058 ( 42)
           0.2884 ( 50) -0.3218 ( 51)  0.1227 ( 56) -0.1340 ( 58)  0.1930 ( 63)
           0.2527 ( 65)  0.3529 ( 66) -0.5637 ( 67)
 CRD 31=  -0.1646 (  3) -0.1011 (  4) -0.2342 (  5)  0.1070 (  7)  0.2352 (  8)
           0.1225 ( 10)  0.1322 ( 11) -0.1770 ( 15)  0.1293 ( 19)  0.1110 ( 20)
           0.1420 ( 22)  0.1588 ( 23)  0.1277 ( 25) -0.1518 ( 27) -0.1114 ( 28)
          -0.1036 ( 32) -0.1544 ( 33) -0.2279 ( 37)  0.2111 ( 41) -0.1666 ( 42)
           0.1644 ( 49)  0.2269 ( 50) -0.1316 ( 51)  0.1325 ( 52) -0.1290 ( 53)
           0.1089 ( 55) -0.1009 ( 56)  0.2673 ( 58) -0.1124 ( 61) -0.2753 ( 63)
           0.1024 ( 64)  0.1583 ( 65) -0.1836 ( 67)  0.1749 ( 68)
 CRD 32=   0.1806 (  2) -0.2672 (  5)  0.2056 (  8) -0.1780 (  9)  0.1351 ( 10)
           0.1434 ( 12) -0.4729 ( 13)  0.2653 ( 14)  0.2370 ( 15) -0.1325 ( 19)
           0.1368 ( 22)  0.1921 ( 31)  0.1467 ( 32)  0.1134 ( 34) -0.1915 ( 37)
          -0.3389 ( 39)  0.1034 ( 46) -0.1231 ( 55)  0.1566 ( 59) -0.1673 ( 65)
 CRD 33=   0.1977 (  1) -0.1323 (  2) -0.1890 (  4)  0.1373 (  6)  0.2711 (  7)
          -0.2338 (  8) -0.1608 (  9)  0.1384 ( 12)  0.2726 ( 14) -0.2386 ( 15)
           0.1313 ( 18)  0.2140 ( 21) -0.1884 ( 22) -0.1744 ( 25) -0.1622 ( 26)
           0.1373 ( 28)  0.1302 ( 30)  0.2153 ( 31) -0.1921 ( 32) -0.1654 ( 35)
           0.1671 ( 38) -0.1333 ( 41)  0.1509 ( 44)  0.1168 ( 47) -0.1415 ( 54)
          -0.2141 ( 59)  0.1592 ( 60) -0.1779 ( 64)
 CRD 34=   0.1050 (  4)  0.3166 (  5) -0.2857 (  6) -0.3403 (  7) -0.1102 (  9)
           0.1958 ( 12)  0.2535 ( 14) -0.2450 ( 15) -0.1947 ( 18) -0.2869 ( 21)
           0.1223 ( 22)  0.1206 ( 26)  0.1711 ( 30)  0.2301 ( 31) -0.2242 ( 32)
          -0.2083 ( 35)  0.1646 ( 37)  0.1192 ( 44)  0.1769 ( 57)
 CRD 35=  -0.1011 (  1) -0.2757 (  3)  0.3808 (  5) -0.3133 (  8)  0.1250 ( 10)
           0.1574 ( 11) -0.3012 ( 13)  0.1546 ( 15)  0.1925 ( 16)  0.1132 ( 20)
          -0.2651 ( 22) -0.2641 ( 26) -0.1463 ( 29)  0.1194 ( 32)  0.1226 ( 35)
           0.1811 ( 37) -0.1022 ( 38) -0.1429 ( 39) -0.1055 ( 56) -0.1107 ( 60)
           0.1084 ( 64) -0.1243 ( 66)  0.1188 ( 68)
 CRD 36=   0.2569 (  1) -0.2802 (  2) -0.1413 (  6) -0.1056 (  7) -0.1102 (  9)
           0.3358 ( 11) -0.1874 ( 12) -0.1474 ( 14)  0.1887 ( 15) -0.1113 ( 18)
          -0.1107 ( 21) -0.1218 ( 25)  0.1243 ( 28) -0.1701 ( 30) -0.1767 ( 31)
           0.2054 ( 32) -0.1391 ( 33)  0.2206 ( 35) -0.1278 ( 36) -0.1594 ( 41)
           0.1641 ( 44)  0.1251 ( 47) -0.1376 ( 53)  0.2091 ( 60) -0.1115 ( 61)
          -0.2482 ( 64)  0.1506 ( 68)
 CRD 37=  -0.1430 (  1)  0.3113 (  3) -0.1259 (  4) -0.1008 (  6)  0.1129 (  8)
           0.1473 (  9) -0.2187 ( 10)  0.2406 ( 11)  0.1422 ( 12) -0.2991 ( 13)
          -0.1116 ( 18)  0.1052 ( 19)  0.1281 ( 22)  0.1481 ( 26) -0.2095 ( 29)
           0.1326 ( 30) -0.2518 ( 34)  0.2039 ( 36) -0.1027 ( 39)  0.1041 ( 45)
          -0.1504 ( 46)  0.2296 ( 53) -0.1061 ( 57) -0.2651 ( 59)  0.1340 ( 62)
           0.1618 ( 65) -0.1268 ( 68)
 CRD 38=  -0.3963 (  2)  0.1575 (  3)  0.1885 (  4) -0.1731 (  5)  0.1051 (  6)
           0.1519 (  9)  0.1945 ( 10) -0.1713 ( 16)  0.1360 ( 18)  0.1286 ( 20)
          -0.2210 ( 23)  0.1586 ( 27)  0.1103 ( 28)  0.1123 ( 30) -0.2525 ( 38)
          -0.1711 ( 44) -0.1783 ( 49)  0.1241 ( 50) -0.1024 ( 51)  0.2102 ( 55)
          -0.1174 ( 56) -0.1899 ( 58)  0.1397 ( 59)  0.2022 ( 61)  0.1190 ( 65)
          -0.2086 ( 66)  0.2200 ( 68)
 CRD 39=  -0.1387 (  1)  0.1214 (  2)  0.2514 (  3) -0.1591 (  4) -0.1846 (  9)
           0.1317 ( 10) -0.2065 ( 19) -0.1647 ( 24) -0.1125 ( 25)  0.1067 ( 29)
          -0.1030 ( 30)  0.1414 ( 34)  0.2177 ( 36) -0.1107 ( 42)  0.2699 ( 43)
           0.1261 ( 46)  0.1509 ( 49) -0.1886 ( 51) -0.2825 ( 54) -0.1043 ( 57)
          -0.1303 ( 60)  0.2747 ( 61)  0.2408 ( 62)  0.1752 ( 64) -0.2096 ( 65)
           0.2532 ( 68)
 CRD 40=   0.2327 (  4) -0.2000 (  9)  0.2526 ( 11) -0.1089 ( 16) -0.1801 ( 17)
           0.1208 ( 18)  0.1234 ( 20) -0.1117 ( 23)  0.1106 ( 24)  0.1728 ( 27)
          -0.1295 ( 28) -0.1326 ( 33)  0.1934 ( 38) -0.1913 ( 42) -0.1648 ( 45)
          -0.2519 ( 46)  0.1140 ( 47)  0.2826 ( 48) -0.1109 ( 55)  0.3378 ( 57)
          -0.2324 ( 58)  0.2405 ( 62)  0.2443 ( 64)
 CRD 41=  -0.1106 (  1)  0.1251 (  2) -0.1302 ( 10) -0.1310 ( 17)  0.1332 ( 25)
          -0.1098 ( 28) -0.2037 ( 40)  0.2983 ( 42)  0.1410 ( 43) -0.1915 ( 46)
          -0.2720 ( 47) -0.1831 ( 49) -0.3137 ( 51)  0.2365 ( 52)  0.1118 ( 53)
           0.1392 ( 54)  0.1543 ( 55)  0.2952 ( 56)  0.1451 ( 58) -0.2922 ( 64)
          -0.1904 ( 65)  0.3046 ( 68)
 CRD 42=  -0.1481 (  1) -0.1014 (  9)  0.1257 ( 10)  0.1211 ( 20) -0.1288 ( 24)
          -0.1305 ( 33)  0.2725 ( 40)  0.2895 ( 42) -0.2320 ( 45) -0.2779 ( 47)
          -0.1635 ( 49)  0.2823 ( 51)  0.2340 ( 52) -0.1519 ( 54) -0.1976 ( 55)
          -0.2601 ( 56)  0.1561 ( 58)  0.1568 ( 61)  0.1703 ( 62) -0.2760 ( 64)
           0.1182 ( 65) -0.2720 ( 68)

 THE DETERMINANT OF THE G MATRIX IS 10**(   -15)


                     --------------------
                     INTERNAL COORDINATES
                     --------------------

                 - - ATOMS - -         COORDINATE      COORDINATE
 NO.   TYPE    I  J  K  L  M  N        (BOHR,RAD)       (ANG,DEG)
 ----------------------------------------------------------------
   1 STRETCH   1  7                     2.0959151       1.1091106
   2 STRETCH   1  4                     2.8788037       1.5233974
   3 STRETCH   1  2                     2.8127272       1.4884313
   4 STRETCH   1  8                     2.0946906       1.1084626
   5 STRETCH   2  3                     2.5086290       1.3275094
   6 STRETCH   2  9                     2.0736087       1.0973065
   7 STRETCH   3 11                     2.0535724       1.0867038
   8 STRETCH   3 10                     2.0515529       1.0856351
   9 STRETCH   4 13                     2.0945353       1.1083804
  10 STRETCH   4 12                     2.0954381       1.1088582
  11 STRETCH   4  5                     2.8130332       1.4885932
  12 STRETCH   5 14                     2.0734393       1.0972169
  13 STRETCH   5  6                     2.5092141       1.3278190
  14 STRETCH   6 16                     2.0536588       1.0867495
  15 STRETCH   6 15                     2.0514392       1.0855749
  16 BEND      1  2  9                  2.0155191     115.4807407
  17 BEND      1  4  5                  1.9599179     112.2950262
  18 BEND      1  2  3                  2.1506792     123.2248432
  19 BEND      1  4 12                  1.9105515     109.4665374
  20 BEND      1  4 13                  1.9185794     109.9265051
  21 BEND      2  3 10                  2.1395695     122.5883016
  22 BEND      2  3 11                  2.1520708     123.3045727
  23 BEND      2  1  8                  1.9356860     110.9066411
  24 BEND      2  1  4                  1.9505295     111.7571054
  25 BEND      2  1  7                  1.8928914     108.4546886
  26 BEND      3  2  9                  2.1169851     121.2943096
  27 BEND      4  1  7                  1.9255903     110.3281976
  28 BEND      4  1  8                  1.9098854     109.4283728
  29 BEND      4  5 14                  2.0223269     115.8707953
  30 BEND      4  5  6                  2.1497968     123.1742858
  31 BEND      5  6 15                  2.1402735     122.6286380
  32 BEND      5  6 16                  2.1512449     123.2572543
  33 BEND      5  4 12                  1.8840344     107.9472213
  34 BEND      5  4 13                  1.9395090     111.1256774
  35 BEND      6  5 14                  2.1110002     120.9514015
  36 BEND      7  1  8                  1.8464526     105.7939432
  37 BEND     10  3 11                  1.9915436     114.1070422
  38 BEND     12  4 13                  1.8473384     105.8446954
  39 BEND     15  6 16                  1.9916657     114.1140404
  40 TORSION   1  4  5 14              -0.8050966     -46.1286374
  41 TORSION   1  2  3 10              -3.1290256    -179.2799634
  42 TORSION   1  2  3 11               0.0106229       0.6086462
  43 TORSION   1  4  5  6               2.3483204     134.5488488
  44 TORSION   2  1  4 12               2.9854427     171.0532639
  45 TORSION   2  1  4  5              -1.2054721     -69.0684618
  46 TORSION   2  1  4 13               0.9633171      55.1940036
  47 TORSION   3  2  1  8              -0.1605033      -9.1961623
  48 TORSION   3  2  1  4              -2.2967987    -131.5968697
  49 TORSION   3  2  1  7               1.8599256     106.5658893
  50 TORSION   4  5  6 15               3.1208868     178.8136393
  51 TORSION   4  5  6 16              -0.0189605      -1.0863564
  52 TORSION   4  1  2  9               0.8468459      48.5206956
  53 TORSION   5  4  1  8               2.9267254     167.6890108
  54 TORSION   5  4  1  7               0.9020540      51.6838846
  55 TORSION   6  5  4 12              -1.8272390    -104.6930845
  56 TORSION   6  5  4 13               0.1911803      10.9538215
  57 TORSION   7  1  4 12              -1.1902166     -68.1943897
  58 TORSION   7  1  2  9              -1.2796151     -73.3165454
  59 TORSION   7  1  4 13               3.0708431     175.9463500
  60 TORSION   8  1  2  9               2.9831412     170.9214031
  61 TORSION   8  1  4 13              -1.1876708     -68.0485238
  62 TORSION   8  1  4 12               0.8344548      47.8107366
  63 TORSION   9  2  3 11              -3.1331375    -179.5155533
  64 TORSION   9  2  3 10               0.0103993       0.5958371
  65 TORSION  12  4  5 14               1.3025293      74.6294292
  66 TORSION  13  4  5 14              -2.9622368    -169.7236648
  67 TORSION  14  5  6 16               3.1350381     179.6244499
  68 TORSION  14  5  6 15              -0.0083000      -0.4755544

     ------------------------------------------
     THE POINT GROUP IS C1 , NAXIS= 1, ORDER= 1
     ------------------------------------------

     DIMENSIONS OF THE SYMMETRY SUBSPACES ARE
 A   =  174

 ..... DONE SETTING UP THE RUN .....
 STEP CPU TIME =     0.01 TOTAL CPU TIME =        0.0 (    0.0 MIN)
 TOTAL WALL CLOCK TIME=        0.0 SECONDS, CPU UTILIZATION IS 100.00%


          -----------------------------
          STATIONARY POINT LOCATION RUN
          -----------------------------

 OBTAINING INITIAL HESSIAN, HESS=GUESS   
 DIAGONAL GUESS HESSIAN IN INTERNAL COORDS IS
     1  0.3337     2  0.3719     3  0.3981     4  0.3342     5  0.5443
     6  0.3415     7  0.3486     8  0.3493     9  0.3342    10  0.3339
    11  0.3979    12  0.3415    13  0.5440    14  0.3486    15  0.3494
    16  0.2261    17  0.2519    18  0.2666    19  0.2234    20  0.2234
    21  0.2369    22  0.2369    23  0.2255    24  0.2519    25  0.2254
    26  0.2362    27  0.2233    28  0.2234    29  0.2261    30  0.2665
    31  0.2369    32  0.2369    33  0.2254    34  0.2255    35  0.2362
    36  0.2015    37  0.2038    38  0.2015    39  0.2038    40  0.2500
    41  0.2500    42  0.2500    43  0.2500    44  0.2500    45  0.2500
    46  0.2500    47  0.2500    48  0.2500    49  0.2500    50  0.2500
    51  0.2500    52  0.2500    53  0.2500    54  0.2500    55  0.2500
    56  0.2500    57  0.2500    58  0.2500    59  0.2500    60  0.2500
    61  0.2500    62  0.2500    63  0.2500    64  0.2500    65  0.2500
    66  0.2500    67  0.2500    68  0.2500
 TRANSFORMING HESSIAN TO SYMMETRY COORDINATES

          PARAMETERS CONTROLLING GEOMETRY SEARCH ARE
          METHOD =QA                  UPHESS =BFGS    
          NNEG   =         0          NFRZ   =         3
          NSTEP  =        50          IFOLOW =         1
          HESS   =GUESS               RESTAR =         F
          IHREP  =         0          HSSEND =         F
          NPRT   =         0          NPUN   =         0
          OPTTOL = 5.000E-04          RMIN   = 1.500E-03
          RMAX   = 1.000E-01          RLIM   = 7.000E-02
          DXMAX  = 3.000E-01          PURIFY =         F
          MOVIE  =         F          TRUPD  =         T
          TRMAX  = 5.000E-01          TRMIN  = 5.000E-02
          ITBMAT =         5          STPT   =         F
          STSTEP = 1.000E-02          PROJCT=          F
          FROZEN COORD(S)=   1   2   3


      ***** EQUILIBRIUM GEOMETRY LOCATED *****
            (SUBJECT TO   3 CONSTRAINT(S))
 COORDINATES OF ALL ATOMS ARE (ANGS)
   ATOM   CHARGE       X              Y              Z
 ------------------------------------------------------------
 C           6.0   2.1357720744   0.6769255859   3.3812896139
 C           6.0   1.2527862095   1.8616678133   3.6716938117
 C           6.0   0.6303780846   2.0774953653   4.8161794105
 C           6.0   3.5194873618   1.0481594356   2.8172011264
 C           6.0   3.4539173991   1.6010871823   1.4179802219
 C           6.0   3.9834858020   2.7367991044   1.0029969260
 H           1.0   1.6363133262   0.0359376887   2.6557158952
 H           1.0   2.2592138300   0.0897642918   4.2858789349
 H           1.0   1.1246625827   2.5725642063   2.8688739515
 H           1.0  -0.0004400089   2.9389916720   4.9579149205
 H           1.0   0.7204792004   1.3974934086   5.6485143336
 H           1.0   4.1220928647   0.1417506972   2.7986712002
 H           1.0   4.0220876554   1.7494017082   3.4778879367
 H           1.0   2.9245718505   0.9853136890   0.7042242513
 H           1.0   3.8980361694   3.0467758341  -0.0251385029
 H           1.0   4.5228606432   3.3926688583   1.6674290975


                     --------------------
                     INTERNAL COORDINATES
                     --------------------

                 - - ATOMS - -         COORDINATE      COORDINATE
 NO.   TYPE    I  J  K  L  M  N        (BOHR,RAD)       (ANG,DEG)
 ----------------------------------------------------------------
   1 STRETCH   1  7                     2.0586583       1.0893951
   2 STRETCH   1  4                     2.9096125       1.5397007
   3 STRETCH   1  2                     2.8456618       1.5058595
   4 STRETCH   1  8                     2.0512696       1.0854852
   5 STRETCH   2  3                     2.4954550       1.3205380
   6 STRETCH   2  9                     2.0408245       1.0799579
   7 STRETCH   3 11                     2.0381922       1.0785649
   8 STRETCH   3 10                     2.0354694       1.0771241
   9 STRETCH   4 13                     2.0535113       1.0866715
  10 STRETCH   4 12                     2.0571588       1.0886016
  11 STRETCH   4  5                     2.8458092       1.5059375
  12 STRETCH   5 14                     2.0430300       1.0811250
  13 STRETCH   5  6                     2.4945066       1.3200361
  14 STRETCH   6 16                     2.0375422       1.0782210
  15 STRETCH   6 15                     2.0356916       1.0772417
  16 BEND      1  2  9                  2.0309616     116.3655296
  17 BEND      1  4  5                  1.9712075     112.9418727
  18 BEND      1  2  3                  2.1798570     124.8966050
  19 BEND      1  4 12                  1.8785933     107.6354678
  20 BEND      1  4 13                  1.9267681     110.3956829
  21 BEND      2  3 10                  2.1185824     121.3858329
  22 BEND      2  3 11                  2.1251641     121.7629339
  23 BEND      2  1  8                  1.9087345     109.3624303
  24 BEND      2  1  4                  1.9909739     114.0744017
  25 BEND      2  1  7                  1.8991957     108.8158999
  26 BEND      3  2  9                  2.0723299     118.7357592
  27 BEND      4  1  7                  1.8858647     108.0520864
  28 BEND      4  1  8                  1.9108407     109.4831066
  29 BEND      4  5 14                  2.0104286     115.1890751
  30 BEND      4  5  6                  2.2025033     126.1941408
  31 BEND      5  6 15                  2.1127255     121.0502527
  32 BEND      5  6 16                  2.1297637     122.0264719
  33 BEND      5  4 12                  1.8902014     108.3005648
  34 BEND      5  4 13                  1.9263494     110.3716883
  35 BEND      6  5 14                  2.0702131     118.6144732
  36 BEND      7  1  8                  1.8638796     106.7924326
  37 BEND     10  3 11                  2.0393924     116.8485768
  38 BEND     12  4 13                  1.8667272     106.9555928
  39 BEND     15  6 16                  2.0406822     116.9224755
  40 TORSION   1  4  5 14              -0.9252254     -53.0115096
  41 TORSION   1  2  3 10              -3.1259790    -179.1054039
  42 TORSION   1  2  3 11               0.0049376       0.2829011
  43 TORSION   1  4  5  6               2.2262145     127.5526947
  44 TORSION   2  1  4 12               2.9843085     170.9882799
  45 TORSION   2  1  4  5              -1.2132958     -69.5167314
  46 TORSION   2  1  4 13               0.9526971      54.5855220
  47 TORSION   3  2  1  8              -0.1001833      -5.7400822
  48 TORSION   3  2  1  4              -2.2464308    -128.7110057
  49 TORSION   3  2  1  7               1.9298403     110.5717022
  50 TORSION   4  5  6 15               3.1258473     179.0978583
  51 TORSION   4  5  6 16              -0.0098907      -0.5666956
  52 TORSION   4  1  2  9               0.9045280      51.8256353
  53 TORSION   5  4  1  8               2.9247883     167.5780228
  54 TORSION   5  4  1  7               0.9010341      51.6254539
  55 TORSION   6  5  4 12              -1.9780974    -113.3366349
  56 TORSION   6  5  4 13               0.0599918       3.4372771
  57 TORSION   7  1  4 12              -1.1845468     -67.8695348
  58 TORSION   7  1  2  9              -1.2023862     -68.8916568
  59 TORSION   7  1  4 13               3.0670271     175.7277073
  60 TORSION   8  1  2  9               3.0507755     174.7965588
  61 TORSION   8  1  4 13              -1.1924041     -68.3197238
  62 TORSION   8  1  4 12               0.8392073      48.0830342
  63 TORSION   9  2  3 11               3.1369597     179.7345502
  64 TORSION   9  2  3 10               0.0060431       0.3462452
  65 TORSION  12  4  5 14               1.1536480      66.0991608
  66 TORSION  13  4  5 14              -3.0914481    -177.1269272
  67 TORSION  14  5  6 16              -3.1413327    -179.9851081
  68 TORSION  14  5  6 15              -0.0055947      -0.3205542

          INTERNUCLEAR DISTANCES (ANGS.)


 =====================================================
   GAMESS/COSab RESULTS
 =====================================================

   Dielectric Constant                  = INFTY
   Basic Grid Size                      =                 1082
   Number of Segments                   =                   92
   Number of Segments located on spheres=                  250
   Number of Segments of the cavity     =                  597
   Solvent Radius (rsolv)               = 1.40
   Outlying Charge Error Method         = double cavity

 =====================================================

  Total solvated Energy (a.u.)          =  -233.0466495653
  Total Energy corrected (a.u.)         =  -233.0466230357

  Outlying charge effect (a.u.)         =     0.0000265296
  Outlying charge effect (kcal/mol)     =     0.0166476088

  Dielectric Energy (a.u.)              =    -0.0049870981
  Dielectric energy corr. (a.u.)        =    -0.0049605685

  Sum of polarization charges           =     0.0246757811
  Sum of polarization charges(cor.)     =    -0.0246757811

  Total surface area of cavity (A**2)   =  144.95
  Total volume of cavity (A**3)         =  134.65

 =====================================================
 NPS=                   597
NR.  ATOM  (X, Y, Z)(a.u.)                  CHARGE(e)  AREA(A**2) SIGMA(e/A**2)
   1   1   5.085660  -2.327917   5.975865   0.000463   0.325193   0.001423
   2   1   2.208341  -1.826043   7.530443   0.001176   0.325193   0.003617
   3   1   5.802718   2.063589   9.637440   0.000033   0.092912   0.000357
   4   1   2.075603  -1.939957   6.669038   0.000826   0.278737   0.002962
   5   1   4.556207  -2.266760   5.189762   0.000237   0.278737   0.000850
   6   1   4.361371  -2.475304   6.676284   0.000888   0.278737   0.003187
   7   1   3.142825  -2.331446   7.060292   0.001154   0.278737   0.004141
   8   1   1.224720  -1.112676   7.201940   0.000811   0.371649   0.002182
   9   1   0.719351  -0.476034   6.840319   0.000210   0.092912   0.002262
  10   1   5.471694  -2.150164   7.069854   0.000247   0.278737   0.000885
  11   1   1.642542  -1.128970   8.049883   0.000355   0.185824   0.001909
  12   1   0.751840  -0.587066   6.265569   0.000172   0.185824   0.000927
  13   1   3.647193  -2.479590   6.322037   0.000892   0.278737   0.003202
  14   2  -0.365654   0.945237   6.496606   0.000800   0.139368   0.005743
  15   2   0.601499   2.511671   3.752113   0.000120   0.185824   0.000645
  16   2  -0.971542   4.332541   5.366186   0.001952   0.278737   0.007005
  17   2   4.513291   6.579874   7.490431   0.001787   0.278737   0.006412
  18   2   2.013007   7.275017   6.729422   0.000049   0.092912   0.000523
  19   2  -0.591844   5.189458   5.285213   0.000590   0.232280   0.002539
  20   2   0.697995   3.274463   3.556489   0.000072   0.232280   0.000311
  21   2  -0.132374   2.850559   4.183541   0.000744   0.278737   0.002671
  22   2  -0.893633   3.526743   5.028075   0.001760   0.278737   0.006315
  23   2   2.721522   7.280476   6.884712   0.000807   0.185824   0.004340
  24   2   3.745638   7.014065   7.341652   0.002174   0.278737   0.007798
  25   2  -0.218650   1.871002   4.728565   0.000744   0.278737   0.002670
  26   2  -0.345253   1.195304   5.701329   0.001372   0.232280   0.005905
  27   2  -0.837056   1.790124   5.923653   0.002278   0.232280   0.009805
  28   2  -1.110458   2.770819   5.661674   0.000974   0.185824   0.005243
  29   2   4.769475   6.052636   8.384242   0.001373   0.139368   0.009849
  30   2   3.382090   7.139735   6.567032   0.000673   0.185824   0.003619
  31   2  -0.330194   3.804729   4.306967   0.001130   0.325193   0.003475
  32   2  -0.740567   2.462539   5.064837   0.001409   0.278737   0.005054
  33   3  -0.981282   0.939820   8.296393   0.003122   0.325193   0.009600
  34   3   3.777580   3.695411  11.847527   0.001291   0.278737   0.004633
  35   3  -1.844476   4.397437   6.899820   0.001793   0.278737   0.006434
  36   3  -2.252764   3.107431  10.425369   0.000994   0.418105   0.002377
  37   3   0.749967   4.968971  12.707026   0.000376   0.278737   0.001347
  38   3   2.921554   7.032212  10.382283   0.002254   0.371649   0.006064
  39   3   4.085126   3.074876  11.378418   0.000797   0.185824   0.004289
  40   3   1.960913   7.445193  10.244222   0.001499   0.325193   0.004610
  41   3  -0.129160   5.576936  12.234131   0.000183   0.371649   0.000494
  42   3  -2.328438   4.268642  10.434934   0.000742   0.418105   0.001774
  43   3  -2.037878   4.988474   7.449599   0.001380   0.278737   0.004952
  44   3   0.742076   7.325924   7.513097  -0.000104   0.092912  -0.001123
  45   3  -0.282202   0.450469   9.287537   0.002106   0.325193   0.006475
  46   3  -0.750731   0.767823   9.835871   0.001101   0.232280   0.004740
  47   3   4.497850   3.980571  10.930900   0.002973   0.371649   0.008001
  48   3  -1.371678   5.562906   6.857181   0.000754   0.185824   0.004055
  49   3  -2.335101   3.918385   7.741427   0.002041   0.325193   0.006275
  50   3  -2.556784   3.456902   9.230344   0.001863   0.464561   0.004011
  51   3  -1.702834   3.765339  11.526721   0.000557   0.371649   0.001497
  52   3  -0.657730   4.383250  12.365679   0.000390   0.371649   0.001050
  53   3   1.272697   5.914334  12.314317   0.001273   0.603929   0.002108
  54   3   2.268937   6.726713  11.398697   0.001799   0.464561   0.003873
  55   3   2.656896   7.409579   9.101327   0.002380   0.371649   0.006403
  56   3   1.552584   7.553490   8.104171   0.000727   0.185824   0.003913
  57   3  -1.976295   3.035991   7.241401   0.003603   0.325193   0.011081
  58   3  -1.628925   1.855436   7.671515   0.003268   0.371649   0.008792
  59   3  -1.593682   1.373593   8.981769   0.002503   0.418105   0.005987
  60   3  -2.099720   2.184150   9.749505   0.001735   0.464561   0.003736
  61   3  -1.617121   2.654439  11.287769   0.000669   0.371649   0.001799
  62   3  -1.295940   1.724724  10.904896   0.000565   0.232280   0.002434
  63   3   0.167379   4.260571  12.723965   0.000107   0.278737   0.000384
  64   3   1.777351   4.538500  12.784392   0.000652   0.418105   0.001558
  65   3   3.067246   4.306702  12.360071   0.001305   0.371649   0.003510
  66   3   3.971276   4.949957  11.447946   0.002979   0.511017   0.005829
  67   3   3.522867   6.228750  10.983970   0.002641   0.464561   0.005685
  68   3   3.720792   6.680903   9.644861   0.004639   0.418105   0.011096
  69   3   1.295979   6.840221  11.505417   0.000547   0.278737   0.001962
  70   3  -1.416696   4.643573  11.740938   0.000173   0.325193   0.000533
  71   3  -2.543415   4.340061   8.694929   0.001370   0.325193   0.004212
  72   3  -0.855404   6.160199   6.842197   0.000033   0.092912   0.000351
  73   3   1.874725   7.638936   8.926978   0.001130   0.232280   0.004865
  74   3  -1.369633   1.351007  10.148257   0.001349   0.325193   0.004149
  75   3   4.321012   5.594590  10.406711   0.003974   0.371649   0.010692
  76   3  -2.255171   2.596274   8.302096   0.002975   0.464561   0.006405
  77   3  -0.952384   3.195089  12.127001   0.000057   0.232280   0.000245
  78   3   2.758114   5.535215  12.140872   0.001938   0.603929   0.003209
  79   4  10.413028   2.036096   4.967007   0.000435   0.232280   0.001875
  80   4   9.010967   1.335027   8.204234   0.001095   0.371649   0.002947
  81   4   9.384185   0.621493   7.552119   0.000857   0.278737   0.003073
  82   4  10.333304   1.322220   4.785045   0.000457   0.325193   0.001405
  83   4   6.227882  -1.466558   3.833272  -0.000084   0.139368  -0.000606
  84   4  10.347992   2.178407   6.082943   0.000963   0.278737   0.003455
  85   4   9.882632   1.586322   7.243208   0.001291   0.325193   0.003971
  86   4   8.337681   0.683763   8.447327   0.000551   0.325193   0.001694
  87   4  10.329893   2.812248   5.563622   0.000414   0.232280   0.001784
  88   4   7.847714   1.648271   8.893238   0.000277   0.232280   0.001190
  89   4   8.084506  -0.164394   8.085510   0.000282   0.278737   0.001011
  90   4  10.250251   1.428617   6.335571   0.000946   0.278737   0.003395
  91   4   6.517195  -1.267063   3.395485  -0.000010   0.046456  -0.000216
  92   5   3.501317   4.264245   0.783393   0.001825   0.232280   0.007857
  93   5   8.602835   0.404268   0.917930   0.001258   0.371649   0.003385
  94   5   7.664421   0.146703   0.511133   0.000891   0.325193   0.002739
  95   5   6.982745   2.182711  -0.976359   0.000143   0.092912   0.001540
  96   5   3.940648   3.689832   0.004882   0.000452   0.185824   0.002434
  97   5   3.247459   3.533617   0.870979   0.000786   0.185824   0.004228
  98   5   7.537375   1.778236  -0.742001   0.000873   0.185824   0.004701
  99   5   8.478947   1.245676  -0.023322   0.002322   0.418105   0.005553
 100   5   7.638749  -0.370288   1.448360   0.000460   0.325193   0.001415
 101   5   9.477348   1.255006   1.116154   0.004285   0.511017   0.008386
 102   5   9.108984   0.384967   1.876905   0.000659   0.325193   0.002028
 103   5   7.699536   1.050738  -0.321926   0.000869   0.232280   0.003741
 104   5   2.990639   3.149404   1.351667   0.000465   0.139368   0.003336
 105   5   6.675127  -0.636896   1.758601  -0.000159   0.232280  -0.000686
 106   5   9.992001   1.539889   2.414436   0.002615   0.418105   0.006255
 107   6  11.115877   5.028576   3.073843   0.001768   0.371649   0.004756
 108   6   4.076771   5.768558   0.474399   0.002506   0.325193   0.007707
 109   6   6.341544   8.730406   1.433182   0.000868   0.371649   0.002336
 110   6  10.239868   7.537445   0.741181   0.000351   0.278737   0.001259
 111   6  10.241494   3.928849  -0.422955   0.002197   0.371649   0.005911
 112   6  10.779987   4.802920   3.785049   0.000615   0.139368   0.004411
 113   6   9.643245   4.414045  -1.143461   0.001459   0.325193   0.004486
 114   6   9.478744   7.695463  -0.131651   0.000202   0.371649   0.000543
 115   6   6.480972   8.454017   0.341135   0.000771   0.418105   0.001844
 116   6   4.539077   6.122509  -0.213769   0.001317   0.278737   0.004723
 117   6   7.254902   3.480988  -1.473742   0.000095   0.092912   0.001023
 118   6   6.104299   7.759395   4.253883   0.001013   0.185824   0.005452
 119   6   6.511608   7.945132   4.253441   0.000343   0.092912   0.003693
 120   6  10.912093   3.837889   2.920491   0.002936   0.371649   0.007899
 121   6   4.618794   5.109308  -0.516794   0.000724   0.185824   0.003896
 122   6   4.277253   6.766493   0.811048   0.003297   0.418105   0.007885
 123   6   5.273578   8.056882   0.957572   0.001605   0.418105   0.003838
 124   6   7.583141   8.848952   1.023735   0.000574   0.371649   0.001545
 125   6   8.994631   8.479143   0.802724   0.000408   0.371649   0.001097
 126   6  10.466477   6.655917   0.039230   0.001247   0.603929   0.002064
 127   6  10.552742   5.134112  -0.370011   0.001747   0.464561   0.003762
 128   6   9.186685   3.187880  -0.860722   0.003081   0.371649   0.008289
 129   6   8.032301   3.211678  -1.296414   0.000547   0.185824   0.002941
 130   6   5.398431   8.015152   3.186043   0.001508   0.232280   0.006494
 131   6   5.637452   8.417878   2.312748   0.001928   0.511017   0.003772
 132   6   7.208084   8.932339   2.096546   0.000679   0.371649   0.001827
 133   6   6.906327   8.705826   3.082321   0.000555   0.232280   0.002391
 134   6   9.742472   8.154927   1.202526   0.000089   0.278737   0.000318
 135   6  10.828536   6.970076   1.501688   0.000633   0.418105   0.001513
 136   6  11.237895   5.837462   2.170432   0.001285   0.371649   0.003459
 137   6  11.233489   4.429261   1.887645   0.002946   0.511017   0.005765
 138   6  10.907346   4.082156   0.601176   0.002947   0.511017   0.005766
 139   6  10.120928   3.019687   0.184283   0.003408   0.371649   0.009169
 140   6  10.067707   5.866998  -0.815590   0.000546   0.278737   0.001958
 141   6   8.114089   8.546803   0.298574   0.000155   0.325193   0.000477
 142   6   5.038759   7.463131   0.210383   0.001332   0.325193   0.004097
 143   6   5.052877   4.570334  -0.897059  -0.000006   0.092912  -0.000066
 144   6   8.666502   3.683737  -1.386855   0.000758   0.185824   0.004082
 145   6   6.290545   8.382835   3.458377   0.001121   0.278737   0.004020
 146   6  10.734350   3.202268   1.545199   0.004546   0.418105   0.010874
 147   6   4.637223   7.603873   1.775386   0.002481   0.371649   0.006677
 148   6   8.371526   8.854990   1.815638   0.000030   0.232280   0.000131
 149   6  11.153586   5.585631   0.912526   0.001856   0.603929   0.003073
 150   7   1.983185  -1.490454   3.476905  -0.002051   0.353299  -0.005806
 151   7   1.527097   0.308031   3.140294  -0.001086   0.235532  -0.004610
 152   7   0.774514  -0.591069   4.539774  -0.001241   0.314043  -0.003952
 153   7   2.068929  -2.162165   5.140390  -0.000938   0.333671  -0.002811
 154   7   3.679432  -2.131866   4.095936  -0.001144   0.353299  -0.003239
 155   7   1.983586  -0.690190   2.961536  -0.001886   0.294415  -0.006408
 156   7   1.106721  -0.351601   3.634000  -0.001360   0.333671  -0.004077
 157   7   1.371088  -1.502500   4.239630  -0.001623   0.314043  -0.005167
 158   7   2.657642  -2.277336   4.430248  -0.001727   0.431809  -0.004000
 159   7   3.117585  -1.691190   3.303916  -0.002329   0.392554  -0.005933
 160   7   1.152450  -1.428232   5.203236  -0.000890   0.314043  -0.002833
 161   8   4.798135  -1.397597   9.915523  -0.002139   0.372926  -0.005736
 162   8   5.638082   0.438465  10.121329  -0.001308   0.333671  -0.003919
 163   8   5.812850  -1.453281   9.108442  -0.001756   0.353299  -0.004971
 164   8   3.870346  -2.196794   8.624499  -0.000791   0.314043  -0.002520
 165   8   2.993169  -1.637422   9.167414  -0.001206   0.353299  -0.003412
 166   8   4.906405  -0.340750  10.416190  -0.002358   0.372926  -0.006323
 167   8   5.889286  -0.614269   9.771332  -0.001610   0.372926  -0.004317
 168   8   5.021341  -2.083647   8.725457  -0.001653   0.431809  -0.003829
 169   8   3.994393  -1.845077   9.477732  -0.001161   0.235532  -0.004930
 170   8   3.720728  -1.153306  10.095150  -0.002011   0.294415  -0.006832
 171   9   1.379745   6.456936   3.708589  -0.002422   0.294415  -0.008226
 172   9   0.863261   4.819506   3.314115  -0.001765   0.353299  -0.004995
 173   9   2.437507   7.289475   5.215649  -0.001755   0.314043  -0.005589
 174   9   1.311202   7.177429   5.328728  -0.001794   0.314043  -0.005713
 175   9   0.173601   5.583895   4.115999  -0.001382   0.372926  -0.003707
 176   9   1.782117   7.039413   4.337963  -0.002822   0.353299  -0.007987
 177   9   0.502114   6.559626   4.702665  -0.002733   0.471065  -0.005802
 178   9   1.138091   5.726572   3.344831  -0.002548   0.333671  -0.007636
 179  10  -1.384482   7.562213   9.664405  -0.004964   0.608459  -0.008159
 180  10  -1.855890   6.587375   8.133890  -0.001905   0.412182  -0.004622
 181  10  -0.114800   7.742539   8.259177  -0.001750   0.353299  -0.004954
 182  10   0.365822   7.797661  10.299763  -0.001448   0.353299  -0.004099
 183  10  -1.045806   6.578720  11.342115  -0.001688   0.333671  -0.005058
 184  10  -2.327372   5.764467  10.129300  -0.001352   0.333671  -0.004052
 185  10  -1.097943   7.398991   8.174514  -0.003130   0.490692  -0.006379
 186  10  -0.000129   8.010289   9.334679  -0.002843   0.490692  -0.005794
 187  10  -0.468130   7.404793  10.915334  -0.003077   0.510320  -0.006030
 188  10  -1.838277   6.541678  10.666444  -0.003180   0.490692  -0.006481
 189  10  -2.300425   6.388222   9.143683  -0.003267   0.549575  -0.005944
 190  11   1.069170   1.200429  12.642593  -0.003638   0.471065  -0.007724
 191  11   3.130142   2.064882  12.278909  -0.002003   0.392554  -0.005103
 192  11   0.076186   0.725329  11.518992  -0.001656   0.392554  -0.004219
 193  11   0.287293   2.409782  12.871369  -0.001915   0.372926  -0.005136
 194  11   2.291282   2.897726  12.933495  -0.001457   0.372926  -0.003906
 195  11   2.158511   0.850028  12.154948  -0.003367   0.412182  -0.008170
 196  11   1.035460   0.308721  11.374058  -0.003289   0.490692  -0.006702
 197  11  -0.141081   1.541107  12.276604  -0.002151   0.412182  -0.005219
 198  11   1.210579   2.668306  13.126000  -0.002374   0.412182  -0.005759
 199  11   2.186549   1.790898  12.826345  -0.002570   0.372926  -0.006891
 200  12   9.214371  -1.712937   5.003155  -0.002750   0.451437  -0.006092
 201  12   8.736704  -1.324854   3.675861  -0.001033   0.274788  -0.003758
 202  12   7.351605  -2.052886   4.612490  -0.001044   0.353299  -0.002954
 203  12   8.105495  -1.746812   6.658523  -0.001423   0.294415  -0.004833
 204  12   9.760840  -0.550109   6.505397  -0.001181   0.372926  -0.003168
 205  12  10.094301  -0.152701   4.549362  -0.001114   0.333671  -0.003340
 206  12   8.140047  -1.855533   4.104065  -0.002086   0.451437  -0.004620
 207  12   7.984418  -2.154142   5.650622  -0.002361   0.471065  -0.005011
 208  12   9.123534  -1.611429   6.139594  -0.002075   0.372926  -0.005563
 209  12  10.101632  -0.515003   5.565845  -0.001868   0.471065  -0.003965
 210  12   9.621467  -0.938526   4.182371  -0.001934   0.392554  -0.004926
 211  12   8.855371  -1.037749   7.076073  -0.000866   0.314043  -0.002758
 212  13   9.043184   4.677978   8.011544  -0.002628   0.451437  -0.005822
 213  13   9.768934   3.375001   7.725016  -0.001096   0.392554  -0.002791
 214  13   8.105623   3.283007   8.976321  -0.001536   0.392554  -0.003912
 215  13   7.629194   5.396815   7.861554  -0.002032   0.372926  -0.005449
 216  13   8.432796   5.404484   7.541030  -0.001643   0.255160  -0.006440
 217  13   9.821835   4.230624   7.068552  -0.002125   0.431809  -0.004922
 218  13   9.113361   3.283829   8.507788  -0.001415   0.412182  -0.003433
 219  13   8.073781   4.402246   8.719163  -0.002603   0.431809  -0.006028
 220  14   4.459903   0.643729  -0.516657  -0.003718   0.490692  -0.007577
 221  14   5.241019  -0.549100   0.956243  -0.001950   0.294415  -0.006622
 222  14   6.219149   0.126517  -0.264117  -0.001401   0.353299  -0.003967
 223  14   5.433347   1.786555  -1.122917  -0.001611   0.274788  -0.005864
 224  14   3.561376   2.247450  -0.091965  -0.001581   0.412182  -0.003836
 225  14   4.098801   0.093952   0.397781  -0.003311   0.412182  -0.008032
 226  14   5.478231  -0.309561   0.183087  -0.002439   0.412182  -0.005918
 227  14   5.764299   0.882840  -0.909724  -0.002626   0.471065  -0.005575
 228  14   4.378410   1.955080  -0.838997  -0.003193   0.510320  -0.006256
 229  14   3.314209   1.292509   0.427476  -0.003199   0.490692  -0.006520
 230  15   7.193072   6.395432  -2.413567  -0.004981   0.608459  -0.008186
 231  15   5.524132   6.004697  -1.653977  -0.001918   0.412182  -0.004653
 232  15   6.932759   4.532035  -2.132028  -0.001882   0.353299  -0.005328
 233  15   8.793636   5.493611  -2.029391  -0.001440   0.353299  -0.004077
 234  15   8.461903   7.503294  -1.384306  -0.001670   0.333671  -0.005005
 235  15   6.578209   7.852995  -1.059125  -0.001344   0.333671  -0.004029
 236  15   6.194791   5.271488  -2.151445  -0.003134   0.490692  -0.006388
 237  15   7.881882   5.073532  -2.349949  -0.002818   0.490692  -0.005743
 238  15   8.669628   6.592633  -1.955091  -0.003064   0.510320  -0.006004
 239  15   7.456594   7.641991  -1.621009  -0.003141   0.490692  -0.006402
 240  15   5.980265   7.028531  -1.628301  -0.003250   0.549575  -0.005914
 241  16   9.716605   8.116790   4.476899  -0.003843   0.490692  -0.007832
 242  16  10.559614   6.295272   4.554879  -0.001947   0.353299  -0.005512
 243  16   7.915317   8.369194   4.493515  -0.001380   0.353299  -0.003906
 244  16   9.411937   8.700071   2.931729  -0.001844   0.372926  -0.004946
 245  16  10.822817   7.328074   3.028424  -0.001332   0.333671  -0.003992
 246  16   9.852767   7.186422   5.082052  -0.003303   0.412182  -0.008012
 247  16   8.453002   7.757837   5.203503  -0.003624   0.510320  -0.007102
 248  16   8.685508   8.768666   3.827969  -0.002734   0.471065  -0.005805
 249  16  10.244217   8.184689   3.247202  -0.002866   0.451437  -0.006349
 250  16  10.808632   6.974627   3.927237  -0.002313   0.412182  -0.005612
 251   1   0.357060   0.179349   7.049077   0.000317   0.046308   0.006845
 252   2   0.034229   0.537348   7.143554   0.000497   0.046308   0.010741
 253   3  -0.143599   0.638028   7.522256   0.000612   0.046308   0.013212
 254   1   0.516994   0.031063   5.754076   0.000008   0.028581   0.000270
 255   2   0.263218   0.439034   5.855022   0.000123   0.028581   0.004291
 256   7   0.600989  -0.116361   5.501304  -0.000046   0.028581  -0.001595
 257   2   0.039525   0.557009   6.386961   0.000714   0.161398   0.004421
 258   1   0.463809  -0.035081   6.443259   0.000346   0.161398   0.002141
 259   1   1.825764  -0.579763   8.896681  -0.000016   0.070042  -0.000227
 260   3   1.361867  -0.058214   9.340409   0.000069   0.070042   0.000992
 261   8   2.052041  -0.647171   9.089013  -0.000228   0.070042  -0.003260
 262   1   5.132812   1.832796  10.011381  -0.000025   0.070042  -0.000362
 263   3   4.588530   2.295702  10.428013   0.000203   0.070042   0.002905
 264   8   5.065094   1.550912  10.104616  -0.000186   0.070042  -0.002661
 265   1   5.767842   2.868833   9.401492   0.000147   0.162438   0.000905
 266   3   5.189301   3.322642   9.783247   0.001105   0.162438   0.006801
 267  13   6.378242   3.207064   9.098136  -0.000090   0.162438  -0.000555
 268   3   4.661684   2.940947  10.594939   0.001269   0.248692   0.005104
 269   1   5.439941   2.432231   9.845818   0.000477   0.248692   0.001916
 270   3  -0.104725   0.409685   8.065035   0.002416   0.318626   0.007584
 271   3   0.647245   0.076859   9.178818   0.001209   0.318626   0.003794
 272   1   1.003155  -0.384358   7.940235   0.001140   0.639120   0.001783
 273   1   4.983682  -1.607689   4.127256  -0.000103   0.029851  -0.003441
 274   4   5.431417  -1.449987   3.963561  -0.000097   0.029851  -0.003255
 275   7   4.704582  -1.621428   4.006356  -0.000144   0.029851  -0.004811
 276   1   6.352084   1.262617   9.386391  -0.000045   0.027871  -0.001625
 277   4   6.785352   1.383610   9.163423  -0.000032   0.027871  -0.001145
 278   8   6.219930   1.015656   9.500702  -0.000091   0.027871  -0.003260
 279   1   5.702811  -1.743642   4.604343  -0.000062   0.030251  -0.002040
 280   4   6.155775  -1.660904   4.404032  -0.000072   0.030251  -0.002372
 281  12   6.439046  -1.734147   4.486953  -0.000123   0.030251  -0.004081
 282   1   6.472407   2.413862   9.200814  -0.000046   0.026786  -0.001702
 283   4   6.936488   2.541458   9.058022  -0.000068   0.026786  -0.002522
 284  13   7.106554   2.789030   9.017759  -0.000107   0.026786  -0.003985
 285   4   6.954990   2.080219   9.124087  -0.000036   0.152125  -0.000237
 286   1   6.353845   1.731663   9.384360   0.000003   0.152125   0.000019
 287   4   5.919558  -1.595586   4.164969  -0.000059   0.093263  -0.000628
 288   1   5.224599  -1.727954   4.337391  -0.000062   0.093263  -0.000660
 289   7   4.284131  -1.912634   4.183376  -0.000251   0.067872  -0.003701
 290   7   3.619246  -2.279726   4.965363  -0.000462   0.149844  -0.003085
 291   7   2.495027  -2.176822   5.648331  -0.000367   0.149844  -0.002447
 292   7   1.393856  -1.460885   5.773864  -0.000472   0.149844  -0.003151
 293   7   0.774341  -0.621192   5.458511  -0.000190   0.067872  -0.002797
 294   1   4.385789  -2.059231   4.749374  -0.000420   0.149618  -0.002808
 295   1   3.304211  -2.324233   5.728009  -0.000119   0.149618  -0.000795
 296   1   1.987361  -1.839692   6.206432  -0.000130   0.149618  -0.000868
 297   1   0.954953  -0.796840   5.995824  -0.000296   0.149618  -0.001979
 298   1   6.241471  -1.625035   7.453186  -0.000072   0.038800  -0.001856
 299   8   6.121521  -1.604044   7.730044  -0.000146   0.038800  -0.003761
 300  12   6.886861  -1.543631   7.091373  -0.000102   0.038800  -0.002640
 301   8   5.758452   0.999922   9.855974  -0.000264   0.079838  -0.003304
 302   1   5.744177   1.453358   9.750956  -0.000196   0.097539  -0.002014
 303   8   2.400777  -1.219681   8.873427  -0.000245   0.072657  -0.003378
 304   8   3.138436  -1.930302   8.311522  -0.000421   0.163203  -0.002578
 305   8   4.469962  -2.211608   7.947243  -0.000548   0.163203  -0.003360
 306   8   5.593016  -1.894092   8.000096  -0.000269   0.072657  -0.003699
 307   1   2.407264  -1.464697   8.312223  -0.000235   0.157516  -0.001494
 308   1   3.650208  -2.199429   7.665721  -0.000171   0.157516  -0.001083
 309   1   5.221140  -2.059173   7.542403  -0.000425   0.157516  -0.002695
 310  12   7.212273  -1.799857   6.561779  -0.000640   0.179969  -0.003559
 311  12   6.806629  -1.940581   5.308068  -0.001651   0.366893  -0.004500
 312   1   6.020271  -1.971195   6.474400  -0.000218   0.494943  -0.000441
 313   1   5.586860  -2.008867   5.031364   0.000076   0.253723   0.000299
 314  13   7.133300   3.092184   9.049748  -0.000223   0.066244  -0.003367
 315   1   6.227259   2.505821   9.389200   0.000090   0.093386   0.000963
 316   2   1.258983   7.115787   6.580714  -0.000051   0.011689  -0.004350
 317   3   1.063782   7.149736   6.962007  -0.000027   0.011689  -0.002299
 318   9   1.292974   7.104631   6.283326  -0.000077   0.011689  -0.006614
 319   2  -0.107944   6.220582   6.006151  -0.000044   0.011689  -0.003775
 320   3  -0.287327   6.264891   6.394092  -0.000024   0.011689  -0.002024
 321   9   0.048516   6.289632   5.760240  -0.000057   0.011689  -0.004836
 322   2   5.200894   5.265017   8.788830   0.000840   0.068806   0.012212
 323   3   4.942078   5.289132   9.130445   0.001275   0.068806   0.018534
 324  13   6.093145   4.954961   8.459156   0.000260   0.068806   0.003780
 325   3   4.348459   5.980873   9.346965   0.002654   0.179718   0.014768
 326   3   3.021879   7.025635   8.428505   0.003612   0.366566   0.009853
 327   3   1.378966   7.328923   7.477839   0.000224   0.179718   0.001248
 328   2   4.159733   6.321531   8.468298   0.004690   0.366566   0.012793
 329   2   2.309196   7.161612   7.303492   0.001299   0.366566   0.003544
 330   3  -0.787761   5.900449   6.568883   0.000232   0.185281   0.001252
 331   3  -1.437200   4.033438   6.567777   0.003809   0.378861   0.010053
 332   3  -1.049188   1.748444   7.209695   0.005336   0.378861   0.014084
 333   2  -0.789860   5.099964   6.006907   0.001328   0.378861   0.003506
 334   2  -1.135526   2.734025   6.265091   0.004947   0.378861   0.013058
 335   2  -0.453427   1.013919   6.960417   0.001981   0.185281   0.010694
 336   2   1.835358   2.196852   3.258101  -0.000561   0.208423  -0.002690
 337   5   2.601004   2.114034   2.529089  -0.000388   0.208423  -0.001863
 338   7   2.075096   1.509342   3.088827  -0.000857   0.208423  -0.004110
 339   2   1.670696   3.608439   3.137547  -0.000314   0.092948  -0.003378
 340   5   2.472949   3.524337   2.458419   0.000048   0.092948   0.000521
 341   9   1.707056   3.904416   3.081516  -0.000448   0.092948  -0.004825
 342   5   2.613970   2.760684   2.020599   0.000469   0.326001   0.001440
 343   2   1.560517   3.071650   3.069954  -0.000033   0.326001  -0.000103
 344   2   3.845546   6.856309   5.521813   0.000087   0.118376   0.000738
 345   6   4.776189   7.000798   4.583888   0.001266   0.118376   0.010691
 346   9   3.705423   6.897029   5.254234  -0.000214   0.118376  -0.001805
 347   2   5.589197   6.346705   5.981067   0.000417   0.061191   0.006816
 348   6   6.556833   6.839205   5.224364   0.000376   0.061191   0.006151
 349  16   6.843852   6.917985   5.207537   0.000056   0.061191   0.000909
 350   6   5.746454   7.302162   4.790309   0.003628   0.663356   0.005469
 351   2   4.621491   6.773012   6.293357   0.002016   0.663356   0.003039
 352   7   0.612655  -0.045822   5.021183  -0.000514   0.207345  -0.002479
 353   7   1.143183   0.728712   3.829604  -0.002251   0.426428  -0.005279
 354   2   0.246327   1.126271   4.935164   0.000525   0.566323   0.000926
 355   2   1.002052   1.998307   3.653383   0.000002   0.292342   0.000006
 356   9   1.754343   7.207782   5.947629  -0.000412   0.095136  -0.004327
 357   9   2.917428   7.144312   5.705804  -0.000359   0.095136  -0.003778
 358   2   2.410581   7.112355   6.202690  -0.000908   0.191335  -0.004746
 359   9   1.018263   4.146286   3.354103  -0.000346   0.074231  -0.004664
 360   9   0.203236   4.738297   4.008411  -0.000693   0.168303  -0.004115
 361   9  -0.030797   5.787759   4.975076  -0.000803   0.168303  -0.004773
 362   2   0.551561   3.978601   3.724393  -0.000514   0.159467  -0.003221
 363   2  -0.250721   4.968967   4.729417  -0.000323   0.159467  -0.002027
 364   2  -0.179772   5.965456   5.600499  -0.000223   0.090690  -0.002457
 365   2   5.801603   5.915280   6.624597   0.000665   0.337905   0.001968
 366  13   6.804038   5.775921   6.564526  -0.000662   0.337905  -0.001958
 367  16   7.031386   6.354299   5.708822   0.000392   0.337905   0.001161
 368  13   6.788904   5.458998   7.579975  -0.001125   0.411547  -0.002732
 369   2   5.402708   5.704431   8.114498   0.002921   0.583734   0.005004
 370  16   7.150778   7.152516   5.398716   0.000150   0.094098   0.001596
 371   2   5.334895   6.520565   6.821145   0.000508   0.147482   0.003446
 372   3   3.956914   2.104409  11.045514  -0.000043   0.081574  -0.000525
 373   8   4.366822   1.391819  10.587744  -0.000126   0.081574  -0.001541
 374  11   3.772726   1.936409  11.215862  -0.000226   0.081574  -0.002777
 375   3   1.137546   0.140679   9.746387  -0.000021   0.081574  -0.000252
 376   8   1.897807  -0.327884   9.450055  -0.000099   0.081574  -0.001212
 377  11   1.215761   0.155447  10.037648  -0.000270   0.081574  -0.003305
 378   8   4.998697   1.276095  10.313713  -0.000206   0.127181  -0.001616
 379   3   4.302535   2.295214  10.959604   0.000496   0.179710   0.002760
 380   3  -0.129654   6.683677   6.859351  -0.000064   0.012192  -0.005272
 381   9   0.230954   6.609501   6.244917  -0.000083   0.012192  -0.006825
 382  10  -0.260598   6.793855   7.102858  -0.000096   0.012192  -0.007868
 383   3   0.414362   7.044220   7.089103  -0.000059   0.012192  -0.004864
 384   9   0.710730   6.927470   6.447539  -0.000085   0.012192  -0.006940
 385  10   0.227885   7.117594   7.309157  -0.000082   0.012192  -0.006699
 386   9   0.214049   6.475882   5.657082  -0.000370   0.087976  -0.004206
 387   3  -0.246828   6.563842   6.623870   0.000003   0.124452   0.000023
 388   9   1.056905   7.054983   6.018254  -0.000419   0.093196  -0.004497
 389   3   0.755503   7.199718   7.039956   0.000045   0.131831   0.000344
 390  10  -0.755556   6.829295   7.408178  -0.000302   0.065014  -0.004640
 391  10  -1.571747   6.190691   7.657214  -0.000529   0.143390  -0.003692
 392  10  -2.260887   5.541690   8.534941  -0.000347   0.143390  -0.002422
 393  10  -2.354884   5.265965   9.792583  -0.000530   0.143390  -0.003695
 394  10  -1.817758   5.469052  10.948773  -0.000693   0.143390  -0.004832
 395  10  -0.855099   6.073218  11.560976  -0.000793   0.143390  -0.005527
 396  10   0.164635   6.847217  11.394868  -0.000599   0.143390  -0.004176
 397  10   0.851136   7.494798  10.514029  -0.000512   0.143390  -0.003569
 398  10   0.941644   7.768098   9.255602  -0.000365   0.143390  -0.002543
 399  10   0.401517   7.562510   8.101255  -0.000663   0.143390  -0.004625
 400   3  -0.933894   6.326195   7.178650  -0.000490   0.143363  -0.003418
 401   3  -1.944005   5.485522   7.792868  -0.000099   0.143363  -0.000692
 402   3  -2.406705   4.939167   9.054505  -0.000204   0.143363  -0.001421
 403   3  -2.144891   4.896250  10.480665  -0.000475   0.143363  -0.003316
 404   3  -1.258776   5.373198  11.525482  -0.000576   0.143363  -0.004018
 405   3  -0.087521   6.187457  11.789048  -0.000523   0.143363  -0.003651
 406   3   0.920571   7.027367  11.170482  -0.000285   0.143363  -0.001986
 407   3   1.379650   7.571450   9.906543  -0.000126   0.143363  -0.000881
 408   3   1.114002   7.611456   8.481007  -0.000281   0.143363  -0.001957
 409   3   0.475347   7.297965   7.544020  -0.000220   0.079428  -0.002772
 410  11   3.542174   2.364672  11.768274  -0.000166   0.069017  -0.002400
 411  11   2.957617   3.076959  12.413478  -0.000555   0.153979  -0.003603
 412  11   1.752612   3.493242  12.884017  -0.000709   0.153979  -0.004605
 413  11   0.423332   3.221787  12.806140  -0.000763   0.153979  -0.004953
 414  11  -0.462166   2.378599  12.213129  -0.000806   0.153979  -0.005236
 415  11  -0.525472   1.324006  11.358400  -0.000623   0.153979  -0.004048
 416  11   0.260465   0.508679  10.607215  -0.000461   0.153979  -0.002997
 417   3   3.548327   2.959085  11.826605  -0.000264   0.150517  -0.001753
 418   3   2.496018   3.756825  12.592257  -0.000346   0.150517  -0.002302
 419   3   0.989994   3.842890  12.825601  -0.000592   0.150517  -0.003935
 420   3  -0.326160   3.180502  12.426919  -0.000646   0.150517  -0.004289
 421   3  -0.889997   2.052726  11.566584  -0.000434   0.150517  -0.002883
 422   3  -0.460566   0.941507  10.612254  -0.000197   0.150517  -0.001306
 423   3   0.445604   0.335040  10.018687  -0.000028   0.084319  -0.000337
 424  13   6.814830   4.740872   8.689144  -0.000290   0.323166  -0.000898
 425  13   6.885914   3.754447   9.111122  -0.000210   0.323166  -0.000649
 426   3   5.107983   4.546756   9.892821   0.007768   0.961958   0.008075
 427   4  10.199179   2.261448   3.736714   0.000303   0.045331   0.006686
 428   5  10.222650   2.433639   3.277270   0.000480   0.045331   0.010591
 429   6  10.357429   2.817521   3.137781   0.000573   0.045331   0.012635
 430   4   5.515291  -0.954530   3.150661  -0.000415   0.103680  -0.004000
 431   5   5.496477  -0.741319   2.705633  -0.000473   0.103680  -0.004564
 432   7   4.788859  -1.085284   3.278465  -0.000469   0.103680  -0.004521
 433   4   9.856900   0.813985   3.678294  -0.000007   0.029096  -0.000241
 434   5   9.798522   1.008180   3.231128   0.000102   0.029096   0.003502
 435  12   9.830931   0.534382   3.794972  -0.000058   0.029096  -0.002009
 436   4   7.045785  -1.042628   3.076340  -0.000104   0.029096  -0.003572
 437   5   7.022324  -0.825372   2.636651  -0.000087   0.029096  -0.002998
 438  12   7.270346  -1.156767   3.246665  -0.000113   0.029096  -0.003872
 439   5  10.087457   1.818685   3.188506   0.000845   0.192855   0.004380
 440   4  10.050752   1.350711   3.762772   0.000319   0.192855   0.001655
 441   5   6.473136  -0.757736   2.339742  -0.000361   0.180882  -0.001996
 442   4   6.284684  -1.007869   3.007202  -0.000374   0.180882  -0.002068
 443   4  10.004028   3.810424   5.484616   0.000000   0.069839   0.000004
 444   6  10.085114   4.355473   4.861420   0.000115   0.069839   0.001649
 445  13   9.929092   3.978182   5.728101  -0.000215   0.069839  -0.003082
 446   6  10.475825   4.230924   4.260132   0.001221   0.300372   0.004065
 447   6  10.578972   3.268577   3.390777   0.002078   0.300372   0.006919
 448   4  10.274620   2.957115   4.672882   0.001180   0.601928   0.001960
 449   7   4.484134  -1.514095   3.642077  -0.000482   0.116119  -0.004152
 450   4   5.591104  -1.355632   3.605745  -0.000072   0.163775  -0.000439
 451   4   7.362391  -0.853698   7.753529  -0.000068   0.043060  -0.001588
 452   8   6.724755  -0.982439   8.132990  -0.000106   0.043060  -0.002457
 453  12   7.525979  -0.990823   7.536883  -0.000155   0.043060  -0.003591
 454   8   6.457911  -0.872273   8.726387  -0.000586   0.167882  -0.003493
 455   8   6.366576   0.188530   9.340247  -0.001277   0.340977  -0.003744
 456   4   7.361086  -0.128657   8.437185  -0.000101   0.463176  -0.000218
 457   4   7.170167   1.100479   9.075439   0.000135   0.236573   0.000571
 458  12  10.028168   0.362979   4.290769  -0.000193   0.074678  -0.002589
 459  12  10.167614   0.431501   5.473691  -0.000519   0.168458  -0.003083
 460  12   9.657885   0.066176   6.766815  -0.000510   0.168458  -0.003025
 461  12   8.567836  -0.670354   7.345409  -0.000710   0.168458  -0.004217
 462   4  10.132480   0.828630   4.687698  -0.000387   0.161294  -0.002401
 463   4  10.015228   0.717851   6.293150  -0.000160   0.161294  -0.000990
 464   4   9.058317   0.058774   7.412721  -0.000322   0.161294  -0.001994
 465   4   7.986194  -0.659346   7.673781  -0.000196   0.091235  -0.002145
 466  12   7.000838  -1.644710   4.047279  -0.000507   0.115621  -0.004381
 467   4   6.771392  -1.385491   3.688033  -0.000453   0.141257  -0.003208
 468  13   7.644449   2.834123   8.982987  -0.000204   0.068643  -0.002970
 469  13   8.623890   2.499705   8.592827  -0.000470   0.152151  -0.003089
 470  13   9.612751   2.630689   7.701523  -0.000357   0.152151  -0.002349
 471  13  10.003350   3.348515   6.642473  -0.000419   0.152151  -0.002751
 472   4   7.855738   2.294182   8.843861  -0.000439   0.150714  -0.002914
 473   4   9.143453   2.069910   8.102272  -0.000144   0.150714  -0.000956
 474   4   9.961168   2.573067   6.946142  -0.000097   0.150714  -0.000640
 475   4  10.109668   3.345904   6.012881  -0.000076   0.083862  -0.000910
 476   5   3.382329   5.060011   1.813003   0.001640   0.128922   0.012721
 477   6   3.594080   5.420262   1.696426   0.001679   0.128922   0.013020
 478   9   2.729325   5.277258   2.616060   0.000673   0.128922   0.005219
 479   5   6.394248   2.643806  -1.080394  -0.000054   0.012099  -0.004441
 480   6   6.569477   3.023401  -1.178902  -0.000029   0.012099  -0.002375
 481  14   6.185353   2.429400  -1.059113  -0.000076   0.012099  -0.006276
 482   5   4.871307   3.497524  -0.687460  -0.000052   0.012099  -0.004263
 483   6   5.064127   3.867257  -0.790506  -0.000027   0.012099  -0.002234
 484  14   4.798848   3.206636  -0.701380  -0.000063   0.012099  -0.005244
 485   6  10.483789   2.880707   2.384224   0.002135   0.185566   0.011505
 486   6   9.729474   2.572940   0.579360   0.005232   0.379512   0.013787
 487   6   7.877909   2.884895  -0.929719   0.001542   0.379512   0.004062
 488   5   9.992574   2.206009   1.872438   0.004816   0.379512   0.012691
 489   5   8.661893   2.093901  -0.132469   0.003589   0.379512   0.009457
 490   5   6.962203   2.555781  -1.037435   0.000140   0.185566   0.000754
 491   6   4.776794   4.464173  -0.565061   0.000280   0.208891   0.001340
 492   6   3.973317   5.294352   0.681575   0.001839   0.208891   0.008804
 493   5   4.171859   4.340511   0.286067   0.001768   0.432846   0.004085
 494   5   2.911998   1.946729   1.950848  -0.000179   0.084626  -0.002120
 495   7   2.513967   1.336891   2.593495  -0.000262   0.084626  -0.003092
 496  14   2.983150   1.746205   1.734701  -0.000342   0.084626  -0.004040
 497   5   5.390696  -0.628509   2.334311  -0.000383   0.084626  -0.004532
 498   7   4.674144  -0.907422   2.927682  -0.000365   0.084626  -0.004310
 499  14   5.227890  -0.585963   2.081971  -0.000539   0.084626  -0.006371
 500   9   1.882776   4.830969   2.892501  -0.001662   0.404195  -0.004113
 501   5   2.813100   4.096360   1.846740   0.002636   0.577019   0.004568
 502  12   7.689238  -1.193057   3.266223  -0.000513   0.168020  -0.003053
 503  12   8.822365  -0.648792   3.293123  -0.001517   0.341848  -0.004438
 504  12   9.711228   0.142375   3.699199  -0.000428   0.168020  -0.002545
 505   5   7.879682  -0.523942   2.304862  -0.000223   0.463247  -0.000482
 506   5   9.326114   0.431360   2.614591   0.000502   0.463247   0.001084
 507  14   6.180031   1.946758  -1.036364  -0.000291   0.067032  -0.004344
 508  14   6.665580   1.058784  -0.630376  -0.000524   0.148378  -0.003529
 509  14   6.673259   0.056915   0.228281  -0.000632   0.148378  -0.004256
 510  14   5.989725  -0.495996   1.212233  -0.000855   0.148378  -0.005762
 511   5   6.733214   1.847000  -0.858963  -0.000434   0.147325  -0.002943
 512   5   7.149750   0.631592  -0.119302  -0.000316   0.147325  -0.002142
 513   5   6.749586  -0.288973   0.971683  -0.000482   0.147325  -0.003275
 514   5   5.973863  -0.618210   1.831033  -0.000409   0.081895  -0.004998
 515  14   3.099431   2.130932   1.089430  -0.000257   0.071460  -0.003595
 516  14   3.585406   2.720887   0.220036  -0.000617   0.160396  -0.003844
 517  14   4.404120   2.933214  -0.570336  -0.000299   0.071460  -0.004181
 518   5   3.216445   2.719637   0.996347  -0.000383   0.154978  -0.002472
 519   5   4.122379   3.276715  -0.156140  -0.000526   0.154978  -0.003391
 520   9   3.438644   7.132537   4.954042  -0.000021   0.239006  -0.000088
 521   9   2.847285   6.952464   4.032135  -0.001198   0.478785  -0.002502
 522   9   2.306307   6.099190   3.128167  -0.001362   0.478785  -0.002844
 523   6   4.721450   7.545019   3.592267   0.004754   0.700378   0.006788
 524   6   3.934242   6.982595   2.336637   0.005754   0.700378   0.008216
 525   6   3.523698   5.996934   1.620862   0.002940   0.352806   0.008333
 526   6  10.171274   4.903371   4.668164  -0.000042   0.082751  -0.000502
 527  13   9.872285   4.503378   5.484966  -0.000084   0.082751  -0.001013
 528  16  10.158412   5.193652   4.749739  -0.000228   0.082751  -0.002753
 529  13   9.982362   4.106097   5.918777  -0.000011   0.030815  -0.000359
 530   6  10.337263   4.708923   4.689852   0.000144   0.043608   0.003311
 531   6   5.562590   3.973823  -1.118359  -0.000077   0.015946  -0.004844
 532  14   5.311198   3.330187  -0.930669  -0.000093   0.015946  -0.005852
 533  15   5.699238   4.189553  -1.271474  -0.000114   0.015946  -0.007132
 534   6   6.333706   3.540821  -1.313003  -0.000075   0.015946  -0.004718
 535  14   5.991453   2.948206  -1.102378  -0.000096   0.015946  -0.006041
 536  15   6.391807   3.800658  -1.446291  -0.000102   0.015946  -0.006403
 537  14   4.847951   2.982438  -0.815827  -0.000305   0.077924  -0.003909
 538   6   5.299654   3.928115  -1.048383   0.000016   0.110242   0.000142
 539  14   5.879931   2.406917  -1.099542  -0.000327   0.073095  -0.004469
 540   6   6.491504   3.256575  -1.335827   0.000034   0.103413   0.000333
 541  15   5.634748   4.749971  -1.468680  -0.000316   0.067512  -0.004677
 542  15   5.226342   5.722189  -1.141611  -0.000559   0.150042  -0.003727
 543  15   5.435379   6.989311  -0.776950  -0.000383   0.150042  -0.002551
 544  15   6.400168   7.891874  -0.585021  -0.000612   0.150042  -0.004078
 545  15   7.723429   8.058221  -0.644857  -0.000744   0.150042  -0.004956
 546  15   8.860274   7.419854  -0.931818  -0.000834   0.150042  -0.005557
 547  15   9.342572   6.239639  -1.327740  -0.000580   0.150042  -0.003866
 548  15   8.971725   5.003563  -1.669591  -0.000503   0.150042  -0.003355
 549  15   7.900439   4.220616  -1.816604  -0.000527   0.150042  -0.003510
 550  15   6.805045   4.092819  -1.764086  -0.000303   0.067512  -0.004488
 551   6   5.247182   4.898445  -1.047789  -0.000499   0.147772  -0.003379
 552   6   4.995872   6.308156  -0.601874  -0.000104   0.147772  -0.000705
 553   6   5.692015   7.594899  -0.271785  -0.000257   0.147772  -0.001741
 554   6   7.048956   8.228822  -0.193447  -0.000551   0.147772  -0.003727
 555   6   8.507935   7.948888  -0.399117  -0.000619   0.147772  -0.004191
 556   6   9.468176   6.870368  -0.804104  -0.000515   0.147772  -0.003485
 557   6   9.534273   5.437374  -1.241645  -0.000299   0.147772  -0.002021
 558   6   8.679008   4.239982  -1.531568  -0.000133   0.147772  -0.000903
 559   6   7.254561   3.771251  -1.554490  -0.000484   0.147772  -0.003275
 560  16  10.570325   5.586557   4.272186  -0.000187   0.068265  -0.002735
 561  16  10.925175   6.179743   3.398585  -0.000486   0.151975  -0.003197
 562  16  10.732496   7.203002   2.544929  -0.000679   0.151975  -0.004467
 563  16   9.875981   8.200726   2.255372  -0.000738   0.151975  -0.004853
 564  16   8.714475   8.754908   2.651225  -0.000836   0.151975  -0.005499
 565  16   7.734601   8.633369   3.566642  -0.000603   0.151975  -0.003969
 566  16   7.346887   7.887029   4.618102  -0.000527   0.151975  -0.003465
 567   6  10.765728   5.431377   3.732896  -0.000232   0.149182  -0.001558
 568   6  10.978955   6.406888   2.596867  -0.000363   0.149182  -0.002431
 569   6  10.356142   7.606564   1.918244  -0.000596   0.149182  -0.003994
 570   6   9.158224   8.527791   1.981342  -0.000646   0.149182  -0.004329
 571   6   7.887079   8.784612   2.759726  -0.000457   0.149182  -0.003061
 572   6   7.075265   8.269430   3.927284  -0.000228   0.149182  -0.001527
 573   6   6.928461   7.462368   4.843116   0.000044   0.083401   0.000527
 574  14   4.897464  -0.700908   1.772080  -0.000556   0.260312  -0.002137
 575  14   3.912299  -0.194885   1.367908  -0.002046   0.520600  -0.003931
 576  14   3.070398   0.965938   1.376862  -0.001450   0.520600  -0.002786
 577   7   3.740045  -1.104235   2.772585  -0.001521   0.520600  -0.002922
 578   7   2.635952  -0.243270   2.462578  -0.001565   0.520600  -0.003006
 579   7   2.125002   0.805092   2.635295  -0.000326   0.260312  -0.001252
 580  11   1.391372  -0.008844  10.440089  -0.000187   0.257507  -0.000725
 581  11   2.291331   0.271308  11.187491  -0.001853   0.515140  -0.003597
 582  11   3.366458   1.211682  11.499079  -0.001532   0.515140  -0.002973
 583   8   2.650850  -0.712037   9.928427  -0.001296   0.515140  -0.002515
 584   8   3.783364  -0.114760  10.634089  -0.001703   0.515140  -0.003307
 585   8   4.579451   0.786409  10.668202  -0.000369   0.257507  -0.001434
 586  12   7.497860  -1.385396   7.334193  -0.000148   0.276972  -0.000533
 587   8   6.303948  -1.522144   8.119900  -0.000128   0.276972  -0.000461
 588  10  -0.097857   7.168270   7.252029  -0.000101   0.204858  -0.000494
 589   9   0.477902   6.884458   5.960937  -0.000153   0.204858  -0.000748
 590  16   7.853351   6.957703   5.673473  -0.000362   0.250021  -0.001448
 591  16   8.963022   6.670739   5.719944  -0.001626   0.500006  -0.003253
 592  16   9.992199   5.846232   5.256249  -0.001176   0.500006  -0.002351
 593  13   7.981460   5.883435   6.798756  -0.001025   0.500006  -0.002050
 594  13   9.255960   5.329310   6.648331  -0.001321   0.500006  -0.002642
 595  13   9.922120   4.553530   6.128453  -0.000126   0.250021  -0.000504
 596  15   6.095027   4.017467  -1.589821  -0.000256   0.268028  -0.000955
 597  14   5.374569   2.861848  -1.118646  -0.000372   0.268028  -0.001389
 =====================================================

              2745547  WORDS OF DYNAMIC MEMORY USED
 EXECUTION OF GAMESS TERMINATED NORMALLY Tue Nov 22 20:10:38 2016
 DDI: 263640 bytes (0.3 MB / 0 MWords) used by master data server.

 ----------------------------------------
 CPU timing information for all processes
 ========================================
 0: 803.948 + 0.368 = 804.316
 ----------------------------------------
 ddikick.x: exited gracefully.
