----- GAMESS execution script -----

          ******************************************************
          *         GAMESS VERSION =  5 DEC 2014 (R1)          *
          *             FROM IOWA STATE UNIVERSITY             *
          * M.W.SCHMIDT, K.K.BALDRIDGE, J.A.BOATZ, S.T.ELBERT, *
          *   M.S.GORDON, J.H.JENSEN, S.KOSEKI, N.MATSUNAGA,   *
          *          K.A.NGUYEN, S.J.SU, T.L.WINDUS,           *
          *       TOGETHER WITH M.DUPUIS, J.A.MONTGOMERY       *
          *         J.COMPUT.CHEM.  14, 1347-1363(1993)        *
          **************** 64 BIT LINUX VERSION ****************

 EXECUTION OF GAMESS BEGUN Tue Nov 22 20:10:41 2016

            ECHO OF THE FIRST FEW INPUT CARDS -
 INPUT CARD>! SELECT RESTRICTED HARTREE-FOCK AS DEFAULT                                     
 INPUT CARD>$contrl scftyp=rhf $end                                                         
 INPUT CARD>                                                                                
 INPUT CARD>! THEORY: HF OR DFT                                                             
 INPUT CARD> $contrl mplevl=0 $end                                                          
 INPUT CARD>                                                                                
 INPUT CARD> $system timlim=10000 mwords=20 $end                                            
 INPUT CARD> $SCF DIRSCF=.TRUE. $end                                                        
 INPUT CARD>                                                                                
 INPUT CARD>                                                                                
 INPUT CARD>! BASIS SETS                                                                    
 INPUT CARD>! 6-311G(d,p)                                                                   
 INPUT CARD> $BASIS GBASIS=N311 NGAUSS=6 NDFUNC=1 NPFUNC=1 $END                             
 INPUT CARD>                                                                                
 INPUT CARD>! One of the following                                                          
 INPUT CARD> $guess guess=HUCKEL $end                                                       
 INPUT CARD>                                                                                
 INPUT CARD> $statpt projct=.FALSE. $end                                                    
 INPUT CARD> $STATPT IFREEZ(1)=1,2,3 $END                                                   
 INPUT CARD>                                                                                
 INPUT CARD>! Optimize the geometry with COSMO effects                                      
 INPUT CARD> $statpt opttol=0.0005 nstep=50 $end                                            
 INPUT CARD> $contrl nzvar=1 $end                                                           
 INPUT CARD> $zmat dlc=.t. auto=.t. $end                                                    
 INPUT CARD> $contrl runtyp=OPTIMIZE maxit=200 $end                                         
 INPUT CARD>                                                                                
 INPUT CARD>! Run COSMO on perfect conductor                                                
 INPUT CARD> $COSGMS PRFCND=.TRUE. $end                                                     
 INPUT CARD>                                                                                
 INPUT CARD>! Specifying RSOLV                                                              
 INPUT CARD> $COSGMS COSRAD = 1.4 $end                                                      
 INPUT CARD>                                                                                
 INPUT CARD>! available memory                                                              
 INPUT CARD> $SYSTEM MWORDS=40 $END                                                         
 INPUT CARD>                                                                                
 INPUT CARD> $DATA                                                                          
 INPUT CARD>1,6-Heptadiene, ID: C3070539                                                    
 INPUT CARD>C1                                                                              
 INPUT CARD>C      6.0      3.6287000000    1.5686000000    3.4473000000                    
 INPUT CARD>C      6.0      3.5837000000    0.9201000000    2.0709000000                    
 INPUT CARD>C      6.0      3.0424000000    1.8584000000    1.0016000000                    
 INPUT CARD>C      6.0      4.8253000000    2.4212000000    3.6931000000                    
 INPUT CARD>C      6.0      1.5886000000    2.1284000000    1.1750000000                    
 INPUT CARD>C      6.0      5.9688000000    2.3095000000    3.0275000000                    
 INPUT CARD>C      6.0      1.0640000000    3.3471000000    1.1204000000                    
 INPUT CARD>H      1.0      2.7108000000    2.1718000000    3.6023000000                    
 INPUT CARD>H      1.0      3.6122000000    0.7862000000    4.2329000000                    
 INPUT CARD>H      1.0      4.6092000000    0.5945000000    1.7841000000                    
 INPUT CARD>H      1.0      2.9689000000    0.0000000000    2.1111000000                    
 INPUT CARD>H      1.0      3.1892000000    1.4063000000    0.0000000000                    
   40000000 WORDS OF MEMORY AVAILABLE

     BASIS OPTIONS
     -------------
     GBASIS=N311         IGAUSS=       6      POLAR=POPN311 
     NDFUNC=       1     NFFUNC=       0     DIFFSP=       F
     NPFUNC=       1      DIFFS=       F     BASNAM=        


     RUN TITLE
     ---------
 1,6-Heptadiene, ID: C3070539                                                    

 THE POINT GROUP OF THE MOLECULE IS C1      
 THE ORDER OF THE PRINCIPAL AXIS IS     0

 ATOM      ATOMIC                      COORDINATES (BOHR)
           CHARGE         X                   Y                   Z
 C           6.0     6.8572486916        2.9642241843        6.5144523975
 C           6.0     6.7722110222        1.7387368813        3.9134335480
 C           6.0     5.7493023450        3.5118667756        1.8927495493
 C           6.0     9.1184948086        4.5754045615        6.9789470453
 C           6.0     3.0020187041        4.0220927923        2.2204280356
 C           6.0    11.2793964755        4.3643221686        5.7211454278
 C           6.0     2.0106684509        6.3251018535        2.1172489966
 H           1.0     5.1226692075        4.1041069001        6.8073599256
 H           1.0     6.8260682128        1.4857025715        7.9990211334
 H           1.0     8.7101250226        1.1234420997        3.3714601347
 H           1.0     5.6104074849        0.0000000000        3.9894005327
 H           1.0     6.0267141200        2.6575216565        0.0000000000
 H           1.0     6.8557369109        5.2914217382        1.8870803713
 H           1.0     8.9144044019        5.9668098062        8.5013103010
 H           1.0     1.8065780443        2.3593228957        2.5416814535
 H           1.0    12.9227021944        5.5278264593        6.1045708307
 H           1.0    11.5197696212        2.9878457592        4.2044513501
 H           1.0     3.1301421261        8.0198081193        1.8150818112
 H           1.0     0.0000000000        6.6745121886        2.3264416635

          INTERNUCLEAR DISTANCES (ANGS.)




     $CONTRL OPTIONS
     ---------------
 SCFTYP=RHF          RUNTYP=OPTIMIZE     EXETYP=RUN     
 MPLEVL=       0     CITYP =NONE         CCTYP =NONE         VBTYP =NONE    
 DFTTYP=NONE         TDDFT =NONE    
 MULT  =       1     ICHARG=       0     NZVAR =       1     COORD =UNIQUE  
 PP    =NONE         RELWFN=NONE         LOCAL =NONE         NUMGRD=       F
 ISPHER=      -1     NOSYM =       0     MAXIT =     200     UNITS =ANGS    
 PLTORB=       F     MOLPLT=       F     AIMPAC=       F     FRIEND=        
 NPRINT=       7     IREST =       0     GEOM  =INPUT   
 NORMF =       0     NORMP =       0     ITOL  =      20     ICUT  =       9
 INTTYP=BEST         GRDTYP=BEST         QMTTOL= 1.0E-06

     $SYSTEM OPTIONS
     ---------------
  REPLICATED MEMORY=    40000000 WORDS (ON EVERY NODE).
 DISTRIBUTED MEMDDI=           0 MILLION WORDS IN AGGREGATE,
 MEMDDI DISTRIBUTED OVER   1 PROCESSORS IS           0 WORDS/PROCESSOR.
 TOTAL MEMORY REQUESTED ON EACH PROCESSOR=    40000000 WORDS.
 TIMLIM=       10000.00 MINUTES, OR       6.9 DAYS.
 PARALL= F  BALTYP=  DLB     KDIAG=    0  COREFL= F
 MXSEQ2=     300 MXSEQ3=     150  mem10=         0

     $COSGMS OPTIONS
     ---------------
     EPSI  =   INFTY     NSPA  =      92     COSRAD=    1.40
     DISEX =   10.00     OUTCHG=DBLCAV       COSBUG=       F
     COSWRT=       F     DCOSMO=       F

     SYMMETRY COORDINATES WILL NOT BE USED FOR 
     THE COSMO CALCULATION, EVEN IF SPECIFIED:
         -- SWITCHING TO C1 POINT GROUP --


     DEFINITION OF CAVITY
     ---------------------------
     ATOM         COORDINATES           RADIUS 
     1    6.8572    2.9642    6.5145    2.0000
     2    6.7722    1.7387    3.9134    2.0000
     3    5.7493    3.5119    1.8927    2.0000
     4    9.1185    4.5754    6.9789    2.0000
     5    3.0020    4.0221    2.2204    2.0000
     6   11.2794    4.3643    5.7211    2.0000
     7    2.0107    6.3251    2.1172    2.0000
     8    5.1227    4.1041    6.8074    1.3000
     9    6.8261    1.4857    7.9990    1.3000
    10    8.7101    1.1234    3.3715    1.3000
    11    5.6104    0.0000    3.9894    1.3000
    12    6.0267    2.6575    0.0000    1.3000
    13    6.8557    5.2914    1.8871    1.3000
    14    8.9144    5.9668    8.5013    1.3000
    15    1.8066    2.3593    2.5417    1.3000
    16   12.9227    5.5278    6.1046    1.3000
    17   11.5198    2.9878    4.2045    1.3000
    18    3.1301    8.0198    1.8151    1.3000
    19    0.0000    6.6745    2.3264    1.3000

          ----------------
          PROPERTIES INPUT
          ----------------

     MOMENTS            FIELD           POTENTIAL          DENSITY
 IEMOM =       1   IEFLD =       0   IEPOT =       0   IEDEN =       0
 WHERE =COMASS     WHERE =NUCLEI     WHERE =NUCLEI     WHERE =NUCLEI  
 OUTPUT=BOTH       OUTPUT=BOTH       OUTPUT=BOTH       OUTPUT=BOTH    
 IEMINT=       0   IEFINT=       0                     IEDINT=       0
                                                       MORB  =       0
          EXTRAPOLATION IN EFFECT
          SOSCF IN EFFECT
 ORBITAL PRINTING OPTION: NPREO=     1   205     2     1

     -------------------------------
     INTEGRAL TRANSFORMATION OPTIONS
     -------------------------------
     NWORD  =            0
     CUTOFF = 1.0E-09     MPTRAN =       0
     DIRTRF =       T     AOINTS =DUP     

          ----------------------
          INTEGRAL INPUT OPTIONS
          ----------------------
 NOPK  =       1 NORDER=       0 SCHWRZ=       T


 -----------------------------------------------
  STATISTICS ON AUTOMATIC COORDINATE GENERATION 
 -----------------------------------------------
  NUMBER OF USER SPECIFIED BONDS                             0
  NUMBER OF BONDS                                           18
  NUMBER OF ANGLES                                          30
  NUMBER OF TORSIONS                                        38
  NUMBER OF EXTRA COORD.                                     0
  NUMBER OF EXTRA COORD. FOR CONSTRAINTS                     0
  NUMBER OF CONSTRAINED COORD.                               0

  TOTAL NUMBER OF PRIMITIVES                                86
 -----------------------------------------------

   --- ENCODED Z MATRIX ---
 COORD  TYPE   I   J   K   L   M   N
    1      1    1   4
    2      1    1   9
    3      1    1   2
    4      1    1   8
    5      1    2  11
    6      1    2   3
    7      1    2  10
    8      1    3  13
    9      1    3  12
   10      1    3   5
   11      1    4  14
   12      1    4   6
   13      1    5  15
   14      1    5   7
   15      1    6  16
   16      1    6  17
   17      1    7  19
   18      1    7  18
   19      2    1   2  10
   20      2    1   2  11
   21      2    1   4  14
   22      2    1   4   6
   23      2    1   2   3
   24      2    2   3  13
   25      2    2   3   5
   26      2    2   3  12
   27      2    2   1   4
   28      2    2   1   8
   29      2    2   1   9
   30      2    3   5   7
   31      2    3   5  15
   32      2    3   2  10
   33      2    3   2  11
   34      2    4   1   9
   35      2    4   1   8
   36      2    4   6  17
   37      2    4   6  16
   38      2    5   7  18
   39      2    5   7  19
   40      2    5   3  12
   41      2    5   3  13
   42      2    6   4  14
   43      2    7   5  15
   44      2    8   1   9
   45      2   10   2  11
   46      2   12   3  13
   47      2   16   6  17
   48      2   18   7  19
   49      3    1   4   6  17
   50      3    1   4   6  16
   51      3    1   2   3   5
   52      3    1   2   3  12
   53      3    1   2   3  13
   54      3    2   3   5   7
   55      3    2   3   5  15
   56      3    2   1   4   6
   57      3    2   1   4  14
   58      3    3   2   1   4
   59      3    3   5   7  18
   60      3    3   5   7  19
   61      3    3   2   1   8
   62      3    3   2   1   9
   63      3    4   1   2  11
   64      3    4   1   2  10
   65      3    5   3   2  10
   66      3    5   3   2  11
   67      3    6   4   1   8
   68      3    6   4   1   9
   69      3    7   5   3  12
   70      3    7   5   3  13
   71      3    8   1   2  10
   72      3    8   1   2  11
   73      3    8   1   4  14
   74      3    9   1   4  14
   75      3    9   1   2  11
   76      3    9   1   2  10
   77      3   10   2   3  12
   78      3   10   2   3  13
   79      3   11   2   3  12
   80      3   11   2   3  13
   81      3   12   3   5  15
   82      3   13   3   5  15
   83      3   14   4   6  17
   84      3   14   4   6  16
   85      3   15   5   7  19
   86      3   15   5   7  18

          INDEP./SYM. INTERNAL COORDINATES
          --------------------------------
 CRD  1=  -0.1225 (  1)  0.1171 ( 20)  0.2186 ( 21) -0.4051 ( 22) -0.1204 ( 23)
          -0.2096 ( 25) -0.5652 ( 27)  0.1501 ( 28)  0.1741 ( 29)  0.1977 ( 30)
          -0.1320 ( 31)  0.1423 ( 34)  0.2129 ( 35) -0.1120 ( 36)  0.1065 ( 37)
           0.1268 ( 41)  0.1866 ( 42) -0.1378 ( 51) -0.1011 ( 53)
 CRD  2=  -0.1793 (  6) -0.1005 ( 10)  0.2553 ( 19)  0.1238 ( 20) -0.6138 ( 23)
          -0.2852 ( 25)  0.1476 ( 26) -0.1535 ( 30)  0.1398 ( 32)  0.2303 ( 33)
           0.1507 ( 40) -0.1040 ( 45)  0.1753 ( 51) -0.1941 ( 54) -0.1131 ( 55)
           0.1026 ( 58)  0.1421 ( 63)  0.1588 ( 65)
 CRD  3=   0.1178 ( 22)  0.1622 ( 24) -0.4682 ( 25)  0.1228 ( 26)  0.2890 ( 27)
          -0.1608 ( 28)  0.3372 ( 30) -0.1881 ( 31)  0.1266 ( 32) -0.1545 ( 33)
          -0.2025 ( 34)  0.1938 ( 41) -0.1489 ( 43)  0.1020 ( 50) -0.1255 ( 56)
          -0.2559 ( 58) -0.1562 ( 61) -0.1930 ( 62) -0.1003 ( 63) -0.1096 ( 64)
          -0.1016 ( 65) -0.1318 ( 67)
 CRD  4=  -0.1467 (  1) -0.1304 (  6) -0.2480 ( 10) -0.1412 ( 12) -0.1630 ( 14)
          -0.1722 ( 20)  0.1018 ( 21) -0.2443 ( 22)  0.3243 ( 23)  0.2261 ( 24)
          -0.3715 ( 25) -0.1157 ( 29) -0.2785 ( 30) -0.1323 ( 32) -0.1050 ( 33)
          -0.1258 ( 36) -0.1259 ( 38)  0.1812 ( 40)  0.1423 ( 42)  0.1918 ( 43)
           0.1601 ( 51)  0.1430 ( 52)  0.1225 ( 56)  0.1300 ( 57)
 CRD  5=  -0.1037 (  6) -0.1163 ( 20) -0.1308 ( 21)  0.1989 ( 22) -0.1705 ( 25)
           0.1894 ( 28) -0.1605 ( 29)  0.3781 ( 30) -0.2392 ( 31) -0.1178 ( 32)
           0.2205 ( 34) -0.1654 ( 35)  0.2037 ( 38) -0.1719 ( 39)  0.1145 ( 40)
           0.1107 ( 41) -0.1387 ( 43) -0.1145 ( 50)  0.2348 ( 56)  0.1329 ( 57)
           0.2400 ( 58)  0.1258 ( 61)  0.1161 ( 62)  0.1492 ( 63)  0.1759 ( 64)
           0.1586 ( 67)  0.1519 ( 68)  0.1543 ( 83)
 CRD  6=   0.2372 (  1) -0.1952 (  6) -0.2219 ( 10)  0.2280 ( 12) -0.2599 ( 14)
          -0.1704 ( 19)  0.1183 ( 20) -0.1005 ( 21)  0.3128 ( 22) -0.1323 ( 25)
           0.1417 ( 26) -0.1923 ( 27)  0.1468 ( 28) -0.2132 ( 30) -0.1316 ( 33)
           0.1921 ( 36) -0.1612 ( 38)  0.1309 ( 41) -0.2120 ( 42)  0.1574 ( 43)
           0.1082 ( 48) -0.2208 ( 51) -0.1301 ( 52) -0.1742 ( 53) -0.1016 ( 55)
 CRD  7=   0.1514 (  1)  0.4605 (  3)  0.1145 ( 11) -0.1494 ( 12)  0.1732 ( 21)
          -0.1928 ( 22) -0.2399 ( 24)  0.2080 ( 26)  0.2104 ( 27) -0.1887 ( 35)
          -0.2031 ( 36)  0.1374 ( 37) -0.1516 ( 40)  0.1558 ( 41) -0.2779 ( 54)
          -0.2679 ( 55)  0.1065 ( 56) -0.1218 ( 59) -0.1062 ( 70) -0.1324 ( 86)
 CRD  8=   0.1592 (  2)  0.3368 (  3)  0.5147 (  6)  0.1305 (  9)  0.1394 ( 22)
           0.1005 ( 23)  0.1409 ( 24) -0.1402 ( 25)  0.1627 ( 26) -0.2218 ( 27)
           0.2477 ( 29)  0.1485 ( 36) -0.1623 ( 37) -0.1095 ( 42) -0.1114 ( 44)
          -0.1416 ( 49) -0.1143 ( 50) -0.1286 ( 56) -0.1700 ( 57)  0.1075 ( 60)
          -0.1221 ( 70) -0.1207 ( 73)
 CRD  9=  -0.3765 (  1) -0.1178 (  6) -0.1198 (  9) -0.3550 ( 10) -0.1048 ( 11)
          -0.2849 ( 12) -0.1070 ( 13) -0.3168 ( 14) -0.1220 ( 15) -0.1314 ( 17)
           0.1269 ( 25)  0.1260 ( 29) -0.1469 ( 34) -0.2034 ( 37) -0.2428 ( 39)
          -0.2013 ( 40)  0.1326 ( 47)  0.1482 ( 48) -0.1062 ( 51) -0.1105 ( 56)
          -0.1291 ( 60) -0.1361 ( 65) -0.1002 ( 66) -0.1045 ( 71)
 CRD 10=  -0.4349 (  1) -0.1042 (  2) -0.1408 (  3)  0.3286 ( 10) -0.1373 ( 11)
          -0.2488 ( 12)  0.1081 ( 13)  0.1427 ( 14) -0.1491 ( 15)  0.1105 ( 17)
          -0.1476 ( 19) -0.1089 ( 24)  0.1509 ( 28)  0.1105 ( 32)  0.1484 ( 36)
          -0.2647 ( 37) -0.1360 ( 38)  0.2037 ( 39)  0.1163 ( 47)  0.1025 ( 49)
          -0.1662 ( 54) -0.1336 ( 55)  0.1046 ( 56)  0.1400 ( 57) -0.1019 ( 69)
 CRD 11=   0.1989 (  1)  0.2022 (  3) -0.2455 (  6)  0.1175 ( 10) -0.3824 ( 12)
           0.1028 ( 14)  0.1647 ( 20)  0.3987 ( 21) -0.1718 ( 26) -0.1285 ( 33)
          -0.2629 ( 37)  0.1177 ( 40) -0.4066 ( 42)  0.1861 ( 47)  0.1256 ( 54)
           0.1211 ( 55)  0.1012 ( 80)
 CRD 12=   0.2561 ( 10) -0.4127 ( 14) -0.1105 ( 17)  0.5037 ( 31)  0.1038 ( 38)
          -0.3058 ( 39)  0.1159 ( 40) -0.4785 ( 43)  0.2021 ( 48)  0.1011 ( 65)
 CRD 13=   0.1811 (  1) -0.3555 (  3)  0.3047 (  6) -0.1929 ( 10) -0.2215 ( 12)
          -0.1104 ( 19) -0.1523 ( 20)  0.3087 ( 21)  0.1563 ( 26) -0.1151 ( 28)
          -0.2065 ( 29)  0.1590 ( 32)  0.1508 ( 33)  0.1133 ( 35) -0.1223 ( 37)
          -0.1358 ( 40) -0.2533 ( 42)  0.1115 ( 47)  0.1011 ( 57) -0.1171 ( 63)
           0.1055 ( 67)  0.1450 ( 71)  0.1244 ( 73) -0.1200 ( 75)  0.1214 ( 77)
          -0.1441 ( 80)
 CRD 14=   0.1457 (  5)  0.2651 (  6)  0.1184 (  7)  0.1408 (  8) -0.1164 ( 14)
          -0.1137 ( 19)  0.2350 ( 20) -0.1935 ( 23)  0.1498 ( 24)  0.1552 ( 28)
          -0.1098 ( 29)  0.2856 ( 32)  0.1127 ( 34) -0.2624 ( 35) -0.1462 ( 36)
           0.1011 ( 37) -0.1464 ( 38) -0.1123 ( 45) -0.1062 ( 50) -0.1409 ( 51)
           0.2299 ( 54)  0.1645 ( 55)  0.1075 ( 56) -0.1409 ( 61)  0.1206 ( 63)
           0.1880 ( 64)  0.1981 ( 69)  0.1328 ( 81)  0.1647 ( 86)
 CRD 15=  -0.2154 (  3) -0.1320 (  4) -0.1271 (  7)  0.1504 (  8)  0.1700 ( 10)
          -0.1478 ( 14)  0.1375 ( 17) -0.1848 ( 18) -0.1900 ( 20)  0.1461 ( 23)
          -0.1381 ( 24)  0.1116 ( 26) -0.1196 ( 28) -0.1549 ( 32)  0.1359 ( 34)
          -0.1029 ( 36) -0.2901 ( 38)  0.2099 ( 39)  0.2567 ( 41) -0.2366 ( 49)
          -0.1936 ( 50)  0.1032 ( 53) -0.1392 ( 56) -0.2077 ( 57)  0.1618 ( 58)
           0.1078 ( 63) -0.1495 ( 66) -0.1067 ( 68) -0.1752 ( 74) -0.1640 ( 83)
          -0.1210 ( 84)
 CRD 16=  -0.1432 (  3) -0.1437 (  4) -0.1070 (  7) -0.1316 (  8) -0.1238 ( 12)
           0.1249 ( 14) -0.1073 ( 16) -0.1150 ( 17)  0.1512 ( 18) -0.2260 ( 19)
           0.1257 ( 20)  0.1171 ( 23) -0.1084 ( 26) -0.1120 ( 29)  0.1233 ( 32)
          -0.2128 ( 33)  0.1363 ( 34) -0.1569 ( 35) -0.1771 ( 36)  0.1027 ( 37)
           0.2237 ( 38) -0.1512 ( 39)  0.1139 ( 40) -0.1522 ( 41) -0.2188 ( 49)
          -0.1718 ( 50) -0.1300 ( 53) -0.1098 ( 54) -0.1366 ( 57) -0.1012 ( 59)
          -0.1141 ( 61)  0.1302 ( 63)  0.1048 ( 64)  0.1057 ( 65) -0.1020 ( 68)
          -0.1578 ( 69) -0.1368 ( 70) -0.1061 ( 73) -0.1584 ( 74) -0.1122 ( 81)
          -0.1603 ( 83) -0.1134 ( 84) -0.1490 ( 86)
 CRD 17=   0.1111 (  7)  0.4287 ( 11)  0.1973 ( 12) -0.2363 ( 15)  0.2719 ( 16)
           0.1018 ( 21) -0.2282 ( 22)  0.1012 ( 28) -0.2242 ( 29)  0.1694 ( 34)
          -0.1575 ( 35)  0.3746 ( 36) -0.2347 ( 37) -0.1005 ( 40)  0.1271 ( 42)
          -0.1398 ( 47) -0.1461 ( 49) -0.1146 ( 50) -0.1156 ( 62) -0.1025 ( 68)
          -0.1358 ( 74) -0.1117 ( 83)
 CRD 18=   0.1627 ( 11) -0.4139 ( 13) -0.1654 ( 14)  0.1754 ( 17) -0.1997 ( 18)
           0.2385 ( 24) -0.2586 ( 26)  0.1834 ( 30) -0.1088 ( 31)  0.1178 ( 36)
          -0.2772 ( 38)  0.1605 ( 39)  0.1700 ( 40) -0.2399 ( 41)  0.1168 ( 48)
          -0.1744 ( 59) -0.1916 ( 69) -0.1965 ( 70) -0.1636 ( 81) -0.1685 ( 82)
          -0.2037 ( 86)
 CRD 19=  -0.3340 (  4)  0.1600 (  5) -0.3246 (  7)  0.2213 ( 11)  0.1326 ( 13)
          -0.1065 ( 15)  0.1051 ( 16) -0.1809 ( 19)  0.1340 ( 20) -0.1181 ( 22)
           0.1291 ( 27) -0.2937 ( 28)  0.1948 ( 29) -0.1951 ( 34)  0.1135 ( 36)
          -0.1341 ( 51) -0.1727 ( 52) -0.1209 ( 53)  0.1301 ( 58)  0.1003 ( 60)
           0.1000 ( 61)  0.1478 ( 62)  0.1935 ( 67)  0.1536 ( 68)  0.1480 ( 73)
           0.1081 ( 74)  0.1135 ( 75)  0.1095 ( 83)
 CRD 20=   0.3756 (  8)  0.1375 ( 10)  0.3421 ( 13)  0.1681 ( 19)  0.2475 ( 24)
          -0.1123 ( 25) -0.1313 ( 30)  0.1021 ( 31) -0.1131 ( 32)  0.1046 ( 33)
           0.1246 ( 38)  0.1212 ( 54) -0.2878 ( 59) -0.3288 ( 60) -0.1791 ( 65)
          -0.1343 ( 66) -0.1267 ( 70) -0.1212 ( 81) -0.2056 ( 82) -0.2463 ( 85)
          -0.2053 ( 86)
 CRD 21=   0.2753 (  2) -0.1072 (  4) -0.4082 (  5)  0.2461 (  7) -0.1493 (  8)
          -0.1972 ( 28)  0.1619 ( 29)  0.1225 ( 32) -0.2321 ( 33)  0.1107 ( 35)
          -0.1331 ( 40) -0.1192 ( 50)  0.1078 ( 51)  0.1926 ( 52)  0.1311 ( 53)
          -0.1420 ( 59) -0.1723 ( 60) -0.1144 ( 61) -0.1725 ( 62)  0.1669 ( 63)
           0.1117 ( 64)  0.2310 ( 67)  0.2071 ( 68)  0.1249 ( 72)  0.1519 ( 73)
           0.1280 ( 74)  0.1014 ( 79)  0.1491 ( 83) -0.1344 ( 85) -0.1041 ( 86)
 CRD 22=   0.5151 ( 17)  0.5791 ( 18) -0.2288 ( 38) -0.2697 ( 39)  0.4985 ( 48)
 CRD 23=   0.5232 ( 15)  0.5818 ( 16) -0.2256 ( 36) -0.2666 ( 37)  0.4922 ( 47)
 CRD 24=  -0.3336 (  2)  0.2027 (  4)  0.1555 (  5) -0.1478 (  7)  0.4285 (  9)
           0.1185 ( 26) -0.1018 ( 34) -0.1167 ( 49) -0.1547 ( 50) -0.1656 ( 59)
          -0.3796 ( 60)  0.1364 ( 65)  0.1266 ( 66)  0.1912 ( 69)  0.1474 ( 70)
           0.1184 ( 81) -0.1100 ( 83) -0.1481 ( 84) -0.3036 ( 85)
 CRD 25=  -0.3942 (  2)  0.2368 (  4)  0.2137 (  7) -0.2955 (  9) -0.1115 ( 28)
          -0.1282 ( 34)  0.1354 ( 35) -0.1957 ( 49) -0.4193 ( 50)  0.1433 ( 56)
           0.1997 ( 60)  0.1625 ( 67)  0.1444 ( 68) -0.1161 ( 69) -0.1212 ( 83)
          -0.3448 ( 84)  0.1584 ( 85)
 CRD 26=  -0.4772 (  2) -0.6075 (  4) -0.3080 (  8) -0.1233 (  9) -0.2392 ( 44)
          -0.1092 ( 46) -0.1198 ( 62)  0.1338 ( 68) -0.1015 ( 73)  0.1304 ( 74)
          -0.1357 ( 75) -0.1457 ( 76)
 CRD 27=  -0.2111 (  2) -0.2339 (  4) -0.1612 (  5)  0.5434 (  8)  0.5007 (  9)
          -0.1120 ( 26) -0.1039 ( 44)  0.2678 ( 46)  0.1267 ( 52) -0.1582 ( 69)
          -0.1316 ( 78) -0.1125 ( 80) -0.1389 ( 81)  0.1140 ( 82)
 CRD 28=   0.6009 (  5)  0.5895 (  7) -0.1037 ( 19) -0.1027 ( 33)  0.2464 ( 45)
           0.1360 ( 63)  0.1368 ( 65)  0.1269 ( 72)  0.1101 ( 75) -0.1002 ( 76)
           0.1449 ( 77)  0.1419 ( 78)
 CRD 29=   0.2146 (  2) -0.2778 (  8)  0.3796 (  9)  0.1145 ( 19) -0.1155 ( 20)
          -0.1073 ( 32)  0.1134 ( 33)  0.1005 ( 40) -0.1129 ( 41) -0.2213 ( 50)
          -0.1459 ( 52) -0.1746 ( 53) -0.1372 ( 61) -0.1113 ( 64) -0.1186 ( 66)
           0.1876 ( 67) -0.2085 ( 71) -0.1837 ( 72)  0.1359 ( 73) -0.1107 ( 75)
          -0.1354 ( 76) -0.2011 ( 77) -0.2298 ( 78) -0.2281 ( 79) -0.2568 ( 80)
          -0.1672 ( 84)
 CRD 30=  -0.1403 (  2)  0.1457 (  4) -0.3139 (  5)  0.3316 (  7) -0.1498 (  8)
           0.1384 (  9)  0.1084 ( 11)  0.1265 ( 40)  0.1618 ( 50) -0.1740 ( 52)
           0.1194 ( 58)  0.1588 ( 61)  0.1987 ( 62)  0.1656 ( 63)  0.1695 ( 64)
          -0.1114 ( 66)  0.2089 ( 71)  0.2050 ( 72)  0.2448 ( 75)  0.2488 ( 76)
          -0.2001 ( 77) -0.1162 ( 78) -0.2136 ( 79) -0.1297 ( 80)  0.1425 ( 84)
 CRD 31=  -0.1456 (  6)  0.1052 (  8) -0.2770 ( 10)  0.2086 ( 14)  0.4832 ( 17)
           0.1219 ( 24)  0.1619 ( 26)  0.3585 ( 31)  0.1396 ( 38)  0.1445 ( 39)
          -0.1268 ( 40) -0.1086 ( 41) -0.3563 ( 43) -0.2842 ( 48) -0.1305 ( 53)
          -0.1439 ( 78) -0.1618 ( 80)
 CRD 32=  -0.3405 (  1) -0.1015 (  4)  0.1163 ( 11)  0.1525 ( 12)  0.5286 ( 15)
           0.3706 ( 21) -0.1393 ( 34) -0.1430 ( 35)  0.1375 ( 36)  0.1405 ( 37)
          -0.3580 ( 42)  0.1119 ( 44) -0.2779 ( 47)  0.1224 ( 62) -0.1125 ( 72)
           0.1172 ( 76)
 CRD 33=  -0.1218 (  3)  0.6757 ( 11) -0.1018 ( 13) -0.4322 ( 16) -0.1461 ( 21)
           0.1297 ( 22)  0.1126 ( 28)  0.1585 ( 29) -0.1348 ( 36) -0.1170 ( 37)
           0.2519 ( 47)  0.1256 ( 74)
 CRD 34=   0.1647 (  8)  0.1579 ( 10) -0.1313 ( 11) -0.6509 ( 13)  0.1015 ( 16)
          -0.2225 ( 17)  0.5106 ( 18) -0.1197 ( 30)  0.1258 ( 39) -0.1792 ( 48)
          -0.1005 ( 52)
 CRD 35=  -0.1372 (  1) -0.2657 (  2)  0.2109 (  4) -0.1097 (  7)  0.1324 ( 10)
           0.1314 ( 11)  0.1326 ( 15) -0.1347 ( 16) -0.1319 ( 17) -0.1209 ( 32)
          -0.1353 ( 33)  0.2946 ( 49) -0.1754 ( 50) -0.2577 ( 57) -0.1333 ( 71)
          -0.1529 ( 73) -0.2500 ( 74) -0.1352 ( 76) -0.1030 ( 82)  0.5123 ( 83)
 CRD 36=  -0.1119 ( 10)  0.1110 ( 17) -0.1182 ( 24) -0.1208 ( 48)  0.2835 ( 55)
          -0.3211 ( 59)  0.2731 ( 60)  0.1382 ( 70)  0.2547 ( 81)  0.3718 ( 82)
           0.1420 ( 83) -0.5666 ( 86)
 CRD 37=   0.1748 (  1) -0.1222 (  5) -0.1436 (  9) -0.1802 ( 15)  0.2566 ( 16)
          -0.1113 ( 18) -0.1708 ( 19) -0.1435 ( 20)  0.1014 ( 28)  0.1393 ( 29)
           0.1429 ( 33) -0.1580 ( 34) -0.1173 ( 35)  0.1343 ( 37)  0.1281 ( 40)
           0.1803 ( 49) -0.2289 ( 50) -0.1649 ( 57)  0.1136 ( 59) -0.2028 ( 60)
          -0.1005 ( 63)  0.1839 ( 65) -0.1376 ( 67) -0.1314 ( 72) -0.2512 ( 73)
           0.1333 ( 78) -0.1173 ( 79)  0.3014 ( 83) -0.1078 ( 84) -0.1537 ( 85)
           0.1627 ( 86)
 CRD 38=   0.1033 (  1) -0.1502 (  3) -0.1375 (  6)  0.1317 ( 10) -0.1127 ( 12)
           0.3549 ( 14) -0.1338 ( 15)  0.2679 ( 16) -0.2803 ( 17) -0.1414 ( 18)
           0.1258 ( 24)  0.1673 ( 26)  0.1022 ( 28)  0.1037 ( 29) -0.1183 ( 35)
           0.1818 ( 37) -0.1766 ( 38) -0.1064 ( 39) -0.1320 ( 40) -0.1415 ( 41)
           0.1120 ( 45)  0.2833 ( 48)  0.1460 ( 60)  0.1473 ( 69) -0.1192 ( 71)
           0.1257 ( 74) -0.1175 ( 80)  0.1916 ( 81) -0.1417 ( 86)
 CRD 39=  -0.1114 (  3)  0.1579 (  4)  0.1175 (  5) -0.1182 (  7) -0.1781 (  8)
           0.1798 ( 11) -0.4209 ( 12)  0.1619 ( 13) -0.3044 ( 14)  0.1033 ( 15)
           0.2951 ( 16)  0.2973 ( 18)  0.2232 ( 37)  0.2217 ( 39) -0.1395 ( 44)
          -0.2743 ( 47) -0.1981 ( 48)  0.1073 ( 68)  0.1128 ( 74)
 CRD 40=  -0.1180 (  2) -0.2390 (  3) -0.1188 (  5)  0.1642 (  6)  0.1114 (  7)
           0.1501 (  9)  0.1637 ( 12) -0.2477 ( 14) -0.3089 ( 15)  0.1703 ( 16)
           0.2315 ( 17)  0.1435 ( 20)  0.1117 ( 22) -0.1512 ( 32) -0.1279 ( 35)
          -0.2351 ( 36)  0.1403 ( 37)  0.1683 ( 38) -0.1907 ( 42)  0.1242 ( 43)
          -0.1278 ( 46) -0.1499 ( 48)  0.1058 ( 53) -0.1023 ( 61) -0.1029 ( 64)
           0.1141 ( 66) -0.2371 ( 71)  0.1013 ( 78)  0.2244 ( 80) -0.1124 ( 82)
 CRD 41=   0.1388 (  8) -0.4224 ( 12) -0.2120 ( 13)  0.2680 ( 15)  0.2555 ( 17)
          -0.3088 ( 18) -0.1582 ( 21) -0.1823 ( 30)  0.1926 ( 36)  0.2276 ( 38)
          -0.2642 ( 39)  0.1572 ( 42)  0.2076 ( 43) -0.1004 ( 46) -0.2315 ( 47)
          -0.1333 ( 52) -0.1162 ( 76) -0.1033 ( 77)
 CRD 42=  -0.1321 (  1)  0.1447 (  5) -0.1997 (  6) -0.2080 (  7)  0.3946 ( 10)
           0.1712 ( 12) -0.1414 ( 13) -0.2174 ( 14)  0.2565 ( 17) -0.1258 ( 18)
          -0.1302 ( 20)  0.1075 ( 21) -0.1357 ( 30) -0.1399 ( 31)  0.1074 ( 32)
           0.2537 ( 38) -0.1632 ( 39) -0.1105 ( 41)  0.2755 ( 43) -0.1238 ( 44)
          -0.1445 ( 66)  0.1460 ( 71)  0.1324 ( 72) -0.1989 ( 80)
 CRD 43=   0.3528 (  1) -0.1154 (  3) -0.1602 (  5) -0.1228 (  6) -0.2442 ( 11)
           0.1436 ( 13) -0.2221 ( 14)  0.2033 ( 15) -0.1941 ( 16)  0.1073 ( 18)
          -0.2323 ( 22)  0.1323 ( 24)  0.1135 ( 28)  0.1245 ( 30) -0.1394 ( 31)
          -0.1236 ( 34) -0.1399 ( 35)  0.2264 ( 36) -0.2206 ( 37) -0.1228 ( 41)
           0.2383 ( 42) -0.1127 ( 46)  0.1024 ( 62)  0.1282 ( 65)  0.1330 ( 69)
          -0.1346 ( 71)  0.1084 ( 78)  0.1197 ( 81) -0.1111 ( 82)
 CRD 44=   0.2503 (  2) -0.1298 (  3) -0.2014 (  4)  0.1177 (  5) -0.1981 (  6)
           0.1518 (  7)  0.2339 (  9)  0.1122 ( 35) -0.2126 ( 45) -0.1237 ( 46)
           0.1448 ( 49) -0.2025 ( 50)  0.1003 ( 53)  0.1237 ( 60)  0.1137 ( 61)
          -0.1863 ( 63) -0.1516 ( 65) -0.1781 ( 67) -0.1417 ( 68) -0.1031 ( 70)
           0.1948 ( 71) -0.1206 ( 73)  0.1669 ( 76)  0.1229 ( 79)  0.2106 ( 80)
          -0.1820 ( 82) -0.2633 ( 84)  0.2064 ( 85)
 CRD 45=   0.1465 (  1) -0.3285 (  3)  0.1724 (  4)  0.1196 (  5)  0.2242 (  6)
          -0.1929 (  8) -0.1080 ( 10) -0.1744 ( 11)  0.1077 ( 12) -0.1416 ( 13)
           0.1976 ( 14)  0.1287 ( 21) -0.2004 ( 22) -0.1366 ( 26)  0.1179 ( 28)
           0.1649 ( 29) -0.1558 ( 30)  0.1739 ( 31) -0.1786 ( 35) -0.1159 ( 37)
           0.2024 ( 41) -0.1375 ( 44)  0.1077 ( 53) -0.1731 ( 65)  0.1934 ( 68)
          -0.1512 ( 69) -0.1108 ( 73)  0.1802 ( 74) -0.1848 ( 81)
 CRD 46=   0.1724 (  2) -0.2169 (  3)  0.2472 (  6) -0.2129 (  9)  0.1071 ( 10)
           0.1680 ( 19)  0.1403 ( 20)  0.1336 ( 28) -0.1618 ( 32) -0.1644 ( 33)
           0.1331 ( 46)  0.1547 ( 49) -0.1065 ( 50) -0.1383 ( 53) -0.1828 ( 54)
           0.1857 ( 57)  0.1497 ( 59) -0.1053 ( 60) -0.1534 ( 64)  0.1281 ( 66)
          -0.1793 ( 67) -0.1124 ( 68)  0.2135 ( 72)  0.1778 ( 75) -0.2324 ( 78)
           0.1774 ( 82) -0.2702 ( 84) -0.2613 ( 85)
 CRD 47=   0.2604 (  1) -0.1590 (  2) -0.1788 (  4) -0.2163 (  8)  0.2547 ( 10)
          -0.1079 ( 21) -0.1308 ( 25) -0.1487 ( 27) -0.1067 ( 30) -0.1264 ( 40)
           0.2496 ( 44)  0.2125 ( 46)  0.2410 ( 52) -0.1112 ( 61)  0.2246 ( 62)
           0.1361 ( 67) -0.1302 ( 69) -0.2080 ( 72) -0.1470 ( 74)  0.1279 ( 75)
           0.2394 ( 76)  0.1604 ( 77) -0.1418 ( 78)  0.2417 ( 79) -0.1144 ( 81)
 CRD 48=  -0.2212 (  3)  0.1076 (  4)  0.1646 (  5) -0.2097 (  6)  0.1774 (  7)
           0.1268 (  8)  0.1957 ( 23)  0.1677 ( 26)  0.1202 ( 29) -0.1005 ( 41)
          -0.2544 ( 45) -0.1576 ( 49) -0.2119 ( 54) -0.1782 ( 57)  0.1544 ( 59)
          -0.1168 ( 63)  0.1671 ( 64)  0.2308 ( 66)  0.1743 ( 68) -0.1008 ( 70)
           0.1199 ( 71) -0.1640 ( 72) -0.1196 ( 73) -0.2150 ( 75) -0.1975 ( 77)
          -0.2207 ( 78)  0.1123 ( 79)  0.1656 ( 81)  0.2047 ( 84) -0.1860 ( 85)
 CRD 49=  -0.1556 (  1)  0.1162 (  4) -0.2041 (  5)  0.2020 (  7) -0.1504 (  8)
           0.1516 ( 10) -0.1536 ( 19)  0.1500 ( 20)  0.1216 ( 24) -0.1640 ( 25)
           0.1651 ( 27) -0.1524 ( 32)  0.1541 ( 33) -0.1328 ( 44)  0.1321 ( 46)
          -0.2433 ( 51) -0.2841 ( 53)  0.2181 ( 58)  0.3092 ( 61) -0.2399 ( 75)
          -0.2375 ( 76)  0.2525 ( 77)  0.2526 ( 79)
 CRD 50=  -0.1760 (  9) -0.1064 ( 24)  0.1596 ( 40)  0.1612 ( 51)  0.1254 ( 54)
          -0.3346 ( 55) -0.4150 ( 59)  0.1946 ( 66)  0.2482 ( 69)  0.3861 ( 70)
          -0.1483 ( 78) -0.2118 ( 81)  0.4025 ( 85)
 CRD 51=   0.1661 (  2) -0.1220 (  4) -0.1128 ( 23)  0.1024 ( 28) -0.1513 ( 34)
           0.1168 ( 35) -0.3911 ( 49)  0.3930 ( 56) -0.1827 ( 58) -0.1114 ( 63)
          -0.2499 ( 64)  0.1362 ( 67)  0.1928 ( 68)  0.1536 ( 72) -0.3079 ( 73)
          -0.2513 ( 74)  0.1238 ( 75)  0.3752 ( 84)

 THE DETERMINANT OF THE G MATRIX IS 10**(   -19)


                     --------------------
                     INTERNAL COORDINATES
                     --------------------

                 - - ATOMS - -         COORDINATE      COORDINATE
 NO.   TYPE    I  J  K  L  M  N        (BOHR,RAD)       (ANG,DEG)
 ----------------------------------------------------------------
   1 STRETCH   1  4                     2.8151184       1.4896966
   2 STRETCH   1  9                     2.0954576       1.1088685
   3 STRETCH   1  2                     2.8765169       1.5221873
   4 STRETCH   1  8                     2.0961616       1.1092410
   5 STRETCH   2 11                     2.0925497       1.1073297
   6 STRETCH   2  3                     2.8763685       1.5221088
   7 STRETCH   2 10                     2.1042418       1.1135169
   8 STRETCH   3 13                     2.0954822       1.1088815
   9 STRETCH   3 12                     2.0950808       1.1086691
  10 STRETCH   3  5                     2.8134092       1.4887921
  11 STRETCH   4 14                     2.0724988       1.0967192
  12 STRETCH   4  6                     2.5092064       1.3278149
  13 STRETCH   5 15                     2.0729414       1.0969534
  14 STRETCH   5  7                     2.5094366       1.3279367
  15 STRETCH   6 16                     2.0496856       1.0846470
  16 STRETCH   6 17                     2.0622385       1.0912897
  17 STRETCH   7 19                     2.0514962       1.0856051
  18 STRETCH   7 18                     2.0534253       1.0866260
  19 BEND      1  2 10                  1.9073573     109.2835224
  20 BEND      1  2 11                  1.9151456     109.7297606
  21 BEND      1  4 14                  2.0112443     115.2358116
  22 BEND      1  4  6                  2.1662620     124.1176691
  23 BEND      1  2  3                  1.9639640     112.5268487
  24 BEND      2  3 13                  1.9151999     109.7328726
  25 BEND      2  3  5                  1.9576113     112.1628652
  26 BEND      2  3 12                  1.9136755     109.6455286
  27 BEND      2  1  4                  2.0006906     114.6311290
  28 BEND      2  1  8                  1.9108767     109.4851680
  29 BEND      2  1  9                  1.9172616     109.8509975
  30 BEND      3  5  7                  2.1500646     123.1896249
  31 BEND      3  5 15                  2.0216269     115.8306902
  32 BEND      3  2 10                  1.9037414     109.0763477
  33 BEND      3  2 11                  1.9180050     109.8935940
  34 BEND      4  1  9                  1.8743180     107.3905082
  35 BEND      4  1  8                  1.9075289     109.2933530
  36 BEND      4  6 17                  2.1237425     121.6814804
  37 BEND      4  6 16                  2.1518707     123.2931114
  38 BEND      5  7 18                  2.1508835     123.2365485
  39 BEND      5  7 19                  2.1404060     122.6362293
  40 BEND      5  3 12                  1.8843859     107.9673610
  41 BEND      5  3 13                  1.9411032     111.2170225
  42 BEND      6  4 14                  2.1053965     120.6303345
  43 BEND      7  5 15                  2.1114529     120.9773375
  44 BEND      8  1  9                  1.8466639     105.8060496
  45 BEND     10  2 11                  1.8522036     106.1234495
  46 BEND     12  3 13                  1.8482915     105.8993050
  47 BEND     16  6 17                  2.0075689     115.0252256
  48 BEND     18  7 19                  1.9918948     114.1271665
  49 TORSION   1  4  6 17               0.0238087       1.3641353
  50 TORSION   1  4  6 16              -3.1206332    -178.7991101
  51 TORSION   1  2  3  5              -1.2146861     -69.5963871
  52 TORSION   1  2  3 12               2.9751627     170.4642652
  53 TORSION   1  2  3 13               0.9520226      54.5468773
  54 TORSION   2  3  5  7               2.3213509     133.0036099
  55 TORSION   2  3  5 15              -0.8298991     -47.5497139
  56 TORSION   2  1  4  6              -0.3852037     -22.0705482
  57 TORSION   2  1  4 14               2.7818668     159.3892291
  58 TORSION   3  2  1  4              -1.4383132     -82.4092734
  59 TORSION   3  5  7 18              -0.0173117      -0.9918883
  60 TORSION   3  5  7 19               3.1226937     178.9171704
  61 TORSION   3  2  1  8               0.7121999      40.8060503
  62 TORSION   3  2  1  9               2.7329502     156.5865144
  63 TORSION   4  1  2 11               2.7035128     154.8998713
  64 TORSION   4  1  2 10               0.6792983      38.9209250
  65 TORSION   5  3  2 10               2.9488263     168.9553040
  66 TORSION   5  3  2 11               0.9250653      53.0023377
  67 TORSION   6  4  1  8              -2.5375128    -145.3887735
  68 TORSION   6  4  1  9               1.7501706     100.2773910
  69 TORSION   7  5  3 12              -1.8515133    -106.0838975
  70 TORSION   7  5  3 13               0.1691298       9.6904211
  71 TORSION   8  1  2 10               2.8298114     162.1362488
  72 TORSION   8  1  2 11              -1.4291595     -81.8848049
  73 TORSION   8  1  4 14               0.6295578      36.0710037
  74 TORSION   9  1  4 14              -1.3659441     -78.2628317
  75 TORSION   9  1  2 11               0.5915909      33.8956592
  76 TORSION   9  1  2 10              -1.4326236     -82.0832871
  77 TORSION  10  2  3 12               0.8554898      49.0159562
  78 TORSION  10  2  3 13              -1.1676503     -66.9014316
  79 TORSION  11  2  3 12              -1.1682712     -66.9370100
  80 TORSION  11  2  3 13               3.0917740     177.1456021
  81 TORSION  12  3  5 15               1.2804220      73.3627787
  82 TORSION  13  3  5 15              -2.9821202    -170.8629026
  83 TORSION  14  4  6 17               3.1386177     179.8295454
  84 TORSION  14  4  6 16              -0.0058242      -0.3337000
  85 TORSION  15  5  7 19              -0.0087605      -0.5019382
  86 TORSION  15  5  7 18               3.1344194     179.5890032

     ------------------------------------------
     THE POINT GROUP IS C1 , NAXIS= 1, ORDER= 1
     ------------------------------------------

     DIMENSIONS OF THE SYMMETRY SUBSPACES ARE
 A   =  205

 ..... DONE SETTING UP THE RUN .....
 STEP CPU TIME =     0.01 TOTAL CPU TIME =        0.0 (    0.0 MIN)
 TOTAL WALL CLOCK TIME=        0.0 SECONDS, CPU UTILIZATION IS  33.33%


          -----------------------------
          STATIONARY POINT LOCATION RUN
          -----------------------------

 OBTAINING INITIAL HESSIAN, HESS=GUESS   
 DIAGONAL GUESS HESSIAN IN INTERNAL COORDS IS
     1  0.3971     2  0.3339     3  0.3728     4  0.3337     5  0.3349
     6  0.3728     7  0.3309     8  0.3339     9  0.3340    10  0.3978
    11  0.3419    12  0.5440    13  0.3417    14  0.5438    15  0.3500
    16  0.3455    17  0.3493    18  0.3486    19  0.2231    20  0.2235
    21  0.2261    22  0.2664    23  0.2496    24  0.2234    25  0.2520
    26  0.2234    27  0.2519    28  0.2234    29  0.2234    30  0.2665
    31  0.2261    32  0.2232    33  0.2235    34  0.2254    35  0.2253
    36  0.2366    37  0.2370    38  0.2369    39  0.2369    40  0.2254
    41  0.2254    42  0.2362    43  0.2362    44  0.2015    45  0.2014
    46  0.2015    47  0.2036    48  0.2038    49  0.2500    50  0.2500
    51  0.2500    52  0.2500    53  0.2500    54  0.2500    55  0.2500
    56  0.2500    57  0.2500    58  0.2500    59  0.2500    60  0.2500
    61  0.2500    62  0.2500    63  0.2500    64  0.2500    65  0.2500
    66  0.2500    67  0.2500    68  0.2500    69  0.2500    70  0.2500
    71  0.2500    72  0.2500    73  0.2500    74  0.2500    75  0.2500
    76  0.2500    77  0.2500    78  0.2500    79  0.2500    80  0.2500
    81  0.2500    82  0.2500    83  0.2500    84  0.2500    85  0.2500
    86  0.2500
 TRANSFORMING HESSIAN TO SYMMETRY COORDINATES

          PARAMETERS CONTROLLING GEOMETRY SEARCH ARE
          METHOD =QA                  UPHESS =BFGS    
          NNEG   =         0          NFRZ   =         3
          NSTEP  =        50          IFOLOW =         1
          HESS   =GUESS               RESTAR =         F
          IHREP  =         0          HSSEND =         F
          NPRT   =         0          NPUN   =         0
          OPTTOL = 5.000E-04          RMIN   = 1.500E-03
          RMAX   = 1.000E-01          RLIM   = 7.000E-02
          DXMAX  = 3.000E-01          PURIFY =         F
          MOVIE  =         F          TRUPD  =         T
          TRMAX  = 5.000E-01          TRMIN  = 5.000E-02
          ITBMAT =         5          STPT   =         F
          STSTEP = 1.000E-02          PROJCT=          F
          FROZEN COORD(S)=   1   2   3


      ***** EQUILIBRIUM GEOMETRY LOCATED *****
            (SUBJECT TO   3 CONSTRAINT(S))
 COORDINATES OF ALL ATOMS ARE (ANGS)
   ATOM   CHARGE       X              Y              Z
 ------------------------------------------------------------
 C           6.0   3.6315169332   1.5755143276   3.4807312103
 C           6.0   3.5051043986   0.8939841060   2.1148548612
 C           6.0   3.0680187276   1.8509175444   0.9910783640
 C           6.0   4.8791162182   2.4008261711   3.7012386948
 C           6.0   1.5923010199   2.1447200027   1.0478043028
 C           6.0   6.0041475219   2.3552780444   3.0106416221
 C           6.0   1.0323806052   3.3336460869   1.1709417334
 H           1.0   2.7666734782   2.2127000582   3.6502729584
 H           1.0   3.5955869705   0.8240315444   4.2680720613
 H           1.0   4.4441977255   0.4201627306   1.8502003531
 H           1.0   2.7763852140   0.0909340193   2.1892540690
 H           1.0   3.2887905693   1.3900068003   0.0302424968
 H           1.0   3.6376846938   2.7741776621   1.0374187940
 H           1.0   4.8273997287   3.0780833948   4.5413330269
 H           1.0   0.9515993630   1.2761832239   0.9831528806
 H           1.0   6.8441080832   2.9725489056   3.2803355026
 H           1.0   6.1394528647   1.7101422713   2.1598787606
 H           1.0   1.6173009008   4.2360007816   1.2480249671
 H           1.0  -0.0388718470   3.4432410073   1.2018001460


                     --------------------
                     INTERNAL COORDINATES
                     --------------------

                 - - ATOMS - -         COORDINATE      COORDINATE
 NO.   TYPE    I  J  K  L  M  N        (BOHR,RAD)       (ANG,DEG)
 ----------------------------------------------------------------
   1 STRETCH   1  4                     2.8573427       1.5120407
   2 STRETCH   1  9                     2.0579133       1.0890009
   3 STRETCH   1  2                     2.8944790       1.5316925
   4 STRETCH   1  8                     2.0551187       1.0875221
   5 STRETCH   2 11                     2.0540342       1.0869482
   6 STRETCH   2  3                     2.9089747       1.5393632
   7 STRETCH   2 10                     2.0496733       1.0846405
   8 STRETCH   3 13                     2.0519640       1.0858527
   9 STRETCH   3 12                     2.0565780       1.0882943
  10 STRETCH   3  5                     2.8454533       1.5057491
  11 STRETCH   4 14                     2.0415255       1.0803289
  12 STRETCH   4  6                     2.4960801       1.3208688
  13 STRETCH   5 15                     2.0432077       1.0812190
  14 STRETCH   5  7                     2.4943087       1.3199314
  15 STRETCH   6 16                     2.0346758       1.0767042
  16 STRETCH   6 17                     2.0338098       1.0762459
  17 STRETCH   7 19                     2.0357753       1.0772860
  18 STRETCH   7 18                     2.0373293       1.0781083
  19 BEND      1  2 10                  1.9182520     109.9077419
  20 BEND      1  2 11                  1.8997251     108.8462282
  21 BEND      1  4 14                  1.9999311     114.5876119
  22 BEND      1  4  6                  2.2239652     127.4238191
  23 BEND      1  2  3                  1.9799457     113.4425349
  24 BEND      2  3 13                  1.9267054     110.3920877
  25 BEND      2  3  5                  1.9520336     111.8432845
  26 BEND      2  3 12                  1.9003829     108.8839218
  27 BEND      2  1  4                  2.0275211     116.1684005
  28 BEND      2  1  8                  1.9114341     109.5171065
  29 BEND      2  1  9                  1.9123540     109.5698103
  30 BEND      3  5  7                  2.2080777     126.5135302
  31 BEND      3  5 15                  2.0061853     114.9459491
  32 BEND      3  2 10                  1.9169391     109.8325201
  33 BEND      3  2 11                  1.8953491     108.5955043
  34 BEND      4  1  9                  1.8738566     107.3640718
  35 BEND      4  1  8                  1.8898033     108.2777519
  36 BEND      4  6 17                  2.1424783     122.7549627
  37 BEND      4  6 16                  2.1103210     120.9124879
  38 BEND      5  7 18                  2.1299030     122.0344535
  39 BEND      5  7 19                  2.1131297     121.0734129
  40 BEND      5  3 12                  1.8909495     108.3434266
  41 BEND      5  3 13                  1.9247943     110.2825910
  42 BEND      6  4 14                  2.0589124     117.9669931
  43 BEND      7  5 15                  2.0689131     118.5399882
  44 BEND      8  1  9                  1.8393771     105.3885459
  45 BEND     10  2 11                  1.8487795     105.9272611
  46 BEND     12  3 13                  1.8664373     106.9389790
  47 BEND     16  6 17                  2.0303837     116.3324190
  48 BEND     18  7 19                  2.0401484     116.8918933
  49 TORSION   1  4  6 17               0.0324904       1.8615622
  50 TORSION   1  4  6 16              -3.1067244    -178.0021971
  51 TORSION   1  2  3  5              -1.3487427     -77.2772652
  52 TORSION   1  2  3 12               2.8452854     163.0228460
  53 TORSION   1  2  3 13               0.8013608      45.9145904
  54 TORSION   2  3  5  7               2.1223210     121.6000363
  55 TORSION   2  3  5 15              -1.0145381     -58.1287540
  56 TORSION   2  1  4  6              -0.3076845     -17.6290239
  57 TORSION   2  1  4 14               2.8642577     164.1098773
  58 TORSION   3  2  1  4              -1.3578631     -77.7998250
  59 TORSION   3  5  7 18              -0.0037941      -0.2173868
  60 TORSION   3  5  7 19               3.1410082     179.9665110
  61 TORSION   3  2  1  8               0.7892193      45.2189363
  62 TORSION   3  2  1  9               2.7987631     160.3573127
  63 TORSION   4  1  2 11               2.8132031     161.1846625
  64 TORSION   4  1  2 10               0.7956953      45.5899813
  65 TORSION   5  3  2 10               2.7801649     159.2917157
  66 TORSION   5  3  2 11               0.7658361      43.8791770
  67 TORSION   6  4  1  8              -2.4660223    -141.2926723
  68 TORSION   6  4  1  9               1.8391170     105.3736426
  69 TORSION   7  5  3 12              -2.0661725    -118.3829635
  70 TORSION   7  5  3 13              -0.0288640      -1.6537862
  71 TORSION   8  1  2 10               2.9427777     168.6087426
  72 TORSION   8  1  2 11              -1.3228998     -75.7965762
  73 TORSION   8  1  4 14               0.7059199      40.4462289
  74 TORSION   9  1  4 14              -1.2721261     -72.8874562
  75 TORSION   9  1  2 11               0.6866439      39.3418002
  76 TORSION   9  1  2 10              -1.3308638     -76.2528809
  77 TORSION  10  2  3 12               0.6910077      39.5918269
  78 TORSION  10  2  3 13              -1.3529169     -77.5164286
  79 TORSION  11  2  3 12              -1.3233211     -75.8207118
  80 TORSION  11  2  3 13               2.9159396     167.0710327
  81 TORSION  12  3  5 15               1.0801537      61.8882463
  82 TORSION  13  3  5 15               3.1174621     178.6174236
  83 TORSION  14  4  6 17              -3.1403492    -179.9287579
  84 TORSION  14  4  6 16               0.0036213       0.2074828
  85 TORSION  15  5  7 19              -0.0054701      -0.3134117
  86 TORSION  15  5  7 18               3.1329130     179.5026905

          INTERNUCLEAR DISTANCES (ANGS.)


 =====================================================
   GAMESS/COSab RESULTS
 =====================================================

   Dielectric Constant                  = INFTY
   Basic Grid Size                      =                 1082
   Number of Segments                   =                   92
   Number of Segments located on spheres=                  271
   Number of Segments of the cavity     =                  668
   Solvent Radius (rsolv)               = 1.40
   Outlying Charge Error Method         = double cavity

 =====================================================

  Total solvated Energy (a.u.)          =  -272.0866950745
  Total Energy corrected (a.u.)         =  -272.0866732317

  Outlying charge effect (a.u.)         =     0.0000218428
  Outlying charge effect (kcal/mol)     =     0.0137065718

  Dielectric Energy (a.u.)              =    -0.0048965097
  Dielectric energy corr. (a.u.)        =    -0.0048746669

  Sum of polarization charges           =     0.0261697884
  Sum of polarization charges(cor.)     =    -0.0261697884

  Total surface area of cavity (A**2)   =  159.45
  Total volume of cavity (A**3)         =  156.43

 =====================================================
 NPS=                   668
NR.  ATOM  (X, Y, Z)(a.u.)                  CHARGE(e)  AREA(A**2) SIGMA(e/A**2)
   1   1   3.504621   1.386808   7.269547   0.000349   0.278737   0.001252
   2   1   5.341099   3.055588  10.036409   0.001234   0.371649   0.003321
   3   1   9.153615   0.034769   7.191634   0.000160   0.139368   0.001145
   4   1   8.641068  -0.268734   7.342208   0.000030   0.046456   0.000655
   5   1   4.570199   3.529216   9.531367   0.001032   0.278737   0.003702
   6   1   3.304691   2.268752   7.637655   0.000360   0.232280   0.001550
   7   1   3.836394   1.502183   8.295333   0.001028   0.325193   0.003161
   8   1   4.384032   2.426339   9.377177   0.001399   0.325193   0.004303
   9   1   5.776465   3.919111  10.072984   0.000523   0.325193   0.001609
  10   1   4.125550   0.702746   7.850180   0.000339   0.232280   0.001459
  11   1   6.686568   3.312656  10.338045   0.000120   0.185824   0.000647
  12   1   9.182742   0.210782   7.694564   0.000074   0.046456   0.001597
  13   1   5.569528   4.656695   9.706813   0.000391   0.232280   0.001684
  14   1   3.744754   2.357433   8.621932   0.001088   0.278737   0.003902
  15   2   7.615339  -1.438462   5.871996   0.000439   0.232280   0.001891
  16   2   6.517527  -1.713302   2.354915   0.001502   0.371649   0.004042
  17   2   7.527702  -1.698107   2.585118   0.001171   0.278737   0.004201
  18   2   8.485914  -1.265495   5.440483   0.000784   0.371649   0.002110
  19   2   7.288203  -1.885650   5.026961   0.001367   0.371649   0.003677
  20   2   7.018907  -2.040674   3.533035   0.001580   0.325193   0.004859
  21   2   6.916150  -1.229320   1.613230   0.000627   0.232280   0.002700
  22   2   6.652122  -1.639678   5.785583   0.000460   0.232280   0.001982
  23   2   5.485055  -1.039619   1.642695   0.000384   0.185824   0.002068
  24   2   7.543171  -0.765014   1.273482   0.000617   0.278737   0.002212
  25   2   7.684794  -1.928512   4.259556   0.001169   0.278737   0.004193
  26   2   6.107532  -0.968452   1.359488   0.000366   0.185824   0.001972
  27   3   5.867527   5.451348  -1.361741   0.000556   0.232280   0.002396
  28   3   8.803260   4.543912  -0.165854   0.001020   0.278737   0.003660
  29   3   8.393441   4.218337  -0.778004   0.000670   0.185824   0.003607
  30   3   5.815077   4.784573  -1.680713   0.000608   0.325193   0.001870
  31   3   4.943272   0.194962   0.246220   0.000045   0.139368   0.000321
  32   3   6.922054   5.654144  -1.020213   0.001108   0.278737   0.003975
  33   3   8.033710   5.074986  -0.734192   0.001254   0.278737   0.004497
  34   3   8.950657   3.509224  -0.211125   0.000646   0.232280   0.002782
  35   3   6.228090   6.164426  -0.770554   0.000627   0.278737   0.002251
  36   3   9.013354   2.578929   0.112273   0.000118   0.185824   0.000635
  37   3   7.298275   4.992488  -1.257340   0.001057   0.278737   0.003792
  38   3   4.511627   0.468696   0.014035   0.000006   0.046456   0.000138
  39   4  10.491211   1.257473   8.377835   0.000975   0.139368   0.006996
  40   4   8.964991   3.750103  10.682165   0.000445   0.278737   0.001596
  41   4  11.502000   4.333899  10.000390   0.001906   0.278737   0.006837
  42   4   8.027535   8.089094   6.500574   0.001281   0.325193   0.003940
  43   4   7.975358   8.088026   7.346767   0.000782   0.278737   0.002804
  44   4  10.566827   7.991588   7.726436   0.000089   0.092912   0.000958
  45   4  11.411786   5.270197   9.984891   0.000666   0.232280   0.002867
  46   4   8.147539   4.118626  10.594161   0.000003   0.185824   0.000016
  47   4   9.715816   3.221960  10.502830   0.000809   0.325193   0.002488
  48   4  11.032418   3.614985  10.180263   0.001809   0.278737   0.006491
  49   4  10.053792   8.213394   7.264121   0.000994   0.185824   0.005349
  50   4   9.246655   8.262650   6.360002   0.001667   0.325193   0.005127
  51   4   7.064305   7.637945   7.135752   0.000355   0.278737   0.001273
  52   4   9.746200   2.442223  10.095929   0.000530   0.185824   0.002851
  53   4  10.388798   1.651649   9.137674   0.000638   0.092912   0.006864
  54   4  10.938825   1.909642   9.098622   0.001951   0.185824   0.010500
  55   4  11.197018   2.831070   9.726828   0.001258   0.232280   0.005414
  56   4   8.584382   7.987651   5.589928   0.002993   0.325193   0.009204
  57   4   9.205580   8.310289   7.207910   0.000975   0.232280   0.004200
  58   4  10.313047   4.097654  10.585571   0.001207   0.325193   0.003713
  59   4   6.879232   7.336000   7.978853   0.000034   0.185824   0.000185
  60   4  10.502625   2.422825   9.852704   0.001705   0.325193   0.005245
  61   5   0.512708   3.175627   4.678777   0.001107   0.185824   0.005959
  62   5   2.032187   2.992361  -1.513534   0.001307   0.371649   0.003515
  63   5   1.574925   2.201497  -0.986381   0.000960   0.325193   0.002953
  64   5  -0.341503   3.318152   0.393121   0.000146   0.092912   0.001566
  65   5   0.070049   2.736995   3.958711   0.000650   0.232280   0.002797
  66   5   1.092759   2.814425   4.993088   0.002432   0.325193   0.007478
  67   5   0.028584   3.335438  -0.230477   0.000912   0.185824   0.004907
  68   5   0.940333   3.517306  -1.137293   0.002339   0.418105   0.005593
  69   5   2.583756   1.850985  -1.062104   0.000558   0.325193   0.001715
  70   5   2.165985   4.206770  -1.700954   0.004414   0.511017   0.008638
  71   5   3.029811   3.355841  -1.734484   0.000782   0.325193   0.002405
  72   5   0.595220   2.879215  -0.680805   0.000913   0.232280   0.003931
  73   5   1.260845   2.058884   4.673001   0.000809   0.232280   0.003482
  74   5   2.759356   1.034968  -0.281296  -0.000161   0.185824  -0.000864
  75   5   3.437583   4.850561  -1.689321   0.002746   0.418105   0.006569
  76   6  11.875901   0.997315   7.130421   0.002958   0.278737   0.010611
  77   6  12.946200   4.041983   9.088853   0.001910   0.278737   0.006851
  78   6  14.597618   2.555388   6.035467   0.001066   0.418105   0.002549
  79   6  13.739156   5.167378   2.852978   0.000412   0.278737   0.001479
  80   6  11.392821   7.925567   4.203240   0.002138   0.325193   0.006575
  81   6  12.274369   7.989073   4.738687   0.001594   0.325193   0.004900
  82   6  14.417819   5.490527   3.748024   0.000301   0.371649   0.000810
  83   6  15.001293   3.634714   6.197735   0.000818   0.418105   0.001957
  84   6  13.540747   4.522541   8.765492   0.001460   0.278737   0.005238
  85   6  11.871897   7.834992   7.287832   0.000112   0.092912   0.001201
  86   6  12.120990   0.793153   6.241855   0.002242   0.325193   0.006896
  87   6  12.412745   0.831330   5.474925   0.000818   0.185824   0.004403
  88   6  12.871455   5.297331   9.042084   0.000805   0.185824   0.004330
  89   6  13.616783   3.402708   8.523032   0.002087   0.325193   0.006416
  90   6  14.379178   2.838771   7.266167   0.001957   0.464561   0.004212
  91   6  14.859194   3.308799   4.889958   0.000626   0.371649   0.001684
  92   6  14.573159   4.187695   3.739465   0.000424   0.371649   0.001141
  93   6  13.391787   6.242462   3.064414   0.001453   0.603929   0.002405
  94   6  12.421947   7.355060   3.523061   0.001707   0.418105   0.004083
  95   6  11.140328   8.214562   5.413205   0.003156   0.371649   0.008491
  96   6  11.491977   8.117951   6.592190   0.000574   0.185824   0.003089
  97   6  12.819143   2.615529   8.646704   0.004222   0.371649   0.011361
  98   6  12.279928   1.592127   7.978429   0.002965   0.371649   0.007978
  99   6  12.941118   1.254925   6.924866   0.001995   0.325193   0.006133
 100   6  13.879968   1.751503   6.449483   0.001850   0.464561   0.003983
 101   6  14.352032   2.289133   4.930129   0.000681   0.371649   0.001832
 102   6  13.633300   1.520064   5.008076   0.000667   0.232280   0.002870
 103   6  14.025019   4.313197   3.026712   0.000176   0.278737   0.000631
 104   6  12.876359   5.083272   2.291793   0.000605   0.371649   0.001628
 105   6  11.752401   5.191843   2.005508   0.000918   0.278737   0.003293
 106   6  11.272076   7.373687   3.294349   0.002802   0.418105   0.006702
 107   6  10.367462   7.866658   4.401466   0.003836   0.371649   0.010322
 108   6  13.253708   7.160139   3.871217   0.000652   0.278737   0.002339
 109   6  14.978866   4.223621   4.671243   0.000211   0.325193   0.000649
 110   6  14.367775   3.702345   7.832670   0.001441   0.325193   0.004433
 111   6  12.609317   6.025334   8.884547  -0.000012   0.092912  -0.000129
 112   6  11.883746   8.185760   5.902880   0.000794   0.185824   0.004272
 113   6  13.224161   1.171074   5.662606   0.001398   0.325193   0.004299
 114   6  13.435773   2.150083   7.839745   0.003113   0.464561   0.006702
 115   6  14.359069   2.976736   3.947458   0.000120   0.232280   0.000517
 116   6  11.967595   6.349287   2.480852   0.002253   0.603929   0.003730
 117   7   0.695538   5.784524  -1.314693   0.002834   0.325193   0.008715
 118   7  -0.498274   5.757778   5.039780   0.002307   0.464561   0.004967
 119   7   3.803648   7.337174  -0.913781   0.001842   0.232280   0.007930
 120   7   0.904431   9.019435  -0.193899   0.001016   0.418105   0.002430
 121   7   0.195939   9.161298   3.949240   0.000380   0.278737   0.001362
 122   7  -0.244204   5.101525  -0.620995   0.001888   0.232280   0.008129
 123   7  -1.044968   4.299297   1.069327   0.000005   0.046456   0.000101
 124   7  -0.983705   4.154068   3.246506   0.000004   0.092912   0.000047
 125   7  -0.645852   4.552969   4.331736   0.001695   0.325193   0.005211
 126   7   3.104384   8.301060   5.204112   0.001166   0.232280   0.005018
 127   7   1.069603   9.759067   3.453762   0.000224   0.371649   0.000602
 128   7   1.717189   9.606212   0.397157   0.000756   0.418105   0.001808
 129   7   4.204168   8.096781  -0.232140   0.001024   0.232280   0.004409
 130   7  -0.335923   5.875156  -0.766237   0.002168   0.325193   0.006668
 131   7  -0.685365   6.433037  -0.492142   0.000815   0.185824   0.004383
 132   7   0.366399   4.974092   5.377625   0.004249   0.464561   0.009147
 133   7   3.309614   7.960925  -0.898262   0.001733   0.278737   0.006217
 134   7   2.030407   8.692605  -0.711589   0.001886   0.464561   0.004060
 135   7   0.514049   9.585778   1.020638   0.000607   0.371649   0.001633
 136   7   0.214961   9.647405   2.464473   0.000440   0.371649   0.001184
 137   7   1.062271   9.012360   4.689823   0.001317   0.603929   0.002181
 138   7   1.830531   8.152020   5.504952   0.001922   0.464561   0.004137
 139   7   2.913910   6.900647  -1.392203   0.003081   0.325193   0.009473
 140   7   1.817608   6.306013  -1.564339   0.003976   0.371649   0.010699
 141   7   0.621636   6.888312  -1.275906   0.002830   0.464561   0.006091
 142   7   0.716741   8.103296  -0.870746   0.001749   0.464561   0.003765
 143   7  -0.103344   8.882398   0.370539   0.000708   0.371649   0.001904
 144   7  -0.466622   8.004570  -0.139490   0.000784   0.278737   0.002814
 145   7  -0.232498   9.241328   3.142046   0.000166   0.278737   0.000597
 146   7  -0.294979   8.315425   4.488041   0.000739   0.418105   0.001767
 147   7  -0.328749   7.092468   5.121164   0.001375   0.371649   0.003700
 148   7   0.606067   6.186593   5.743031   0.003194   0.464561   0.006876
 149   7   1.262566   7.117989   5.837777   0.001900   0.371649   0.005112
 150   7  -0.793903   4.803780   0.088485   0.000628   0.232280   0.002706
 151   7   2.274555   8.951056   4.886641   0.000597   0.278737   0.002143
 152   7   0.937338   9.917384   1.801613   0.000172   0.325193   0.000528
 153   7   3.021521   8.776806  -0.433346   0.001394   0.325193   0.004286
 154   7  -0.263122   7.304111  -0.680922   0.001461   0.325193   0.004493
 155   7   2.044507   7.558588  -1.349634   0.002954   0.464561   0.006359
 156   7  -0.406007   9.165906   1.495931   0.000086   0.232280   0.000371
 157   7   0.506356   7.778689   5.376613   0.001124   0.371649   0.003024
 158   8   3.659531   5.583929   8.165753  -0.001922   0.333671  -0.005760
 159   8   4.564473   5.987248   8.425572  -0.001095   0.255160  -0.004291
 160   8   3.572738   4.388690   8.701196  -0.000751   0.314043  -0.002392
 161   8   3.022373   3.716352   7.874223  -0.000972   0.294415  -0.003302
 162   8   4.586060   6.425027   7.665365  -0.001315   0.255160  -0.005153
 163   8   4.284225   5.186626   8.931111  -0.000770   0.274788  -0.002804
 164   8   3.063196   4.605741   7.978577  -0.001216   0.235532  -0.005164
 165   9   6.908132  -0.042800   9.926189  -0.002744   0.471065  -0.005824
 166   9   8.268088   0.505268   9.726083  -0.000957   0.274788  -0.003484
 167   9   7.850419  -0.640048   8.369763  -0.001234   0.353299  -0.003492
 168   9   5.654069  -0.572619   8.510431  -0.001357   0.294415  -0.004609
 169   9   5.166106   0.961957   9.805759  -0.000936   0.353299  -0.002649
 170   9   6.774408   1.763596  10.513361  -0.001079   0.333671  -0.003233
 171   9   8.091745  -0.201709   9.187507  -0.001982   0.451437  -0.004390
 172   9   6.716663  -0.821274   8.675288  -0.002252   0.471065  -0.004781
 173   9   5.840911  -0.119921   9.586239  -0.002057   0.392554  -0.005239
 174   9   5.979614   1.144930  10.346014  -0.001648   0.431809  -0.003816
 175   9   7.475863   0.976009  10.353126  -0.001874   0.412182  -0.004547
 176   9   4.959914   0.181055   8.945811  -0.000794   0.314043  -0.002530
 177  10  10.201398  -0.677531   2.709816  -0.002362   0.412182  -0.005731
 178  10   9.331386  -0.202927   1.454145  -0.000944   0.255160  -0.003700
 179  10   8.987484  -1.432488   2.641501  -0.000589   0.294415  -0.002000
 180  10   9.626228  -1.045837   4.565190  -0.000719   0.294415  -0.002443
 181  10  10.005040   0.222296   1.728105  -0.001392   0.274788  -0.005067
 182  10   9.288640  -0.899682   1.955611  -0.000973   0.333671  -0.002915
 183  10   9.320069  -1.482770   3.539387  -0.000830   0.353299  -0.002350
 184  10  10.194214  -0.842728   3.858351  -0.001541   0.314043  -0.004908
 185  11   4.131736  -1.986285   4.504114  -0.002018   0.412182  -0.004897
 186  11   3.187618  -0.392519   5.352494  -0.001248   0.274788  -0.004543
 187  11   4.495389  -1.523437   5.748568  -0.001334   0.314043  -0.004248
 188  11   5.372189  -2.280542   4.065058  -0.000748   0.353299  -0.002117
 189  11   4.389648  -1.450445   2.503406  -0.001017   0.333671  -0.003047
 190  11   3.238192  -1.210765   4.436784  -0.002086   0.372926  -0.005594
 191  11   3.700461  -1.108282   5.553378  -0.001346   0.333671  -0.004034
 192  11   5.185290  -2.058622   5.164916  -0.000955   0.372926  -0.002561
 193  11   4.882881  -2.081135   3.227732  -0.001010   0.392554  -0.002572
 194  11   3.725308  -1.613179   3.406001  -0.001918   0.353299  -0.005430
 195  12   6.749810   1.649352  -2.132295  -0.003224   0.549575  -0.005866
 196  12   5.149240   1.545872  -1.874471  -0.001243   0.333671  -0.003725
 197  12   5.941421   0.357950  -0.844452  -0.001083   0.353299  -0.003065
 198  12   7.982641   1.239147  -0.935216  -0.001374   0.314043  -0.004374
 199  12   7.871630   3.087576  -1.697268  -0.000908   0.372926  -0.002435
 200  12   5.908896   3.428153  -2.244843  -0.001021   0.372926  -0.002739
 201  12   5.495983   0.845699  -1.474556  -0.001677   0.412182  -0.004068
 202  12   7.065902   0.712030  -1.225340  -0.002228   0.471065  -0.004729
 203  12   8.061035   2.047375  -1.456532  -0.001703   0.451437  -0.003773
 204  12   6.972845   3.088277  -2.233612  -0.001811   0.471065  -0.003844
 205  12   5.602738   2.377112  -2.308862  -0.001995   0.431809  -0.004621
 206  13   8.152854   7.255003   1.368977  -0.002068   0.353299  -0.005854
 207  13   7.974445   6.714495   0.330187  -0.000708   0.294415  -0.002406
 208  13   7.528943   7.608224   2.057952  -0.001949   0.255160  -0.007640
 209  13   7.263817   7.236176   0.579005  -0.001493   0.333671  -0.004474
 210  13   8.694161   6.255666   0.657991  -0.001270   0.333671  -0.003805
 211  14   9.022536   7.425066  10.436161  -0.004664   0.608459  -0.007665
 212  14   8.453167   5.522590  10.927223  -0.001545   0.353299  -0.004374
 213  14   7.309329   6.892444   9.843026  -0.001964   0.314043  -0.006253
 214  14   8.547187   8.193184   8.819798  -0.001303   0.353299  -0.003688
 215  14  10.462712   7.743054   9.308571  -0.001583   0.274788  -0.005760
 216  14  10.419464   6.023510  10.657963  -0.001471   0.412182  -0.003569
 217  14   7.910943   6.462293  10.619176  -0.003178   0.490692  -0.006476
 218  14   7.871909   7.729684   9.482886  -0.002803   0.490692  -0.005713
 219  14   9.564901   8.137392   9.255566  -0.002893   0.510320  -0.005669
 220  14  10.508718   7.055808  10.187514  -0.003306   0.529948  -0.006238
 221  14   9.361044   6.030512  11.017547  -0.002812   0.490692  -0.005731
 222  15   0.126182   0.635811   1.565185  -0.003457   0.471065  -0.007338
 223  15   1.940010   0.186714   0.826058  -0.002121   0.333671  -0.006356
 224  15   0.654079   1.274387   0.005165  -0.001360   0.353299  -0.003851
 225  15  -0.590237   2.081678   1.387449  -0.001546   0.274788  -0.005625
 226  15   0.114069   1.508832   3.401765  -0.000987   0.372926  -0.002645
 227  15   1.097334   0.059501   1.751946  -0.003330   0.431809  -0.007711
 228  15   1.171976   0.552216   0.379585  -0.002199   0.412182  -0.005334
 229  15  -0.172080   1.563472   0.660614  -0.002540   0.471065  -0.005393
 230  15  -0.459136   1.598867   2.385783  -0.003192   0.529948  -0.006023
 231  15   0.631802   0.581205   3.008532  -0.003389   0.490692  -0.006907
 232  16  14.803566   7.085100   6.818211  -0.004889   0.608459  -0.008036
 233  16  14.179781   6.071323   8.266713  -0.001853   0.412182  -0.004495
 234  16  13.152078   7.716619   7.455981  -0.001754   0.333671  -0.005256
 235  16  13.724738   7.826986   5.473439  -0.001377   0.353299  -0.003896
 236  16  15.040538   6.191718   5.073968  -0.001625   0.333671  -0.004870
 237  16  15.286870   5.067283   6.639632  -0.001308   0.333671  -0.003920
 238  16  13.805983   7.075709   7.972881  -0.003062   0.490692  -0.006241
 239  16  13.628002   7.952399   6.515279  -0.002730   0.490692  -0.005563
 240  16  14.596765   7.171808   5.275804  -0.002985   0.510320  -0.005850
 241  16  15.363518   5.936711   6.031344  -0.003078   0.490692  -0.006272
 242  16  14.973693   5.705816   7.564529  -0.003170   0.549575  -0.005769
 243  17  12.497453   1.945346   2.189935  -0.002961   0.353299  -0.008382
 244  17  12.783814   1.096033   3.803960  -0.001259   0.274788  -0.004582
 245  17  13.559362   2.501274   2.789366  -0.001336   0.274788  -0.004860
 246  17  12.261259   3.643316   1.751162  -0.001896   0.372926  -0.005084
 247  17  12.484511   1.272098   2.891614  -0.001761   0.235532  -0.007476
 248  17  13.341375   1.714176   3.241120  -0.001512   0.314043  -0.004816
 249  17  13.118492   3.045725   2.157947  -0.001924   0.353299  -0.005445
 250  17  11.978917   2.608060   1.735523  -0.002623   0.294415  -0.008909
 251  18   3.921350  10.270266   2.751848  -0.003421   0.451437  -0.007577
 252  18   4.506345   9.303530   0.859799  -0.001913   0.392554  -0.004873
 253  18   3.957074   9.394262   4.173160  -0.002224   0.412182  -0.005396
 254  18   2.536259  10.360514   2.822903  -0.001772   0.353299  -0.005016
 255  18   3.284686   9.957844   0.885707  -0.001518   0.392554  -0.003868
 256  18   4.957269   9.533619   2.068196  -0.002935   0.372926  -0.007870
 257  18   4.761567   9.506179   3.292843  -0.003464   0.431809  -0.008022
 258  18   3.091889  10.017396   3.766844  -0.002090   0.412182  -0.005070
 259  18   2.822823  10.396845   1.849341  -0.002189   0.392554  -0.005577
 260  18   4.104547  10.091631   1.595733  -0.002397   0.353299  -0.006785
 261  19  -2.521467   6.712245   2.280623  -0.004922   0.608459  -0.008090
 262  19  -1.902061   5.479383   3.550031  -0.001888   0.412182  -0.004580
 263  19  -1.921707   5.087199   1.493991  -0.001835   0.353299  -0.005195
 264  19  -1.787341   6.966011   0.572016  -0.001404   0.353299  -0.003974
 265  19  -1.577298   8.446678   2.169524  -0.001834   0.372926  -0.004919
 266  19  -1.551845   7.636398   3.875249  -0.001316   0.333671  -0.003944
 267  19  -2.168295   5.243615   2.497232  -0.003092   0.490692  -0.006302
 268  19  -2.126324   6.063107   0.996720  -0.002772   0.490692  -0.005649
 269  19  -1.939347   7.781441   1.307350  -0.003014   0.510320  -0.005907
 270  19  -1.960992   7.922925   2.954297  -0.002972   0.471065  -0.006309
 271  19  -2.019138   6.572596   3.769422  -0.003202   0.549575  -0.005826
 272   1   9.610314   0.295512   6.487268   0.000049   0.121714   0.000401
 273   2   9.552315   0.093185   6.029968  -0.000067   0.121714  -0.000550
 274   6  10.367332   0.617790   6.315608   0.000589   0.121714   0.004838
 275   1   8.183141  -0.531545   7.114410  -0.000020   0.027948  -0.000710
 276   2   8.123332  -0.718028   6.654974   0.000017   0.027948   0.000619
 277   9   8.047202  -0.553366   7.385676  -0.000054   0.027948  -0.001927
 278   2   8.847611  -0.523845   6.116534   0.000036   0.215852   0.000166
 279   1   8.694449  -0.326756   6.835158   0.000048   0.215852   0.000224
 280   1   9.920245   0.735943   7.488362   0.000252   0.044591   0.005653
 281   4  10.348282   0.965635   7.573511   0.000461   0.044591   0.010337
 282   6  10.705647   0.988673   7.334876   0.000557   0.044591   0.012488
 283   1   7.466548   2.839786  10.315018  -0.000080   0.030196  -0.002665
 284   4   7.875685   3.113044  10.347001  -0.000067   0.030196  -0.002207
 285   9   7.416771   2.539793  10.326638  -0.000096   0.030196  -0.003182
 286   1   9.292117   0.623175   8.282712   0.000035   0.030196   0.001171
 287   4   9.678774   0.923728   8.339722   0.000158   0.030196   0.005220
 288   9   9.079942   0.520365   8.475120  -0.000030   0.030196  -0.000998
 289   1   6.996106   4.418187  10.188293  -0.000093   0.019505  -0.004743
 290   4   7.389078   4.692616  10.302628  -0.000115   0.019505  -0.005892
 291  14   7.512148   4.958955  10.364150  -0.000115   0.019505  -0.005905
 292   4   7.615923   4.087537  10.379000  -0.000432   0.237663  -0.001819
 293   1   7.186662   3.461606  10.304807  -0.000290   0.237663  -0.001221
 294   4  10.085658   0.970991   8.070406   0.000581   0.108052   0.005381
 295   1   9.541003   0.559987   7.844674   0.000271   0.108052   0.002510
 296   1   2.994269   2.822021   6.758274  -0.000102   0.093126  -0.001094
 297   5   2.388566   3.038408   5.893948   0.000569   0.093126   0.006111
 298   8   2.912886   3.116983   6.783169  -0.000162   0.093126  -0.001743
 299   1   3.256645   1.441000   6.021253  -0.000054   0.207833  -0.000260
 300   5   2.596031   1.645887   5.187657   0.000116   0.207833   0.000556
 301  11   3.146228   0.927758   5.477457  -0.000395   0.207833  -0.001901
 302   5   2.035103   2.282846   5.400594   0.001261   0.396167   0.003184
 303   1   2.964698   2.213491   6.647676   0.000506   0.396167   0.001277
 304   6  10.874256   0.780103   6.964862   0.001769   0.218552   0.008094
 305   1   9.742735   0.366114   7.036529   0.000560   0.218552   0.002563
 306   1   5.881834   5.593717   9.155876  -0.000143   0.044939  -0.003188
 307   8   5.628534   5.647167   8.997081  -0.000183   0.044939  -0.004076
 308  14   6.515506   5.985868   9.336684  -0.000250   0.044939  -0.005569
 309   8   3.094197   3.134377   7.512810  -0.000212   0.071060  -0.002988
 310   8   3.560094   3.508030   8.485049  -0.000290   0.158589  -0.001827
 311   8   4.363296   4.428760   9.121866  -0.000477   0.158589  -0.003005
 312   8   5.029068   5.352366   9.046867  -0.000269   0.071060  -0.003792
 313   1   3.399888   2.857750   7.956933  -0.000185   0.155016  -0.001195
 314   1   4.166507   3.600051   9.077696  -0.000070   0.155016  -0.000453
 315   1   5.103195   4.810291   9.307395  -0.000428   0.155016  -0.002759
 316   1   4.710623  -0.060769   7.346022  -0.000008   0.045603  -0.000166
 317   9   4.888700  -0.123368   7.584950  -0.000114   0.045603  -0.002498
 318  11   4.573494  -0.401539   6.694945  -0.000038   0.045603  -0.000835
 319   9   6.927595   2.295668  10.402994  -0.000199   0.071781  -0.002766
 320   9   5.814204   2.116292  10.180976  -0.000416   0.160397  -0.002591
 321   9   4.854266   1.413845   9.466722  -0.000408   0.160397  -0.002543
 322   9   4.732767   0.416789   8.509546  -0.000568   0.160397  -0.003543
 323   1   6.464450   2.668561  10.271608  -0.000374   0.156420  -0.002393
 324   1   5.074345   2.191971   9.753289  -0.000137   0.156420  -0.000877
 325   1   4.430547   1.180229   8.758258  -0.000198   0.156420  -0.001268
 326   1   4.580270   0.265625   7.892157  -0.000118   0.087697  -0.001344
 327   9   8.246085  -0.414901   7.876093  -0.000155   0.070446  -0.002200
 328   9   8.743386   0.097705   8.388041  -0.000152   0.070446  -0.002157
 329   1   8.703736  -0.028931   7.799212  -0.000352   0.154110  -0.002282
 330  11   4.065154  -0.443594   6.247357  -0.000491   0.184062  -0.002670
 331  11   3.428452   0.274546   5.843423  -0.000442   0.184062  -0.002399
 332   1   3.934801   0.567333   6.907969   0.000103   0.505791   0.000204
 333  14   6.960713   6.035604   9.832879  -0.000896   0.173716  -0.005157
 334  14   7.392724   5.338890  10.332806  -0.000815   0.173716  -0.004690
 335   1   6.348692   4.974045   9.804439  -0.000802   0.478960  -0.001674
 336   2   4.606765  -0.452947   1.610951  -0.000071   0.029046  -0.002431
 337   3   4.482509  -0.109629   1.266430  -0.000084   0.029046  -0.002882
 338  11   4.464687  -0.593970   1.838767  -0.000115   0.029046  -0.003976
 339   2   5.740723  -0.241779   0.740060   0.000011   0.028807   0.000383
 340   3   5.590473   0.035866   0.349767  -0.000031   0.028807  -0.001069
 341  12   5.711561   0.131023   0.087778  -0.000059   0.028807  -0.002032
 342   3   5.093227  -0.023955   0.647639  -0.000084   0.200820  -0.000416
 343   2   5.081136  -0.454187   1.271542  -0.000033   0.200820  -0.000164
 344   2   9.653365  -0.056648   5.638009  -0.000159   0.087337  -0.001820
 345   6  10.452655   0.499755   5.900260   0.000227   0.087337   0.002595
 346  10   9.840438  -0.095121   5.399813  -0.000254   0.087337  -0.002911
 347   6  10.821802   0.540303   6.281228   0.000171   0.015758   0.010838
 348   2   9.638259  -0.155963   5.847095   0.000077   0.015758   0.004895
 349   2   5.918607  -1.137732   6.439358   0.000009   0.046717   0.000197
 350   9   6.019763  -0.863310   7.132040  -0.000031   0.046717  -0.000670
 351  11   5.670953  -1.211235   6.279904  -0.000114   0.046717  -0.002431
 352   9   6.530815  -0.876930   7.612178  -0.000606   0.202249  -0.002997
 353   9   7.653012  -0.727037   7.569891  -0.000485   0.202249  -0.002398
 354   2   7.090231  -1.089130   6.528564   0.000112   0.553583   0.000203
 355   2   8.072345   0.065764   0.879713   0.000027   0.044302   0.000618
 356  10   8.335220   0.031150   1.024996  -0.000064   0.044302  -0.001442
 357  12   7.833109   0.466791   0.291806  -0.000004   0.044302  -0.000086
 358  10   9.478883  -0.688773   5.123462  -0.000231   0.074460  -0.003109
 359  10   8.905938  -1.384909   4.336747  -0.000416   0.168346  -0.002473
 360  10   8.445851  -1.538948   2.979973  -0.000327   0.168346  -0.001942
 361  10   8.458275  -0.817623   1.732665  -0.000507   0.168346  -0.003010
 362   2   8.939918  -0.994821   5.126866  -0.000324   0.160441  -0.002018
 363   2   8.239127  -1.658732   3.828813   0.000028   0.160441   0.000173
 364   2   7.971164  -1.319165   2.270058  -0.000098   0.160441  -0.000610
 365   2   8.123893  -0.462003   1.277410  -0.000060   0.090970  -0.000663
 366  11   4.635086  -1.059761   2.105889  -0.000194   0.074178  -0.002615
 367  11   5.427398  -1.724490   2.691402  -0.000364   0.167263  -0.002174
 368  11   5.971267  -2.100343   3.961491  -0.000315   0.167263  -0.001885
 369  11   5.796236  -1.812571   5.353157  -0.000519   0.167263  -0.003105
 370   2   5.241920  -1.162166   2.042780  -0.000345   0.160254  -0.002153
 371   2   6.167981  -1.901884   3.128881  -0.000039   0.160254  -0.000242
 372   2   6.388519  -1.954550   4.720415  -0.000076   0.160254  -0.000473
 373   2   6.027949  -1.517758   5.903267  -0.000064   0.090625  -0.000702
 374  12   7.308119   0.408780  -0.189266  -0.000612   0.212773  -0.002874
 375  12   6.147703   0.149754  -0.130486  -0.000510   0.212773  -0.002398
 376   2   6.896636  -0.263683   0.778413   0.000157   0.580955   0.000270
 377   3   4.665151   5.689401  -1.144389   0.000336   0.045079   0.007463
 378   5   4.188345   5.804981  -1.167035   0.000560   0.045079   0.012433
 379   7   3.994032   6.180782  -1.089831   0.000795   0.045079   0.017628
 380   3   4.777017   3.991880  -1.741173   0.000015   0.029024   0.000519
 381   5   4.297868   4.081344  -1.682658   0.000114   0.029024   0.003943
 382  12   4.940381   3.752985  -1.833998  -0.000042   0.029024  -0.001438
 383   3   4.214427   0.905290  -0.389839  -0.000075   0.029024  -0.002601
 384   5   3.742268   1.033107  -0.348114  -0.000065   0.029024  -0.002232
 385  12   4.427930   0.941487  -0.603100  -0.000089   0.029024  -0.003082
 386   3   3.704629   0.523143   0.494825  -0.000107   0.018900  -0.005667
 387   5   3.217152   0.579058   0.493747  -0.000124   0.018900  -0.006562
 388  15   2.944256   0.511972   0.599314  -0.000119   0.018900  -0.006293
 389   5   4.177049   5.092791  -1.445164   0.001130   0.248557   0.004546
 390   3   4.807384   4.675243  -1.563767   0.000420   0.248557   0.001692
 391   5   3.381073   0.817191  -0.006811  -0.000175   0.136626  -0.001280
 392   3   4.059380   0.595272   0.109292  -0.000162   0.136626  -0.001186
 393   3   9.279164   5.003562   0.965743  -0.000085   0.103930  -0.000822
 394   6  10.201566   5.138650   1.740145   0.000680   0.103930   0.006539
 395  13   9.280243   5.285378   1.086803  -0.000132   0.103930  -0.001265
 396   3   9.873332   4.283252   1.263207   0.000336   0.110008   0.003058
 397   6  10.927086   4.485964   1.825487   0.000061   0.110008   0.000552
 398  17  10.976607   4.194118   1.762382  -0.000187   0.110008  -0.001704
 399   6  10.925760   4.879021   1.685866   0.000690   0.195910   0.003525
 400   3   9.478074   4.729885   0.722176   0.000513   0.195910   0.002621
 401   3   5.924920   6.840507   0.021574   0.000065   0.069820   0.000936
 402   7   5.224905   7.278453   0.131362   0.000220   0.069820   0.003155
 403  13   6.128303   6.965632   0.210745  -0.000146   0.069820  -0.002096
 404   7   4.514276   7.098729  -0.508049   0.002820   0.518696   0.005436
 405   3   5.283597   6.167987  -0.813657   0.001366   0.518696   0.002634
 406   3   8.750292   1.644422   0.355075  -0.000024   0.046367  -0.000526
 407  10   9.034730   1.198698   0.893471  -0.000035   0.046367  -0.000759
[...]
 409   3   9.480542   2.106174   1.109048  -0.000073   0.204509  -0.000356
 410  10   9.845378   1.592245   1.536981  -0.000868   0.204509  -0.004246
 411  17  10.521857   2.152140   1.743633  -0.001027   0.204509  -0.005022
 412  10   9.486968   1.076456   1.236101  -0.000285   0.093140  -0.003060
 413   3   9.075283   1.851400   0.527615   0.000172   0.131315   0.001309
 414   3   3.998743   0.146545   1.191103  -0.000567   0.169629  -0.003342
 415  11   4.004724  -0.296567   1.801926  -0.000551   0.169629  -0.003249
 416  15   3.235785   0.205188   1.294994  -0.000909   0.169629  -0.005360
 417  11   4.339785  -0.710294   1.944101  -0.000040   0.011745  -0.003373
 418   3   4.344981  -0.040833   1.050258   0.000022   0.016570   0.001352
 419  12   5.308968   0.456655  -0.443966  -0.000445   0.122287  -0.003640
 420   3   4.873817   0.525047  -0.195621  -0.000399   0.149400  -0.002668
 421  12   5.480719   3.760820  -1.989473  -0.000169   0.075200  -0.002243
 422  12   6.646327   4.011324  -1.841814  -0.000442   0.169966  -0.002599
 423  12   7.921731   3.558298  -1.331452  -0.000444   0.169966  -0.002612
 424  12   8.486539   2.412872  -0.652228  -0.000602   0.169966  -0.003542
 425   3   5.796669   4.251058  -1.770901  -0.000301   0.162131  -0.001859
 426   3   7.379679   4.254443  -1.408795  -0.000061   0.162131  -0.000376
 427   3   8.481448   3.297420  -0.696568  -0.000228   0.162131  -0.001408
 428   3   8.731326   2.146941  -0.087282  -0.000114   0.091874  -0.001242
 429  13   8.800871   5.520191   0.471662  -0.000141   0.076866  -0.001835
 430  13   7.854158   6.129218  -0.024211  -0.000447   0.175025  -0.002552
 431  13   6.807475   6.771495   0.046528  -0.000179   0.076866  -0.002326
 432   3   8.387598   5.404694   0.010687  -0.000123   0.164568  -0.000746
 433   3   7.004245   6.273058  -0.284343  -0.000207   0.164568  -0.001255
 434  15   2.796847   0.363489   0.756183  -0.000397   0.079780  -0.004973
 435   3   3.933711   0.276619   0.663349  -0.000057   0.112405  -0.000503
 436  17  11.071898   2.693260   1.554797  -0.001139   0.289873  -0.003931
 437  17  11.126192   3.744789   1.538770  -0.000519   0.289873  -0.001790
 438   3   9.578375   3.283452   0.622341   0.001057   0.838330   0.001261
 439   4   8.854786   7.374433   4.383006   0.001824   0.139454   0.013081
 440   6   9.227721   7.348042   4.159361   0.002316   0.139454   0.016609
 441  13   8.351982   7.182969   3.446264   0.000895   0.139454   0.006421
 442   4  10.983630   7.686301   8.123319  -0.000046   0.013477  -0.003435
 443   6  11.337915   7.638539   7.884659  -0.000016   0.013477  -0.001193
 444  14  10.821241   7.696965   8.375033  -0.000087   0.013477  -0.006447
 445   4  11.659134   6.255823   9.318101  -0.000043   0.013477  -0.003188
 446   6  12.005686   6.224437   9.065762  -0.000014   0.013477  -0.001038
 447  14  11.436315   6.394458   9.462928  -0.000081   0.013477  -0.005996
 448   6   9.861888   7.809602   4.846695   0.002528   0.193227   0.013082
 449   6  10.937708   7.951308   6.589925   0.002074   0.396661   0.005229
 450   4   9.748716   7.943506   5.833700   0.004340   0.396661   0.010942
 451   4  10.821247   7.895966   7.584053   0.000276   0.193227   0.001427
 452   6  12.383450   5.708346   9.093057   0.000331   0.181861   0.001819
 453   6  12.336273   3.766787   9.144252   0.003937   0.371272   0.010604
 454   6  11.634777   1.745080   8.134810   0.005123   0.371272   0.013798
 455   4  11.867048   4.987142   9.479572   0.001488   0.371272   0.004008
 456   4  11.548001   2.671571   9.112542   0.004872   0.371272   0.013123
 457   4  10.806947   1.263168   7.998208   0.001918   0.181861   0.010549
 458   4   5.865663   6.886090   6.517284  -0.000170   0.257525  -0.000660
 459   7   4.530716   7.125354   5.590233   0.001559   0.257525   0.006053
 460   8   5.143788   6.701758   6.517514  -0.000666   0.257525  -0.002585
 461   4   5.749335   7.231666   5.550391   0.000558   0.163894   0.003403
 462   7   4.399915   7.829205   4.862625   0.000639   0.163894   0.003902
 463  18   4.489318   8.041062   4.661821  -0.000023   0.163894  -0.000139
 464   7   4.246134   7.903904   5.278872   0.000557   0.131084   0.004252
 465   4   6.283164   7.440872   6.565913   0.000235   0.131084   0.001795
 466   4   6.508003   6.670966   8.574419  -0.000122   0.029529  -0.004121
 467   8   5.868327   6.353584   8.390188  -0.000117   0.029529  -0.003967
 468  14   6.709070   6.748043   8.782709  -0.000169   0.029529  -0.005738
 469   8   5.354110   6.454060   7.782854  -0.001256   0.281964  -0.004455
 470   4   6.344900   6.983961   7.659166  -0.000234   0.397122  -0.000590
 471   9   8.931514   0.561048   8.879180  -0.000287   0.172920  -0.001662
 472   9   8.438691   1.301024   9.821679  -0.001422   0.352347  -0.004036
 473   9   7.617138   2.156968  10.342403  -0.000511   0.172920  -0.002953
 474   4   9.657850   1.450838   9.185626   0.001295   0.476139   0.002720
 475   4   8.717881   2.592152  10.232042  -0.000041   0.476139  -0.000085
 476   4   7.291394   7.312070   4.335205   0.001395   0.355862   0.003920
 477  13   6.870361   7.413930   3.338957  -0.001165   0.355862  -0.003275
 478  18   5.919420   7.876678   3.389703  -0.000079   0.355862  -0.000222
 479  13   7.587448   7.444609   3.180231  -0.000298   0.183394  -0.001624
 480   4   8.396266   7.620705   4.543742   0.002028   0.262872   0.007714
 481  14   7.973578   5.102344  10.625689  -0.000361   0.075155  -0.004802
 482  14   9.165795   4.964090  10.810532  -0.000721   0.170887  -0.004219
 483  14  10.503779   5.457983  10.494735  -0.000598   0.170887  -0.003497
 484  14  11.153151   6.276026   9.875231  -0.000309   0.075155  -0.004114
 485   4   8.368719   4.621145  10.612867  -0.000732   0.161031  -0.004543
 486   4  10.004561   4.732612  10.623703  -0.000312   0.161031  -0.001939
 487   4  11.178246   5.658232   9.949750  -0.000486   0.161031  -0.003019
 488  14  10.390229   7.916427   8.505837  -0.000279   0.071327  -0.003910
 489  14   9.298728   8.179509   8.226561  -0.000559   0.160123  -0.003490
 490  14   7.941337   7.890966   8.375617  -0.000691   0.160123  -0.004314
 491  14   7.131842   7.223786   8.863644  -0.000377   0.071327  -0.005281
 492   4  10.105798   8.019872   7.979865  -0.000435   0.154660  -0.002811
 493   4   8.550213   8.110531   7.811022  -0.000332   0.154660  -0.002144
 494   4   7.234613   7.409539   8.295153  -0.000621   0.154660  -0.004014
 495  18   4.615489   8.569499   4.550076   0.000205   0.222046   0.000924
 496  18   5.201415   8.696092   3.865726  -0.000442   0.442002  -0.001001
 497   4   6.836218   7.832861   5.917741   0.001409   0.713849   0.001974
 498   4   7.514736   7.916650   5.078260   0.001224   0.359140   0.003409
 499   5   1.714032   4.003249   5.608128   0.001734   0.131398   0.013193
 500   7   1.545588   4.403415   5.623644   0.001833   0.131398   0.013949
 501   8   2.421888   4.079064   6.360656   0.000998   0.131398   0.007597
 502   5  -0.595589   3.336355   1.088698  -0.000047   0.012286  -0.003818
 503   7  -0.743839   3.736223   1.139670  -0.000023   0.012286  -0.001835
 504  15  -0.558936   3.043353   1.142501  -0.000071   0.012286  -0.005738
 505   5  -0.552011   3.169634   2.896614  -0.000037   0.012286  -0.003011
 506   7  -0.700763   3.571425   2.926728  -0.000017   0.012286  -0.001401
 507  15  -0.519261   2.891566   2.788475  -0.000055   0.012286  -0.004482
 508   7  -0.584647   3.920327   3.592768   0.000391   0.234292   0.001670
 509   7   0.556047   4.306154   5.054415   0.002499   0.234292   0.010667
 510   5   0.295031   3.584934   4.221640   0.002682   0.495024   0.005418
 511   7   3.262528   6.241192  -1.322252   0.002244   0.187067   0.011997
 512   7   1.459404   5.388255  -1.285963   0.005263   0.382862   0.013746
 513   7  -0.310972   4.415395   0.057147   0.001606   0.382862   0.004194
 514   5   2.830137   5.363199  -1.420601   0.005081   0.382862   0.013271
 515   5   0.720413   4.310531  -0.849998   0.003726   0.382862   0.009731
 516   5  -0.466727   3.602460   0.588546   0.000191   0.187067   0.001023
 517   8   2.691590   3.606753   6.925927  -0.000065   0.187753  -0.000345
 518   5   1.779147   3.343203   5.724048   0.001827   0.267662   0.006826
 519   5   1.843566   1.190870   4.255398  -0.000108   0.081304  -0.001325
 520  11   2.515831   0.572824   4.493391  -0.000155   0.081304  -0.001900
 521  15   1.699755   1.038407   4.036419  -0.000258   0.081304  -0.003173
 522  11   2.895194   0.452388   5.146499  -0.000290   0.166088  -0.001745
 523   5   1.931244   1.354536   4.683071   0.000438   0.234699   0.001866
 524  12   4.502273   1.128791  -0.971781  -0.000417   0.167682  -0.002488
 525  12   4.557296   2.177895  -1.658155  -0.001331   0.341130  -0.003903
 526  12   4.906910   3.348786  -1.943713  -0.000354   0.167682  -0.002114
 527   5   3.461269   1.697608  -0.989889  -0.000109   0.462352  -0.000236
 528   5   3.750731   3.285710  -1.685174   0.000542   0.462352   0.001173
 529  15  -0.444149   2.651607   0.882543  -0.000271   0.067137  -0.004031
 530  15   0.181886   2.249271   0.083496  -0.000483   0.148650  -0.003249
 531  15   1.213367   1.516705  -0.297214  -0.000593   0.148650  -0.003990
 532  15   2.195674   0.758332   0.156095  -0.000789   0.148650  -0.005309
 533   5  -0.184782   2.907148   0.418467  -0.000393   0.147520  -0.002667
 534   5   0.821475   2.228459  -0.436067  -0.000279   0.147520  -0.001891
 535   5   2.013977   1.345572  -0.393076  -0.000426   0.147520  -0.002888
 536   5   2.820165   0.704297   0.232484  -0.000290   0.082023  -0.003531
 537  15   0.975859   1.378609   3.911787  -0.000322   0.086353  -0.003733
 538  15  -0.012431   2.149900   3.344200  -0.001122   0.204401  -0.005489
 539   5   0.702904   1.986357   3.991467  -0.000500   0.178700  -0.002800
 540   5  -0.321511   2.799368   3.221433  -0.000228   0.105499  -0.002164
 541   6  11.742265   0.734418   4.685010  -0.000099   0.076502  -0.001300
 542  10  10.990068   0.263320   4.246994  -0.000354   0.076502  -0.004622
 543  17  11.742717   0.731368   4.384518  -0.000350   0.076502  -0.004571
 544  10  10.420734  -0.188823   4.630309  -0.001379   0.383276  -0.003598
 545   6  11.288808   0.527475   5.595587   0.001897   0.542963   0.003493
 546  13   8.274494   7.342329   2.671512  -0.000381   0.250875  -0.001519
 547  13   8.920815   6.759611   1.772680  -0.000963   0.504215  -0.001911
 548  13   9.298210   5.768111   1.109588   0.000008   0.250875   0.000033
 549   6   9.898731   7.265944   3.284430   0.006184   0.717624   0.008617
 550   6  10.639079   6.127476   2.154853   0.003953   0.717624   0.005508
 551   6  12.248255   6.617491   8.668085  -0.000070   0.018578  -0.003758
 552  14  11.634980   6.709828   9.020538  -0.000086   0.018578  -0.004630
 553  16  12.497769   6.686726   8.521479  -0.000107   0.018578  -0.005756
 554   6  11.889264   7.384902   8.029731  -0.000067   0.018578  -0.003583
 555  14  11.318120   7.387177   8.457099  -0.000096   0.018578  -0.005154
 556  16  12.175239   7.376195   7.947959  -0.000097   0.018578  -0.005201
 557  14  11.385861   6.625370   9.514091  -0.000121   0.089041  -0.001364
 558   6  12.189407   6.481829   8.904045   0.000070   0.108783   0.000644
 559  14  10.928724   7.652798   8.677505  -0.000198   0.092663  -0.002141
 560   6  11.635517   7.612893   7.944142   0.000082   0.113209   0.000724
 561  16  13.075023   6.532528   8.474445  -0.000286   0.066631  -0.004297
 562  16  13.722016   5.653559   8.471149  -0.000485   0.147728  -0.003281
 563  16  14.530642   4.837751   7.819884  -0.000333   0.147728  -0.002256
 564  16  15.074935   4.613508   6.637927  -0.000569   0.147728  -0.003854
 565  16  15.135919   5.071045   5.400792  -0.000699   0.147728  -0.004732
 566  16  14.689061   6.026290   4.606192  -0.000777   0.147728  -0.005261
 567  16  13.914135   7.094936   4.573805  -0.000521   0.147728  -0.003524
 568  16  13.122905   7.847055   5.316660  -0.000443   0.147728  -0.002998
 569  16  12.633690   7.980061   6.535898  -0.000450   0.147728  -0.003043
 570  16  12.563927   7.625091   7.565620  -0.000291   0.066631  -0.004368
 571   6  12.995427   5.983956   8.669088  -0.000408   0.146179  -0.002792
 572   6  13.917244   4.861515   8.367106  -0.000042   0.146179  -0.000288
 573   6  14.718614   4.245466   7.281241  -0.000220   0.146179  -0.001504
 574   6  15.077135   4.383652   5.848349  -0.000509   0.146179  -0.003484
 575   6  14.848572   5.220479   4.644899  -0.000569   0.146179  -0.003893
 576   6  14.124878   6.419283   4.155053  -0.000457   0.146179  -0.003128
 577   6  13.197202   7.497770   4.575882  -0.000233   0.146179  -0.001594
 578   6  12.438761   8.022052   5.738081  -0.000061   0.146179  -0.000416
 579   6  12.154683   7.781206   7.174085  -0.000393   0.146179  -0.002686
 580  17  11.804102   4.214955   1.842257  -0.000252   0.070298  -0.003581
 581  17  12.872197   3.978684   2.191286  -0.000761   0.157748  -0.004826
 582  17  13.708489   3.166539   2.940146  -0.000905   0.157748  -0.005735
 583  17  13.669953   2.060003   3.773122  -0.000767   0.157748  -0.004861
 584  17  12.773833   1.154237   4.317469  -0.000679   0.157748  -0.004303
 585   6  12.248877   4.548694   2.074194  -0.000438   0.152443  -0.002873
 586   6  13.543726   3.972838   2.716798  -0.000631   0.152443  -0.004141
 587   6  14.019054   2.829628   3.659305  -0.000638   0.152443  -0.004182
 588   6  13.462157   1.630637   4.479957  -0.000431   0.152443  -0.002824
 589   6  12.463628   0.940743   4.844317  -0.000014   0.085885  -0.000157
 590   8   4.540188   6.724150   6.807001  -0.000136   0.261046  -0.000521
 591   8   3.537064   6.085778   7.220065  -0.001072   0.524212  -0.002044
 592   8   2.747629   4.778693   7.181321  -0.000638   0.524212  -0.001218
 593   7   3.164208   7.408748   5.853024   0.004646   0.752692   0.006173
 594   7   1.890366   6.217883   6.205665   0.005889   0.752692   0.007823
 595   7   1.364535   4.885413   5.971054   0.003382   0.380120   0.008896
 596   7   4.985532   7.903668   0.490525  -0.000020   0.082774  -0.000246
 597  13   5.826410   7.472090   0.650678  -0.000023   0.082774  -0.000273
 598  18   5.010309   8.134075   0.683780  -0.000189   0.082774  -0.002279
 599  13   6.312364   7.173213   0.324421  -0.000037   0.086606  -0.000425
 600   7   5.041621   7.783187   0.178562   0.000378   0.122564   0.003082
 601   7  -0.986777   3.920211   2.508628  -0.000072   0.016048  -0.004504
 602  15  -0.710607   3.270766   2.389566  -0.000084   0.016048  -0.005222
 603  19  -1.161334   4.160534   2.487495  -0.000108   0.016048  -0.006753
 604   7  -1.004379   4.003754   1.600862  -0.000069   0.016048  -0.004320
 605  15  -0.726135   3.344469   1.588730  -0.000087   0.016048  -0.005451
 606  19  -1.177142   4.235569   1.672182  -0.000097   0.016048  -0.006068
 607  15  -0.583970   2.729579   2.596656  -0.000301   0.079725  -0.003780
 608   7  -0.938621   3.735733   2.713115   0.000042   0.112794   0.000368
 609  15  -0.631753   2.843130   1.373100  -0.000312   0.074989  -0.004167
 610   7  -0.951783   3.864834   1.304297   0.000061   0.106096   0.000572
 611  18   4.517197   8.653013   0.493085  -0.000180   0.067444  -0.002669
 612  18   3.602207   9.255828   0.379390  -0.000477   0.149771  -0.003186
 613  18   2.565571   9.880193   0.936471  -0.000636   0.149771  -0.004243
 614  18   1.996710  10.148613   2.110837  -0.000715   0.149771  -0.004774
 615  18   2.128503   9.951202   3.421732  -0.000812   0.149771  -0.005424
 616  18   2.906996   9.368776   4.332509  -0.000556   0.149771  -0.003714
 617  18   3.800018   8.769531   4.571123  -0.000190   0.067444  -0.002825
 618   7   4.044400   8.596418   0.143230  -0.000094   0.147744  -0.000634
 619   7   2.789487   9.396246   0.302607  -0.000267   0.147744  -0.001810
 620   7   1.837636   9.925552   1.329130  -0.000546   0.147744  -0.003696
 621   7   1.578512   9.967651   2.802566  -0.000613   0.147744  -0.004146
 622   7   2.118193   9.505309   4.119729  -0.000488   0.147744  -0.003302
 623   7   3.235747   8.727798   4.741404  -0.000288   0.147744  -0.001952
 624  19  -1.467700   4.558211   2.811708  -0.000306   0.067488  -0.004531
 625  19  -1.381721   5.134766   3.748816  -0.000538   0.149971  -0.003587
 626  19  -1.243614   6.312155   4.361656  -0.000407   0.149971  -0.002715
 627  19  -1.116527   7.619989   4.128610  -0.000595   0.149971  -0.003969
 628  19  -1.052744   8.520224   3.145553  -0.000679   0.149971  -0.004527
 629  19  -1.078506   8.642501   1.816916  -0.000803   0.149971  -0.005353
 630  19  -1.183214   7.936516   0.689302  -0.000558   0.149971  -0.003724
 631  19  -1.323791   6.692711   0.226613  -0.000470   0.149971  -0.003137
 632  19  -1.442403   5.422791   0.619201  -0.000498   0.149971  -0.003322
 633  19  -1.494336   4.684637   1.437988  -0.000291   0.067488  -0.004318
 634   7  -1.130744   4.489705   3.292389  -0.000461   0.147734  -0.003121
 635   7  -0.994101   5.521543   4.371368  -0.000141   0.147734  -0.000957
 636   7  -0.836833   6.995346   4.596596  -0.000328   0.147734  -0.002219
 637   7  -0.723643   8.304789   3.875415  -0.000529   0.147734  -0.003581
 638   7  -0.701095   8.911165   2.504519  -0.000588   0.147734  -0.003979
 639   7  -0.778467   8.565011   1.047898  -0.000453   0.147734  -0.003068
 640   7  -0.923927   7.408735   0.104806  -0.000273   0.147734  -0.001847
 641   7  -1.077634   5.918030   0.063234  -0.000069   0.147734  -0.000467
 642   7  -1.176351   4.706175   0.940284  -0.000421   0.147734  -0.002848
 643  14   6.688446   6.652913   9.203914  -0.000432   0.287636  -0.001501
 644   8   5.451902   6.014871   8.795101  -0.000188   0.287636  -0.000655
 645  11   5.287955  -1.285128   6.353422   0.000088   0.219891   0.000400
 646  11   4.591681  -0.877053   6.483894   0.000060   0.219891   0.000271
 647   9   5.438039  -0.624966   7.650840  -0.000361   0.439793  -0.000821
 648  12   8.315411   1.105607  -0.103491  -0.000267   0.421738  -0.000633
 649  10   8.845526   0.326411   0.979787  -0.000189   0.421738  -0.000449
 650  17  11.836339   0.633945   3.928858  -0.000685   0.238091  -0.002875
 651  17  11.724755   1.060652   2.762269  -0.003147   0.476770  -0.006601
 652  17  11.290040   1.840911   1.891821  -0.001340   0.238091  -0.005627
 653  10  10.807184   0.005101   3.286170  -0.002445   0.476770  -0.005128
 654  10  10.466723   0.757297   2.016662  -0.002295   0.476770  -0.004813
 655  15   2.662491  -0.077494   1.413424  -0.000535   0.245117  -0.002183
 656  15   2.007103  -0.153610   2.330200  -0.001780   0.490185  -0.003631
 657  15   1.581987   0.400412   3.517831  -0.001155   0.490185  -0.002355
 658  11   3.496756  -0.843555   2.477502  -0.001034   0.490185  -0.002110
 659  11   2.817891  -0.680153   3.665177  -0.001202   0.490185  -0.002453
 660  11   2.621128  -0.050264   4.581874  -0.000261   0.245117  -0.001064
 661  18   5.601132   8.708259   2.716906  -0.000878   0.293700  -0.002989
 662  18   5.389348   8.603096   1.415181  -0.001625   0.587767  -0.002765
 663  13   6.755881   7.823511   2.082582  -0.001601   0.587767  -0.002723
 664  13   6.469146   7.610756   0.808644  -0.000189   0.293700  -0.000643
 665  16  12.475569   7.228156   8.235060  -0.000353   0.313077  -0.001127
 666  14  11.333939   7.153769   9.103481  -0.000511   0.313077  -0.001631
 667  19  -1.392758   4.224663   2.004599  -0.000229   0.269795  -0.000848
 668  15  -0.797122   2.913396   2.036416  -0.000324   0.269795  -0.001201
 =====================================================

              3776662  WORDS OF DYNAMIC MEMORY USED
 EXECUTION OF GAMESS TERMINATED NORMALLY Tue Nov 22 20:40:41 2016
 DDI: 263640 bytes (0.3 MB / 0 MWords) used by master data server.

 ----------------------------------------
 CPU timing information for all processes
 ========================================
 0: 1798.108 + 0.680 = 1798.788
 ----------------------------------------
 ddikick.x: exited gracefully.
