----- GAMESS execution script -----

          ******************************************************
          *         GAMESS VERSION =  5 DEC 2014 (R1)          *
          *             FROM IOWA STATE UNIVERSITY             *
          * M.W.SCHMIDT, K.K.BALDRIDGE, J.A.BOATZ, S.T.ELBERT, *
          *   M.S.GORDON, J.H.JENSEN, S.KOSEKI, N.MATSUNAGA,   *
          *          K.A.NGUYEN, S.J.SU, T.L.WINDUS,           *
          *       TOGETHER WITH M.DUPUIS, J.A.MONTGOMERY       *
          *         J.COMPUT.CHEM.  14, 1347-1363(1993)        *
          **************** 64 BIT LINUX VERSION ****************

 EXECUTION OF GAMESS BEGUN Tue Nov 22 20:46:21 2016

            ECHO OF THE FIRST FEW INPUT CARDS -
 INPUT CARD>! SELECT RESTRICTED HARTREE-FOCK AS DEFAULT                                     
 INPUT CARD>$contrl scftyp=rhf $end                                                         
 INPUT CARD>                                                                                
 INPUT CARD>! THEORY: HF OR DFT                                                             
 INPUT CARD> $contrl mplevl=0 $end                                                          
 INPUT CARD>                                                                                
 INPUT CARD> $system timlim=10000 mwords=20 $end                                            
 INPUT CARD> $SCF DIRSCF=.TRUE. $end                                                        
 INPUT CARD>                                                                                
 INPUT CARD>                                                                                
 INPUT CARD>! BASIS SETS                                                                    
 INPUT CARD>! 6-311G(d,p)                                                                   
 INPUT CARD> $BASIS GBASIS=N311 NGAUSS=6 NDFUNC=1 NPFUNC=1 $END                             
 INPUT CARD>                                                                                
 INPUT CARD>! One of the following                                                          
 INPUT CARD> $guess guess=HUCKEL $end                                                       
 INPUT CARD>                                                                                
 INPUT CARD> $statpt projct=.FALSE. $end                                                    
 INPUT CARD> $STATPT IFREEZ(1)=1,2,3 $END                                                   
 INPUT CARD>                                                                                
 INPUT CARD>! Optimize the geometry with COSMO effects                                      
 INPUT CARD> $statpt opttol=0.0005 nstep=50 $end                                            
 INPUT CARD> $contrl nzvar=1 $end                                                           
 INPUT CARD> $zmat dlc=.t. auto=.t. $end                                                    
 INPUT CARD> $contrl runtyp=OPTIMIZE maxit=200 $end                                         
 INPUT CARD>                                                                                
 INPUT CARD>! Run COSMO on perfect conductor                                                
 INPUT CARD> $COSGMS PRFCND=.TRUE. $end                                                     
 INPUT CARD>                                                                                
 INPUT CARD>! Specifying RSOLV                                                              
 INPUT CARD> $COSGMS COSRAD = 1.4 $end                                                      
 INPUT CARD>                                                                                
 INPUT CARD>! available memory                                                              
 INPUT CARD> $SYSTEM MWORDS=40 $END                                                         
 INPUT CARD>                                                                                
 INPUT CARD> $DATA                                                                          
 INPUT CARD>1-Butyne, ID: C107006                                                           
 INPUT CARD>C1                                                                              
 INPUT CARD>C      6.0      2.2334000000    0.8107000000    0.8874000000                    
 INPUT CARD>C      6.0      1.0537000000    0.9766000000    0.8874000000                    
 INPUT CARD>C      6.0      3.6596000000    0.6098000000    0.8884000000                    
 INPUT CARD>C      6.0      4.4128000000    1.9252000000    0.8934000000                    
 INPUT CARD>H      1.0      0.0000000000    1.1233000000    0.8875000000                    
 INPUT CARD>H      1.0      3.9308000000    0.0000000000    1.7731000000                    
 INPUT CARD>H      1.0      3.9328000000    0.0058000000    0.0000000000                    
 INPUT CARD>H      1.0      5.4969000000    1.7544000000    0.8941000000                    
 INPUT CARD>H      1.0      4.1751000000    2.5330000000    0.0111000000                    
 INPUT CARD>H      1.0      4.1729000000    2.5273000000    1.7790000000                    
 INPUT CARD> $END                                                                           
 INPUT CARD>                                                                                
   40000000 WORDS OF MEMORY AVAILABLE

     BASIS OPTIONS
     -------------
     GBASIS=N311         IGAUSS=       6      POLAR=POPN311 
     NDFUNC=       1     NFFUNC=       0     DIFFSP=       F
     NPFUNC=       1      DIFFS=       F     BASNAM=        


     RUN TITLE
     ---------
 1-Butyne, ID: C107006                                                           

 THE POINT GROUP OF THE MOLECULE IS C1      
 THE ORDER OF THE PRINCIPAL AXIS IS     0

 ATOM      ATOMIC                      COORDINATES (BOHR)
           CHARGE         X                   Y                   Z
 C           6.0     4.2205140210        1.5320008582        1.6769428415
 C           6.0     1.9912042733        1.8455063996        1.6769428415
 C           6.0     6.9156412247        1.1523549073        1.6788325675
 C           6.0     8.3389828386        3.6381004716        1.6882811974
 H           1.0     0.0000000000        2.1227292020        1.6771318141
 H           1.0     7.4281349125        0.0000000000        3.3506731488
 H           1.0     7.4319143645        0.0109604107        0.0000000000
 H           1.0    10.3876347819        3.3153352729        1.6896040056
 H           1.0     7.8897949713        4.7866759269        0.0209759585
 H           1.0     7.8856375742        4.7759044888        3.3618225322

          INTERNUCLEAR DISTANCES (ANGS.)




     $CONTRL OPTIONS
     ---------------
 SCFTYP=RHF          RUNTYP=OPTIMIZE     EXETYP=RUN     
 MPLEVL=       0     CITYP =NONE         CCTYP =NONE         VBTYP =NONE    
 DFTTYP=NONE         TDDFT =NONE    
 MULT  =       1     ICHARG=       0     NZVAR =       1     COORD =UNIQUE  
 PP    =NONE         RELWFN=NONE         LOCAL =NONE         NUMGRD=       F
 ISPHER=      -1     NOSYM =       0     MAXIT =     200     UNITS =ANGS    
 PLTORB=       F     MOLPLT=       F     AIMPAC=       F     FRIEND=        
 NPRINT=       7     IREST =       0     GEOM  =INPUT   
 NORMF =       0     NORMP =       0     ITOL  =      20     ICUT  =       9
 INTTYP=BEST         GRDTYP=BEST         QMTTOL= 1.0E-06

     $SYSTEM OPTIONS
     ---------------
  REPLICATED MEMORY=    40000000 WORDS (ON EVERY NODE).
 DISTRIBUTED MEMDDI=           0 MILLION WORDS IN AGGREGATE,
 MEMDDI DISTRIBUTED OVER   1 PROCESSORS IS           0 WORDS/PROCESSOR.
 TOTAL MEMORY REQUESTED ON EACH PROCESSOR=    40000000 WORDS.
 TIMLIM=       10000.00 MINUTES, OR       6.9 DAYS.
 PARALL= F  BALTYP=  DLB     KDIAG=    0  COREFL= F
 MXSEQ2=     300 MXSEQ3=     150  mem10=         0

     $COSGMS OPTIONS
     ---------------
     EPSI  =   INFTY     NSPA  =      92     COSRAD=    1.40
     DISEX =   10.00     OUTCHG=DBLCAV       COSBUG=       F
     COSWRT=       F     DCOSMO=       F

     SYMMETRY COORDINATES WILL NOT BE USED FOR 
     THE COSMO CALCULATION, EVEN IF SPECIFIED:
         -- SWITCHING TO C1 POINT GROUP --


     DEFINITION OF CAVITY
     ---------------------------
     ATOM         COORDINATES           RADIUS 
     1    4.2205    1.5320    1.6769    2.0000
     2    1.9912    1.8455    1.6769    2.0000
     3    6.9156    1.1524    1.6788    2.0000
     4    8.3390    3.6381    1.6883    2.0000
     5    0.0000    2.1227    1.6771    1.3000
     6    7.4281    0.0000    3.3507    1.3000
     7    7.4319    0.0110    0.0000    1.3000
     8   10.3876    3.3153    1.6896    1.3000
     9    7.8898    4.7867    0.0210    1.3000
    10    7.8856    4.7759    3.3618    1.3000

          ----------------
          PROPERTIES INPUT
          ----------------

     MOMENTS            FIELD           POTENTIAL          DENSITY
 IEMOM =       1   IEFLD =       0   IEPOT =       0   IEDEN =       0
 WHERE =COMASS     WHERE =NUCLEI     WHERE =NUCLEI     WHERE =NUCLEI  
 OUTPUT=BOTH       OUTPUT=BOTH       OUTPUT=BOTH       OUTPUT=BOTH    
 IEMINT=       0   IEFINT=       0                     IEDINT=       0
                                                       MORB  =       0
          EXTRAPOLATION IN EFFECT
          SOSCF IN EFFECT
 ORBITAL PRINTING OPTION: NPREO=     1   112     2     1

     -------------------------------
     INTEGRAL TRANSFORMATION OPTIONS
     -------------------------------
     NWORD  =            0
     CUTOFF = 1.0E-09     MPTRAN =       0
     DIRTRF =       T     AOINTS =DUP     

          ----------------------
          INTEGRAL INPUT OPTIONS
          ----------------------
 NOPK  =       1 NORDER=       0 SCHWRZ=       T


 -----------------------------------------------
  STATISTICS ON AUTOMATIC COORDINATE GENERATION 
 -----------------------------------------------
  NUMBER OF USER SPECIFIED BONDS                             0
  NUMBER OF BONDS                                            9
  NUMBER OF ANGLES                                          14
  NUMBER OF TORSIONS                                        13
  NUMBER OF EXTRA COORD.                                     0
  NUMBER OF EXTRA COORD. FOR CONSTRAINTS                     0
  NUMBER OF CONSTRAINED COORD.                               0

  TOTAL NUMBER OF PRIMITIVES                                36
 -----------------------------------------------

   --- ENCODED Z MATRIX ---
 COORD  TYPE   I   J   K   L   M   N
    1      1    1   2
    2      1    1   3
    3      1    2   5
    4      1    3   7
    5      1    3   6
    6      1    3   4
    7      1    4   8
    8      1    4  10
    9      1    4   9
   10      2    1   3   7
   11      2    1   3   4
   12      2    1   2   5
   13      2    1   3   6
   14      2    2   1   3
   15      2    3   4  10
   16      2    3   4   8
   17      2    3   4   9
   18      2    4   3   7
   19      2    4   3   6
   20      2    6   3   7
   21      2    8   4   9
   22      2    8   4  10
   23      2    9   4  10
   24      3    1   3   4   8
   25      3    1   3   4   9
   26      3    1   3   4  10
   27      3    2   1   3   6
   28      3    2   1   3   4
   29      3    2   1   3   7
   30      3    3   1   2   5
   31      3    6   3   4  10
   32      3    6   3   4   9
   33      3    6   3   4   8
   34      3    7   3   4  10
   35      3    7   3   4   9
   36      3    7   3   4   8

          INDEP./SYM. INTERNAL COORDINATES
          --------------------------------
 CRD  1=  -0.1337 (  2) -0.1426 (  6)  0.2338 ( 10) -0.7191 ( 11)  0.2335 ( 12)
           0.2769 ( 13)  0.2880 ( 14) -0.1115 ( 15)  0.1399 ( 16) -0.1284 ( 17)
           0.1756 ( 18)  0.1679 ( 19)
 CRD  2=   0.2571 ( 10) -0.2092 ( 11) -0.1283 ( 13) -0.8087 ( 14) -0.1483 ( 15)
           0.1010 ( 19) -0.2398 ( 24) -0.1959 ( 25) -0.2246 ( 26)
 CRD  3=  -0.4495 (  1) -0.5185 (  2) -0.2596 (  3) -0.4112 (  6) -0.1016 (  7)
           0.1005 ( 11) -0.1122 ( 12) -0.3840 ( 16)  0.1837 ( 21)  0.1643 ( 22)
 CRD  4=  -0.3183 (  1) -0.3516 (  2) -0.1878 (  3)  0.5462 (  6) -0.1820 ( 10)
          -0.1729 ( 13)  0.1506 ( 15)  0.1983 ( 16)  0.1103 ( 17)  0.2325 ( 18)
           0.2442 ( 19) -0.1261 ( 20) -0.1566 ( 21) -0.1710 ( 22) -0.1634 ( 23)
           0.1722 ( 27) -0.1653 ( 29)
 CRD  5=   0.1641 ( 10) -0.1469 ( 13)  0.5003 ( 15) -0.5355 ( 17) -0.3370 ( 18)
           0.3371 ( 19)  0.1831 ( 21) -0.1854 ( 22)  0.1021 ( 27) -0.2117 ( 28)
           0.1096 ( 29)
 CRD  6=  -0.1086 (  4) -0.1853 (  6)  0.1764 (  7) -0.1123 (  9) -0.1886 ( 10)
           0.1423 ( 11) -0.3022 ( 12) -0.3311 ( 15)  0.5477 ( 16) -0.3886 ( 17)
           0.3339 ( 23)
 CRD  7=   0.2223 (  4) -0.1263 (  5)  0.1907 (  8) -0.1501 (  9) -0.2048 ( 10)
          -0.1068 ( 11) -0.1592 ( 12)  0.2886 ( 13) -0.1947 ( 14)  0.3619 ( 15)
          -0.2523 ( 17)  0.4384 ( 18) -0.3579 ( 19)  0.1942 ( 21) -0.1545 ( 22)
          -0.1008 ( 27)  0.2213 ( 28) -0.1203 ( 29)
 CRD  8=  -0.1068 (  1) -0.2596 (  5)  0.2099 ( 11)  0.8194 ( 12)  0.1285 ( 16)
          -0.1361 ( 17) -0.2183 ( 19)  0.1453 ( 20) -0.1009 ( 22) -0.1133 ( 24)
          -0.1052 ( 25) -0.1023 ( 27)
 CRD  9=   0.1516 (  6)  0.4750 (  7)  0.4991 (  8)  0.4963 (  9) -0.1818 ( 15)
          -0.2029 ( 16) -0.1836 ( 17)  0.2072 ( 21)  0.2055 ( 22)  0.1953 ( 23)
 CRD 10=   0.1299 (  1)  0.1381 (  3) -0.5805 (  4) -0.5902 (  5)  0.1531 ( 18)
           0.1541 ( 19) -0.3000 ( 20)  0.1750 ( 27) -0.1755 ( 29) -0.1123 ( 31)
           0.1134 ( 35)
 CRD 11=   0.5166 (  4) -0.4918 (  5)  0.1697 (  8) -0.1796 (  9)  0.2119 ( 10)
          -0.2496 ( 12) -0.2336 ( 13)  0.3371 ( 14) -0.1275 ( 24) -0.1956 ( 25)
          -0.1973 ( 26)  0.1153 ( 33)  0.1149 ( 36)
 CRD 12=  -0.6568 (  7)  0.3303 (  8)  0.2922 (  9) -0.1695 ( 21) -0.1493 ( 22)
           0.3252 ( 23) -0.1787 ( 25)  0.1743 ( 26)  0.1510 ( 31) -0.2020 ( 32)
           0.1948 ( 34) -0.1582 ( 35)
 CRD 13=   0.1465 (  4) -0.1471 (  5) -0.5190 (  8)  0.5386 (  9)  0.1060 ( 14)
           0.2744 ( 21) -0.2850 ( 22) -0.2705 ( 24)  0.1270 ( 31)  0.1147 ( 32)
          -0.1846 ( 33)  0.1288 ( 34)  0.1165 ( 35) -0.1827 ( 36)
 CRD 14=  -0.3511 (  1)  0.4585 (  2) -0.6485 (  3) -0.1137 (  4)  0.1632 ( 10)
          -0.1065 ( 12)  0.1710 ( 13) -0.1030 ( 18) -0.1092 ( 19) -0.1215 ( 31)
          -0.1586 ( 32) -0.1400 ( 33)  0.1181 ( 34)
 CRD 15=  -0.1028 (  5)  0.1071 ( 12) -0.2092 ( 14)  0.2958 ( 24)  0.2970 ( 25)
           0.2975 ( 26)  0.3213 ( 31)  0.3208 ( 32)  0.3196 ( 33)  0.3380 ( 34)
           0.3375 ( 35)  0.3364 ( 36)
 CRD 16=   0.2548 (  2) -0.2832 (  3)  0.2061 (  4)  0.1591 (  5) -0.2554 (  7)
          -0.2179 (  8) -0.2040 (  9) -0.1865 ( 10)  0.1683 ( 12) -0.1771 ( 13)
          -0.1993 ( 15) -0.2105 ( 16) -0.1924 ( 17)  0.2294 ( 18)  0.2428 ( 19)
          -0.2165 ( 20)  0.2228 ( 21)  0.2335 ( 22)  0.1882 ( 23)  0.2282 ( 27)
          -0.2207 ( 29)
 CRD 17=  -0.6710 (  1)  0.1765 (  2)  0.5885 (  3)  0.1463 (  6) -0.1129 (  8)
          -0.1097 (  9) -0.1209 ( 20)  0.1332 ( 23) -0.1136 ( 32)  0.1096 ( 34)
 CRD 18=  -0.1266 (  1)  0.1685 (  2)  0.2802 (  4) -0.5852 (  6)  0.1484 (  7)
           0.2755 (  9) -0.1764 ( 10)  0.1321 ( 12)  0.1655 ( 15)  0.1693 ( 16)
           0.1577 ( 17)  0.1105 ( 18)  0.1712 ( 19) -0.1704 ( 20) -0.2591 ( 21)
          -0.1817 ( 23)  0.1383 ( 24)  0.1827 ( 27) -0.1207 ( 29) -0.1196 ( 31)
          -0.1112 ( 32)
 CRD 19=   0.1364 (  2) -0.2462 (  4)  0.3348 (  5) -0.2660 (  6)  0.3542 (  8)
          -0.1943 (  9) -0.2535 ( 13)  0.1680 ( 14)  0.1232 ( 18)  0.1546 ( 21)
          -0.2605 ( 22) -0.3289 ( 24)  0.1167 ( 28) -0.1317 ( 29)  0.2028 ( 31)
           0.2427 ( 32)  0.1686 ( 34)  0.2084 ( 35)
 CRD 20=   0.1862 (  1) -0.3680 (  2)  0.1451 (  4)  0.2094 (  5)  0.3445 (  7)
          -0.1242 (  8) -0.2003 (  9)  0.1397 ( 10) -0.2638 ( 20) -0.1063 ( 21)
          -0.1637 ( 22)  0.2460 ( 23) -0.1820 ( 25)  0.1755 ( 26) -0.3201 ( 32)
          -0.1822 ( 33)  0.3702 ( 34)  0.1505 ( 36)
 CRD 21=  -0.2686 (  2)  0.1913 (  4) -0.2648 (  7)  0.2151 (  8)  0.1755 ( 11)
           0.1527 ( 13) -0.1727 ( 15)  0.2053 ( 16) -0.1790 ( 18) -0.1802 ( 20)
           0.1668 ( 21) -0.1920 ( 23)  0.2958 ( 25) -0.3764 ( 31) -0.3057 ( 33)
           0.3847 ( 35)
 CRD 22=   0.1555 (  4) -0.2679 (  5)  0.1826 (  8) -0.2735 (  9) -0.1505 ( 10)
          -0.1215 ( 14) -0.1475 ( 15)  0.2174 ( 17) -0.1495 ( 18)  0.2089 ( 19)
           0.1386 ( 21) -0.2007 ( 22)  0.2181 ( 25)  0.3529 ( 26) -0.2077 ( 28)
           0.1382 ( 29)  0.1372 ( 31) -0.2671 ( 33) -0.1347 ( 35) -0.4041 ( 36)
 CRD 23=  -0.3392 ( 27) -0.3391 ( 28) -0.3389 ( 29) -0.8094 ( 30)
 CRD 24=  -0.4674 ( 27) -0.4673 ( 28) -0.4672 ( 29)  0.5873 ( 30)

 THE DETERMINANT OF THE G MATRIX IS 10**(     3)


                     --------------------
                     INTERNAL COORDINATES
                     --------------------

                 - - ATOMS - -         COORDINATE      COORDINATE
 NO.   TYPE    I  J  K  L  M  N        (BOHR,RAD)       (ANG,DEG)
 ----------------------------------------------------------------
   1 STRETCH   1  2                     2.2512458       1.1913081
   2 STRETCH   1  3                     2.7217357       1.4402806
   3 STRETCH   2  5                     2.0104097       1.0638631
   4 STRETCH   3  7                     2.0947072       1.1084714
   5 STRETCH   3  6                     2.0941878       1.1081965
   6 STRETCH   3  4                     2.8644234       1.5157877
   7 STRETCH   4  8                     2.0739223       1.0974725
   8 STRETCH   4 10                     2.0738516       1.0974351
   9 STRETCH   4  9                     2.0738616       1.0974404
  10 BEND      1  3  7                  1.8960035     108.6329982
  11 BEND      1  3  4                  1.9508833     111.7773807
  12 BEND      1  2  5                  3.1402112     179.9208458
  13 BEND      1  3  6                  1.8961439     108.6410445
  14 BEND      2  1  3                  3.1408611     179.9580877
  15 BEND      3  4 10                  1.9499675     111.7249072
  16 BEND      3  4  8                  1.9345607     110.8421661
  17 BEND      3  4  9                  1.9501696     111.7364884
  18 BEND      4  3  7                  1.9316077     110.6729664
  19 BEND      4  3  6                  1.9318732     110.6881801
  20 BEND      6  3  7                  1.8542540     106.2409306
  21 BEND      8  4  9                  1.8761829     107.4973635
  22 BEND      8  4 10                  1.8763359     107.5061266
  23 BEND      9  4 10                  1.8729427     107.3117104
  24 TORSION   1  3  4  8              -3.1415895    -179.9998199
  25 TORSION   1  3  4  9              -1.0493617     -60.1239995
  26 TORSION   1  3  4 10               1.0493093      60.1209941
  27 TORSION   2  1  3  6               0.2490056      14.2669706
  28 TORSION   2  1  3  4              -1.8877963    -108.1627602
  29 TORSION   2  1  3  7               2.2590181     129.4322019
  30 TORSION   3  1  2  5              -1.1824292     -67.7482050
  31 TORSION   6  3  4 10              -1.0669310     -61.1306448
  32 TORSION   6  3  4  9               3.1175832     178.6243617
  33 TORSION   6  3  4  8               1.0253555      58.7485412
  34 TORSION   7  3  4 10              -3.1179997    -178.6482239
  35 TORSION   7  3  4  9               1.0665146      61.1067826
  36 TORSION   7  3  4  8              -1.0257132     -58.7690378

     ------------------------------------------
     THE POINT GROUP IS C1 , NAXIS= 1, ORDER= 1
     ------------------------------------------

     DIMENSIONS OF THE SYMMETRY SUBSPACES ARE
 A   =  112

 ..... DONE SETTING UP THE RUN .....
 STEP CPU TIME =     0.00 TOTAL CPU TIME =        0.0 (    0.0 MIN)
 TOTAL WALL CLOCK TIME=        0.0 SECONDS, CPU UTILIZATION IS   0.00%


          -----------------------------
          STATIONARY POINT LOCATION RUN
          -----------------------------

 OBTAINING INITIAL HESSIAN, HESS=GUESS   
 DIAGONAL GUESS HESSIAN IN INTERNAL COORDS IS
     1  0.7093     2  0.4371     3  0.3644     4  0.3342     5  0.3343
     6  0.3775     7  0.3414     8  0.3414     9  0.3414    10  0.2284
    11  0.2560    12  0.2476    13  0.2284    14  0.2816    15  0.2245
    16  0.2245    17  0.2245    18  0.2238    19  0.2238    20  0.2016
    21  0.2027    22  0.2027    23  0.2027    24  0.2500    25  0.2500
    26  0.2500    27  0.2500    28  0.2500    29  0.2500    30  0.2500
    31  0.2500    32  0.2500    33  0.2500    34  0.2500    35  0.2500
    36  0.2500
 TRANSFORMING HESSIAN TO SYMMETRY COORDINATES

          PARAMETERS CONTROLLING GEOMETRY SEARCH ARE
          METHOD =QA                  UPHESS =BFGS    
          NNEG   =         0          NFRZ   =         3
          NSTEP  =        50          IFOLOW =         1
          HESS   =GUESS               RESTAR =         F
          IHREP  =         0          HSSEND =         F
          NPRT   =         0          NPUN   =         0
          OPTTOL = 5.000E-04          RMIN   = 1.500E-03
          RMAX   = 1.000E-01          RLIM   = 7.000E-02
          DXMAX  = 3.000E-01          PURIFY =         F
          MOVIE  =         F          TRUPD  =         T
          TRMAX  = 5.000E-01          TRMIN  = 5.000E-02
          ITBMAT =         5          STPT   =         F
          STSTEP = 1.000E-02          PROJCT=          F
          FROZEN COORD(S)=   1   2   3

