----- GAMESS execution script -----

          ******************************************************
          *         GAMESS VERSION =  5 DEC 2014 (R1)          *
          *             FROM IOWA STATE UNIVERSITY             *
          * M.W.SCHMIDT, K.K.BALDRIDGE, J.A.BOATZ, S.T.ELBERT, *
          *   M.S.GORDON, J.H.JENSEN, S.KOSEKI, N.MATSUNAGA,   *
          *          K.A.NGUYEN, S.J.SU, T.L.WINDUS,           *
          *       TOGETHER WITH M.DUPUIS, J.A.MONTGOMERY       *
          *         J.COMPUT.CHEM.  14, 1347-1363(1993)        *
          **************** 64 BIT LINUX VERSION ****************

 EXECUTION OF GAMESS BEGUN Tue Nov 22 20:40:54 2016

            ECHO OF THE FIRST FEW INPUT CARDS -
 INPUT CARD>! SELECT RESTRICTED HARTREE-FOCK AS DEFAULT                                     
 INPUT CARD>$contrl scftyp=rhf $end                                                         
 INPUT CARD>                                                                                
 INPUT CARD>! THEORY: HF OR DFT                                                             
 INPUT CARD> $contrl mplevl=0 $end                                                          
 INPUT CARD>                                                                                
 INPUT CARD> $system timlim=10000 mwords=20 $end                                            
 INPUT CARD> $SCF DIRSCF=.TRUE. $end                                                        
 INPUT CARD>                                                                                
 INPUT CARD>                                                                                
 INPUT CARD>! BASIS SETS                                                                    
 INPUT CARD>! 6-311G(d,p)                                                                   
 INPUT CARD> $BASIS GBASIS=N311 NGAUSS=6 NDFUNC=1 NPFUNC=1 $END                             
 INPUT CARD>                                                                                
 INPUT CARD>! One of the following                                                          
 INPUT CARD> $guess guess=HUCKEL $end                                                       
 INPUT CARD>                                                                                
 INPUT CARD> $statpt projct=.FALSE. $end                                                    
 INPUT CARD> $STATPT IFREEZ(1)=1,2,3 $END                                                   
 INPUT CARD>                                                                                
 INPUT CARD>! Optimize the geometry with COSMO effects                                      
 INPUT CARD> $statpt opttol=0.0005 nstep=50 $end                                            
 INPUT CARD> $contrl nzvar=1 $end                                                           
 INPUT CARD> $zmat dlc=.t. auto=.t. $end                                                    
 INPUT CARD> $contrl runtyp=OPTIMIZE maxit=200 $end                                         
 INPUT CARD>                                                                                
 INPUT CARD>! Run COSMO on perfect conductor                                                
 INPUT CARD> $COSGMS PRFCND=.TRUE. $end                                                     
 INPUT CARD>                                                                                
 INPUT CARD>! Specifying RSOLV                                                              
 INPUT CARD> $COSGMS COSRAD = 1.4 $end                                                      
 INPUT CARD>                                                                                
 INPUT CARD>! available memory                                                              
 INPUT CARD> $SYSTEM MWORDS=40 $END                                                         
 INPUT CARD>                                                                                
 INPUT CARD> $DATA                                                                          
 INPUT CARD>1-Butene, ID: C106989                                                           
 INPUT CARD>C1                                                                              
 INPUT CARD>C      6.0      1.3702000000    2.1763000000    1.6455000000                    
 INPUT CARD>C      6.0      0.4451000000    2.8431000000    0.9657000000                    
 INPUT CARD>C      6.0      1.9783000000    0.9053000000    1.1655000000                    
 INPUT CARD>C      6.0      3.4886000000    0.9497000000    1.2530000000                    
 INPUT CARD>H      1.0      1.7309000000    2.5402000000    2.6153000000                    
 INPUT CARD>H      1.0      0.0000000000    3.7633000000    1.3313000000                    
 INPUT CARD>H      1.0      0.0658000000    2.5199000000    0.0000000000                    
 INPUT CARD>H      1.0      1.5835000000    0.0745000000    1.7845000000                    
 INPUT CARD>H      1.0      1.6643000000    0.6803000000    0.1265000000                    
 INPUT CARD>H      1.0      3.9327000000    0.0000000000    0.9290000000                    
 INPUT CARD>H      1.0      3.9065000000    1.7417000000    0.6183000000                    
 INPUT CARD>H      1.0      3.8311000000    1.1398000000    2.2789000000                    
   40000000 WORDS OF MEMORY AVAILABLE

     BASIS OPTIONS
     -------------
     GBASIS=N311         IGAUSS=       6      POLAR=POPN311 
     NDFUNC=       1     NFFUNC=       0     DIFFSP=       F
     NPFUNC=       1      DIFFS=       F     BASNAM=        


     RUN TITLE
     ---------
 1-Butene, ID: C106989                                                           

 THE POINT GROUP OF THE MOLECULE IS C1      
 THE ORDER OF THE PRINCIPAL AXIS IS     0

 ATOM      ATOMIC                      COORDINATES (BOHR)
           CHARGE         X                   Y                   Z
 C           6.0     2.5893025484        4.1126106671        3.1095441128
 C           6.0     0.8411170371        5.3726799557        1.8249083863
 C           6.0     3.7384449215        1.7107689367        2.2024756387
 C           6.0     6.5924980808        1.7946727705        2.3678266626
 H           1.0     3.2709267121        4.8002819540        4.9422003757
 H           1.0     0.0000000000        7.1116058096        2.5157922075
 H           1.0     0.1243439700        4.7619205165        0.0000000000
 H           1.0     2.9923811016        0.1407845861        3.3722160251
 H           1.0     3.1450709614        1.2855805894        0.2390503374
 H           1.0     7.4317253919        0.0000000000        1.7555554426
 H           1.0     7.3822145710        3.2913357528        1.1684175782
 H           1.0     7.2397292316        2.1539096808        4.3064965534

          INTERNUCLEAR DISTANCES (ANGS.)




     $CONTRL OPTIONS
     ---------------
 SCFTYP=RHF          RUNTYP=OPTIMIZE     EXETYP=RUN     
 MPLEVL=       0     CITYP =NONE         CCTYP =NONE         VBTYP =NONE    
 DFTTYP=NONE         TDDFT =NONE    
 MULT  =       1     ICHARG=       0     NZVAR =       1     COORD =UNIQUE  
 PP    =NONE         RELWFN=NONE         LOCAL =NONE         NUMGRD=       F
 ISPHER=      -1     NOSYM =       0     MAXIT =     200     UNITS =ANGS    
 PLTORB=       F     MOLPLT=       F     AIMPAC=       F     FRIEND=        
 NPRINT=       7     IREST =       0     GEOM  =INPUT   
 NORMF =       0     NORMP =       0     ITOL  =      20     ICUT  =       9
 INTTYP=BEST         GRDTYP=BEST         QMTTOL= 1.0E-06

     $SYSTEM OPTIONS
     ---------------
  REPLICATED MEMORY=    40000000 WORDS (ON EVERY NODE).
 DISTRIBUTED MEMDDI=           0 MILLION WORDS IN AGGREGATE,
 MEMDDI DISTRIBUTED OVER   1 PROCESSORS IS           0 WORDS/PROCESSOR.
 TOTAL MEMORY REQUESTED ON EACH PROCESSOR=    40000000 WORDS.
 TIMLIM=       10000.00 MINUTES, OR       6.9 DAYS.
 PARALL= F  BALTYP=  DLB     KDIAG=    0  COREFL= F
 MXSEQ2=     300 MXSEQ3=     150  mem10=         0

     $COSGMS OPTIONS
     ---------------
     EPSI  =   INFTY     NSPA  =      92     COSRAD=    1.40
     DISEX =   10.00     OUTCHG=DBLCAV       COSBUG=       F
     COSWRT=       F     DCOSMO=       F

     SYMMETRY COORDINATES WILL NOT BE USED FOR 
     THE COSMO CALCULATION, EVEN IF SPECIFIED:
         -- SWITCHING TO C1 POINT GROUP --


     DEFINITION OF CAVITY
     ---------------------------
     ATOM         COORDINATES           RADIUS 
     1    2.5893    4.1126    3.1095    2.0000
     2    0.8411    5.3727    1.8249    2.0000
     3    3.7384    1.7108    2.2025    2.0000
     4    6.5925    1.7947    2.3678    2.0000
     5    3.2709    4.8003    4.9422    1.3000
     6    0.0000    7.1116    2.5158    1.3000
     7    0.1243    4.7619    0.0000    1.3000
     8    2.9924    0.1408    3.3722    1.3000
     9    3.1451    1.2856    0.2391    1.3000
    10    7.4317    0.0000    1.7556    1.3000
    11    7.3822    3.2913    1.1684    1.3000
    12    7.2397    2.1539    4.3065    1.3000

          ----------------
          PROPERTIES INPUT
          ----------------

     MOMENTS            FIELD           POTENTIAL          DENSITY
 IEMOM =       1   IEFLD =       0   IEPOT =       0   IEDEN =       0
 WHERE =COMASS     WHERE =NUCLEI     WHERE =NUCLEI     WHERE =NUCLEI  
 OUTPUT=BOTH       OUTPUT=BOTH       OUTPUT=BOTH       OUTPUT=BOTH    
 IEMINT=       0   IEFINT=       0                     IEDINT=       0
                                                       MORB  =       0
          EXTRAPOLATION IN EFFECT
          SOSCF IN EFFECT
 ORBITAL PRINTING OPTION: NPREO=     1   124     2     1

     -------------------------------
     INTEGRAL TRANSFORMATION OPTIONS
     -------------------------------
     NWORD  =            0
     CUTOFF = 1.0E-09     MPTRAN =       0
     DIRTRF =       T     AOINTS =DUP     

          ----------------------
          INTEGRAL INPUT OPTIONS
          ----------------------
 NOPK  =       1 NORDER=       0 SCHWRZ=       T


 -----------------------------------------------
  STATISTICS ON AUTOMATIC COORDINATE GENERATION 
 -----------------------------------------------
  NUMBER OF USER SPECIFIED BONDS                             0
  NUMBER OF BONDS                                           11
  NUMBER OF ANGLES                                          18
  NUMBER OF TORSIONS                                        19
  NUMBER OF EXTRA COORD.                                     0
  NUMBER OF EXTRA COORD. FOR CONSTRAINTS                     0
  NUMBER OF CONSTRAINED COORD.                               0

  TOTAL NUMBER OF PRIMITIVES                                48
 -----------------------------------------------

   --- ENCODED Z MATRIX ---
 COORD  TYPE   I   J   K   L   M   N
    1      1    1   3
    2      1    1   5
    3      1    1   2
    4      1    2   7
    5      1    2   6
    6      1    3   8
    7      1    3   4
    8      1    3   9
    9      1    4  12
   10      1    4  11
   11      1    4  10
   12      2    1   2   7
   13      2    1   3   4
   14      2    1   3   9
   15      2    1   3   8
   16      2    1   2   6
   17      2    2   1   5
   18      2    2   1   3
   19      2    3   4  11
   20      2    3   4  12
   21      2    3   4  10
   22      2    3   1   5
   23      2    4   3   9
   24      2    4   3   8
   25      2    6   2   7
   26      2    8   3   9
   27      2   10   4  11
   28      2   10   4  12
   29      2   11   4  12
   30      3    1   3   4  10
   31      3    1   3   4  11
   32      3    1   3   4  12
   33      3    2   1   3   8
   34      3    2   1   3   9
   35      3    2   1   3   4
   36      3    3   1   2   6
   37      3    3   1   2   7
   38      3    4   3   1   5
   39      3    5   1   2   6
   40      3    5   1   2   7
   41      3    5   1   3   8
   42      3    5   1   3   9
   43      3    8   3   4  10
   44      3    8   3   4  12
   45      3    8   3   4  11
   46      3    9   3   4  10
   47      3    9   3   4  12
   48      3    9   3   4  11

          INDEP./SYM. INTERNAL COORDINATES
          --------------------------------
 CRD  1=   0.1045 (  7) -0.1301 ( 12)  0.6539 ( 13) -0.2736 ( 14) -0.1844 ( 15)
           0.1438 ( 16)  0.1247 ( 17) -0.3830 ( 18)  0.1094 ( 19)  0.1079 ( 20)
          -0.1440 ( 21)  0.2580 ( 22) -0.1636 ( 23) -0.1818 ( 24)  0.1145 ( 26)
           0.1143 ( 33)
 CRD  2=  -0.2893 (  1) -0.2415 (  3) -0.2173 (  7) -0.2546 ( 12) -0.2950 ( 13)
           0.1205 ( 15)  0.1570 ( 16)  0.3102 ( 17) -0.5443 ( 18) -0.1461 ( 19)
           0.2344 ( 22)  0.1575 ( 24)  0.1128 ( 30) -0.1516 ( 35)
 CRD  3=   0.1688 (  1)  0.1024 ( 14) -0.3604 ( 19)  0.3918 ( 20) -0.3006 ( 23)
           0.2316 ( 24) -0.1305 ( 28)  0.1083 ( 30) -0.1408 ( 33) -0.1376 ( 34)
          -0.4054 ( 35) -0.1440 ( 37) -0.3586 ( 38) -0.1936 ( 40)
 CRD  4=   0.3048 (  1)  0.3147 (  3)  0.1123 (  5)  0.1081 (  6)  0.4205 (  7)
          -0.1514 ( 13) -0.1558 ( 14)  0.2015 ( 15)  0.2294 ( 16) -0.1146 ( 18)
           0.3889 ( 21)  0.2216 ( 23) -0.1437 ( 25) -0.1601 ( 27) -0.1890 ( 28)
           0.1496 ( 30)  0.1818 ( 31)  0.1247 ( 32)  0.1373 ( 36)  0.1072 ( 37)
 CRD  5=  -0.3734 (  1) -0.2403 (  3) -0.1031 (  5)  0.5275 (  7) -0.2753 ( 15)
          -0.1426 ( 16)  0.1739 ( 19)  0.1252 ( 20)  0.1505 ( 21)  0.2740 ( 24)
           0.1137 ( 25) -0.1668 ( 27) -0.1388 ( 28) -0.1762 ( 29) -0.1082 ( 32)
           0.1444 ( 33) -0.1026 ( 34) -0.1510 ( 42)
 CRD  6=  -0.3100 (  1)  0.4346 (  3)  0.1861 ( 16)  0.4269 ( 17)  0.2577 ( 20)
          -0.2945 ( 21) -0.4667 ( 22) -0.2113 ( 25)  0.1244 ( 27) -0.1213 ( 29)
 CRD  7=  -0.1332 (  1) -0.1023 (  2) -0.1201 (  3)  0.1271 (  4) -0.1700 (  5)
           0.1209 (  9)  0.3023 ( 12) -0.2488 ( 14)  0.2460 ( 15) -0.3621 ( 16)
          -0.1978 ( 17) -0.1211 ( 19)  0.3537 ( 20) -0.1937 ( 21)  0.1888 ( 22)
           0.1693 ( 23) -0.1488 ( 24)  0.1405 ( 27) -0.1051 ( 29)  0.2272 ( 30)
           0.1922 ( 31)  0.2175 ( 32)  0.1389 ( 36)  0.1206 ( 37)  0.1031 ( 38)
 CRD  8=   0.2211 (  1) -0.1003 (  4)  0.1750 (  6)  0.1670 (  7)  0.1664 ( 10)
          -0.1516 ( 11) -0.1439 ( 12) -0.1797 ( 13)  0.1359 ( 14)  0.1273 ( 15)
           0.1067 ( 16) -0.1111 ( 17)  0.5161 ( 19) -0.4476 ( 21)  0.1172 ( 22)
          -0.1059 ( 26)  0.1615 ( 28) -0.2888 ( 29) -0.1006 ( 33) -0.1258 ( 35)
           0.1283 ( 36)
 CRD  9=  -0.1256 (  1)  0.1858 (  3)  0.2010 (  4) -0.1442 (  5)  0.1201 (  6)
          -0.2195 (  8) -0.1522 (  9)  0.1228 ( 10)  0.3099 ( 12) -0.1588 ( 14)
          -0.2056 ( 16)  0.2696 ( 19) -0.3903 ( 20) -0.1041 ( 25) -0.1792 ( 27)
           0.1579 ( 28)  0.1023 ( 31) -0.1953 ( 33) -0.2024 ( 34) -0.2212 ( 35)
          -0.1491 ( 37) -0.1591 ( 38) -0.2142 ( 40) -0.1332 ( 41) -0.1403 ( 42)
 CRD 10=  -0.4463 (  2) -0.1710 (  3) -0.2120 (  4)  0.1884 (  5) -0.2919 ( 12)
          -0.2449 ( 14)  0.1509 ( 15)  0.1704 ( 16)  0.1989 ( 18) -0.1202 ( 22)
           0.2307 ( 23) -0.2589 ( 24)  0.1217 ( 25) -0.1971 ( 33) -0.2023 ( 34)
          -0.2055 ( 37) -0.1047 ( 39) -0.2276 ( 40) -0.1760 ( 41) -0.1812 ( 42)
 CRD 11=  -0.1326 (  1) -0.3590 (  2)  0.1078 (  5)  0.1059 (  6) -0.3796 (  8)
          -0.1066 (  9) -0.1321 ( 12)  0.1150 ( 13)  0.1379 ( 18) -0.1279 ( 20)
          -0.1009 ( 22) -0.2624 ( 23)  0.1182 ( 24)  0.1545 ( 30)  0.1233 ( 31)
           0.1308 ( 32)  0.1242 ( 34) -0.1330 ( 35)  0.3288 ( 36)  0.2850 ( 37)
           0.2466 ( 39)  0.2028 ( 40)  0.1285 ( 41)  0.2025 ( 42)
 CRD 12=   0.1620 (  7)  0.4934 (  9)  0.4999 ( 10)  0.4699 ( 11) -0.1737 ( 19)
          -0.1788 ( 20) -0.1986 ( 21)  0.1994 ( 27)  0.2048 ( 28)  0.1865 ( 29)
 CRD 13=  -0.5737 (  4) -0.5115 (  5)  0.2272 ( 12)  0.2669 ( 16) -0.4941 ( 25)
 CRD 14=   0.1152 (  2) -0.5191 (  6)  0.2062 (  8) -0.1699 ( 24) -0.1273 ( 30)
          -0.1298 ( 31) -0.1211 ( 32) -0.2582 ( 33) -0.1821 ( 34)  0.4639 ( 36)
           0.1910 ( 37)  0.3671 ( 39) -0.1658 ( 41)
 CRD 15=  -0.3246 (  6) -0.3665 (  8) -0.2448 (  9) -0.2503 ( 10)  0.5218 ( 11)
          -0.1050 ( 21) -0.1626 ( 26)  0.1408 ( 27)  0.1406 ( 28) -0.2868 ( 29)
           0.1500 ( 31) -0.1397 ( 32)  0.1007 ( 33) -0.1926 ( 44)  0.1980 ( 48)
 CRD 16=   0.5535 (  9) -0.5515 ( 10) -0.2929 ( 27)  0.2915 ( 28)  0.2282 ( 30)
           0.2197 ( 43)  0.2194 ( 46)
 CRD 17=   0.4574 (  6)  0.4906 (  8) -0.2018 (  9) -0.2069 ( 10)  0.3893 ( 11)
           0.2364 ( 26) -0.1679 ( 29)  0.1005 ( 31) -0.1087 ( 32) -0.1354 ( 33)
          -0.1191 ( 41)  0.1112 ( 42)  0.1922 ( 45) -0.1994 ( 47)
 CRD 18=   0.1460 (  2)  0.3323 (  6) -0.3451 (  8) -0.1139 ( 14)  0.1402 ( 15)
          -0.1756 ( 30) -0.1902 ( 31) -0.1850 ( 32)  0.1301 ( 40) -0.3033 ( 43)
          -0.3127 ( 44) -0.3179 ( 45) -0.2853 ( 46) -0.2947 ( 47) -0.2999 ( 48)
 CRD 19=  -0.2454 (  1)  0.2112 (  3)  0.4634 (  5)  0.1143 (  8) -0.1452 ( 11)
           0.1286 ( 12) -0.1385 ( 14) -0.1467 ( 15)  0.1396 ( 16) -0.3499 ( 17)
           0.3451 ( 22)  0.1412 ( 23)  0.1713 ( 24) -0.2682 ( 25)  0.1114 ( 28)
           0.1090 ( 40) -0.1135 ( 42) -0.1573 ( 46) -0.1896 ( 47) -0.1438 ( 48)
 CRD 20=  -0.2097 (  1)  0.6496 (  2) -0.5200 (  4)  0.2710 (  5) -0.1474 (  8)
          -0.1223 ( 16)  0.1123 ( 18)  0.1552 ( 25)  0.1107 ( 44)  0.1122 ( 45)
 CRD 21=  -0.2176 (  1)  0.1436 (  4)  0.2094 (  5) -0.1801 (  7)  0.2121 (  9)
           0.2028 ( 10)  0.2614 ( 11)  0.1234 ( 12)  0.1500 ( 14)  0.1015 ( 15)
           0.1035 ( 16)  0.2164 ( 19)  0.1995 ( 20)  0.2233 ( 21)  0.1418 ( 22)
          -0.1720 ( 23) -0.1213 ( 24) -0.2268 ( 25)  0.1008 ( 26) -0.2376 ( 27)
          -0.2485 ( 28) -0.1991 ( 29)  0.1692 ( 34) -0.1097 ( 37)  0.1012 ( 38)
          -0.1957 ( 40)  0.2505 ( 42)
 CRD 22=   0.1498 (  7) -0.1339 ( 10) -0.1024 ( 11) -0.1045 ( 20) -0.1004 ( 21)
           0.1379 ( 27)  0.3626 ( 36) -0.3324 ( 37)  0.2734 ( 38)  0.1290 ( 39)
          -0.5660 ( 40)  0.3165 ( 41)  0.2591 ( 42)
 CRD 23=  -0.1554 (  2)  0.5440 (  3) -0.2182 (  4) -0.3073 (  5) -0.1563 (  6)
          -0.2543 (  7)  0.1131 (  8)  0.1950 ( 10) -0.1998 ( 12) -0.1561 ( 16)
          -0.1004 ( 17)  0.1050 ( 22)  0.1057 ( 24)  0.3559 ( 25) -0.1128 ( 27)
          -0.1531 ( 29) -0.1926 ( 47) -0.1152 ( 48)
 CRD 24=  -0.2265 (  2) -0.3803 (  4)  0.3240 (  5) -0.1020 (  6)  0.1556 (  7)
           0.2384 (  8) -0.2147 (  9)  0.2743 ( 12)  0.1619 ( 15) -0.3129 ( 16)
           0.2442 ( 17) -0.1963 ( 18) -0.1019 ( 23) -0.1160 ( 26)  0.1411 ( 29)
          -0.1172 ( 43) -0.1611 ( 44) -0.2739 ( 45)
 CRD 25=  -0.2185 (  1)  0.2209 (  2)  0.1846 (  4) -0.1636 (  5) -0.2521 (  6)
           0.3042 (  7)  0.1038 (  8) -0.2691 (  9)  0.1214 ( 10) -0.1830 ( 12)
           0.1563 ( 15)  0.1975 ( 16) -0.1852 ( 17)  0.1899 ( 18) -0.1199 ( 23)
           0.1073 ( 26)  0.2076 ( 28)  0.2155 ( 30)  0.1337 ( 34) -0.1648 ( 36)
          -0.2543 ( 39)  0.2183 ( 42) -0.1173 ( 44) -0.1468 ( 45) -0.1367 ( 47)
          -0.1662 ( 48)
 CRD 26=   0.3952 (  1) -0.3060 (  3)  0.1702 (  5) -0.1810 (  6) -0.1264 (  7)
           0.2757 ( 10) -0.2432 ( 11)  0.1596 ( 12) -0.2013 ( 14)  0.1983 ( 17)
          -0.1845 ( 22) -0.1162 ( 25)  0.1379 ( 26)  0.1629 ( 28) -0.2263 ( 29)
           0.1407 ( 30)  0.1535 ( 31) -0.1331 ( 32)  0.1624 ( 43) -0.1115 ( 44)
           0.1752 ( 45) -0.3347 ( 47)
 CRD 27=  -0.1531 (  2)  0.1685 (  3)  0.3732 (  7) -0.2147 (  8)  0.1886 (  9)
          -0.1128 ( 10) -0.2449 ( 11)  0.1621 ( 14) -0.1744 ( 18) -0.1399 ( 20)
           0.1601 ( 22) -0.1685 ( 23) -0.1332 ( 24)  0.2234 ( 26)  0.2498 ( 27)
          -0.1799 ( 30)  0.1079 ( 31) -0.1123 ( 32) -0.2452 ( 33)  0.1221 ( 34)
          -0.1117 ( 36) -0.1531 ( 39) -0.2062 ( 41)  0.1611 ( 42)  0.2325 ( 45)
          -0.1496 ( 46)  0.1381 ( 48)
 CRD 28=   0.2417 (  1) -0.1828 (  6) -0.2382 ( 10)  0.2273 ( 11) -0.1201 ( 13)
          -0.1426 ( 14)  0.1833 ( 19) -0.1747 ( 21)  0.1886 ( 24)  0.1527 ( 26)
          -0.1844 ( 28)  0.1627 ( 29)  0.2768 ( 32) -0.1883 ( 35)  0.1654 ( 37)
          -0.2409 ( 39)  0.1382 ( 42)  0.3375 ( 44) -0.3249 ( 46) -0.3093 ( 48)
 CRD 29=  -0.1461 (  1)  0.2792 (  8)  0.2458 (  9) -0.1055 ( 10) -0.1175 ( 11)
           0.1790 ( 13)  0.1374 ( 18) -0.1898 ( 20)  0.1247 ( 21) -0.1086 ( 22)
          -0.1572 ( 23)  0.1172 ( 24) -0.1722 ( 26)  0.1676 ( 27) -0.1024 ( 29)
           0.3020 ( 31)  0.1038 ( 32) -0.2287 ( 35)  0.1273 ( 37) -0.1007 ( 38)
          -0.1534 ( 39)  0.2222 ( 41) -0.3768 ( 43) -0.2159 ( 44) -0.1436 ( 46)
           0.2155 ( 48)
 CRD 30=  -0.1801 (  6) -0.1056 ( 13)  0.1573 ( 15) -0.1045 ( 23)  0.1592 ( 31)
           0.1967 ( 32)  0.2471 ( 33)  0.3934 ( 34)  0.1323 ( 35) -0.4220 ( 37)
          -0.3339 ( 38)  0.4089 ( 39) -0.2191 ( 41) -0.1609 ( 46)

 THE DETERMINANT OF THE G MATRIX IS 10**(    -9)


                     --------------------
                     INTERNAL COORDINATES
                     --------------------

                 - - ATOMS - -         COORDINATE      COORDINATE
 NO.   TYPE    I  J  K  L  M  N        (BOHR,RAD)       (ANG,DEG)
 ----------------------------------------------------------------
   1 STRETCH   1  3                     2.8128536       1.4884981
   2 STRETCH   1  5                     2.0727113       1.0968317
   3 STRETCH   1  2                     2.5088276       1.3276145
   4 STRETCH   2  7                     2.0535533       1.0866937
   5 STRETCH   2  6                     2.0515022       1.0856083
   6 STRETCH   3  8                     2.0951741       1.1087185
   7 STRETCH   3  4                     2.8600700       1.5134840
   8 STRETCH   3  9                     2.0947355       1.1084864
   9 STRETCH   4 12                     2.0751868       1.0981416
  10 STRETCH   4 11                     2.0741828       1.0976104
  11 STRETCH   4 10                     2.0736511       1.0973290
  12 BEND      1  2  7                  2.1518107     123.2896723
  13 BEND      1  3  4                  1.9433339     111.3448327
  14 BEND      1  3  9                  1.9389076     111.0912208
  15 BEND      1  3  8                  1.8905485     108.3204498
  16 BEND      1  2  6                  2.1400230     122.6142836
  17 BEND      2  1  5                  2.1121066     121.0147946
  18 BEND      2  1  3                  2.1512645     123.2583738
  19 BEND      3  4 11                  1.9473010     111.5721309
  20 BEND      3  4 12                  1.9501532     111.7355498
  21 BEND      3  4 10                  1.9405640     111.1861298
  22 BEND      3  1  5                  2.0198039     115.7262368
  23 BEND      4  3  9                  1.9207108     110.0486210
  24 BEND      4  3  8                  1.9230808     110.1844122
  25 BEND      6  2  7                  1.9913510     114.0960096
  26 BEND      8  3  9                  1.8445392     105.6843122
  27 BEND     10  4 11                  1.8751394     107.4375731
  28 BEND     10  4 12                  1.8748962     107.4236393
  29 BEND     11  4 12                  1.8718811     107.2508878
  30 TORSION   1  3  4 10               3.1097312     178.1744754
  31 TORSION   1  3  4 11              -1.0804003     -61.9023786
  32 TORSION   1  3  4 12               1.0150575      58.1585079
  33 TORSION   2  1  3  8              -1.8802145    -107.7283548
  34 TORSION   2  1  3  9               0.1383180       7.9250405
  35 TORSION   2  1  3  4               2.2857593     130.9643593
  36 TORSION   3  1  2  6               3.1285838     179.2546490
  37 TORSION   3  1  2  7              -0.0117593      -0.6737559
  38 TORSION   4  3  1  5              -0.8606935     -49.3141075
  39 TORSION   5  1  2  6              -0.0079000      -0.4526384
  40 TORSION   5  1  2  7               3.1349422     179.6189568
  41 TORSION   5  1  3  8               1.2565180      71.9931784
  42 TORSION   5  1  3  9              -3.0081348    -172.3534263
  43 TORSION   8  3  4 10               1.0116113      57.9610584
  44 TORSION   8  3  4 12              -1.0830625     -62.0549091
  45 TORSION   8  3  4 11               3.1046651     177.8842044
  46 TORSION   9  3  4 10              -1.0156313     -58.1913850
  47 TORSION   9  3  4 12              -3.1103051    -178.2073525
  48 TORSION   9  3  4 11               1.0774225      61.7317610

     ------------------------------------------
     THE POINT GROUP IS C1 , NAXIS= 1, ORDER= 1
     ------------------------------------------

     DIMENSIONS OF THE SYMMETRY SUBSPACES ARE
 A   =  124

 ..... DONE SETTING UP THE RUN .....
 STEP CPU TIME =     0.01 TOTAL CPU TIME =        0.0 (    0.0 MIN)
 TOTAL WALL CLOCK TIME=        0.0 SECONDS, CPU UTILIZATION IS  50.00%


          -----------------------------
          STATIONARY POINT LOCATION RUN
          -----------------------------

 OBTAINING INITIAL HESSIAN, HESS=GUESS   
 DIAGONAL GUESS HESSIAN IN INTERNAL COORDS IS
     1  0.3980     2  0.3418     3  0.5442     4  0.3486     5  0.3493
     6  0.3340     7  0.3791     8  0.3341     9  0.3409    10  0.3413
    11  0.3415    12  0.2369    13  0.2526    14  0.2255    15  0.2254
    16  0.2369    17  0.2362    18  0.2666    19  0.2246    20  0.2246
    21  0.2246    22  0.2262    23  0.2240    24  0.2239    25  0.2038
    26  0.2015    27  0.2027    28  0.2026    29  0.2026    30  0.2500
    31  0.2500    32  0.2500    33  0.2500    34  0.2500    35  0.2500
    36  0.2500    37  0.2500    38  0.2500    39  0.2500    40  0.2500
    41  0.2500    42  0.2500    43  0.2500    44  0.2500    45  0.2500
    46  0.2500    47  0.2500    48  0.2500
 TRANSFORMING HESSIAN TO SYMMETRY COORDINATES

          PARAMETERS CONTROLLING GEOMETRY SEARCH ARE
          METHOD =QA                  UPHESS =BFGS    
          NNEG   =         0          NFRZ   =         3
          NSTEP  =        50          IFOLOW =         1
          HESS   =GUESS               RESTAR =         F
          IHREP  =         0          HSSEND =         F
          NPRT   =         0          NPUN   =         0
          OPTTOL = 5.000E-04          RMIN   = 1.500E-03
          RMAX   = 1.000E-01          RLIM   = 7.000E-02
          DXMAX  = 3.000E-01          PURIFY =         F
          MOVIE  =         F          TRUPD  =         T
          TRMAX  = 5.000E-01          TRMIN  = 5.000E-02
          ITBMAT =         5          STPT   =         F
          STSTEP = 1.000E-02          PROJCT=          F
          FROZEN COORD(S)=   1   2   3


      ***** EQUILIBRIUM GEOMETRY LOCATED *****
            (SUBJECT TO   3 CONSTRAINT(S))
 COORDINATES OF ALL ATOMS ARE (ANGS)
   ATOM   CHARGE       X              Y              Z
 ------------------------------------------------------------
 C           6.0   1.3516876650   2.1773635582   1.6375922628
 C           6.0   0.4419898793   2.8575195263   0.9665601380
 C           6.0   1.9792084182   0.8925242338   1.1726182169
 C           6.0   3.5060521638   0.9456835260   1.2490123888
 H           1.0   1.6970280518   2.5532079595   2.5907493228
 H           1.0   0.0295374014   3.7767359452   1.3454349463
 H           1.0   0.0757165870   2.5111692000   0.0133980804
 H           1.0   1.6280964230   0.0748429569   1.7994940217
 H           1.0   1.6506471115   0.6774640095   0.1596874384
 H           1.0   3.9466375714   0.0179757646   0.8981876881
 H           1.0   3.9023774968   1.7592467595   0.6473925209
 H           1.0   3.8235979306   1.1046452978   2.2760949544


                     --------------------
                     INTERNAL COORDINATES
                     --------------------

                 - - ATOMS - -         COORDINATE      COORDINATE
 NO.   TYPE    I  J  K  L  M  N        (BOHR,RAD)       (ANG,DEG)
 ----------------------------------------------------------------
   1 STRETCH   1  3                     2.8413809       1.5035941
   2 STRETCH   1  5                     2.0432014       1.0812157
   3 STRETCH   1  2                     2.4930395       1.3192598
   4 STRETCH   2  7                     2.0376054       1.0782544
   5 STRETCH   2  6                     2.0340879       1.0763930
   6 STRETCH   3  8                     2.0569870       1.0885107
   7 STRETCH   3  4                     2.8906717       1.5296777
   8 STRETCH   3  9                     2.0529698       1.0863849
   9 STRETCH   4 12                     2.0536399       1.0867395
  10 STRETCH   4 11                     2.0535552       1.0866947
  11 STRETCH   4 10                     2.0508840       1.0852811
  12 BEND      1  2  7                  2.1156152     121.2158192
  13 BEND      1  3  4                  1.9513494     111.8040870
  14 BEND      1  3  9                  1.9084467     109.3459424
  15 BEND      1  3  8                  1.9062419     109.2196150
  16 BEND      1  2  6                  2.1240563     121.6994613
  17 BEND      2  1  5                  2.0822295     119.3029626
  18 BEND      2  1  3                  2.1785685     124.8227831
  19 BEND      3  4 11                  1.9416381     111.2476691
  20 BEND      3  4 12                  1.9219084     110.1172381
  21 BEND      3  4 10                  1.9383805     111.0610218
  22 BEND      3  1  5                  2.0223388     115.8714759
  23 BEND      4  3  9                  1.9340519     110.8130131
  24 BEND      4  3  8                  1.8957958     108.6210993
  25 BEND      6  2  7                  2.0435024     117.0840641
  26 BEND      8  3  9                  1.8657586     106.9000920
  27 BEND     10  4 11                  1.8890822     108.2364388
  28 BEND     10  4 12                  1.8880148     108.1752806
  29 BEND     11  4 12                  1.8829988     107.8878838
  30 TORSION   1  3  4 10              -3.1280932    -179.2265360
  31 TORSION   1  3  4 11              -1.0226555     -58.5938463
  32 TORSION   1  3  4 12               1.0641296      60.9701376
  33 TORSION   2  1  3  8              -1.9263031    -110.3690391
  34 TORSION   2  1  3  9               0.1097872       6.2903441
  35 TORSION   2  1  3  4               2.2582337     129.3872599
  36 TORSION   3  1  2  6              -3.1357487    -179.6651637
  37 TORSION   3  1  2  7               0.0111349       0.6379840
  38 TORSION   4  3  1  5              -0.8726586     -49.9996533
  39 TORSION   5  1  2  6              -0.0051967      -0.2977476
  40 TORSION   5  1  2  7              -3.1414984    -179.9945999
  41 TORSION   5  1  3  8               1.2259899      70.2440478
  42 TORSION   5  1  3  9              -3.0211051    -173.0965691
  43 TORSION   8  3  4 10               1.0503451      60.1803394
  44 TORSION   8  3  4 12              -1.0406174     -59.6229870
  45 TORSION   8  3  4 11              -3.1274026    -179.1869709
  46 TORSION   9  3  4 10              -0.9942384     -56.9656639
  47 TORSION   9  3  4 12              -3.0852009    -176.7689902
  48 TORSION   9  3  4 11               1.1111992      63.6670259

          INTERNUCLEAR DISTANCES (ANGS.)


 =====================================================
   GAMESS/COSab RESULTS
 =====================================================

   Dielectric Constant                  = INFTY
   Basic Grid Size                      =                 1082
   Number of Segments                   =                   92
   Number of Segments located on spheres=                  198
   Number of Segments of the cavity     =                  464
   Solvent Radius (rsolv)               = 1.40
   Outlying Charge Error Method         = double cavity

 =====================================================

  Total solvated Energy (a.u.)          =  -156.1499009983
  Total Energy corrected (a.u.)         =  -156.1498677239

  Outlying charge effect (a.u.)         =     0.0000332744
  Outlying charge effect (kcal/mol)     =     0.0208800174

  Dielectric Energy (a.u.)              =    -0.0030701496
  Dielectric energy corr. (a.u.)        =    -0.0030368752

  Sum of polarization charges           =     0.0229155202
  Sum of polarization charges(cor.)     =    -0.0229155202

  Total surface area of cavity (A**2)   =  112.00
  Total volume of cavity (A**3)         =   96.56

 =====================================================
 NPS=                   464
NR.  ATOM  (X, Y, Z)(a.u.)                  CHARGE(e)  AREA(A**2) SIGMA(e/A**2)
   1   1   4.261430   7.456805   3.541594   0.002067   0.278737   0.007414
   2   1   0.671910   2.871243   6.126884   0.001301   0.371649   0.003500
   3   1   1.580647   3.189514   6.627352   0.000630   0.278737   0.002259
   4   1   0.940579   5.918683   5.997248   0.000217   0.092912   0.002339
   5   1   3.728891   7.482769   4.343667   0.000742   0.278737   0.002663
   6   1   5.394294   6.588486   3.408905   0.000586   0.139368   0.004207
   7   1   4.908551   7.067463   3.244800   0.001113   0.185824   0.005987
   8   1   0.658560   5.109345   6.209209   0.001244   0.278737   0.004464
   9   1   0.147293   4.094531   6.008360   0.002165   0.371649   0.005824
  10   1   1.659441   2.349441   6.314467   0.000412   0.232280   0.001774
  11   1   2.564905   2.310032   6.415378   0.000105   0.185824   0.000565
  12   1   4.767644   6.502035   1.174774   0.000780   0.046456   0.016785
  13   1   4.627327   7.201905   2.419637   0.000947   0.185824   0.005094
  14   1  -0.237531   2.824219   5.291106   0.004335   0.511017   0.008482
  15   1   0.598325   1.975469   5.519952   0.000884   0.325193   0.002719
  16   1   1.007952   4.079602   6.543035   0.001040   0.278737   0.003730
  17   1   5.167118   6.671662   4.053280   0.000663   0.232280   0.002856
  18   1   3.050539   2.674995   6.553714  -0.000304   0.185824  -0.001634
  19   1  -0.262040   1.867103   4.235221   0.002658   0.418105   0.006356
  20   1   5.012421   6.836882   2.182843   0.001040   0.139368   0.007466
  21   2   3.217168   6.077833  -1.028487   0.002613   0.325193   0.008035
  22   2  -1.825199   2.837885   1.025098   0.001770   0.371649   0.004763
  23   2   3.167219   8.317171   2.405994   0.002073   0.325193   0.006374
  24   2   0.919188   8.256357  -0.646925   0.001052   0.418105   0.002516
  25   2  -2.596488   6.246737   0.488475   0.000390   0.278737   0.001399
  26   2  -2.192071   5.040873   4.060522   0.002309   0.371649   0.006213
  27   2  -1.188118   2.379240   0.794167   0.000560   0.139368   0.004016
  28   2  -2.070789   6.085291   4.143750   0.001484   0.325193   0.004562
  29   2  -2.313372   7.289952   0.933070   0.000219   0.371649   0.000590
  30   2   0.340314   8.782419   0.214697   0.000776   0.418105   0.001857
  31   2   2.396696   8.772417   2.513827   0.001411   0.278737   0.005063
  32   2   0.537144   7.135549   5.170626  -0.000070   0.092912  -0.000756
  33   2   2.631659   5.254830  -1.495532   0.001314   0.232280   0.005659
  34   2   2.311453   6.050479  -1.591340   0.001442   0.278737   0.005173
  35   2  -1.418583   2.376295   2.075993   0.002948   0.371649   0.007932
  36   2   2.449829   8.380519   3.497874   0.000773   0.185824   0.004161
  37   2   2.762071   8.627642   1.434876   0.002145   0.325193   0.006597
  38   2   1.805554   8.662942   0.184752   0.001926   0.464561   0.004145
  39   2  -0.454309   8.018791  -0.574061   0.000606   0.371649   0.001630
  40   2  -1.700083   7.307935  -0.226728   0.000441   0.371649   0.001186
  41   2  -2.865277   6.134270   1.600356   0.001301   0.603929   0.002154
  42   2  -2.737471   5.529639   3.052562   0.001813   0.464561   0.003904
  43   2  -1.257097   5.421488   4.973895   0.003145   0.371649   0.008462
  44   2  -0.251994   6.484842   5.279806   0.000458   0.185824   0.002463
  45   2   3.544727   7.946599   1.150237   0.003458   0.325193   0.010633
  46   2   3.706344   7.166908   0.118086   0.004203   0.371649   0.011310
  47   2   2.964498   7.044929  -0.827612   0.002287   0.371649   0.006155
  48   2   1.915101   7.746922  -0.932046   0.001795   0.464561   0.003863
  49   2   0.287860   7.501293  -1.266828   0.000744   0.371649   0.002001
  50   2   1.005350   6.837257  -1.664800   0.000602   0.232280   0.002591
  51   2  -2.121332   6.504136  -0.252807   0.000139   0.278737   0.000500
  52   2  -2.673339   5.133553   0.446974   0.000704   0.418105   0.001684
  53   2  -2.491864   3.852751   0.920494   0.001352   0.371649   0.003639
  54   2  -2.260672   3.266464   2.211168   0.003071   0.511017   0.006009
  55   2  -2.405624   4.110981   3.282444   0.003094   0.511017   0.006055
  56   2  -1.579352   4.161547   4.457200   0.003470   0.418105   0.008300
  57   2  -2.665650   6.469791   2.766419   0.000577   0.278737   0.002068
  58   2  -1.141465   8.102718   0.073883   0.000218   0.325193   0.000672
  59   2   1.801299   8.993143   1.163407   0.001386   0.325193   0.004261
  60   2   2.044161   8.140443   4.131372   0.000103   0.092912   0.001112
  61   2  -1.052651   6.229323   4.993896   0.001097   0.232280   0.004721
  62   2   1.841143   6.751605  -1.556571   0.001392   0.325193   0.004280
  63   2  -1.660429   3.052420   3.421876   0.004730   0.418105   0.011314
  64   2   2.946602   8.039347   0.135425   0.002970   0.464561   0.006393
  65   2  -0.833743   7.109815  -1.101782   0.000088   0.232280   0.000381
  66   2  -2.861968   4.617951   1.885039   0.001961   0.603929   0.003248
  67   3   0.237999   0.286296   1.974569   0.000447   0.232280   0.001923
  68   3   2.865658  -1.629241   0.627034   0.001113   0.325193   0.003422
  69   3   4.372336   3.563733  -1.002926   0.000012   0.046456   0.000255
  70   3   2.500100  -1.808761   1.488713   0.000896   0.278737   0.003214
  71   3   0.386660  -0.004120   2.639883   0.000536   0.325193   0.001647
  72   3   4.244054   0.696681   5.828461  -0.000010   0.139368  -0.000072
  73   3   0.663799  -0.250291   1.182165   0.001147   0.325193   0.003529
  74   3   1.726997  -1.230369   0.903440   0.001379   0.325193   0.004241
  75   3   3.763509  -1.958375   1.217064   0.000823   0.371649   0.002213
  76   3   4.496885  -1.954423   1.541813   0.000189   0.139368   0.001359
  77   3   0.468873   0.440219   0.791342   0.000195   0.139368   0.001398
  78   3   4.047409  -1.436436   0.109658   0.000579   0.325193   0.001779
  79   3   4.482495   3.102299  -1.208836   0.000032   0.092912   0.000341
  80   3   4.248153  -2.057974   2.280960   0.000133   0.185824   0.000717
  81   3   1.065915  -0.904054   1.566998   0.001037   0.278737   0.003720
  82   3   3.767123   0.975649   5.927812   0.000024   0.046456   0.000526
  83   4   9.230350   4.323939   3.391423   0.002046   0.418105   0.004893
  84   4   6.599244  -1.318167   4.514597   0.000728   0.278737   0.002613
  85   4   6.664882   0.949482  -1.324957   0.000690   0.278737   0.002475
  86   4   9.802991   1.923548   0.318492   0.001707   0.418105   0.004082
  87   4   9.805350   0.720305   4.102308   0.001347   0.371649   0.003625
  88   4   7.624316   5.144122   3.780461   0.001503   0.371649   0.004045
  89   4   9.624466  -0.195067   3.527069   0.001432   0.371649   0.003853
  90   4   9.643333   0.974337   0.235167   0.001015   0.278737   0.003640
  91   4   7.443915   0.563191  -1.120573   0.000895   0.278737   0.003213
  92   4   7.173450  -1.626648   3.886868   0.000525   0.185824   0.002824
  93   4   8.290478   5.077126   3.189531   0.000885   0.232280   0.003812
  94   4   8.442921   4.588102   4.131012   0.001176   0.278737   0.004217
  95   4   6.399014  -0.023777  -0.949345   0.000472   0.232280   0.002032
  96   4   7.749374   1.715571  -1.247465   0.001289   0.325193   0.003965
  97   4   8.944020   1.658183  -0.621637   0.001639   0.325193   0.005040
  98   4  10.271909   1.371658   1.457447   0.001300   0.464561   0.002799
  99   4  10.276485   1.044892   2.995506   0.001201   0.464561   0.002584
 100   4   8.917835  -0.326395   4.496306   0.001820   0.371649   0.004898
 101   4   7.357093  -1.025322   4.776777   0.000808   0.232280   0.003478
 102   4   6.415750  -0.521483   5.345397   0.000947   0.371649   0.002548
 103   4   6.709559   2.032254  -1.410253   0.000869   0.325193   0.002672
 104   4  10.182749   2.677459   1.445291   0.001108   0.418105   0.002650
 105   4   9.974177   3.521998   2.606229   0.001312   0.418105   0.003139
 106   4   9.829822   3.255417   3.724256   0.001485   0.464561   0.003197
 107   4  10.068177   1.884337   3.916757   0.000841   0.325193   0.002587
 108   4  10.182856   0.525988   2.163103   0.000663   0.278737   0.002379
 109   4   8.377261   1.001641  -0.895241   0.001197   0.278737   0.004294
 110   4   6.323620  -1.772566   3.594011   0.000452   0.232280   0.001946
 111   4   8.229965  -1.127310   4.153666   0.001361   0.325193   0.004186
 112   4   5.744564   0.208899   5.679578   0.000064   0.092912   0.000692
 113   4   6.234445   2.797200  -1.260614   0.000252   0.139368   0.001811
 114   4  10.363163   2.265837   2.651313   0.000979   0.464561   0.002108
 115   4   7.813444  -0.555401   5.077972   0.000924   0.232280   0.003977
 116   5   3.730226   5.848275   7.066959  -0.003573   0.471065  -0.007585
 117   5   3.917562   3.910803   7.062501  -0.002021   0.294415  -0.006866
 118   5   2.400504   4.604696   7.205856  -0.001421   0.353299  -0.004022
 119   5   2.435343   6.598350   6.410587  -0.002008   0.353299  -0.005684
 120   5   4.307370   6.911192   5.582375  -0.001560   0.412182  -0.003784
 121   5   4.548941   5.100548   6.934944  -0.003407   0.412182  -0.008267
 122   5   3.302761   4.381211   7.310156  -0.002285   0.392554  -0.005820
 123   5   2.368683   5.684896   7.038895  -0.002612   0.471065  -0.005545
 124   5   3.456945   6.859342   6.249884  -0.002891   0.471065  -0.006136
 125   5   4.962945   6.123271   6.020809  -0.003336   0.490692  -0.006798
 126   6  -0.896585   9.201143   3.473793  -0.004961   0.608459  -0.008154
 127   6   0.977129   9.238243   3.420602  -0.001829   0.412182  -0.004437
 128   6  -0.102399   8.092444   4.800189  -0.001631   0.353299  -0.004617
 129   6  -1.937308   7.689791   3.867986  -0.001408   0.353299  -0.003987
 130   6  -1.871683   8.517664   1.899401  -0.001638   0.333671  -0.004910
 131   6  -0.162171   9.365546   1.531972  -0.001292   0.333671  -0.003873
 132   6   0.362466   8.860669   4.265872  -0.003060   0.490692  -0.006236
 133   6  -1.159255   8.101521   4.447323  -0.002819   0.490692  -0.005745
 134   6  -2.064028   8.307495   2.956321  -0.003045   0.510320  -0.005967
 135   6  -1.112599   9.225938   1.989129  -0.003169   0.490692  -0.006458
 136   6   0.336748   9.577423   2.565135  -0.003264   0.549575  -0.005940
 137   7  -0.726352   4.464398  -2.255080  -0.003445   0.451437  -0.007631
 138   7  -1.195898   2.852631  -0.786842  -0.002115   0.412182  -0.005131
 139   7   0.701668   5.175752  -2.327957  -0.001653   0.392554  -0.004211
 140   7  -1.326791   5.653306  -1.721191  -0.001879   0.372926  -0.005038
 141   7  -2.067270   3.968075  -0.713039  -0.001493   0.392554  -0.003804
 142   7  -0.355270   3.314810  -1.908622  -0.003327   0.412182  -0.008071
 143   7   0.739678   4.203257  -2.295297  -0.003025   0.431809  -0.007005
 144   7  -0.294780   5.701196  -2.195011  -0.002109   0.412182  -0.005116
 145   7  -1.876060   4.908173  -1.364524  -0.002338   0.412182  -0.005671
 146   7  -1.398391   3.663692  -1.552285  -0.002535   0.372926  -0.006797
 147   8   2.243788  -1.729904   4.756862  -0.003175   0.549575  -0.005778
 148   8   1.959395  -0.333279   5.536327  -0.001299   0.333671  -0.003892
 149   8   3.684689  -0.668757   5.638636  -0.001115   0.353299  -0.003156
 150   8   3.803551  -2.151890   3.897944  -0.001386   0.372926  -0.003716
 151   8   2.075376  -2.049117   2.916765  -0.000906   0.372926  -0.002429
 152   8   0.810609  -0.704258   3.830661  -0.000871   0.353299  -0.002466
 153   8   2.785189  -0.550309   5.739716  -0.001615   0.412182  -0.003917
 154   8   3.570677  -1.695647   4.954967  -0.002073   0.471065  -0.004400
 155   8   2.906552  -2.305730   3.533112  -0.001633   0.431809  -0.003782
 156   8   1.384101  -1.629910   3.581509  -0.001794   0.471065  -0.003809
 157   8   1.260012  -0.716082   4.814637  -0.001783   0.471065  -0.003785
 158   9   2.581556   0.377278  -1.918739  -0.001907   0.353299  -0.005396
 159   9   4.019038   1.231469  -1.983653  -0.001155   0.314043  -0.003676
 160   9   3.629142   2.296527  -1.875911  -0.001034   0.274788  -0.003763
 161   9   1.570605  -0.410058  -0.581216  -0.000565   0.314043  -0.001799
 162   9   3.565158  -0.638220  -1.166508  -0.000968   0.353299  -0.002740
 163   9   3.076673   1.582193  -2.135878  -0.001508   0.294415  -0.005120
 164   9   2.101747   1.168515  -1.931453  -0.001993   0.314043  -0.006345
 165   9   1.286433   0.418272  -1.088499  -0.002155   0.431809  -0.004992
 166   9   2.411365  -0.559439  -1.164379  -0.001654   0.451437  -0.003664
 167   9   3.748843   0.201630  -1.813738  -0.001707   0.451437  -0.003780
 168  10   8.517024  -2.055839   0.958107  -0.003678   0.608459  -0.006045
 169  10   6.868999  -2.262746   1.054512  -0.001364   0.353299  -0.003860
 170  10   7.877453  -2.122268   2.797261  -0.000761   0.333671  -0.002280
 171  10   9.539981  -1.163835   2.213100  -0.000871   0.353299  -0.002465
 172  10   9.291760  -0.485916   0.147347  -0.000866   0.372926  -0.002322
 173  10   7.419908  -1.036051  -0.513722  -0.000819   0.353299  -0.002317
 174  10   7.264652  -2.400289   1.965804  -0.001852   0.490692  -0.003775
 175  10   8.804674  -1.890920   2.416052  -0.001833   0.490692  -0.003736
 176  10   9.600183  -1.018788   1.115792  -0.001980   0.510320  -0.003880
 177  10   8.507810  -1.079591  -0.224435  -0.001970   0.490692  -0.004015
 178  10   7.227677  -1.865527   0.156560  -0.001994   0.490692  -0.004064
 179  11   8.476779   5.037462  -0.149777  -0.002774   0.510320  -0.005435
 180  11   8.081689   5.611665   1.774473  -0.000889   0.353299  -0.002516
 181  11   6.896415   4.220830  -1.013378  -0.001206   0.353299  -0.003413
 182  11   8.712317   3.407537  -0.835296  -0.000768   0.372926  -0.002059
 183  11   9.647125   4.164961   0.819035  -0.000965   0.412182  -0.002341
 184  11   7.724602   5.712812   0.766926  -0.002243   0.471065  -0.004762
 185  11   7.167969   5.243670  -0.296207  -0.002461   0.451437  -0.005452
 186  11   7.852372   4.039443  -1.077794  -0.001611   0.451437  -0.003568
 187  11   9.278117   3.976618  -0.185768  -0.001619   0.451437  -0.003586
 188  11   9.075683   5.094528   1.311441  -0.001762   0.549575  -0.003206
 189  12   8.204761   2.259916   6.547643  -0.002461   0.451437  -0.005452
 190  12   7.849507   4.051763   5.638132  -0.001192   0.333671  -0.003572
 191  12   9.198293   3.127586   5.331521  -0.000800   0.353299  -0.002264
 192  12   8.891659   1.000219   5.742387  -0.000794   0.372926  -0.002128
 193  12   6.936614   0.757648   6.346475  -0.000962   0.392554  -0.002449
 194  12   7.360145   3.011209   6.573581  -0.002473   0.412182  -0.005999
 195  12   8.484510   3.529943   5.840494  -0.001498   0.392554  -0.003817
 196  12   9.239127   2.101930   5.708461  -0.001649   0.471065  -0.003500
 197  12   8.024482   0.949028   6.326223  -0.001724   0.471065  -0.003661
 198  12   6.688816   1.803413   6.681604  -0.002530   0.510320  -0.004958
 199   1  -0.329983   1.658273   2.962147   0.000511   0.046247   0.011041
 200   2  -0.598728   1.907591   2.737582   0.000756   0.046247   0.016356
 201   3  -0.087282   1.262156   2.804783   0.000266   0.046247   0.005759
 202   1   1.372442   6.620045   5.668426  -0.000049   0.010333  -0.004765
 203   2   1.084891   6.819438   5.419793  -0.000021   0.010333  -0.002011
 204   5   1.613567   6.568827   5.839612  -0.000073   0.010333  -0.007040
 205   1   2.486388   7.406001   4.954918  -0.000045   0.010333  -0.004397
 206   2   2.185852   7.596233   4.714601  -0.000020   0.010333  -0.001952
 207   5   2.627582   7.284276   5.190112  -0.000053   0.010333  -0.005116
 208   1   4.897334   6.189071   0.923605   0.000895   0.070281   0.012737
 209   2   4.550695   6.361451   0.738864   0.001269   0.070281   0.018051
 210  11   5.747207   5.701066   0.744078   0.000373   0.070281   0.005300
 211   2   2.329640   7.924056   4.203927   0.000190   0.178131   0.001068
 212   2   3.428646   7.856299   2.645350   0.003291   0.363122   0.009063
 213   2   4.091052   7.129011   1.010164   0.002645   0.178131   0.014850
 214   1   3.196829   7.623286   3.935083   0.001073   0.363122   0.002956
 215   1   4.294563   7.127804   1.944689   0.004582   0.363122   0.012617
 216   2  -1.025616   2.405142   3.158615   0.002276   0.190174   0.011968
 217   2  -0.987667   3.853368   4.575088   0.005288   0.389849   0.013565
 218   2   0.029206   5.962308   5.334152   0.001544   0.389849   0.003959
 219   1  -0.627221   2.615872   4.043761   0.005077   0.389849   0.013022
 220   1  -0.186403   4.589545   5.446663   0.003702   0.389849   0.009495
 221   1   0.897519   6.283384   5.694085   0.000112   0.190174   0.000590
 222   1   2.819737   1.556400   6.004547  -0.000054   0.028029  -0.001921
 223   3   3.022405   1.124528   5.891868  -0.000070   0.028029  -0.002509
 224   8   2.924627   0.840994   5.842259  -0.000083   0.028029  -0.002977
 225   1   0.306068   1.068523   3.960276   0.000107   0.028029   0.003816
 226   3   0.476708   0.630435   3.821549   0.000023   0.028029   0.000832
 227   8   0.606295   0.391030   3.956848  -0.000035   0.028029  -0.001260
 228   1   4.242400   2.238010   6.083774  -0.000467   0.102943  -0.004536
 229   3   4.451553   1.806712   5.968949  -0.000325   0.102943  -0.003157
 230  12   5.191562   1.918255   6.070268  -0.000356   0.102943  -0.003458
 231   3   3.690628   1.541712   6.007496  -0.000309   0.190217  -0.001623
 232   1   3.188017   2.044818   6.211287  -0.000298   0.190217  -0.001565
 233   3   0.237453   0.795847   3.408173   0.000366   0.163188   0.002241
 234   1  -0.121650   1.430812   3.441277   0.000838   0.163188   0.005132
 235   1   5.715758   5.757345   4.462653  -0.000078   0.063819  -0.001217
 236   4   6.379320   5.288683   4.301641   0.000017   0.063819   0.000269
 237   5   5.610958   5.748479   4.745627  -0.000225   0.063819  -0.003518
 238   1   6.121608   5.917312   2.755169   0.000210   0.064601   0.003250
 239   4   6.871090   5.585775   2.635682   0.000072   0.064601   0.001120
 240  11   6.984585   5.610615   2.354173  -0.000042   0.064601  -0.000648
 241   4   6.857578   5.516122   3.347475   0.000721   0.400465   0.001799
 242   1   5.845063   6.010939   3.808115   0.000512   0.400465   0.001279
 243   1   4.217574   2.743207   6.278501  -0.000429   0.087398  -0.004913
 244   5   4.264224   3.014640   6.405982  -0.000537   0.087398  -0.006143
 245  12   5.165304   2.437452   6.191460  -0.000319   0.087398  -0.003651
 246   5   5.180389   6.279194   4.962150  -0.000248   0.073609  -0.003374
 247   5   4.224386   6.984053   5.030574  -0.000644   0.166382  -0.003868
 248   5   3.102767   7.234767   5.338082  -0.000278   0.073609  -0.003783
 249   1   4.873668   6.630319   4.559100  -0.000354   0.158597  -0.002234
 250   1   3.431412   7.293665   4.820066  -0.000569   0.158597  -0.003587
 251   5   1.731736   6.287040   6.208523  -0.000296   0.067126  -0.004403
 252   5   1.619135   5.291366   6.641935  -0.000531   0.148620  -0.003573
 253   5   2.130574   4.106476   6.923866  -0.000617   0.148620  -0.004151
 254   5   3.225324   3.375161   6.815605  -0.000811   0.148620  -0.005459
 255   1   1.314119   5.875170   6.146517  -0.000451   0.147500  -0.003060
 256   1   1.453233   4.484043   6.644667  -0.000316   0.147500  -0.002145
 257   1   2.404351   3.349346   6.747507  -0.000427   0.147500  -0.002894
 258   1   3.491675   2.872522   6.541585  -0.000367   0.082009  -0.004472
 259   8   2.490541   0.604233   5.763386  -0.000598   0.217287  -0.002752
 260   8   1.224311   0.367429   4.849943  -0.001898   0.448322  -0.004233
 261   1   1.671578   1.536395   5.685753  -0.000117   0.592149  -0.000197
 262   1   0.347448   1.271237   4.502948   0.000821   0.306295   0.002681
 263  11   6.603561   5.755141   0.888024  -0.000324   0.252385  -0.001285
 264  11   6.996940   5.779368   1.891118  -0.000105   0.252385  -0.000414
 265   1   5.532895   6.306404   1.873562   0.003246   0.705523   0.004601
 266  12   5.590096   2.002503   6.331952  -0.000088   0.042346  -0.002071
 267   1   4.184236   2.450384   6.354069   0.000126   0.060160   0.002092
 268   2  -0.414465   2.113958   0.341534   0.000103   0.063469   0.001626
 269   3   0.148612   1.519022   0.442079   0.000066   0.063469   0.001035
 270   7  -0.432876   2.232567   0.066088  -0.000170   0.063469  -0.002678
 271   2   3.114590   4.081529  -1.176736   0.000251   0.070045   0.003584
 272   3   3.645734   3.449275  -1.176659  -0.000027   0.070045  -0.000388
 273   9   3.487306   3.230339  -1.317956  -0.000156   0.070045  -0.002225
 274   2   4.077187   4.704811  -0.580694   0.001151   0.164012   0.007017
 275   3   4.627723   4.088629  -0.621246   0.000269   0.164012   0.001640
 276  11   5.364668   4.242732  -0.504877   0.000064   0.164012   0.000391
 277   3  -0.081900   0.967657   2.294030   0.000906   0.309476   0.002926
 278   3   0.124550   0.989471   0.961939   0.000547   0.309476   0.001768
 279   2  -0.673011   1.926696   1.535901   0.003083   0.620520   0.004969
 280   3   3.979018   3.791993  -1.067546   0.000496   0.229598   0.002162
 281   2   3.369927   4.814168  -1.089487   0.001431   0.229598   0.006234
 282   5   2.528072   7.163827   5.477281  -0.000509   0.127438  -0.003993
 283   2   1.737725   7.612672   4.891368  -0.000092   0.180173  -0.000512
 284   5   1.980927   6.798994   5.831714  -0.000535   0.122957  -0.004352
 285   2   1.123169   7.159093   5.281263  -0.000004   0.173844  -0.000026
 286   6   1.051390   8.175125   4.533333  -0.000314   0.067534  -0.004656
 287   6   1.471140   8.720262   3.667667  -0.000602   0.150184  -0.004008
 288   6   1.328698   9.171693   2.417336  -0.000395   0.150184  -0.002631
 289   6   0.468748   9.207502   1.394296  -0.000554   0.150184  -0.003690
 290   6  -0.753059   8.812879   1.021648  -0.000741   0.150184  -0.004934
 291   6  -1.831418   8.151030   1.453508  -0.000834   0.150184  -0.005553
 292   6  -2.320350   7.495676   2.511272  -0.000633   0.150184  -0.004212
 293   6  -2.017647   7.117854   3.757477  -0.000532   0.150184  -0.003544
 294   6  -1.048497   7.173820   4.676728  -0.000431   0.150184  -0.002872
 295   6   0.186285   7.640428   4.888849  -0.000741   0.150184  -0.004935
 296   2   1.570512   8.140083   4.252742  -0.000602   0.147722  -0.004077
 297   2   1.862088   8.811451   2.941279  -0.000144   0.147722  -0.000977
 298   2   1.267475   9.100479   1.592730  -0.000159   0.147722  -0.001077
 299   2   0.032590   8.887633   0.764816  -0.000462   0.147722  -0.003124
 300   2  -1.331854   8.260940   0.799941  -0.000596   0.147722  -0.004033
 301   2  -2.261562   7.479583   1.683576  -0.000546   0.147722  -0.003695
 302   2  -2.372031   6.866710   3.050276  -0.000292   0.147722  -0.001975
 303   2  -1.617576   6.675787   4.334811  -0.000127   0.147722  -0.000862
 304   2  -0.310217   6.985775   5.005934  -0.000330   0.147722  -0.002235
 305   2   0.797716   7.496544   4.972819  -0.000287   0.082508  -0.003481
 306   2   2.238763   4.170084  -1.530337   0.000007   0.081519   0.000089
 307   7   1.974337   4.088254  -1.650623  -0.000243   0.081519  -0.002986
 308   9   2.609270   3.306960  -1.518630  -0.000080   0.081519  -0.000977
 309   7  -1.011298   2.581775  -0.103944  -0.000193   0.068407  -0.002823
 310   7  -1.814028   3.356730  -0.077073  -0.000529   0.152355  -0.003470
 311   7  -2.221203   4.607640  -0.375151  -0.000652   0.152355  -0.004281
 312   7  -1.805627   5.754189  -0.951467  -0.000714   0.152355  -0.004684
 313   7  -0.742087   6.314152  -1.563628  -0.000794   0.152355  -0.005211
 314   7   0.522105   6.052015  -1.954168  -0.000586   0.152355  -0.003846
 315   7   1.455244   5.078029  -1.958829  -0.000476   0.152355  -0.003122
 316   2  -1.364097   2.782116   0.331002  -0.000217   0.149431  -0.001454
 317   2  -2.234424   4.017125   0.216678  -0.000334   0.149431  -0.002232
 318   2  -2.229436   5.440584  -0.302481  -0.000558   0.149431  -0.003734
 319   2  -1.351231   6.453802  -1.008123  -0.000604   0.149431  -0.004042
 320   2   0.030828   6.630632  -1.603464  -0.000413   0.149431  -0.002765
 321   2   1.335463   5.896701  -1.838109  -0.000201   0.149431  -0.001345
 322   2   2.013686   4.874415  -1.727262   0.000015   0.083574   0.000185
 323   9   3.178202   3.015162  -1.604253  -0.000192   0.139678  -0.001376
 324   2   2.735209   4.329299  -1.492451   0.000634   0.197334   0.003210
 325  11   5.949072   4.722906  -0.549405  -0.000006   0.337337  -0.000017
 326  11   6.268313   5.517797   0.176525   0.000017   0.337337   0.000051
 327   2   4.257135   5.913512  -0.240692   0.008301   1.002025   0.008284
 328   3   4.598959   0.227107   5.604146  -0.000042   0.029019  -0.001433
 329   4   5.096538   0.258947   5.589738   0.000005   0.029019   0.000177
 330   8   4.394263   0.004365   5.573919  -0.000065   0.029019  -0.002224
 331   3   4.802760  -1.866238   2.987810  -0.000033   0.029019  -0.001136
 332   4   5.297718  -1.807480   3.007045   0.000016   0.029019   0.000552
 333   8   4.579847  -1.901863   3.191448  -0.000062   0.029019  -0.002140
 334   3   4.929027  -0.440326  -0.682545  -0.000023   0.026121  -0.000861
 335   4   5.422311  -0.395472  -0.624397   0.000009   0.026121   0.000340
 336   9   4.704164  -0.341525  -0.859792  -0.000060   0.026121  -0.002311
 337   3   4.855219   2.560476  -1.295688   0.000004   0.026121   0.000166
 338   4   5.349486   2.565344  -1.229370   0.000048   0.026121   0.001830
 339   9   4.636989   2.389603  -1.417834  -0.000038   0.026121  -0.001444
 340   3   5.280905  -1.874860   2.467315   0.000020   0.025695   0.000770
 341   4   5.778064  -1.900822   2.496817  -0.000007   0.025695  -0.000290
 342  10   6.020815  -1.972139   2.331283  -0.000036   0.025695  -0.001414
 343   3   5.381390  -0.779366  -0.303295   0.000007   0.025695   0.000274
 344   4   5.879911  -0.790480  -0.311344  -0.000012   0.025695  -0.000453
 345  10   6.113505  -0.961625  -0.224404  -0.000045   0.025695  -0.001755
 346   3   5.265517   3.435501  -0.904633   0.000007   0.025544   0.000261
 347   4   5.762734   3.471008  -0.919454  -0.000007   0.025544  -0.000281
 348  11   5.987721   3.671261  -0.886339  -0.000048   0.025544  -0.001870
 349   3   5.025606   0.660220   5.738440  -0.000022   0.027068  -0.000805
 350   4   5.520112   0.662252   5.803310  -0.000042   0.027068  -0.001544
 351  12   5.732572   0.831183   5.938176  -0.000079   0.027068  -0.002913
 352   4   5.411464   0.473651   5.754892   0.000041   0.040099   0.001017
 353   3   4.700264   0.403815   5.702301   0.000027   0.040099   0.000678
 354   4   5.642102  -1.894054   2.793140   0.000086   0.059798   0.001441
 355   3   4.932350  -1.927594   2.686334   0.000060   0.059798   0.001004
 356   4   5.762234  -0.644952  -0.477028   0.000067   0.054463   0.001236
 357   3   5.048993  -0.619878  -0.554885   0.000056   0.054463   0.001025
 358   4   5.669844   2.968179  -1.144917   0.000165   0.127950   0.001291
 359   3   4.948552   3.086664  -1.126882   0.000132   0.127950   0.001029
 360   3   0.474313   1.155562   0.237028  -0.000124   0.088130  -0.001405
 361   7  -0.008040   1.962635  -0.085804  -0.000084   0.088130  -0.000952
 362   9   0.587787   1.141480  -0.047004  -0.000273   0.088130  -0.003096
 363   7  -0.513434   2.228684  -0.162652  -0.000008   0.021748  -0.000368
 364   3   0.246086   1.085312   0.354110   0.000108   0.030879   0.003508
 365   8   3.658555   0.108298   5.727339  -0.000484   0.126742  -0.003815
 366   3   3.635038   0.614456   5.789798  -0.000438   0.154844  -0.002830
 367   8   0.660024  -0.110514   3.762457  -0.000140   0.069523  -0.002017
 368   8   0.928005  -0.840012   2.961021  -0.000391   0.154330  -0.002532
 369   8   1.841382  -1.661128   2.401567  -0.000328   0.154330  -0.002124
 370   8   3.109956  -2.101008   2.538329  -0.000432   0.154330  -0.002802
 371   8   4.073934  -2.083486   3.101108  -0.000179   0.069523  -0.002578
 372   3   0.600271  -0.094131   3.165774  -0.000233   0.152446  -0.001527
 373   3   1.248381  -1.092427   2.226639  -0.000037   0.152446  -0.000243
 374   3   2.542970  -1.840598   1.975849  -0.000113   0.152446  -0.000743
 375   3   3.946563  -2.028026   2.517524  -0.000316   0.152446  -0.002073
 376   9   4.212144  -0.541106  -0.933946  -0.000156   0.067860  -0.002298
 377   9   3.282799  -0.966695  -0.542146  -0.000420   0.150090  -0.002802
 378   9   2.022344  -0.808984  -0.166784  -0.000323   0.150090  -0.002151
 379   9   1.057394   0.090170  -0.044684  -0.000433   0.150090  -0.002888
 380   3   4.103177  -0.888271  -0.465521  -0.000339   0.149305  -0.002269
 381   3   2.733797  -1.177850   0.040135  -0.000078   0.149305  -0.000523
 382   3   1.416085  -0.552057   0.334694  -0.000033   0.149305  -0.000219
 383   3   0.697190   0.418678   0.361785  -0.000044   0.082906  -0.000527
 384   9   3.938021   2.680653  -1.529025  -0.000270   0.082513  -0.003277
 385   3   4.334754   2.829514  -1.329939  -0.000127   0.100808  -0.001263
 386  10   6.114645  -2.057449   1.891291  -0.000383   0.200278  -0.001911
 387  10   6.132046  -1.591698   0.531841  -0.001430   0.409817  -0.003490
 388   3   4.991175  -1.807304   1.426057   0.000122   0.548661   0.000222
 389   3   5.074440  -1.151019  -0.068383   0.000366   0.282048   0.001296
 390  11   6.074689   3.937785  -0.855239  -0.000170   0.087671  -0.001938
 391   3   4.964563   3.712134  -0.895330   0.000182   0.123573   0.001471
 392  12   5.726606   1.406303   6.177325  -0.000555   0.188649  -0.002940
 393   3   4.692009   1.016433   5.918962   0.000029   0.265777   0.000110
 394   4   6.862037   4.702375   4.856213  -0.000020   0.088108  -0.000225
 395   5   5.997679   5.073948   5.191460  -0.000196   0.088108  -0.002225
 396  12   6.938725   4.529297   5.096825  -0.000212   0.088108  -0.002403
 397   5   5.644696   5.664917   5.202693  -0.000336   0.147518  -0.002280
 398   4   6.851105   5.127877   4.540027   0.000459   0.209505   0.002189
 399   8   4.504510  -1.902868   3.598578  -0.000357   0.166703  -0.002144
 400   8   4.548878  -1.314742   4.680332  -0.001206   0.338722  -0.003560
 401   8   4.357934  -0.397310   5.480278  -0.000339   0.166703  -0.002032
 402   4   5.624497  -1.581361   3.869218   0.000344   0.459921   0.000748
 403   4   5.519620  -0.504121   5.215590   0.000300   0.459921   0.000652
 404   9   4.594549   1.959910  -1.587705  -0.000411   0.203172  -0.002021
 405   9   4.668818   0.522241  -1.360219  -0.001490   0.416132  -0.003580
 406   4   5.732651   1.539547  -1.314913   0.000452   0.556191   0.000812
 407   4   5.736830  -0.071380  -0.925388   0.000430   0.286129   0.001502
 408  10   6.627295  -0.956785  -0.391145  -0.000141   0.069123  -0.002042
 409  10   7.561731  -0.410764  -0.661469  -0.000391   0.153574  -0.002544
 410  10   8.783778   0.035346  -0.306407  -0.000233   0.153574  -0.001515
 411  10   9.654210   0.059339   0.723280  -0.000365   0.153574  -0.002374
 412  10   9.810714  -0.348772   1.998989  -0.000383   0.153574  -0.002497
 413  10   9.188147  -1.019113   2.989713  -0.000268   0.153574  -0.001748
 414  10   8.045648  -1.672658   3.283069  -0.000296   0.153574  -0.001929
 415  10   6.858777  -2.037372   2.756948  -0.000433   0.153574  -0.002821
 416   4   6.723582  -0.423951  -0.645167  -0.000261   0.151415  -0.001726
 417   4   8.080711   0.245787  -0.711802  -0.000027   0.151415  -0.000177
 418   4   9.322389   0.524747   0.109909  -0.000020   0.151415  -0.000129
 419   4   9.931773   0.296811   1.477931  -0.000151   0.151415  -0.001000
 420   4   9.655211  -0.343143   2.822834  -0.000125   0.151415  -0.000825
 421   4   8.607820  -1.128737   3.584807   0.000005   0.151415   0.000034
 422   4   7.225571  -1.732972   3.446684  -0.000205   0.151415  -0.001353
 423   4   6.223742  -1.950987   2.765035  -0.000050   0.084449  -0.000596
 424  11   7.666787   5.530826   2.265555  -0.000079   0.067669  -0.001164
 425  11   8.653272   5.064558   2.284895  -0.000190   0.149554  -0.001270
 426  11   9.536207   4.239906   1.751385  -0.000287   0.149554  -0.001921
 427  11   9.732077   3.402980   0.748665  -0.000321   0.149554  -0.002149
 428  11   9.163135   2.885991  -0.325246  -0.000199   0.149554  -0.001332
 429  11   8.055216   2.894153  -1.044069  -0.000262   0.149554  -0.001750
 430  11   6.848098   3.424225  -1.122473  -0.000391   0.149554  -0.002615
 431   4   7.965007   5.257908   2.698610  -0.000051   0.148997  -0.000341
 432   4   9.209482   4.482682   2.470109  -0.000050   0.148997  -0.000336
 433   4   9.848042   3.499171   1.560794  -0.000096   0.148997  -0.000642
 434   4   9.627215   2.697771   0.331607  -0.000051   0.148997  -0.000339
 435   4   8.634658   2.396589  -0.729536  -0.000011   0.148997  -0.000073
 436   4   7.264356   2.715177  -1.201426  -0.000043   0.148997  -0.000289
 437   4   6.225815   3.312673  -1.077602  -0.000046   0.082673  -0.000554
 438  12   6.246888   0.693499   6.069497  -0.000165   0.071035  -0.002316
 439  12   7.264364   0.235972   5.825732  -0.000369   0.158604  -0.002327
 440  12   8.561127   0.422661   5.395910  -0.000247   0.158604  -0.001556
 441  12   9.425852   1.410982   4.975592  -0.000343   0.158604  -0.002161
 442  12   9.481318   2.769798   4.748134  -0.000389   0.158604  -0.002452
 443  12   8.703329   3.906350   4.812759  -0.000236   0.158604  -0.001489
 444  12   7.691367   4.377941   5.052643  -0.000109   0.071035  -0.001538
 445   4   6.416198   0.216808   5.736110  -0.000285   0.154885  -0.001838
 446   4   7.879705  -0.086435   5.330563  -0.000061   0.154885  -0.000393
 447   4   9.165686   0.612639   4.824771   0.000009   0.154885   0.000060
 448   4   9.713156   2.009072   4.439375  -0.000128   0.154885  -0.000824
 449   4   9.283290   3.493696   4.342497  -0.000112   0.154885  -0.000721
 450   4   8.063610   4.418870   4.576399  -0.000117   0.154885  -0.000754
 451   6   1.054626   7.851535   4.928536   0.000035   0.042319   0.000819
 452   5   2.071203   7.132299   5.662165   0.000066   0.042319   0.001562
 453  12   6.997401   4.471149   5.532506   0.000092   0.235256   0.000391
 454  12   6.635562   3.785966   6.241405  -0.000851   0.470306  -0.001809
 455  12   5.960582   2.731657   6.533289  -0.000921   0.470306  -0.001957
 456   5   5.590486   5.095903   6.010460  -0.001349   0.470306  -0.002869
 457   5   5.040599   4.143942   6.676609  -0.001583   0.470306  -0.003366
 458   5   4.453068   3.274105   6.710262  -0.000373   0.235256  -0.001586
 459   9   0.597133   1.112731  -0.520864  -0.000086   0.254523  -0.000336
 460   9   1.214863   1.570153  -1.437588  -0.001444   0.509176  -0.002835
 461   9   2.287955   2.458414  -1.856237  -0.001361   0.509176  -0.002672
 462   7  -0.127764   2.368192  -0.980486  -0.001506   0.509176  -0.002959
 463   7   0.784599   3.081597  -1.860514  -0.001845   0.509176  -0.003624
 464   7   1.693235   3.855494  -1.942179  -0.000168   0.254523  -0.000658
 =====================================================

              1471479  WORDS OF DYNAMIC MEMORY USED
 EXECUTION OF GAMESS TERMINATED NORMALLY Tue Nov 22 20:46:18 2016
 DDI: 263640 bytes (0.3 MB / 0 MWords) used by master data server.

 ----------------------------------------
 CPU timing information for all processes
 ========================================
 0: 323.348 + 0.192 = 323.540
 ----------------------------------------
 ddikick.x: exited gracefully.
