----- GAMESS execution script -----

          ******************************************************
          *         GAMESS VERSION =  5 DEC 2014 (R1)          *
          *             FROM IOWA STATE UNIVERSITY             *
          * M.W.SCHMIDT, K.K.BALDRIDGE, J.A.BOATZ, S.T.ELBERT, *
          *   M.S.GORDON, J.H.JENSEN, S.KOSEKI, N.MATSUNAGA,   *
          *          K.A.NGUYEN, S.J.SU, T.L.WINDUS,           *
          *       TOGETHER WITH M.DUPUIS, J.A.MONTGOMERY       *
          *         J.COMPUT.CHEM.  14, 1347-1363(1993)        *
          **************** 64 BIT LINUX VERSION ****************

 EXECUTION OF GAMESS BEGUN Tue Nov 22 20:47:39 2016

            ECHO OF THE FIRST FEW INPUT CARDS -
 INPUT CARD>! SELECT RESTRICTED HARTREE-FOCK AS DEFAULT                                     
 INPUT CARD>$contrl scftyp=rhf $end                                                         
 INPUT CARD>                                                                                
 INPUT CARD>! THEORY: HF OR DFT                                                             
 INPUT CARD> $contrl mplevl=0 $end                                                          
 INPUT CARD>                                                                                
 INPUT CARD> $system timlim=10000 mwords=20 $end                                            
 INPUT CARD> $SCF DIRSCF=.TRUE. $end                                                        
 INPUT CARD>                                                                                
 INPUT CARD>                                                                                
 INPUT CARD>! BASIS SETS                                                                    
 INPUT CARD>! 6-311G(d,p)                                                                   
 INPUT CARD> $BASIS GBASIS=N311 NGAUSS=6 NDFUNC=1 NPFUNC=1 $END                             
 INPUT CARD>                                                                                
 INPUT CARD>! One of the following                                                          
 INPUT CARD> $guess guess=HUCKEL $end                                                       
 INPUT CARD>                                                                                
 INPUT CARD> $statpt projct=.FALSE. $end                                                    
 INPUT CARD> $STATPT IFREEZ(1)=1,2,3 $END                                                   
 INPUT CARD>                                                                                
 INPUT CARD>! Optimize the geometry with COSMO effects                                      
 INPUT CARD> $statpt opttol=0.0005 nstep=50 $end                                            
 INPUT CARD> $contrl nzvar=1 $end                                                           
 INPUT CARD> $zmat dlc=.t. auto=.t. $end                                                    
 INPUT CARD> $contrl runtyp=OPTIMIZE maxit=200 $end                                         
 INPUT CARD>                                                                                
 INPUT CARD>! Run COSMO on perfect conductor                                                
 INPUT CARD> $COSGMS PRFCND=.TRUE. $end                                                     
 INPUT CARD>                                                                                
 INPUT CARD>! Specifying RSOLV                                                              
 INPUT CARD> $COSGMS COSRAD = 1.4 $end                                                      
 INPUT CARD>                                                                                
 INPUT CARD>! available memory                                                              
 INPUT CARD> $SYSTEM MWORDS=40 $END                                                         
 INPUT CARD>                                                                                
 INPUT CARD> $DATA                                                                          
 INPUT CARD>http://cactus.nci.nih.gov/chemical/structure/1-CHLORO-2-METHYLPROPANE/file?forma
 INPUT CARD>C1                                                                              
 INPUT CARD>Cl    17.0     -1.7398000000   -0.0066000000   -0.0761000000                    
 INPUT CARD>C      6.0     -0.1570000000   -0.7423000000    0.3760000000                    
 INPUT CARD>C      6.0      0.9732000000   -0.0015000000   -0.3416000000                    
 INPUT CARD>C      6.0      1.0385000000    1.4413000000    0.1633000000                    
 INPUT CARD>C      6.0      2.3034000000   -0.7020000000   -0.0572000000                    
 INPUT CARD>H      1.0     -0.0151000000   -0.6650000000    1.4540000000                    
 INPUT CARD>H      1.0     -0.1471000000   -1.7920000000    0.0826000000                    
 INPUT CARD>H      1.0      0.7843000000   -0.0026000000   -1.4151000000                    
 INPUT CARD>H      1.0      0.0909000000    1.9404000000   -0.0393000000                    
 INPUT CARD>H      1.0      1.2275000000    1.4424000000    1.2368000000                    
 INPUT CARD>H      1.0      1.8437000000    1.9690000000   -0.3479000000                    
 INPUT CARD>H      1.0      2.2568000000   -1.7299000000   -0.4168000000                    
   40000000 WORDS OF MEMORY AVAILABLE

     BASIS OPTIONS
     -------------
     GBASIS=N311         IGAUSS=       6      POLAR=POPN311 
     NDFUNC=       1     NFFUNC=       0     DIFFSP=       F
     NPFUNC=       1      DIFFS=       F     BASNAM=        


     RUN TITLE
     ---------
 http://cactus.nci.nih.gov/chemical/structure/1-CHLORO-2-METHYLPROPANE/file?forma

 THE POINT GROUP OF THE MOLECULE IS C1      
 THE ORDER OF THE PRINCIPAL AXIS IS     0

 ATOM      ATOMIC                      COORDINATES (BOHR)
           CHARGE         X                   Y                   Z
 CL         17.0    -3.2877452734       -0.0124721915       -0.1438081477
 C           6.0    -0.2966869801       -1.4027436007        0.7105369714
 C           6.0     1.8390813313       -0.0028345890       -0.6455303974
 C           6.0     1.9624804382        2.7236620661        0.3085922538
 C           6.0     4.3527948401       -1.3265876434       -0.1080923265
 H           1.0    -0.0285348624       -1.2566677818        2.7476615861
 H           1.0    -0.2779786928       -3.3863889700        0.1560913666
 H           1.0     1.4821120922       -0.0049132876       -2.6741512452
 H           1.0     0.1717760923        3.6668243066       -0.0742662313
 H           1.0     2.3196386499        2.7257407647        2.3372131016
 H           1.0     3.4840878036        3.7208704698       -0.6574356711
 H           1.0     4.2647336091       -3.2690369862       -0.7876377917
 H           1.0     5.8742132328       -0.3293792397       -1.0741202514
 H           1.0     4.7097640792       -1.3245089448        1.9205285213

          INTERNUCLEAR DISTANCES (ANGS.)




     $CONTRL OPTIONS
     ---------------
 SCFTYP=RHF          RUNTYP=OPTIMIZE     EXETYP=RUN     
 MPLEVL=       0     CITYP =NONE         CCTYP =NONE         VBTYP =NONE    
 DFTTYP=NONE         TDDFT =NONE    
 MULT  =       1     ICHARG=       0     NZVAR =       1     COORD =UNIQUE  
 PP    =NONE         RELWFN=NONE         LOCAL =NONE         NUMGRD=       F
 ISPHER=      -1     NOSYM =       0     MAXIT =     200     UNITS =ANGS    
 PLTORB=       F     MOLPLT=       F     AIMPAC=       F     FRIEND=        
 NPRINT=       7     IREST =       0     GEOM  =INPUT   
 NORMF =       0     NORMP =       0     ITOL  =      20     ICUT  =       9
 INTTYP=BEST         GRDTYP=BEST         QMTTOL= 1.0E-06

     $SYSTEM OPTIONS
     ---------------
  REPLICATED MEMORY=    40000000 WORDS (ON EVERY NODE).
 DISTRIBUTED MEMDDI=           0 MILLION WORDS IN AGGREGATE,
 MEMDDI DISTRIBUTED OVER   1 PROCESSORS IS           0 WORDS/PROCESSOR.
 TOTAL MEMORY REQUESTED ON EACH PROCESSOR=    40000000 WORDS.
 TIMLIM=       10000.00 MINUTES, OR       6.9 DAYS.
 PARALL= F  BALTYP=  DLB     KDIAG=    0  COREFL= F
 MXSEQ2=     300 MXSEQ3=     150  mem10=         0

     $COSGMS OPTIONS
     ---------------
     EPSI  =   INFTY     NSPA  =      92     COSRAD=    1.40
     DISEX =   10.00     OUTCHG=DBLCAV       COSBUG=       F
     COSWRT=       F     DCOSMO=       F

     SYMMETRY COORDINATES WILL NOT BE USED FOR 
     THE COSMO CALCULATION, EVEN IF SPECIFIED:
         -- SWITCHING TO C1 POINT GROUP --


     DEFINITION OF CAVITY
     ---------------------------
     ATOM         COORDINATES           RADIUS 
     1   -3.2877   -0.0125   -0.1438    2.0500
     2   -0.2967   -1.4027    0.7105    2.0000
     3    1.8391   -0.0028   -0.6455    2.0000
     4    1.9625    2.7237    0.3086    2.0000
     5    4.3528   -1.3266   -0.1081    2.0000
     6   -0.0285   -1.2567    2.7477    1.3000
     7   -0.2780   -3.3864    0.1561    1.3000
     8    1.4821   -0.0049   -2.6742    1.3000
     9    0.1718    3.6668   -0.0743    1.3000
    10    2.3196    2.7257    2.3372    1.3000
    11    3.4841    3.7209   -0.6574    1.3000
    12    4.2647   -3.2690   -0.7876    1.3000
    13    5.8742   -0.3294   -1.0741    1.3000
    14    4.7098   -1.3245    1.9205    1.3000

          ----------------
          PROPERTIES INPUT
          ----------------

     MOMENTS            FIELD           POTENTIAL          DENSITY
 IEMOM =       1   IEFLD =       0   IEPOT =       0   IEDEN =       0
 WHERE =COMASS     WHERE =NUCLEI     WHERE =NUCLEI     WHERE =NUCLEI  
 OUTPUT=BOTH       OUTPUT=BOTH       OUTPUT=BOTH       OUTPUT=BOTH    
 IEMINT=       0   IEFINT=       0                     IEDINT=       0
                                                       MORB  =       0
          EXTRAPOLATION IN EFFECT
          SOSCF IN EFFECT
 ORBITAL PRINTING OPTION: NPREO=     1   157     2     1

     -------------------------------
     INTEGRAL TRANSFORMATION OPTIONS
     -------------------------------
     NWORD  =            0
     CUTOFF = 1.0E-09     MPTRAN =       0
     DIRTRF =       T     AOINTS =DUP     

          ----------------------
          INTEGRAL INPUT OPTIONS
          ----------------------
 NOPK  =       1 NORDER=       0 SCHWRZ=       T


 -----------------------------------------------
  STATISTICS ON AUTOMATIC COORDINATE GENERATION 
 -----------------------------------------------
  NUMBER OF USER SPECIFIED BONDS                             0
  NUMBER OF BONDS                                           13
  NUMBER OF ANGLES                                          24
  NUMBER OF TORSIONS                                        27
  NUMBER OF EXTRA COORD.                                     0
  NUMBER OF EXTRA COORD. FOR CONSTRAINTS                     0
  NUMBER OF CONSTRAINED COORD.                               0

  TOTAL NUMBER OF PRIMITIVES                                64
 -----------------------------------------------

   --- ENCODED Z MATRIX ---
 COORD  TYPE   I   J   K   L   M   N
    1      1    1   2
    2      1    2   7
    3      1    2   6
    4      1    2   3
    5      1    3   4
    6      1    3   8
    7      1    3   5
    8      1    4  11
    9      1    4  10
   10      1    4   9
   11      1    5  14
   12      1    5  13
   13      1    5  12
   14      2    1   2   7
   15      2    1   2   3
   16      2    1   2   6
   17      2    2   3   5
   18      2    2   3   4
   19      2    2   3   8
   20      2    3   2   7
   21      2    3   4  11
   22      2    3   2   6
   23      2    3   5  12
   24      2    3   5  13
   25      2    3   4  10
   26      2    3   4   9
   27      2    3   5  14
   28      2    4   3   5
   29      2    4   3   8
   30      2    5   3   8
   31      2    6   2   7
   32      2    9   4  10
   33      2    9   4  11
   34      2   10   4  11
   35      2   12   5  13
   36      2   12   5  14
   37      2   13   5  14
   38      3    1   2   3   5
   39      3    1   2   3   4
   40      3    1   2   3   8
   41      3    2   3   4   9
   42      3    2   3   5  14
   43      3    2   3   4  10
   44      3    2   3   4  11
   45      3    2   3   5  12
   46      3    2   3   5  13
   47      3    4   3   5  12
   48      3    4   3   2   6
   49      3    4   3   2   7
   50      3    4   3   5  14
   51      3    4   3   5  13
   52      3    5   3   4  11
   53      3    5   3   2   6
   54      3    5   3   2   7
   55      3    5   3   4   9
   56      3    5   3   4  10
   57      3    6   2   3   8
   58      3    7   2   3   8
   59      3    8   3   5  12
   60      3    8   3   4  11
   61      3    8   3   5  14
   62      3    8   3   4   9
   63      3    8   3   4  10
   64      3    8   3   5  13

          INDEP./SYM. INTERNAL COORDINATES
          --------------------------------
 CRD  1=  -0.1471 (  5)  0.1349 (  7)  0.1025 ( 14) -0.4009 ( 15)  0.1024 ( 16)
           0.4014 ( 17) -0.4467 ( 18)  0.2032 ( 20) -0.1192 ( 26)  0.1528 ( 29)
          -0.1725 ( 30)  0.1753 ( 41)  0.1093 ( 42)  0.1093 ( 43)  0.1495 ( 44)
           0.1628 ( 45)  0.1266 ( 46) -0.1022 ( 47) -0.1556 ( 50) -0.1383 ( 51)
          -0.1050 ( 52) -0.1452 ( 56)  0.1122 ( 57)
 CRD  2=  -0.2046 (  4)  0.1257 (  5) -0.3172 ( 17) -0.2103 ( 18)  0.2141 ( 19)
           0.1662 ( 21) -0.1286 ( 22) -0.1666 ( 23)  0.1866 ( 24) -0.1487 ( 26)
           0.5264 ( 28) -0.1308 ( 29)  0.1322 ( 38) -0.1894 ( 39)  0.1139 ( 42)
          -0.1408 ( 43) -0.1724 ( 48) -0.1373 ( 49) -0.1092 ( 51)  0.1448 ( 52)
           0.1492 ( 53)  0.1844 ( 54)  0.1169 ( 55)
 CRD  3=   0.4411 (  4)  0.2917 (  5)  0.4629 (  7) -0.2067 ( 14)  0.3111 ( 15)
          -0.2017 ( 16)  0.1272 ( 17)  0.1249 ( 22)  0.1567 ( 25)  0.2597 ( 27)
          -0.1044 ( 30) -0.1086 ( 35) -0.1321 ( 36) -0.1365 ( 37) -0.1162 ( 55)
          -0.1078 ( 56)
 CRD  4=   0.2988 (  5)  0.1865 ( 14) -0.5635 ( 15)  0.1517 ( 16)  0.1972 ( 18)
          -0.1182 ( 19)  0.3574 ( 22) -0.1000 ( 23)  0.2765 ( 25)  0.1399 ( 27)
          -0.1060 ( 31) -0.1202 ( 32)  0.1481 ( 38) -0.1339 ( 42)  0.1022 ( 44)
          -0.1258 ( 45) -0.1722 ( 46)  0.1043 ( 47) -0.1175 ( 49)
 CRD  5=  -0.4682 (  5)  0.1362 ( 15) -0.1419 ( 16) -0.2320 ( 20) -0.3002 ( 21)
           0.1495 ( 22) -0.2080 ( 23) -0.1085 ( 24)  0.2546 ( 25) -0.3690 ( 26)
           0.2668 ( 27) -0.1168 ( 29)  0.2527 ( 33)  0.1101 ( 35) -0.1071 ( 39)
           0.1284 ( 47) -0.1083 ( 48) -0.1052 ( 49) -0.1237 ( 55)
 CRD  6=  -0.3498 (  7) -0.1314 ( 14)  0.1233 ( 15)  0.1454 ( 21) -0.3852 ( 23)
          -0.2619 ( 24) -0.1507 ( 25)  0.3344 ( 27)  0.1434 ( 29) -0.1996 ( 30)
           0.2248 ( 35)  0.2601 ( 38)  0.2302 ( 39)  0.1333 ( 48)  0.1541 ( 49)
          -0.1125 ( 51) -0.1405 ( 52)  0.1632 ( 53)  0.1841 ( 54) -0.1006 ( 56)
 CRD  7=   0.4272 (  4) -0.3415 (  7) -0.1037 ( 14)  0.3946 ( 20)  0.2254 ( 21)
          -0.1093 ( 23)  0.1353 ( 25) -0.3488 ( 26) -0.2759 ( 27) -0.2199 ( 31)
          -0.1363 ( 34)  0.1779 ( 36)
 CRD  8=  -0.1511 (  4)  0.2050 (  5)  0.1217 ( 16)  0.2221 ( 20) -0.1922 ( 21)
          -0.4112 ( 22)  0.3013 ( 23) -0.4361 ( 24)  0.4042 ( 25) -0.1532 ( 32)
          -0.1212 ( 36)  0.1511 ( 37)
 CRD  9=   0.1139 (  5)  0.1131 ( 14)  0.1150 ( 15) -0.1444 ( 16) -0.3903 ( 20)
           0.4498 ( 21)  0.2291 ( 22)  0.3196 ( 23) -0.3168 ( 24) -0.3268 ( 26)
           0.1148 ( 32) -0.1764 ( 34)  0.1678 ( 37) -0.1009 ( 42) -0.1004 ( 50)
 CRD 10=  -0.1344 (  4)  0.1160 (  5)  0.1900 (  9) -0.1216 ( 11)  0.1121 ( 12)
           0.1309 ( 15)  0.1670 ( 17) -0.1230 ( 19) -0.1353 ( 20) -0.1360 ( 21)
           0.3390 ( 24)  0.4076 ( 25) -0.1520 ( 26) -0.3156 ( 27)  0.1898 ( 29)
           0.1149 ( 31) -0.1295 ( 32)  0.1445 ( 33) -0.1346 ( 34) -0.1109 ( 35)
           0.1759 ( 36)  0.1615 ( 38)  0.1938 ( 39)  0.1041 ( 41)  0.1020 ( 43)
           0.1035 ( 44) -0.1204 ( 47)  0.1045 ( 48) -0.1063 ( 51)
 CRD 11=   0.1045 (  2) -0.1604 (  3) -0.1357 (  4)  0.1553 (  7)  0.1495 ( 11)
          -0.1144 ( 13) -0.1046 ( 14)  0.1814 ( 16)  0.1603 ( 18) -0.2012 ( 19)
           0.1830 ( 20)  0.2902 ( 21) -0.3309 ( 22) -0.1955 ( 23) -0.3117 ( 26)
           0.2839 ( 27) -0.1634 ( 28)  0.2019 ( 30)  0.1258 ( 32) -0.1300 ( 34)
          -0.1777 ( 37)  0.1255 ( 41)  0.1263 ( 44) -0.1176 ( 45)  0.1265 ( 52)
          -0.1166 ( 54)  0.1257 ( 55)
 CRD 12=   0.1863 (  2) -0.1846 (  3)  0.1787 (  5) -0.1089 ( 13)  0.2092 ( 14)
          -0.2118 ( 16) -0.2561 ( 23)  0.1519 ( 26)  0.1195 ( 29) -0.1356 ( 32)
           0.1015 ( 35)  0.1087 ( 36) -0.3382 ( 38) -0.2775 ( 39) -0.3631 ( 40)
          -0.1363 ( 47) -0.1482 ( 50) -0.1322 ( 51) -0.1079 ( 52) -0.1172 ( 53)
          -0.1085 ( 54) -0.1170 ( 56) -0.1420 ( 57) -0.1333 ( 58)
 CRD 13=   0.1090 (  1)  0.1273 (  2) -0.7503 (  6)  0.1323 ( 10)  0.1301 ( 12)
          -0.1593 ( 22) -0.1564 ( 25) -0.1546 ( 27) -0.1055 ( 39) -0.1328 ( 42)
          -0.1103 ( 45) -0.1444 ( 46) -0.1303 ( 48) -0.1425 ( 49) -0.1121 ( 52)
          -0.1455 ( 55) -0.1339 ( 56)
 CRD 14=   0.4551 (  1)  0.3597 (  2)  0.4774 (  3)  0.1837 (  4)  0.1066 (  6)
          -0.1440 ( 11) -0.1137 ( 13)  0.2017 ( 14) -0.1213 ( 15)  0.1869 ( 16)
          -0.2375 ( 20) -0.2049 ( 22)  0.1751 ( 31) -0.1119 ( 41) -0.1010 ( 43)
          -0.1130 ( 44) -0.1016 ( 52) -0.1005 ( 55)
 CRD 15=   0.1674 (  1) -0.2097 (  8) -0.3519 (  9) -0.2621 ( 10)  0.2772 ( 11)
           0.2147 ( 12)  0.2305 ( 13)  0.1038 ( 14) -0.1072 ( 20)  0.1371 ( 21)
          -0.1540 ( 23)  0.1613 ( 26) -0.1136 ( 32) -0.1645 ( 33) -0.1099 ( 34)
           0.1272 ( 35)  0.1233 ( 36)  0.1305 ( 41)  0.1487 ( 42)  0.1450 ( 43)
           0.1492 ( 44)  0.1443 ( 45)  0.1528 ( 46)  0.1393 ( 47)  0.1437 ( 50)
           0.1478 ( 51)  0.1164 ( 59)  0.1142 ( 60)  0.1208 ( 61)  0.1100 ( 63)
           0.1249 ( 64)
 CRD 16=  -0.1258 (  1) -0.1013 (  2) -0.1137 (  5) -0.1747 (  6) -0.1251 (  7)
          -0.3005 (  8) -0.3515 (  9) -0.3252 ( 10) -0.3850 ( 11) -0.3324 ( 12)
          -0.3580 ( 13)  0.1366 ( 21)  0.1234 ( 23)  0.1482 ( 24)  0.1115 ( 26)
           0.1111 ( 27) -0.1004 ( 32) -0.1290 ( 33) -0.1183 ( 34) -0.1409 ( 35)
          -0.1119 ( 36) -0.1299 ( 37)
 CRD 17=  -0.2091 (  2)  0.2582 (  3) -0.1459 (  5)  0.1077 (  6)  0.1257 (  7)
          -0.3022 (  8) -0.2068 (  9) -0.2115 ( 10)  0.2009 ( 11)  0.2446 ( 12)
           0.1754 ( 13) -0.1900 ( 14)  0.2143 ( 16)  0.1278 ( 40) -0.1251 ( 41)
          -0.1282 ( 42) -0.1336 ( 43) -0.1328 ( 44) -0.1260 ( 45) -0.1281 ( 46)
          -0.1212 ( 47) -0.1330 ( 48) -0.1128 ( 49) -0.1233 ( 50) -0.1233 ( 51)
          -0.1397 ( 53) -0.1195 ( 54) -0.1032 ( 57) -0.1407 ( 59) -0.1293 ( 60)
          -0.1428 ( 61) -0.1216 ( 62) -0.1301 ( 63) -0.1428 ( 64)
 CRD 18=   0.3281 (  1)  0.1817 (  2) -0.3461 (  3)  0.1100 (  4) -0.1312 (  5)
          -0.2999 (  8)  0.2997 (  9) -0.2969 ( 10)  0.1033 ( 13)  0.1296 ( 14)
          -0.1788 ( 31) -0.1114 ( 33)  0.1166 ( 34) -0.1469 ( 45) -0.1128 ( 46)
          -0.1377 ( 47)  0.1701 ( 49) -0.1036 ( 51)  0.1424 ( 52)  0.2086 ( 54)
           0.1936 ( 58) -0.1546 ( 59)  0.1223 ( 60) -0.1033 ( 61) -0.1205 ( 64)
 CRD 19=  -0.2293 (  1) -0.1227 (  3) -0.1174 (  4)  0.1234 (  7) -0.4280 ( 11)
           0.3697 ( 12)  0.3344 ( 13)  0.1011 ( 14)  0.1855 ( 35) -0.1650 ( 37)
          -0.1459 ( 41) -0.1115 ( 43) -0.1339 ( 44)  0.1868 ( 46)  0.1170 ( 48)
           0.1205 ( 49)  0.2179 ( 51) -0.1194 ( 52) -0.1314 ( 55) -0.1320 ( 60)
          -0.1440 ( 62) -0.1097 ( 63)  0.1984 ( 64)
 CRD 20=   0.4807 (  1) -0.4879 (  2) -0.2605 (  3)  0.2296 (  8) -0.1775 (  9)
           0.1219 ( 14)  0.1688 ( 16) -0.2801 ( 31) -0.1839 ( 48)  0.1389 ( 49)
          -0.2130 ( 53)  0.1098 ( 54) -0.2169 ( 57)  0.1059 ( 58)
 CRD 21=  -0.3388 (  8)  0.4029 ( 10)  0.4080 ( 12) -0.4080 ( 13)  0.1852 ( 32)
          -0.2102 ( 34) -0.2136 ( 36)  0.2082 ( 37)  0.1680 ( 42)  0.1443 ( 43)
           0.1723 ( 50)  0.1539 ( 56)  0.1764 ( 61)  0.1557 ( 63)
 CRD 22=  -0.4107 (  8)  0.4059 ( 10) -0.3831 ( 12)  0.3784 ( 13)  0.2094 ( 32)
          -0.2119 ( 34)  0.1945 ( 36) -0.1985 ( 37) -0.1433 ( 42)  0.1530 ( 43)
          -0.1370 ( 50)  0.1482 ( 56) -0.1563 ( 61)  0.1679 ( 63)
 CRD 23=   0.2561 (  2)  0.1377 (  8) -0.4795 (  9)  0.1598 ( 10) -0.2150 ( 11)
           0.1276 ( 13) -0.1063 ( 21) -0.1724 ( 32)  0.3049 ( 33)  0.1345 ( 35)
          -0.1070 ( 36)  0.2173 ( 41) -0.1818 ( 45) -0.2194 ( 47) -0.1283 ( 50)
           0.2668 ( 55) -0.1913 ( 59) -0.1002 ( 61)  0.2337 ( 62)
 CRD 24=   0.1548 (  1) -0.1931 (  2)  0.2471 (  3) -0.1306 (  7)  0.1922 (  9)
          -0.3920 ( 11) -0.1429 ( 14) -0.1383 ( 33)  0.1025 ( 34)  0.2817 ( 35)
          -0.1007 ( 36)  0.1208 ( 43)  0.2145 ( 44) -0.1142 ( 45)  0.1418 ( 46)
          -0.1529 ( 47) -0.1743 ( 48) -0.2012 ( 49)  0.1031 ( 51)  0.1966 ( 52)
          -0.1527 ( 53) -0.1795 ( 54)  0.1030 ( 56) -0.1523 ( 57) -0.1792 ( 58)
          -0.1294 ( 59)  0.1902 ( 60)  0.1266 ( 64)
 CRD 25=  -0.2741 (  1) -0.2552 (  2) -0.3211 (  3)  0.4091 (  4)  0.1445 (  6)
           0.1909 ( 14) -0.1475 ( 15)  0.2232 ( 16)  0.1192 ( 19) -0.2839 ( 20)
          -0.2945 ( 22)  0.3118 ( 31) -0.1032 ( 59)  0.1610 ( 60) -0.1498 ( 61)
           0.1195 ( 62)  0.1673 ( 63) -0.1440 ( 64)
 CRD 26=   0.1049 (  2) -0.1864 (  3)  0.1600 (  5)  0.3289 (  6)  0.2505 (  7)
          -0.1040 (  8) -0.2376 (  9) -0.2873 ( 11) -0.1653 ( 12) -0.1336 ( 13)
          -0.1173 ( 19) -0.1234 ( 21) -0.1790 ( 23) -0.1949 ( 24) -0.1667 ( 25)
          -0.1033 ( 26) -0.2420 ( 27)  0.1479 ( 32)  0.2067 ( 34)  0.1317 ( 35)
           0.2297 ( 36)  0.2545 ( 37) -0.1285 ( 49)  0.1084 ( 59) -0.1434 ( 62)
          -0.1276 ( 63)
 CRD 27=  -0.2895 (  5)  0.2023 (  7)  0.1908 (  8)  0.2008 (  9)  0.2353 ( 10)
          -0.1096 ( 11) -0.1291 ( 12) -0.1992 ( 13)  0.2138 ( 21) -0.1702 ( 23)
          -0.1479 ( 24)  0.2204 ( 25)  0.2280 ( 26) -0.1444 ( 27) -0.1450 ( 29)
           0.1359 ( 30) -0.2353 ( 32) -0.2279 ( 33) -0.1991 ( 34)  0.1842 ( 35)
           0.1677 ( 36)  0.1107 ( 37)  0.1718 ( 40)  0.2207 ( 57)  0.1862 ( 58)
          -0.1231 ( 59) -0.1358 ( 61)
 CRD 28=  -0.1353 (  1) -0.2487 (  2)  0.2225 (  3)  0.2107 (  4)  0.2830 (  5)
          -0.3763 (  6)  0.2737 (  7) -0.1807 (  8) -0.1811 ( 10) -0.1821 ( 12)
          -0.1529 ( 13)  0.1900 ( 14) -0.1222 ( 21) -0.1228 ( 23) -0.1166 ( 24)
          -0.1161 ( 26)  0.2442 ( 33)  0.2227 ( 35) -0.1201 ( 38) -0.1159 ( 44)
          -0.1265 ( 47)  0.1549 ( 49)  0.1317 ( 55)  0.1134 ( 58)
 CRD 29=   0.1661 (  1) -0.2689 (  2)  0.2264 (  3) -0.2686 (  4)  0.2580 (  5)
           0.1018 (  8) -0.1800 (  9)  0.2109 ( 12) -0.2131 ( 16)  0.1400 ( 20)
          -0.1578 ( 29)  0.1696 ( 32)  0.1356 ( 36) -0.1032 ( 37) -0.1188 ( 39)
          -0.1732 ( 42)  0.1483 ( 48) -0.1063 ( 50)  0.1710 ( 53)  0.2622 ( 57)
           0.1358 ( 58)  0.1045 ( 60) -0.2897 ( 61)  0.1203 ( 63) -0.1889 ( 64)
 CRD 30=   0.1756 (  1) -0.1994 (  2)  0.2313 (  4) -0.3492 (  7) -0.2206 (  8)
           0.2282 ( 10)  0.1424 ( 11) -0.1310 ( 19)  0.1729 ( 30)  0.2055 ( 31)
          -0.1441 ( 32)  0.2064 ( 34) -0.1513 ( 36)  0.1158 ( 40) -0.1621 ( 43)
           0.1364 ( 48)  0.1429 ( 53) -0.1665 ( 56)  0.2750 ( 57) -0.1043 ( 60)
          -0.1415 ( 62) -0.3514 ( 63)
 CRD 31=   0.2294 (  2) -0.1933 (  3)  0.1889 (  5)  0.2071 ( 11)  0.1687 ( 12)
          -0.3568 ( 13)  0.1044 ( 16)  0.1265 ( 19) -0.1362 ( 20)  0.1250 ( 22)
           0.1190 ( 23)  0.1496 ( 35)  0.1198 ( 36) -0.2924 ( 37)  0.1367 ( 38)
           0.1406 ( 39)  0.2176 ( 40) -0.1009 ( 42)  0.3160 ( 46) -0.1920 ( 50)
           0.2249 ( 51) -0.2575 ( 61)  0.1594 ( 64)
 CRD 32=  -0.2380 (  1)  0.1890 (  3) -0.2335 (  8)  0.2611 ( 10) -0.1821 ( 11)
           0.1899 ( 12)  0.1358 ( 14)  0.1139 ( 21) -0.1116 ( 26) -0.1838 ( 31)
          -0.1899 ( 32)  0.1965 ( 34) -0.1376 ( 35)  0.1523 ( 36)  0.1614 ( 41)
          -0.1187 ( 42) -0.1326 ( 43)  0.1847 ( 44)  0.1172 ( 45)  0.1736 ( 47)
           0.1995 ( 49)  0.1719 ( 52) -0.1218 ( 53)  0.1668 ( 54)  0.1486 ( 55)
          -0.1454 ( 56) -0.1164 ( 57)  0.1722 ( 58)  0.1757 ( 59)  0.1589 ( 60)
           0.1356 ( 62) -0.1584 ( 63)
 CRD 33=  -0.1833 (  1)  0.1181 (  3)  0.1679 (  8) -0.3191 (  9)  0.1436 ( 10)
           0.1902 ( 11) -0.1943 ( 12)  0.1226 ( 17)  0.1362 ( 25) -0.1421 ( 31)
           0.1354 ( 32) -0.2424 ( 33)  0.1164 ( 34)  0.1445 ( 35) -0.1541 ( 36)
          -0.1669 ( 41)  0.2191 ( 44) -0.1840 ( 45) -0.2279 ( 47)  0.1940 ( 49)
           0.1438 ( 52)  0.1635 ( 54) -0.2421 ( 55)  0.1587 ( 58) -0.1880 ( 59)
           0.1836 ( 60) -0.2024 ( 62)
 CRD 34=  -0.1321 (  2)  0.1476 (  4) -0.2939 (  5)  0.1083 (  7)  0.1039 ( 12)
          -0.1922 ( 13) -0.1691 ( 17) -0.1315 ( 19)  0.1264 ( 20)  0.1602 ( 23)
          -0.1202 ( 24)  0.1274 ( 28)  0.2061 ( 29) -0.1140 ( 30) -0.1336 ( 37)
          -0.2450 ( 40) -0.2793 ( 42) -0.1064 ( 45)  0.1490 ( 48) -0.2054 ( 50)
           0.2512 ( 53)  0.1268 ( 54) -0.1969 ( 58)  0.2280 ( 59)  0.3328 ( 64)
 CRD 35=   0.1376 (  1) -0.2281 (  4)  0.2501 (  7) -0.1439 (  8)  0.1548 ( 10)
          -0.1201 ( 12)  0.1640 ( 18)  0.1795 ( 19)  0.1447 ( 21) -0.1479 ( 26)
          -0.1504 ( 28) -0.1961 ( 30) -0.1134 ( 32)  0.1162 ( 34)  0.1067 ( 39)
          -0.1259 ( 40) -0.2657 ( 43)  0.2002 ( 48)  0.1617 ( 50)  0.1201 ( 51)
           0.1071 ( 53) -0.2555 ( 56) -0.2174 ( 58) -0.1847 ( 59)  0.3017 ( 60)
           0.2900 ( 62)
 CRD 36=   0.1209 (  3)  0.2522 (  6)  0.1566 (  9)  0.1548 ( 11)  0.1357 ( 17)
           0.1070 ( 18) -0.1034 ( 19) -0.1243 ( 22) -0.1470 ( 25) -0.1398 ( 27)
           0.1144 ( 28) -0.1389 ( 29) -0.1148 ( 30)  0.1119 ( 33)  0.1071 ( 35)
          -0.2072 ( 39)  0.2652 ( 41) -0.1211 ( 42)  0.1457 ( 43) -0.2479 ( 45)
          -0.1805 ( 48)  0.1631 ( 50)  0.2647 ( 51) -0.2714 ( 52)  0.1082 ( 53)
           0.2460 ( 54) -0.1561 ( 56)  0.1252 ( 58) -0.1341 ( 59) -0.1158 ( 60)
           0.1190 ( 62)

 THE DETERMINANT OF THE G MATRIX IS 10**(   -13)


                     --------------------
                     INTERNAL COORDINATES
                     --------------------

                 - - ATOMS - -         COORDINATE      COORDINATE
 NO.   TYPE    I  J  K  L  M  N        (BOHR,RAD)       (ANG,DEG)
 ----------------------------------------------------------------
   1 STRETCH   1  2                     3.4072261       1.8030265
   2 STRETCH   2  7                     2.0597594       1.0899778
   3 STRETCH   2  6                     2.0598836       1.0900435
   4 STRETCH   2  3                     2.8913959       1.5300609
   5 STRETCH   3  4                     2.8912560       1.5299869
   6 STRETCH   3  8                     2.0597898       1.0899939
   7 STRETCH   3  5                     2.8913522       1.5300378
   8 STRETCH   4 11                     2.0598358       1.0900182
   9 STRETCH   4 10                     2.0598225       1.0900112
  10 STRETCH   4  9                     2.0597955       1.0899969
  11 STRETCH   5 14                     2.0597898       1.0899939
  12 STRETCH   5 13                     2.0596962       1.0899444
  13 STRETCH   5 12                     2.0597685       1.0899826
  14 BEND      1  2  7                  1.9107420     109.4774533
  15 BEND      1  2  3                  1.9105821     109.4682882
  16 BEND      1  2  6                  1.9106158     109.4702219
  17 BEND      2  3  5                  1.9106449     109.4718917
  18 BEND      2  3  4                  1.9106276     109.4709004
  19 BEND      2  3  8                  1.9107063     109.4754083
  20 BEND      3  2  7                  1.9106168     109.4702773
  21 BEND      3  4 11                  1.9105923     109.4688773
  22 BEND      3  2  6                  1.9106264     109.4708286
  23 BEND      3  5 12                  1.9105579     109.4669032
  24 BEND      3  5 13                  1.9106457     109.4719323
  25 BEND      3  4 10                  1.9106574     109.4726041
  26 BEND      3  4  9                  1.9106566     109.4725608
  27 BEND      3  5 14                  1.9105677     109.4674680
  28 BEND      4  3  5                  1.9105939     109.4689668
  29 BEND      4  3  8                  1.9106589     109.4726883
  30 BEND      5  3  8                  1.9105677     109.4674680
  31 BEND      6  2  7                  1.9106164     109.4702543
  32 BEND      9  4 10                  1.9106352     109.4713327
  33 BEND      9  4 11                  1.9106551     109.4724728
  34 BEND     10  4 11                  1.9106028     109.4694760
  35 BEND     12  5 13                  1.9107280     109.4766511
  36 BEND     12  5 14                  1.9105790     109.4681122
  37 BEND     13  5 14                  1.9107211     109.4762561
  38 TORSION   1  2  3  5              -3.0543650    -175.0022239
  39 TORSION   1  2  3  4               1.1344696      65.0003216
  40 TORSION   1  2  3  8              -0.9599982     -55.0038445
  41 TORSION   2  3  4  9              -1.0472350     -60.0021467
  42 TORSION   2  3  5 14              -1.0471410     -59.9967583
  43 TORSION   2  3  4 10               1.0471916      59.9996586
  44 TORSION   2  3  4 11               3.1415391     179.9969341
  45 TORSION   2  3  5 12               1.0471015      59.9944941
  46 TORSION   2  3  5 13               3.1415741     179.9989368
  47 TORSION   4  3  5 12               3.1414728     179.9931327
  48 TORSION   4  3  2  6              -0.9598686     -54.9964197
  49 TORSION   4  3  2  7              -3.0542288    -174.9944185
  50 TORSION   4  3  5 14               1.0472304      60.0018803
  51 TORSION   4  3  5 13              -1.0472399     -60.0024246
  52 TORSION   5  3  4 11               1.0471572      59.9976884
  53 TORSION   5  3  2  6               1.1344821      65.0010349
  54 TORSION   5  3  2  7              -0.9598781     -54.9969640
  55 TORSION   5  3  4  9               3.1415684     179.9986077
  56 TORSION   5  3  4 10              -1.0471903     -59.9995871
  57 TORSION   6  2  3  8              -3.0543364    -175.0005857
  58 TORSION   7  2  3  8               1.1344887      65.0014155
  59 TORSION   8  3  5 12              -1.0473502     -60.0087477
  60 TORSION   8  3  4 11              -1.0471493     -59.9972342
  61 TORSION   8  3  5 14               3.1415927     180.0000000
  62 TORSION   8  3  4  9               1.0472619      60.0036850
  63 TORSION   8  3  4 10              -3.1414968    -179.9945097
  64 TORSION   8  3  5 13               1.0471224      59.9956951

     ------------------------------------------
     THE POINT GROUP IS C1 , NAXIS= 1, ORDER= 1
     ------------------------------------------

     DIMENSIONS OF THE SYMMETRY SUBSPACES ARE
 A   =  157

 ..... DONE SETTING UP THE RUN .....
 STEP CPU TIME =     0.00 TOTAL CPU TIME =        0.0 (    0.0 MIN)
 TOTAL WALL CLOCK TIME=        0.0 SECONDS, CPU UTILIZATION IS   0.00%


          -----------------------------
          STATIONARY POINT LOCATION RUN
          -----------------------------

 OBTAINING INITIAL HESSIAN, HESS=GUESS   
 DIAGONAL GUESS HESSIAN IN INTERNAL COORDS IS
     1  0.3312     2  0.3464     3  0.3463     4  0.3671     5  0.3672
     6  0.3464     7  0.3671     8  0.3464     9  0.3464    10  0.3464
    11  0.3464    12  0.3464    13  0.3464    14  0.2286    15  0.2538
    16  0.2286    17  0.2485    18  0.2485    19  0.2241    20  0.2241
    21  0.2241    22  0.2241    23  0.2241    24  0.2241    25  0.2241
    26  0.2241    27  0.2241    28  0.2485    29  0.2241    30  0.2241
    31  0.2034    32  0.2034    33  0.2034    34  0.2034    35  0.2034
    36  0.2034    37  0.2034    38  0.2500    39  0.2500    40  0.2500
    41  0.2500    42  0.2500    43  0.2500    44  0.2500    45  0.2500
    46  0.2500    47  0.2500    48  0.2500    49  0.2500    50  0.2500
    51  0.2500    52  0.2500    53  0.2500    54  0.2500    55  0.2500
    56  0.2500    57  0.2500    58  0.2500    59  0.2500    60  0.2500
    61  0.2500    62  0.2500    63  0.2500    64  0.2500
 TRANSFORMING HESSIAN TO SYMMETRY COORDINATES

          PARAMETERS CONTROLLING GEOMETRY SEARCH ARE
          METHOD =QA                  UPHESS =BFGS    
          NNEG   =         0          NFRZ   =         3
          NSTEP  =        50          IFOLOW =         1
          HESS   =GUESS               RESTAR =         F
          IHREP  =         0          HSSEND =         F
          NPRT   =         0          NPUN   =         0
          OPTTOL = 5.000E-04          RMIN   = 1.500E-03
          RMAX   = 1.000E-01          RLIM   = 7.000E-02
          DXMAX  = 3.000E-01          PURIFY =         F
          MOVIE  =         F          TRUPD  =         T
          TRMAX  = 5.000E-01          TRMIN  = 5.000E-02
          ITBMAT =         5          STPT   =         F
          STSTEP = 1.000E-02          PROJCT=          F
          FROZEN COORD(S)=   1   2   3


      ***** EQUILIBRIUM GEOMETRY LOCATED *****
            (SUBJECT TO   3 CONSTRAINT(S))
 COORDINATES OF ALL ATOMS ARE (ANGS)
   ATOM   CHARGE       X              Y              Z
 ------------------------------------------------------------
 CL         17.0  -1.7511622693  -0.0250137790  -0.0871207434
 C           6.0  -0.1304005674  -0.7095480472   0.3913191849
 C           6.0   0.9764001567   0.0204897246  -0.3346764194
 C           6.0   1.0664073203   1.4508128393   0.1754916485
 C           6.0   2.2795706210  -0.7205763793  -0.0721488079
 H           1.0  -0.0402450471  -0.5716462824   1.4588359704
 H           1.0  -0.1638256780  -1.7589935797   0.1510129198
 H           1.0   0.7595076337   0.0082877686  -1.3985187045
 H           1.0   0.1180703399   1.9623634543   0.0725040329
 H           1.0   1.3297977482   1.4249024235   1.2303671356
 H           1.0   1.8258117526   2.0069974208  -0.3602411128
 H           1.0   2.2164908616  -1.7532081646  -0.3984100464
 H           1.0   3.0944361968  -0.2345606227  -0.5963313072
 H           1.0   2.4926227845  -0.7020149802   0.9933598470


                     --------------------
                     INTERNAL COORDINATES
                     --------------------

                 - - ATOMS - -         COORDINATE      COORDINATE
 NO.   TYPE    I  J  K  L  M  N        (BOHR,RAD)       (ANG,DEG)
 ----------------------------------------------------------------
   1 STRETCH   1  2                     3.4455050       1.8232829
   2 STRETCH   2  7                     2.0354729       1.0771259
   3 STRETCH   2  6                     2.0411989       1.0801560
   4 STRETCH   2  3                     2.8565711       1.5116324
   5 STRETCH   3  4                     2.8747428       1.5212485
   6 STRETCH   3  8                     2.0518558       1.0857954
   7 STRETCH   3  5                     2.8760816       1.5219570
   8 STRETCH   4 11                     2.0467102       1.0830725
   9 STRETCH   4 10                     2.0552090       1.0875698
  10 STRETCH   4  9                     2.0454776       1.0824202
  11 STRETCH   5 14                     2.0536761       1.0867587
  12 STRETCH   5 13                     2.0484007       1.0839670
  13 STRETCH   5 12                     2.0499424       1.0847829
  14 BEND      1  2  7                  1.8542413     106.2402002
  15 BEND      1  2  3                  1.9214557     110.0913020
  16 BEND      1  2  6                  1.8604264     106.5945830
  17 BEND      2  3  5                  1.8848702     107.9951078
  18 BEND      2  3  4                  1.9138210     109.6538642
  19 BEND      2  3  8                  1.8953406     108.5950169
  20 BEND      3  2  7                  1.9672052     112.7125564
  21 BEND      3  4 11                  1.9373848     111.0039749
  22 BEND      3  2  6                  1.9303787     110.6025552
  23 BEND      3  5 12                  1.9410352     111.2131247
  24 BEND      3  5 13                  1.9197838     109.9955074
  25 BEND      3  4 10                  1.8935812     108.4942092
  26 BEND      3  4  9                  1.9397138     111.1374119
  27 BEND      3  5 14                  1.9056871     109.1878257
  28 BEND      4  3  5                  1.9276252     110.4447869
  29 BEND      4  3  8                  1.9293987     110.5464026
  30 BEND      5  3  8                  1.9119486     109.5465830
  31 BEND      6  2  7                  1.9256643     110.3324352
  32 BEND      9  4 10                  1.8920193     108.4047214
  33 BEND      9  4 11                  1.9013306     108.9382164
  34 BEND     10  4 11                  1.8988467     108.7959021
  35 BEND     12  5 13                  1.9018971     108.9706776
  36 BEND     12  5 14                  1.8992071     108.8165538
  37 BEND     13  5 14                  1.8955651     108.6078797
  38 TORSION   1  2  3  5              -2.9909155    -171.3668334
  39 TORSION   1  2  3  4               1.1909327      68.2354169
  40 TORSION   1  2  3  8              -0.9189612     -52.6525967
  41 TORSION   2  3  4  9              -0.9806001     -56.1842473
  42 TORSION   2  3  5 14              -1.0834561     -62.0774607
  43 TORSION   2  3  4 10               1.0979929      62.9103611
  44 TORSION   2  3  4 11              -3.0996117    -177.5946674
  45 TORSION   2  3  5 12               1.0125626      58.0155607
  46 TORSION   2  3  5 13               3.1212405     178.8339075
  47 TORSION   4  3  5 12               3.1052262     177.9163546
  48 TORSION   4  3  2  6              -0.8605484     -49.3057935
  49 TORSION   4  3  2  7              -3.0254450    -173.3452323
  50 TORSION   4  3  5 14               1.0092076      57.8233333
  51 TORSION   4  3  5 13              -1.0692812     -61.2652985
  52 TORSION   5  3  4 11               1.1084270      63.5081868
  53 TORSION   5  3  2  6               1.2407887      71.0919562
  54 TORSION   5  3  2  7              -0.9241079     -52.9474826
  55 TORSION   5  3  4  9              -3.0557468    -175.0813930
  56 TORSION   5  3  4 10              -0.9771537     -55.9867847
  57 TORSION   6  2  3  8              -2.9704423    -170.1938071
  58 TORSION   7  2  3  8               1.1478464      65.7667541
  59 TORSION   8  3  5 12              -1.0487773     -60.0905151
  60 TORSION   8  3  4 11              -1.0104441     -57.8941820
  61 TORSION   8  3  5 14               3.1383893     179.8164636
  62 TORSION   8  3  4  9               1.1085675      63.5162381
  63 TORSION   8  3  4 10              -3.0960248    -177.3891535
  64 TORSION   8  3  5 13               1.0599006      60.7278318

          INTERNUCLEAR DISTANCES (ANGS.)


 =====================================================
   GAMESS/COSab RESULTS
 =====================================================

   Dielectric Constant                  = INFTY
   Basic Grid Size                      =                 1082
   Number of Segments                   =                   92
   Number of Segments located on spheres=                  211
   Number of Segments of the cavity     =                  484
   Solvent Radius (rsolv)               = 1.40
   Outlying Charge Error Method         = double cavity

 =====================================================

  Total solvated Energy (a.u.)          =  -616.2735323809
  Total Energy corrected (a.u.)         =  -616.2735429075

  Outlying charge effect (a.u.)         =    -0.0000105266
  Outlying charge effect (kcal/mol)     =    -0.0066055619

  Dielectric Energy (a.u.)              =    -0.0069409469
  Dielectric energy corr. (a.u.)        =    -0.0069514735

  Sum of polarization charges           =     0.0236789693
  Sum of polarization charges(cor.)     =    -0.0236789693

  Total surface area of cavity (A**2)   =  131.61
  Total volume of cavity (A**3)         =  124.05

 =====================================================
 NPS=                   484
NR.  ATOM  (X, Y, Z)(a.u.)                  CHARGE(e)  AREA(A**2) SIGMA(e/A**2)
   1   1  -6.723574   1.395882  -1.290174  -0.000963   0.536887  -0.001793
   2   1  -5.555745  -2.293657  -2.381454   0.004108   0.488079   0.008417
   3   1  -3.940830   0.867016  -3.875779   0.003398   0.439271   0.007735
   4   1  -3.909899   3.627879  -1.232265   0.002565   0.341655   0.007509
   5   1  -5.158597   2.283043   2.316643   0.003997   0.488079   0.008189
   6   1  -6.382045  -1.613542   1.599413   0.003773   0.439271   0.008590
   7   1  -6.841703   0.039845  -1.752504   0.000138   0.585695   0.000235
   8   1  -6.361441  -1.230994  -2.235898   0.002447   0.536887   0.004558
   9   1  -6.047658   1.326106  -2.535746   0.000055   0.585695   0.000093
  10   1  -5.029727   1.105880  -3.438396   0.002152   0.488079   0.004410
  11   1  -5.939716   2.533003  -1.360469  -0.000127   0.536887  -0.000236
  12   1  -4.927622   3.377143  -0.977969   0.002095   0.536887   0.003903
  13   1  -6.586402   2.013438  -0.020163  -0.000091   0.536887  -0.000169
  14   1  -6.124098   2.212984   1.240716   0.001946   0.488079   0.003987
  15   1  -7.136440   0.552284  -0.149121   0.000076   0.683311   0.000112
  16   1  -7.031857  -0.542836   0.786000   0.002682   0.585695   0.004579
  17   1  -5.134642  -1.400571  -3.302125   0.004188   0.536887   0.007801
  18   1  -4.568928  -0.292006  -3.819861   0.003795   0.488079   0.007776
  19   1  -3.913847   2.130598  -3.310860   0.003408   0.488079   0.006983
  20   1  -3.651294   3.147545  -2.328783   0.003598   0.488079   0.007371
  21   1  -4.232109   3.681316   0.338608   0.003650   0.439271   0.008309
  22   1  -4.935410   3.120455   1.361252   0.002723   0.390463   0.006974
  23   1  -5.826188   1.180778   2.511941   0.004211   0.536887   0.007843
  24   1  -6.346192  -0.303251   2.226720   0.004675   0.585695   0.007981
  25   1  -6.570207  -2.051170   0.433445   0.005161   0.634503   0.008134
  26   1  -6.276149  -2.353057  -1.107005   0.005037   0.634503   0.007938
  27   1  -4.300390  -2.557891  -2.943450   0.004983   0.536887   0.009280
  28   1  -2.960585  -2.621381  -3.038636   0.003603   0.488079   0.007383
  29   1  -2.597032  -1.551391  -3.662905   0.002265   0.292848   0.007734
  30   1  -3.175024  -0.285033  -4.028950   0.004889   0.488079   0.010017
  31   1  -2.836618   1.242297  -3.786944   0.004240   0.439271   0.009653
  32   1  -3.073478   2.549067   2.700812   0.002266   0.244040   0.009285
  33   1  -3.963339   2.548850   2.635293   0.003167   0.341655   0.009268
  34   1  -4.627841   1.282406   3.226604   0.004426   0.488079   0.009068
  35   1  -3.893728   0.401404   3.638569   0.003360   0.439271   0.007649
  36   1  -4.324334  -1.170951   3.401065   0.003915   0.536887   0.007292
  37   1  -5.478755  -1.597524   2.645553   0.006025   0.634503   0.009496
  38   1  -5.522447  -2.739311   1.527078   0.004995   0.536887   0.009304
  39   1  -4.514452  -3.495294   1.126077   0.003801   0.536887   0.007079
  40   1  -4.315181  -3.771196  -0.522185   0.003595   0.488079   0.007365
  41   1  -4.957464  -3.253920  -1.581714   0.005462   0.585695   0.009327
  42   1  -5.903582  -0.075742  -3.041417   0.001981   0.585695   0.003382
  43   1  -5.001641   2.545534  -2.492822   0.002073   0.683311   0.003033
  44   1  -5.562239   3.077430   0.244600   0.001964   0.585695   0.003353
  45   1  -6.717939   0.934862   1.392076   0.002533   0.634503   0.003991
  46   1  -7.002179  -1.068114  -0.736716   0.002070   0.585695   0.003534
  47   1  -3.759194  -1.530050  -3.715178   0.004592   0.488079   0.009409
  48   1  -2.716603   2.393329  -3.114162   0.003914   0.390463   0.010023
  49   1  -4.092753   3.227369   1.751124   0.003196   0.341655   0.009355
  50   1  -5.239322  -0.081789   3.194058   0.005463   0.585695   0.009328
  51   1  -5.547705  -3.205897  -0.024472   0.006034   0.634503   0.009509
  52   1  -3.318083   1.622508   3.330946   0.003407   0.439271   0.007755
  53   1  -4.485805  -2.614659   2.487067   0.003353   0.488079   0.006869
  54   1  -3.695466  -3.435464  -2.002681   0.002797   0.390463   0.007162
  55   2  -2.471227  -3.335938   3.053386  -0.000249   0.278737  -0.000895
  56   2   0.899766  -4.321982   2.760232  -0.000515   0.371649  -0.001385
  57   2  -0.737073  -3.240994  -2.490536  -0.000626   0.232280  -0.002696
  58   2   0.498432  -3.724177   3.576603  -0.000262   0.185824  -0.001409
  59   2  -2.013956  -2.781858   3.753383  -0.000676   0.278737  -0.002426
  60   2  -1.677566  -3.813248   3.214028  -0.000129   0.325193  -0.000397
  61   2  -0.244166  -4.351121   3.024779  -0.000087   0.325193  -0.000267
  62   2   1.342397  -3.509012   3.396367  -0.000623   0.185824  -0.003355
  63   2  -2.313554  -4.203728   2.086776  -0.000554   0.325193  -0.001703
  64   2  -0.744672  -3.762319   3.598247  -0.000072   0.278737  -0.000260
  65   2  -1.390553  -4.399639   2.641873  -0.000144   0.232280  -0.000621
  66   3   1.359501  -2.687602  -3.204531  -0.000095   0.092912  -0.001019
  67   3   3.398957   1.637919  -3.684063  -0.000044   0.139368  -0.000317
  68   3   3.684909   1.157881  -3.738388  -0.000007   0.046456  -0.000157
  69   4   4.566445   4.865261   2.138761   0.001815   0.371649   0.004884
  70   4   1.154188   3.903378  -3.160245   0.000701   0.325193   0.002155
  71   4   0.899643   5.079273   3.083958   0.001321   0.325193   0.004064
  72   4   2.218406   6.469874  -0.254225   0.001285   0.371649   0.003459
  73   4   5.484933   3.207247   1.755887   0.001011   0.278737   0.003626
  74   4   1.145878   6.338264  -0.438308   0.001398   0.371649   0.003761
  75   4   0.022649   5.019573   2.595484   0.001061   0.278737   0.003808
  76   4   0.261330   4.205304  -2.679315   0.001063   0.464561   0.002288
  77   4   5.089890   3.747338   2.285907   0.000931   0.232280   0.004007
  78   4   5.178308   4.445165   1.505123   0.001184   0.278737   0.004247
  79   4  -0.195101   3.367241   3.332877   0.000488   0.139368   0.003503
  80   4   0.260393   4.249421   3.320199   0.001248   0.278737   0.004478
  81   4   1.084208   5.892945   2.198932   0.001315   0.464561   0.002832
  82   4   1.781150   6.468855   0.912455   0.001143   0.464561   0.002460
  83   4   1.720970   6.040718  -1.488734   0.001938   0.418105   0.004634
  84   4   1.297329   4.859842  -2.715017   0.000822   0.232280   0.003541
  85   4   2.127731   4.065368  -3.206627   0.000782   0.325193   0.002404
  86   4   2.102331   5.495243   2.918983   0.001166   0.418105   0.002789
  87   4   3.487185   5.474838   2.487370   0.001311   0.418105   0.003135
  88   4   3.972841   5.765073   1.476534   0.001464   0.464561   0.003152
  89   4   3.074083   6.358106   0.621834   0.000899   0.371649   0.002419
  90   4   5.607992   3.664163   1.056284   0.000654   0.185824   0.003518
  91   4   0.859203   6.239920   1.174227   0.000670   0.278737   0.002404
  92   4  -0.475093   3.943700   2.908017   0.000498   0.139368   0.003571
  93   4   0.820196   5.484181  -1.978051   0.001333   0.325193   0.004099
  94   4   2.845405   3.376802  -3.300383   0.000068   0.092912   0.000728
  95   4   0.244037   3.224124   3.635339   0.000232   0.092912   0.002498
  96   4   2.524687   6.146018   1.892056   0.000929   0.464561   0.001999
  97   4   1.847052   5.262417  -2.479349   0.000875   0.232280   0.003768
  98   5   7.746520  -0.514249   1.183155   0.001698   0.371649   0.004569
  99   5   4.531126  -2.060503  -3.843901   0.000477   0.232280   0.002054
 100   5   7.527985  -2.733421  -1.562087   0.000956   0.325193   0.002940
 101   5   6.281093  -3.851535   1.910819   0.001201   0.371649   0.003231
 102   5   6.853346   1.110171   1.165276   0.000993   0.278737   0.003564
 103   5   5.719192  -4.562570   1.294199   0.001253   0.371649   0.003371
 104   5   6.800387  -3.589603  -1.899136   0.001360   0.371649   0.003659
 105   5   4.510802  -2.974696  -3.548263   0.000555   0.232280   0.002387
 106   5   7.381192   0.509021   1.020708   0.000659   0.185824   0.003549
 107   5   7.233192   0.026564   1.812735   0.001135   0.278737   0.004073
 108   5   3.541420  -2.905614  -3.499857   0.000370   0.232280   0.001593
 109   5   5.345920  -2.271544  -3.654668   0.001117   0.325193   0.003436
 110   5   6.769309  -2.813185  -2.609836   0.001624   0.371649   0.004369
 111   5   7.296836  -3.617186  -0.648591   0.001163   0.464561   0.002503
 112   5   6.967784  -3.850334   0.871208   0.001032   0.464561   0.002222
 113   5   5.043638  -4.246764   2.191546   0.001616   0.371649   0.004348
 114   5   4.029841  -4.160435   2.388338   0.001048   0.278737   0.003759
 115   5   4.929299  -1.248377  -3.862613   0.000585   0.278737   0.002098
 116   5   7.906334  -2.456946  -0.503679   0.000999   0.418105   0.002390
 117   5   8.023195  -1.582775   0.520119   0.001163   0.418105   0.002782
 118   5   7.643337  -1.701439   1.608013   0.001399   0.464561   0.003012
 119   5   7.112786  -2.948697   1.837865   0.000907   0.371649   0.002440
 120   5   6.567043   0.728372   2.057193   0.000616   0.185824   0.003315
 121   5   6.711252  -4.274277   0.019513   0.000561   0.278737   0.002013
 122   5   5.746373  -3.038715  -3.202643   0.001053   0.278737   0.003779
 123   5   3.934677  -4.655431   1.679227   0.000846   0.278737   0.003035
 124   5   4.882184  -0.411182  -3.748935   0.000178   0.139368   0.001280
 125   5   6.215439  -2.191472  -3.291728   0.000767   0.232280   0.003301
 126   5   7.683670  -2.875312   0.635949   0.000701   0.418105   0.001677
 127   6  -0.190992  -1.079458   5.210744  -0.003113   0.353299  -0.008811
 128   6  -0.928465   0.363291   4.552524  -0.002989   0.333671  -0.008958
 129   6   0.396658  -2.649191   4.587114  -0.001948   0.333671  -0.005839
 130   6  -1.465149  -1.847264   4.632204  -0.002311   0.353299  -0.006541
 131   6  -0.155828  -0.045344   4.983380  -0.002994   0.333671  -0.008974
 132   6   0.862225  -0.691541   4.993676  -0.003571   0.333671  -0.010703
 133   6   0.967692  -1.772678   4.870144  -0.003626   0.392554  -0.009236
 134   6  -0.450044  -2.207693   4.907162  -0.002829   0.431809  -0.006552
 135   6  -1.306134  -0.800661   4.864824  -0.002709   0.392554  -0.006900
 136   7  -0.591438  -5.689534  -0.314652  -0.003768   0.412182  -0.009142
 137   7  -1.029035  -4.595058  -1.689968  -0.002599   0.353299  -0.007356
 138   7  -1.942128  -5.158154   0.361945  -0.002704   0.333671  -0.008104
 139   7  -0.618876  -5.373265   1.604481  -0.001912   0.333671  -0.005730
 140   7   0.547055  -5.304875   1.459041  -0.001976   0.255160  -0.007744
 141   7  -0.121172  -4.955539  -1.541585  -0.004268   0.471065  -0.009060
 142   7  -1.501453  -5.210141  -0.742789  -0.003317   0.412182  -0.008046
 143   7  -1.312223  -5.469492   0.938657  -0.002944   0.412182  -0.007143
 144   7   0.133822  -5.695289   0.749700  -0.003064   0.353299  -0.008672
 145   7   0.360224  -5.619134  -0.279371  -0.003044   0.294415  -0.010340
 146   8   1.229803  -0.153730  -5.084978  -0.002458   0.431809  -0.005691
 147   8   2.555747  -0.502693  -4.766695  -0.001119   0.294415  -0.003802
 148   8   2.400062   1.267527  -4.523517  -0.000987   0.294415  -0.003354
 149   8   0.481912   1.501159  -4.351471  -0.001351   0.314043  -0.004302
 150   8   1.174821  -1.852793  -4.216390  -0.001154   0.333671  -0.003459
 151   8   2.435263   0.404805  -4.852703  -0.001705   0.392554  -0.004342
 152   8   1.367576   1.271628  -4.753035  -0.001751   0.412182  -0.004249
 153   8   0.284302   0.330217  -4.790240  -0.002290   0.412182  -0.005556
 154   8   0.408224  -1.142652  -4.550326  -0.002177   0.412182  -0.005281
 155   8   1.783454  -1.208060  -4.744322  -0.001443   0.392554  -0.003676
 156   9  -1.555223   5.395727  -0.022097  -0.002129   0.353299  -0.006026
 157   9  -0.731327   4.909786  -1.781491  -0.000753   0.255160  -0.002953
 158   9  -0.514137   6.046733  -0.016175  -0.001069   0.353299  -0.003026
 159   9  -0.959097   5.183210   1.706158  -0.000419   0.196277  -0.002134
 160   9  -1.291202   5.192449  -1.103691  -0.001206   0.255160  -0.004728
 161   9  -0.514711   5.771582  -0.973723  -0.000844   0.314043  -0.002687
 162   9  -0.833278   5.787671   0.908700  -0.001303   0.372926  -0.003494
 163   9  -1.471475   4.934671   1.425251  -0.001178   0.274788  -0.004287
 164  10   3.021294   3.348834   4.637222  -0.002115   0.412182  -0.005131
 165  10   4.584158   3.173510   3.555514  -0.001084   0.392554  -0.002762
 166  10   1.307585   3.313935   4.373509  -0.000825   0.333671  -0.002472
 167  10   2.940504   4.454066   3.983300  -0.000744   0.333671  -0.002229
 168  10   3.957287   2.669164   4.312124  -0.002158   0.392554  -0.005497
 169  10   2.977722   2.038741   4.647001  -0.002501   0.392554  -0.006370
 170  10   1.949898   2.563744   4.712815  -0.002014   0.392554  -0.005131
 171  10   2.033404   4.030361   4.328971  -0.000961   0.353299  -0.002720
 172  10   3.875519   4.045493   3.857503  -0.001003   0.372926  -0.002689
 173  11   5.002218   5.303593  -1.839925  -0.002777   0.471065  -0.005895
 174  11   5.827527   4.272015  -0.288301  -0.001267   0.353299  -0.003586
 175  11   4.910208   5.679361  -0.094158  -0.000945   0.353299  -0.002675
 176  11   3.494168   6.014219  -1.728547  -0.000960   0.372926  -0.002575
 177  11   3.672950   4.435945  -3.041198  -0.001075   0.392554  -0.002738
 178  11   5.602298   4.316109  -1.743729  -0.002616   0.412182  -0.006346
 179  11   5.539517   5.072582  -0.501859  -0.001664   0.392554  -0.004238
 180  11   4.338808   6.068098  -0.941571  -0.001841   0.471065  -0.003907
 181  11   3.813462   5.393511  -2.508453  -0.001957   0.471065  -0.004155
 182  11   4.700787   4.059328  -2.778421  -0.002704   0.510320  -0.005299
 183  12   4.365991  -5.624257  -1.566546  -0.002725   0.451437  -0.006036
 184  12   3.781903  -5.431091   0.423443  -0.001354   0.353299  -0.003831
 185  12   5.291424  -5.391725  -0.047198  -0.000951   0.353299  -0.002693
 186  12   5.649879  -4.749370  -2.108124  -0.000970   0.372926  -0.002601
 187  12   3.826987  -4.303168  -2.971909  -0.000989   0.372926  -0.002651
 188  12   3.456369  -5.647357  -0.976778  -0.002437   0.372926  -0.006536
 189  12   4.387472  -5.690492  -0.166864  -0.001492   0.333671  -0.004471
 190  12   5.581986  -5.306660  -1.097941  -0.001901   0.471065  -0.004035
 191  12   4.728902  -4.844494  -2.596215  -0.001972   0.471065  -0.004186
 192  12   3.216582  -4.967506  -2.286904  -0.002777   0.490692  -0.005660
 193  13   7.808610   0.454288  -2.303406  -0.002906   0.471065  -0.006170
 194  13   7.689301   0.991566  -0.362258  -0.001225   0.412182  -0.002972
 195  13   6.109753   0.504118  -3.378331  -0.001456   0.333671  -0.004363
 196  13   7.263590  -1.095919  -3.025394  -0.001043   0.372926  -0.002797
 197  13   8.252494  -0.936628  -1.218504  -0.000915   0.372926  -0.002455
 198  13   7.513726   1.334354  -1.442168  -0.002405   0.392554  -0.006127
 199  13   6.885863   1.109849  -2.722242  -0.002689   0.412182  -0.006524
 200  13   6.871764  -0.156124  -3.341374  -0.001799   0.431809  -0.004167
 201  13   7.963059  -0.876256  -2.298509  -0.001939   0.451437  -0.004296
 202  13   8.233918   0.131018  -1.021952  -0.002142   0.490692  -0.004366
 203  14   5.581302  -1.747241   4.135426  -0.002486   0.451437  -0.005506
 204  14   6.137396   0.094461   3.284029  -0.001042   0.294415  -0.003538
 205  14   6.760369  -1.424433   3.227383  -0.001048   0.372926  -0.002811
 206  14   5.276849  -3.004686   3.579627  -0.001050   0.372926  -0.002815
 207  14   5.316029  -0.484260   4.103997  -0.002427   0.392554  -0.006182
 208  14   6.389472  -0.675250   3.547940  -0.001241   0.333671  -0.003718
 209  14   6.263531  -2.463144   3.403982  -0.001234   0.392554  -0.003143
 210  14   4.355719  -2.670015   3.903171  -0.001927   0.431809  -0.004463
 211  14   4.456327  -1.331737   4.320651  -0.002913   0.412182  -0.007068
 212   1  -3.007952  -1.440094   3.585093  -0.000065   0.035737  -0.001815
 213   2  -2.497731  -1.672290   3.773646  -0.000224   0.035737  -0.006260
 214   6  -2.280751  -1.571415   3.954846  -0.000340   0.035737  -0.009527
 215   1  -3.256647  -3.921658   0.871208  -0.000066   0.035913  -0.001831
 216   2  -2.748489  -4.176034   1.035145  -0.000249   0.035913  -0.006940
 217   7  -2.562757  -4.364431   0.896445  -0.000272   0.035913  -0.007572
 218   1  -2.057584  -3.249838  -2.229495  -0.000034   0.035913  -0.000956
 219   2  -1.534854  -3.496050  -2.103241  -0.000233   0.035913  -0.006487
 220   7  -1.458820  -3.745909  -1.958270  -0.000277   0.035913  -0.007718
 221   1  -1.342648  -2.023461  -3.070109  -0.000086   0.125647  -0.000683
 222   2  -0.814927  -2.263656  -2.936686  -0.000545   0.125647  -0.004336
 223   8  -0.389789  -1.828796  -3.361709  -0.000547   0.125647  -0.004351
 224   2  -2.742867  -2.152077   3.504034  -0.000518   0.243977  -0.002124
 225   2  -2.908768  -3.492904   2.147635  -0.001384   0.494373  -0.002799
 226   1  -3.591508  -2.390156   2.812930   0.000528   0.497540   0.001061
 227   1  -3.683400  -3.633259   1.345640   0.000303   0.247175   0.001227
 228   2  -1.363217  -3.063982  -2.474352  -0.000597   0.239920  -0.002488
 229   1  -2.003861  -2.582557  -2.840624   0.000413   0.243065   0.001698
 230   1  -1.653506   1.603956   3.158295  -0.000256   0.225695  -0.001136
 231   4  -0.705565   2.083996   3.213459  -0.000447   0.225695  -0.001981
 232   6  -1.010949   1.245535   3.551582  -0.001694   0.225695  -0.007504
 233   1  -1.152122   2.085370  -2.977266   0.001242   0.218946   0.005675
 234   4  -0.220024   2.593265  -2.914479   0.000172   0.218946   0.000786
 235   8  -0.204600   1.955345  -3.329666  -0.000227   0.218946  -0.001039
 236   1  -1.640057   3.106195  -2.299514   0.000690   0.085096   0.008113
 237   4  -0.722074   3.629631  -2.269069  -0.000061   0.085096  -0.000718
 238   9  -0.946068   3.760136  -2.110361  -0.000115   0.085096  -0.001347
 239   1  -2.090460   3.170899   2.169050   0.000640   0.085096   0.007524
 240   4  -1.183350   3.695896   2.307381  -0.000019   0.085096  -0.000224
 241   9  -1.370798   3.821151   2.103500  -0.000103   0.085096  -0.001215
 242   4  -0.972285   3.263675   2.843456   0.001064   0.492820   0.002158
 243   1  -2.212300   2.355270   2.890610   0.002058   0.501919   0.004100
 244   4  -0.450788   3.263245  -2.749043   0.000571   0.287218   0.001989
 245   1  -1.862197   2.701465  -2.810962   0.002002   0.292528   0.006845
 246   6  -1.379235   0.655246   4.011804  -0.001552   0.216056  -0.007183
 247   6  -1.964279  -0.652387   4.196916  -0.003697   0.440667  -0.008390
 248   1  -2.659246   0.614975   3.635823   0.000811   0.607819   0.001334
 249   1  -3.241685  -0.933974   3.732726   0.000684   0.311751   0.002196
 250   7  -2.479732  -4.574535   0.529975  -0.001273   0.186361  -0.006828
 251   7  -2.212192  -4.499229  -0.705010  -0.003101   0.377946  -0.008206
 252   7  -1.604010  -4.083879  -1.734590  -0.001175   0.186361  -0.006307
 253   1  -3.461784  -3.984755  -0.098415   0.000820   0.527185   0.001555
 254   1  -2.829374  -3.630424  -1.733787   0.000750   0.527185   0.001423
 255   8  -0.261090  -1.480442  -3.882619  -0.000548   0.214250  -0.002557
 256   8  -0.467130  -0.355362  -4.248511  -0.001398   0.431493  -0.003239
 257   8  -0.371551   1.087700  -4.028877  -0.000975   0.431493  -0.002260
 258   1  -1.791047  -1.255326  -3.691243   0.002607   0.616285   0.004230
 259   1  -1.930699   0.432339  -3.915748   0.004063   0.616285   0.006592
 260   1  -1.719437   1.730128  -3.478326   0.002085   0.312022   0.006682
 261   9  -1.254143   4.079449  -1.922193  -0.000226   0.226331  -0.000998
 262   9  -1.871503   4.576654  -0.883232  -0.001609   0.457164  -0.003520
 263   9  -2.030429   4.599485   0.693513  -0.001653   0.457164  -0.003616
 264   9  -1.634212   4.134048   1.848575  -0.000170   0.226331  -0.000749
 265   1  -2.647374   3.488900  -1.896049   0.004626   0.646496   0.007155
 266   1  -3.275249   3.944744  -0.219023   0.004648   0.646496   0.007189
 267   1  -2.995915   3.538971   1.561919   0.004873   0.646496   0.007538
 268   2   0.523956  -3.521837  -2.257033  -0.000250   0.022501  -0.011123
 269   3   0.883910  -3.254574  -2.461365  -0.000193   0.022501  -0.008586
 270   7   0.457841  -3.768707  -2.103117  -0.000262   0.022501  -0.011659
 271   2   0.148452  -2.651779  -2.895043  -0.000188   0.028635  -0.006550
 272   3   0.502716  -2.438839  -3.163483  -0.000170   0.028635  -0.005954
 273   8   0.511185  -2.234610  -3.386773  -0.000153   0.028635  -0.005348
 274   3   0.841379  -2.885245  -2.864520  -0.000423   0.145350  -0.002910
 275   2   0.204918  -3.121807  -2.601735  -0.000617   0.145350  -0.004243
 276   2   1.626721  -4.518185   1.724830  -0.000489   0.064449  -0.007595
 277   5   2.410754  -4.453867   1.537285  -0.000347   0.064449  -0.005390
 278   7   1.481938  -4.687016   1.523362  -0.000587   0.064449  -0.009113
 279   2   2.402096  -3.231180   3.062314  -0.000463   0.064532  -0.007170
 280   5   3.203668  -3.284862   2.969905  -0.000155   0.064532  -0.002405
 281  14   3.357189  -3.100942   3.158102  -0.000242   0.064532  -0.003743
 282   5   3.018401  -3.885154   2.441737  -0.000232   0.465258  -0.000498
 283   2   1.833534  -4.097698   2.397938  -0.001867   0.465258  -0.004012
 284   2   1.878925  -2.746657   3.608846  -0.000609   0.082323  -0.007392
 285   6   1.772030  -2.550437   3.812852  -0.000727   0.082323  -0.008825
 286  14   2.825830  -2.554403   3.553395  -0.000520   0.082323  -0.006320
 287   6  -1.845526  -1.921448   4.225958  -0.000535   0.077745  -0.006881
 288   6  -0.897248  -2.740166   4.251636  -0.001325   0.178405  -0.007425
 289   6   0.595473  -2.892821   4.145285  -0.001627   0.178405  -0.009121
 290   2  -1.717074  -2.478689   3.952764  -0.001223   0.165199  -0.007405
 291   2  -0.214391  -3.247013   3.925108  -0.001111   0.165199  -0.006722
 292   2   1.150481  -3.075234   3.787642  -0.000677   0.094983  -0.007126
 293   7   0.837403  -4.928798   1.737063  -0.000669   0.076796  -0.008711
 294   7  -0.374299  -4.954829   2.019281  -0.001451   0.176087  -0.008240
 295   7  -1.758290  -4.787502   1.481045  -0.001489   0.176087  -0.008455
 296   2   0.472625  -4.683700   2.188301  -0.001330   0.163247  -0.008149
 297   2  -1.203335  -4.627994   2.178140  -0.001193   0.163247  -0.007305
 298   2  -2.326237  -4.417852   1.416606  -0.000585   0.093823  -0.006233
 299   7  -0.924864  -4.020439  -1.984745  -0.000472   0.071934  -0.006565
 300   7  -0.013601  -4.036070  -2.043229  -0.000600   0.071934  -0.008344
 301   2  -0.472794  -3.655836  -2.169017  -0.001356   0.155298  -0.008729
 302   8   0.330790  -2.029641  -3.596093  -0.000512   0.122799  -0.004167
 303   2  -0.356225  -2.603953  -2.943316  -0.000336   0.173298  -0.001939
 304  14   3.422365  -2.856899   3.521366  -0.000299   0.131128  -0.002279
 305   2   2.030768  -3.185863   3.439289  -0.000335   0.185695  -0.001805
 306   3   2.791567   2.088116  -3.672710  -0.000057   0.026363  -0.002150
 307   4   2.807981   2.539712  -3.468350  -0.000027   0.026363  -0.001012
 308   8   2.614116   1.921692  -3.852692  -0.000101   0.026363  -0.003828
 309   3   3.309908   2.419193  -3.334243  -0.000037   0.025540  -0.001444
 310   4   3.353212   2.896596  -3.207106  -0.000048   0.025540  -0.001880
 311  11   3.560668   3.100882  -3.129612  -0.000086   0.025540  -0.003358
 312   4   3.136614   2.827813  -3.333817   0.000026   0.059205   0.000444
 313   3   3.026856   2.170629  -3.592002   0.000001   0.059205   0.000023
 314   3   2.152163  -2.422118  -3.494825  -0.000068   0.027636  -0.002451
 315   5   2.582804  -2.638240  -3.376180  -0.000037   0.027636  -0.001347
 316   8   2.051372  -2.218886  -3.695195  -0.000109   0.027636  -0.003938
 317   3   3.799090   0.343873  -3.862315  -0.000063   0.027636  -0.002283
 318   5   4.208445   0.092001  -3.738920  -0.000022   0.027636  -0.000811
 319   8   3.550904   0.299556  -4.029796  -0.000085   0.027636  -0.003059
 320   3   2.252757  -3.005733  -3.015750  -0.000070   0.025389  -0.002756
 321   5   2.667506  -3.272990  -2.963485  -0.000074   0.025389  -0.002915
 322  12   2.766790  -3.536874  -2.854980  -0.000110   0.025389  -0.004320
 323   3   4.387803   0.578866  -3.521690  -0.000054   0.026941  -0.001994
 324   5   4.825730   0.350416  -3.474251  -0.000066   0.026941  -0.002455
 325  13   5.111609   0.419295  -3.406452  -0.000084   0.026941  -0.003133
 326   5   2.684149  -3.065380  -3.160886  -0.000013   0.071789  -0.000182
 327   3   2.116862  -2.664050  -3.335741  -0.000039   0.071789  -0.000546
 328   5   4.611107   0.151484  -3.645724   0.000009   0.062509   0.000149
 329   3   4.031453   0.560267  -3.738148  -0.000019   0.062509  -0.000305
 330   3   1.442613  -3.379588  -2.393743  -0.000816   0.168250  -0.004848
 331   7   1.008116  -3.858270  -1.989527  -0.001306   0.168250  -0.007765
 332  12   2.010536  -3.855932  -2.221080  -0.000853   0.168250  -0.005069
 333   7   0.447099  -3.961066  -2.047404  -0.000192   0.022127  -0.008676
 334   3   1.107735  -3.250756  -2.623066  -0.000007   0.031199  -0.000227
 335   8   1.366086  -2.095361  -3.812492  -0.000466   0.113538  -0.004103
 336   3   1.192970  -2.362481  -3.432592  -0.000536   0.138712  -0.003865
 337   8   2.740374   1.463437  -4.133488  -0.000233   0.072580  -0.003214
 338   8   3.195762   0.681178  -4.217362  -0.000244   0.072580  -0.003364
 339   3   3.234336   1.196667  -3.889595  -0.000618   0.157420  -0.003929
 340   3   4.370797   1.732692  -3.000597  -0.000361   0.167105  -0.002158
 341  11   4.531793   2.431754  -2.753039  -0.000452   0.167105  -0.002703
 342  13   5.067947   1.484942  -2.853396  -0.000580   0.167105  -0.003468
 343  11   4.100780   3.061358  -2.986029  -0.000502   0.166524  -0.003016
 344   3   3.659339   2.098132  -3.387745   0.000021   0.234655   0.000090
 345  12   2.596314  -3.878198  -2.619703  -0.000458   0.124353  -0.003684
 346   3   1.859955  -3.090315  -2.961752  -0.000090   0.175275  -0.000515
 347  13   5.337169   0.717112  -3.288811  -0.000533   0.156234  -0.003414
 348   3   4.310089   1.156862  -3.426583  -0.000049   0.220244  -0.000224
 349   4   5.176950   2.307587   2.432011   0.000044   0.067996   0.000642
 350   5   5.517906   1.567998   2.304683   0.000067   0.067996   0.000989
 351  10   5.025272   2.300056   2.696854  -0.000141   0.067996  -0.002073
 352   4   6.008936   2.413596   0.413356   0.000089   0.064442   0.001374
 353   5   6.478853   1.739879   0.347314   0.000020   0.064442   0.000304
 354  13   6.613769   1.702964   0.078237  -0.000156   0.064442  -0.002423
 355   5   6.269058   1.622959   1.203751   0.000738   0.525938   0.001403
 356   4   5.582261   2.540462   1.668151   0.000811   0.525938   0.001541
 357   4   0.265796   2.313324   3.725688  -0.000160   0.083634  -0.001916
 358   6  -0.017982   1.433642   3.931234  -0.000596   0.083634  -0.007121
 359  10   0.519590   2.299886   3.896788  -0.000285   0.083634  -0.003413
 360   6  -0.544624   1.103662   4.055497  -0.000762   0.121327  -0.006280
 361   4  -0.196438   2.388582   3.618416   0.000241   0.171517   0.001406
 362   8   0.475964   2.029375  -3.772922  -0.000493   0.175989  -0.002799
 363   8   1.741567   2.005663  -3.997957  -0.001336   0.358129  -0.003730
 364   4   1.028622   3.019619  -3.346332   0.000182   0.484627   0.000376
 365   4   2.475734   2.904476  -3.522965   0.000303   0.247993   0.001220
 366   9  -0.977387   4.411551   2.161288  -0.000100   0.068515  -0.001460
 367   9  -0.449208   5.316240   1.791452  -0.000403   0.152224  -0.002646
 368   9   0.043537   6.022127   0.760453  -0.000367   0.152224  -0.002411
 369   9   0.178220   6.002778  -0.575780  -0.000306   0.152224  -0.002008
 370   9  -0.100951   5.266211  -1.663697  -0.000332   0.152224  -0.002183
 371   9  -0.547333   4.349771  -2.105392  -0.000166   0.068515  -0.002425
 372   4  -0.472575   4.678597   2.329921  -0.000063   0.150056  -0.000418
 373   4   0.203385   5.772892   1.541103  -0.000151   0.150056  -0.001007
 374   4   0.575605   6.180179   0.136750  -0.000172   0.150056  -0.001149
 375   4   0.489888   5.731734  -1.301370  -0.000054   0.150056  -0.000362
 376   4  -0.018257   4.613331  -2.177499  -0.000201   0.150056  -0.001342
 377  10   4.870562   2.940226   2.958404  -0.000134   0.073195  -0.001828
 378  10   4.366617   3.988371   3.109987  -0.000291   0.164453  -0.001767
 379  10   3.190983   4.709993   3.421270  -0.000391   0.164453  -0.002378
 380  10   1.834554   4.489138   3.754546  -0.000390   0.164453  -0.002370
 381  10   0.922337   3.427572   3.956251  -0.000451   0.164453  -0.002742
 382   4   4.859514   3.458065   2.627512  -0.000085   0.158671  -0.000538
 383   4   3.887343   4.683576   2.900368  -0.000095   0.158671  -0.000601
 384   4   2.376021   4.982472   3.285089  -0.000176   0.158671  -0.001112
 385   4   1.021925   4.217028   3.604406  -0.000018   0.158671  -0.000112
 386   4   0.401893   3.088067   3.731496  -0.000048   0.089424  -0.000536
 387   4   5.851172   2.945598   0.214467  -0.000015   0.086440  -0.000170
 388  11   5.861468   3.132289  -0.025600  -0.000197   0.086440  -0.002279
 389  13   6.320650   2.152933  -0.150160  -0.000020   0.086440  -0.000234
 390  11   3.536756   3.631047  -3.131684  -0.000177   0.066538  -0.002662
 391  11   3.010379   4.550551  -2.923231  -0.000399   0.146886  -0.002719
 392  11   2.798095   5.584019  -2.151237  -0.000241   0.146886  -0.001639
 393  11   3.165793   6.156999  -1.035178  -0.000358   0.146886  -0.002435
 394  11   3.970013   6.045940  -0.010488  -0.000365   0.146886  -0.002484
 395  11   4.896987   5.294174   0.523047  -0.000309   0.146886  -0.002103
 396  11   5.585053   4.195003   0.357267  -0.000258   0.146886  -0.001756
 397   4   2.963810   3.761527  -3.135965  -0.000308   0.146640  -0.002099
 398   4   2.418708   5.017773  -2.604464  -0.000123   0.146640  -0.000837
 399   4   2.510618   5.967816  -1.487882  -0.000118   0.146640  -0.000804
 400   4   3.203683   6.240994  -0.221856  -0.000119   0.146640  -0.000810
 401   4   4.227501   5.730724   0.699669  -0.000114   0.146640  -0.000776
 402   4   5.182626   4.636091   0.917157   0.000011   0.146640   0.000077
 403   4   5.688080   3.613388   0.571910  -0.000062   0.081291  -0.000761
 404  13   6.793672   1.759450  -0.103822  -0.000001   0.034036  -0.000022
 405   4   6.014693   2.872516   0.438294   0.000188   0.048312   0.003890
 406   5   2.870829  -4.701640   1.111746  -0.000256   0.084424  -0.003028
 407   7   1.920626  -4.798909   1.047686  -0.000657   0.084424  -0.007777
 408  12   2.925852  -4.863547   0.859052  -0.000345   0.084424  -0.004088
 409   7   1.420754  -4.939804   1.345212  -0.000360   0.066031  -0.005449
 410   5   2.809003  -4.694659   1.459138   0.000126   0.093438   0.001350
 411   8   3.323897  -0.072331  -4.252370  -0.000627   0.213672  -0.002937
 412   8   2.583253  -1.420492  -4.144398  -0.002086   0.439715  -0.004744
 413   5   4.008572  -1.044959  -3.881648  -0.000094   0.583128  -0.000161
 414   5   3.080157  -2.509261  -3.622304   0.000250   0.301055   0.000829
 415   5   5.692755   1.073411   2.499954  -0.000071   0.085631  -0.000834
 416  10   5.088804   1.760253   2.808357  -0.000061   0.085631  -0.000709
 417  14   5.638954   0.901630   2.747601  -0.000246   0.085631  -0.002878
 418  10   5.008372   2.314476   2.943843   0.000013   0.026464   0.000494
 419   5   5.846327   1.283546   2.428417   0.000156   0.037475   0.004170
 420  12   3.230808  -3.803217  -2.959524  -0.000233   0.070905  -0.003281
 421  12   4.366436  -3.832116  -3.087629  -0.000513   0.158461  -0.003240
 422  12   5.603322  -4.084037  -2.529435  -0.000356   0.158461  -0.002245
 423  12   6.189805  -4.492876  -1.348833  -0.000465   0.158461  -0.002935
 424  12   5.868797  -4.879414  -0.063347  -0.000509   0.158461  -0.003212
 425  12   4.781013  -5.074212   0.763523  -0.000366   0.158461  -0.002307
 426  12   3.646054  -5.047317   0.897842  -0.000199   0.070905  -0.002806
 427   5   3.632322  -3.407443  -3.179674  -0.000417   0.154446  -0.002700
 428   5   5.168903  -3.548185  -3.031315  -0.000117   0.154446  -0.000759
 429   5   6.254021  -3.941415  -1.996528  -0.000149   0.154446  -0.000967
 430   5   6.412010  -4.414758  -0.528916  -0.000240   0.154446  -0.001553
 431   5   5.573614  -4.760721   0.728184  -0.000183   0.154446  -0.001185
 432   5   4.106348  -4.827650   1.223714  -0.000184   0.154446  -0.001189
 433  13   7.164383   1.263886   0.046439  -0.000178   0.071261  -0.002495
 434  13   7.775438   0.290972   0.094293  -0.000381   0.159526  -0.002389
 435  13   8.112786  -0.916511  -0.500825  -0.000463   0.159526  -0.002900
 436  13   7.840609  -1.677194  -1.629215  -0.000488   0.159526  -0.003057
 437  13   7.079809  -1.653180  -2.789642  -0.000444   0.159526  -0.002786
 438  13   6.168337  -0.855135  -3.466640  -0.000471   0.159526  -0.002954
 439  13   5.564527   0.122946  -3.498440  -0.000212   0.071261  -0.002974
 440   5   7.248019   0.845887   0.478084  -0.000207   0.154966  -0.001336
 441   5   7.923620  -0.539059   0.244254  -0.000189   0.154966  -0.001219
 442   5   7.962434  -1.711247  -0.782223  -0.000266   0.154966  -0.001717
 443   5   7.347220  -2.149988  -2.145383  -0.000172   0.154966  -0.001108
 444   5   6.351258  -1.660392  -3.239706  -0.000221   0.154966  -0.001426
 445   5   5.416957  -0.459938  -3.579089  -0.000402   0.154966  -0.002596
 446  14   4.018722  -3.241412   3.253672  -0.000173   0.067682  -0.002550
 447  14   5.078329  -3.398327   3.044534  -0.000370   0.149582  -0.002473
 448  14   6.277784  -2.904238   2.796098  -0.000385   0.149582  -0.002571
 449  14   6.946950  -1.775873   2.642651  -0.000401   0.149582  -0.002681
 450  14   6.820186  -0.461163   2.645107  -0.000263   0.149582  -0.001759
 451  14   6.193321   0.425454   2.755013  -0.000154   0.067682  -0.002280
 452   5   4.295634  -3.589528   2.862317  -0.000137   0.149027  -0.000916
 453   5   5.747632  -3.496146   2.570362  -0.000091   0.149027  -0.000613
 454   5   6.853699  -2.535789   2.332481  -0.000230   0.149027  -0.001542
 455   5   7.174755  -1.089693   2.243107  -0.000075   0.149027  -0.000501
 456   5   6.583350   0.268079   2.337720  -0.000133   0.149027  -0.000892
 457   6   2.142242  -0.233093   4.133174  -0.002408   0.291003  -0.008275
 458  10   2.726726   0.612044   4.048884  -0.001725   0.291003  -0.005927
 459  14   3.218763  -0.288532   3.935028  -0.001673   0.291003  -0.005749
 460  10   0.801325   2.179564   4.287528  -0.000279   0.281487  -0.000991
 461  10   1.873965   1.468085   4.502270  -0.002193   0.563392  -0.003893
 462   6   0.390089   0.716849   4.546031  -0.003574   0.563392  -0.006345
 463   6   1.468294  -0.013061   4.633076  -0.001620   0.281487  -0.005756
 464  14   3.472160  -0.976052   4.238645  -0.000679   0.239924  -0.002832
 465  14   3.382864  -2.029471   4.047793  -0.001467   0.479664  -0.003058
 466   6   1.917879  -1.303977   4.472027  -0.002692   0.479664  -0.005612
 467   6   1.814367  -2.337632   4.198287  -0.000810   0.239924  -0.003376
 468  12   2.879147  -5.221489   0.563343  -0.000289   0.252364  -0.001146
 469  12   2.616894  -5.378862  -0.574509  -0.001873   0.504799  -0.003710
 470  12   2.323805  -4.767370  -1.837844  -0.001751   0.504799  -0.003468
 471   7   1.353770  -5.316930   0.461439  -0.002932   0.504799  -0.005809
 472   7   1.032227  -5.192470  -0.930308  -0.003136   0.504799  -0.006212
 473   7   0.821453  -4.468701  -1.835836  -0.000998   0.252364  -0.003956
 474  14   5.604750   0.816550   3.185411  -0.000012   0.231194  -0.000051
 475  14   4.896336   0.352783   3.871650  -0.001222   0.462347  -0.002643
 476  14   3.991249  -0.175410   4.171119  -0.000638   0.231194  -0.002758
 477  10   4.654311   1.920231   3.609903  -0.000842   0.462347  -0.001821
 478  10   3.647530   1.301275   4.224958  -0.001474   0.462347  -0.003188
 479  13   5.693531   1.577228  -2.896688  -0.000275   0.241900  -0.001138
 480  13   6.420641   1.912451  -2.172350  -0.001102   0.483612  -0.002278
 481  13   6.815977   2.003932  -0.916620  -0.000676   0.483612  -0.001398
 482  11   5.221643   3.065342  -2.498409  -0.000834   0.483612  -0.001725
 483  11   5.943698   3.361923  -1.434363  -0.000818   0.483612  -0.001691
 484  11   6.081052   3.326923  -0.364019   0.000098   0.241900   0.000404
 =====================================================


   1 warning(s) detected.
     A line exceeding 80 characters begins with "http://cactus.nci.ni".
 There may be a problem in your input file.

              2082797  WORDS OF DYNAMIC MEMORY USED
 EXECUTION OF GAMESS TERMINATED NORMALLY Tue Nov 22 20:59:01 2016
 DDI: 263640 bytes (0.3 MB / 0 MWords) used by master data server.

 ----------------------------------------
 CPU timing information for all processes
 ========================================
 0: 681.76 + 0.288 = 681.364
 ----------------------------------------
 ddikick.x: exited gracefully.
