----- GAMESS execution script -----

          ******************************************************
          *         GAMESS VERSION =  5 DEC 2014 (R1)          *
          *             FROM IOWA STATE UNIVERSITY             *
          * M.W.SCHMIDT, K.K.BALDRIDGE, J.A.BOATZ, S.T.ELBERT, *
          *   M.S.GORDON, J.H.JENSEN, S.KOSEKI, N.MATSUNAGA,   *
          *          K.A.NGUYEN, S.J.SU, T.L.WINDUS,           *
          *       TOGETHER WITH M.DUPUIS, J.A.MONTGOMERY       *
          *         J.COMPUT.CHEM.  14, 1347-1363(1993)        *
          **************** 64 BIT LINUX VERSION ****************

 EXECUTION OF GAMESS BEGUN Tue Nov 22 20:59:04 2016

            ECHO OF THE FIRST FEW INPUT CARDS -
 INPUT CARD>! SELECT RESTRICTED HARTREE-FOCK AS DEFAULT                                     
 INPUT CARD>$contrl scftyp=rhf $end                                                         
 INPUT CARD>                                                                                
 INPUT CARD>! THEORY: HF OR DFT                                                             
 INPUT CARD> $contrl mplevl=0 $end                                                          
 INPUT CARD>                                                                                
 INPUT CARD> $system timlim=10000 mwords=20 $end                                            
 INPUT CARD> $SCF DIRSCF=.TRUE. $end                                                        
 INPUT CARD>                                                                                
 INPUT CARD>                                                                                
 INPUT CARD>! BASIS SETS                                                                    
 INPUT CARD>! 6-311G(d,p)                                                                   
 INPUT CARD> $BASIS GBASIS=N311 NGAUSS=6 NDFUNC=1 NPFUNC=1 $END                             
 INPUT CARD>                                                                                
 INPUT CARD>! One of the following                                                          
 INPUT CARD> $guess guess=HUCKEL $end                                                       
 INPUT CARD>                                                                                
 INPUT CARD> $statpt projct=.FALSE. $end                                                    
 INPUT CARD> $STATPT IFREEZ(1)=1,2,3 $END                                                   
 INPUT CARD>                                                                                
 INPUT CARD>! Optimize the geometry with COSMO effects                                      
 INPUT CARD> $statpt opttol=0.0005 nstep=50 $end                                            
 INPUT CARD> $contrl nzvar=1 $end                                                           
 INPUT CARD> $zmat dlc=.t. auto=.t. $end                                                    
 INPUT CARD> $contrl runtyp=OPTIMIZE maxit=200 $end                                         
 INPUT CARD>                                                                                
 INPUT CARD>! Run COSMO on perfect conductor                                                
 INPUT CARD> $COSGMS PRFCND=.TRUE. $end                                                     
 INPUT CARD>                                                                                
 INPUT CARD>! Specifying RSOLV                                                              
 INPUT CARD> $COSGMS COSRAD = 1.4 $end                                                      
 INPUT CARD>                                                                                
 INPUT CARD>! available memory                                                              
 INPUT CARD> $SYSTEM MWORDS=40 $END                                                         
 INPUT CARD>                                                                                
 INPUT CARD> $DATA                                                                          
 INPUT CARD>Pentane, 1-chloro-, ID: C543599                                                 
 INPUT CARD>C1                                                                              
 INPUT CARD>C      6.0      3.1981000000    1.9337000000    3.7459000000                    
 INPUT CARD>C      6.0      2.8751000000    1.5570000000    2.3093000000                    
 INPUT CARD>C      6.0      1.3916000000    1.2787000000    2.1296000000                    
 INPUT CARD>C      6.0      4.6754000000    2.1761000000    3.9454000000                    
 INPUT CARD>C      6.0      1.0707000000    0.9002000000    0.7015000000                    
 INPUT CARD>Cl    17.0      5.5610000000    0.6391000000    3.7652000000                    
 INPUT CARD>H      1.0      2.6369000000    2.8454000000    4.0328000000                    
 INPUT CARD>H      1.0      2.8513000000    1.1374000000    4.4348000000                    
 INPUT CARD>H      1.0      3.1936000000    2.3675000000    1.6232000000                    
 INPUT CARD>H      1.0      3.4696000000    0.6670000000    2.0164000000                    
 INPUT CARD>H      1.0      1.0740000000    0.4689000000    2.8164000000                    
 INPUT CARD>H      1.0      0.8025000000    2.1690000000    2.4272000000                    
   40000000 WORDS OF MEMORY AVAILABLE

     BASIS OPTIONS
     -------------
     GBASIS=N311         IGAUSS=       6      POLAR=POPN311 
     NDFUNC=       1     NFFUNC=       0     DIFFSP=       F
     NPFUNC=       1      DIFFS=       F     BASNAM=        


     RUN TITLE
     ---------
 Pentane, 1-chloro-, ID: C543599                                                 

 THE POINT GROUP OF THE MOLECULE IS C1      
 THE ORDER OF THE PRINCIPAL AXIS IS     0

 ATOM      ATOMIC                      COORDINATES (BOHR)
           CHARGE         X                   Y                   Z
 C           6.0     6.0435326813        3.6541631425        7.0787245774
 C           6.0     5.4331511873        2.9423033629        4.3639442234
 C           6.0     2.6297426845        2.4163926205        4.0243604635
 C           6.0     8.8352248830        4.1122327219        7.4557249120
 C           6.0     2.0233296151        1.7011313341        1.3256427804
 CL         17.0    10.5087662177        1.2077238788        7.1151962890
 H           1.0     4.9830184570        5.3770263255        7.6208869633
 H           1.0     5.3881757088        2.1493743384        8.3805568103
 H           1.0     6.0350289144        4.4739262759        3.0674032233
 H           1.0     6.5565932870        1.2604472338        3.8104434816
 H           1.0     2.0295657108        0.8860925156        5.3222242718
 H           1.0     1.5165051051        4.0988156674        4.5867429174
 H           1.0     9.6015087710        5.4694339263        6.0677211740
 H           1.0     9.2388703540        4.8652885280        9.3588679542
 H           1.0     3.0551200043        0.0000000000        0.7349144366
 H           1.0     2.5263746730        3.2168805489        0.0000000000
 H           1.0     0.0000000000        1.3143044245        1.0856475799

          INTERNUCLEAR DISTANCES (ANGS.)




     $CONTRL OPTIONS
     ---------------
 SCFTYP=RHF          RUNTYP=OPTIMIZE     EXETYP=RUN     
 MPLEVL=       0     CITYP =NONE         CCTYP =NONE         VBTYP =NONE    
 DFTTYP=NONE         TDDFT =NONE    
 MULT  =       1     ICHARG=       0     NZVAR =       1     COORD =UNIQUE  
 PP    =NONE         RELWFN=NONE         LOCAL =NONE         NUMGRD=       F
 ISPHER=      -1     NOSYM =       0     MAXIT =     200     UNITS =ANGS    
 PLTORB=       F     MOLPLT=       F     AIMPAC=       F     FRIEND=        
 NPRINT=       7     IREST =       0     GEOM  =INPUT   
 NORMF =       0     NORMP =       0     ITOL  =      20     ICUT  =       9
 INTTYP=BEST         GRDTYP=BEST         QMTTOL= 1.0E-06

     $SYSTEM OPTIONS
     ---------------
  REPLICATED MEMORY=    40000000 WORDS (ON EVERY NODE).
 DISTRIBUTED MEMDDI=           0 MILLION WORDS IN AGGREGATE,
 MEMDDI DISTRIBUTED OVER   1 PROCESSORS IS           0 WORDS/PROCESSOR.
 TOTAL MEMORY REQUESTED ON EACH PROCESSOR=    40000000 WORDS.
 TIMLIM=       10000.00 MINUTES, OR       6.9 DAYS.
 PARALL= F  BALTYP=  DLB     KDIAG=    0  COREFL= F
 MXSEQ2=     300 MXSEQ3=     150  mem10=         0

     $COSGMS OPTIONS
     ---------------
     EPSI  =   INFTY     NSPA  =      92     COSRAD=    1.40
     DISEX =   10.00     OUTCHG=DBLCAV       COSBUG=       F
     COSWRT=       F     DCOSMO=       F

     SYMMETRY COORDINATES WILL NOT BE USED FOR 
     THE COSMO CALCULATION, EVEN IF SPECIFIED:
         -- SWITCHING TO C1 POINT GROUP --


     DEFINITION OF CAVITY
     ---------------------------
     ATOM         COORDINATES           RADIUS 
     1    6.0435    3.6542    7.0787    2.0000
     2    5.4332    2.9423    4.3639    2.0000
     3    2.6297    2.4164    4.0244    2.0000
     4    8.8352    4.1122    7.4557    2.0000
     5    2.0233    1.7011    1.3256    2.0000
     6   10.5088    1.2077    7.1152    2.0500
     7    4.9830    5.3770    7.6209    1.3000
     8    5.3882    2.1494    8.3806    1.3000
     9    6.0350    4.4739    3.0674    1.3000
    10    6.5566    1.2604    3.8104    1.3000
    11    2.0296    0.8861    5.3222    1.3000
    12    1.5165    4.0988    4.5867    1.3000
    13    9.6015    5.4694    6.0677    1.3000
    14    9.2389    4.8653    9.3589    1.3000
    15    3.0551    0.0000    0.7349    1.3000
    16    2.5264    3.2169    0.0000    1.3000
    17    0.0000    1.3143    1.0856    1.3000

          ----------------
          PROPERTIES INPUT
          ----------------

     MOMENTS            FIELD           POTENTIAL          DENSITY
 IEMOM =       1   IEFLD =       0   IEPOT =       0   IEDEN =       0
 WHERE =COMASS     WHERE =NUCLEI     WHERE =NUCLEI     WHERE =NUCLEI  
 OUTPUT=BOTH       OUTPUT=BOTH       OUTPUT=BOTH       OUTPUT=BOTH    
 IEMINT=       0   IEFINT=       0                     IEDINT=       0
                                                       MORB  =       0
          EXTRAPOLATION IN EFFECT
          SOSCF IN EFFECT
 ORBITAL PRINTING OPTION: NPREO=     1   188     2     1

     -------------------------------
     INTEGRAL TRANSFORMATION OPTIONS
     -------------------------------
     NWORD  =            0
     CUTOFF = 1.0E-09     MPTRAN =       0
     DIRTRF =       T     AOINTS =DUP     

          ----------------------
          INTEGRAL INPUT OPTIONS
          ----------------------
 NOPK  =       1 NORDER=       0 SCHWRZ=       T


 -----------------------------------------------
  STATISTICS ON AUTOMATIC COORDINATE GENERATION 
 -----------------------------------------------
  NUMBER OF USER SPECIFIED BONDS                             0
  NUMBER OF BONDS                                           16
  NUMBER OF ANGLES                                          30
  NUMBER OF TORSIONS                                        36
  NUMBER OF EXTRA COORD.                                     0
  NUMBER OF EXTRA COORD. FOR CONSTRAINTS                     0
  NUMBER OF CONSTRAINED COORD.                               0

  TOTAL NUMBER OF PRIMITIVES                                82
 -----------------------------------------------

   --- ENCODED Z MATRIX ---
 COORD  TYPE   I   J   K   L   M   N
    1      1    1   7
    2      1    1   4
    3      1    1   8
    4      1    1   2
    5      1    2   9
    6      1    2   3
    7      1    2  10
    8      1    3  11
    9      1    3   5
   10      1    3  12
   11      1    4  14
   12      1    4  13
   13      1    4   6
   14      1    5  16
   15      1    5  15
   16      1    5  17
   17      2    1   4  14
   18      2    1   2  10
   19      2    1   2   3
   20      2    1   2   9
   21      2    1   4   6
   22      2    1   4  13
   23      2    2   1   8
   24      2    2   1   7
   25      2    2   3  12
   26      2    2   3   5
   27      2    2   3  11
   28      2    2   1   4
   29      2    3   2  10
   30      2    3   5  15
   31      2    3   2   9
   32      2    3   5  17
   33      2    3   5  16
   34      2    4   1   7
   35      2    4   1   8
   36      2    5   3  12
   37      2    5   3  11
   38      2    6   4  13
   39      2    6   4  14
   40      2    7   1   8
   41      2    9   2  10
   42      2   11   3  12
   43      2   13   4  14
   44      2   15   5  17
   45      2   15   5  16
   46      2   16   5  17
   47      3    1   2   3  12
   48      3    1   2   3   5
   49      3    1   2   3  11
   50      3    2   1   4  14
   51      3    2   1   4  13
   52      3    2   3   5  17
   53      3    2   1   4   6
   54      3    2   3   5  15
   55      3    2   3   5  16
   56      3    3   2   1   7
   57      3    3   2   1   8
   58      3    3   2   1   4
   59      3    4   1   2   9
   60      3    4   1   2  10
   61      3    5   3   2  10
   62      3    5   3   2   9
   63      3    6   4   1   8
   64      3    6   4   1   7
   65      3    7   1   4  14
   66      3    7   1   2   9
   67      3    7   1   4  13
   68      3    7   1   2  10
   69      3    8   1   2   9
   70      3    8   1   2  10
   71      3    8   1   4  13
   72      3    8   1   4  14
   73      3    9   2   3  12
   74      3    9   2   3  11
   75      3   10   2   3  12
   76      3   10   2   3  11
   77      3   11   3   5  16
   78      3   11   3   5  17
   79      3   11   3   5  15
   80      3   12   3   5  16
   81      3   12   3   5  17
   82      3   12   3   5  15

          INDEP./SYM. INTERNAL COORDINATES
          --------------------------------
 CRD  1=   0.1610 ( 18) -0.4913 ( 19)  0.1476 ( 20) -0.1477 ( 23) -0.1581 ( 24)
          -0.1457 ( 25)  0.4313 ( 26) -0.1458 ( 27)  0.4586 ( 28)  0.1525 ( 29)
           0.1492 ( 31) -0.1307 ( 34) -0.1274 ( 35) -0.1248 ( 36) -0.1152 ( 37)
 CRD  2=   0.2928 (  2)  0.3186 (  4)  0.3231 (  6)  0.2082 (  9) -0.1153 ( 18)
           0.4479 ( 19) -0.1421 ( 20)  0.3097 ( 21)  0.2843 ( 28) -0.1126 ( 29)
          -0.1896 ( 31) -0.1645 ( 34) -0.1287 ( 38) -0.1504 ( 39)  0.1174 ( 58)
 CRD  3=  -0.1626 (  4) -0.1760 (  6) -0.2328 (  9) -0.1447 ( 17)  0.1209 ( 18)
          -0.1685 ( 19)  0.3044 ( 21) -0.1015 ( 23) -0.1367 ( 24)  0.1169 ( 25)
          -0.5038 ( 26)  0.1870 ( 27)  0.2803 ( 28) -0.1690 ( 33) -0.1223 ( 34)
           0.1407 ( 36)  0.1900 ( 37) -0.1037 ( 42) -0.1074 ( 48)  0.1115 ( 56)
           0.1733 ( 58)  0.1250 ( 60)
 CRD  4=  -0.1018 (  2)  0.2857 ( 21) -0.3007 ( 22)  0.1053 ( 23)  0.1040 ( 24)
          -0.1846 ( 25)  0.2558 ( 26) -0.3485 ( 28)  0.1837 ( 29)  0.1347 ( 30)
           0.2493 ( 35) -0.1691 ( 48) -0.1341 ( 50)  0.1481 ( 52)  0.1264 ( 54)
           0.1548 ( 56)  0.1838 ( 57)  0.3375 ( 58)  0.1883 ( 59)  0.1523 ( 60)
 CRD  5=   0.2103 ( 18) -0.2234 ( 20) -0.1633 ( 21)  0.2044 ( 23) -0.1868 ( 24)
          -0.1061 ( 27) -0.1187 ( 29)  0.2251 ( 30)  0.1083 ( 31) -0.2160 ( 33)
           0.1108 ( 34) -0.1173 ( 35) -0.1821 ( 36)  0.1760 ( 37) -0.2360 ( 47)
          -0.3920 ( 48) -0.2348 ( 49) -0.1645 ( 50) -0.1956 ( 51) -0.2330 ( 53)
          -0.1937 ( 61) -0.1967 ( 62)
 CRD  6=   0.1684 (  2) -0.1602 (  4)  0.1095 ( 13)  0.5231 ( 21) -0.1338 ( 22)
           0.1445 ( 25) -0.1765 ( 27) -0.1532 ( 28) -0.1150 ( 29) -0.1403 ( 30)
           0.1877 ( 31)  0.1555 ( 33)  0.1624 ( 34) -0.1945 ( 38) -0.2617 ( 39)
          -0.2109 ( 52) -0.1636 ( 54) -0.1764 ( 55) -0.1500 ( 56) -0.2027 ( 57)
          -0.2029 ( 58)
 CRD  7=  -0.4421 (  2) -0.1036 (  6)  0.4471 (  9) -0.2769 ( 17) -0.1755 ( 22)
           0.1286 ( 23)  0.2423 ( 32)  0.2154 ( 33) -0.1007 ( 34) -0.1386 ( 35)
           0.1460 ( 36)  0.1016 ( 37)  0.2174 ( 43) -0.2070 ( 46) -0.1002 ( 53)
 CRD  8=   0.3425 (  2)  0.4151 (  9)  0.3449 ( 17) -0.2177 ( 19)  0.3982 ( 32)
          -0.1050 ( 33)  0.1051 ( 34)  0.1417 ( 35)  0.1175 ( 36)  0.1659 ( 37)
          -0.1359 ( 39) -0.1627 ( 43) -0.2102 ( 44) -0.1481 ( 46)
 CRD  9=   0.1038 (  2)  0.4082 (  4) -0.3222 (  6)  0.1050 ( 11)  0.3820 ( 17)
           0.1609 ( 18)  0.1075 ( 20) -0.2396 ( 22)  0.1241 ( 23) -0.1461 ( 30)
          -0.1325 ( 31) -0.1916 ( 32)  0.2605 ( 33)  0.1057 ( 36)  0.1734 ( 38)
          -0.1645 ( 39)  0.1408 ( 44) -0.1069 ( 50) -0.1156 ( 51) -0.1246 ( 53)
           0.1427 ( 61)
 CRD 10=  -0.1994 (  4)  0.3881 (  6) -0.1224 ( 20) -0.1147 ( 21)  0.1444 ( 23)
          -0.2138 ( 24)  0.1883 ( 27)  0.1687 ( 29) -0.4165 ( 30)  0.2238 ( 32)
           0.1330 ( 33)  0.1562 ( 34) -0.1915 ( 37)  0.1319 ( 45) -0.1378 ( 46)
          -0.1032 ( 49) -0.1431 ( 50) -0.1570 ( 51) -0.1916 ( 53)  0.1108 ( 55)
          -0.1010 ( 60)  0.1448 ( 62)
 CRD 11=  -0.1942 (  2)  0.2691 (  4)  0.1011 (  5)  0.3016 (  6)  0.1175 (  7)
          -0.2030 (  9)  0.1965 ( 17) -0.3939 ( 22)  0.1618 ( 24)  0.2047 ( 25)
          -0.1543 ( 30)  0.1050 ( 31)  0.2206 ( 32) -0.2480 ( 33) -0.1727 ( 34)
          -0.1674 ( 36)  0.1813 ( 38)  0.1919 ( 45) -0.1014 ( 52) -0.1306 ( 54)
          -0.1107 ( 56)  0.1006 ( 59)
 CRD 12=   0.1397 (  4)  0.1814 (  5) -0.1171 (  7) -0.1587 ( 14)  0.1135 ( 15)
           0.1516 ( 20)  0.1599 ( 21)  0.2126 ( 23) -0.1626 ( 25)  0.1301 ( 27)
           0.2482 ( 30)  0.1118 ( 32) -0.4193 ( 33)  0.1918 ( 34) -0.2245 ( 35)
           0.1097 ( 36) -0.1347 ( 37) -0.1165 ( 39) -0.1730 ( 44)  0.1548 ( 46)
           0.1151 ( 47)  0.1638 ( 48)  0.1045 ( 49)  0.1214 ( 52) -0.1026 ( 53)
           0.1101 ( 55) -0.1446 ( 58) -0.1807 ( 59) -0.1762 ( 60)
 CRD 13=  -0.1624 (  1) -0.2654 (  4)  0.1380 (  6)  0.1190 (  9)  0.1575 ( 10)
           0.2053 ( 17) -0.2808 ( 18)  0.1533 ( 20) -0.2534 ( 22) -0.1723 ( 24)
           0.2054 ( 25) -0.1018 ( 26)  0.1418 ( 28)  0.2233 ( 29)  0.2340 ( 30)
          -0.1564 ( 31) -0.2346 ( 32)  0.1185 ( 33) -0.1015 ( 35) -0.1187 ( 36)
           0.1601 ( 37)  0.1914 ( 38) -0.1022 ( 39) -0.1692 ( 45)  0.1472 ( 47)
           0.1553 ( 49) -0.1085 ( 61)
 CRD 14=  -0.1494 (  3) -0.1570 (  4)  0.1267 (  6)  0.1118 (  8)  0.1243 ( 15)
           0.1558 ( 17)  0.1829 ( 18) -0.2559 ( 20) -0.2461 ( 22) -0.1648 ( 23)
          -0.1306 ( 25)  0.2500 ( 27)  0.1012 ( 28) -0.2100 ( 29)  0.2550 ( 30)
           0.2658 ( 31) -0.1799 ( 32) -0.1187 ( 34)  0.2290 ( 36) -0.1958 ( 37)
           0.1201 ( 38) -0.1283 ( 45) -0.1126 ( 47) -0.1095 ( 49)  0.1113 ( 54)
          -0.1589 ( 56) -0.1616 ( 57)  0.1208 ( 61)  0.1613 ( 62)
 CRD 15=   0.1365 (  1)  0.1173 (  3)  0.2977 (  4)  0.1958 (  5)  0.3446 (  6)
           0.2212 (  7)  0.1851 (  8)  0.1551 ( 10) -0.1332 ( 17) -0.2578 ( 19)
           0.1055 ( 20)  0.1431 ( 22)  0.1495 ( 23)  0.1429 ( 25) -0.2416 ( 26)
           0.1489 ( 27) -0.1944 ( 28)  0.1254 ( 29)  0.1347 ( 30) -0.2305 ( 32)
           0.1868 ( 33) -0.1310 ( 38) -0.1047 ( 40) -0.1577 ( 41) -0.1354 ( 42)
          -0.1638 ( 45)
 CRD 16=  -0.2766 (  1)  0.3602 (  3) -0.2913 (  8)  0.3015 ( 10)  0.2337 ( 12)
          -0.1193 ( 14)  0.1203 ( 15) -0.1054 ( 21)  0.1212 ( 22)  0.1429 ( 30)
          -0.1399 ( 33)  0.1242 ( 35)  0.1009 ( 46)  0.1514 ( 48) -0.1556 ( 50)
          -0.1048 ( 51) -0.1603 ( 52) -0.2088 ( 53) -0.1289 ( 54) -0.1287 ( 55)
           0.1460 ( 58)  0.1933 ( 59)  0.1890 ( 60)  0.1742 ( 61)  0.1715 ( 62)
          -0.1049 ( 64)
 CRD 17=   0.1074 (  5)  0.1723 (  8) -0.1630 ( 10) -0.3708 ( 11)  0.2964 ( 12)
          -0.1442 ( 23)  0.2241 ( 24) -0.1552 ( 34)  0.1527 ( 35)  0.2126 ( 38)
          -0.2645 ( 39) -0.2307 ( 53) -0.3396 ( 63) -0.3753 ( 64) -0.1036 ( 68)
 CRD 18=   0.2352 (  2)  0.4017 ( 11)  0.4551 ( 12)  0.5479 ( 13) -0.2427 ( 17)
          -0.2153 ( 22)  0.1682 ( 38)  0.1707 ( 39)  0.2266 ( 43)
 CRD 19=  -0.1739 (  9) -0.5029 ( 14) -0.5030 ( 15) -0.4803 ( 16)  0.1766 ( 30)
           0.1942 ( 32)  0.1768 ( 33) -0.1998 ( 44) -0.1875 ( 45) -0.2001 ( 46)
 CRD 20=   0.3367 (  1) -0.2800 (  3) -0.4083 (  5)  0.4097 (  7) -0.3024 (  8)
           0.3027 ( 10) -0.1060 ( 11)  0.1341 ( 12)  0.1003 ( 38) -0.1023 ( 39)
          -0.1317 ( 47) -0.1316 ( 49)  0.1218 ( 50)  0.1062 ( 51) -0.1025 ( 52)
           0.1027 ( 56)  0.1004 ( 57) -0.1001 ( 64)
 CRD 21=  -0.1617 (  1)  0.1002 (  3)  0.2140 ( 11) -0.1944 ( 12) -0.1486 ( 18)
           0.1506 ( 20) -0.1106 ( 25)  0.1107 ( 27)  0.1424 ( 29) -0.1432 ( 31)
          -0.1355 ( 34)  0.1503 ( 35)  0.1512 ( 36) -0.1514 ( 37) -0.1240 ( 38)
           0.1213 ( 39) -0.1193 ( 47) -0.1194 ( 49) -0.1158 ( 50) -0.1188 ( 51)
          -0.1178 ( 56) -0.1259 ( 57) -0.1272 ( 65) -0.1954 ( 66) -0.1301 ( 67)
          -0.1959 ( 68) -0.2035 ( 69) -0.2040 ( 70) -0.1339 ( 71) -0.1310 ( 72)
          -0.2114 ( 73) -0.2115 ( 74) -0.2098 ( 75) -0.2099 ( 76) -0.1131 ( 77)
          -0.1129 ( 78) -0.1132 ( 79) -0.1129 ( 80) -0.1127 ( 81) -0.1130 ( 82)
 CRD 22=   0.3565 ( 11)  0.3855 ( 12) -0.5916 ( 13) -0.1390 ( 38) -0.1637 ( 39)
           0.3247 ( 43)  0.2019 ( 50) -0.1581 ( 51)  0.1844 ( 65) -0.1756 ( 67)
          -0.1597 ( 71)  0.2004 ( 72)
 CRD 23=  -0.1692 (  8) -0.1695 ( 10) -0.2962 ( 14) -0.2937 ( 15)  0.6347 ( 16)
           0.1595 ( 44) -0.3280 ( 45)  0.1582 ( 46) -0.1718 ( 54)  0.1715 ( 55)
           0.1560 ( 77) -0.1873 ( 79)  0.1869 ( 80) -0.1565 ( 82)
 CRD 24=   0.5489 ( 14) -0.5502 ( 15) -0.2936 ( 44)  0.2942 ( 46) -0.2293 ( 52)
          -0.2206 ( 78) -0.2204 ( 81)
 CRD 25=  -0.3818 (  1) -0.4017 (  3)  0.4243 (  5)  0.4380 (  7) -0.2301 (  8)
          -0.2311 ( 10) -0.1396 ( 40)  0.1498 ( 41)  0.1380 ( 68) -0.1365 ( 69)
           0.1158 ( 74)
 CRD 26=  -0.3919 (  1) -0.4087 (  3) -0.1438 (  5) -0.1294 (  7)  0.4210 (  8)
           0.4207 ( 10) -0.1009 ( 15)  0.1056 ( 16) -0.1684 ( 40)  0.1652 ( 42)
           0.1154 ( 75)  0.1167 ( 77) -0.1022 ( 82)
 CRD 27=  -0.2251 (  1) -0.2310 (  3) -0.4132 (  5)  0.1078 (  6) -0.4029 (  7)
          -0.3402 (  8) -0.3403 ( 10) -0.1132 ( 40) -0.1973 ( 41) -0.1595 ( 42)
           0.1148 ( 66) -0.1169 ( 70) -0.1244 ( 73)  0.1364 ( 76)  0.1022 ( 82)
 CRD 28=   0.1925 (  5) -0.1951 (  7) -0.2249 ( 11)  0.1996 ( 12)  0.1433 ( 50)
           0.1672 ( 51) -0.1256 ( 54) -0.1258 ( 55) -0.1121 ( 61) -0.1161 ( 62)
           0.1400 ( 63)  0.1271 ( 64)  0.2024 ( 65)  0.1176 ( 66)  0.2262 ( 67)
           0.1214 ( 68)  0.1090 ( 69)  0.1129 ( 70)  0.2391 ( 71)  0.2152 ( 72)
          -0.1730 ( 73) -0.1736 ( 74) -0.1691 ( 75) -0.1696 ( 76) -0.1788 ( 77)
          -0.1525 ( 78) -0.1786 ( 79) -0.1776 ( 80) -0.1513 ( 81) -0.1775 ( 82)
 CRD 29=  -0.3451 (  1)  0.3353 (  3) -0.3503 (  5)  0.3526 (  7)  0.2149 (  8)
          -0.2145 ( 10) -0.1116 ( 56) -0.1105 ( 57) -0.1295 ( 59) -0.1264 ( 60)
           0.1174 ( 63)  0.1173 ( 64)  0.1565 ( 65) -0.1760 ( 66)  0.1431 ( 67)
          -0.1729 ( 68) -0.1749 ( 69) -0.1718 ( 70)  0.1431 ( 71)  0.1566 ( 72)
           0.1017 ( 73)  0.1001 ( 74)  0.1038 ( 75)  0.1022 ( 76)
 CRD 30=   0.1320 (  1) -0.1230 (  3)  0.3056 (  8) -0.3052 ( 10)  0.1055 ( 47)
           0.1070 ( 49) -0.1018 ( 50) -0.1767 ( 52) -0.1653 ( 54) -0.1649 ( 55)
          -0.1050 ( 63) -0.1063 ( 64) -0.1357 ( 65) -0.1249 ( 67) -0.1236 ( 71)
          -0.1344 ( 72)  0.1188 ( 73)  0.1203 ( 74)  0.1154 ( 75)  0.1169 ( 76)
          -0.2428 ( 77) -0.2546 ( 78) -0.2432 ( 79) -0.2439 ( 80) -0.2556 ( 81)
          -0.2442 ( 82)
 CRD 31=   0.3273 ( 11)  0.1252 ( 12)  0.1822 ( 13) -0.1514 ( 16)  0.1986 ( 17)
          -0.1442 ( 18) -0.1491 ( 20)  0.1775 ( 22)  0.1549 ( 23)  0.1600 ( 24)
          -0.1129 ( 25) -0.1084 ( 27)  0.1515 ( 29)  0.1625 ( 31) -0.1043 ( 32)
          -0.1899 ( 34) -0.1946 ( 35)  0.1416 ( 36)  0.1390 ( 37) -0.1768 ( 39)
          -0.2264 ( 43)  0.1135 ( 44)  0.1096 ( 46) -0.1198 ( 56)  0.1280 ( 57)
          -0.2039 ( 68)  0.2225 ( 69)  0.1176 ( 71)  0.1621 ( 74) -0.1754 ( 75)
 CRD 32=  -0.2598 (  2) -0.1560 (  4) -0.1051 (  6) -0.1130 (  9)  0.2159 ( 11)
           0.1744 ( 12)  0.1818 ( 13)  0.1597 ( 14)  0.1560 ( 15)  0.2609 ( 16)
           0.1792 ( 17)  0.1774 ( 22)  0.1410 ( 25)  0.1439 ( 27)  0.1686 ( 30)
           0.1999 ( 32)  0.1688 ( 33) -0.1670 ( 36) -0.1677 ( 37) -0.1311 ( 38)
          -0.1478 ( 39) -0.2009 ( 43) -0.2179 ( 44) -0.1379 ( 45) -0.2208 ( 46)
           0.1113 ( 47) -0.1162 ( 49) -0.1646 ( 74)  0.1597 ( 75)
 CRD 33=  -0.3641 (  2)  0.1349 (  6)  0.3238 (  9)  0.2927 ( 12)  0.1443 ( 13)
          -0.1833 ( 14) -0.1762 ( 15) -0.1256 ( 16)  0.1528 ( 17)  0.1317 ( 18)
           0.1349 ( 20)  0.1005 ( 22) -0.1043 ( 24) -0.1353 ( 29) -0.1634 ( 30)
          -0.1537 ( 31) -0.1581 ( 32) -0.1612 ( 33) -0.1910 ( 38) -0.1233 ( 43)
           0.1561 ( 44)  0.1996 ( 45)  0.1619 ( 46)  0.1494 ( 64) -0.1065 ( 69)
          -0.1504 ( 71) -0.1308 ( 72)  0.1148 ( 76)
 CRD 34=   0.2273 (  3) -0.2162 (  4)  0.2544 (  9)  0.3142 ( 11) -0.3820 ( 12)
          -0.1100 ( 14) -0.1510 ( 15) -0.1087 ( 17)  0.1276 ( 24)  0.1100 ( 27)
          -0.1198 ( 29)  0.1484 ( 38) -0.1672 ( 39) -0.1314 ( 40)  0.1636 ( 45)
           0.1614 ( 50)  0.1251 ( 51) -0.1132 ( 53) -0.1161 ( 63) -0.2559 ( 64)
           0.1865 ( 68)  0.1257 ( 70)  0.1223 ( 71)  0.1585 ( 72) -0.1262 ( 77)
           0.1033 ( 81)  0.1235 ( 82)
 CRD 35=   0.2360 (  1)  0.1661 (  2) -0.1865 (  3) -0.1092 (  4)  0.1466 (  5)
          -0.1846 (  6) -0.1622 (  7)  0.1651 (  9)  0.1306 ( 10)  0.1056 ( 12)
          -0.2317 ( 13) -0.1387 ( 15)  0.1152 ( 16)  0.1552 ( 23)  0.1186 ( 25)
           0.1037 ( 27) -0.1400 ( 34) -0.1010 ( 36)  0.1163 ( 39) -0.1141 ( 43)
           0.1574 ( 45) -0.1245 ( 50) -0.1119 ( 55) -0.1054 ( 56)  0.1861 ( 63)
          -0.2080 ( 66)  0.1140 ( 67) -0.1953 ( 68) -0.1473 ( 69) -0.1347 ( 70)
           0.2556 ( 71)  0.1455 ( 73)  0.1306 ( 74)  0.1019 ( 75) -0.2221 ( 77)
          -0.1320 ( 78)  0.1159 ( 82)
 CRD 36=   0.1278 (  5) -0.1255 (  7) -0.3028 (  8)  0.2565 ( 10)  0.1268 ( 13)
           0.2912 ( 14) -0.2046 ( 15) -0.1442 ( 25)  0.1962 ( 44) -0.1760 ( 46)
           0.1485 ( 50)  0.2129 ( 52)  0.1721 ( 73)  0.1744 ( 74)  0.1912 ( 75)
           0.1935 ( 76) -0.1501 ( 77) -0.2142 ( 79) -0.2195 ( 80) -0.2837 ( 82)
 CRD 37=   0.2043 (  1) -0.1505 (  2) -0.1392 (  4)  0.2936 (  6) -0.1179 ( 10)
           0.2716 ( 11) -0.1629 ( 13)  0.1844 ( 15) -0.2081 ( 16) -0.1366 ( 27)
          -0.1370 ( 31)  0.1206 ( 35)  0.1309 ( 38) -0.1209 ( 40)  0.1377 ( 42)
          -0.1666 ( 43) -0.1751 ( 45)  0.1194 ( 46)  0.1402 ( 51) -0.1236 ( 54)
           0.1106 ( 55) -0.1065 ( 57)  0.2014 ( 67) -0.2076 ( 69) -0.1137 ( 70)
           0.2538 ( 71)  0.2445 ( 77) -0.1407 ( 81) -0.1819 ( 82)
 CRD 38=  -0.2734 (  2)  0.2174 (  4) -0.1535 (  5) -0.1759 (  7)  0.1366 (  8)
          -0.2953 (  9)  0.1299 ( 10)  0.1683 ( 16)  0.1067 ( 34)  0.1147 ( 35)
           0.1085 ( 36)  0.1131 ( 37) -0.1399 ( 40)  0.2565 ( 41) -0.2078 ( 42)
          -0.1081 ( 44) -0.1319 ( 47)  0.1286 ( 49)  0.1112 ( 56) -0.1120 ( 57)
          -0.1061 ( 59)  0.1014 ( 60) -0.1284 ( 61)  0.1371 ( 62)  0.2051 ( 68)
          -0.2256 ( 69)  0.2668 ( 74) -0.2593 ( 75) -0.1233 ( 77)  0.1326 ( 82)
 CRD 39=   0.1063 (  3) -0.1678 (  4) -0.2385 (  5)  0.1293 (  6)  0.1976 ( 12)
          -0.1398 ( 13)  0.2230 ( 14) -0.1115 ( 15) -0.1132 ( 16)  0.1016 ( 20)
          -0.1563 ( 22)  0.1454 ( 23) -0.1410 ( 29) -0.1091 ( 33) -0.1689 ( 35)
           0.1350 ( 39)  0.1322 ( 41)  0.1681 ( 44)  0.1090 ( 48) -0.1699 ( 50)
           0.1782 ( 52) -0.1086 ( 54) -0.1335 ( 58) -0.1007 ( 59)  0.1047 ( 60)
           0.1624 ( 63) -0.2996 ( 65) -0.1411 ( 67)  0.1698 ( 68)  0.1958 ( 70)
          -0.1011 ( 75) -0.1110 ( 76)  0.1457 ( 78) -0.1411 ( 79)  0.1807 ( 81)
          -0.1061 ( 82)
 CRD 40=  -0.1158 (  2)  0.1390 (  4)  0.2178 (  7)  0.1931 ( 11) -0.2131 ( 13)
          -0.2066 ( 15)  0.1293 ( 16) -0.1192 ( 17)  0.1101 ( 21) -0.1659 ( 24)
           0.1129 ( 30)  0.1129 ( 31)  0.1574 ( 34)  0.1165 ( 38) -0.1450 ( 41)
          -0.1769 ( 43) -0.1587 ( 46)  0.1148 ( 48) -0.1383 ( 50)  0.1558 ( 51)
           0.1463 ( 52) -0.1276 ( 55) -0.1020 ( 57)  0.1248 ( 59) -0.1594 ( 63)
           0.1899 ( 66)  0.2762 ( 67)  0.1193 ( 69) -0.2169 ( 72) -0.1179 ( 73)
          -0.1028 ( 74)  0.1830 ( 78) -0.1583 ( 80)  0.1156 ( 81)
 CRD 41=  -0.2007 (  2)  0.2667 (  4) -0.2751 (  6)  0.2832 (  9) -0.1788 ( 16)
          -0.1660 ( 18) -0.1605 ( 20)  0.1525 ( 25)  0.1538 ( 27)  0.1524 ( 29)
           0.1568 ( 31) -0.1599 ( 36) -0.1651 ( 37)  0.1379 ( 47) -0.1340 ( 49)
          -0.1046 ( 54)  0.1014 ( 55)  0.1061 ( 56) -0.1066 ( 57) -0.1325 ( 61)
           0.1318 ( 62)  0.1622 ( 66) -0.1542 ( 70)  0.2649 ( 73) -0.2713 ( 76)
          -0.1500 ( 79)  0.1487 ( 80)
 CRD 42=  -0.1283 (  1)  0.1325 (  2) -0.1720 (  3)  0.1530 (  4) -0.1142 (  6)
           0.1391 (  8)  0.1202 ( 10)  0.1116 ( 14) -0.1739 ( 16) -0.1258 ( 17)
           0.1511 ( 26) -0.1694 ( 28)  0.1602 ( 32)  0.2266 ( 40) -0.1955 ( 42)
          -0.1423 ( 45) -0.1494 ( 54)  0.1273 ( 55) -0.1382 ( 56)  0.1105 ( 57)
          -0.1907 ( 63)  0.1615 ( 65) -0.1810 ( 66)  0.2283 ( 67)  0.1667 ( 70)
          -0.1162 ( 72) -0.1022 ( 75) -0.1246 ( 78) -0.2840 ( 79)  0.2815 ( 80)
           0.1641 ( 81)
 CRD 43=   0.1169 (  1) -0.1863 (  3) -0.2039 ( 10) -0.1199 ( 12)  0.1414 ( 13)
           0.1129 ( 14) -0.1612 ( 15) -0.1100 ( 21)  0.1132 ( 22)  0.1372 ( 30)
          -0.1006 ( 33) -0.1299 ( 34)  0.1096 ( 35)  0.1213 ( 36) -0.1190 ( 37)
           0.1041 ( 43) -0.1114 ( 46)  0.1785 ( 48) -0.1855 ( 51) -0.1430 ( 53)
          -0.1351 ( 54) -0.2049 ( 55)  0.1770 ( 58)  0.2054 ( 60)  0.2028 ( 62)
           0.2388 ( 65) -0.1521 ( 66)  0.1893 ( 72) -0.1654 ( 76)  0.2688 ( 78)
           0.1660 ( 81)
 CRD 44=  -0.1618 (  1)  0.1027 (  2)  0.1836 (  4) -0.1295 (  5)  0.1971 (  6)
          -0.1255 (  7) -0.1788 (  8)  0.1069 (  9) -0.1068 ( 14) -0.1947 ( 19)
          -0.1725 ( 26) -0.1560 ( 28)  0.1513 ( 40)  0.1885 ( 41)  0.1658 ( 42)
           0.1223 ( 47)  0.1250 ( 51)  0.1450 ( 54)  0.1099 ( 57) -0.1803 ( 59)
          -0.1870 ( 61) -0.1407 ( 63) -0.1974 ( 66)  0.1392 ( 67)  0.2411 ( 70)
          -0.1736 ( 72)  0.2509 ( 73) -0.2021 ( 76)  0.1636 ( 79) -0.1733 ( 80)
          -0.1966 ( 81)
 CRD 45=   0.1349 (  1) -0.1266 (  3) -0.1674 (  5)  0.1680 (  7) -0.1302 (  8)
           0.1304 ( 10) -0.1316 ( 18)  0.1324 ( 20)  0.1251 ( 23) -0.1272 ( 24)
          -0.1258 ( 25)  0.1254 ( 27) -0.1330 ( 29)  0.1319 ( 31)  0.2451 ( 47)
           0.2456 ( 49) -0.2059 ( 51) -0.1720 ( 53)  0.1926 ( 54)  0.1921 ( 55)
          -0.2409 ( 56) -0.2496 ( 57)  0.2138 ( 59)  0.2127 ( 60) -0.2119 ( 61)
          -0.2129 ( 62)  0.1269 ( 65)  0.1358 ( 72) -0.1341 ( 78) -0.1340 ( 81)

 THE DETERMINANT OF THE G MATRIX IS 10**(   -16)


                     --------------------
                     INTERNAL COORDINATES
                     --------------------

                 - - ATOMS - -         COORDINATE      COORDINATE
 NO.   TYPE    I  J  K  L  M  N        (BOHR,RAD)       (ANG,DEG)
 ----------------------------------------------------------------
   1 STRETCH   1  7                     2.0944899       1.1083564
   2 STRETCH   1  4                     2.8540326       1.5102891
   3 STRETCH   1  8                     2.0949103       1.1085789
   4 STRETCH   1  2                     2.8721668       1.5198853
   5 STRETCH   2  9                     2.0950284       1.1086414
   6 STRETCH   2  3                     2.8724551       1.5200379
   7 STRETCH   2 10                     2.0969323       1.1096489
   8 STRETCH   3 11                     2.0943928       1.1083050
   9 STRETCH   3  5                     2.8569936       1.5118560
  10 STRETCH   3 12                     2.0943064       1.1082593
  11 STRETCH   4 14                     2.0861391       1.1039373
  12 STRETCH   4 13                     2.0870411       1.1044147
  13 STRETCH   4  6                     3.3694023       1.7830110
  14 STRETCH   5 16                     2.0755430       1.0983301
  15 STRETCH   5 15                     2.0754275       1.0982690
  16 STRETCH   5 17                     2.0739083       1.0974651
  17 BEND      1  4 14                  1.9473379     111.5742448
  18 BEND      1  2 10                  1.9117906     109.5375333
  19 BEND      1  2  3                  1.9439223     111.3785424
  20 BEND      1  2  9                  1.9205910     110.0417566
  21 BEND      1  4  6                  1.9114831     109.5199160
  22 BEND      1  4 13                  1.9559108     112.0654316
  23 BEND      2  1  8                  1.9207573     110.0512867
  24 BEND      2  1  7                  1.9187075     109.9338447
  25 BEND      2  3 12                  1.9176614     109.8739068
  26 BEND      2  3  5                  1.9440658     111.3867664
  27 BEND      2  3 11                  1.9179169     109.8885433
  28 BEND      2  1  4                  1.9525074     111.8704322
  29 BEND      3  2 10                  1.9228489     110.1711281
  30 BEND      3  5 15                  1.9482379     111.6258065
  31 BEND      3  2  9                  1.9188521     109.9421297
  32 BEND      3  5 17                  1.9423739     111.2898264
  33 BEND      3  5 16                  1.9487700     111.6562941
  34 BEND      4  1  7                  1.9061055     109.2117992
  35 BEND      4  1  8                  1.9168635     109.8281866
  36 BEND      5  3 12                  1.9197824     109.9954303
  37 BEND      5  3 11                  1.9194200     109.9746679
  38 BEND      6  4 13                  1.8870358     108.1191877
  39 BEND      6  4 14                  1.8831194     107.8947924
  40 BEND      7  1  8                  1.8458532     105.7595992
  41 BEND      9  2 10                  1.8432468     105.6102602
  42 BEND     11  3 12                  1.8423609     105.5595036
  43 BEND     13  4 14                  1.8764659     107.5135790
  44 BEND     15  5 17                  1.8746520     107.4096468
  45 BEND     15  5 16                  1.8716135     107.2355524
  46 BEND     16  5 17                  1.8741900     107.3831754
  47 TORSION   1  2  3 12               1.0125488      58.0147750
  48 TORSION   1  2  3  5              -3.1388140    -179.8407960
  49 TORSION   1  2  3 11              -1.0072747     -57.7125879
  50 TORSION   2  1  4 14               3.0131487     172.6407053
  51 TORSION   2  1  4 13               0.9077964      52.0129050
  52 TORSION   2  3  5 17               3.1373940     179.7594332
  53 TORSION   2  1  4  6              -1.1862975     -67.9698390
  54 TORSION   2  3  5 15               1.0430931      59.7648333
  55 TORSION   2  3  5 16              -1.0517170     -60.2589446
  56 TORSION   3  2  1  7              -1.0478043     -60.0347658
  57 TORSION   3  2  1  8               0.9785012      56.0639874
  58 TORSION   3  2  1  4               3.1145098     178.4482657
  59 TORSION   4  1  2  9              -1.0361060     -59.3645026
  60 TORSION   4  1  2 10               0.9829391      56.3182625
  61 TORSION   5  3  2 10              -1.0136470     -58.0776922
  62 TORSION   5  3  2  9               1.0107979      57.9144512
  63 TORSION   6  4  1  8               0.9519329      54.5417390
  64 TORSION   6  4  1  7               2.9687687     170.0979180
  65 TORSION   7  1  4 14               0.8850296      50.7084622
  66 TORSION   7  1  2  9               1.0847652      62.1524659
  67 TORSION   7  1  4 13              -1.2203227     -69.9193380
  68 TORSION   7  1  2 10               3.1038103     177.8352309
  69 TORSION   8  1  2  9               3.1110707     178.2512190
  70 TORSION   8  1  2 10              -1.1530695     -66.0660159
  71 TORSION   8  1  4 13               3.0460269     174.5244830
  72 TORSION   8  1  4 14              -1.1318062     -64.8477168
  73 TORSION   9  2  3 12              -1.1210246     -64.2299778
  74 TORSION   9  2  3 11              -3.1408481    -179.9573407
  75 TORSION  10  2  3 12               3.1377159     179.7778788
  76 TORSION  10  2  3 11               1.1178924      64.0505159
  77 TORSION  11  3  5 16               3.1007978     177.6626265
  78 TORSION  11  3  5 17               1.0067234      57.6810042
  79 TORSION  11  3  5 15              -1.0875774     -62.3135956
  80 TORSION  12  3  5 16               1.0788796      61.8152497
  81 TORSION  12  3  5 17              -1.0151947     -58.1663726
  82 TORSION  12  3  5 15              -3.1094956    -178.1609724

     ------------------------------------------
     THE POINT GROUP IS C1 , NAXIS= 1, ORDER= 1
     ------------------------------------------

     DIMENSIONS OF THE SYMMETRY SUBSPACES ARE
 A   =  188

 ..... DONE SETTING UP THE RUN .....
 STEP CPU TIME =     0.00 TOTAL CPU TIME =        0.0 (    0.0 MIN)
 TOTAL WALL CLOCK TIME=        0.0 SECONDS, CPU UTILIZATION IS   0.00%


          -----------------------------
          STATIONARY POINT LOCATION RUN
          -----------------------------

 OBTAINING INITIAL HESSIAN, HESS=GUESS   
 DIAGONAL GUESS HESSIAN IN INTERNAL COORDS IS
     1  0.3342     2  0.3815     3  0.3341     4  0.3745     5  0.3340
     6  0.3743     7  0.3334     8  0.3343     9  0.3804    10  0.3343
    11  0.3371    12  0.3368    13  0.3443    14  0.3408    15  0.3408
    16  0.3414    17  0.2244    18  0.2235    19  0.2499    20  0.2236
    21  0.2567    22  0.2244    23  0.2236    24  0.2236    25  0.2236
    26  0.2505    27  0.2236    28  0.2506    29  0.2235    30  0.2247
    31  0.2236    32  0.2247    33  0.2247    34  0.2242    35  0.2241
    36  0.2241    37  0.2241    38  0.2289    39  0.2289    40  0.2016
    41  0.2015    42  0.2016    43  0.2020    44  0.2026    45  0.2026
    46  0.2026    47  0.2500    48  0.2500    49  0.2500    50  0.2500
    51  0.2500    52  0.2500    53  0.2500    54  0.2500    55  0.2500
    56  0.2500    57  0.2500    58  0.2500    59  0.2500    60  0.2500
    61  0.2500    62  0.2500    63  0.2500    64  0.2500    65  0.2500
    66  0.2500    67  0.2500    68  0.2500    69  0.2500    70  0.2500
    71  0.2500    72  0.2500    73  0.2500    74  0.2500    75  0.2500
    76  0.2500    77  0.2500    78  0.2500    79  0.2500    80  0.2500
    81  0.2500    82  0.2500
 TRANSFORMING HESSIAN TO SYMMETRY COORDINATES

          PARAMETERS CONTROLLING GEOMETRY SEARCH ARE
          METHOD =QA                  UPHESS =BFGS    
          NNEG   =         0          NFRZ   =         3
          NSTEP  =        50          IFOLOW =         1
          HESS   =GUESS               RESTAR =         F
          IHREP  =         0          HSSEND =         F
          NPRT   =         0          NPUN   =         0
          OPTTOL = 5.000E-04          RMIN   = 1.500E-03
          RMAX   = 1.000E-01          RLIM   = 7.000E-02
          DXMAX  = 3.000E-01          PURIFY =         F
          MOVIE  =         F          TRUPD  =         T
          TRMAX  = 5.000E-01          TRMIN  = 5.000E-02
          ITBMAT =         5          STPT   =         F
          STSTEP = 1.000E-02          PROJCT=          F
          FROZEN COORD(S)=   1   2   3


      ***** EQUILIBRIUM GEOMETRY LOCATED *****
            (SUBJECT TO   3 CONSTRAINT(S))
 COORDINATES OF ALL ATOMS ARE (ANGS)
   ATOM   CHARGE       X              Y              Z
 ------------------------------------------------------------
 C           6.0   3.1825143959   1.9543794231   3.7297260468
 C           6.0   2.8435992843   1.6007585551   2.2916856696
 C           6.0   1.3674076059   1.2812109997   2.1263298231
 C           6.0   4.6586624587   2.1794762533   3.9582092309
 C           6.0   1.0546251148   0.8834660640   0.6920471385
 CL         17.0   5.6001173089   0.6190331816   3.7786323488
 H           1.0   2.6737238305   2.8776376900   4.0015124251
 H           1.0   2.8176902107   1.1828632873   4.4011920421
 H           1.0   3.1193120742   2.4291609591   1.6397262796
 H           1.0   3.4303970289   0.7446425417   1.9702683702
 H           1.0   1.1035388228   0.4743184954   2.8076642437
 H           1.0   0.7734331829   2.1441988706   2.4223524552
 H           1.0   5.0809209834   2.8524742911   3.2289510727
 H           1.0   4.8729489850   2.5238406613   4.9546920302
 H           1.0   1.6575332224   0.0250018394   0.4070625636
 H           1.0   1.2948442152   1.6998349126   0.0160071856
 H           1.0   0.0091861650   0.6260893480   0.5633895500


                     --------------------
                     INTERNAL COORDINATES
                     --------------------

                 - - ATOMS - -         COORDINATE      COORDINATE
 NO.   TYPE    I  J  K  L  M  N        (BOHR,RAD)       (ANG,DEG)
 ----------------------------------------------------------------
   1 STRETCH   1  7                     2.0572352       1.0886420
   2 STRETCH   1  4                     2.8546037       1.5105914
   3 STRETCH   1  8                     2.0520723       1.0859099
   4 STRETCH   1  2                     2.8708112       1.5191680
   5 STRETCH   2  9                     2.0591243       1.0896417
   6 STRETCH   2  3                     2.8712613       1.5194062
   7 STRETCH   2 10                     2.0532682       1.0865428
   8 STRETCH   3 11                     2.0570419       1.0885398
   9 STRETCH   3  5                     2.8741240       1.5209210
  10 STRETCH   3 12                     2.0572712       1.0886611
  11 STRETCH   4 14                     2.0330883       1.0758641
  12 STRETCH   4 13                     2.0379677       1.0784461
  13 STRETCH   4  6                     3.4606077       1.8312749
  14 STRETCH   5 16                     2.0538056       1.0868272
  15 STRETCH   5 15                     2.0542245       1.0870489
  16 STRETCH   5 17                     2.0490575       1.0843146
  17 BEND      1  4 14                  1.9632156     112.4839691
  18 BEND      1  2 10                  1.9208452     110.0563210
  19 BEND      1  2  3                  1.9484275     111.6366715
  20 BEND      1  2  9                  1.9102343     109.4483644
  21 BEND      1  4  6                  1.9396745     111.1351612
  22 BEND      1  4 13                  1.9533883     111.9209030
  23 BEND      2  1  8                  1.9230268     110.1813190
  24 BEND      2  1  7                  1.9065378     109.2365715
  25 BEND      2  3 12                  1.9111030     109.4981363
  26 BEND      2  3  5                  1.9363149     110.9426737
  27 BEND      2  3 11                  1.8999995     108.8619511
  28 BEND      2  1  4                  1.9778098     113.3201568
  29 BEND      3  2 10                  1.9037081     109.0744380
  30 BEND      3  5 15                  1.9173864     109.8581509
  31 BEND      3  2  9                  1.9183599     109.9139260
  32 BEND      3  5 17                  1.9522271     111.8543726
  33 BEND      3  5 16                  1.9227206     110.1637744
  34 BEND      4  1  7                  1.8677095     107.0118696
  35 BEND      4  1  8                  1.9183986     109.9161433
  36 BEND      5  3 12                  1.9299963     110.5806445
  37 BEND      5  3 11                  1.9246953     110.2769191
  38 BEND      6  4 13                  1.8381198     105.3165051
  39 BEND      6  4 14                  1.8350343     105.1397187
  40 BEND      7  1  8                  1.8662305     106.9271339
  41 BEND      9  2 10                  1.8601961     106.5813829
  42 BEND     11  3 12                  1.8599588     106.5677872
  43 BEND     13  4 14                  1.9268597     110.4009278
  44 BEND     15  5 17                  1.8925030     108.4324324
  45 BEND     15  5 16                  1.8833978     107.9107442
  46 BEND     16  5 17                  1.8939860     108.5174015
  47 TORSION   1  2  3 12               1.0404012      59.6105994
  48 TORSION   1  2  3  5              -3.1077148    -178.0589438
  49 TORSION   1  2  3 11              -0.9866950     -56.5334566
  50 TORSION   2  1  4 14               3.0420702     174.2977840
  51 TORSION   2  1  4 13               0.8608403      49.3225180
  52 TORSION   2  3  5 17               3.1146307     178.4551935
  53 TORSION   2  1  4  6              -1.1888947     -68.1186476
  54 TORSION   2  3  5 15               1.0120616      57.9868583
  55 TORSION   2  3  5 16              -1.0604750     -60.7607402
  56 TORSION   3  2  1  7              -1.1355778     -65.0638133
  57 TORSION   3  2  1  8               0.9096178      52.1172592
  58 TORSION   3  2  1  4               3.0671683     175.7357965
  59 TORSION   4  1  2  9              -1.0881943     -62.3489421
  60 TORSION   4  1  2 10               0.9505957      54.4651242
  61 TORSION   5  3  2 10              -0.9812245     -56.2200246
  62 TORSION   5  3  2  9               1.0523388      60.2945692
  63 TORSION   6  4  1  8               0.9711892      55.6450415
  64 TORSION   6  4  1  7               2.9916895     171.4111841
  65 TORSION   7  1  4 14               0.9394691      53.8276157
  66 TORSION   7  1  2  9               0.9922450      56.8514481
  67 TORSION   7  1  4 13              -1.2417608     -71.1476503
  68 TORSION   7  1  2 10               3.0310350     173.6655144
  69 TORSION   8  1  2  9               3.0374405     174.0325205
  70 TORSION   8  1  2 10              -1.2069547     -69.1534132
  71 TORSION   8  1  4 13               3.0209242     173.0862071
  72 TORSION   8  1  4 14              -1.0810312     -61.9385269
  73 TORSION   9  2  3 12              -1.0827305     -62.0358877
  74 TORSION   9  2  3 11              -3.1098267    -178.1799437
  75 TORSION  10  2  3 12              -3.1162938    -178.5504814
  76 TORSION  10  2  3 11               1.1397953      65.3054626
  77 TORSION  11  3  5 16               3.1162390     178.5473417
  78 TORSION  11  3  5 17               1.0081593      57.7632754
  79 TORSION  11  3  5 15              -1.0944098     -62.7050598
  80 TORSION  12  3  5 16               1.0635719      60.9381824
  81 TORSION  12  3  5 17              -1.0445077     -59.8458839
  82 TORSION  12  3  5 15               3.1361085     179.6857809

          INTERNUCLEAR DISTANCES (ANGS.)


 =====================================================
   GAMESS/COSab RESULTS
 =====================================================

   Dielectric Constant                  = INFTY
   Basic Grid Size                      =                 1082
   Number of Segments                   =                   92
   Number of Segments located on spheres=                  242
   Number of Segments of the cavity     =                  611
   Solvent Radius (rsolv)               = 1.40
   Outlying Charge Error Method         = double cavity

 =====================================================

  Total solvated Energy (a.u.)          =  -655.3183044785
  Total Energy corrected (a.u.)         =  -655.3183347186

  Outlying charge effect (a.u.)         =    -0.0000302401
  Outlying charge effect (kcal/mol)     =    -0.0189759875

  Dielectric Energy (a.u.)              =    -0.0074166628
  Dielectric energy corr. (a.u.)        =    -0.0074469029

  Sum of polarization charges           =     0.0266088669
  Sum of polarization charges(cor.)     =    -0.0266088669

  Total surface area of cavity (A**2)   =  153.22
  Total volume of cavity (A**3)         =  145.77

 =====================================================
 NPS=                   611
NR.  ATOM  (X, Y, Z)(a.u.)                  CHARGE(e)  AREA(A**2) SIGMA(e/A**2)
   1   1   4.567623   3.988524  10.527347   0.001067   0.371649   0.002870
   2   1   4.094559   4.808879  10.106747   0.000838   0.278737   0.003006
   3   1   6.248687   7.251916   5.797148  -0.000143   0.092912  -0.001535
   4   1   2.775134   3.594775   8.993337   0.000575   0.232280   0.002477
   5   1   3.403790   3.951509   9.769162   0.001354   0.371649   0.003644
   6   1   5.332747   4.565624  10.661871   0.000340   0.325193   0.001045
   7   1   5.842308   3.524206  10.819912   0.000087   0.232280   0.000377
   8   1   5.549651   5.447771  10.363293   0.000187   0.278737   0.000670
   9   1   2.885471   4.460597   9.024810   0.000298   0.139368   0.002137
  10   1   5.897494   7.189937   5.618555  -0.000018   0.046456  -0.000395
  11   2   7.156492   2.436859   1.050448   0.001069   0.278737   0.003834
  12   2   5.337970  -0.542325   5.578564  -0.000017   0.046456  -0.000366
  13   2   7.248068   3.196209   1.053246   0.001001   0.232280   0.004311
  14   2   4.123288   6.558112   3.842869   0.000199   0.139368   0.001430
  15   2   8.548953   3.272608   2.295897   0.000256   0.092912   0.002756
  16   2   8.048543   2.833194   1.667519   0.001656   0.325193   0.005092
  17   2   5.492223  -0.647278   5.216470  -0.000005   0.046456  -0.000108
  18   2   8.315630   3.679550   2.050213   0.000526   0.139368   0.003775
  19   2   4.529407   6.706657   4.200861   0.000040   0.046456   0.000860
  20   3  -0.735903   2.602593   5.815250   0.001657   0.371649   0.004458
  21   3   2.380755   5.936296   2.644669   0.000154   0.092912   0.001659
  22   3  -0.310570   1.844235   6.378863   0.001272   0.278737   0.004563
  23   3   3.427747  -1.256117   4.242319   0.000210   0.139368   0.001508
  24   3   0.994669   3.179897   7.362209   0.000892   0.232280   0.003842
  25   3   0.140386   2.778326   6.879185   0.001943   0.371649   0.005227
  26   3  -0.882240   1.643761   5.308536   0.001047   0.325193   0.003219
  27   3  -0.954753   1.222237   4.587401   0.000308   0.139368   0.002209
  28   3  -1.121782   2.986393   4.499613   0.000492   0.185824   0.002647
  29   3  -1.153586   2.960404   3.864087   0.000114   0.092912   0.001223
  30   3   1.987483   5.885881   2.631139   0.000088   0.046456   0.001887
  31   3  -0.603647   0.603318   4.922951   0.000406   0.185824   0.002187
  32   3   0.907843   2.311830   7.403853   0.000535   0.139368   0.003841
  33   3   3.838170  -1.097836   4.591113   0.000067   0.046456   0.001442
  34   3  -1.153582   2.246112   4.551068   0.000556   0.232280   0.002393
  35   4   8.057099   7.780372   8.044338  -0.001180   0.325193  -0.003629
  36   4  11.639749   6.324920   8.651543  -0.000265   0.464561  -0.000571
  37   4   7.876417   2.807239  10.901185  -0.000454   0.185824  -0.002444
  38   4  11.442293   6.819392   7.645109  -0.000322   0.278737  -0.001155
  39   4   8.848732   7.893946   7.309381  -0.000792   0.278737  -0.002841
  40   4   8.161340   7.778034   6.786816  -0.000780   0.185824  -0.004200
  41   4   9.228794   7.811761   8.161206  -0.000546   0.325193  -0.001680
  42   4  10.666671   7.209342   8.602693  -0.000071   0.371649  -0.000191
  43   4  12.185328   5.718936   8.015704  -0.000330   0.325193  -0.001016
  44   4   8.356982   7.517039   9.072270  -0.001166   0.325193  -0.003586
  45   4  12.061432   5.207954   9.056022  -0.000534   0.278737  -0.001914
  46   4   8.462649   2.501024  10.878679  -0.000184   0.046456  -0.003955
  47   4  12.254917   5.628311   7.174349  -0.000208   0.232280  -0.000893
  48   4  10.169891   7.623393   7.845987  -0.000321   0.278737  -0.001151
  49   4   7.851089   7.511931   6.115240  -0.000479   0.092912  -0.005156
  50   4   7.723646   7.161884   9.443737  -0.000420   0.139368  -0.003013
  51   4   9.458033   7.537417   8.952267  -0.000350   0.232280  -0.001509
  52   5   0.316580  -1.613295   0.472816   0.001122   0.232280   0.004829
  53   5   1.883286   0.841751  -2.378278   0.000971   0.371649   0.002613
  54   5   5.035377   2.192503  -0.872675   0.001648   0.371649   0.004434
  55   5  -0.939311   4.051738   1.202314   0.001454   0.418105   0.003478
  56   5  -1.009661   3.654511   0.155226   0.000754   0.185824   0.004057
  57   5  -0.034862   4.853570   1.123267   0.000608   0.232280   0.002618
  58   5   0.010299   4.762049   0.419185   0.000840   0.232280   0.003618
  59   5   5.096510   1.250537  -0.808024   0.001249   0.278737   0.004481
  60   5   2.606013   0.033092  -2.043415   0.001376   0.418105   0.003291
  61   5   1.090969  -1.905431   0.476867   0.001590   0.325193   0.004890
  62   5   2.490575  -1.815377   2.683328   0.000363   0.185824   0.001952
  63   5  -0.528208   3.065056  -1.137722   0.001931   0.371649   0.005197
  64   5  -0.058402   3.613274  -1.201804   0.001123   0.232280   0.004834
  65   5   1.417202  -1.792642   2.709999   0.000778   0.278737   0.002792
  66   5   0.621364  -1.828523   1.716080   0.002245   0.511017   0.004393
  67   5   0.627003  -1.222653  -0.705620   0.002532   0.511017   0.004955
  68   5   1.227405  -0.223397  -1.872638   0.001266   0.418105   0.003027
  69   5   2.996112   1.432147  -2.328368   0.001713   0.418105   0.004098
  70   5   4.278217   1.721607  -1.702053   0.001802   0.325193   0.005540
  71   5  -0.453916  -0.666249   2.993393   0.000299   0.139368   0.002146
  72   5  -0.165436   1.698710  -1.794600   0.001421   0.371649   0.003824
  73   5   0.723487   1.039870  -2.195968   0.001261   0.464561   0.002715
  74   5   1.682595   1.913217  -2.451015   0.001040   0.325193   0.003197
  75   5  -1.243839   3.508936   1.958925   0.000428   0.185824   0.002302
  76   5  -0.437501   4.165262  -0.157970   0.001743   0.371649   0.004690
  77   5   0.883901   5.269818   1.004288   0.000392   0.139368   0.002812
  78   5   3.755734   0.908021  -1.947518   0.001463   0.325193   0.004498
  79   5   1.472981  -0.983864  -1.332947   0.001045   0.278737   0.003751
  80   5   1.621381  -2.055792   1.825717   0.000606   0.185824   0.003262
  81   5   0.540867   2.492688  -2.083104   0.001699   0.418105   0.004065
  82   5   0.183140  -1.362882   2.654401   0.000839   0.278737   0.003010
  83   5   0.167664   0.018137  -1.560235   0.001160   0.371649   0.003120
  84   6  12.524684  -2.170031   6.854961  -0.000835   0.536887  -0.001555
  85   6   8.670640  -2.191210   6.906025   0.002718   0.341655   0.007955
  86   6  10.549453  -1.237987  10.175175   0.004092   0.488079   0.008384
  87   6  13.835502   0.772027   9.206588   0.004059   0.488079   0.008317
  88   6  13.940797   1.226117   5.209925   0.004016   0.488079   0.008229
  89   6  10.648250  -0.500991   3.646069   0.003165   0.341655   0.009263
  90   6  11.180324  -2.622359   6.621224   0.000199   0.585695   0.000340
  91   6   9.808254  -2.609562   6.788413   0.002194   0.488079   0.004495
  92   6  11.917987  -2.330238   8.127530   0.000257   0.585695   0.000440
  93   6  11.177259  -2.025237   9.249028   0.002259   0.488079   0.004628
  94   6  13.368096  -1.446399   7.776510   0.000245   0.585695   0.000418
  95   6  13.936942  -0.320539   8.379647   0.002482   0.536887   0.004622
  96   6  13.417308  -1.292496   6.186923   0.000041   0.536887   0.000076
  97   6  13.834198  -0.182251   5.525925   0.002000   0.488079   0.004098
  98   6  12.190803  -1.916007   5.437882   0.000100   0.683311   0.000146
  99   6  11.424704  -1.372437   4.341388   0.002683   0.585695   0.004581
 100   6   9.011849  -2.238658   8.100887   0.003795   0.488079   0.007776
 101   6   9.713243  -1.946742   9.270964   0.004251   0.536887   0.007918
 102   6  11.766640  -0.836595  10.235733   0.005023   0.634503   0.007916
 103   6  13.050448  -0.052182   9.865336   0.004572   0.585695   0.007806
 104   6  14.387519   1.080310   7.863560   0.004762   0.585695   0.008130
 105   6  14.393444   1.161900   6.443762   0.004588   0.585695   0.007833
 106   6  13.168856   0.715355   4.292298   0.004259   0.536887   0.007933
 107   6  11.899660  -0.022483   3.697976   0.004189   0.536887   0.007803
 108   6  10.036856  -1.478753   4.366658   0.003623   0.488079   0.007423
 109   6   9.109620  -2.049015   5.566837   0.004631   0.585695   0.007907
 110   6   7.958637  -1.558704   7.963335   0.003602   0.390463   0.009224
 111   6   8.661291  -0.283519  10.174288   0.002189   0.244040   0.008970
 112   6   9.402452  -0.840928  10.234333   0.003690   0.390463   0.009451
 113   6  10.364194   0.011074  10.830691   0.005456   0.585695   0.009316
 114   6  10.683341   1.288731  11.011374   0.003545   0.488079   0.007263
 115   6  12.025452   1.965359  10.646701   0.003492   0.439271   0.007950
 116   6  13.085269   1.622575  10.062818   0.005471   0.585695   0.009341
 117   6  13.917668   2.197943   8.822325   0.006056   0.634503   0.009544
 118   6  13.545135   3.448276   8.160341   0.004352   0.585695   0.007431
 119   6  13.458597   3.679283   6.477911   0.003362   0.488079   0.006889
 120   6  13.955080   2.553615   5.829273   0.005034   0.536887   0.009377
 121   6  13.136904   2.110936   4.384178   0.004470   0.488079   0.009158
 122   6  12.244254   2.886951   4.091302   0.003433   0.439271   0.007816
 123   6  11.177344   2.221046   3.459716   0.003239   0.390463   0.008295
 124   6  10.969160   0.705481   3.314025   0.003672   0.390463   0.009403
 125   6   8.009738  -1.687967   6.671090   0.003226   0.292848   0.011015
 126   6  10.447004  -2.595550   8.041171   0.002122   0.585695   0.003623
 127   6  12.761501  -1.365836   9.097795   0.002329   0.683311   0.003408
 128   6  14.187699  -0.230270   6.914425   0.002095   0.585695   0.003578
 129   6  12.867985  -0.669581   4.610449   0.002561   0.634503   0.004036
 130   6  10.524498  -2.279211   5.377535   0.001833   0.536887   0.003413
 131   6   8.500643  -1.355891   9.212599   0.005115   0.488079   0.010479
 132   6  11.942221   0.592381  10.721865   0.005540   0.585695   0.009458
 133   6  14.203253   2.546691   7.196738   0.005554   0.585695   0.009483
 134   6  12.068895   1.439065   3.573202   0.005036   0.536887   0.009380
 135   6   9.251909   0.707343  10.749244   0.003012   0.439271   0.006856
 136   6  12.948645   3.001445   9.601218   0.003379   0.488079   0.006924
 137   6  13.118407   3.266519   5.095731   0.003491   0.439271   0.007948
 138   7   3.868966   7.451633   8.322756  -0.002076   0.333671  -0.006221
 139   7   4.349471   7.514402   6.453160  -0.001909   0.372926  -0.005120
 140   7   5.413759   7.801146   6.996151  -0.001381   0.333671  -0.004140
 141   7   5.240149   7.169066   9.294710  -0.001575   0.314043  -0.005017
 142   7   3.550959   6.142248   9.373966  -0.001220   0.372926  -0.003272
 143   7   4.444598   7.815713   7.454032  -0.001907   0.333671  -0.005716
 144   7   5.274528   7.772866   8.292485  -0.002018   0.431809  -0.004673
 145   7   4.207990   7.171263   9.084027  -0.001705   0.294415  -0.005792
 146   7   2.979049   6.306101   8.552588  -0.002514   0.471065  -0.005337
 147   7   3.384179   7.235336   7.417548  -0.002605   0.372926  -0.006984
 148   7   4.594273   6.469450   9.743733  -0.000768   0.294415  -0.002608
 149   8   4.413213   0.825190  10.110380  -0.002266   0.392554  -0.005771
 150   8   5.157326  -0.208229   8.507680  -0.001550   0.274788  -0.005639
 151   8   3.501354   2.176622   9.962425  -0.000994   0.353299  -0.002812
 152   8   5.451061   1.994145  10.758567  -0.001192   0.333671  -0.003571
 153   8   5.308534   0.170532   9.648083  -0.001705   0.333671  -0.005110
 154   8   4.307361   0.172560   9.180411  -0.002088   0.314043  -0.006648
 155   8   3.488542   1.284258   9.643459  -0.002010   0.333671  -0.006023
 156   8   4.395830   2.059590  10.584548  -0.001285   0.392554  -0.003274
 157   8   5.605669   1.026231  10.437037  -0.002278   0.412182  -0.005526
 158   9   6.534616   6.321346   1.477041  -0.001830   0.392554  -0.004661
 159   9   6.293452   7.008227   3.273117  -0.001149   0.274788  -0.004182
 160   9   4.831997   6.746041   2.589376  -0.000924   0.333671  -0.002769
 161   9   7.226346   4.748365   1.040301  -0.000576   0.372926  -0.001545
 162   9   5.716942   7.017889   2.765312  -0.001159   0.353299  -0.003279
 163   9   5.489344   6.532487   1.649718  -0.001880   0.372926  -0.005042
 164   9   6.501619   5.495664   0.896979  -0.001577   0.333671  -0.004725
 165   9   7.718574   5.479423   1.713671  -0.001718   0.451437  -0.003806
 166   9   7.021215   6.643626   2.356717  -0.001974   0.372926  -0.005294
 167  10   7.575493  -0.359010   2.411341  -0.001507   0.274788  -0.005484
 168  10   8.038413   1.129313   1.842542  -0.000574   0.255160  -0.002248
 169  10   6.365029  -1.038268   3.926084  -0.001429   0.333671  -0.004284
 170  10   7.697950   0.403766   1.838844  -0.001483   0.372926  -0.003976
 171  10   7.049058  -0.858151   2.960065  -0.001363   0.255160  -0.005340
 172  11   1.515810  -1.117324   6.592544  -0.001827   0.412182  -0.004433
 173  11   2.420357  -1.536783   5.359418  -0.000888   0.412182  -0.002154
 174  11   0.287661  -0.773261   5.431365  -0.000833   0.333671  -0.002496
 175  11   0.374504   0.634306   7.049094  -0.000479   0.333671  -0.001434
 176  11   2.915867  -1.222015   6.232023  -0.001613   0.451437  -0.003572
 177  11   1.222107  -1.400128   5.432869  -0.001182   0.431809  -0.002737
 178  11   0.594332  -0.564894   6.600602  -0.001379   0.353299  -0.003904
 179  11   1.147284   0.384019   7.517648  -0.001543   0.451437  -0.003417
 180  11   2.098306  -0.631906   7.229116  -0.001746   0.333671  -0.005234
 181  11  -0.080246   0.072234   6.121830  -0.000469   0.314043  -0.001495
 182  12  -0.046146   5.931797   5.055175  -0.001964   0.431809  -0.004547
 183  12   0.001917   5.746217   3.560733  -0.000745   0.294415  -0.002532
 184  12   1.651513   6.455983   4.108889  -0.000872   0.333671  -0.002613
 185  12   0.107937   4.551353   6.565897  -0.000683   0.392554  -0.001741
 186  12  -0.970537   4.358978   4.737862  -0.000559   0.353299  -0.001582
 187  12   0.718420   6.261627   3.802871  -0.001188   0.412182  -0.002883
 188  12   1.001763   6.399681   5.136037  -0.001982   0.412182  -0.004808
 189  12   0.388621   5.589903   6.164596  -0.001879   0.412182  -0.004558
 190  12  -0.618383   4.716202   5.703495  -0.001211   0.451437  -0.002683
 191  12  -0.671375   5.219551   4.227783  -0.001272   0.451437  -0.002817
 192  13  10.764755   7.104168   4.780817  -0.003688   0.412182  -0.008948
 193  13  10.556005   5.449709   3.838946  -0.002672   0.294415  -0.009077
 194  13  11.790427   6.041501   5.196277  -0.002680   0.333671  -0.008030
 195  13  11.061479   7.364378   6.186215  -0.002098   0.353299  -0.005939
 196  13   9.123917   7.740885   5.570637  -0.002350   0.372926  -0.006301
 197  13  10.172677   6.605045   4.044264  -0.003536   0.353299  -0.010010
 198  13  11.257984   5.851487   4.347187  -0.002782   0.372926  -0.007461
 199  13  11.650082   6.704417   5.767164  -0.002625   0.372926  -0.007038
 200  13  10.226007   7.757221   5.893734  -0.002834   0.412182  -0.006877
 201  13   9.460593   7.397126   4.691766  -0.003654   0.392554  -0.009309
 202  14   9.672356   5.628444  11.617332  -0.005366   0.569203  -0.009427
 203  14   8.381284   4.248477  11.616776  -0.002911   0.412182  -0.007063
 204  14   8.142786   6.371006  10.890760  -0.002474   0.333671  -0.007415
 205  14  10.047637   6.893105  10.268944  -0.001925   0.314043  -0.006129
 206  14  11.248826   5.343033  10.605275  -0.002891   0.392554  -0.007366
 207  14   9.414016   4.028004  11.696097  -0.004068   0.490692  -0.008291
 208  14   8.276529   5.447342  11.532532  -0.003862   0.490692  -0.007870
 209  14   9.131370   6.755551  10.806686  -0.003702   0.510320  -0.007254
 210  14  10.709528   6.201626  10.678587  -0.003399   0.471065  -0.007217
 211  14  10.559300   4.618625  11.409430  -0.004138   0.490692  -0.008434
 212  15   4.104133  -1.974971  -0.231357  -0.002352   0.471065  -0.004992
 213  15   2.617276  -2.320614   0.365427  -0.000680   0.372926  -0.001825
 214  15   3.730763  -2.065595   1.870503  -0.001180   0.372926  -0.003165
 215  15   5.053926  -0.299962  -0.721332  -0.001052   0.431809  -0.002437
 216  15   3.277285  -1.319519  -1.266932  -0.000742   0.372926  -0.001990
 217  15   3.310911  -2.391032   1.009956  -0.001205   0.392554  -0.003069
 218  15   4.576603  -1.930843   0.959367  -0.002262   0.431809  -0.005239
 219  15   5.110256  -1.203176   0.021494  -0.002138   0.431809  -0.004951
 220  15   4.227088  -0.879885  -1.224977  -0.001087   0.412182  -0.002637
 221  15   2.881837  -1.985028  -0.588038  -0.000954   0.372926  -0.002558
 222  16   2.762256   4.738710  -1.868572  -0.002273   0.451437  -0.005036
 223  16   2.313179   5.664967   0.065556  -0.001631   0.412182  -0.003956
 224  16   1.279025   5.295180  -0.546319  -0.000529   0.314043  -0.001684
 225  16   1.700964   3.930685  -2.197421  -0.000814   0.372926  -0.002183
 226  16   3.773092   3.493262  -2.018506  -0.000844   0.392554  -0.002150
 227  16   2.314387   5.433005  -1.011706  -0.001736   0.392554  -0.004421
 228  16   1.219264   4.690238  -1.500592  -0.001082   0.451437  -0.002396
 229  16   2.740874   3.557645  -2.384168  -0.001126   0.431809  -0.002607
 230  16   4.232078   4.110424  -1.398573  -0.001773   0.471065  -0.003764
 231  16   3.494584   5.209539  -0.943514  -0.002324   0.412182  -0.005638
 232  17  -2.328921   0.511204   0.784283  -0.003199   0.569203  -0.005620
 233  17  -1.843470   2.324770  -0.061882  -0.000644   0.372926  -0.001727
 234  17  -2.085609   2.186492   1.843068  -0.000906   0.353299  -0.002564
 235  17  -1.649448  -0.031280   2.399606  -0.001004   0.353299  -0.002843
 236  17  -1.160503  -0.924018   0.608942  -0.000707   0.372926  -0.001895
 237  17  -1.314346   0.475756  -0.874746  -0.000863   0.412182  -0.002093
 238  17  -2.284226   2.024419   0.891262  -0.001854   0.490692  -0.003778
 239  17  -2.184281   0.991760   2.137641  -0.001912   0.490692  -0.003897
 240  17  -1.655979  -0.553969   1.531076  -0.001633   0.471065  -0.003467
 241  17  -1.523381  -0.297727  -0.147073  -0.001676   0.471065  -0.003558
 242  17  -1.920034   1.308977  -0.440596  -0.001808   0.490692  -0.003685
 243   1   5.225670   7.009614   5.397533  -0.000084   0.028192  -0.002993
 244   2   5.119527   6.854122   4.939388  -0.000033   0.028192  -0.001164
 245   7   5.070519   7.107174   5.640143  -0.000110   0.028192  -0.003915
 246   1   5.350158   6.882025   4.929119  -0.000034   0.028014  -0.001213
 247   2   5.233417   6.807702   4.453534  -0.000031   0.028014  -0.001100
 248   9   5.370733   6.833460   4.182948  -0.000047   0.028014  -0.001678
 249   1   2.674597   2.649436   8.582980  -0.000065   0.068026  -0.000959
 250   3   2.129830   2.434712   7.996048   0.000026   0.068026   0.000388
 251   8   2.788851   2.397219   8.709680  -0.000230   0.068026  -0.003378
 252   1   2.105983   4.239665   7.755836   0.000002   0.066185   0.000026
 253   3   1.453049   4.039896   7.285848   0.000063   0.066185   0.000950
 254  12   1.328608   4.278864   7.141593  -0.000089   0.066185  -0.001349
 255   3   1.581970   3.048675   7.685118   0.000705   0.435339   0.001620
 256   1   2.392498   3.667835   8.362594   0.000296   0.435339   0.000681
 257   1   6.522150   7.408744   6.509598  -0.000197   0.030507  -0.006443
 258   4   7.006187   7.443592   6.593978  -0.000292   0.030507  -0.009582
 259   7   6.279933   7.481474   6.678583  -0.000179   0.030507  -0.005856
 260   1   6.599185   2.642655  10.639105  -0.000138   0.027078  -0.005088
 261   4   7.083171   2.726968  10.673305  -0.000157   0.027078  -0.005811
 262   8   6.412184   2.406138  10.612135  -0.000165   0.027078  -0.006086
 263   1   6.793330   6.924750   5.167481  -0.000476   0.101334  -0.004694
 264   4   7.278972   6.959431   5.256998  -0.000648   0.101334  -0.006390
 265   9   6.713557   6.792213   4.434795  -0.000388   0.101334  -0.003829
 266   1   6.894580   3.567218  10.832359  -0.000145   0.022752  -0.006384
 267   4   7.368213   3.634048  10.949079  -0.000199   0.022752  -0.008748
 268  14   7.566567   3.823246  11.065309  -0.000273   0.022752  -0.012018
 269   4   7.449759   7.331969   5.958122  -0.000950   0.168534  -0.005638
 270   1   6.720500   7.293190   6.040315  -0.000617   0.168534  -0.003663
 271   4   7.307280   3.260267  10.889827  -0.000439   0.117428  -0.003739
 272   1   6.642521   3.017367  10.756424  -0.000271   0.117428  -0.002304
 273   1   2.462678   4.819698   7.994375  -0.000170   0.087516  -0.001948
 274   7   2.525741   5.120176   7.994529  -0.000272   0.087516  -0.003111
 275  12   1.786504   4.794489   7.270549  -0.000039   0.087516  -0.000449
 276   1   6.290114   6.182690   9.903724  -0.000223   0.037222  -0.005986
 277   7   6.079162   6.350692   9.763742  -0.000214   0.037222  -0.005762
 278  14   7.010357   6.173770  10.128722  -0.000315   0.037222  -0.008459
 279   7   2.873511   5.296720   8.676129  -0.000236   0.076237  -0.003101
 280   7   3.709722   5.504983   9.534064  -0.000655   0.172850  -0.003791
 281   7   4.998364   6.122782   9.847775  -0.000892   0.172850  -0.005161
 282   1   3.172236   4.940386   9.096907  -0.000330   0.163897  -0.002016
 283   1   4.481817   5.404230   9.972796  -0.000475   0.163897  -0.002896
 284   1   5.657584   6.050664   9.977936  -0.000336   0.093140  -0.003611
 285   7   5.605590   7.472831   6.398455  -0.000614   0.119285  -0.005146
 286   1   5.695525   7.256181   5.953878  -0.000575   0.145732  -0.003947
 287   8   5.847114   2.400507  10.704367  -0.000291   0.078407  -0.003709
 288   8   4.674595   2.807188  10.534571  -0.000677   0.179470  -0.003772
 289   8   3.433243   2.665351   9.697140  -0.000726   0.179470  -0.004044
 290   1   5.563799   2.968605  10.661839  -0.000651   0.167081  -0.003896
 291   1   3.987514   3.248911  10.127464  -0.000283   0.167081  -0.001691
 292   1   3.017449   2.904951   9.205196  -0.000107   0.095792  -0.001117
 293   9   5.832544   6.898191   4.006555  -0.000558   0.218461  -0.002556
 294   1   6.081295   7.034830   5.101566  -0.000198   0.307790  -0.000644
 295  12   1.191271   4.534112   7.121659   0.000015   0.078423   0.000192
 296   1   2.263582   4.585140   8.116355   0.000247   0.111309   0.002215
 297  14   7.395623   5.937540  10.627954  -0.001382   0.179604  -0.007697
 298  14   7.487904   4.712691  11.070011  -0.003157   0.365686  -0.008632
 299   1   6.356517   5.318597  10.483605  -0.001509   0.494244  -0.003054
 300   1   6.537204   3.902627  10.892511  -0.000438   0.253032  -0.001731
 301   2   3.807524   6.273736   3.175342  -0.000019   0.027447  -0.000708
 302   3   3.335674   6.129484   3.131242   0.000006   0.027447   0.000217
 303   9   4.043890   6.336334   2.993864  -0.000054   0.027447  -0.001967
 304   2   5.162177  -0.745738   4.616965  -0.000020   0.028230  -0.000708
 305   3   4.674641  -0.809271   4.556175  -0.000002   0.028230  -0.000085
 306  10   5.411850  -0.784423   4.449604  -0.000053   0.028230  -0.001862
 307   2   4.618241  -0.670394   5.262354  -0.000001   0.028625  -0.000028
 308   3   4.146095  -0.813877   5.218483  -0.000012   0.028625  -0.000433
 309  11   3.915547  -0.869105   5.408819  -0.000040   0.028625  -0.001385
 310   2   3.290357   6.248649   3.724195   0.000003   0.027884   0.000108
 311   3   2.802909   6.185315   3.662604  -0.000010   0.027884  -0.000343
 312  12   2.549445   6.227173   3.825246  -0.000042   0.027884  -0.001508
 313   3   4.322202  -0.892131   4.832699   0.000093   0.087929   0.001054
 314   2   4.996469  -0.723911   5.013248   0.000077   0.087929   0.000881
 315   3   2.948388   6.188211   3.414606   0.000094   0.069364   0.001349
 316   2   3.650716   6.322377   3.410453   0.000069   0.069364   0.000988
 317   2   6.122534   3.518610   0.620195   0.000118   0.065656   0.001800
 318   5   5.485284   3.266759   0.159198   0.000157   0.065656   0.002393
 319   9   6.143557   3.822435   0.650343  -0.000097   0.065656  -0.001481
 320   2   6.549441   1.506439   1.028683   0.000099   0.067462   0.001472
 321   5   5.906743   1.287925   0.558083   0.000164   0.067462   0.002427
 322  10   6.668551   1.259858   1.162417  -0.000084   0.067462  -0.001244
 323   5   5.480267   2.331187  -0.106210   0.001115   0.513589   0.002172
 324   2   6.399670   2.312625   0.719791   0.000976   0.513589   0.001900
 325   2   5.849232  -0.215693   6.535900  -0.000005   0.227115  -0.000020
 326   6   6.782729  -0.508976   7.028782   0.001274   0.227115   0.005608
 327   8   5.837146  -0.136784   7.290962  -0.000418   0.227115  -0.001840
 328   2   6.253369  -0.624711   5.321152  -0.000083   0.089862  -0.000924
 329   6   7.194457  -0.879790   5.806472   0.000859   0.089862   0.009555
 330  10   6.469486  -0.712813   5.122903  -0.000074   0.089862  -0.000819
 331   2   8.704449   2.088688   2.568755   0.000099   0.089862   0.001100
 332   6   9.580297   1.761386   3.127335   0.000628   0.089862   0.006985
 333  10   8.724833   1.783907   2.590299  -0.000063   0.089862  -0.000700
 334   2   9.217976   3.699326   3.293961  -0.000486   0.235508  -0.002065
 335   6  10.160986   3.383098   3.755256  -0.000242   0.235508  -0.001027
 336  13   9.932200   4.180539   3.785241  -0.001802   0.235508  -0.007652
 337   6   7.212846  -1.088889   6.616945   0.002268   0.307327   0.007379
 338   2   5.977108  -0.651893   5.757160   0.000609   0.301622   0.002019
 339   6  10.228406   2.290278   3.257662   0.002289   0.483833   0.004731
 340   2   8.954949   3.004050   2.650535   0.001019   0.474861   0.002147
 341   2   3.632621   6.424170   4.840276  -0.000164   0.164645  -0.000997
 342   7   3.691311   6.634745   5.558539  -0.000579   0.164645  -0.003518
 343  12   2.888777   6.324792   4.891657  -0.000255   0.164645  -0.001546
 344   7   4.607664   7.125706   5.795732  -0.000875   0.211974  -0.004127
 345   2   4.400926   6.746574   4.753295   0.000074   0.298705   0.000249
 346   2   4.879569  -0.236440   6.339509  -0.000234   0.164140  -0.001423
 347   8   4.874240  -0.103558   7.082727  -0.000517   0.164140  -0.003152
 348  11   4.152635  -0.402728   6.411845  -0.000357   0.164140  -0.002173
 349   8   5.282916  -0.145881   7.458506  -0.000144   0.022395  -0.006435
 350   2   5.311965  -0.322470   6.355086   0.000025   0.031593   0.000802
 351   2   8.565273   4.469124   2.749666  -0.000129   0.086956  -0.001483
 352   9   8.431228   4.721133   2.635363  -0.000184   0.086956  -0.002111
 353  13   9.201178   4.894001   3.368192  -0.000560   0.086956  -0.006438
 354   9   4.501135   6.612104   3.115091  -0.000140   0.071289  -0.001960
 355   9   5.137069   6.850728   3.687235  -0.000141   0.071289  -0.001977
 356   2   4.577897   6.616470   3.717200  -0.000355   0.155642  -0.002282
 357   9   8.064565   4.520013   1.963732  -0.000068   0.078717  -0.000864
 358   9   7.187959   4.167097   1.144582  -0.000420   0.179821  -0.002338
 359   2   7.855741   3.963848   1.732827   0.000018   0.168102   0.000106
 360   2   6.805413   3.653058   0.893738   0.000112   0.096170   0.001163
 361  10   5.967822  -0.805413   4.681847  -0.000151   0.054633  -0.002771
 362   2   5.558699  -0.723825   4.850730  -0.000068   0.066747  -0.001020
 363  10   7.363719   1.366817   1.444470  -0.000081   0.085467  -0.000950
 364  10   8.192621   1.723852   2.006784  -0.000096   0.085467  -0.001118
 365   2   7.667352   1.923648   1.648776  -0.000109   0.178278  -0.000611
 366  11   3.809761  -0.866988   5.765961  -0.000239   0.141198  -0.001695
 367   2   4.886059  -0.570247   5.739924   0.000161   0.199154   0.000811
 368  12   2.432305   6.349729   4.291425  -0.000254   0.139019  -0.001828
 369   2   3.521720   6.438352   4.042058   0.000243   0.196035   0.001239
 370  13   9.873049   4.762299   3.598863  -0.000796   0.128350  -0.006199
 371   2   8.849786   4.180116   2.744464   0.000274   0.182022   0.001506
 372   3   2.735295  -1.362704   4.012417   0.000013   0.026919   0.000466
 373   5   2.627126  -1.451004   3.536626   0.000044   0.026919   0.001633
 374  11   2.602443  -1.379161   4.285303  -0.000012   0.026919  -0.000429
 375   3  -0.172926  -0.158188   4.312604   0.000036   0.026919   0.001326
 376   5  -0.243055  -0.262244   3.832887   0.000087   0.026919   0.003235
 377  11  -0.044903  -0.282693   4.558563   0.000001   0.026919   0.000025
 378   3  -0.928416   3.698201   3.409120   0.000032   0.026534   0.001212
 379   5  -0.990395   3.553410   2.938953   0.000056   0.026534   0.002127
 380  12  -0.875415   3.951128   3.569225   0.000005   0.026534   0.000203
 381   3   1.327287   5.600405   2.389718   0.000035   0.026534   0.001315
 382   5   1.235654   5.430607   1.932952   0.000078   0.026534   0.002946
 383  12   1.177783   5.682562   2.641340   0.000000   0.026534   0.000010
 384   3   3.315869  -1.345801   3.403138   0.000009   0.027336   0.000344
 385   5   3.223718  -1.515197   2.946299  -0.000020   0.027336  -0.000749
 386  15   3.379550  -1.595418   2.698819  -0.000054   0.027336  -0.001977
 387   3   1.857843   5.536955   1.811288   0.000032   0.026934   0.001202
 388   5   1.748614   5.448431   1.335778   0.000007   0.026934   0.000277
 389  16   1.879541   5.469590   1.063193  -0.000027   0.026934  -0.001020
 390   3  -0.587667   0.180231   3.823703   0.000074   0.024430   0.003041
 391   5  -0.722473   0.026624   3.371991   0.000025   0.024430   0.001023
 392  17  -0.926204   0.069289   3.153396  -0.000012   0.024430  -0.000494
 393   3  -1.183832   2.915939   3.195083   0.000046   0.024430   0.001869
 394   5  -1.326733   2.799476   2.734837   0.000019   0.024430   0.000790
 395  17  -1.476081   2.592586   2.573585  -0.000014   0.024430  -0.000560
 396   5   2.961610  -1.552257   3.136941   0.000116   0.087566   0.001328
 397   3   3.006403  -1.380365   3.833269   0.000124   0.087566   0.001414
 398   5  -0.517943  -0.199600   3.520641   0.000160   0.064214   0.002497
 399   3  -0.420471   0.046227   4.184978   0.000162   0.064214   0.002516
 400   5  -1.242381   3.112844   2.760062   0.000180   0.090323   0.001992
 401   3  -1.065580   3.397546   3.396319   0.000189   0.090323   0.002093
 402   5   1.414120   5.450243   1.532575   0.000169   0.076777   0.002206
 403   3   1.648900   5.649938   2.179761   0.000149   0.076777   0.001939
 404   3   1.799437   1.920500   7.751887  -0.000038   0.086561  -0.000443
 405   8   2.558739   1.910108   8.358177  -0.000124   0.086561  -0.001431
 406  11   1.786187   1.613723   7.751748  -0.000090   0.086561  -0.001038
 407   8   2.785157   2.179274   8.866650  -0.000050   0.059632  -0.000837
 408   3   1.717116   2.166736   7.908474   0.000263   0.084488   0.003116
 409   3   3.065403   5.678112   2.009963  -0.000026   0.166425  -0.000156
 410   9   3.799217   5.845617   1.953608  -0.000192   0.166425  -0.001154
 411  16   3.029160   5.537638   1.268273  -0.000255   0.166425  -0.001531
 412   9   4.149668   6.282550   2.480936  -0.000312   0.151256  -0.002060
 413   3   3.079666   6.069901   2.758610   0.000306   0.213231   0.001434
 414   3   4.360025  -0.973662   3.544605  -0.000073   0.164391  -0.000446
 415  10   5.101124  -0.881576   3.479079  -0.000289   0.164391  -0.001760
 416  15   4.354080  -1.184132   2.820277  -0.000257   0.164391  -0.001564
 417  10   5.541243  -0.884697   4.158391  -0.000216   0.117862  -0.001832
 418   3   4.432862  -1.007063   4.174305   0.000202   0.166265   0.001217
 419  11   2.829544  -1.384096   4.773898  -0.000090   0.068826  -0.001309
 420  11   3.459259  -1.140681   5.306047  -0.000118   0.068826  -0.001712
 421   3   3.379825  -1.159966   4.714536  -0.000251   0.151225  -0.001663
 422  11   1.119865   1.470483   7.492398  -0.000016   0.066903  -0.000240
 423  11   0.280237   1.217411   6.867517  -0.000144   0.147363  -0.000977
 424  11  -0.228663   0.544313   5.873293  -0.000242   0.147363  -0.001644
 425  11  -0.118572  -0.167541   5.072893  -0.000083   0.066903  -0.001235
 426   3   0.731927   1.810356   7.206753   0.000146   0.147806   0.000990
 427   3  -0.215552   1.286445   6.219353   0.000088   0.147806   0.000594
 428   3  -0.355295   0.372338   5.082674  -0.000086   0.147806  -0.000580
 429  12  -0.947490   4.043875   4.095261  -0.000069   0.069044  -0.001000
 430  12  -0.850717   3.745627   5.158923  -0.000236   0.153031  -0.001544
 431  12  -0.179041   3.810391   6.317847  -0.000120   0.153031  -0.000787
 432  12   0.679079   4.200711   6.901776  -0.000104   0.069044  -0.001503
 433   3  -0.970069   3.510832   4.365377  -0.000115   0.151621  -0.000758
 434   3  -0.578972   3.286891   5.802976   0.000134   0.151621   0.000881
 435   3   0.459787   3.648700   6.832478   0.000096   0.151621   0.000631
 436  12   2.026279   6.247357   3.638355  -0.000107   0.073398  -0.001453
 437  12   1.360257   5.984329   3.068777  -0.000094   0.073398  -0.001281
 438   3   1.975372   5.976187   3.088186  -0.000251   0.159145  -0.001579
 439  15   3.821622  -1.587230   2.551261  -0.000260   0.128534  -0.002019
 440   3   3.666005  -1.302490   3.626039   0.000256   0.181242   0.001412
 441  16   2.210043   5.556139   0.892038  -0.000255   0.150456  -0.001693
 442   3   2.364096   5.738143   1.993468   0.000286   0.212092   0.001348
 443  17  -1.241612   0.364088   3.059210  -0.000246   0.192074  -0.001280
 444  17  -1.579490   1.679879   2.801305  -0.001024   0.392138  -0.002611
 445   3  -0.992130   1.124150   3.998348   0.000709   0.527173   0.001345
 446   3  -1.272173   2.623014   3.613447   0.000542   0.270511   0.002002
 447   4   7.778887   1.861487  10.399457  -0.000540   0.126325  -0.004274
 448   6   8.092368   1.360835  10.309537  -0.000051   0.126325  -0.000401
 449   8   7.080475   1.621323  10.279628  -0.000522   0.126325  -0.004132
 450   4  12.266385   5.068102   6.255626  -0.000279   0.037251  -0.007487
 451   6  12.540357   4.543272   6.205853  -0.000070   0.037251  -0.001870
 452  13  12.152261   5.249684   6.046697  -0.000293   0.037251  -0.007857
 453   4  11.847391   4.415103   9.724823  -0.000252   0.037226  -0.006764
 454   6  12.125138   3.895980   9.645086  -0.000056   0.037226  -0.001501
 455  14  11.681029   4.513009   9.952072  -0.000290   0.037226  -0.007781
 456   4   9.076738   2.602831  10.946919  -0.000284   0.037226  -0.007621
 457   6   9.387323   2.105187  10.852698  -0.000087   0.037226  -0.002348
 458  14   9.160078   2.864066  11.064029  -0.000297   0.037226  -0.007986
 459   6  12.913360   4.285933   6.714280   0.000412   0.235106   0.001751
 460   6  12.760353   3.986491   8.514017   0.000403   0.472429   0.000853
 461   4  12.437542   4.907169   7.490455  -0.001265   0.469082  -0.002696
 462   4  12.159722   4.536912   9.251200  -0.000497   0.232058  -0.002141
 463   6   9.085016   1.512564  10.742568   0.000337   0.231201   0.001459
 464   4   8.463165   2.136814  10.726996  -0.000574   0.228203  -0.002515
 465   4   7.023316   6.322923  10.001516  -0.000165   0.017027  -0.009690
 466   7   6.339758   6.388637   9.752337  -0.000123   0.017027  -0.007224
 467  14   7.250888   6.266530  10.183969  -0.000215   0.017027  -0.012652
 468   7   5.921237   6.794080   9.464857  -0.000867   0.172970  -0.005012
 469   7   6.127925   7.450140   8.361508  -0.002414   0.352554  -0.006846
 470   7   6.158826   7.617932   7.072553  -0.000858   0.172970  -0.004962
 471   4   7.072071   7.002338   9.266331  -0.002242   0.476225  -0.004708
 472   4   7.241975   7.591488   7.555558  -0.002390   0.476225  -0.005018
 473   8   6.462832   1.904471  10.527642  -0.000612   0.144959  -0.004221
 474   4   7.425486   2.444804  10.711867  -0.000375   0.204428  -0.001836
 475   4   7.662981   7.011085   5.209447  -0.000588   0.088942  -0.006610
 476   9   7.109972   6.773006   4.398623  -0.000397   0.088942  -0.004467
 477  13   7.921191   7.039469   5.054727  -0.000806   0.088942  -0.009063
 478  13   8.385794   7.440096   5.513481  -0.000727   0.069893  -0.010398
 479  13   9.187218   7.747518   6.261231  -0.001306   0.156385  -0.008350
 480  13  10.438784   7.531312   6.786402  -0.001097   0.156385  -0.007012
 481  13  11.529532   6.705375   6.655772  -0.001226   0.156385  -0.007839
 482  13  12.017483   5.824285   6.125206  -0.000506   0.069893  -0.007241
 483   4   8.375938   7.557350   6.102733  -0.001427   0.152008  -0.009387
 484   4   9.634903   7.719250   6.981120  -0.001144   0.152008  -0.007527
 485   4  11.028823   7.099067   7.215913  -0.000953   0.152008  -0.006272
 486   4  11.946911   5.968553   6.704230  -0.001171   0.152008  -0.007701
 487  14   8.053042   3.741377  11.269984  -0.000469   0.068512  -0.006850
 488  14   8.793679   3.279774  11.270231  -0.000530   0.068512  -0.007740
 489   4   8.241520   3.218701  11.056810  -0.001253   0.149354  -0.008390
 490  14  11.541934   5.083451  10.055922  -0.000486   0.069880  -0.006951
 491  14  11.144912   6.119494   9.783269  -0.001149   0.156638  -0.007333
 492  14  10.068702   6.979203   9.717611  -0.001272   0.156638  -0.008120
 493  14   8.717906   7.030986   9.990200  -0.001358   0.156638  -0.008669
 494  14   7.786246   6.493945  10.376138  -0.000604   0.069880  -0.008641
 495   4  11.597025   5.432592   9.570154  -0.001160   0.151691  -0.007647
 496   4  10.762750   6.710761   9.307858  -0.001014   0.151691  -0.006684
 497   4   9.317503   7.253541   9.431082  -0.001144   0.151691  -0.007539
 498   4   7.901626   6.820444   9.885230  -0.001430   0.151691  -0.009425
 499   5   5.122361   3.307059  -0.214409   0.000062   0.087827   0.000711
 500   9   5.685247   3.843370   0.400138   0.000091   0.087827   0.001040
 501  16   4.976671   3.542195  -0.345805  -0.000069   0.087827  -0.000784
 502   9   6.231909   4.013153   0.578693   0.000008   0.008594   0.000916
 503   5   5.335615   3.217903  -0.260156   0.000077   0.012198   0.006345
 504   5   5.617568   0.901246   0.275053   0.000026   0.086329   0.000301
 505  10   6.279744   0.904231   0.987081   0.000079   0.086329   0.000911
 506  15   5.593641   0.595878   0.273015  -0.000140   0.086329  -0.001624
 507  10   6.813575   1.060189   1.166915   0.000036   0.025344   0.001401
 508   5   5.779540   1.089062   0.171706   0.000160   0.035911   0.004464
 509  11   0.246763  -0.648141   4.658450  -0.000183   0.209039  -0.000874
 510  11   1.596659  -1.293944   4.502344  -0.001100   0.429238  -0.002564
 511   5   0.524756  -1.030790   3.507066   0.000891   0.571271   0.001561
 512   5   2.125649  -1.614862   3.357095   0.000621   0.294463   0.002109
 513  12   0.738505   5.649742   2.811788  -0.000177   0.206477  -0.000859
 514  12  -0.386760   4.788435   3.256483  -0.001008   0.423539  -0.002380
 515   5   0.221639   4.956873   1.917872   0.000875   0.564664   0.001549
 516   5  -0.948646   3.890180   2.504898   0.000687   0.290834   0.002362
 517  15   3.208486  -1.892980   2.271709  -0.000106   0.071133  -0.001496
 518  15   2.454856  -2.150094   1.451859  -0.000260   0.158839  -0.001635
 519  15   2.050209  -1.999188   0.141220  -0.000192   0.158839  -0.001210
 520  15   2.404277  -1.361620  -1.030287  -0.000252   0.158839  -0.001585
 521  15   3.362393  -0.515897  -1.550915  -0.000275   0.158839  -0.001731
 522  15   4.506024   0.168546  -1.193239  -0.000135   0.158839  -0.000849
 523  15   5.266237   0.433102  -0.381878  -0.000111   0.071133  -0.001561
 524   5   2.602645  -1.886431   2.250296  -0.000162   0.155089  -0.001046
 525   5   1.774856  -2.035640   0.948508   0.000010   0.155089   0.000065
 526   5   1.744762  -1.566499  -0.528365   0.000135   0.155089   0.000871
 527   5   2.525508  -0.683943  -1.535182  -0.000055   0.155089  -0.000352
 528   5   3.776044   0.226503  -1.632138   0.000096   0.155089   0.000621
 529   5   4.950100   0.767131  -0.776880   0.000050   0.155089   0.000323
 530  16   4.674890   3.277687  -0.997843  -0.000057   0.071812  -0.000792
 531  16   3.961962   2.833084  -1.788057  -0.000205   0.160720  -0.001274
 532  16   2.675074   2.775042  -2.315425  -0.000253   0.160720  -0.001571
 533  16   1.402843   3.306870  -2.125286  -0.000277   0.160720  -0.001723
 534  16   0.711911   4.191695  -1.302326  -0.000174   0.160720  -0.001085
 535  16   0.910013   5.035422  -0.213086  -0.000322   0.160720  -0.002002
 536  16   1.640510   5.467348   0.568061  -0.000108   0.071812  -0.001504
 537   5   4.561623   2.709390  -1.185130   0.000035   0.156230   0.000223
 538   5   3.361198   2.304277  -2.100883   0.000083   0.156230   0.000530
 539   5   1.836816   2.586496  -2.301760  -0.000064   0.156230  -0.000412
 540   5   0.667424   3.430349  -1.698290   0.000146   0.156230   0.000935
 541   5   0.373861   4.459990  -0.559256   0.000117   0.156230   0.000751
 542   5   1.086878   5.216826   0.608027  -0.000178   0.156230  -0.001143
 543  17  -1.693258   2.622770   2.080363  -0.000099   0.069787  -0.001419
 544  17  -1.634053   2.924338   0.995946  -0.000262   0.155468  -0.001687
 545  17  -1.388612   2.573588  -0.296794  -0.000206   0.155468  -0.001327
 546  17  -1.031815   1.510707  -1.069726  -0.000209   0.155468  -0.001343
 547  17  -0.715606   0.188333  -0.993691  -0.000292   0.155468  -0.001875
 548  17  -0.574646  -0.830392  -0.101070  -0.000169   0.155468  -0.001090
 549  17  -0.668964  -1.111635   1.228009  -0.000251   0.155468  -0.001612
 550  17  -0.958393  -0.535627   2.427546  -0.000365   0.155468  -0.002347
 551   5  -1.425489   3.080957   1.798925  -0.000168   0.152468  -0.001101
 552   5  -1.262097   3.176019   0.281025   0.000070   0.152468   0.000461
 553   5  -0.904280   2.336117  -0.946283   0.000177   0.152468   0.001158
 554   5  -0.504418   0.918930  -1.360341  -0.000013   0.152468  -0.000083
 555   5  -0.232793  -0.472022  -0.784819   0.000033   0.152468   0.000218
 556   5  -0.205081  -1.244392   0.535193   0.000154   0.152468   0.001011
 557   5  -0.433082  -1.069258   2.037558   0.000006   0.152468   0.000043
 558   5  -0.731809  -0.335152   2.996358  -0.000031   0.085260  -0.000366
 559   8   5.805426  -0.279525   8.031170  -0.000346   0.264748  -0.001307
 560   8   6.182363   0.136896   9.338677  -0.001855   0.534931  -0.003467
 561   8   6.592321   1.131971  10.269711  -0.000677   0.264748  -0.002557
 562   6   7.312122  -0.818259   8.308770   0.004864   0.761138   0.006390
 563   6   7.882930   0.205629   9.932591   0.003595   0.761138   0.004723
 564  10   8.736369   1.308948   2.485758   0.000006   0.234594   0.000026
 565  10   8.396609   0.087801   2.808590  -0.001034   0.473357  -0.002185
 566  10   7.547253  -0.852455   3.762360  -0.001104   0.473357  -0.002332
 567  10   6.708679  -0.935750   4.762717   0.000004   0.234594   0.000018
 568   6   9.969339   0.671193   3.211362   0.004993   0.673138   0.007418
 569   6   9.261679  -0.869874   3.953390   0.005302   0.673138   0.007876
 570   6   8.106769  -1.390713   5.302903   0.005262   0.673138   0.007817
 571  13  12.035308   5.281881   5.552801  -0.001656   0.235276  -0.007039
 572  13  11.130544   4.781900   4.375887  -0.004574   0.482424  -0.009481
 573   6  12.303412   4.026404   5.144002   0.000736   0.659146   0.001117
 574   6  11.127067   3.450147   3.913691   0.000800   0.339437   0.002357
 575  14   9.494993   3.104093  11.223558  -0.001255   0.191691  -0.006546
 576  14  10.645128   3.679166  11.003291  -0.003363   0.389254  -0.008640
 577  14  11.496282   4.413128  10.340817  -0.001350   0.191691  -0.007041
 578   6  10.401638   2.210094  10.929777   0.000724   0.541559   0.001337
 579   6  11.846385   3.155097  10.292519   0.000857   0.541559   0.001583
 580  12   1.256483   5.107585   7.042613   0.000059   0.238501   0.000246
 581  12   1.454209   5.948993   6.413891  -0.000599   0.476817  -0.001256
 582  12   2.089639   6.480067   5.402585  -0.000475   0.476817  -0.000996
 583   7   2.458504   5.884061   7.767693  -0.000762   0.476817  -0.001599
 584   7   2.865739   6.748743   6.876045  -0.001117   0.476817  -0.002343
 585   7   3.475325   6.988036   6.031355  -0.000290   0.238501  -0.001216
 586  14   7.289721   6.338246  10.397161   0.000014   0.010272   0.001317
 587   7   5.970781   6.545281   9.829679   0.000050   0.010272   0.004839
 588  11   3.668576  -0.698612   6.733252  -0.000114   0.255271  -0.000448
 589  11   2.820604  -0.326252   7.479844  -0.000900   0.510631  -0.001762
 590  11   1.976028   0.770340   7.900760  -0.000470   0.510631  -0.000920
 591   8   4.370412  -0.161170   7.987699  -0.001275   0.510631  -0.002497
 592   8   3.371839   0.570201   8.736659  -0.001474   0.510631  -0.002886
 593   8   2.802531   1.603445   8.889638  -0.000220   0.255271  -0.000863
 594  13   9.627196   5.386265   3.415572  -0.000970   0.237875  -0.004079
 595  13   9.212392   6.341006   3.673269  -0.002514   0.475583  -0.005285
 596  13   8.435813   7.070815   4.437427  -0.002243   0.475583  -0.004717
 597   9   8.302792   5.506620   2.537869  -0.000573   0.475583  -0.001205
 598   9   7.670789   6.538588   3.043089  -0.000975   0.475583  -0.002049
 599   9   6.995007   6.947893   3.768201  -0.000212   0.237875  -0.000889
 600  16   3.173826   5.714218   0.667303  -0.000030   0.249886  -0.000119
 601  16   3.960083   5.358206  -0.056246  -0.000699   0.499655  -0.001400
 602  16   4.762637   4.334896  -0.498376  -0.000206   0.499655  -0.000412
 603   9   4.571587   6.043515   1.354910  -0.000541   0.499655  -0.001083
 604   9   5.503735   5.356468   0.616126  -0.000559   0.499655  -0.001120
 605   9   6.055842   4.392897   0.428571   0.000165   0.249886   0.000661
 606  15   5.750101   0.154573   0.269818   0.000168   0.254281   0.000660
 607  15   5.586676  -0.820849   0.904208  -0.000762   0.508595  -0.001499
 608  15   4.889156  -1.447473   1.983760  -0.000795   0.508595  -0.001564
 609  10   6.772546   0.197851   1.432116  -0.000444   0.508595  -0.000874
 610  10   6.364616  -0.811334   2.359351  -0.000879   0.508595  -0.001728
 611  10   5.677349  -1.094737   3.269270  -0.000079   0.254281  -0.000309
 =====================================================

              2986716  WORDS OF DYNAMIC MEMORY USED
 EXECUTION OF GAMESS TERMINATED NORMALLY Tue Nov 22 21:15:38 2016
 DDI: 263640 bytes (0.3 MB / 0 MWords) used by master data server.

 ----------------------------------------
 CPU timing information for all processes
 ========================================
 0: 993.28 + 0.360 = 993.388
 ----------------------------------------
 ddikick.x: exited gracefully.
