----- GAMESS execution script -----

          ******************************************************
          *         GAMESS VERSION =  5 DEC 2014 (R1)          *
          *             FROM IOWA STATE UNIVERSITY             *
          * M.W.SCHMIDT, K.K.BALDRIDGE, J.A.BOATZ, S.T.ELBERT, *
          *   M.S.GORDON, J.H.JENSEN, S.KOSEKI, N.MATSUNAGA,   *
          *          K.A.NGUYEN, S.J.SU, T.L.WINDUS,           *
          *       TOGETHER WITH M.DUPUIS, J.A.MONTGOMERY       *
          *         J.COMPUT.CHEM.  14, 1347-1363(1993)        *
          **************** 64 BIT LINUX VERSION ****************

 EXECUTION OF GAMESS BEGUN Tue Nov 22 20:55:53 2016

            ECHO OF THE FIRST FEW INPUT CARDS -
 INPUT CARD>! SELECT RESTRICTED HARTREE-FOCK AS DEFAULT                                     
 INPUT CARD>$contrl scftyp=rhf $end                                                         
 INPUT CARD>                                                                                
 INPUT CARD>! THEORY: HF OR DFT                                                             
 INPUT CARD> $contrl mplevl=0 $end                                                          
 INPUT CARD>                                                                                
 INPUT CARD> $system timlim=10000 mwords=20 $end                                            
 INPUT CARD> $SCF DIRSCF=.TRUE. $end                                                        
 INPUT CARD>                                                                                
 INPUT CARD>                                                                                
 INPUT CARD>! BASIS SETS                                                                    
 INPUT CARD>! 6-311G(d,p)                                                                   
 INPUT CARD> $BASIS GBASIS=N311 NGAUSS=6 NDFUNC=1 NPFUNC=1 $END                             
 INPUT CARD>                                                                                
 INPUT CARD>! One of the following                                                          
 INPUT CARD> $guess guess=HUCKEL $end                                                       
 INPUT CARD>                                                                                
 INPUT CARD> $statpt projct=.FALSE. $end                                                    
 INPUT CARD> $STATPT IFREEZ(1)=1,2,3 $END                                                   
 INPUT CARD>                                                                                
 INPUT CARD>! Optimize the geometry with COSMO effects                                      
 INPUT CARD> $statpt opttol=0.0005 nstep=50 $end                                            
 INPUT CARD> $contrl nzvar=1 $end                                                           
 INPUT CARD> $zmat dlc=.t. auto=.t. $end                                                    
 INPUT CARD> $contrl runtyp=OPTIMIZE maxit=200 $end                                         
 INPUT CARD>                                                                                
 INPUT CARD>! Run COSMO on perfect conductor                                                
 INPUT CARD> $COSGMS PRFCND=.TRUE. $end                                                     
 INPUT CARD>                                                                                
 INPUT CARD>! Specifying RSOLV                                                              
 INPUT CARD> $COSGMS COSRAD = 1.4 $end                                                      
 INPUT CARD>                                                                                
 INPUT CARD>! available memory                                                              
 INPUT CARD> $SYSTEM MWORDS=40 $END                                                         
 INPUT CARD>                                                                                
 INPUT CARD> $DATA                                                                          
 INPUT CARD>1-CHLOROHEXANE.out                                                              
 INPUT CARD>C1                                                                              
 INPUT CARD>C      6.0      0.0090000000   -0.0189000000   -0.0408000000                    
 INPUT CARD>C      6.0      1.5289000000   -0.0189000000   -0.0408000000                    
 INPUT CARD>C      6.0      2.0784000000    1.3985000000   -0.0408000000                    
 INPUT CARD>C      6.0     -0.5447000000   -1.4349000000   -0.0408000000                    
 INPUT CARD>C      6.0      3.5898000000    1.3949000000   -0.0407000000                    
 INPUT CARD>C      6.0     -2.0566000000   -1.4372000000   -0.0399000000                    
 INPUT CARD>Cl    17.0      4.1670000000    3.0784000000   -0.0436000000                    
 INPUT CARD>H      1.0     -0.3701000000    0.5348000000    0.8419000000                    
 INPUT CARD>H      1.0     -0.3702000000    0.5348000000   -0.9234000000                    
 INPUT CARD>H      1.0      1.9079000000   -0.5721000000    0.8423000000                    
 INPUT CARD>H      1.0      1.9079000000   -0.5721000000   -0.9238000000                    
 INPUT CARD>H      1.0      1.7035000000    1.9549000000    0.8416000000                    
   40000000 WORDS OF MEMORY AVAILABLE

     BASIS OPTIONS
     -------------
     GBASIS=N311         IGAUSS=       6      POLAR=POPN311 
     NDFUNC=       1     NFFUNC=       0     DIFFSP=       F
     NPFUNC=       1      DIFFS=       F     BASNAM=        


     RUN TITLE
     ---------
 1-CHLOROHEXANE.out                                                              

 THE POINT GROUP OF THE MOLECULE IS C1      
 THE ORDER OF THE PRINCIPAL AXIS IS     0

 ATOM      ATOMIC                      COORDINATES (BOHR)
           CHARGE         X                   Y                   Z
 C           6.0     0.0170075339       -0.0357158212       -0.0771008203
 C           6.0     2.8892020626       -0.0357158212       -0.0771008203
 C           6.0     3.9276064929        2.6427817938       -0.0771008203
 C           6.0    -1.0293337455       -2.7115678198       -0.0771008203
 C           6.0     6.7837383507        2.6359787803       -0.0769118477
 C           6.0    -3.8864104663       -2.7159141896       -0.0754000669
 CL         17.0     7.8744881908        5.8173324806       -0.0823920531
 H           1.0    -0.6993875881        1.0106254582        1.5909603091
 H           1.0    -0.6995765607        1.0106254582       -1.7449729771
 H           1.0     3.6054082120       -1.0811122376        1.5917161995
 H           1.0     3.6054082120       -1.0811122376       -1.7457288675
 H           1.0     3.2191482201        3.6942253334        1.5903933913
 H           1.0     3.2193371927        3.6940363608       -1.7447840045
 H           1.0    -0.3112378702       -3.7569642362        1.5894485283
 H           1.0    -0.3133165688       -3.7560193732       -1.7453509223
 H           1.0     7.5617385399        1.6776987319        1.6062670896
 H           1.0     7.5619275125        1.6718405813       -1.7565003056
 H           1.0    -4.6525053818       -1.7547995522        1.5968184596
 H           1.0    -4.6360647657       -4.6496707928       -0.0767228751
 H           1.0    -4.6545840804       -1.7517759906       -1.7447840045

          INTERNUCLEAR DISTANCES (ANGS.)




     $CONTRL OPTIONS
     ---------------
 SCFTYP=RHF          RUNTYP=OPTIMIZE     EXETYP=RUN     
 MPLEVL=       0     CITYP =NONE         CCTYP =NONE         VBTYP =NONE    
 DFTTYP=NONE         TDDFT =NONE    
 MULT  =       1     ICHARG=       0     NZVAR =       1     COORD =UNIQUE  
 PP    =NONE         RELWFN=NONE         LOCAL =NONE         NUMGRD=       F
 ISPHER=      -1     NOSYM =       0     MAXIT =     200     UNITS =ANGS    
 PLTORB=       F     MOLPLT=       F     AIMPAC=       F     FRIEND=        
 NPRINT=       7     IREST =       0     GEOM  =INPUT   
 NORMF =       0     NORMP =       0     ITOL  =      20     ICUT  =       9
 INTTYP=BEST         GRDTYP=BEST         QMTTOL= 1.0E-06

     $SYSTEM OPTIONS
     ---------------
  REPLICATED MEMORY=    40000000 WORDS (ON EVERY NODE).
 DISTRIBUTED MEMDDI=           0 MILLION WORDS IN AGGREGATE,
 MEMDDI DISTRIBUTED OVER   1 PROCESSORS IS           0 WORDS/PROCESSOR.
 TOTAL MEMORY REQUESTED ON EACH PROCESSOR=    40000000 WORDS.
 TIMLIM=       10000.00 MINUTES, OR       6.9 DAYS.
 PARALL= F  BALTYP=  DLB     KDIAG=    0  COREFL= F
 MXSEQ2=     300 MXSEQ3=     150  mem10=         0

     $COSGMS OPTIONS
     ---------------
     EPSI  =   INFTY     NSPA  =      92     COSRAD=    1.40
     DISEX =   10.00     OUTCHG=DBLCAV       COSBUG=       F
     COSWRT=       F     DCOSMO=       F

     SYMMETRY COORDINATES WILL NOT BE USED FOR 
     THE COSMO CALCULATION, EVEN IF SPECIFIED:
         -- SWITCHING TO C1 POINT GROUP --


     DEFINITION OF CAVITY
     ---------------------------
     ATOM         COORDINATES           RADIUS 
     1    0.0170   -0.0357   -0.0771    2.0000
     2    2.8892   -0.0357   -0.0771    2.0000
     3    3.9276    2.6428   -0.0771    2.0000
     4   -1.0293   -2.7116   -0.0771    2.0000
     5    6.7837    2.6360   -0.0769    2.0000
     6   -3.8864   -2.7159   -0.0754    2.0000
     7    7.8745    5.8173   -0.0824    2.0500
     8   -0.6994    1.0106    1.5910    1.3000
     9   -0.6996    1.0106   -1.7450    1.3000
    10    3.6054   -1.0811    1.5917    1.3000
    11    3.6054   -1.0811   -1.7457    1.3000
    12    3.2191    3.6942    1.5904    1.3000
    13    3.2193    3.6940   -1.7448    1.3000
    14   -0.3112   -3.7570    1.5894    1.3000
    15   -0.3133   -3.7560   -1.7454    1.3000
    16    7.5617    1.6777    1.6063    1.3000
    17    7.5619    1.6718   -1.7565    1.3000
    18   -4.6525   -1.7548    1.5968    1.3000
    19   -4.6361   -4.6497   -0.0767    1.3000
    20   -4.6546   -1.7518   -1.7448    1.3000

          ----------------
          PROPERTIES INPUT
          ----------------

     MOMENTS            FIELD           POTENTIAL          DENSITY
 IEMOM =       1   IEFLD =       0   IEPOT =       0   IEDEN =       0
 WHERE =COMASS     WHERE =NUCLEI     WHERE =NUCLEI     WHERE =NUCLEI  
 OUTPUT=BOTH       OUTPUT=BOTH       OUTPUT=BOTH       OUTPUT=BOTH    
 IEMINT=       0   IEFINT=       0                     IEDINT=       0
                                                       MORB  =       0
          EXTRAPOLATION IN EFFECT
          SOSCF IN EFFECT
 ORBITAL PRINTING OPTION: NPREO=     1   219     2     1

     -------------------------------
     INTEGRAL TRANSFORMATION OPTIONS
     -------------------------------
     NWORD  =            0
     CUTOFF = 1.0E-09     MPTRAN =       0
     DIRTRF =       T     AOINTS =DUP     

          ----------------------
          INTEGRAL INPUT OPTIONS
          ----------------------
 NOPK  =       1 NORDER=       0 SCHWRZ=       T


 -----------------------------------------------
  STATISTICS ON AUTOMATIC COORDINATE GENERATION 
 -----------------------------------------------
  NUMBER OF USER SPECIFIED BONDS                             0
  NUMBER OF BONDS                                           19
  NUMBER OF ANGLES                                          36
  NUMBER OF TORSIONS                                        45
  NUMBER OF EXTRA COORD.                                     0
  NUMBER OF EXTRA COORD. FOR CONSTRAINTS                     0
  NUMBER OF CONSTRAINED COORD.                               0

  TOTAL NUMBER OF PRIMITIVES                               100
 -----------------------------------------------

   --- ENCODED Z MATRIX ---
 COORD  TYPE   I   J   K   L   M   N
    1      1    1   8
    2      1    1   9
    3      1    1   2
    4      1    1   4
    5      1    2  11
    6      1    2  10
    7      1    2   3
    8      1    3  13
    9      1    3  12
   10      1    3   5
   11      1    4  15
   12      1    4  14
   13      1    4   6
   14      1    5  16
   15      1    5   7
   16      1    5  17
   17      1    6  20
   18      1    6  19
   19      1    6  18
   20      2    1   2  10
   21      2    1   2   3
   22      2    1   4   6
   23      2    1   2  11
   24      2    1   4  14
   25      2    1   4  15
   26      2    2   1   8
   27      2    2   1   4
   28      2    2   3  12
   29      2    2   3   5
   30      2    2   1   9
   31      2    2   3  13
   32      2    3   2  11
   33      2    3   5  17
   34      2    3   5  16
   35      2    3   2  10
   36      2    3   5   7
   37      2    4   6  18
   38      2    4   6  19
   39      2    4   6  20
   40      2    4   1   8
   41      2    4   1   9
   42      2    5   3  12
   43      2    5   3  13
   44      2    6   4  14
   45      2    6   4  15
   46      2    7   5  16
   47      2    7   5  17
   48      2    8   1   9
   49      2   10   2  11
   50      2   12   3  13
   51      2   14   4  15
   52      2   16   5  17
   53      2   18   6  19
   54      2   18   6  20
   55      2   19   6  20
   56      3    1   4   6  18
   57      3    1   4   6  19
   58      3    1   2   3  13
   59      3    1   4   6  20
   60      3    1   2   3   5
   61      3    1   2   3  12
   62      3    2   1   4  15
   63      3    2   1   4   6
   64      3    2   3   5  17
   65      3    2   1   4  14
   66      3    2   3   5   7
   67      3    2   3   5  16
   68      3    3   2   1   4
   69      3    3   2   1   9
   70      3    3   2   1   8
   71      3    4   1   2  10
   72      3    4   1   2  11
   73      3    5   3   2  10
   74      3    5   3   2  11
   75      3    6   4   1   9
   76      3    6   4   1   8
   77      3    7   5   3  12
   78      3    7   5   3  13
   79      3    8   1   4  15
   80      3    8   1   4  14
   81      3    8   1   2  11
   82      3    8   1   2  10
   83      3    9   1   4  15
   84      3    9   1   4  14
   85      3    9   1   2  11
   86      3    9   1   2  10
   87      3   10   2   3  13
   88      3   10   2   3  12
   89      3   11   2   3  13
   90      3   11   2   3  12
   91      3   12   3   5  16
   92      3   12   3   5  17
   93      3   13   3   5  16
   94      3   13   3   5  17
   95      3   14   4   6  20
   96      3   14   4   6  19
   97      3   14   4   6  18
   98      3   15   4   6  20
   99      3   15   4   6  19
  100      3   15   4   6  18

          INDEP./SYM. INTERNAL COORDINATES
          --------------------------------
 CRD  1=  -0.1508 ( 20)  0.4822 ( 21)  0.3056 ( 22) -0.1508 ( 23) -0.1056 ( 24)
          -0.1055 ( 25)  0.1444 ( 26) -0.4578 ( 27)  0.1160 ( 28) -0.3439 ( 29)
           0.1445 ( 30)  0.1160 ( 31) -0.1469 ( 32) -0.1468 ( 35)  0.1256 ( 36)
           0.1383 ( 40)  0.1383 ( 41)
 CRD  2=   0.3328 (  3)  0.2461 (  4)  0.2388 (  7)  0.1967 ( 10)  0.2070 ( 13)
           0.1033 ( 21)  0.4488 ( 22) -0.1244 ( 24) -0.1245 ( 25) -0.1169 ( 28)
           0.4397 ( 29) -0.1170 ( 31)  0.1026 ( 33)  0.1026 ( 34) -0.1569 ( 42)
          -0.1571 ( 43) -0.1547 ( 44) -0.1550 ( 45)
 CRD  3=   0.1426 ( 20) -0.1420 ( 23)  0.1395 ( 26) -0.1388 ( 30) -0.1506 ( 33)
           0.1509 ( 34)  0.1354 ( 37) -0.1354 ( 39)  0.1071 ( 42) -0.1070 ( 43)
           0.1066 ( 44) -0.1066 ( 45) -0.1265 ( 57)  0.2065 ( 58)  0.3681 ( 60)
           0.2065 ( 61)  0.2025 ( 62)  0.3538 ( 63)  0.2023 ( 65) -0.1740 ( 66)
          -0.2992 ( 68) -0.1307 ( 69) -0.1308 ( 70) -0.1227 ( 71) -0.1226 ( 72)
           0.1453 ( 73)  0.1450 ( 74)  0.1379 ( 75)  0.1381 ( 76)
 CRD  4=   0.2239 (  3)  0.2360 (  4)  0.2532 (  7)  0.1199 ( 10)  0.1070 ( 13)
           0.3498 ( 21) -0.2304 ( 22)  0.1149 ( 24)  0.1147 ( 25) -0.1110 ( 26)
           0.4523 ( 27)  0.1048 ( 28) -0.2401 ( 29) -0.1119 ( 30)  0.1046 ( 31)
          -0.1426 ( 32) -0.1423 ( 35)  0.2644 ( 36)  0.1137 ( 38) -0.1723 ( 40)
          -0.1727 ( 41)
 CRD  5=   0.1423 ( 20) -0.1431 ( 23) -0.1499 ( 24)  0.1505 ( 25)  0.1469 ( 26)
          -0.1759 ( 28) -0.1462 ( 30)  0.1756 ( 31)  0.2064 ( 32) -0.2067 ( 35)
          -0.1958 ( 40)  0.1960 ( 41)  0.1450 ( 56)  0.1172 ( 57)  0.1449 ( 59)
           0.1020 ( 60)  0.1071 ( 62)  0.1252 ( 63)  0.1759 ( 64)  0.1072 ( 65)
           0.1961 ( 66)  0.1757 ( 67)  0.3591 ( 68)  0.2119 ( 69)  0.2117 ( 70)
           0.1956 ( 71)  0.1954 ( 72)
 CRD  6=   0.1388 (  4) -0.1641 (  7) -0.1963 ( 10)  0.2128 ( 13)  0.1649 ( 20)
          -0.3297 ( 21)  0.4068 ( 22)  0.1643 ( 23) -0.1220 ( 24) -0.1213 ( 25)
          -0.1472 ( 26)  0.2448 ( 27) -0.3554 ( 29) -0.1479 ( 30) -0.1224 ( 33)
          -0.1220 ( 34)  0.1312 ( 36)  0.1166 ( 37)  0.1163 ( 39)  0.1345 ( 42)
           0.1341 ( 43) -0.1351 ( 44) -0.1355 ( 45)
 CRD  7=   0.1176 (  4) -0.1315 (  7) -0.3294 ( 10)  0.2021 ( 21)  0.1149 ( 27)
           0.1107 ( 28) -0.1051 ( 29)  0.1106 ( 31) -0.1167 ( 32) -0.1167 ( 35)
          -0.6792 ( 36)  0.2959 ( 46)  0.2960 ( 47)
 CRD  8=   0.3519 ( 33) -0.3522 ( 34)  0.3431 ( 37) -0.3429 ( 39) -0.1467 ( 42)
           0.1462 ( 43)  0.1438 ( 44) -0.1437 ( 45) -0.1032 ( 53)  0.1031 ( 55)
          -0.1257 ( 57) -0.2318 ( 60)  0.2445 ( 63)  0.1317 ( 66) -0.1822 ( 73)
          -0.1821 ( 74)  0.1836 ( 75)  0.1836 ( 76)
 CRD  9=   0.1879 (  3) -0.2390 (  4) -0.3042 (  7)  0.1996 ( 10)  0.5226 ( 13)
          -0.1005 ( 24) -0.1002 ( 25)  0.2779 ( 38)  0.1729 ( 44)  0.1727 ( 45)
          -0.1019 ( 52) -0.1763 ( 53) -0.1216 ( 54) -0.1763 ( 55) -0.1161 ( 80)
           0.1161 ( 83)
 CRD 10=   0.2878 (  3) -0.2894 (  4) -0.2621 (  7)  0.2204 ( 10) -0.3269 ( 13)
          -0.1120 ( 18)  0.1548 ( 27) -0.1075 ( 32)  0.1198 ( 33)  0.1196 ( 34)
          -0.1076 ( 35) -0.4454 ( 38) -0.1417 ( 40) -0.1418 ( 41) -0.1288 ( 52)
           0.1720 ( 53)  0.1719 ( 55) -0.1053 ( 79) -0.1011 ( 82)  0.1053 ( 84)
           0.1011 ( 85)
 CRD 11=   0.2680 ( 24) -0.2684 ( 25) -0.2618 ( 28)  0.2618 ( 31)  0.1626 ( 40)
          -0.1628 ( 41)  0.1730 ( 42) -0.1731 ( 43) -0.1642 ( 44)  0.1646 ( 45)
          -0.2325 ( 56) -0.2386 ( 57) -0.2326 ( 59)  0.2291 ( 64)  0.2992 ( 66)
           0.2291 ( 67)  0.1025 ( 69)  0.1024 ( 70) -0.1639 ( 71) -0.1639 ( 72)
 CRD 12=   0.1043 (  3) -0.4423 (  4)  0.3188 (  7) -0.3369 ( 10)  0.1556 ( 13)
          -0.1841 ( 33) -0.1842 ( 34)  0.1885 ( 37) -0.2410 ( 38)  0.1898 ( 39)
          -0.1077 ( 40) -0.1074 ( 41) -0.1191 ( 42) -0.1189 ( 43)  0.1958 ( 52)
          -0.1816 ( 54) -0.1158 ( 81)  0.1159 ( 86)
 CRD 13=  -0.1028 ( 14)  0.1027 ( 16)  0.1583 ( 20) -0.1580 ( 23)  0.1407 ( 26)
          -0.1407 ( 30)  0.3906 ( 33) -0.3910 ( 34) -0.3671 ( 37)  0.3661 ( 39)
           0.1638 ( 46) -0.1638 ( 47)  0.1503 ( 53) -0.1504 ( 55)  0.1555 ( 58)
           0.1555 ( 61)  0.1499 ( 62)  0.1500 ( 65)
 CRD 14=  -0.1192 (  1) -0.1191 (  2) -0.5079 (  3)  0.1522 (  7)  0.1123 (  8)
           0.1124 (  9)  0.2762 ( 10)  0.1824 ( 13) -0.1243 ( 20) -0.1247 ( 23)
          -0.1140 ( 26)  0.1075 ( 27) -0.1147 ( 30)  0.1819 ( 33)  0.1807 ( 34)
          -0.1508 ( 36)  0.2112 ( 37) -0.2523 ( 38)  0.2120 ( 39) -0.1858 ( 52)
          -0.2007 ( 54)
 CRD 15=  -0.1202 (  1)  0.1204 (  2) -0.1029 ( 17)  0.1029 ( 19)  0.1788 ( 20)
          -0.1786 ( 23)  0.2265 ( 24) -0.2265 ( 25)  0.1147 ( 26)  0.2105 ( 28)
          -0.1145 ( 30) -0.2106 ( 31)  0.1653 ( 32) -0.1653 ( 35)  0.1676 ( 37)
          -0.1678 ( 39) -0.2078 ( 42)  0.2078 ( 43) -0.2231 ( 44)  0.2230 ( 45)
          -0.1383 ( 56) -0.1290 ( 57)  0.1083 ( 58) -0.1383 ( 59)  0.1083 ( 61)
          -0.1331 ( 64) -0.1475 ( 66) -0.1330 ( 67)  0.1503 ( 68)  0.1039 ( 69)
           0.1039 ( 70) -0.1238 ( 73) -0.1237 ( 74) -0.1352 ( 75) -0.1354 ( 76)
 CRD 16=  -0.2476 ( 20)  0.2476 ( 23)  0.1312 ( 24) -0.1311 ( 25)  0.2852 ( 26)
          -0.2851 ( 30) -0.2640 ( 32)  0.2639 ( 35) -0.2894 ( 40)  0.2894 ( 41)
          -0.1510 ( 44)  0.1509 ( 45) -0.1405 ( 58) -0.1405 ( 61)  0.1691 ( 62)
           0.1691 ( 65) -0.1636 ( 69) -0.1636 ( 70)  0.1712 ( 71)  0.1712 ( 72)
 CRD 17=  -0.2906 (  4)  0.1287 (  5)  0.1285 (  6)  0.3847 (  7)  0.1654 (  8)
           0.1652 (  9)  0.1654 ( 10) -0.1420 ( 11) -0.1418 ( 12) -0.1148 ( 13)
          -0.1456 ( 21)  0.1798 ( 22) -0.1237 ( 24) -0.1237 ( 25)  0.1303 ( 28)
          -0.2236 ( 29)  0.1303 ( 31)  0.1286 ( 33)  0.1282 ( 34) -0.1602 ( 36)
          -0.1953 ( 37)  0.2721 ( 38) -0.1952 ( 39) -0.1329 ( 50)  0.1107 ( 51)
          -0.1388 ( 52)  0.1905 ( 54)
 CRD 18=   0.1367 (  1) -0.1371 (  2)  0.1763 (  8) -0.1768 (  9) -0.1224 ( 11)
           0.1222 ( 12)  0.1275 ( 17) -0.1276 ( 19) -0.2630 ( 33)  0.2629 ( 34)
          -0.2328 ( 37)  0.2325 ( 39) -0.1693 ( 42)  0.1691 ( 43) -0.2548 ( 46)
           0.2549 ( 47)  0.1322 ( 53) -0.1324 ( 55) -0.1935 ( 60)  0.1912 ( 63)
           0.1766 ( 66) -0.1844 ( 73) -0.1845 ( 74)  0.1181 ( 75)  0.1182 ( 76)
           0.1535 ( 77)  0.1537 ( 78)
 CRD 19=   0.1944 (  1)  0.1938 (  2)  0.3044 (  3)  0.2828 (  4)  0.1767 (  5)
           0.1765 (  6)  0.2338 (  7)  0.1148 (  8)  0.1142 (  9)  0.1458 ( 11)
           0.1462 ( 12)  0.1048 ( 20) -0.2413 ( 21) -0.2109 ( 22)  0.1046 ( 23)
           0.1223 ( 24)  0.1222 ( 25)  0.1083 ( 26) -0.2571 ( 27) -0.1689 ( 29)
           0.1082 ( 30)  0.1314 ( 37) -0.1900 ( 38)  0.1323 ( 39)  0.1002 ( 40)
          -0.1499 ( 48) -0.1384 ( 49) -0.1166 ( 51) -0.1357 ( 54)
 CRD 20=   0.2593 (  5) -0.2593 (  6) -0.1230 (  8)  0.1228 (  9) -0.2513 ( 11)
           0.2513 ( 12)  0.1899 ( 14) -0.1899 ( 16) -0.1041 ( 37)  0.1040 ( 39)
           0.1081 ( 42) -0.1082 ( 43)  0.2000 ( 46) -0.2000 ( 47) -0.1058 ( 56)
          -0.1315 ( 57) -0.1409 ( 58) -0.1057 ( 59) -0.1409 ( 61)  0.1086 ( 63)
          -0.2517 ( 66)  0.1162 ( 68)  0.1445 ( 69)  0.1445 ( 70)  0.1403 ( 75)
           0.1403 ( 76) -0.2772 ( 77) -0.2772 ( 78)
 CRD 21=   0.2354 ( 10)  0.4499 ( 14)  0.5286 ( 15)  0.4445 ( 16) -0.2303 ( 33)
          -0.2296 ( 34)  0.1849 ( 46)  0.1825 ( 47)  0.2201 ( 52)
 CRD 22=   0.2705 (  1) -0.2705 (  2)  0.2035 (  8) -0.2046 (  9)  0.2840 ( 11)
          -0.2839 ( 12)  0.2567 ( 14) -0.2657 ( 16) -0.1261 ( 28)  0.1271 ( 31)
           0.1020 ( 32) -0.1022 ( 35)  0.1150 ( 46) -0.1187 ( 47)  0.1098 ( 57)
          -0.1265 ( 71) -0.1264 ( 72) -0.1164 ( 73) -0.1163 ( 74) -0.1130 ( 75)
          -0.1130 ( 76) -0.2019 ( 77) -0.2024 ( 78)
 CRD 23=  -0.1738 ( 13) -0.5030 ( 17) -0.4802 ( 18) -0.5030 ( 19)  0.1768 ( 37)
           0.1941 ( 38)  0.1768 ( 39) -0.1999 ( 53) -0.1877 ( 54) -0.2000 ( 55)
 CRD 24=   0.3107 (  1) -0.3108 (  2)  0.3319 (  5) -0.3319 (  6) -0.2889 (  8)
           0.2890 (  9)  0.2195 ( 11) -0.2194 ( 12) -0.2090 ( 14)  0.2090 ( 16)
           0.1081 ( 62)  0.1081 ( 65)  0.1046 ( 69)  0.1046 ( 70)  0.1026 ( 77)
           0.1026 ( 78)
 CRD 25=  -0.1715 (  8)  0.1716 (  9) -0.1041 ( 11)  0.1042 ( 12) -0.1876 ( 14)
           0.1877 ( 16)  0.1153 ( 20) -0.1153 ( 23)  0.1343 ( 26) -0.1343 ( 30)
           0.1411 ( 32) -0.1412 ( 35) -0.1415 ( 40)  0.1415 ( 41)  0.1142 ( 42)
          -0.1142 ( 43)  0.1350 ( 44) -0.1350 ( 45) -0.1009 ( 46)  0.1009 ( 47)
          -0.1032 ( 58) -0.1032 ( 61) -0.1066 ( 62) -0.1066 ( 65) -0.1016 ( 71)
          -0.1016 ( 72) -0.1792 ( 79) -0.1792 ( 80) -0.1885 ( 81) -0.1885 ( 82)
          -0.1792 ( 83) -0.1792 ( 84) -0.1885 ( 85) -0.1885 ( 86) -0.1524 ( 87)
          -0.1524 ( 88) -0.1524 ( 89) -0.1524 ( 90)
 CRD 26=   0.1514 (  8)  0.1513 (  9)  0.3451 ( 14) -0.6084 ( 15)  0.3452 ( 16)
          -0.1448 ( 46) -0.1447 ( 47)  0.3221 ( 52)  0.1736 ( 64) -0.1737 ( 67)
          -0.1819 ( 91)  0.1654 ( 92) -0.1656 ( 93)  0.1818 ( 94)
 CRD 27=   0.1690 ( 11)  0.1690 ( 12)  0.2966 ( 17) -0.6349 ( 18)  0.2934 ( 19)
          -0.1597 ( 53)  0.3280 ( 54) -0.1580 ( 55) -0.1719 ( 56)  0.1714 ( 59)
           0.1560 ( 95) -0.1873 ( 97)  0.1867 ( 98) -0.1566 (100)
 CRD 28=   0.5478 ( 17) -0.5495 ( 19) -0.2925 ( 53)  0.2934 ( 55)  0.2328 ( 57)
           0.2261 ( 96)  0.2260 ( 99)
 CRD 29=   0.3765 (  1)  0.3767 (  2) -0.4007 (  5) -0.4004 (  6)  0.2327 (  8)
           0.2327 (  9) -0.2044 ( 11) -0.2045 ( 12)  0.1289 ( 48) -0.1384 ( 49)
          -0.1281 ( 81)  0.1281 ( 86) -0.1013 ( 87)  0.1010 ( 90)
 CRD 30=  -0.2622 (  1) -0.2620 (  2) -0.2235 (  5) -0.2234 (  6)  0.3529 (  8)
           0.3529 (  9)  0.3520 ( 11)  0.3521 ( 12) -0.1021 ( 48)  0.1344 ( 50)
           0.1320 ( 51) -0.1141 ( 79)  0.1142 ( 84) -0.1071 ( 87)  0.1070 ( 90)
 CRD 31=   0.1927 (  1)  0.1930 (  2) -0.2312 (  5) -0.2309 (  6) -0.3596 (  8)
          -0.3595 (  9)  0.3524 ( 11)  0.3524 ( 12) -0.1036 ( 49) -0.1585 ( 50)
           0.1529 ( 51)
 CRD 32=  -0.3523 (  1) -0.3500 (  2) -0.3295 (  5) -0.3270 (  6) -0.2103 (  8)
          -0.2103 (  9) -0.2369 ( 11) -0.2371 ( 12) -0.1738 ( 48) -0.1641 ( 49)
          -0.1034 ( 50) -0.1148 ( 51) -0.1063 ( 80)  0.1281 ( 82)  0.1091 ( 83)
          -0.1280 ( 85) -0.1009 ( 88)
 CRD 33=  -0.1545 (  1)  0.1592 (  2) -0.1601 (  5)  0.1663 (  6) -0.1679 ( 14)
           0.1671 ( 16)  0.1004 ( 42) -0.1008 ( 43) -0.1105 ( 44)  0.1101 ( 45)
          -0.1016 ( 46)  0.1019 ( 47)  0.1067 ( 56)  0.1066 ( 59) -0.1303 ( 64)
          -0.1300 ( 67) -0.1211 ( 73) -0.1223 ( 74)  0.1132 ( 75)  0.1142 ( 76)
           0.1869 ( 79)  0.1874 ( 80)  0.1859 ( 83)  0.1864 ( 84) -0.1814 ( 87)
          -0.1809 ( 88) -0.1826 ( 89) -0.1821 ( 90) -0.1860 ( 91) -0.1864 ( 92)
          -0.1853 ( 93) -0.1856 ( 94)  0.1528 ( 95)  0.1187 ( 96)  0.1529 ( 97)
           0.1535 ( 98)  0.1194 ( 99)  0.1536 (100)
 CRD 34=   0.2059 (  1) -0.2058 (  2) -0.1028 (  5)  0.1029 (  6)  0.2045 (  8)
          -0.2045 (  9) -0.1892 ( 14)  0.1891 ( 16) -0.1027 ( 56) -0.1027 ( 59)
          -0.1461 ( 64) -0.1460 ( 67)  0.1461 ( 69)  0.1461 ( 70)  0.1213 ( 71)
           0.1213 ( 72) -0.1527 ( 77) -0.1527 ( 78)  0.2002 ( 81)  0.2002 ( 82)
           0.2002 ( 85)  0.2003 ( 86) -0.2177 ( 91) -0.2178 ( 92) -0.2177 ( 93)
          -0.2178 ( 94) -0.1372 ( 95) -0.1224 ( 96) -0.1372 ( 97) -0.1372 ( 98)
          -0.1224 ( 99) -0.1371 (100)
 CRD 35=  -0.2725 (  1)  0.2724 (  2)  0.3486 (  5) -0.3487 (  6)  0.3055 (  8)
          -0.3056 (  9)  0.1531 ( 11) -0.1530 ( 12) -0.1342 ( 14)  0.1341 ( 16)
           0.1029 ( 73)  0.1029 ( 74) -0.1346 ( 81) -0.1345 ( 82) -0.1346 ( 85)
          -0.1346 ( 86)  0.1570 ( 87)  0.1570 ( 88)  0.1570 ( 89)  0.1570 ( 90)
 CRD 36=  -0.1640 (  1)  0.1640 (  2) -0.1432 (  8)  0.1432 (  9)  0.3430 ( 11)
          -0.3429 ( 12) -0.1537 ( 56) -0.1684 ( 57) -0.1537 ( 59)  0.1162 ( 62)
           0.1162 ( 65)  0.1338 ( 79)  0.1338 ( 80)  0.1338 ( 83)  0.1339 ( 84)
          -0.2334 ( 95) -0.2481 ( 96) -0.2334 ( 97) -0.2334 ( 98) -0.2481 ( 99)
          -0.2334 (100)
 CRD 37=  -0.1770 ( 14) -0.2721 ( 15) -0.1767 ( 16)  0.1204 ( 18) -0.1551 ( 20)
          -0.1551 ( 23)  0.1270 ( 26) -0.1513 ( 28)  0.1270 ( 30) -0.1513 ( 31)
           0.1456 ( 32) -0.1658 ( 33) -0.1658 ( 34)  0.1456 ( 35) -0.1250 ( 36)
          -0.1347 ( 40) -0.1347 ( 41)  0.1877 ( 42)  0.1877 ( 43) -0.1146 ( 44)
          -0.1146 ( 45)  0.1673 ( 46)  0.1671 ( 47)  0.1465 ( 52)  0.1190 ( 58)
          -0.1190 ( 61) -0.1424 ( 79) -0.1604 ( 81)  0.1424 ( 84)  0.1604 ( 86)
           0.2086 ( 87) -0.2086 ( 90) -0.1009 ( 92)  0.1010 ( 93)
 CRD 38=   0.1354 (  3)  0.1330 (  7)  0.2167 ( 10) -0.1784 ( 14) -0.2060 ( 15)
          -0.1783 ( 16) -0.1335 ( 17) -0.2445 ( 18) -0.1335 ( 19) -0.1494 ( 24)
          -0.1494 ( 25) -0.1269 ( 26) -0.1270 ( 30) -0.1677 ( 33) -0.1677 ( 34)
          -0.1058 ( 36) -0.1442 ( 37) -0.1802 ( 38) -0.1442 ( 39)  0.1783 ( 44)
           0.1783 ( 45)  0.1459 ( 46)  0.1459 ( 47)  0.1719 ( 52)  0.1970 ( 53)
           0.1089 ( 54)  0.1970 ( 55)  0.1144 ( 62) -0.1143 ( 65)  0.1832 ( 79)
          -0.1832 ( 84) -0.1045 ( 95)  0.1045 (100)
 CRD 39=  -0.1802 (  4)  0.1232 (  7)  0.3049 ( 10) -0.2895 ( 13) -0.1537 ( 14)
          -0.1540 ( 16)  0.1862 ( 17)  0.1825 ( 18)  0.1862 ( 19)  0.1335 ( 20)
           0.1335 ( 23) -0.1540 ( 32) -0.1296 ( 33) -0.1297 ( 34) -0.1540 ( 35)
           0.1803 ( 37)  0.1827 ( 38)  0.1803 ( 39)  0.1300 ( 40)  0.1300 ( 41)
           0.1743 ( 52) -0.1936 ( 53) -0.1956 ( 54) -0.1936 ( 55)  0.1061 ( 80)
           0.1609 ( 81) -0.1060 ( 83) -0.1609 ( 86)
 CRD 40=   0.2431 (  3)  0.1037 (  7) -0.3111 ( 10) -0.3514 ( 13)  0.1439 ( 14)
           0.1464 ( 16)  0.1769 ( 17)  0.1770 ( 19) -0.1228 ( 24) -0.1227 ( 25)
          -0.1087 ( 26) -0.1284 ( 28) -0.1085 ( 30) -0.1289 ( 31)  0.1107 ( 37)
           0.1081 ( 38)  0.1107 ( 39)  0.1083 ( 42)  0.1084 ( 43) -0.1878 ( 52)
          -0.2239 ( 54) -0.1002 ( 77)  0.1109 ( 82) -0.1109 ( 85) -0.1633 ( 92)
           0.1647 ( 93) -0.1720 ( 95) -0.1051 ( 96)  0.1049 ( 99)  0.1717 (100)
 CRD 41=   0.2217 (  8) -0.2218 (  9) -0.1121 ( 11)  0.1125 ( 12) -0.3664 ( 14)
           0.3656 ( 16)  0.1078 ( 28) -0.1074 ( 31)  0.1797 ( 46) -0.1797 ( 47)
           0.1015 ( 64) -0.1794 ( 66)  0.1011 ( 67) -0.1319 ( 87) -0.1315 ( 88)
          -0.1314 ( 89) -0.1310 ( 90)  0.2407 ( 91)  0.2411 ( 92)  0.2404 ( 93)
           0.2408 ( 94)
 CRD 42=   0.1935 (  1) -0.1938 (  2) -0.1157 (  5)  0.1157 (  6) -0.2458 ( 11)
           0.2461 ( 12) -0.1916 ( 17)  0.1916 ( 19) -0.1429 ( 53)  0.1428 ( 55)
           0.1355 ( 57)  0.2080 ( 79)  0.2079 ( 80) -0.1575 ( 81) -0.1574 ( 82)
           0.2078 ( 83)  0.2076 ( 84) -0.1574 ( 85) -0.1574 ( 86)  0.1059 ( 87)
           0.1058 ( 88)  0.1059 ( 89)  0.1058 ( 90) -0.1882 ( 95) -0.1883 ( 97)
          -0.1884 ( 98) -0.1884 (100)
 CRD 43=  -0.2647 (  4)  0.2602 (  7)  0.1006 ( 11)  0.1231 ( 14) -0.2005 ( 15)
           0.1235 ( 16) -0.1265 ( 17)  0.2046 ( 18) -0.1271 ( 19)  0.1286 ( 24)
           0.1282 ( 25) -0.1301 ( 28) -0.1298 ( 31)  0.1532 ( 50) -0.1594 ( 51)
          -0.1778 ( 52)  0.1838 ( 54) -0.1149 ( 56)  0.1149 ( 59) -0.1100 ( 64)
           0.1102 ( 67) -0.1168 ( 77)  0.1162 ( 78)  0.1024 ( 79) -0.1029 ( 84)
          -0.2267 ( 92)  0.2265 ( 93)  0.2327 ( 95)  0.1175 ( 96) -0.1176 ( 99)
          -0.2321 (100)
 CRD 44=   0.1408 (  1) -0.1401 (  2) -0.2582 (  5)  0.2580 (  6)  0.1057 ( 11)
          -0.1067 ( 12) -0.1683 ( 14)  0.1683 ( 16)  0.1983 ( 17) -0.1980 ( 19)
           0.1010 ( 32) -0.1074 ( 33)  0.1073 ( 34) -0.1013 ( 35) -0.1103 ( 40)
           0.1101 ( 41) -0.1084 ( 42)  0.1078 ( 43)  0.1503 ( 53) -0.1497 ( 55)
          -0.2316 ( 57) -0.1401 ( 60) -0.1182 ( 66)  0.1498 ( 68) -0.1510 ( 77)
          -0.1511 ( 78) -0.1672 ( 81) -0.1676 ( 82) -0.1674 ( 85) -0.1678 ( 86)
           0.1525 ( 87)  0.1529 ( 88)  0.1525 ( 89)  0.1529 ( 90)  0.1057 ( 95)
          -0.1222 ( 96)  0.1063 ( 97)  0.1064 ( 98) -0.1216 ( 99)  0.1069 (100)
 CRD 45=   0.2257 (  3) -0.2486 (  4) -0.1514 (  5) -0.1509 (  6)  0.1364 (  8)
           0.1364 (  9) -0.2607 ( 10)  0.1717 ( 15)  0.1550 ( 18)  0.1046 ( 42)
           0.1048 ( 43) -0.1080 ( 48)  0.2355 ( 49) -0.2129 ( 50)  0.1247 ( 54)
           0.1291 ( 58) -0.1293 ( 61)  0.1254 ( 73) -0.1253 ( 74)  0.1849 ( 81)
          -0.1852 ( 86)  0.2546 ( 87) -0.2545 ( 90)  0.1429 ( 92) -0.1428 ( 93)
           0.1308 ( 95) -0.1306 (100)
 CRD 46=   0.1558 (  1)  0.1563 (  2) -0.2082 (  3)  0.2614 (  7) -0.1268 ( 11)
          -0.1263 ( 12)  0.2796 ( 13) -0.1464 ( 15) -0.1604 ( 18) -0.1014 ( 32)
          -0.1009 ( 35) -0.1049 ( 44) -0.1050 ( 45) -0.2427 ( 48)  0.1297 ( 49)
           0.1972 ( 51) -0.1217 ( 52) -0.1234 ( 62)  0.1236 ( 65) -0.1041 ( 71)
           0.1041 ( 72)  0.1255 ( 75) -0.1257 ( 76) -0.2491 ( 79)  0.2023 ( 81)
           0.2491 ( 84) -0.2017 ( 86) -0.1224 ( 92)  0.1222 ( 93) -0.1224 ( 95)
           0.1218 (100)
 CRD 47=   0.1072 (  4)  0.2024 ( 10) -0.2139 ( 13) -0.1997 ( 15)  0.2035 ( 18)
          -0.1182 ( 24) -0.1179 ( 25)  0.1126 ( 28)  0.1129 ( 31) -0.1309 ( 42)
          -0.1304 ( 43)  0.1348 ( 44)  0.1343 ( 45) -0.1219 ( 48)  0.1205 ( 49)
          -0.1057 ( 52)  0.1058 ( 54) -0.1214 ( 56)  0.1209 ( 59)  0.1010 ( 62)
          -0.1196 ( 64) -0.1006 ( 65)  0.1204 ( 67)  0.1037 ( 73) -0.1042 ( 74)
           0.1076 ( 75) -0.1075 ( 76) -0.2086 ( 80)  0.2082 ( 83)  0.2033 ( 88)
          -0.2029 ( 89)  0.1626 ( 91) -0.1626 ( 94) -0.1663 ( 97)  0.1659 ( 98)
 CRD 48=   0.2587 (  3) -0.2611 (  4) -0.2624 (  7)  0.1996 ( 10)  0.1983 ( 13)
          -0.1522 ( 20) -0.1524 ( 23) -0.1493 ( 26) -0.1491 ( 30)  0.1626 ( 32)
           0.1626 ( 35)  0.1606 ( 40)  0.1606 ( 41)  0.1031 ( 50)  0.1017 ( 51)
          -0.1071 ( 58)  0.1072 ( 61) -0.1025 ( 62)  0.1024 ( 65) -0.1381 ( 69)
           0.1379 ( 70)  0.1359 ( 71) -0.1358 ( 72)  0.1437 ( 80)  0.2738 ( 82)
          -0.1436 ( 83) -0.2739 ( 85)  0.1540 ( 88) -0.1542 ( 89)
 CRD 49=  -0.1667 (  1)  0.1661 (  2) -0.1569 (  8)  0.1574 (  9) -0.1376 ( 14)
           0.1373 ( 16) -0.2093 ( 17)  0.2100 ( 19)  0.1098 ( 26) -0.1105 ( 30)
          -0.1194 ( 33)  0.1196 ( 34) -0.1259 ( 37)  0.1252 ( 39) -0.1229 ( 42)
           0.1230 ( 43)  0.1062 ( 44) -0.1072 ( 45) -0.1554 ( 53)  0.1562 ( 55)
           0.1883 ( 57) -0.2145 ( 60)  0.2107 ( 63)  0.1357 ( 64)  0.1352 ( 67)
          -0.1174 ( 71) -0.1176 ( 72) -0.1678 ( 77) -0.1682 ( 78)  0.2436 ( 96)
           0.2430 ( 99)
 CRD 50=   0.2260 (  3) -0.1037 (  4) -0.1088 (  7) -0.1935 ( 15) -0.1839 ( 18)
           0.1199 ( 36)  0.1298 ( 38)  0.1371 ( 48)  0.1361 ( 49) -0.1015 ( 50)
          -0.1315 ( 52) -0.1299 ( 54)  0.1322 ( 56) -0.1317 ( 59) -0.1371 ( 64)
           0.1370 ( 67)  0.1103 ( 77) -0.1101 ( 78) -0.1324 ( 82)  0.1325 ( 85)
           0.2474 ( 91) -0.2472 ( 94)  0.1071 ( 96)  0.2397 ( 97) -0.2395 ( 98)
          -0.1083 ( 99)
 CRD 51=  -0.1617 (  4)  0.1628 (  7) -0.1317 (  8) -0.1317 (  9)  0.1081 ( 10)
           0.1322 ( 11)  0.1323 ( 12) -0.1110 ( 13)  0.1200 ( 15) -0.1178 ( 18)
           0.1765 ( 22) -0.1764 ( 29) -0.1144 ( 36)  0.1319 ( 38)  0.1966 ( 50)
          -0.1975 ( 51) -0.1044 ( 54)  0.1021 ( 56) -0.1114 ( 58) -0.1020 ( 59)
           0.1113 ( 61)  0.1105 ( 62)  0.1011 ( 64) -0.1104 ( 65) -0.1013 ( 67)
          -0.1265 ( 77)  0.1267 ( 78) -0.1798 ( 80)  0.1798 ( 83)  0.1836 ( 88)
          -0.1836 ( 89) -0.2278 ( 91)  0.2277 ( 94)  0.1284 ( 96)  0.2305 ( 97)
          -0.2304 ( 98) -0.1285 ( 99)
 CRD 52=   0.1217 (  1)  0.1217 (  2) -0.1924 (  3) -0.1808 (  4)  0.1217 (  5)
           0.1216 (  6) -0.1798 (  7)  0.1915 ( 21)  0.1499 ( 22)  0.1919 ( 27)
           0.1483 ( 29) -0.1794 ( 48) -0.1794 ( 49) -0.1382 ( 50) -0.1397 ( 51)
          -0.1169 ( 69)  0.1168 ( 70)  0.1168 ( 71) -0.1167 ( 72) -0.1099 ( 73)
           0.1098 ( 74)  0.1098 ( 75) -0.1099 ( 76) -0.2025 ( 80)  0.2336 ( 82)
           0.2026 ( 83) -0.2336 ( 85) -0.2026 ( 88)  0.2026 ( 89)  0.1366 ( 91)
          -0.1365 ( 94)  0.1392 ( 97) -0.1392 ( 98)
 CRD 53=   0.1022 (  5) -0.1022 (  6) -0.1606 (  8)  0.1605 (  9) -0.1648 ( 11)
           0.1647 ( 12)  0.1189 ( 17) -0.1190 ( 19) -0.1084 ( 24)  0.1084 ( 25)
          -0.1175 ( 28)  0.1175 ( 31) -0.1059 ( 32)  0.1059 ( 35)  0.1171 ( 37)
          -0.1170 ( 39) -0.1081 ( 42)  0.1081 ( 43) -0.1240 ( 44)  0.1241 ( 45)
           0.2024 ( 56)  0.1324 ( 58)  0.2027 ( 59)  0.1325 ( 61)  0.1000 ( 62)
          -0.1321 ( 63)  0.1899 ( 64)  0.1002 ( 65)  0.1895 ( 67) -0.2055 ( 68)
          -0.1948 ( 73) -0.1948 ( 74) -0.1953 ( 75) -0.1953 ( 76) -0.1392 ( 77)
          -0.1391 ( 78) -0.2109 ( 96) -0.2107 ( 99)
 CRD 54=  -0.1487 (  1)  0.1487 (  2) -0.1455 (  5)  0.1455 (  6) -0.1042 ( 11)
           0.1041 ( 12) -0.1272 ( 20)  0.1272 ( 23) -0.1056 ( 24)  0.1057 ( 25)
           0.1278 ( 26)  0.1002 ( 28) -0.1278 ( 30) -0.1002 ( 31)  0.1092 ( 32)
          -0.1092 ( 35)  0.1136 ( 40) -0.1136 ( 41)  0.1589 ( 56) -0.2176 ( 58)
           0.1590 ( 59) -0.2176 ( 61)  0.2241 ( 62) -0.1443 ( 64)  0.2242 ( 65)
          -0.1442 ( 67)  0.2267 ( 69)  0.2267 ( 70) -0.2310 ( 71) -0.2310 ( 72)
           0.1646 ( 73)  0.1646 ( 74) -0.1782 ( 75) -0.1782 ( 76) -0.1043 ( 96)
          -0.1042 ( 99)

 THE DETERMINANT OF THE G MATRIX IS 10**(   -20)


                     --------------------
                     INTERNAL COORDINATES
                     --------------------

                 - - ATOMS - -         COORDINATE      COORDINATE
 NO.   TYPE    I  J  K  L  M  N        (BOHR,RAD)       (ANG,DEG)
 ----------------------------------------------------------------
   1 STRETCH   1  8                     2.0953472       1.1088101
   2 STRETCH   1  9                     2.0952614       1.1087647
   3 STRETCH   1  2                     2.8721945       1.5199000
   4 STRETCH   1  4                     2.8731540       1.5204077
   5 STRETCH   2 11                     2.0952624       1.1087652
   6 STRETCH   2 10                     2.0954129       1.1088448
   7 STRETCH   2  3                     2.8727397       1.5201885
   8 STRETCH   3 13                     2.0947431       1.1084904
   9 STRETCH   3 12                     2.0947514       1.1084948
  10 STRETCH   3  5                     2.8561400       1.5114043
  11 STRETCH   4 15                     2.0944255       1.1083223
  12 STRETCH   4 14                     2.0942545       1.1082319
  13 STRETCH   4  6                     2.8570805       1.5119020
  14 STRETCH   5 16                     2.0872653       1.1045333
  15 STRETCH   5  7                     3.3631498       1.7797024
  16 STRETCH   5 17                     2.0871412       1.1044676
  17 STRETCH   6 20                     2.0752098       1.0981538
  18 STRETCH   6 19                     2.0739812       1.0975037
  19 STRETCH   6 18                     2.0753211       1.0982127
  20 BEND      1  2 10                  1.9196249     109.9864040
  21 BEND      1  2  3                  1.9406386     111.1903990
  22 BEND      1  4  6                  1.9450682     111.4442006
  23 BEND      1  2 11                  1.9196510     109.9879007
  24 BEND      1  4 14                  1.9177368     109.8782243
  25 BEND      1  4 15                  1.9176449     109.8729568
  26 BEND      2  1  8                  1.9197322     109.9925556
  27 BEND      2  1  4                  1.9435470     111.3570426
  28 BEND      2  3 12                  1.9238363     110.2277017
  29 BEND      2  3  5                  1.9382567     111.0539265
  30 BEND      2  1  9                  1.9198431     109.9989084
  31 BEND      2  3 13                  1.9237829     110.2246406
  32 BEND      3  2 11                  1.9194577     109.9768235
  33 BEND      3  5 17                  1.9540017     111.9560529
  34 BEND      3  5 16                  1.9539879     111.9552587
  35 BEND      3  2 10                  1.9194316     109.9753276
  36 BEND      3  5  7                  1.8987112     108.7881396
  37 BEND      4  6 18                  1.9486430     111.6490194
  38 BEND      4  6 19                  1.9421468     111.2768159
  39 BEND      4  6 20                  1.9487083     111.6527609
  40 BEND      4  1  8                  1.9183092     109.9110210
  41 BEND      4  1  9                  1.9182891     109.9098694
  42 BEND      5  3 12                  1.9170203     109.8371745
  43 BEND      5  3 13                  1.9170376     109.8381651
  44 BEND      6  4 14                  1.9194736     109.9777378
  45 BEND      6  4 15                  1.9193972     109.9733563
  46 BEND      7  5 16                  1.8909552     108.3437512
  47 BEND      7  5 17                  1.8909752     108.3448986
  48 BEND      8  1  9                  1.8414804     105.5090552
  49 BEND     10  2 11                  1.8426311     105.5749853
  50 BEND     12  3 13                  1.8415837     105.5149741
  51 BEND     14  4 15                  1.8417978     105.5272378
  52 BEND     16  5 17                  1.8732704     107.3304894
  53 BEND     18  6 19                  1.8743237     107.3908351
  54 BEND     18  6 20                  1.8716979     107.2403881
  55 BEND     19  6 20                  1.8743084     107.3899587
  56 TORSION   1  4  6 18              -1.0482720     -60.0615601
  57 TORSION   1  4  6 19               3.1409102     179.9608979
  58 TORSION   1  2  3 13              -1.0130286     -58.0422623
  59 TORSION   1  4  6 20               1.0468822      59.9819318
  60 TORSION   1  2  3  5               3.1415218     179.9959379
  61 TORSION   1  2  3 12               1.0128722      58.0332997
  62 TORSION   2  1  4 15              -1.0102346     -57.8821777
  63 TORSION   2  1  4  6               3.1409531     179.9633565
  64 TORSION   2  3  5 17               1.0505599      60.1926507
  65 TORSION   2  1  4 14               1.0087949      57.7996924
  66 TORSION   2  3  5  7               3.1398744     179.9015522
  67 TORSION   2  3  5 16              -1.0540300     -60.3914682
  68 TORSION   3  2  1  4               3.1415927     180.0000000
  69 TORSION   3  2  1  9               1.0105082      57.8978542
  70 TORSION   3  2  1  8              -1.0105592     -57.9007763
  71 TORSION   4  1  2 10              -1.0111696     -57.9357521
  72 TORSION   4  1  2 11               1.0111187      57.9328330
  73 TORSION   5  3  2 10               1.0109865      57.9252619
  74 TORSION   5  3  2 11              -1.0110774     -57.9304666
  75 TORSION   6  4  1  9              -1.0102493     -57.8830193
  76 TORSION   6  4  1  8               1.0090968      57.8169904
  77 TORSION   7  5  3 12              -1.0106959     -57.9086095
  78 TORSION   7  5  3 13               1.0073151      57.7149046
  79 TORSION   8  1  4 15               3.1410945     179.9714563
  80 TORSION   8  1  4 14              -1.1230613     -64.3466736
  81 TORSION   8  1  2 11              -3.1410332    -179.9679434
  82 TORSION   8  1  2 10               1.1198638      64.1634716
  83 TORSION   9  1  4 15               1.1217484      64.2714466
  84 TORSION   9  1  4 14               3.1407779     179.9533167
  85 TORSION   9  1  2 11              -1.1199658     -64.1693129
  86 TORSION   9  1  2 10               3.1409312     179.9621021
  87 TORSION  10  2  3 13               3.1396215     179.8870616
  88 TORSION  10  2  3 12              -1.1176631     -64.0373763
  89 TORSION  11  2  3 13               1.1175576      64.0313331
  90 TORSION  11  2  3 12              -3.1397270    -179.8931048
  91 TORSION  12  3  5 16               1.0785850      61.7983702
  92 TORSION  12  3  5 17              -3.1000104    -177.6175109
  93 TORSION  13  3  5 16               3.0965960     177.4218842
  94 TORSION  13  3  5 17              -1.0819994     -61.9939969
  95 TORSION  14  4  6 20              -3.1051474    -177.9118401
  96 TORSION  14  4  6 19              -1.0111194     -57.9328741
  97 TORSION  14  4  6 18               1.0828837      62.0446679
  98 TORSION  15  4  6 20              -1.0841039     -62.1145806
  99 TORSION  15  4  6 19               1.0099240      57.8643854
 100 TORSION  15  4  6 18               3.1039272     177.8419274

     ------------------------------------------
     THE POINT GROUP IS C1 , NAXIS= 1, ORDER= 1
     ------------------------------------------

     DIMENSIONS OF THE SYMMETRY SUBSPACES ARE
 A   =  219

 ..... DONE SETTING UP THE RUN .....
 STEP CPU TIME =     0.01 TOTAL CPU TIME =        0.0 (    0.0 MIN)
 TOTAL WALL CLOCK TIME=        0.0 SECONDS, CPU UTILIZATION IS  50.00%


          -----------------------------
          STATIONARY POINT LOCATION RUN
          -----------------------------

 OBTAINING INITIAL HESSIAN, HESS=GUESS   
 DIAGONAL GUESS HESSIAN IN INTERNAL COORDS IS
     1  0.3339     2  0.3340     3  0.3744     4  0.3741     5  0.3340
     6  0.3339     7  0.3742     8  0.3341     9  0.3341    10  0.3807
    11  0.3342    12  0.3343    13  0.3803    14  0.3367    15  0.3466
    16  0.3368    17  0.3409    18  0.3414    19  0.3409    20  0.2236
    21  0.2499    22  0.2504    23  0.2236    24  0.2236    25  0.2236
    26  0.2236    27  0.2499    28  0.2236    29  0.2505    30  0.2236
    31  0.2236    32  0.2235    33  0.2243    34  0.2243    35  0.2235
    36  0.2569    37  0.2247    38  0.2247    39  0.2247    40  0.2235
    41  0.2235    42  0.2241    43  0.2241    44  0.2241    45  0.2241
    46  0.2291    47  0.2291    48  0.2015    49  0.2015    50  0.2016
    51  0.2016    52  0.2020    53  0.2026    54  0.2026    55  0.2026
    56  0.2500    57  0.2500    58  0.2500    59  0.2500    60  0.2500
    61  0.2500    62  0.2500    63  0.2500    64  0.2500    65  0.2500
    66  0.2500    67  0.2500    68  0.2500    69  0.2500    70  0.2500
    71  0.2500    72  0.2500    73  0.2500    74  0.2500    75  0.2500
    76  0.2500    77  0.2500    78  0.2500    79  0.2500    80  0.2500
    81  0.2500    82  0.2500    83  0.2500    84  0.2500    85  0.2500
    86  0.2500    87  0.2500    88  0.2500    89  0.2500    90  0.2500
    91  0.2500    92  0.2500    93  0.2500    94  0.2500    95  0.2500
    96  0.2500    97  0.2500    98  0.2500    99  0.2500   100  0.2500
 TRANSFORMING HESSIAN TO SYMMETRY COORDINATES

          PARAMETERS CONTROLLING GEOMETRY SEARCH ARE
          METHOD =QA                  UPHESS =BFGS    
          NNEG   =         0          NFRZ   =         3
          NSTEP  =        50          IFOLOW =         1
          HESS   =GUESS               RESTAR =         F
          IHREP  =         0          HSSEND =         F
          NPRT   =         0          NPUN   =         0
          OPTTOL = 5.000E-04          RMIN   = 1.500E-03
          RMAX   = 1.000E-01          RLIM   = 7.000E-02
          DXMAX  = 3.000E-01          PURIFY =         F
          MOVIE  =         F          TRUPD  =         T
          TRMAX  = 5.000E-01          TRMIN  = 5.000E-02
          ITBMAT =         5          STPT   =         F
          STSTEP = 1.000E-02          PROJCT=          F
          FROZEN COORD(S)=   1   2   3


      ***** EQUILIBRIUM GEOMETRY LOCATED *****
            (SUBJECT TO   3 CONSTRAINT(S))
 COORDINATES OF ALL ATOMS ARE (ANGS)
   ATOM   CHARGE       X              Y              Z
 ------------------------------------------------------------
 C           6.0  -0.0125915744  -0.0617766793  -0.0406567453
 C           6.0   1.5088631012  -0.0045382266  -0.0407620776
 C           6.0   2.0352484191   1.4303044225  -0.0408753926
 C           6.0  -0.5682925857  -1.4821478711  -0.0407002679
 C           6.0   3.5483494870   1.4158611466  -0.0409402551
 C           6.0  -2.0937971038  -1.4788164777  -0.0399351748
 CL         17.0   4.2422294224   3.1027538149  -0.0435538549
 H           1.0  -0.3916118016   0.4680835994   0.8321725014
 H           1.0  -0.3916686506   0.4681292973  -0.9134302981
 H           1.0   1.8921312617  -0.5289700006   0.8328882095
 H           1.0   1.8919749760  -0.5289967078  -0.9144612074
 H           1.0   1.6702673878   1.9601353912   0.8344892801
 H           1.0   1.6701480450   1.9600737958  -0.9162141969
 H           1.0  -0.1976650663  -2.0186519742   0.8314721855
 H           1.0  -0.1985766717  -2.0182089407  -0.9135332661
 H           1.0   3.9461416950   0.9428558558   0.8425357226
 H           1.0   3.9460046680   0.9401969354  -0.9230498875
 H           1.0  -2.4706394734  -0.9606873499   0.8385542993
 H           1.0  -2.5016844472  -2.4845811633  -0.0405637492
 H           1.0  -2.4714647881  -0.9592473067  -0.9172282603


                     --------------------
                     INTERNAL COORDINATES
                     --------------------

                 - - ATOMS - -         COORDINATE      COORDINATE
 NO.   TYPE    I  J  K  L  M  N        (BOHR,RAD)       (ANG,DEG)
 ----------------------------------------------------------------
   1 STRETCH   1  8                     2.0581876       1.0891461
   2 STRETCH   1  9                     2.0581827       1.0891434
   3 STRETCH   1  2                     2.8771664       1.5225310
   4 STRETCH   1  4                     2.8822243       1.5252075
   5 STRETCH   2 11                     2.0572699       1.0886605
   6 STRETCH   2 10                     2.0572755       1.0886634
   7 STRETCH   2  3                     2.8881635       1.5283504
   8 STRETCH   3 13                     2.0529174       1.0863572
   9 STRETCH   3 12                     2.0529377       1.0863679
  10 STRETCH   3  5                     2.8594767       1.5131700
  11 STRETCH   4 15                     2.0578836       1.0889852
  12 STRETCH   4 14                     2.0578814       1.0889840
  13 STRETCH   4  6                     2.8827928       1.5255083
  14 STRETCH   5 16                     2.0374914       1.0781941
  15 STRETCH   5  7                     3.4469157       1.8240294
  16 STRETCH   5 17                     2.0374923       1.0781946
  17 STRETCH   6 20                     2.0547050       1.0873032
  18 STRETCH   6 19                     2.0509710       1.0853272
  19 STRETCH   6 18                     2.0546908       1.0872956
  20 BEND      1  2 10                  1.9109580     109.4898298
  21 BEND      1  2  3                  1.9600140     112.3005314
  22 BEND      1  4  6                  1.9415413     111.2421236
  23 BEND      1  2 11                  1.9109236     109.4878585
  24 BEND      1  4 14                  1.9121642     109.5589377
  25 BEND      1  4 15                  1.9121339     109.5572044
  26 BEND      2  1  8                  1.9065891     109.2395076
  27 BEND      2  1  4                  1.9813283     113.5217505
  28 BEND      2  3 12                  1.9199460     110.0048025
  29 BEND      2  3  5                  1.9128657     109.5991311
  30 BEND      2  1  9                  1.9065261     109.2358964
  31 BEND      2  3 13                  1.9199799     110.0067422
  32 BEND      3  2 11                  1.9081697     109.3300681
  33 BEND      3  5 17                  1.9530851     111.9035349
  34 BEND      3  5 16                  1.9531213     111.9056048
  35 BEND      3  2 10                  1.9082180     109.3328388
  36 BEND      3  5  7                  1.9514914     111.8122182
  37 BEND      4  6 18                  1.9262672     110.3669816
  38 BEND      4  6 19                  1.9538933     111.9498419
  39 BEND      4  6 20                  1.9262135     110.3639038
  40 BEND      4  1  8                  1.9031660     109.0433811
  41 BEND      4  1  9                  1.9031397     109.0418722
  42 BEND      5  3 12                  1.9183927     109.9158043
  43 BEND      5  3 13                  1.9184391     109.9184621
  44 BEND      6  4 14                  1.9187936     109.9387754
  45 BEND      6  4 15                  1.9187567     109.9366601
  46 BEND      7  5 16                  1.8406005     105.4586388
  47 BEND      7  5 17                  1.8405823     105.4575997
  48 BEND      8  1  9                  1.8591440     106.5211065
  49 BEND     10  2 11                  1.8630195     106.7431537
  50 BEND     12  3 13                  1.8739284     107.3681895
  51 BEND     14  4 15                  1.8586216     106.4911719
  52 BEND     16  5 17                  1.9185328     109.9238309
  53 BEND     18  6 19                  1.8878945     108.1683873
  54 BEND     18  6 20                  1.8794832     107.6864524
  55 BEND     19  6 20                  1.8878994     108.1686689
  56 TORSION   1  4  6 18              -1.0382903     -59.4896509
  57 TORSION   1  4  6 19               3.1409917     179.9655669
  58 TORSION   1  2  3 13              -1.0303909     -59.0370525
  59 TORSION   1  4  6 20               1.0371190      59.4225419
  60 TORSION   1  2  3  5               3.1415674     179.9985525
  61 TORSION   1  2  3 12               1.0304193      59.0386783
  62 TORSION   2  1  4 15              -1.0169848     -58.2689371
  63 TORSION   2  1  4  6               3.1411313     179.9735687
  64 TORSION   2  3  5 17               1.0796697      61.8605162
  65 TORSION   2  1  4 14               1.0159952      58.2122381
  66 TORSION   2  3  5  7               3.1401299     179.9161893
  67 TORSION   2  3  5 16              -1.0825481     -62.0254378
  68 TORSION   3  2  1  4               3.1414797     179.9935259
  69 TORSION   3  2  1  9               1.0135607      58.0727512
  70 TORSION   3  2  1  8              -1.0137068     -58.0811211
  71 TORSION   4  1  2 10              -1.0185193     -58.3568598
  72 TORSION   4  1  2 11               1.0183789      58.3488124
  73 TORSION   5  3  2 10               1.0168174      58.2593475
  74 TORSION   5  3  2 11              -1.0169455     -58.2666828
  75 TORSION   6  4  1  9              -1.0122524     -57.9977930
  76 TORSION   6  4  1  8               1.0112296      57.9391896
  77 TORSION   7  5  3 12              -1.0309680     -59.0701142
  78 TORSION   7  5  3 13               1.0279712      58.8984085
  79 TORSION   8  1  4 15               3.1362988     179.6966837
  80 TORSION   8  1  4 14              -1.1139065     -63.8221410
  81 TORSION   8  1  2 11              -3.1368076    -179.7258346
  82 TORSION   8  1  2 10               1.1094795      63.5684932
  83 TORSION   9  1  4 15               1.1128167      63.7597011
  84 TORSION   9  1  4 14              -3.1373886    -179.7591236
  85 TORSION   9  1  2 11              -1.1095401     -63.5719623
  86 TORSION   9  1  2 10               3.1367470     179.7223655
  87 TORSION  10  2  3 13               3.1280444     179.2237426
  88 TORSION  10  2  3 12              -1.0943306     -62.7005266
  89 TORSION  11  2  3 13               1.0942815      62.6977123
  90 TORSION  11  2  3 12              -3.1280935    -179.2265569
  91 TORSION  12  3  5 16               1.0295393      58.9882587
  92 TORSION  12  3  5 17              -3.0914282    -177.1257873
  93 TORSION  13  3  5 16               3.0884785     176.9567814
  94 TORSION  13  3  5 17              -1.0324890     -59.1572647
  95 TORSION  14  4  6 20              -3.1247913    -179.0373505
  96 TORSION  14  4  6 19              -1.0209186     -58.4943255
  97 TORSION  14  4  6 18               1.0829848      62.0504566
  98 TORSION  15  4  6 20              -1.0840928     -62.1139428
  99 TORSION  15  4  6 19               1.0197799      58.4290823
 100 TORSION  15  4  6 18               3.1236832     178.9738644

          INTERNUCLEAR DISTANCES (ANGS.)


 =====================================================
   GAMESS/COSab RESULTS
 =====================================================

   Dielectric Constant                  = INFTY
   Basic Grid Size                      =                 1082
   Number of Segments                   =                   92
   Number of Segments located on spheres=                  268
   Number of Segments of the cavity     =                  730
   Solvent Radius (rsolv)               = 1.40
   Outlying Charge Error Method         = double cavity

 =====================================================

  Total solvated Energy (a.u.)          =  -694.3642116333
  Total Energy corrected (a.u.)         =  -694.3642082128

  Outlying charge effect (a.u.)         =     0.0000034205
  Outlying charge effect (kcal/mol)     =     0.0021464030

  Dielectric Energy (a.u.)              =    -0.0075496659
  Dielectric energy corr. (a.u.)        =    -0.0075462454

  Sum of polarization charges           =     0.0291886191
  Sum of polarization charges(cor.)     =    -0.0291886191

  Total surface area of cavity (A**2)   =  175.66
  Total volume of cavity (A**3)         =  168.72

 =====================================================
 NPS=                   730
NR.  ATOM  (X, Y, Z)(a.u.)                  CHARGE(e)  AREA(A**2) SIGMA(e/A**2)
   1   1  -2.862785   2.363970  -0.342171   0.001115   0.232280   0.004801
   2   1   0.417448  -0.720186  -3.781624   0.000145   0.092912   0.001559
   3   1   0.573768  -0.113283  -3.808752   0.000036   0.046456   0.000774
   4   1  -2.723954   2.489814   0.369478   0.001094   0.232280   0.004712
   5   1   0.046166  -0.736298   3.650830   0.000241   0.139368   0.001730
   6   1  -1.183726   3.468639  -0.366344   0.001003   0.232280   0.004319
   7   1  -2.055850   3.065747  -0.240284   0.001825   0.325193   0.005613
   8   1   0.022355  -0.699321  -3.810836   0.000080   0.046456   0.001718
   9   1  -1.446972   3.343576   0.456987   0.000599   0.139368   0.004301
  10   1   0.503775  -0.411120   3.654016   0.000079   0.046456   0.001692
  11   2   5.715407  -2.461033  -0.335638   0.000970   0.232280   0.004177
  12   2   2.407835   0.584631  -3.783198   0.000080   0.092912   0.000865
  13   2   5.577124  -2.587162   0.376067   0.000871   0.232280   0.003750
  14   2   2.771358   0.616019   3.649591   0.000116   0.139368   0.000831
  15   2   4.047567  -3.582569  -0.359769   0.000927   0.232280   0.003990
  16   2   4.915466  -3.170731  -0.233464   0.001591   0.325193   0.004894
  17   2   2.803148   0.567696  -3.811982   0.000032   0.046456   0.000685
  18   2   4.308703  -3.453587   0.463629   0.000532   0.139368   0.003816
  19   2   2.317039   0.286260   3.652825   0.000048   0.046456   0.001041
  20   3   0.963235   5.118341  -0.450232   0.001009   0.371649   0.002716
  21   3   4.260892   2.114069  -3.787424  -0.000116   0.092912  -0.001245
  22   3   1.112509   5.253936   0.474185   0.000609   0.278737   0.002184
  23   3   3.920823   2.059751   3.646343  -0.000056   0.139368  -0.000402
  24   3   2.694957   6.299497  -0.230657   0.000467   0.185824   0.002515
  25   3   1.911040   5.942303  -0.291907   0.001437   0.371649   0.003867
  26   3   3.866109   2.142073  -3.814799  -0.000017   0.046456  -0.000374
  27   3   2.486475   6.184480   0.483318   0.000313   0.139368   0.002249
  28   3   4.384113   2.376784   3.649478  -0.000066   0.046456  -0.001423
  29   4  -1.490476  -6.552720  -0.261922   0.000502   0.232280   0.002159
  30   4   1.814422  -5.215446  -0.410719   0.001435   0.325193   0.004414
  31   4  -1.507567  -2.188214  -3.781074   0.000162   0.092912   0.001745
  32   4  -1.674077  -2.792392  -3.808391   0.000064   0.046456   0.001371
  33   4   1.664444  -5.353078   0.444371   0.001312   0.278737   0.004707
  34   4  -1.131449  -6.470613   0.825209   0.001274   0.418105   0.003048
  35   4  -1.130851  -2.182100   3.651122   0.000253   0.139368   0.001813
  36   4  -0.376615  -6.508731  -0.299720   0.001582   0.371649   0.004256
  37   4   0.951935  -5.984370  -0.289868   0.001558   0.278737   0.005588
  38   4  -1.181552  -6.428768  -1.130896   0.000807   0.278737   0.002893
  39   4  -1.112901  -2.215696  -3.810578   0.000086   0.046456   0.001856
  40   4   0.283333  -6.315266   0.224752   0.001317   0.278737   0.004724
  41   4  -1.593854  -2.499549   3.654471   0.000098   0.046456   0.002106
  42   5   6.182801   3.852816   3.475846  -0.000169   0.046456  -0.003640
  43   5   9.930749   0.749622  -0.492139  -0.000228   0.464561  -0.000490
  44   5   6.289604   3.153369  -3.803367  -0.000265   0.092912  -0.002849
  45   5   9.658993   0.404836   0.558419  -0.000312   0.278737  -0.001120
  46   5   7.824462  -0.855730   0.672095  -0.000462   0.139368  -0.003312
  47   5   6.525329   3.447771   3.617982  -0.000487   0.185824  -0.002618
  48   5   8.016369  -0.867790  -0.177515  -0.000388   0.278737  -0.001393
  49   5   9.078923  -0.248501  -0.394098   0.000004   0.371649   0.000011
  50   5  10.302441   1.526362   0.080299  -0.000317   0.325193  -0.000976
  51   5  10.261155   1.834141  -1.043214  -0.000515   0.278737  -0.001846
  52   5   6.822278   3.541674  -3.754389  -0.000370   0.092912  -0.003981
  53   5  10.242601   1.764243   0.893174  -0.000361   0.232280  -0.001554
  54   5   8.692775  -0.505851   0.384154  -0.000142   0.185824  -0.000764
  55   5   6.086239   3.018789   3.635197  -0.000181   0.046456  -0.003893
  56   5   8.016777  -0.772913  -0.897319  -0.000402   0.139368  -0.002885
  57   6  -5.822187   0.468491  -0.471360   0.001126   0.232280   0.004848
  58   6  -7.698253  -3.044026   0.396486   0.000949   0.371649   0.002554
  59   6  -5.406032  -4.808500   2.775436   0.001810   0.371649   0.004871
  60   6  -3.979721  -4.101203  -3.621798   0.001449   0.418105   0.003467
  61   6  -5.087943  -4.012616  -3.469715   0.000766   0.185824   0.004121
  62   6  -3.777652  -5.195118  -2.989151   0.000829   0.278737   0.002973
  63   6  -4.471318  -5.190651  -2.952653   0.000683   0.185824   0.003677
  64   6  -3.247941  -2.782684   3.636907   0.000096   0.092912   0.001033
  65   6  -5.559357  -3.951488   3.145895   0.001260   0.278737   0.004520
  66   6  -7.450207  -2.433515   1.320687   0.001327   0.418105   0.003174
  67   6  -5.935969   0.399227   0.332543   0.001128   0.232280   0.004855
  68   6  -6.384656  -3.985922  -2.715532   0.001927   0.371649   0.005185
  69   6  -6.235883  -4.645772  -2.455086   0.001086   0.232280   0.004674
  70   6  -5.093842   0.805471  -0.251429   0.000890   0.185824   0.004789
  71   6  -6.803560  -0.312758  -0.217921   0.002585   0.511017   0.005058
  72   6  -7.579693  -1.732939   0.100876   0.001295   0.418105   0.003098
  73   6  -7.322431  -3.905699   1.236556   0.001661   0.418105   0.003972
  74   6  -6.438976  -4.382860   2.290917   0.001758   0.325193   0.005407
  75   6  -4.200019  -4.340353   3.364808   0.001618   0.464561   0.003483
  76   6  -3.338240  -3.557396   3.574160   0.000246   0.092912   0.002646
  77   6  -7.278915  -3.037165  -1.861041   0.001406   0.371649   0.003782
  78   6  -7.671191  -2.820531  -0.772675   0.001280   0.464561   0.002755
  79   6  -7.545099  -3.978762  -0.147958   0.000969   0.325193   0.002978
  80   6  -4.414806  -5.304797   2.712547   0.000981   0.278737   0.003519
  81   6  -3.441239  -5.827647   2.119727   0.000276   0.139368   0.001979
  82   6  -3.437172  -3.301833  -3.784522   0.000383   0.185824   0.002063
  83   6  -5.169187  -4.739511  -3.080682   0.001754   0.371649   0.004719
  84   6  -3.470257  -5.883871  -2.197683   0.000426   0.185824   0.002295
  85   6  -3.927988  -3.494803   3.638428   0.000370   0.139368   0.002655
  86   6  -6.956122  -3.552471   2.095525   0.001415   0.325193   0.004352
  87   6  -7.204331  -0.963656   0.544937   0.001044   0.278737   0.003747
  88   6  -5.033832   0.764926   0.598410   0.000490   0.139368   0.003514
  89   6  -7.246250  -4.055705  -1.443896   0.001670   0.418105   0.003994
  90   6  -7.401034  -1.542806  -0.999540   0.001161   0.371649   0.003124
  91   6  -3.600402  -5.227057   2.795107   0.000668   0.232280   0.002874
  92   7   9.449871   9.460717  -0.192775  -0.000962   0.536887  -0.001792
  93   7   5.512815   8.768827  -0.626699   0.004090   0.488079   0.008379
  94   7   8.098367   7.702669  -3.490769   0.004027   0.488079   0.008251
  95   7  11.448222   6.404796  -1.796534   0.003937   0.488079   0.008066
  96   7  11.048862   6.639215   2.200484   0.003915   0.488079   0.008022
  97   7   7.227435   8.010031   3.044395   0.003697   0.439271   0.008417
  98   7   8.038837   9.735341  -0.202951   0.000083   0.585695   0.000141
  99   7   6.648957   9.466248  -0.477134   0.002392   0.536887   0.004455
 100   7   9.012405   9.313992  -1.534519   0.000156   0.585695   0.000267
 101   7   8.482441   8.718531  -2.658808   0.002196   0.488079   0.004499
 102   7  10.500996   8.731701  -0.862037   0.000087   0.585695   0.000149
 103   7  11.290007   7.621580  -1.178288   0.002335   0.536887   0.004350
 104   7  10.345898   8.852071   0.723634  -0.000116   0.536887  -0.000216
 105   7  10.806109   7.943043   1.620982   0.001868   0.488079   0.003828
 106   7   8.955957   9.396652   1.198649  -0.000069   0.683311  -0.000101
 107   7   8.120363   8.931608   2.280403   0.002503   0.585695   0.004274
 108   7   6.167977   8.786496  -1.827294   0.003683   0.488079   0.007546
 109   7   7.058674   8.415418  -2.834870   0.004205   0.536887   0.007833
 110   7   9.353638   7.486941  -3.335584   0.004916   0.634503   0.007748
 111   7  10.663388   6.979403  -2.681656   0.004441   0.585695   0.007582
 112   7  11.841307   6.410558  -0.365124   0.004610   0.585695   0.007872
 113   7  11.658204   6.566721   1.036520   0.004444   0.585695   0.007587
 114   7  10.096028   7.171048   2.913275   0.004132   0.536887   0.007697
 115   7   8.642693   7.747665   3.244073   0.004567   0.585695   0.007798
 116   7   6.535382   8.627408   2.192156   0.005028   0.634503   0.007925
 117   7   5.836945   8.944417   0.791341   0.004984   0.634503   0.007854
 118   7   5.104598   7.955622  -1.548494   0.004437   0.488079   0.009091
 119   7   6.340055   6.603634  -3.495281   0.002651   0.292848   0.009051
 120   7   7.032285   7.131279  -3.608036   0.003623   0.390463   0.009280
 121   7   8.170503   6.348974  -3.922606   0.005351   0.585695   0.009136
 122   7   8.674732   5.122760  -3.827420   0.003437   0.488079   0.007042
 123   7  10.028546   4.728182  -3.192146   0.003369   0.439271   0.007670
 124   7  10.942358   5.320169  -2.562755   0.005329   0.585695   0.009099
 125   7  11.659675   5.091435  -1.149994   0.005907   0.634503   0.009310
 126   7  11.363036   3.925823  -0.317113   0.004239   0.585695   0.007237
 127   7  11.071638   3.965737   1.357677   0.003255   0.488079   0.006668
 128   7  11.321945   5.245466   1.841407   0.004944   0.536887   0.009210
 129   7  10.258438   5.791133   3.076266   0.004390   0.488079   0.008994
 130   7   9.441665   4.947441   3.401636   0.003322   0.439271   0.007562
 131   7   7.863206   5.378159   3.758063   0.004117   0.585695   0.007028
 132   7   7.564012   6.896032   3.623913   0.004563   0.488079   0.009349
 133   7   6.077588   7.299477   2.948359   0.004822   0.488079   0.009879
 134   7   4.826643   8.050029   0.140497   0.004220   0.439271   0.009606
 135   7   7.522027   9.362730  -1.668828   0.002048   0.585695   0.003497
 136   7  10.101678   8.342330  -2.207093   0.002184   0.683311   0.003196
 137   7  11.341964   7.814090   0.297565   0.001923   0.585695   0.003283
 138   7   9.665924   8.422097   2.313542   0.002388   0.634503   0.003764
 139   7   7.235478   9.483978   1.052670   0.001907   0.585695   0.003256
 140   7   5.809804   7.625622  -2.734022   0.005229   0.536887   0.009739
 141   7   9.779477   6.040907  -3.527351   0.005415   0.585695   0.009245
 142   7  11.756784   5.063905   0.533910   0.005438   0.585695   0.009285
 143   7   8.991530   6.356299   3.634413   0.005451   0.585695   0.009307
 144   7   5.292968   7.944398   1.722726   0.005040   0.536887   0.009388
 145   7   7.157517   5.514570  -3.843642   0.002884   0.439271   0.006566
 146   7  10.922092   4.032111  -1.874628   0.003239   0.488079   0.006637
 147   7  10.490021   4.544660   2.591814   0.003406   0.439271   0.007753
 148   7   6.631163   6.057483   3.530187   0.003588   0.488079   0.007350
 149   8  -1.822806   2.072208   3.430597  -0.001600   0.372926  -0.004290
 150   8  -0.852001   0.277060   3.950302  -0.000716   0.314043  -0.002279
 151   8  -2.392907   2.676869   1.873823  -0.000470   0.372926  -0.001261
 152   8  -0.299687   1.260355   3.960044  -0.001688   0.490692  -0.003441
 153   8  -1.664227   1.082202   3.840169  -0.001804   0.392554  -0.004595
 154   8  -2.510718   2.112523   2.752379  -0.001438   0.333671  -0.004311
 155   8  -1.499642   3.093091   2.334461  -0.001326   0.431809  -0.003071
 156   8  -0.897508   2.409960   3.491812  -0.001884   0.372926  -0.005052
 157   9  -1.560636   2.314391  -3.547596  -0.001401   0.333671  -0.004198
 158   9  -0.164200   0.850598  -4.114066  -0.000883   0.353299  -0.002499
 159   9  -1.843205   3.066187  -1.969531  -0.000333   0.314043  -0.001059
 160   9  -1.216033   0.601948  -4.119606  -0.001626   0.471065  -0.003453
 161   9  -0.695367   1.902040  -3.961754  -0.001845   0.392554  -0.004700
 162   9  -1.330453   2.957126  -2.905737  -0.001436   0.333671  -0.004302
 163   9  -2.536055   2.410779  -2.419483  -0.001289   0.451437  -0.002856
 164   9  -2.144884   1.559191  -3.625292  -0.001998   0.392554  -0.005091
 165  10   4.668370  -2.173434   3.434870  -0.001805   0.372926  -0.004840
 166  10   3.679033  -0.387336   3.950794  -0.000910   0.314043  -0.002897
 167  10   5.246109  -2.774748   1.879617  -0.000684   0.372926  -0.001835
 168  10   3.136625  -1.376120   3.961519  -0.001954   0.490692  -0.003982
 169  10   4.499426  -1.184439   3.842735  -0.002057   0.392554  -0.005241
 170  10   5.357343  -2.207882   2.757407  -0.001698   0.333671  -0.005088
 171  10   4.337960  -3.222064   2.291304  -0.001521   0.431809  -0.003522
 172  10   3.756262  -2.554304   3.467435  -0.002282   0.412182  -0.005536
 173  11   4.388748  -2.401092  -3.574538  -0.001687   0.353299  -0.004774
 174  11   2.972349  -1.001632  -4.109573  -0.001120   0.372926  -0.003003
 175  11   4.655673  -3.190895  -1.985819  -0.000535   0.333671  -0.001602
 176  11   4.045287  -0.708413  -4.121690  -0.001945   0.471065  -0.004129
 177  11   3.485913  -2.020496  -3.960790  -0.002033   0.392554  -0.005179
 178  11   4.184926  -3.064237  -2.911721  -0.001639   0.333671  -0.004913
 179  11   5.385590  -2.506562  -2.426109  -0.001592   0.451437  -0.003527
 180  11   4.984344  -1.657046  -3.630067  -0.002288   0.392554  -0.005828
 181  12   2.159771   4.941639   3.450596  -0.002318   0.392554  -0.005906
 182  12   3.954113   4.019777   3.878922  -0.001422   0.294415  -0.004831
 183  12   2.989154   3.115492   3.956174  -0.001529   0.372926  -0.004101
 184  12   1.544401   5.534401   1.871655  -0.000969   0.353299  -0.002742
 185  12   3.143257   4.267230   3.968162  -0.001583   0.314043  -0.005040
 186  12   2.110996   3.906349   3.790884  -0.002205   0.353299  -0.006241
 187  12   1.383349   4.971711   2.710462  -0.002230   0.372926  -0.005979
 188  12   2.494982   5.931677   2.374284  -0.002193   0.490692  -0.004469
 189  12   3.248715   5.313659   3.430598  -0.002204   0.392554  -0.005614
 190  13   2.357861   4.952663  -3.690667  -0.002495   0.431809  -0.005778
 191  13   3.765907   3.678448  -4.111030  -0.001532   0.372926  -0.004109
 192  13   2.096833   5.884259  -2.130740  -0.001451   0.451437  -0.003214
 193  13   2.662913   3.402936  -4.119121  -0.002498   0.490692  -0.005090
 194  13   3.485692   4.781955  -3.914179  -0.002441   0.431809  -0.005654
 195  13   2.833609   5.765315  -3.028350  -0.002123   0.412182  -0.005149
 196  13   1.322050   5.149245  -2.494633  -0.002132   0.451437  -0.004723
 197  13   1.697324   4.308537  -3.613295  -0.002223   0.333671  -0.006662
 198  14   0.228576  -5.143328   3.547957  -0.001922   0.431809  -0.004451
 199  14  -1.211926  -4.726142   3.692931  -0.000720   0.294415  -0.002445
 200  14  -0.141110  -3.203624   3.939309  -0.000809   0.333671  -0.002424
 201  14   1.319553  -5.570665   1.863083  -0.000605   0.392554  -0.001540
 202  14  -0.688794  -6.143235   2.287970  -0.000548   0.353299  -0.001552
 203  14  -0.688767  -4.039570   3.997196  -0.001140   0.412182  -0.002765
 204  14   0.662328  -4.103348   3.780054  -0.001884   0.412182  -0.004571
 205  14   1.277949  -5.064248   2.892754  -0.001777   0.412182  -0.004312
 206  14   0.390192  -6.016258   2.349075  -0.001164   0.451437  -0.002577
 207  14  -0.874967  -5.613041   3.168027  -0.001197   0.451437  -0.002652
 208  15  -0.021577  -4.838555  -3.930863  -0.001557   0.372926  -0.004176
 209  15  -0.910407  -3.790899  -4.123863  -0.000762   0.392554  -0.001942
 210  15  -0.934230  -5.779605  -3.089582  -0.001159   0.412182  -0.002812
 211  15   0.816714  -5.934546  -2.068314  -0.000491   0.353299  -0.001390
 212  15   0.149873  -3.524072  -4.108625  -0.001634   0.471065  -0.003470
 213  15  -1.148741  -4.927011  -3.775155  -0.000806   0.353299  -0.002281
 214  15   0.387650  -5.641122  -3.180336  -0.001574   0.392554  -0.004010
 215  15   1.494814  -5.251174  -2.413366  -0.001204   0.412182  -0.002921
 216  15   1.044825  -4.567699  -3.583787  -0.002104   0.431809  -0.004873
 217  15  -0.303059  -6.196719  -2.319481  -0.000496   0.333671  -0.001485
 218  16   8.436811   0.998522   3.704475  -0.003827   0.431809  -0.008864
 219  16   7.602485   2.363656   3.974450  -0.003082   0.412182  -0.007477
 220  16   9.537766   1.666719   2.893248  -0.003079   0.372926  -0.008255
 221  16   9.153346   0.029248   1.886691  -0.001365   0.274788  -0.004967
 222  16   8.210930  -0.469903   2.222237  -0.002719   0.353299  -0.007695
 223  16   7.001641   1.431099   3.980598  -0.004268   0.490692  -0.008698
 224  16   8.724152   2.025216   3.682724  -0.002840   0.372926  -0.007615
 225  16   9.595074   0.856373   2.371909  -0.002363   0.372926  -0.006337
 226  16   8.746435   0.173115   2.928244  -0.003149   0.372926  -0.008445
 227  16   7.622839   0.218289   3.479815  -0.003812   0.392554  -0.009710
 228  17   8.559335   0.690943  -3.652381  -0.003833   0.431809  -0.008876
 229  17   8.332236   2.339589  -3.969608  -0.002412   0.314043  -0.007682
 230  17   6.802664   1.834909  -4.111524  -0.002599   0.333671  -0.007788
 231  17   8.758165  -0.286924  -2.032620  -0.001774   0.314043  -0.005648
 232  17   9.752527   1.376821  -2.522187  -0.002463   0.353299  -0.006972
 233  17   7.753231   1.875627  -4.180997  -0.002968   0.372926  -0.007959
 234  17   7.397894   0.678301  -3.940919  -0.004134   0.431809  -0.009573
 235  17   8.141421  -0.267453  -2.922386  -0.004025   0.431809  -0.009322
 236  17   9.342481   0.425910  -2.553550  -0.002827   0.431809  -0.006547
 237  17   9.202876   1.667433  -3.469003  -0.003333   0.392554  -0.008490
 238  18  -5.866085  -0.828393   3.489222  -0.002245   0.451437  -0.004973
 239  18  -5.663106   0.406883   1.913055  -0.000734   0.372926  -0.001967
 240  18  -4.087832  -1.798804   3.971529  -0.001103   0.353299  -0.003122
 241  18  -5.897868  -2.548615   3.581384  -0.000661   0.372926  -0.001771
 242  18  -6.929809  -1.262785   2.370556  -0.000821   0.412182  -0.001992
 243  18  -5.305132   0.152231   2.910739  -0.002096   0.431809  -0.004855
 244  18  -4.655026  -0.683179   3.764756  -0.002274   0.431809  -0.005267
 245  18  -5.050659  -2.054730   3.999597  -0.001379   0.431809  -0.003194
 246  18  -6.506285  -1.834380   3.215128  -0.001349   0.431809  -0.003124
 247  18  -6.484977  -0.285763   2.214594  -0.001103   0.412182  -0.002677
 248  19  -5.715318  -6.944005  -0.122562  -0.003437   0.608459  -0.005648
 249  19  -4.071798  -7.045634  -0.360482  -0.001233   0.353299  -0.003490
 250  19  -5.172549  -6.302556  -1.880373  -0.000628   0.333671  -0.001884
 251  19  -6.815886  -5.684732  -0.910027  -0.000736   0.353299  -0.002082
 252  19  -6.469222  -5.813203   1.246787  -0.000712   0.372926  -0.001908
 253  19  -4.557303  -6.506812   1.573839  -0.000661   0.353299  -0.001870
 254  19  -4.512818  -6.848544  -1.239441  -0.001638   0.490692  -0.003339
 255  19  -6.081706  -6.259928  -1.400585  -0.001643   0.490692  -0.003348
 256  19  -6.820357  -5.958946   0.164001  -0.001775   0.510320  -0.003479
 257  19  -5.658171  -6.476052   1.336651  -0.001751   0.490692  -0.003568
 258  19  -4.388490  -7.021786   0.635454  -0.001829   0.490692  -0.003727
 259  20  -5.934851  -0.939606  -3.650056  -0.002424   0.490692  -0.004940
 260  20  -5.780086  -2.560781  -3.793420  -0.000694   0.372926  -0.001862
 261  20  -4.050577  -1.880079  -4.109512  -0.000970   0.333671  -0.002908
 262  20  -5.664494   0.392297  -2.163194  -0.000947   0.392554  -0.002411
 263  20  -6.925860  -1.384466  -2.607720  -0.000773   0.372926  -0.002072
 264  20  -5.032784  -2.036221  -4.152768  -0.001278   0.412182  -0.003101
 265  20  -4.642219  -0.764024  -3.954687  -0.002351   0.451437  -0.005207
 266  20  -5.317761   0.078910  -3.160811  -0.002131   0.431809  -0.004936
 267  20  -6.558697  -0.357308  -2.325952  -0.001205   0.471065  -0.002559
 268  20  -6.539141  -2.026696  -3.313529  -0.000939   0.372926  -0.002517
 269   1   0.931964   0.249767   3.569658  -0.000006   0.028263  -0.000224
 270   2   1.426304   0.267244   3.527676   0.000004   0.028263   0.000148
 271   8   0.706363   0.447332   3.621339  -0.000034   0.028263  -0.001194
 272   1   0.931485   0.249750  -3.723465  -0.000015   0.028267  -0.000534
 273   2   1.425831   0.267228  -3.681554  -0.000005   0.028267  -0.000170
 274   9   0.705905   0.447339  -3.775111  -0.000048   0.028267  -0.001684
 275   1   1.402667  -0.393676   3.527490   0.000006   0.027925   0.000204
 276   2   1.896990  -0.376250   3.569568  -0.000021   0.027925  -0.000746
 277  10   2.124339  -0.571361   3.621440  -0.000050   0.027925  -0.001778
 278   1   1.402167  -0.393620  -3.681367  -0.000004   0.027928  -0.000150
 279   2   1.896485  -0.376193  -3.723510  -0.000027   0.027928  -0.000959
 280  11   2.123808  -0.571322  -3.775412  -0.000066   0.027928  -0.002356
 281   2   1.770883  -0.097601  -3.751689   0.000069   0.078319   0.000885
 282   1   1.056258  -0.030054  -3.751671   0.000089   0.078319   0.001130
 283   2   1.767834  -0.003312   3.597795   0.000075   0.078335   0.000952
 284   1   1.060303  -0.124380   3.597813   0.000101   0.078335   0.001285
 285   1  -0.546711   3.517562   0.974474   0.000086   0.067437   0.001273
 286   3   0.173402   3.941463   0.956334   0.000020   0.067437   0.000301
 287   8  -0.629522   3.440152   1.258630  -0.000067   0.067437  -0.001001
 288   1  -0.546926   3.517608  -1.127914   0.000089   0.067442   0.001313
 289   3   0.173187   3.941516  -1.109929   0.000028   0.067442   0.000410
 290   9  -0.629743   3.440225  -1.412070  -0.000094   0.067442  -0.001396
 291   3   0.409139   4.367411  -0.263220   0.000254   0.521128   0.000487
 292   1  -0.555018   3.664875   0.109695   0.000917   0.521128   0.001759
 293   1  -0.680730  -0.902614   3.569606  -0.000010   0.028526  -0.000344
 294   4  -0.860310  -1.364474   3.527651   0.000017   0.028526   0.000583
 295   8  -0.794877  -0.625313   3.621368  -0.000043   0.028526  -0.001501
 296   1  -0.680978  -0.902347  -3.723297   0.000008   0.028526   0.000273
 297   4  -0.860555  -1.364211  -3.681364   0.000029   0.028526   0.001019
 298   9  -0.795125  -0.625048  -3.775029  -0.000026   0.028526  -0.000915
 299   1  -0.218985  -1.562543   3.525579   0.000018   0.027894   0.000656
 300   4  -0.398257  -2.024473   3.567857  -0.000004   0.027894  -0.000153
 301  14  -0.289446  -2.303883   3.619125  -0.000034   0.027894  -0.001228
 302   1  -0.223048  -1.560773  -3.679742   0.000031   0.027897   0.001107
 303   4  -0.402369  -2.022682  -3.722041   0.000014   0.027897   0.000485
 304  15  -0.293585  -2.302056  -3.773565  -0.000019   0.027897  -0.000694
 305   4  -0.714578  -1.776603  -3.751201   0.000134   0.079370   0.001685
 306   1  -0.365956  -1.147545  -3.750947   0.000128   0.079370   0.001617
 307   4  -0.623084  -1.812573   3.597028   0.000106   0.080068   0.001323
 308   1  -0.453041  -1.113646   3.597348   0.000100   0.080068   0.001253
 309   1  -3.268872   1.613210   0.954946   0.000160   0.067464   0.002364
 310   6  -3.907054   1.082154   0.938086   0.000194   0.067464   0.002870
 311   8  -3.172170   1.662329   1.241037  -0.000062   0.067464  -0.000917
 312   1  -3.269179   1.612793  -1.108261   0.000146   0.067442   0.002167
 313   6  -3.907333   1.081722  -1.090903   0.000209   0.067442   0.003097
 314   9  -3.172446   1.661952  -1.394326  -0.000037   0.067442  -0.000555
 315   6  -4.381816   1.003986   0.105860   0.001281   0.505824   0.002532
 316   1  -3.402182   1.670948  -0.258859   0.001266   0.505824   0.002503
 317   8  -1.334836   3.250154   1.345291  -0.000025   0.078606  -0.000315
 318   8  -2.388701   2.580183   1.294363  -0.000305   0.179571  -0.001699
 319   1  -1.720474   3.044519   0.881958   0.000134   0.167854   0.000796
 320   1  -2.824201   2.218192   0.904294   0.000169   0.096035   0.001755
 321   8  -0.523611  -0.175566   3.777168  -0.000118   0.070709  -0.001667
 322   8   0.193483   0.337441   3.777141  -0.000116   0.070709  -0.001635
 323   1   0.064161  -0.239486   3.650507  -0.000272   0.154583  -0.001758
 324   9  -2.754813   2.257365  -1.484794  -0.000012   0.078617  -0.000157
 325   9  -1.763118   3.017697  -1.453883  -0.000328   0.179603  -0.001826
 326   1  -2.423176   2.553225  -1.028483   0.000073   0.167869   0.000438
[...]
 471  17   6.042684   1.723718  -3.823554  -0.001040   0.132207  -0.007868
 472   3   4.971250   2.075486  -3.756588  -0.000356   0.186354  -0.001913
 473   4  -2.047797  -5.886320   1.891212   0.000032   0.027425   0.001164
 474   6  -2.543277  -5.847983   1.870827   0.000061   0.027425   0.002214
 475  14  -1.824142  -5.842007   2.092562   0.000008   0.027425   0.000285
 476   4  -2.041006  -3.156976   3.567263   0.000042   0.027425   0.001523
 477   6  -2.536575  -3.154346   3.524952   0.000085   0.027425   0.003089
 478  14  -1.817960  -3.357402   3.618323   0.000005   0.027425   0.000182
 479   4  -2.044617  -3.154839  -3.720317   0.000027   0.027429   0.000989
 480   6  -2.540144  -3.152234  -3.677517   0.000054   0.027429   0.001979
 481  15  -1.821643  -3.355260  -3.771711   0.000002   0.027429   0.000060
 482   4  -2.049753  -5.885387  -2.045512   0.000045   0.027429   0.001635
 483   6  -2.545213  -5.847062  -2.024621   0.000097   0.027429   0.003528
 484  15  -1.826319  -5.840964  -2.247084   0.000008   0.027429   0.000275
 485   4  -2.491992  -2.471372   3.527646   0.000035   0.026750   0.001313
 486   6  -2.987478  -2.469026   3.570725  -0.000002   0.026750  -0.000077
 487  18  -3.213459  -2.273815   3.624096  -0.000031   0.026750  -0.001176
 488   4  -2.508085  -6.121379  -1.505825   0.000083   0.024395   0.003389
 489   6  -3.003537  -6.159596  -1.525133   0.000030   0.024395   0.001213
 490  19  -3.241765  -6.292526  -1.394835  -0.000007   0.024395  -0.000274
 491   4  -2.506678  -6.123726   1.347970   0.000050   0.024395   0.002038
 492   6  -3.002111  -6.161975   1.367703   0.000024   0.024395   0.000965
 493  19  -3.240467  -6.294691   1.237421  -0.000005   0.024395  -0.000195
 494   4  -2.495538  -2.465626  -3.679522   0.000023   0.026752   0.000854
 495   6  -2.991067  -2.463212  -3.722106  -0.000000   0.026752  -0.000007
 496  20  -3.217085  -2.267901  -3.774940  -0.000038   0.026752  -0.001407
 497   6  -2.873526  -2.756460  -3.749315   0.000140   0.084352   0.001659
 498   4  -2.160774  -2.859441  -3.749384   0.000156   0.084352   0.001854
 499   6  -2.879723  -6.028147  -1.829468   0.000164   0.068813   0.002376
 500   4  -2.166797  -6.068358  -1.756639   0.000194   0.068813   0.002821
 501   6  -2.878114  -6.068668   1.600370   0.000152   0.069531   0.002184
 502   4  -2.165019  -6.031247   1.674004   0.000159   0.069531   0.002285
 503   6  -2.870121  -2.861524   3.597066   0.000179   0.083739   0.002142
 504   4  -2.156927  -2.762394   3.597104   0.000171   0.083739   0.002037
 505   4  -2.035742  -1.418595   3.394617   0.000017   0.166384   0.000100
 506   8  -1.903816  -0.678792   3.430381  -0.000143   0.166384  -0.000861
 507  18  -2.780868  -1.281450   3.432154  -0.000207   0.166384  -0.001246
 508   8  -1.244357  -0.413563   3.661526  -0.000236   0.139445  -0.001696
 509   4  -1.259153  -1.532727   3.600076   0.000315   0.196638   0.001603
 510   4  -2.039612  -1.417347  -3.546857   0.000018   0.166379   0.000107
 511   9  -1.907309  -0.677618  -3.582668  -0.000187   0.166379  -0.001122
 512  20  -2.784685  -1.279690  -3.583353  -0.000164   0.166379  -0.000984
 513   9  -1.105948  -0.433087  -3.831303  -0.000194   0.140184  -0.001386
 514   4  -1.389152  -1.513735  -3.738197   0.000294   0.197679   0.001488
 515  14  -0.567348  -2.751789   3.775909  -0.000095   0.071526  -0.001326
 516  14  -1.300898  -3.259053   3.775593  -0.000080   0.071526  -0.001117
 517   4  -1.157750  -2.681957   3.648959  -0.000227   0.155980  -0.001454
 518  14  -1.314717  -6.026380   2.079164  -0.000069   0.069403  -0.000989
 519  14  -0.352157  -6.217685   1.552441  -0.000228   0.153961  -0.001478
 520  14   0.902852  -5.826863   1.259533  -0.000086   0.153961  -0.000557
 521  14   1.722256  -5.080637   1.370361  -0.000088   0.069403  -0.001268
 522   4  -1.189042  -6.176526   1.512597  -0.000109   0.152284  -0.000715
 523   4   0.206959  -6.159542   0.929811   0.000171   0.152284   0.001121
 524   4   1.481175  -5.344995   0.889392   0.000103   0.152284   0.000678
 525  15  -1.304816  -3.256915  -3.929432  -0.000081   0.071498  -0.001128
 526  15  -0.571546  -2.749845  -3.930251  -0.000096   0.071498  -0.001347
 527   4  -1.161689  -2.679961  -3.802666  -0.000209   0.155932  -0.001338
 528  15   1.720981  -5.079499  -1.528409  -0.000028   0.069409  -0.000400
 529  15   0.901758  -5.825960  -1.416974  -0.000128   0.153976  -0.000833
 530  15  -0.353622  -6.216824  -1.708680  -0.000232   0.153976  -0.001504
 531  15  -1.316850  -6.025332  -2.234292  -0.000075   0.069409  -0.001077
 532   4   1.480468  -5.344134  -1.047279   0.000111   0.152294   0.000731
 533   4   0.206231  -6.158902  -1.086630   0.000154   0.152294   0.001010
 534   4  -1.190513  -6.175748  -1.667920  -0.000094   0.152294  -0.000620
 535  18  -3.289206  -1.928579   3.682994  -0.000231   0.136309  -0.001693
 536   4  -2.170322  -2.047766   3.586250   0.000309   0.192137   0.001609
 537  19  -3.319882  -6.525495  -1.029899  -0.000195   0.191570  -0.001016
 538  19  -3.288374  -6.586086   0.343748  -0.000937   0.390941  -0.002397
 539   4  -2.180483  -6.409719  -0.565967   0.000770   0.525932   0.001463
 540   4  -2.207802  -6.356831   0.997160   0.000600   0.269765   0.002225
 541  20  -3.264144  -1.791075  -3.817156  -0.000246   0.135454  -0.001816
 542   4  -2.200734  -2.165691  -3.753369   0.000328   0.190933   0.001719
 543   5   5.852201   4.210067   3.323254  -0.000520   0.124781  -0.004169
 544   7   6.081460   4.757818   3.286440  -0.000145   0.124781  -0.001164
 545  12   5.112597   4.326473   3.346601  -0.000550   0.124781  -0.004405
 546   5   5.850593   4.200731  -3.481883  -0.000561   0.124828  -0.004494
 547   7   6.079855   4.748606  -3.446885  -0.000104   0.124828  -0.000833
 548  13   5.111127   4.318152  -3.504979  -0.000530   0.124828  -0.004244
 549   5   7.289051   3.614861   3.551299  -0.000247   0.036966  -0.006678
 550   7   7.514971   4.160436   3.513270  -0.000081   0.036966  -0.002197
 551  16   7.420101   3.351720   3.607416  -0.000287   0.036966  -0.007773
 552   5  10.052274   2.475361   1.697018  -0.000272   0.036966  -0.007364
 553   7  10.245541   3.034401   1.680901  -0.000093   0.036966  -0.002512
 554  16   9.934114   2.314989   1.920369  -0.000286   0.036966  -0.007740
 555   5  10.051988   2.469978  -1.851671  -0.000255   0.036967  -0.006909
 556   7  10.245258   3.029065  -1.837283  -0.000072   0.036967  -0.001946
 557  17   9.933792   2.308937  -2.074520  -0.000286   0.036967  -0.007741
 558   5   7.288372   3.603884  -3.708960  -0.000251   0.036967  -0.006786
 559   7   7.514299   4.149571  -3.672624  -0.000092   0.036967  -0.002500
 560  17   7.419419   3.340578  -3.764304  -0.000281   0.036967  -0.007595
 561   7   7.131367   4.696701  -3.714605   0.000286   0.227248   0.001257
 562   5   6.603231   3.998507  -3.659238  -0.000551   0.224307  -0.002455
 563   7   6.924473   4.793030   3.523327   0.000235   0.227008   0.001034
 564   5   6.814140   3.922904   3.531432  -0.000555   0.224070  -0.002476
 565   7  10.649253   3.257248   1.181800   0.000357   0.233712   0.001527
 566   7  10.717159   3.226483  -0.644211   0.000271   0.469626   0.000576
 567   5  10.374434   2.453688   0.484744  -0.001293   0.466322  -0.002772
 568   5  10.305719   2.479137  -1.331031  -0.000534   0.230688  -0.002315
 569   5   7.167125  -0.876338   1.312404  -0.000603   0.084164  -0.007165
 570  10   6.353030  -1.339196   1.570907  -0.000400   0.084164  -0.004750
 571  16   7.261511  -0.789067   1.585529  -0.000710   0.084164  -0.008439
 572  10   6.022338  -1.872271   1.490702  -0.000041   0.058216  -0.000710
 573   5   7.177314  -1.104761   1.121698   0.000024   0.082482   0.000295
 574   5   7.165980  -0.880117  -1.458117  -0.000614   0.084199  -0.007292
 575  11   6.352039  -1.342721  -1.717614  -0.000389   0.084199  -0.004625
 576  17   7.260456  -0.793779  -1.731513  -0.000707   0.084199  -0.008403
 577  11   6.027586  -1.859980  -1.683196  -0.000034   0.055789  -0.000617
 578   5   7.171045  -1.119325  -1.232597  -0.000055   0.079044  -0.000696
 579  12   4.533124   3.651461   3.657240  -0.000761   0.183716  -0.004145
 580   5   5.650529   3.579658   3.545806  -0.000550   0.258963  -0.002123
 581  13   4.570745   3.827149  -3.784021  -0.000803   0.181828  -0.004417
 582   5   5.614389   3.410769  -3.728616  -0.000631   0.256307  -0.002460
 583  16   7.145791   2.860754   3.776405  -0.000446   0.067956  -0.006561
 584  16   6.480215   2.311978   3.782277  -0.000513   0.067956  -0.007543
 585   5   6.567527   2.882672   3.647058  -0.001227   0.148642  -0.008255
 586  16   8.016034  -0.602990   1.530068  -0.000634   0.075795  -0.008366
 587  16   9.060638   0.028114   1.397610  -0.001373   0.173022  -0.007934
 588  16   9.781159   1.269990   1.738085  -0.001473   0.173022  -0.008512
 589   5   8.382648  -0.443418   1.048973  -0.001220   0.161785  -0.007538
 590   5   9.606866   0.670961   1.094388  -0.001142   0.161785  -0.007057
 591   5  10.014663   1.877101   1.556539  -0.000619   0.092600  -0.006683
 592  17   6.479703   2.300508  -3.935884  -0.000462   0.067939  -0.006794
 593  17   7.145138   2.849141  -3.931756  -0.000514   0.067939  -0.007562
 594   5   6.566966   2.871547  -3.802401  -0.001250   0.148613  -0.008412
 595  17   9.883171   1.694987  -2.075081  -0.000508   0.075813  -0.006705
 596  17   9.528513   0.600936  -1.644997  -0.001293   0.173075  -0.007468
 597  17   8.437274  -0.391809  -1.601591  -0.001566   0.173075  -0.009051
 598   5   9.889519   1.411617  -1.517336  -0.001282   0.161815  -0.007924
 599   5   9.080500   0.018799  -1.130968  -0.001116   0.161815  -0.006896
 600   5   7.934655  -0.691619  -1.264423  -0.000632   0.092622  -0.006824
 601   6  -4.337694   0.818281   1.186568   0.000057   0.087259   0.000658
 602   8  -3.511449   1.276016   1.460667   0.000129   0.087259   0.001479
 603  18  -4.430268   0.746979   1.469861  -0.000049   0.087259  -0.000561
 604   8  -3.181722   1.781542   1.442529   0.000023   0.024393   0.000949
 605   6  -4.354627   1.026258   1.040579   0.000155   0.034600   0.004479
 606   6  -4.337219   0.820173  -1.332414   0.000085   0.087285   0.000972
 607   9  -3.511086   1.277746  -1.607767   0.000152   0.087285   0.001742
 608  20  -4.430214   0.749358  -1.615691  -0.000118   0.087285  -0.001353
 609   9  -3.184376   1.776890  -1.609990   0.000046   0.022618   0.002054
 610   6  -4.351842   1.031839  -1.173682   0.000166   0.032082   0.005167
 611  14  -1.763671  -3.838379   3.631632  -0.000176   0.212138  -0.000828
 612  14  -1.806647  -5.173767   2.897873  -0.001079   0.436023  -0.002475
 613   6  -2.893819  -4.213786   3.257840   0.000905   0.579339   0.001563
 614   6  -2.861283  -5.654245   2.294682   0.000707   0.298816   0.002367
 615  15  -1.770781  -5.635225  -2.681943  -0.000183   0.212162  -0.000864
 616  15  -1.808164  -4.376048  -3.540508  -0.001120   0.436077  -0.002567
 617   6  -2.898883  -5.127827  -2.848830   0.000915   0.579400   0.001579
 618   6  -2.859833  -3.616775  -3.697096   0.000675   0.298850   0.002260
 619  18  -5.151636   0.589493   1.419615  -0.000064   0.066472  -0.000967
 620  18  -6.099196   0.102099   1.300603  -0.000121   0.146338  -0.000828
 621  18  -6.894572  -0.894451   1.547172  -0.000207   0.146338  -0.001413
 622  18  -6.995327  -2.028131   2.172592  -0.000239   0.146338  -0.001632
 623  18  -6.362939  -2.865487   2.937739  -0.000117   0.146338  -0.000801
 624  18  -5.239195  -3.086365   3.550065  -0.000201   0.146338  -0.001372
 625  18  -4.053749  -2.606314   3.775454  -0.000302   0.146338  -0.002062
 626   6  -5.467679   0.470831   0.938457   0.000092   0.146919   0.000626
 627   6  -6.638206  -0.400564   0.950281   0.000154   0.146919   0.001050
 628   6  -7.167638  -1.659097   1.465450  -0.000033   0.146919  -0.000223
 629   6  -6.853551  -2.823579   2.286993   0.000096   0.146919   0.000650
 630   6  -5.816033  -3.448781   3.100800   0.000124   0.146919   0.000844
 631   6  -4.451770  -3.295662   3.595719  -0.000026   0.146919  -0.000175
 632   6  -3.439777  -2.686637   3.670634  -0.000004   0.081210  -0.000044
 633  19  -3.743014  -6.373734   1.421160  -0.000100   0.070069  -0.001422
 634  19  -4.673300  -5.996781   1.939550  -0.000320   0.156125  -0.002049
 635  19  -5.934776  -5.485131   1.841839  -0.000167   0.156125  -0.001069
 636  19  -6.870593  -5.105040   0.923999  -0.000272   0.156125  -0.001740
 637  19  -7.080847  -5.018934  -0.421747  -0.000318   0.156125  -0.002037
 638  19  -6.475690  -5.263609  -1.620318  -0.000179   0.156125  -0.001150
 639  19  -5.313724  -5.734507  -2.159525  -0.000219   0.156125  -0.001402
 640  19  -4.091495  -6.230397  -1.808947  -0.000339   0.156125  -0.002169
 641   6  -3.830697  -5.977713   1.865848  -0.000126   0.153064  -0.000822
 642   6  -5.203163  -5.421359   2.261900   0.000017   0.153064   0.000112
 643   6  -6.508925  -4.891433   1.658399   0.000002   0.153064   0.000013
 644   6  -7.189989  -4.614392   0.313242  -0.000012   0.153064  -0.000078
 645   6  -6.955314  -4.708622  -1.198743   0.000018   0.153064   0.000119
 646   6  -5.905184  -5.133858  -2.231434   0.000116   0.153064   0.000760
 647   6  -4.488354  -5.708381  -2.343529  -0.000037   0.153064  -0.000245
 648   6  -3.454469  -6.128018  -1.787166  -0.000008   0.085604  -0.000099
 649  20  -3.716246  -2.361438  -3.931577  -0.000093   0.066482  -0.001395
 650  20  -4.628207  -2.922320  -3.871151  -0.000221   0.146363  -0.001507
 651  20  -5.842006  -3.059059  -3.429583  -0.000141   0.146363  -0.000961
 652  20  -6.764482  -2.503467  -2.703401  -0.000168   0.146363  -0.001147
 653  20  -7.042830  -1.468032  -1.970336  -0.000235   0.146363  -0.001607
 654  20  -6.570594  -0.348763  -1.510753  -0.000132   0.146363  -0.000901
 655  20  -5.528384   0.426270  -1.500423  -0.000213   0.146363  -0.001458
 656   6  -3.814508  -2.927766  -3.808542  -0.000112   0.146935  -0.000763
 657   6  -5.146595  -3.467475  -3.554708   0.000123   0.146935   0.000836
 658   6  -6.408719  -3.220014  -2.864795   0.000211   0.146935   0.001439
 659   6  -7.118173  -2.280026  -2.002663   0.000011   0.146935   0.000073
 660   6  -7.003623  -1.007015  -1.298040  -0.000019   0.146935  -0.000129
 661   6  -6.108879   0.112150  -1.020413   0.000158   0.146935   0.001077
 662   6  -5.067181   0.660423  -1.144159   0.000152   0.081222   0.001874
 663  12   4.565831   4.702283   3.499280  -0.000728   0.258786  -0.002813
 664  12   3.895203   5.719979   2.859217  -0.001744   0.522139  -0.003340
 665  12   3.273529   6.278818   1.765439  -0.000161   0.258786  -0.000623
 666   7   5.669589   5.875091   3.177506   0.002887   0.746505   0.003867
 667   7   4.731138   7.019948   1.918416   0.004420   0.746505   0.005920
 668  13   3.271523   6.278289  -1.921310  -0.000171   0.259352  -0.000659
 669  13   3.893061   5.716787  -3.017988  -0.001727   0.523321  -0.003301
 670  13   4.564194   4.694902  -3.658010  -0.000661   0.259352  -0.002547
 671   7   4.728764   7.018222  -2.078478   0.004249   0.748022   0.005680
 672   7   5.667432   5.868452  -3.339574   0.003135   0.748022   0.004191
 673  16   9.796359   2.318723   2.338817  -0.001312   0.190874  -0.006872
 674  16   8.966018   2.793582   3.218863  -0.003285   0.387543  -0.008475
 675  16   7.800865   3.141626   3.677908  -0.001241   0.190874  -0.006504
 676   7   9.971232   3.605215   2.478755   0.000661   0.539332   0.001225
 677   7   8.530619   4.199296   3.445489   0.000761   0.539332   0.001411
 678  17   7.800185   3.130274  -3.834230  -0.001228   0.190879  -0.006436
 679  17   8.965453   2.783617  -3.374330  -0.003351   0.387553  -0.008646
 680  17   9.795964   2.311410  -2.492966  -0.001299   0.190879  -0.006805
 681   7   8.529986   4.188636  -3.605141   0.000635   0.539344   0.001177
 682   7   9.970804   3.597471  -2.636838   0.000725   0.539344   0.001345
 683  12   0.599080   4.440597   1.902457  -0.000035   0.252454  -0.000138
 684  12   0.913097   4.005098   2.906194  -0.001121   0.504808  -0.002220
 685  12   1.618886   3.028698   3.594289  -0.000998   0.504808  -0.001976
 686   8  -0.536235   3.398687   2.298640  -0.000274   0.504808  -0.000543
 687   8  -0.008931   2.668368   3.353891  -0.000677   0.504808  -0.001342
 688   8   0.627645   1.788152   3.694105  -0.000013   0.252454  -0.000052
 689  18  -3.274572  -0.964207   3.705500  -0.000050   0.252069  -0.000198
 690  18  -3.895683  -0.061907   3.371274  -0.000650   0.504070  -0.001289
 691  18  -4.414246   0.687949   2.314681  -0.000166   0.504070  -0.000329
 692   8  -2.267865   0.246192   3.603091  -0.000470   0.504070  -0.000933
 693   8  -2.958199   1.247658   2.918925  -0.000436   0.504070  -0.000866
 694   8  -3.268816   1.695148   1.911502   0.000221   0.252069   0.000877
 695  13   1.866826   2.684943  -3.849663  -0.000232   0.252449  -0.000918
 696  13   1.230310   3.565228  -3.509443  -0.001140   0.504797  -0.002259
 697  13   0.703176   4.295686  -2.454169  -0.000786   0.504797  -0.001558
 698   9   0.378776   2.131433  -3.746777  -0.000594   0.504797  -0.001178
 699   9  -0.326898   3.107943  -3.058667  -0.000584   0.504797  -0.001157
 700   9  -0.640756   3.543564  -2.054908   0.000153   0.252449   0.000605
 701  20  -4.518448   0.839777  -2.061131   0.000253   0.252259   0.001004
 702  20  -4.209811   0.392751  -3.070330  -0.000579   0.504451  -0.001149
 703  20  -3.520762  -0.609421  -3.756733  -0.000544   0.504451  -0.001079
 704   9  -3.166276   1.548620  -2.458865  -0.000158   0.504451  -0.000314
 705   9  -2.649744   0.798807  -3.517761  -0.000552   0.504451  -0.001094
 706   9  -2.029262  -0.104389  -3.853633   0.000013   0.252259   0.000052
 707  14   2.187443  -4.560272   1.875249   0.000258   0.254024   0.001015
 708  14   1.881883  -4.132570   2.883218  -0.000387   0.507922  -0.000762
 709  14   1.187100  -3.158554   3.581998  -0.000318   0.507922  -0.000625
 710  10   3.343679  -3.522287   2.274989  -0.000259   0.507922  -0.000511
 711  10   2.827322  -2.798921   3.337928  -0.000671   0.507922  -0.001320
 712  10   2.199350  -1.918302   3.687870  -0.000033   0.254024  -0.000131
 713  16   6.068208   0.910335   3.711050  -0.000915   0.244816  -0.003739
 714  16   6.692366   0.041309   3.403092  -0.002565   0.489525  -0.005240
 715  16   7.231850  -0.705019   2.403793  -0.002355   0.489525  -0.004811
 716  10   5.076763  -0.312081   3.615327  -0.001249   0.489525  -0.002551
 717  10   5.777127  -1.285283   2.975786  -0.001285   0.489525  -0.002624
 718  10   6.110638  -1.744437   2.017889  -0.000224   0.244816  -0.000914
 719  15   0.940742  -2.813555  -3.841674   0.000084   0.254065   0.000331
 720  15   1.568434  -3.694495  -3.491894  -0.000440   0.508003  -0.000866
 721  15   2.084483  -4.418266  -2.429017  -0.000052   0.508003  -0.000103
 722  11   2.443770  -2.261483  -3.737273  -0.000555   0.508003  -0.001092
 723  11   3.138215  -3.235915  -3.038640  -0.000626   0.508003  -0.001232
 724  11   3.443550  -3.663919  -2.030680   0.000191   0.254065   0.000754
 725  17   7.344125  -0.865712  -2.169996  -0.000796   0.245231  -0.003246
 726  17   7.012029  -0.407039  -3.131292  -0.002686   0.490359  -0.005478
 727  17   6.311846   0.568107  -3.773735  -0.002483   0.490359  -0.005063
 728  11   5.997736  -1.593613  -2.546274  -0.001088   0.490359  -0.002220
 729  11   5.459365  -0.846799  -3.549431  -0.001349   0.490359  -0.002751
 730  11   4.834925   0.024397  -3.859030  -0.000330   0.245231  -0.001344
 =====================================================

              4059840  WORDS OF DYNAMIC MEMORY USED
 EXECUTION OF GAMESS TERMINATED NORMALLY Tue Nov 22 21:09:50 2016
 DDI: 263640 bytes (0.3 MB / 0 MWords) used by master data server.

 ----------------------------------------
 CPU timing information for all processes
 ========================================
 0: 836.280 + 0.248 = 836.528
 ----------------------------------------
 ddikick.x: exited gracefully.
