----- GAMESS execution script -----

          ******************************************************
          *         GAMESS VERSION =  5 DEC 2014 (R1)          *
          *             FROM IOWA STATE UNIVERSITY             *
          * M.W.SCHMIDT, K.K.BALDRIDGE, J.A.BOATZ, S.T.ELBERT, *
          *   M.S.GORDON, J.H.JENSEN, S.KOSEKI, N.MATSUNAGA,   *
          *          K.A.NGUYEN, S.J.SU, T.L.WINDUS,           *
          *       TOGETHER WITH M.DUPUIS, J.A.MONTGOMERY       *
          *         J.COMPUT.CHEM.  14, 1347-1363(1993)        *
          **************** 64 BIT LINUX VERSION ****************

 EXECUTION OF GAMESS BEGUN Tue Nov 22 21:03:41 2016

            ECHO OF THE FIRST FEW INPUT CARDS -
 INPUT CARD>! SELECT RESTRICTED HARTREE-FOCK AS DEFAULT                                     
 INPUT CARD>$contrl scftyp=rhf $end                                                         
 INPUT CARD>                                                                                
 INPUT CARD>! THEORY: HF OR DFT                                                             
 INPUT CARD> $contrl mplevl=0 $end                                                          
 INPUT CARD>                                                                                
 INPUT CARD> $system timlim=10000 mwords=20 $end                                            
 INPUT CARD> $SCF DIRSCF=.TRUE. $end                                                        
 INPUT CARD>                                                                                
 INPUT CARD>                                                                                
 INPUT CARD>! BASIS SETS                                                                    
 INPUT CARD>! 6-311G(d,p)                                                                   
 INPUT CARD> $BASIS GBASIS=N311 NGAUSS=6 NDFUNC=1 NPFUNC=1 $END                             
 INPUT CARD>                                                                                
 INPUT CARD>! One of the following                                                          
 INPUT CARD> $guess guess=HUCKEL $end                                                       
 INPUT CARD>                                                                                
 INPUT CARD> $statpt projct=.FALSE. $end                                                    
 INPUT CARD> $STATPT IFREEZ(1)=1,2,3 $END                                                   
 INPUT CARD>                                                                                
 INPUT CARD>! Optimize the geometry with COSMO effects                                      
 INPUT CARD> $statpt opttol=0.0005 nstep=50 $end                                            
 INPUT CARD> $contrl nzvar=1 $end                                                           
 INPUT CARD> $zmat dlc=.t. auto=.t. $end                                                    
 INPUT CARD> $contrl runtyp=OPTIMIZE maxit=200 $end                                         
 INPUT CARD>                                                                                
 INPUT CARD>! Run COSMO on perfect conductor                                                
 INPUT CARD> $COSGMS PRFCND=.TRUE. $end                                                     
 INPUT CARD>                                                                                
 INPUT CARD>! Specifying RSOLV                                                              
 INPUT CARD> $COSGMS COSRAD = 1.4 $end                                                      
 INPUT CARD>                                                                                
 INPUT CARD>! available memory                                                              
 INPUT CARD> $SYSTEM MWORDS=40 $END                                                         
 INPUT CARD>                                                                                
 INPUT CARD> $DATA                                                                          
 INPUT CARD>1-Decanol, ID: C112301                                                          
 INPUT CARD>C1                                                                              
 INPUT CARD>C      6.0      3.9344000000    4.0265000000    3.3724000000                    
 INPUT CARD>C      6.0      5.3429000000    3.6460000000    2.9126000000                    
 INPUT CARD>C      6.0      5.3702000000    3.3159000000    1.4192000000                    
 INPUT CARD>C      6.0      3.9111000000    4.3848000000    4.8589000000                    
 INPUT CARD>C      6.0      6.7741000000    2.9169000000    0.9625000000                    
 INPUT CARD>C      6.0      2.4996000000    4.7480000000    5.3214000000                    
 INPUT CARD>C      6.0      6.8055000000    2.6137000000   -0.5342000000                    
 INPUT CARD>C      6.0      2.4795000000    5.1316000000    6.8014000000                    
 INPUT CARD>C      6.0      8.1960000000    2.1998000000   -0.9953000000                    
 INPUT CARD>C      6.0      1.0761000000    5.4807000000    7.2682000000                    
 INPUT CARD>O      8.0      8.1584000000    1.9412000000   -2.3918000000                    
 INPUT CARD>H      1.0      3.2493000000    3.1909000000    3.1842000000                    
   40000000 WORDS OF MEMORY AVAILABLE

     BASIS OPTIONS
     -------------
     GBASIS=N311         IGAUSS=       6      POLAR=POPN311 
     NDFUNC=       1     NFFUNC=       0     DIFFSP=       F
     NPFUNC=       1      DIFFS=       F     BASNAM=        


     RUN TITLE
     ---------
 1-Decanol, ID: C112301                                                          

 THE POINT GROUP OF THE MOLECULE IS C1      
 THE ORDER OF THE PRINCIPAL AXIS IS     0

 ATOM      ATOMIC                      COORDINATES (BOHR)
           CHARGE         X                   Y                   Z
 C           6.0     7.4349379261        7.6089816896        6.3729119210
 C           6.0    10.0966169798        6.8899409512        5.5040159118
 C           6.0    10.1482064993        6.2661424027        2.6818991218
 C           6.0     7.3909073106        8.2860705110        9.1819896017
 C           6.0    12.8011928134        5.5121417336        1.8188612632
 C           6.0     4.7235590789        8.9724189897       10.0559878711
 C           6.0    12.8605302094        4.9391768141       -1.0094916226
 C           6.0     4.6855755866        9.6973178786       12.8527823329
 C           6.0    15.4881941954        4.1570192278       -1.8808442756
 C           6.0     2.0335341354       10.3570212209       13.7349064240
 O           8.0    15.4171404982        3.6683360874       -4.5198466174
 H           1.0     6.1402866519        6.0299266542        6.0172654901
 H           1.0     6.7529358171        9.2203510393        5.2615640676
 H           1.0    10.7621784727        5.2549500267        6.5907973274
 H           1.0    11.4010948291        8.4535002335        5.8915987119
 H           1.0     9.5055106908        7.9119047654        1.5981412678
 H           1.0     8.8252093353        4.7201575721        2.2871353629
 H           1.0     8.6691179687        9.8811882172        9.5298881561
 H           1.0     8.0953971588        6.6854725994       10.2952271811
 H           1.0    14.1326937444        7.0422528658        2.2431047474
 H           1.0    13.4272590332        3.8450254672        2.8788085697
 H           1.0     3.4544191056        7.3650180645        9.7383249325
 H           1.0     4.0041403954       10.5514740250        8.9229081688
 H           1.0    11.5099430460        3.4338210923       -1.4668053117
 H           1.0    12.2450464552        6.5987341765       -2.0898479698
 H           1.0     5.9337396014       11.3202145568       13.1742247234
 H           1.0     5.4136870096        8.1290342814       13.9968224459
 H           1.0    16.8618360158        5.6621859770       -1.5267096255
 H           1.0    16.1057566482        2.4385024146       -0.9097140905
 H           1.0     2.0541321487       10.8831209359       15.7348034368
 H           1.0     1.2691399734       11.9498712560       12.6594633643
 H           1.0     0.7555124499        8.7464077616       13.5077613602
 H           1.0    17.1148703256        3.1770073306       -5.0227027028

          INTERNUCLEAR DISTANCES (ANGS.)




     $CONTRL OPTIONS
     ---------------
 SCFTYP=RHF          RUNTYP=OPTIMIZE     EXETYP=RUN     
 MPLEVL=       0     CITYP =NONE         CCTYP =NONE         VBTYP =NONE    
 DFTTYP=NONE         TDDFT =NONE    
 MULT  =       1     ICHARG=       0     NZVAR =       1     COORD =UNIQUE  
 PP    =NONE         RELWFN=NONE         LOCAL =NONE         NUMGRD=       F
 ISPHER=      -1     NOSYM =       0     MAXIT =     200     UNITS =ANGS    
 PLTORB=       F     MOLPLT=       F     AIMPAC=       F     FRIEND=        
 NPRINT=       7     IREST =       0     GEOM  =INPUT   
 NORMF =       0     NORMP =       0     ITOL  =      20     ICUT  =       9
 INTTYP=BEST         GRDTYP=BEST         QMTTOL= 1.0E-06

     $SYSTEM OPTIONS
     ---------------
  REPLICATED MEMORY=    40000000 WORDS (ON EVERY NODE).
 DISTRIBUTED MEMDDI=           0 MILLION WORDS IN AGGREGATE,
 MEMDDI DISTRIBUTED OVER   1 PROCESSORS IS           0 WORDS/PROCESSOR.
 TOTAL MEMORY REQUESTED ON EACH PROCESSOR=    40000000 WORDS.
 TIMLIM=       10000.00 MINUTES, OR       6.9 DAYS.
 PARALL= F  BALTYP=  DLB     KDIAG=    0  COREFL= F
 MXSEQ2=     300 MXSEQ3=     150  mem10=         0

     $COSGMS OPTIONS
     ---------------
     EPSI  =   INFTY     NSPA  =      92     COSRAD=    1.40
     DISEX =   10.00     OUTCHG=DBLCAV       COSBUG=       F
     COSWRT=       F     DCOSMO=       F

     SYMMETRY COORDINATES WILL NOT BE USED FOR 
     THE COSMO CALCULATION, EVEN IF SPECIFIED:
         -- SWITCHING TO C1 POINT GROUP --


     DEFINITION OF CAVITY
     ---------------------------
     ATOM         COORDINATES           RADIUS 
     1    7.4349    7.6090    6.3729    2.0000
     2   10.0966    6.8899    5.5040    2.0000
     3   10.1482    6.2661    2.6819    2.0000
     4    7.3909    8.2861    9.1820    2.0000
     5   12.8012    5.5121    1.8189    2.0000
     6    4.7236    8.9724   10.0560    2.0000
     7   12.8605    4.9392   -1.0095    2.0000
     8    4.6856    9.6973   12.8528    2.0000
     9   15.4882    4.1570   -1.8808    2.0000
    10    2.0335   10.3570   13.7349    2.0000
    11   15.4171    3.6683   -4.5198    1.7200
    12    6.1403    6.0299    6.0173    1.3000
    13    6.7529    9.2204    5.2616    1.3000
    14   10.7622    5.2550    6.5908    1.3000
    15   11.4011    8.4535    5.8916    1.3000
    16    9.5055    7.9119    1.5981    1.3000
    17    8.8252    4.7202    2.2871    1.3000
    18    8.6691    9.8812    9.5299    1.3000
    19    8.0954    6.6855   10.2952    1.3000
    20   14.1327    7.0423    2.2431    1.3000
    21   13.4273    3.8450    2.8788    1.3000
    22    3.4544    7.3650    9.7383    1.3000
    23    4.0041   10.5515    8.9229    1.3000
    24   11.5099    3.4338   -1.4668    1.3000
    25   12.2450    6.5987   -2.0898    1.3000
    26    5.9337   11.3202   13.1742    1.3000
    27    5.4137    8.1290   13.9968    1.3000
    28   16.8618    5.6622   -1.5267    1.3000
    29   16.1058    2.4385   -0.9097    1.3000
    30    2.0541   10.8831   15.7348    1.3000
    31    1.2691   11.9499   12.6595    1.3000
    32    0.7555    8.7464   13.5078    1.3000
    33   17.1149    3.1770   -5.0227    1.3000

          ----------------
          PROPERTIES INPUT
          ----------------

     MOMENTS            FIELD           POTENTIAL          DENSITY
 IEMOM =       1   IEFLD =       0   IEPOT =       0   IEDEN =       0
 WHERE =COMASS     WHERE =NUCLEI     WHERE =NUCLEI     WHERE =NUCLEI  
 OUTPUT=BOTH       OUTPUT=BOTH       OUTPUT=BOTH       OUTPUT=BOTH    
 IEMINT=       0   IEFINT=       0                     IEDINT=       0
                                                       MORB  =       0
          EXTRAPOLATION IN EFFECT
          SOSCF IN EFFECT
 ORBITAL PRINTING OPTION: NPREO=     1   341     2     1

     -------------------------------
     INTEGRAL TRANSFORMATION OPTIONS
     -------------------------------
     NWORD  =            0
     CUTOFF = 1.0E-09     MPTRAN =       0
     DIRTRF =       T     AOINTS =DUP     

          ----------------------
          INTEGRAL INPUT OPTIONS
          ----------------------
 NOPK  =       1 NORDER=       0 SCHWRZ=       T


 -----------------------------------------------
  STATISTICS ON AUTOMATIC COORDINATE GENERATION 
 -----------------------------------------------
  NUMBER OF USER SPECIFIED BONDS                             0
  NUMBER OF BONDS                                           32
  NUMBER OF ANGLES                                          61
  NUMBER OF TORSIONS                                        84
  NUMBER OF EXTRA COORD.                                     0
  NUMBER OF EXTRA COORD. FOR CONSTRAINTS                     0
  NUMBER OF CONSTRAINED COORD.                               0

  TOTAL NUMBER OF PRIMITIVES                               177
 -----------------------------------------------

   --- ENCODED Z MATRIX ---
 COORD  TYPE   I   J   K   L   M   N
    1      1    1  12
    2      1    1  13
    3      1    1   2
    4      1    1   4
    5      1    2  14
    6      1    2  15
    7      1    2   3
    8      1    3  17
    9      1    3  16
   10      1    3   5
   11      1    4   6
   12      1    4  19
   13      1    4  18
   14      1    5   7
   15      1    5  21
   16      1    5  20
   17      1    6   8
   18      1    6  23
   19      1    6  22
   20      1    7  25
   21      1    7  24
   22      1    7   9
   23      1    8  27
   24      1    8  26
   25      1    8  10
   26      1    9  29
   27      1    9  28
   28      1    9  11
   29      1   10  32
   30      1   10  31
   31      1   10  30
   32      1   11  33
   33      2    1   2  14
   34      2    1   2  15
   35      2    1   4  19
   36      2    1   4  18
   37      2    1   2   3
   38      2    1   4   6
   39      2    2   1  12
   40      2    2   3  16
   41      2    2   3  17
   42      2    2   3   5
   43      2    2   1   4
   44      2    2   1  13
   45      2    3   2  15
   46      2    3   5  20
   47      2    3   5  21
   48      2    3   5   7
   49      2    3   2  14
   50      2    4   6  22
   51      2    4   1  12
   52      2    4   6   8
   53      2    4   6  23
   54      2    4   1  13
   55      2    5   3  17
   56      2    5   3  16
   57      2    5   7   9
   58      2    5   7  24
   59      2    5   7  25
   60      2    6   4  18
   61      2    6   4  19
   62      2    6   8  10
   63      2    6   8  26
   64      2    6   8  27
   65      2    7   5  21
   66      2    7   9  11
   67      2    7   9  28
   68      2    7   9  29
   69      2    7   5  20
   70      2    8  10  30
   71      2    8  10  31
   72      2    8  10  32
   73      2    8   6  22
   74      2    8   6  23
   75      2    9  11  33
   76      2    9   7  24
   77      2    9   7  25
   78      2   10   8  26
   79      2   10   8  27
   80      2   11   9  28
   81      2   11   9  29
   82      2   12   1  13
   83      2   14   2  15
   84      2   16   3  17
   85      2   18   4  19
   86      2   20   5  21
   87      2   22   6  23
   88      2   24   7  25
   89      2   26   8  27
   90      2   28   9  29
   91      2   30  10  31
   92      2   30  10  32
   93      2   31  10  32
   94      3    1   4   6  22
   95      3    1   4   6  23
   96      3    1   4   6   8
   97      3    1   2   3   5
   98      3    1   2   3  16
   99      3    1   2   3  17
  100      3    2   3   5  21
  101      3    2   1   4  18
  102      3    2   1   4  19
  103      3    2   1   4   6
  104      3    2   3   5  20
  105      3    2   3   5   7
  106      3    3   5   7   9
  107      3    3   5   7  24
  108      3    3   5   7  25
  109      3    3   2   1   4
  110      3    3   2   1  13
  111      3    3   2   1  12
  112      3    4   1   2  14
  113      3    4   1   2  15
  114      3    4   6   8  10
  115      3    4   6   8  26
  116      3    4   6   8  27
  117      3    5   7   9  11
  118      3    5   7   9  28
  119      3    5   7   9  29
  120      3    5   3   2  15
  121      3    5   3   2  14
  122      3    6   8  10  30
  123      3    6   8  10  31
  124      3    6   8  10  32
  125      3    6   4   1  13
  126      3    6   4   1  12
  127      3    7   9  11  33
  128      3    7   5   3  16
  129      3    7   5   3  17
  130      3    8   6   4  18
  131      3    8   6   4  19
  132      3    9   7   5  20
  133      3    9   7   5  21
  134      3   10   8   6  22
  135      3   10   8   6  23
  136      3   11   9   7  24
  137      3   11   9   7  25
  138      3   12   1   4  19
  139      3   12   1   4  18
  140      3   12   1   2  15
  141      3   12   1   2  14
  142      3   13   1   4  18
  143      3   13   1   2  15
  144      3   13   1   2  14
  145      3   13   1   4  19
  146      3   14   2   3  16
  147      3   14   2   3  17
  148      3   15   2   3  16
  149      3   15   2   3  17
  150      3   16   3   5  21
  151      3   16   3   5  20
  152      3   17   3   5  21
  153      3   17   3   5  20
  154      3   18   4   6  23
  155      3   18   4   6  22
  156      3   19   4   6  23
  157      3   19   4   6  22
  158      3   20   5   7  25
  159      3   20   5   7  24
  160      3   21   5   7  25
  161      3   21   5   7  24
  162      3   22   6   8  27
  163      3   22   6   8  26
  164      3   23   6   8  27
  165      3   23   6   8  26
  166      3   24   7   9  29
  167      3   24   7   9  28
  168      3   25   7   9  29
  169      3   25   7   9  28
  170      3   26   8  10  32
  171      3   26   8  10  31
  172      3   26   8  10  30
  173      3   27   8  10  32
  174      3   27   8  10  31
  175      3   27   8  10  30
  176      3   28   9  11  33
  177      3   29   9  11  33

          INDEP./SYM. INTERNAL COORDINATES
          --------------------------------
 CRD  1=  -0.1166 ( 33) -0.1173 ( 34)  0.3892 ( 37)  0.3160 ( 38)  0.1127 ( 39)
           0.1065 ( 40)  0.1077 ( 41) -0.3519 ( 42) -0.3754 ( 43)  0.1140 ( 44)
          -0.1166 ( 45)  0.2707 ( 48) -0.1168 ( 49)  0.1120 ( 51) -0.2180 ( 52)
           0.1122 ( 54)  0.1045 ( 55)  0.1035 ( 56) -0.1685 ( 57)  0.1147 ( 62)
 CRD  2=   0.1025 ( 39) -0.1141 ( 56) -0.1123 ( 60)  0.1069 ( 94)  0.1986 ( 96)
          -0.3084 ( 97) -0.1491 ( 98) -0.1414 ( 99)  0.1208 (100) -0.1454 (101)
          -0.1348 (102) -0.2883 (103)  0.1090 (104)  0.2364 (105) -0.1870 (106)
          -0.1077 (108)  0.2914 (109)  0.1269 (110)  0.1308 (111)  0.1238 (112)
           0.1239 (113) -0.1439 (114) -0.1302 (120) -0.1334 (121) -0.1157 (125)
          -0.1225 (126)
 CRD  3=  -0.1185 ( 35)  0.3534 ( 38)  0.2865 ( 42) -0.1420 ( 43)  0.1174 ( 46)
          -0.3273 ( 48) -0.3190 ( 52)  0.1152 ( 53) -0.1143 ( 55)  0.3238 ( 57)
          -0.1093 ( 58) -0.1310 ( 61)  0.2540 ( 62) -0.1420 ( 66)  0.1131 ( 69)
           0.1045 ( 74) -0.1101 ( 76)
 CRD  4=  -0.3076 (  3) -0.3043 (  4) -0.3160 (  7) -0.2709 ( 10) -0.2607 ( 11)
          -0.2128 ( 14) -0.1877 ( 17) -0.1503 ( 22) -0.1246 ( 25) -0.2325 ( 37)
          -0.1332 ( 38) -0.1547 ( 42) -0.2632 ( 43) -0.2430 ( 48) -0.2137 ( 52)
          -0.1074 ( 62)
 CRD  5=   0.1130 ( 33)  0.1105 ( 34) -0.3347 ( 37)  0.2462 ( 43)  0.1732 ( 48)
          -0.2990 ( 52) -0.3894 ( 57)  0.1174 ( 58)  0.1253 ( 59)  0.3657 ( 62)
          -0.1231 ( 63) -0.1238 ( 64)  0.2209 ( 66)  0.1030 ( 73)  0.1008 ( 74)
           0.1198 ( 76)  0.1246 ( 77) -0.1051 ( 78)
 CRD  6=   0.1254 ( 33) -0.1308 ( 34) -0.1284 ( 35)  0.1299 ( 36)  0.1357 ( 39)
           0.1405 ( 40) -0.1367 ( 41) -0.1296 ( 44)  0.1439 ( 45) -0.1485 ( 49)
           0.1041 ( 50) -0.1426 ( 51) -0.1073 ( 53)  0.1467 ( 54)  0.1110 ( 55)
          -0.1091 ( 56) -0.1148 ( 60)  0.1174 ( 61)  0.1031 ( 69) -0.1232 ( 94)
          -0.1230 ( 95) -0.1655 ( 96) -0.1581 ( 97) -0.1126 ( 98) -0.1137 ( 99)
          -0.1364 (100) -0.1179 (101) -0.1181 (102) -0.1769 (103) -0.1366 (104)
          -0.1990 (105) -0.2364 (109) -0.1447 (110) -0.1432 (111) -0.1394 (112)
          -0.1384 (113) -0.1313 (114) -0.1016 (116) -0.1076 (125) -0.1080 (126)
 CRD  7=  -0.1127 ( 47)  0.1111 ( 67) -0.1029 ( 68) -0.1140 ( 71)  0.1289 ( 94)
           0.1240 ( 95)  0.2686 ( 96)  0.1456 ( 97) -0.2064 (103) -0.2225 (105)
           0.3015 (106)  0.1541 (107)  0.1526 (108) -0.2561 (114) -0.1382 (115)
          -0.1408 (116) -0.1883 (117)  0.1138 (120)  0.1100 (121)  0.1164 (122)
          -0.1295 (125) -0.1266 (126)  0.1502 (127) -0.1157 (128) -0.1159 (129)
           0.1198 (130)  0.1204 (131)  0.1329 (132)  0.1347 (133) -0.1011 (134)
          -0.1001 (135)
 CRD  8=  -0.1508 (  4)  0.1460 (  7)  0.2394 ( 10) -0.2520 ( 11)  0.2712 ( 14)
          -0.2552 ( 17)  0.2069 ( 22) -0.2170 ( 25) -0.1185 ( 40) -0.1092 ( 41)
           0.2637 ( 42)  0.2667 ( 48) -0.2811 ( 52)  0.1087 ( 53) -0.2923 ( 62)
           0.1713 ( 66)  0.1211 ( 78)  0.1060 ( 79)
 CRD  9=  -0.1026 (  4)  0.1142 ( 22)  0.1206 ( 35)  0.1209 ( 36) -0.3269 ( 38)
          -0.3019 ( 42)  0.2033 ( 43)  0.1853 ( 48) -0.2061 ( 52)  0.1133 ( 55)
           0.1140 ( 56)  0.3366 ( 57)  0.3133 ( 62) -0.1172 ( 63) -0.1174 ( 64)
          -0.2287 ( 66) -0.1008 ( 70)  0.1247 ( 75) -0.1214 ( 76) -0.1265 ( 77)
 CRD 10=   0.1701 (  4) -0.1466 ( 25)  0.1032 ( 33)  0.1048 ( 34) -0.1683 ( 37)
           0.3391 ( 38) -0.1375 ( 39) -0.2139 ( 42)  0.3163 ( 43) -0.1389 ( 44)
           0.1131 ( 48)  0.1101 ( 50) -0.1633 ( 52)  0.1113 ( 53) -0.1503 ( 60)
          -0.1490 ( 61) -0.3231 ( 62) -0.3051 ( 66)  0.1025 ( 78)  0.1018 ( 79)
           0.1131 ( 80)  0.1130 ( 81)
 CRD 11=   0.2249 (  3)  0.1786 (  7) -0.1140 ( 11) -0.1627 ( 14) -0.1808 ( 17)
          -0.1767 ( 22) -0.1330 ( 25) -0.1131 ( 33) -0.1108 ( 34)  0.1178 ( 35)
           0.1181 ( 36)  0.4157 ( 37) -0.1873 ( 38)  0.2386 ( 43) -0.1475 ( 45)
           0.1255 ( 46)  0.1256 ( 47) -0.2799 ( 48) -0.1478 ( 49) -0.1337 ( 51)
          -0.2452 ( 52) -0.1314 ( 54) -0.1758 ( 57)
 CRD 12=   0.1235 ( 35) -0.1207 ( 36)  0.1209 ( 40) -0.1182 ( 41) -0.1246 ( 46)
           0.1266 ( 47) -0.1394 ( 50)  0.1384 ( 53)  0.1223 ( 55) -0.1210 ( 56)
          -0.1457 ( 58)  0.1451 ( 59)  0.1128 ( 60) -0.1120 ( 61) -0.1254 ( 63)
           0.1241 ( 64) -0.1564 ( 65)  0.1596 ( 69)  0.1199 ( 71) -0.1209 ( 72)
           0.1486 ( 73) -0.1485 ( 74)  0.1166 ( 78) -0.1171 ( 79)  0.1157 ( 94)
           0.1161 ( 95)  0.2090 ( 96) -0.1073 ( 97) -0.1061 (100) -0.1063 (104)
          -0.2203 (105) -0.1137 (106)  0.1789 (114)  0.1161 (115)  0.1164 (116)
          -0.1531 (117) -0.1373 (118) -0.1373 (119)  0.1077 (123)  0.1075 (124)
          -0.1519 (128) -0.1521 (129)  0.1314 (130)  0.1310 (131)  0.1044 (134)
           0.1046 (135)
 CRD 13=  -0.1265 (  7) -0.1166 ( 10)  0.2774 ( 22)  0.1419 ( 32) -0.2665 ( 42)
           0.1629 ( 43) -0.2229 ( 48)  0.2195 ( 57) -0.1410 ( 58) -0.1417 ( 59)
           0.1325 ( 65)  0.5344 ( 66)  0.1301 ( 69) -0.1315 ( 75) -0.2264 ( 80)
          -0.2261 ( 81)  0.1011 (159) -0.1005 (160)
 CRD 14=  -0.1806 ( 67)  0.1794 ( 68) -0.2453 ( 71)  0.2454 ( 72)  0.1091 ( 76)
          -0.1065 ( 77)  0.1532 ( 96)  0.1797 ( 97)  0.1436 ( 98)  0.1439 ( 99)
           0.1240 (101)  0.1256 (102)  0.1322 (103) -0.2375 (106) -0.1557 (109)
          -0.2375 (114)  0.1845 (117)  0.1695 (122) -0.2188 (127)  0.1063 (130)
           0.1072 (131) -0.1599 (132) -0.1593 (133) -0.1407 (134) -0.1424 (135)
 CRD 15=   0.1169 ( 33) -0.1188 ( 34)  0.1337 ( 39) -0.1329 ( 44)  0.1495 ( 45)
          -0.1473 ( 49) -0.1309 ( 51)  0.1338 ( 54)  0.1874 ( 58) -0.1889 ( 59)
          -0.1799 ( 63)  0.1813 ( 64)  0.1287 ( 65) -0.1286 ( 69)  0.1207 ( 71)
          -0.1241 ( 72)  0.1411 ( 73) -0.1426 ( 74) -0.1241 ( 76)  0.1231 ( 77)
           0.1418 ( 78) -0.1434 ( 79)  0.1341 ( 96) -0.1052 (103) -0.2153 (109)
          -0.1386 (110) -0.1390 (111) -0.1086 (112) -0.1076 (113)  0.2198 (117)
           0.1700 (118)  0.1708 (119)  0.1171 (122)  0.1512 (123)  0.1509 (124)
           0.1144 (128)  0.1126 (129)  0.1468 (130)  0.1464 (131)
 CRD 16=  -0.1146 (  3)  0.1342 (  4)  0.1032 (  7) -0.1803 ( 10)  0.1125 ( 14)
          -0.1945 ( 25)  0.4551 ( 28)  0.1829 ( 32) -0.1070 ( 57) -0.1413 ( 67)
          -0.1417 ( 68) -0.1074 ( 70)  0.6095 ( 75)  0.1044 ( 80)  0.1041 ( 81)
 CRD 17=   0.1414 (  3) -0.1910 (  4) -0.1029 (  7)  0.1093 ( 11) -0.1412 ( 17)
           0.5109 ( 25)  0.2244 ( 28) -0.1084 ( 52) -0.1008 ( 62)  0.3377 ( 70)
           0.3118 ( 75)  0.1643 ( 78)  0.1619 ( 79) -0.1863 ( 91) -0.1847 ( 92)
 CRD 18=   0.2610 (  3) -0.1867 (  4) -0.2614 (  7)  0.2032 ( 10)  0.2406 ( 11)
          -0.1985 ( 14) -0.2279 ( 17)  0.1530 ( 22) -0.2801 ( 25)  0.1187 ( 52)
          -0.3659 ( 70) -0.1088 ( 73) -0.1127 ( 74)  0.1435 ( 75)  0.1430 ( 91)
           0.1413 ( 92)
 CRD 19=  -0.1124 ( 55)  0.1123 ( 56) -0.1298 ( 60)  0.1338 ( 61) -0.2012 ( 67)
           0.2089 ( 68)  0.3747 ( 71) -0.3922 ( 72)  0.1318 ( 76) -0.1208 ( 77)
          -0.1410 ( 91)  0.1435 ( 92)  0.2072 ( 97) -0.1716 (103)  0.1316 (120)
           0.1321 (121) -0.1076 (122) -0.1524 (125) -0.1505 (126) -0.1921 (127)
          -0.1270 (132) -0.1243 (133)
 CRD 20=  -0.1729 (  7)  0.2650 ( 10) -0.2490 ( 11) -0.3295 ( 14)  0.4010 ( 17)
           0.2453 ( 22)  0.2377 ( 70) -0.1647 ( 71) -0.1322 ( 72)  0.1280 ( 73)
           0.1221 ( 74)  0.1044 ( 77)  0.1351 ( 93)
 CRD 21=   0.3009 (  3) -0.2889 (  4) -0.1874 (  7)  0.3060 ( 14)  0.2885 ( 17)
          -0.2995 ( 22) -0.1530 ( 25) -0.1025 ( 67)  0.1902 ( 70) -0.1690 ( 71)
          -0.1601 ( 72) -0.1023 ( 76) -0.1026 ( 77)  0.1553 ( 93)
 CRD 22=   0.1423 ( 35) -0.1582 ( 36) -0.1022 ( 39)  0.1825 ( 40) -0.1651 ( 41)
           0.1097 ( 44)  0.1049 ( 45)  0.1521 ( 51) -0.1618 ( 54)  0.1170 ( 55)
          -0.1357 ( 56)  0.1764 ( 58) -0.1869 ( 59)  0.2083 ( 63) -0.2046 ( 64)
           0.1356 ( 71) -0.1621 ( 72) -0.1426 ( 76)  0.1588 ( 77) -0.1529 ( 78)
           0.1463 ( 79)  0.1366 ( 94)  0.1380 ( 95) -0.1472 (100) -0.1501 (104)
          -0.1290 (105)  0.1254 (112)  0.1350 (113)  0.1921 (117)  0.1385 (118)
           0.1411 (119) -0.1693 (122) -0.1622 (123) -0.1643 (124)
 CRD 23=  -0.3085 (  4)  0.3382 (  7) -0.2621 ( 10)  0.3027 ( 11) -0.1410 ( 14)
           0.1029 ( 17)  0.2900 ( 22) -0.1373 ( 25) -0.1013 ( 35)  0.1094 ( 41)
          -0.1067 ( 55)  0.1052 ( 61)  0.1162 ( 67)  0.1124 ( 68)  0.1658 ( 70)
          -0.1727 ( 71) -0.1223 ( 72) -0.1012 ( 90)  0.1384 ( 93)
 CRD 24=  -0.3953 (  3)  0.3782 ( 10)  0.3515 ( 11) -0.2489 ( 22) -0.1045 ( 25)
           0.1018 ( 66) -0.1316 ( 68)  0.1597 ( 70) -0.1143 ( 71) -0.1472 ( 72)
           0.1215 ( 93) -0.1002 (139)  0.1015 (145) -0.1053 (146)  0.1053 (149)
 CRD 25=   0.1470 ( 33) -0.1563 ( 34)  0.1020 ( 35) -0.1014 ( 36)  0.1197 ( 39)
          -0.1289 ( 44)  0.1105 ( 45)  0.1833 ( 46) -0.1737 ( 47) -0.1073 ( 49)
          -0.1573 ( 50)  0.1636 ( 53) -0.1149 ( 55)  0.1235 ( 56)  0.1231 ( 60)
          -0.1176 ( 61)  0.1758 ( 63) -0.1783 ( 64)  0.1054 ( 65) -0.2308 ( 67)
           0.2161 ( 68) -0.1099 ( 69) -0.1232 ( 71)  0.1138 ( 72)  0.1205 ( 76)
          -0.1273 ( 77) -0.1509 ( 78)  0.1498 ( 79)  0.1051 ( 80) -0.1038 ( 81)
          -0.1208 ( 98) -0.1155 ( 99) -0.1335 (101) -0.1298 (102)  0.1544 (107)
           0.1579 (108)  0.1544 (115)  0.1538 (116)  0.1187 (120)  0.1129 (121)
          -0.1052 (122) -0.1251 (123) -0.1258 (124) -0.1488 (127)
 CRD 26=  -0.3283 (  4)  0.3569 (  7)  0.1154 (  8)  0.1300 (  9)  0.1678 ( 10)
          -0.2088 ( 11) -0.1236 ( 12) -0.1317 ( 13) -0.2299 ( 14)  0.1589 ( 17)
          -0.1174 ( 20) -0.1088 ( 21) -0.2065 ( 22)  0.1370 ( 38) -0.1303 ( 42)
           0.1214 ( 57)  0.1196 ( 66) -0.1022 ( 67) -0.1088 ( 68) -0.1824 ( 70)
           0.1250 ( 71)  0.1420 ( 72) -0.1249 ( 93)
 CRD 27=   0.1868 ( 35) -0.1964 ( 36)  0.1420 ( 40) -0.1315 ( 41)  0.1930 ( 46)
          -0.1909 ( 47)  0.1899 ( 50) -0.1984 ( 53)  0.1416 ( 55) -0.1423 ( 56)
          -0.1245 ( 58)  0.1178 ( 59)  0.1834 ( 60) -0.1884 ( 61)  0.2133 ( 65)
          -0.2187 ( 69) -0.1827 ( 73)  0.1878 ( 74)  0.1347 ( 76) -0.1348 ( 77)
           0.1164 ( 94)  0.1205 ( 95) -0.1278 (115) -0.1286 (116)  0.1092 (125)
           0.1128 (126)  0.1518 (128)  0.1464 (129) -0.1015 (130)
 CRD 28=   0.1261 (  1) -0.1297 (  2) -0.1342 ( 15)  0.1397 ( 16)  0.1298 ( 18)
          -0.1264 ( 19)  0.1238 ( 26) -0.1252 ( 27)  0.1205 ( 29) -0.1217 ( 30)
          -0.1216 ( 33)  0.1136 ( 34)  0.1623 ( 40) -0.1658 ( 41) -0.1424 ( 45)
           0.1402 ( 49)  0.1345 ( 55) -0.1281 ( 56) -0.1044 ( 63)  0.1008 ( 64)
          -0.2023 ( 67)  0.1989 ( 68) -0.2314 ( 71)  0.2238 ( 72)  0.1381 ( 78)
          -0.1398 ( 79)  0.1217 ( 91) -0.1213 ( 92) -0.1097 ( 96) -0.1352 (100)
          -0.1366 (104) -0.1511 (105)  0.1512 (109)  0.1167 (110)  0.1133 (111)
           0.1362 (114)  0.1036 (117) -0.1642 (127)  0.1212 (134)  0.1177 (135)
 CRD 29=  -0.2190 ( 33)  0.2214 ( 34)  0.2491 ( 39) -0.2504 ( 44) -0.2410 ( 45)
          -0.1055 ( 46)  0.1056 ( 47)  0.2335 ( 49) -0.1126 ( 50) -0.2677 ( 51)
           0.1113 ( 53)  0.2739 ( 54)  0.1040 ( 60) -0.1071 ( 61)  0.1174 ( 63)
          -0.1205 ( 64) -0.1203 ( 78)  0.1204 ( 79)  0.1231 ( 98)  0.1249 ( 99)
          -0.1362 (101) -0.1383 (102)  0.1494 (110)  0.1455 (111) -0.1722 (112)
          -0.1766 (113)
 CRD 30=   0.1152 ( 33) -0.1087 ( 34)  0.2038 ( 35) -0.2020 ( 36)  0.1137 ( 39)
          -0.1977 ( 40)  0.1975 ( 41) -0.1073 ( 44) -0.1648 ( 46)  0.1631 ( 47)
           0.1692 ( 50) -0.1697 ( 53) -0.1931 ( 55)  0.1938 ( 56)  0.1916 ( 60)
          -0.1901 ( 61) -0.1916 ( 65)  0.1903 ( 69) -0.1980 ( 73)  0.1971 ( 74)
           0.1030 ( 78) -0.1053 ( 79)  0.1232 ( 94)  0.1230 ( 95)  0.1139 (100)
           0.1139 (104)  0.1130 (120)  0.1160 (121)  0.1047 (125)  0.1075 (126)
          -0.1340 (128) -0.1334 (129) -0.1373 (130) -0.1375 (131)
 CRD 31=  -0.1412 (  1) -0.1368 (  2) -0.2931 (  3) -0.2236 (  4) -0.1196 (  5)
          -0.1146 (  6) -0.1433 (  7)  0.1185 ( 10)  0.2824 ( 14)  0.1072 ( 15)
           0.1072 ( 16)  0.2372 ( 17)  0.1322 ( 20)  0.1314 ( 21)  0.1622 ( 22)
           0.1100 ( 23)  0.1095 ( 24)  0.1555 ( 37)  0.1834 ( 43) -0.1333 ( 48)
          -0.1748 ( 57) -0.1488 ( 62) -0.1166 ( 66) -0.1959 ( 70)  0.1371 ( 71)
           0.1367 ( 72)  0.1100 ( 82) -0.1031 ( 88) -0.1320 ( 93)
 CRD 32=  -0.1573 (  7) -0.1465 (  8) -0.2262 ( 10)  0.2014 ( 11)  0.1012 ( 12)
          -0.2207 ( 14) -0.1353 ( 15) -0.1412 ( 16)  0.2345 ( 17)  0.1589 ( 18)
           0.1100 ( 19) -0.1497 ( 20) -0.1019 ( 22)  0.1373 ( 24) -0.1231 ( 38)
           0.1687 ( 42)  0.1919 ( 48) -0.1756 ( 52)  0.1533 ( 57) -0.1186 ( 58)
          -0.1658 ( 62) -0.1641 ( 68) -0.1620 ( 70)  0.1510 ( 72) -0.1020 ( 77)
          -0.1286 ( 80)  0.1026 ( 81)  0.1097 ( 86) -0.1041 ( 87) -0.1112 ( 93)
           0.1020 (136)
 CRD 33=  -0.1193 (  9)  0.1181 ( 19) -0.1512 ( 21)  0.1042 ( 23) -0.1489 ( 59)
          -0.3172 ( 67)  0.2764 ( 68)  0.1499 ( 71) -0.1678 ( 76)  0.1338 ( 77)
           0.3151 ( 80) -0.3244 ( 81) -0.1663 (117)  0.1187 (132)  0.1027 (133)
          -0.2051 (136) -0.2244 (137)  0.1884 (176)  0.1694 (177)
 CRD 34=   0.1454 (  1)  0.1451 (  2)  0.2123 (  3)  0.2124 (  4)  0.1402 (  5)
           0.1408 (  6)  0.1980 (  7)  0.1250 (  8)  0.1264 (  9)  0.1707 ( 10)
           0.2034 ( 11)  0.1408 ( 12)  0.1406 ( 13)  0.1279 ( 14)  0.1023 ( 15)
           0.1012 ( 16)  0.1675 ( 17)  0.1263 ( 18)  0.1264 ( 19) -0.2021 ( 37)
          -0.2014 ( 38) -0.1804 ( 42) -0.2095 ( 43) -0.1435 ( 48) -0.1723 ( 52)
          -0.1261 ( 62) -0.1056 ( 70) -0.1156 ( 82) -0.1118 ( 83) -0.1117 ( 85)
 CRD 35=   0.1999 (  5) -0.1978 (  6) -0.1979 ( 12)  0.1957 ( 13) -0.1979 ( 15)
           0.1974 ( 16)  0.1908 ( 23) -0.1883 ( 24)  0.1977 ( 26) -0.1982 ( 27)
           0.1212 ( 71) -0.1211 ( 72) -0.1084 ( 80)  0.1084 ( 81) -0.1138 ( 94)
          -0.1125 ( 95) -0.1181 ( 97) -0.1179 ( 98) -0.1171 ( 99)  0.1216 (103)
           0.1095 (106)  0.1201 (107)  0.1207 (108)  0.1133 (110)  0.1147 (111)
          -0.1294 (114)  0.1163 (117)  0.1085 (122)  0.1165 (125)  0.1158 (126)
          -0.1724 (127) -0.1192 (128) -0.1207 (129) -0.1215 (134) -0.1221 (135)
           0.1732 (136)  0.1728 (137)
 CRD 36=  -0.2068 (  1)  0.2094 (  2)  0.2426 (  8) -0.2417 (  9)  0.1844 ( 12)
          -0.1875 ( 13) -0.1035 ( 15)  0.1570 ( 20) -0.1592 ( 21) -0.2309 ( 23)
           0.2307 ( 24)  0.1997 ( 26) -0.1994 ( 27)  0.1123 (100)  0.1114 (104)
          -0.1024 (112) -0.1016 (113) -0.1134 (120) -0.1127 (121) -0.1073 (122)
          -0.1237 (127)  0.1113 (134)  0.1118 (135)  0.1145 (136)  0.1142 (137)
 CRD 37=  -0.1924 (  1)  0.1891 (  2)  0.2612 (  5) -0.2601 (  6) -0.1297 (  8)
           0.1333 (  9) -0.2209 ( 18)  0.2196 ( 19) -0.2276 ( 20)  0.2278 ( 21)
          -0.2257 ( 23)  0.2268 ( 24) -0.1701 ( 26)  0.1693 ( 27) -0.1039 ( 98)
          -0.1033 ( 99) -0.1004 (132) -0.1000 (133)
 CRD 38=   0.1761 ( 25)  0.5068 ( 29)  0.5071 ( 30)  0.4816 ( 31) -0.1908 ( 70)
          -0.1753 ( 71) -0.1753 ( 72)  0.1919 ( 91)  0.1917 ( 92)  0.1827 ( 93)
 CRD 39=  -0.1318 (  1)  0.1339 (  2)  0.1474 (  8) -0.1450 (  9)  0.2353 ( 12)
          -0.2338 ( 13) -0.2388 ( 15)  0.2391 ( 16)  0.2640 ( 18) -0.2651 ( 19)
          -0.2390 ( 20)  0.2379 ( 21)  0.1919 ( 23) -0.1934 ( 24) -0.1417 ( 26)
           0.1407 ( 27)
 CRD 40=  -0.2465 (  1)  0.2456 (  2)  0.2555 (  5) -0.2550 (  6) -0.2545 (  8)
           0.2543 (  9)  0.2265 ( 12) -0.2267 ( 13)  0.2423 ( 15) -0.2411 ( 16)
           0.1942 ( 18) -0.1954 ( 19)  0.1993 ( 20) -0.1981 ( 21)  0.1308 ( 23)
          -0.1319 ( 24)  0.1138 ( 26) -0.1128 ( 27)
 CRD 41=   0.1049 ( 15) -0.1051 ( 16)  0.1189 ( 20) -0.1186 ( 21) -0.1096 ( 33)
           0.1096 ( 34)  0.1028 ( 35) -0.1028 ( 36) -0.1147 ( 39)  0.1148 ( 44)
          -0.1178 ( 45)  0.1180 ( 49)  0.1173 ( 51) -0.1173 ( 54) -0.1118 ( 55)
           0.1121 ( 56)  0.1162 ( 60) -0.1160 ( 61)  0.1061 ( 73) -0.1059 ( 74)
          -0.1409 (138) -0.1412 (139) -0.1437 (140) -0.1439 (141) -0.1414 (142)
          -0.1436 (143) -0.1438 (144) -0.1411 (145) -0.1355 (146) -0.1352 (147)
          -0.1357 (148) -0.1354 (149) -0.1169 (150) -0.1167 (151) -0.1170 (152)
          -0.1168 (153) -0.1275 (154) -0.1277 (155) -0.1276 (156) -0.1278 (157)
          -0.1042 (162) -0.1043 (163) -0.1043 (164) -0.1044 (165)
 CRD 42=  -0.6162 ( 26) -0.6178 ( 27)  0.1403 ( 67)  0.1402 ( 68)  0.1795 ( 75)
          -0.2608 ( 90) -0.1611 (176)  0.1610 (177)
 CRD 43=   0.1498 (  1) -0.1492 (  2) -0.1468 (  5)  0.1462 (  6)  0.1015 ( 26)
           0.1053 ( 46) -0.1051 ( 47)  0.1059 ( 50) -0.1063 ( 53)  0.1046 ( 65)
          -0.1044 ( 69) -0.1027 ( 73)  0.1026 ( 74) -0.1011 ( 76)  0.1011 ( 77)
          -0.1075 ( 78)  0.1075 ( 79) -0.1437 (150) -0.1434 (151) -0.1439 (152)
          -0.1436 (153)  0.1399 (154)  0.1401 (155)  0.1400 (156)  0.1402 (157)
          -0.1456 (158) -0.1454 (159) -0.1453 (160) -0.1451 (161)  0.1487 (162)
           0.1487 (163)  0.1491 (164)  0.1491 (165)
 CRD 44=   0.1844 ( 23)  0.1844 ( 24)  0.2863 ( 29)  0.2929 ( 30) -0.6336 ( 31)
          -0.1561 ( 91) -0.1597 ( 92)  0.3271 ( 93) -0.1684 (123)  0.1700 (124)
           0.1519 (170) -0.1865 (171)  0.1883 (173) -0.1501 (174)
 CRD 45=   0.5455 ( 29) -0.5414 ( 30) -0.2944 ( 91)  0.2924 ( 92)  0.2343 (122)
           0.2306 (172)  0.2306 (175)
 CRD 46=   0.1411 (  8) -0.1414 (  9)  0.1458 ( 12) -0.1389 ( 13) -0.1010 ( 15)
           0.1020 ( 26) -0.1014 ( 27)  0.1572 (140)  0.1587 (141)  0.1568 (143)
           0.1584 (144) -0.1504 (158) -0.1499 (159) -0.1497 (160) -0.1493 (161)
          -0.1520 (162) -0.1516 (163) -0.1534 (164) -0.1529 (165) -0.1285 (166)
          -0.1286 (167) -0.1279 (168) -0.1280 (169) -0.1211 (170) -0.1217 (171)
          -0.1210 (173) -0.1216 (174)
 CRD 47=   0.3110 (  1)  0.3127 (  2) -0.3098 (  5) -0.3097 (  6)  0.2615 (  8)
           0.2595 (  9) -0.2708 ( 12) -0.2728 ( 13) -0.1761 ( 15) -0.1755 ( 16)
           0.1951 ( 18)  0.1929 ( 19)
 CRD 48=   0.1418 (  5)  0.1413 (  6) -0.2890 (  8) -0.2910 (  9) -0.2650 ( 12)
          -0.2672 ( 13)  0.2826 ( 15)  0.2847 ( 16)  0.3059 ( 18)  0.3041 ( 19)
          -0.1243 ( 20) -0.1254 ( 21) -0.1843 ( 23) -0.1831 ( 24)  0.1023 ( 87)
 CRD 49=  -0.2808 (  1) -0.2817 (  2)  0.2216 (  5)  0.2233 (  6) -0.3005 ( 15)
          -0.3007 ( 16)  0.2594 ( 18)  0.2597 ( 19)  0.1743 ( 20)  0.1754 ( 21)
          -0.2550 ( 23) -0.2539 ( 24) -0.1014 ( 82) -0.1086 ( 86)
 CRD 50=  -0.1291 (  1) -0.1266 (  2) -0.2576 (  5) -0.2562 (  6)  0.1722 (  8)
           0.1695 (  9)  0.2825 ( 12)  0.2809 ( 13)  0.2242 ( 15)  0.2237 ( 16)
          -0.2112 ( 20) -0.2123 ( 21) -0.2893 ( 23) -0.2886 ( 24) -0.1008 ( 83)
           0.1104 ( 85) -0.1107 ( 89)
 CRD 51=   0.2545 (  1)  0.2553 (  2) -0.2953 (  8) -0.2946 (  9)  0.2113 ( 12)
           0.2133 ( 13) -0.1353 ( 18) -0.1332 ( 19)  0.2471 ( 20)  0.2477 ( 21)
          -0.2721 ( 23) -0.2724 ( 24)  0.1084 ( 82) -0.1254 ( 84) -0.1142 ( 89)
 CRD 52=  -0.1764 (  1) -0.1738 (  2) -0.2874 (  5) -0.2866 (  6) -0.1744 (  8)
          -0.1779 (  9)  0.2657 ( 18)  0.2637 ( 19)  0.2730 ( 20)  0.2729 ( 21)
           0.2270 ( 23)  0.2279 ( 24) -0.1319 ( 83)  0.1209 ( 87)  0.1135 ( 88)
           0.1033 ( 89)
 CRD 53=   0.1939 (  1)  0.1945 (  2)  0.2674 ( 12)  0.2675 ( 13) -0.2175 ( 15)
          -0.2190 ( 16)  0.2589 ( 18)  0.2600 ( 19) -0.2863 ( 20) -0.2856 ( 21)
           0.1575 ( 23)  0.1583 ( 24)  0.1302 ( 85) -0.1060 ( 86)  0.1257 ( 87)
          -0.1264 ( 88)
 CRD 54=  -0.2095 (  1) -0.2086 (  2) -0.2330 (  5) -0.2328 (  6) -0.2482 (  8)
          -0.2485 (  9) -0.1724 ( 12) -0.1733 ( 13) -0.2527 ( 15) -0.2520 ( 16)
          -0.1269 ( 18) -0.1279 ( 19) -0.2498 ( 20) -0.2490 ( 21) -0.1050 ( 82)
          -0.1173 ( 83) -0.1248 ( 84) -0.1267 ( 86) -0.1141 ( 88)
 CRD 55=  -0.1059 (  1)  0.1061 (  2)  0.1185 (  5) -0.1184 (  6) -0.1342 ( 15)
           0.1335 ( 16) -0.1361 ( 18)  0.1366 ( 19)  0.1174 ( 26) -0.1172 ( 27)
          -0.1074 (118) -0.1074 (119)  0.1037 (120)  0.1036 (121) -0.1052 (125)
          -0.1051 (126) -0.1591 (138) -0.1592 (139) -0.1592 (142) -0.1591 (145)
           0.1526 (146)  0.1524 (147)  0.1526 (148)  0.1525 (149)  0.1003 (150)
           0.1007 (151)  0.1005 (152)  0.1010 (153)  0.1150 (162)  0.1152 (163)
           0.1150 (164)  0.1152 (165) -0.1566 (166) -0.1566 (167) -0.1565 (168)
          -0.1565 (169)  0.1276 (170)  0.1278 (171)  0.1105 (172)  0.1277 (173)
           0.1279 (174)  0.1106 (175)
 CRD 56=  -0.1235 (  1)  0.1236 (  2) -0.1543 ( 18)  0.1545 ( 19)  0.1885 ( 20)
          -0.1880 ( 21) -0.1781 ( 26)  0.1779 ( 27) -0.1095 ( 94) -0.1096 ( 95)
           0.1032 (110)  0.1032 (111)  0.1175 (118)  0.1176 (119) -0.1007 (128)
          -0.1007 (129)  0.1168 (136)  0.1167 (137)  0.1500 (140)  0.1503 (141)
           0.1500 (143)  0.1502 (144) -0.1357 (150) -0.1355 (151) -0.1358 (152)
          -0.1355 (153) -0.1535 (154) -0.1534 (155) -0.1539 (156) -0.1538 (157)
           0.1773 (166)  0.1772 (167)  0.1772 (168)  0.1770 (169)  0.1092 (170)
           0.1093 (171)  0.1093 (173)  0.1094 (174)
 CRD 57=  -0.2210 (  1)  0.2211 (  2) -0.2178 (  5)  0.2178 (  6) -0.2439 (  8)
           0.2440 (  9) -0.2222 ( 12)  0.2225 ( 13) -0.2492 ( 15)  0.2490 ( 16)
           0.1664 ( 18) -0.1664 ( 19)  0.1877 ( 20) -0.1875 ( 21)  0.1115 (150)
           0.1115 (151)  0.1115 (152)  0.1115 (153) -0.1000 (158) -0.1002 (160)
          -0.1001 (161)
 CRD 58=   0.2281 (  1) -0.2281 (  2)  0.1039 (  5) -0.1040 (  6) -0.1144 (  8)
           0.1146 (  9)  0.2150 ( 12) -0.2152 ( 13) -0.2568 ( 15)  0.2566 ( 16)
          -0.1645 ( 18)  0.1645 ( 19)  0.2344 ( 20) -0.2342 ( 21)  0.1266 ( 23)
          -0.1265 ( 24) -0.1252 ( 26)  0.1250 ( 27)  0.1073 (138)  0.1074 (139)
          -0.1083 (140) -0.1089 (141)  0.1073 (142) -0.1086 (143) -0.1093 (144)
           0.1073 (145)  0.1146 (150)  0.1150 (151)  0.1153 (152)  0.1157 (153)
          -0.1288 (158) -0.1286 (159) -0.1289 (160) -0.1286 (161)
 CRD 59=  -0.2572 (  5)  0.2570 (  6) -0.2369 (  8)  0.2370 (  9)  0.1604 ( 12)
          -0.1608 ( 13) -0.1857 ( 18)  0.1857 ( 19) -0.1554 ( 20)  0.1550 ( 21)
           0.1349 ( 26) -0.1348 ( 27) -0.1151 ( 98) -0.1147 ( 99) -0.1189 (120)
          -0.1187 (121) -0.1725 (146) -0.1722 (147) -0.1727 (148) -0.1724 (149)
          -0.1259 (154) -0.1260 (155) -0.1263 (156) -0.1264 (157) -0.1038 (166)
          -0.1034 (167) -0.1037 (168) -0.1033 (169)
 CRD 60=  -0.6382 ( 28)  0.1666 ( 32)  0.5582 ( 75) -0.1661 ( 80) -0.1659 ( 81)
           0.2167 ( 90) -0.1491 (118)  0.1490 (119)  0.1280 (166) -0.1701 (167)
           0.1697 (168) -0.1283 (169)
 CRD 61=  -0.1334 (  1)  0.1335 (  2) -0.1526 ( 18)  0.1526 ( 19)  0.3335 ( 23)
          -0.3334 ( 24)  0.1193 (115)  0.1193 (116) -0.1660 (122) -0.1495 (123)
          -0.1496 (124)  0.1004 (135) -0.1043 (138) -0.1046 (139) -0.1048 (142)
          -0.1045 (145)  0.1383 (162)  0.1383 (163)  0.1390 (164)  0.1390 (165)
          -0.2289 (170) -0.2288 (171) -0.2453 (172) -0.2289 (173) -0.2289 (174)
          -0.2453 (175)
 CRD 62=  -0.1130 ( 22)  0.1041 ( 26)  0.1036 ( 27)  0.1391 ( 28)  0.8187 ( 32)
           0.1029 ( 58)  0.1026 ( 59)  0.1488 ( 67)  0.1489 ( 68) -0.1771 ( 75)
          -0.1053 ( 76) -0.1054 ( 77) -0.1105 ( 90) -0.1044 (159)  0.1041 (160)
 CRD 63=  -0.1280 ( 31) -0.2081 ( 32)  0.1313 ( 33)  0.1315 ( 34) -0.1421 ( 35)
          -0.1412 ( 36) -0.1459 ( 39)  0.1066 ( 40)  0.1072 ( 41) -0.1461 ( 44)
          -0.1367 ( 45) -0.1376 ( 49) -0.1249 ( 50)  0.1449 ( 51) -0.1252 ( 53)
           0.1440 ( 54) -0.1163 ( 55) -0.1165 ( 56)  0.1448 ( 60)  0.1446 ( 61)
           0.1308 ( 73)  0.1302 ( 74)  0.1186 ( 78)  0.1185 ( 79) -0.1684 (139)
          -0.1632 (140)  0.1632 (144)  0.1685 (145)  0.1435 (146) -0.1439 (149)
           0.1114 (150) -0.1114 (153) -0.1574 (155)  0.1574 (156) -0.1453 (163)
           0.1461 (164)
 CRD 64=  -0.3076 ( 26)  0.3076 ( 27) -0.4929 (127) -0.1160 (136) -0.1171 (137)
          -0.1423 (166) -0.1420 (167) -0.1434 (168) -0.1431 (169) -0.4263 (176)
          -0.4267 (177)
 CRD 65=   0.1064 (  4) -0.1109 ( 29) -0.1105 ( 30) -0.1985 ( 31)  0.2483 ( 32)
          -0.1283 ( 40) -0.1289 ( 41) -0.1265 ( 46) -0.1261 ( 47) -0.1174 ( 50)
          -0.1180 ( 53)  0.1205 ( 55)  0.1208 ( 56) -0.1246 ( 63) -0.1248 ( 64)
           0.1314 ( 65)  0.1306 ( 69) -0.1532 ( 70) -0.1214 ( 71) -0.1216 ( 72)
           0.1007 ( 73)  0.1004 ( 74)  0.1051 ( 76)  0.1050 ( 77)  0.1519 ( 78)
           0.1517 ( 79)  0.1618 ( 91)  0.1620 ( 92) -0.1217 (146)  0.1213 (149)
          -0.1481 (150)  0.1479 (153)  0.1340 (159) -0.1335 (160) -0.1632 (163)
           0.1637 (164)
 CRD 66=   0.1378 (  7)  0.1258 ( 10) -0.1292 ( 11) -0.1212 ( 17) -0.1623 ( 25)
          -0.1589 ( 28)  0.1386 ( 29)  0.1383 ( 30)  0.1862 ( 31)  0.2288 ( 32)
          -0.1237 ( 39) -0.1242 ( 44) -0.1072 ( 46) -0.1065 ( 47)  0.1212 ( 51)
           0.1205 ( 54) -0.1169 ( 58) -0.1164 ( 59)  0.1041 ( 60)  0.1039 ( 61)
          -0.1034 ( 66)  0.1625 ( 70)  0.1472 ( 71)  0.1472 ( 72)  0.1308 ( 76)
           0.1308 ( 77)  0.1131 ( 80)  0.1131 ( 81) -0.1719 ( 91) -0.1721 ( 92)
          -0.1342 ( 93) -0.1270 (139) -0.1174 (140)  0.1173 (144)  0.1276 (145)
           0.1372 (159) -0.1370 (160)
 CRD 67=   0.1516 (  3)  0.1562 (  4) -0.1507 ( 10) -0.1488 ( 14) -0.1247 ( 17)
          -0.2575 ( 25)  0.1837 ( 28)  0.1413 ( 29)  0.1415 ( 30)  0.1062 ( 31)
          -0.1833 ( 32) -0.1107 ( 33) -0.1114 ( 34) -0.1096 ( 35) -0.1089 ( 36)
           0.1115 ( 55)  0.1120 ( 56)  0.1020 ( 58)  0.1017 ( 59)  0.1093 ( 66)
           0.1145 ( 67)  0.1146 ( 68)  0.1307 ( 70)  0.1347 ( 71)  0.1346 ( 72)
           0.1215 ( 73)  0.1207 ( 74) -0.1425 ( 80) -0.1426 ( 81) -0.1303 ( 91)
          -0.1301 ( 92) -0.1579 ( 93) -0.1216 (146)  0.1216 (149) -0.1286 (155)
           0.1290 (156) -0.1193 (176)  0.1181 (177)
 CRD 68=   0.1396 (  4) -0.2001 (  7)  0.1783 ( 11)  0.1686 ( 14)  0.1950 ( 22)
          -0.2860 ( 25) -0.1498 ( 28)  0.1341 ( 29)  0.1350 ( 30)  0.1251 ( 32)
           0.1095 ( 39)  0.1104 ( 44) -0.1054 ( 50) -0.1139 ( 51) -0.1057 ( 53)
          -0.1137 ( 54) -0.1144 ( 65) -0.1368 ( 67) -0.1368 ( 68) -0.1138 ( 69)
          -0.1089 ( 75)  0.1367 ( 80)  0.1366 ( 81)  0.1065 ( 90) -0.1689 ( 93)
           0.1168 (150) -0.1176 (153) -0.1124 (170)  0.1127 (174)  0.1407 (176)
          -0.1405 (177)
 CRD 69=   0.1960 (  3)  0.1115 (  4) -0.1984 ( 10) -0.1644 ( 11) -0.1719 ( 17)
           0.2790 ( 22)  0.2237 ( 25) -0.1098 ( 26) -0.1095 ( 27) -0.1264 ( 29)
          -0.1247 ( 30)  0.1002 ( 31) -0.1059 ( 33) -0.1064 ( 34)  0.1132 ( 60)
           0.1110 ( 61)  0.1213 ( 63)  0.1227 ( 64) -0.1273 ( 67) -0.1276 ( 68)
          -0.1106 ( 75)  0.1501 ( 90)  0.1731 ( 93)  0.1699 (170) -0.1731 (174)
           0.1427 (176) -0.1419 (177)
 CRD 70=  -0.1014 (  1) -0.1237 (  5)  0.1226 (  6) -0.1819 ( 18)  0.1793 ( 19)
           0.2681 ( 23) -0.2662 ( 24)  0.2049 ( 29) -0.2068 ( 30)  0.1568 ( 91)
          -0.1563 ( 92) -0.1565 (122) -0.2041 (162) -0.2039 (163) -0.2014 (164)
          -0.2012 (165)  0.2006 (170)  0.1997 (171)  0.1976 (173)  0.1967 (174)
 CRD 71=  -0.1695 (  1)  0.1706 (  2)  0.1159 (  8) -0.1117 (  9) -0.1793 ( 12)
           0.1796 ( 13)  0.2051 ( 15) -0.2065 ( 16) -0.1716 ( 20)  0.1710 ( 21)
           0.1598 (138)  0.1577 (139)  0.1552 (142)  0.1572 (145)  0.1460 (150)
           0.1455 (151)  0.1421 (152)  0.1417 (153) -0.1293 (154) -0.1281 (155)
          -0.1282 (156) -0.1270 (157) -0.1723 (158) -0.1729 (159) -0.1737 (160)
          -0.1743 (161)  0.1142 (166)  0.1148 (167)  0.1141 (168)  0.1147 (169)
 CRD 72=  -0.1494 (  1)  0.1477 (  2) -0.1978 (  5)  0.1982 (  6) -0.1978 (  8)
           0.1980 (  9) -0.1381 ( 15)  0.1362 ( 16)  0.1225 (138)  0.1227 (139)
          -0.1663 (140) -0.1657 (141)  0.1245 (142) -0.1671 (143) -0.1665 (144)
           0.1243 (145)  0.1864 (146)  0.1879 (147)  0.1848 (148)  0.1863 (149)
          -0.1585 (150) -0.1597 (151) -0.1575 (152) -0.1587 (153)
 CRD 73=   0.1880 (  4) -0.1645 (  7)  0.1089 ( 10)  0.1721 ( 14) -0.2260 ( 17)
          -0.2135 ( 22)  0.1295 ( 26)  0.1330 ( 27) -0.1008 ( 29) -0.1023 ( 30)
           0.1742 ( 31) -0.1150 ( 58) -0.1159 ( 59)  0.1001 ( 64)  0.1015 ( 75)
           0.1294 ( 88) -0.1301 ( 89) -0.1936 ( 90)  0.1517 ( 93)  0.1100 (136)
          -0.1099 (137)  0.1073 (140) -0.1084 (144)  0.1764 (167) -0.1797 (168)
           0.1886 (170) -0.1887 (174) -0.1204 (176)  0.1251 (177)
 CRD 74=  -0.1082 (  5)  0.1135 (  6) -0.1132 (  8)  0.1158 (  9)  0.1811 ( 12)
          -0.1774 ( 13) -0.1893 ( 20)  0.1937 ( 21)  0.1503 ( 26) -0.1497 ( 27)
          -0.1478 ( 29)  0.1445 ( 30)  0.1196 ( 80) -0.1223 ( 81) -0.1127 ( 91)
           0.1117 ( 92) -0.1066 ( 96) -0.1245 ( 97) -0.1507 (117)  0.1658 (122)
          -0.1138 (127) -0.1008 (138) -0.1032 (139)  0.1158 (154)  0.1132 (155)
           0.1123 (156)  0.1096 (157) -0.1055 (158) -0.1023 (159) -0.1123 (160)
          -0.1091 (161)  0.1427 (166)  0.1416 (167)  0.1455 (168)  0.1444 (169)
          -0.2062 (176) -0.2043 (177)
 CRD 75=   0.1002 (  3) -0.1002 (  9) -0.1202 ( 10) -0.1289 ( 11)  0.1152 ( 15)
           0.1114 ( 16)  0.1602 ( 17) -0.1039 ( 20)  0.1352 ( 22) -0.1466 ( 28)
          -0.1169 ( 31)  0.1485 ( 82) -0.1523 ( 83)  0.1668 ( 84) -0.1138 ( 85)
          -0.1871 ( 86)  0.1633 ( 88) -0.1012 (128)  0.1017 (129) -0.1145 (132)
           0.1137 (133) -0.1482 (139)  0.1288 (140) -0.1313 (144)  0.1499 (145)
           0.1173 (146) -0.1168 (149) -0.1582 (150)  0.1606 (153) -0.1946 (159)
           0.1911 (160)  0.1367 (167) -0.1336 (168) -0.1075 (170)  0.1067 (174)
 CRD 76=   0.1042 ( 10)  0.1224 ( 11)  0.1046 ( 13) -0.1808 ( 14) -0.1136 ( 18)
          -0.1169 ( 19) -0.1644 ( 25)  0.1336 ( 28)  0.1297 ( 31)  0.1394 ( 82)
          -0.1181 ( 83) -0.1702 ( 85)  0.1894 ( 87) -0.1218 ( 88) -0.1487 ( 89)
           0.1434 ( 90)  0.1076 (130) -0.1088 (131) -0.1099 (134)  0.1110 (135)
          -0.1140 (139)  0.1030 (140) -0.1003 (144)  0.1159 (145)  0.1079 (146)
          -0.1125 (149)  0.1691 (155) -0.1727 (156) -0.1890 (163)  0.1905 (164)
          -0.1565 (167)  0.1538 (168)  0.1106 (170) -0.1102 (174)
 CRD 77=  -0.1777 (  3)  0.2496 (  7)  0.2076 ( 11) -0.1643 ( 14)  0.1123 ( 15)
           0.1149 ( 16) -0.1413 ( 17)  0.2334 ( 22)  0.1341 ( 31) -0.1538 ( 82)
           0.1288 ( 84)  0.1554 ( 85) -0.1841 ( 86)  0.1031 (101) -0.1026 (102)
           0.1758 (139) -0.1124 (140)  0.1123 (144) -0.1773 (145) -0.1830 (150)
           0.1802 (153) -0.1568 (159)  0.1550 (160)  0.1014 (170) -0.1012 (174)
 CRD 78=   0.1548 (  3) -0.2345 (  4) -0.1097 (  5) -0.1065 (  6) -0.2094 ( 10)
           0.1510 ( 14)  0.1180 ( 17) -0.1134 ( 18) -0.1062 ( 19) -0.2016 ( 25)
          -0.1470 ( 28)  0.1751 ( 83) -0.1511 ( 84)  0.1780 ( 87)  0.1067 ( 88)
          -0.1238 ( 89) -0.1183 ( 90) -0.1375 (140)  0.1356 (144) -0.1803 (146)
           0.1816 (149)  0.1598 (155) -0.1549 (156) -0.1648 (163)  0.1630 (164)
           0.1297 (167) -0.1318 (168)
 CRD 79=   0.1257 (  1) -0.1210 (  2)  0.1050 (  5) -0.1009 (  6) -0.1278 ( 15)
           0.1213 ( 16)  0.1411 ( 18) -0.1475 ( 19)  0.1916 ( 26) -0.1861 ( 27)
           0.1709 ( 29) -0.1680 ( 30)  0.1328 ( 80) -0.1345 ( 81)  0.1274 ( 91)
          -0.1304 ( 92)  0.1327 ( 96)  0.1437 (105) -0.1447 (109) -0.1863 (117)
          -0.1812 (122) -0.1163 (136) -0.1166 (137) -0.1446 (172) -0.1460 (175)
          -0.2161 (176) -0.2103 (177)
 CRD 80=   0.1748 (  3) -0.1314 (  4) -0.1281 (  7)  0.1279 ( 14)  0.1207 ( 17)
          -0.1901 ( 22) -0.1935 ( 25)  0.1222 ( 28)  0.1335 ( 31) -0.1006 ( 33)
          -0.1034 ( 34) -0.1059 ( 39) -0.1094 ( 44)  0.1102 ( 45)  0.1172 ( 49)
           0.1203 ( 51)  0.1133 ( 54)  0.1012 ( 76)  0.1052 ( 77)  0.1090 ( 78)
           0.1043 ( 79)  0.1112 ( 84)  0.1156 ( 85)  0.1000 (110) -0.1016 (112)
           0.1049 (113) -0.1131 (138) -0.2059 (141)  0.1159 (142)  0.1980 (143)
          -0.1478 (158)  0.1438 (161)  0.1496 (162) -0.1545 (165)
 CRD 81=   0.1476 ( 10) -0.1422 ( 11) -0.1506 ( 14)  0.1449 ( 17) -0.1059 ( 35)
          -0.1034 ( 36) -0.1169 ( 55) -0.1162 ( 56)  0.1165 ( 60)  0.1176 ( 61)
          -0.1366 ( 82)  0.1206 ( 83) -0.1408 ( 86)  0.1443 ( 87)  0.1209 ( 94)
          -0.1193 ( 95) -0.1141 (100)  0.1128 (104)  0.1008 (120) -0.1019 (121)
          -0.1058 (125)  0.1070 (126)  0.1873 (138) -0.1864 (142) -0.1932 (147)
           0.1926 (148)  0.1454 (151) -0.1489 (152) -0.1669 (154)  0.1709 (157)
 CRD 82=  -0.1405 (  4)  0.1377 (  7) -0.1836 ( 10)  0.1911 ( 11)  0.1798 ( 14)
          -0.1824 ( 17) -0.1810 ( 22)  0.1828 ( 25)  0.1438 ( 28) -0.1468 ( 31)
           0.1051 ( 46)  0.1118 ( 47) -0.1107 ( 50) -0.1035 ( 53) -0.1105 ( 58)
          -0.1080 ( 59)  0.1106 ( 63)  0.1123 ( 64)  0.1197 ( 76)  0.1127 ( 77)
          -0.1129 ( 78) -0.1205 ( 79)  0.1023 (135) -0.1865 (158)  0.1916 (161)
          -0.1905 (162)  0.1844 (165)  0.1283 (166) -0.1236 (169)  0.1333 (171)
          -0.1372 (173)
 CRD 83=  -0.2968 (  3)  0.2524 (  4)  0.2497 (  7) -0.1815 ( 10) -0.1765 ( 11)
           0.1559 ( 14)  0.1440 ( 17) -0.1083 ( 22) -0.1039 ( 25)  0.1074 ( 33)
           0.1077 ( 34) -0.1183 ( 35) -0.1166 ( 36)  0.1041 ( 39) -0.1193 ( 40)
          -0.1211 ( 41)  0.1051 ( 44)  0.1084 ( 55)  0.1087 ( 56)  0.1048 ( 60)
           0.1039 ( 61)  0.1195 (138) -0.1204 (142)  0.1312 (147) -0.1315 (148)
          -0.1714 (151)  0.1738 (152) -0.1690 (154)  0.1711 (157)
 CRD 84=  -0.1089 (  1) -0.1089 (  6) -0.1136 ( 15)  0.1179 ( 16) -0.1031 ( 18)
           0.1273 ( 19)  0.1619 ( 26) -0.1626 ( 27) -0.1706 ( 29)  0.1454 ( 30)
           0.1033 ( 67) -0.1029 ( 68)  0.1081 ( 72)  0.1050 ( 80) -0.1054 ( 81)
          -0.1299 ( 91)  0.1079 ( 92)  0.1578 ( 97) -0.1582 (103) -0.1653 (106)
           0.1674 (114) -0.1096 (117)  0.1289 (122) -0.1019 (123) -0.1587 (136)
          -0.1608 (137)  0.1717 (172)  0.2004 (175) -0.1520 (176) -0.1524 (177)
 CRD 85=  -0.1582 ( 10) -0.1596 ( 11)  0.1610 ( 28)  0.1496 ( 31) -0.1023 ( 66)
          -0.1033 ( 70)  0.1027 ( 82)  0.1180 ( 83) -0.1336 ( 86) -0.1203 ( 87)
           0.1249 ( 90)  0.1079 ( 93) -0.1014 (113) -0.1170 (118)  0.1071 (119)
           0.1162 (124)  0.1813 (141) -0.1805 (143)  0.1121 (151) -0.1107 (152)
           0.1128 (154) -0.1153 (157)  0.1876 (166) -0.1910 (169) -0.1885 (171)
          -0.1092 (172)  0.1951 (173)
 CRD 86=  -0.1131 (  4)  0.1090 (  7) -0.1051 (  8)  0.1018 ( 12) -0.1203 ( 28)
           0.1096 ( 31)  0.1152 ( 38) -0.1186 ( 42)  0.1057 ( 57) -0.1123 ( 62)
           0.1061 ( 66) -0.1065 ( 70)  0.1595 ( 84) -0.1549 ( 85) -0.1366 ( 88)
           0.1472 ( 89) -0.1098 ( 90) -0.1001 (119)  0.1032 (137)  0.1676 (138)
          -0.1710 (142) -0.1598 (147)  0.1635 (148) -0.1216 (151)  0.1213 (152)
           0.1056 (154) -0.1055 (157) -0.1909 (166)  0.1894 (169) -0.1877 (171)
          -0.1085 (172)  0.1891 (173)
 CRD 87=  -0.1412 (  3)  0.1299 ( 14)  0.1390 ( 17) -0.1101 ( 20) -0.1104 ( 24)
           0.1282 ( 37)  0.1226 ( 43) -0.1391 ( 57) -0.1400 ( 62) -0.1370 ( 82)
          -0.1434 ( 83)  0.1025 ( 87)  0.1533 ( 88)  0.1558 ( 89)  0.1074 (136)
           0.1088 (138) -0.1756 (141) -0.1050 (142)  0.1853 (143)  0.1220 (147)
          -0.1181 (148)  0.1513 (158) -0.1598 (161) -0.1668 (162)  0.1580 (165)
           0.1706 (166) -0.1699 (169) -0.1646 (171)  0.1653 (173)  0.1107 (175)
 CRD 88=   0.1292 (  8) -0.1259 (  9)  0.1263 ( 12) -0.1254 ( 13)  0.1129 ( 20)
          -0.1265 ( 21) -0.1323 ( 23)  0.1173 ( 24)  0.1109 ( 26) -0.1167 ( 27)
           0.1143 ( 29) -0.1198 ( 30)  0.1009 ( 67)  0.1014 ( 71) -0.1008 ( 78)
           0.1007 ( 79) -0.1036 ( 94) -0.1164 ( 95) -0.1310 ( 96) -0.1071 (100)
          -0.1177 (104) -0.1266 (105) -0.1493 (106)  0.1633 (109) -0.1497 (114)
           0.1316 (118)  0.1393 (119)  0.1154 (120)  0.1322 (121)  0.1374 (123)
           0.1452 (124)  0.1153 (125)  0.1307 (126) -0.1092 (132) -0.1220 (133)
          -0.1298 (134) -0.1153 (135) -0.1466 (136) -0.1590 (137) -0.1864 (172)
          -0.1725 (175)
 CRD 89=   0.1372 ( 10) -0.1409 ( 11)  0.1510 ( 14) -0.1508 ( 17)  0.1215 ( 38)
          -0.1136 ( 42) -0.1492 ( 48)  0.1504 ( 52) -0.1341 ( 57)  0.1295 ( 62)
           0.1125 ( 84) -0.1201 ( 85)  0.1490 ( 86) -0.1498 ( 87)  0.1315 ( 88)
          -0.1280 ( 89)  0.1087 (138) -0.1073 (142) -0.1674 (151)  0.1667 (152)
           0.1735 (154) -0.1724 (157)  0.1790 (158) -0.1792 (161)  0.1760 (162)
          -0.1751 (165)  0.1317 (166) -0.1313 (169)  0.1234 (171) -0.1240 (173)
 CRD 90=   0.1550 (  3)  0.1475 (  4)  0.1497 (  7)  0.1315 ( 10)  0.1267 ( 11)
           0.1025 ( 14) -0.1555 ( 37) -0.1403 ( 38) -0.1436 ( 42) -0.1543 ( 43)
          -0.1189 ( 48) -0.1136 ( 52)  0.1427 ( 82)  0.1437 ( 83)  0.1327 ( 84)
           0.1295 ( 85)  0.1105 ( 86)  0.1054 ( 87) -0.1730 (138)  0.1815 (141)
           0.1722 (142) -0.1817 (143) -0.1756 (147)  0.1748 (148) -0.1541 (151)
           0.1546 (152) -0.1490 (154)  0.1497 (157)  0.1193 (158) -0.1190 (161)
          -0.1116 (162)  0.1119 (165)
 CRD 91=   0.1099 (  1) -0.1077 (  2) -0.1143 (  5)  0.1121 (  6)  0.1218 ( 20)
          -0.1218 ( 21)  0.1227 ( 23) -0.1226 ( 24)  0.1399 ( 96) -0.1185 ( 97)
          -0.1270 ( 98) -0.1312 ( 99)  0.1207 (101)  0.1246 (102)  0.1255 (103)
          -0.1428 (105)  0.1200 (107)  0.1200 (108)  0.1450 (110)  0.1427 (111)
          -0.1387 (112) -0.1410 (113) -0.1274 (115) -0.1273 (116)  0.1564 (118)
           0.1556 (119) -0.1589 (123) -0.1579 (124)  0.1054 (130)  0.1011 (131)
          -0.1579 (132) -0.1607 (133)  0.1644 (134)  0.1619 (135) -0.1228 (136)
          -0.1229 (137)  0.1366 (172)  0.1364 (175)
 CRD 92=  -0.1012 ( 12)  0.1000 ( 13)  0.1193 ( 15) -0.1189 ( 16) -0.1184 ( 18)
           0.1189 ( 19)  0.1522 ( 94)  0.1532 ( 95)  0.1453 (100)  0.1463 (104)
           0.1744 (107)  0.1729 (108) -0.1137 (109)  0.1709 (115)  0.1721 (116)
           0.1355 (118)  0.1346 (119) -0.1299 (120) -0.1321 (121)  0.1302 (123)
           0.1292 (124) -0.1383 (125) -0.1404 (126) -0.1732 (128) -0.1713 (129)
          -0.1738 (130) -0.1721 (131) -0.1487 (132) -0.1489 (133) -0.1439 (134)
          -0.1439 (135)
 CRD 93=  -0.1130 (  1)  0.1126 (  2)  0.1138 (  5) -0.1134 (  6) -0.1023 (  8)
           0.1026 (  9) -0.1002 ( 13) -0.1577 ( 94) -0.1592 ( 95)  0.1820 ( 98)
           0.1831 ( 99)  0.1619 (100) -0.1805 (101) -0.1816 (102)  0.1635 (104)
           0.1267 (107)  0.1256 (108) -0.1850 (110) -0.1838 (111)  0.1829 (112)
           0.1841 (113) -0.1190 (115) -0.1198 (116) -0.1683 (120) -0.1687 (121)
           0.1646 (125)  0.1649 (126) -0.1347 (128) -0.1344 (129)  0.1288 (130)
           0.1287 (131)

 THE DETERMINANT OF THE G MATRIX IS 10**(   -35)


                     --------------------
                     INTERNAL COORDINATES
                     --------------------

                 - - ATOMS - -         COORDINATE      COORDINATE
 NO.   TYPE    I  J  K  L  M  N        (BOHR,RAD)       (ANG,DEG)
 ----------------------------------------------------------------
   1 STRETCH   1 12                     2.0726845       1.0968175
   2 STRETCH   1 13                     2.0728560       1.0969083
   3 STRETCH   1  2                     2.8907672       1.5297283
   4 STRETCH   1  4                     2.8898625       1.5292495
   5 STRETCH   2 14                     2.0729837       1.0969758
   6 STRETCH   2 15                     2.0728243       1.0968915
   7 STRETCH   2  3                     2.8906970       1.5296911
   8 STRETCH   3 17                     2.0727347       1.0968440
   9 STRETCH   3 16                     2.0727090       1.0968305
  10 STRETCH   3  5                     2.8899287       1.5292845
  11 STRETCH   4  6                     2.8895837       1.5291019
  12 STRETCH   4 19                     2.0730455       1.0970085
  13 STRETCH   4 18                     2.0734648       1.0972304
  14 STRETCH   5  7                     2.8864147       1.5274250
  15 STRETCH   5 21                     2.0723716       1.0966519
  16 STRETCH   5 20                     2.0722252       1.0965744
  17 STRETCH   6  8                     2.8894602       1.5290366
  18 STRETCH   6 23                     2.0724014       1.0966677
  19 STRETCH   6 22                     2.0725259       1.0967336
  20 STRETCH   7 25                     2.0736732       1.0973407
  21 STRETCH   7 24                     2.0734795       1.0972382
  22 STRETCH   7  9                     2.8767419       1.5223064
  23 STRETCH   8 27                     2.0732794       1.0971323
  24 STRETCH   8 26                     2.0724460       1.0966913
  25 STRETCH   8 10                     2.8717025       1.5196396
  26 STRETCH   9 29                     2.0682788       1.0944861
  27 STRETCH   9 28                     2.0682916       1.0944929
  28 STRETCH   9 11                     2.6848079       1.4207392
  29 STRETCH  10 32                     2.0685768       1.0946438
  30 STRETCH  10 31                     2.0683441       1.0945207
  31 STRETCH  10 30                     2.0680409       1.0943602
  32 STRETCH  11 33                     1.8375404       0.9723846
  33 BEND      1  2 14                  1.9115771     109.5252997
  34 BEND      1  2 15                  1.9130626     109.6104140
  35 BEND      1  4 19                  1.9133728     109.6281848
  36 BEND      1  4 18                  1.9112860     109.5086213
  37 BEND      1  2  3                  1.9428764     111.3186154
  38 BEND      1  4  6                  1.9430610     111.3291929
  39 BEND      2  1 12                  1.9113955     109.5148943
  40 BEND      2  3 16                  1.9109022     109.4866325
  41 BEND      2  3 17                  1.9129326     109.6029643
  42 BEND      2  3  5                  1.9436100     111.3606485
  43 BEND      2  1  4                  1.9438719     111.3756543
  44 BEND      2  1 13                  1.9125604     109.5816399
  45 BEND      3  2 15                  1.9114388     109.5173767
  46 BEND      3  5 20                  1.9135423     109.6378979
  47 BEND      3  5 21                  1.9118452     109.5406615
  48 BEND      3  5  7                  1.9425953     111.3025131
  49 BEND      3  2 14                  1.9133475     109.6267358
  50 BEND      4  6 22                  1.9120715     109.5536252
  51 BEND      4  1 12                  1.9132204     109.6194543
  52 BEND      4  6  8                  1.9438804     111.3761415
  53 BEND      4  6 23                  1.9135194     109.6365862
  54 BEND      4  1 13                  1.9113481     109.5121811
  55 BEND      5  3 17                  1.9118444     109.5406155
  56 BEND      5  3 16                  1.9131106     109.6131640
  57 BEND      5  7  9                  1.9493227     111.6879640
  58 BEND      5  7 24                  1.9249979     110.2942580
  59 BEND      5  7 25                  1.9236134     110.2149318
  60 BEND      6  4 18                  1.9130088     109.6073318
  61 BEND      6  4 19                  1.9120455     109.5521362
  62 BEND      6  8 10                  1.9466854     111.5368558
  63 BEND      6  8 26                  1.9162983     109.7958028
  64 BEND      6  8 27                  1.9174147     109.8597685
  65 BEND      7  5 21                  1.9126995     109.5896105
  66 BEND      7  9 11                  1.8997396     108.8470631
  67 BEND      7  9 28                  1.9357582     110.9107751
  68 BEND      7  9 29                  1.9352362     110.8808672
  69 BEND      7  5 20                  1.9113134     109.5101937
  70 BEND      8 10 30                  1.9244195     110.2611157
  71 BEND      8 10 31                  1.9374511     111.0077729
  72 BEND      8 10 32                  1.9368905     110.9756488
  73 BEND      8  6 22                  1.9122763     109.5653640
  74 BEND      8  6 23                  1.9108049     109.4810577
  75 BEND      9 11 33                  1.8683743     107.0499611
  76 BEND      9  7 24                  1.9079128     109.3153533
  77 BEND      9  7 25                  1.9080517     109.3233105
  78 BEND     10  8 26                  1.9056803     109.1874354
  79 BEND     10  8 27                  1.9056111     109.1834757
  80 BEND     11  9 28                  1.8947710     108.5623805
  81 BEND     11  9 29                  1.8946155     108.5534724
  82 BEND     12  1 13                  1.8699615     107.1409013
  83 BEND     14  2 15                  1.8701015     107.1489219
  84 BEND     16  3 17                  1.8699690     107.1413292
  85 BEND     18  4 19                  1.8696037     107.1204018
  86 BEND     20  5 21                  1.8704311     107.1678090
  87 BEND     22  6 23                  1.8697981     107.1315424
  88 BEND     24  7 25                  1.8470827     105.8300458
  89 BEND     26  8 27                  1.8705131     107.1725085
  90 BEND     28  9 29                  1.9028335     109.0243275
  91 BEND     30 10 31                  1.8866096     108.0947683
  92 BEND     30 10 32                  1.8864283     108.0843820
  93 BEND     31 10 32                  1.8903999     108.3119341
  94 TORSION   1  4  6 22               1.0416413      59.6816520
  95 TORSION   1  4  6 23              -1.0056000     -57.6166366
  96 TORSION   1  4  6  8              -3.1231353    -178.9424705
  97 TORSION   1  2  3  5              -3.1280621    -179.2247589
  98 TORSION   1  2  3 16               1.0366311      59.3945847
  99 TORSION   1  2  3 17              -1.0097926     -57.8568526
 100 TORSION   2  3  5 21               1.0427991      59.7479846
 101 TORSION   2  1  4 18               1.0357616      59.3447711
 102 TORSION   2  1  4 19              -1.0106998     -57.9088315
 103 TORSION   2  1  4  6              -3.1291595    -179.2876300
 104 TORSION   2  3  5 20              -1.0050903     -57.5874312
 105 TORSION   2  3  5  7              -3.1224384    -178.9025417
 106 TORSION   3  5  7  9              -3.1300854    -179.3406837
 107 TORSION   3  5  7 24              -1.0046979     -57.5649475
 108 TORSION   3  5  7 25               1.0284993      58.9286682
 109 TORSION   3  2  1  4              -3.1210500    -178.8229931
 110 TORSION   3  2  1 13              -1.0034843     -57.4954160
 111 TORSION   3  2  1 12               1.0430013      59.7595698
 112 TORSION   4  1  2 14               1.0433701      59.7807020
 113 TORSION   4  1  2 15              -1.0036834     -57.5068211
 114 TORSION   4  6  8 10              -3.1322657    -179.4656058
 115 TORSION   4  6  8 26               1.0361137      59.3649420
 116 TORSION   4  6  8 27              -1.0167883     -58.2576782
 117 TORSION   5  7  9 11              -3.1353504    -179.6423437
 118 TORSION   5  7  9 28              -1.0518808     -60.2683323
 119 TORSION   5  7  9 29               1.0648732      61.0127406
 120 TORSION   5  3  2 15               1.0368090      59.4047823
 121 TORSION   5  3  2 14              -1.0103297     -57.8876266
 122 TORSION   6  8 10 30              -3.1339269    -179.5607846
 123 TORSION   6  8 10 31              -1.0436780     -59.7983445
 124 TORSION   6  8 10 32               1.0595974      60.7104597
 125 TORSION   6  4  1 13               1.0357536      59.3443094
 126 TORSION   6  4  1 12              -1.0110886     -57.9311096
 127 TORSION   7  9 11 33               3.1402254     179.9216598
 128 TORSION   7  5  3 16              -1.0052339     -57.5956572
 129 TORSION   7  5  3 17               1.0418432      59.6932170
 130 TORSION   8  6  4 18              -1.0058762     -57.6324598
 131 TORSION   8  6  4 19               1.0408165      59.6343931
 132 TORSION   9  7  5 20               1.0344510      59.2696759
 133 TORSION   9  7  5 21              -1.0126362     -58.0197825
 134 TORSION  10  8  6 22              -1.0139764     -58.0965683
 135 TORSION  10  8  6 23               1.0318026      59.1179350
 136 TORSION  11  9  7 24               1.0126228      58.0190119
 137 TORSION  11  9  7 25              -1.0017944     -57.3985893
 138 TORSION  12  1  4 19               1.1073711      63.4476890
 139 TORSION  12  1  4 18              -3.1293528    -179.2987085
 140 TORSION  12  1  2 15              -3.1228174    -178.9242581
 141 TORSION  12  1  2 14              -1.0757640     -61.6367350
 142 TORSION  13  1  4 18              -1.0825106     -62.0232895
 143 TORSION  13  1  2 15               1.1138823      63.8207560
 144 TORSION  13  1  2 14              -3.1222495    -178.8917209
 145 TORSION  13  1  4 19              -3.1289720    -179.2768921
 146 TORSION  14  2  3 16              -3.1288218    -179.2682830
 147 TORSION  14  2  3 17               1.1079399      63.4802797
 148 TORSION  15  2  3 16              -1.0816831     -61.9758740
 149 TORSION  15  2  3 17              -3.1281067    -179.2273113
 150 TORSION  16  3  5 21              -3.1231817    -178.9451309
 151 TORSION  16  3  5 20               1.1121143      63.7194533
 152 TORSION  17  3  5 21              -1.0761047     -61.6562567
 153 TORSION  17  3  5 20              -3.1239940    -178.9916725
 154 TORSION  18  4  6 23               1.1116591      63.6933740
 155 TORSION  18  4  6 22              -3.1242849    -179.0083374
 156 TORSION  19  4  6 23              -3.1248335    -179.0397731
 157 TORSION  19  4  6 22              -1.0775922     -61.7414845
 158 TORSION  20  5  7 25              -1.0901496     -62.4609722
 159 TORSION  20  5  7 24              -3.1233468    -178.9545879
 160 TORSION  21  5  7 25              -3.1372368    -179.7504306
 161 TORSION  21  5  7 24               1.1127513      63.7559537
 162 TORSION  22  6  8 27               1.1015010      63.1113593
 163 TORSION  22  6  8 26              -3.1287823    -179.2660205
 164 TORSION  23  6  8 27              -3.1359053    -179.6741375
 165 TORSION  23  6  8 26              -1.0830033     -62.0515173
 166 TORSION  24  7  9 29              -1.0703389     -61.3259038
 167 TORSION  24  7  9 28               3.0960923     177.3930233
 168 TORSION  25  7  9 29              -3.0847561    -176.7435050
 169 TORSION  25  7  9 28               1.0816752      61.9754221
 170 TORSION  26  8 10 32              -3.1026119    -177.7665663
 171 TORSION  26  8 10 31               1.0772980      61.7246295
 172 TORSION  26  8 10 30              -1.0129509     -58.0378105
 173 TORSION  27  8 10 32              -1.0627348     -60.8902192
 174 TORSION  27  8 10 31               3.1171751     178.6009766
 175 TORSION  27  8 10 30               1.0269262      58.8385365
 176 TORSION  28  9 11 33               1.0313868      59.0941126
 177 TORSION  29  9 11 33              -1.0348472     -59.2923761

     ------------------------------------------
     THE POINT GROUP IS C1 , NAXIS= 1, ORDER= 1
     ------------------------------------------

     DIMENSIONS OF THE SYMMETRY SUBSPACES ARE
 A   =  341

 ..... DONE SETTING UP THE RUN .....
 STEP CPU TIME =     0.04 TOTAL CPU TIME =        0.0 (    0.0 MIN)
 TOTAL WALL CLOCK TIME=        0.0 SECONDS, CPU UTILIZATION IS 100.00%


          -----------------------------
          STATIONARY POINT LOCATION RUN
          -----------------------------

 OBTAINING INITIAL HESSIAN, HESS=GUESS   
 DIAGONAL GUESS HESSIAN IN INTERNAL COORDS IS
     1  0.3418     2  0.3417     3  0.3674     4  0.3677     5  0.3417
     6  0.3418     7  0.3674     8  0.3418     9  0.3418    10  0.3677
    11  0.3678    12  0.3417    13  0.3415    14  0.3690    15  0.3419
    16  0.3420    17  0.3679    18  0.3419    19  0.3419    20  0.3415
    21  0.3415    22  0.3727    23  0.3416    24  0.3419    25  0.3746
    26  0.3434    27  0.3434    28  0.3666    29  0.3433    30  0.3433
    31  0.3434    32  0.3515    33  0.2237    34  0.2237    35  0.2237
    36  0.2237    37  0.2485    38  0.2486    39  0.2237    40  0.2237
    41  0.2237    42  0.2486    43  0.2486    44  0.2237    45  0.2237
    46  0.2237    47  0.2237    48  0.2487    49  0.2237    50  0.2237
    51  0.2237    52  0.2486    53  0.2237    54  0.2237    55  0.2237
    56  0.2237    57  0.2492    58  0.2238    59  0.2238    60  0.2237
    61  0.2237    62  0.2493    63  0.2237    64  0.2237    65  0.2238
    66  0.2441    67  0.2243    68  0.2243    69  0.2238    70  0.2244
    71  0.2244    72  0.2244    73  0.2237    74  0.2237    75  0.2145
    76  0.2241    77  0.2241    78  0.2243    79  0.2243    80  0.2196
    81  0.2196    82  0.2027    83  0.2027    84  0.2027    85  0.2027
    86  0.2027    87  0.2027    88  0.2027    89  0.2027    90  0.2030
    91  0.2030    92  0.2029    93  0.2029    94  0.2500    95  0.2500
    96  0.2500    97  0.2500    98  0.2500    99  0.2500   100  0.2500
   101  0.2500   102  0.2500   103  0.2500   104  0.2500   105  0.2500
   106  0.2500   107  0.2500   108  0.2500   109  0.2500   110  0.2500
   111  0.2500   112  0.2500   113  0.2500   114  0.2500   115  0.2500
   116  0.2500   117  0.2500   118  0.2500   119  0.2500   120  0.2500
   121  0.2500   122  0.2500   123  0.2500   124  0.2500   125  0.2500
   126  0.2500   127  0.2500   128  0.2500   129  0.2500   130  0.2500
   131  0.2500   132  0.2500   133  0.2500   134  0.2500   135  0.2500
   136  0.2500   137  0.2500   138  0.2500   139  0.2500   140  0.2500
   141  0.2500   142  0.2500   143  0.2500   144  0.2500   145  0.2500
   146  0.2500   147  0.2500   148  0.2500   149  0.2500   150  0.2500
   151  0.2500   152  0.2500   153  0.2500   154  0.2500   155  0.2500
   156  0.2500   157  0.2500   158  0.2500   159  0.2500   160  0.2500
   161  0.2500   162  0.2500   163  0.2500   164  0.2500   165  0.2500
   166  0.2500   167  0.2500   168  0.2500   169  0.2500   170  0.2500
   171  0.2500   172  0.2500   173  0.2500   174  0.2500   175  0.2500
   176  0.2500   177  0.2500
 TRANSFORMING HESSIAN TO SYMMETRY COORDINATES

          PARAMETERS CONTROLLING GEOMETRY SEARCH ARE
          METHOD =QA                  UPHESS =BFGS    
          NNEG   =         0          NFRZ   =         3
          NSTEP  =        50          IFOLOW =         1
          HESS   =GUESS               RESTAR =         F
          IHREP  =         0          HSSEND =         F
          NPRT   =         0          NPUN   =         0
          OPTTOL = 5.000E-04          RMIN   = 1.500E-03
          RMAX   = 1.000E-01          RLIM   = 7.000E-02
          DXMAX  = 3.000E-01          PURIFY =         F
          MOVIE  =         F          TRUPD  =         T
          TRMAX  = 5.000E-01          TRMIN  = 5.000E-02
          ITBMAT =         5          STPT   =         F
          STSTEP = 1.000E-02          PROJCT=          F
          FROZEN COORD(S)=   1   2   3


      ***** EQUILIBRIUM GEOMETRY LOCATED *****
            (SUBJECT TO   3 CONSTRAINT(S))
 COORDINATES OF ALL ATOMS ARE (ANGS)
   ATOM   CHARGE       X              Y              Z
 ------------------------------------------------------------
 C           6.0   3.9410036469   4.0295578650   3.3898991193
 C           6.0   5.3357866727   3.6438593533   2.8966601157
 C           6.0   5.3811594664   3.3092961742   1.4050873879
 C           6.0   3.8973988247   4.3902578377   4.8755389216
 C           6.0   6.7755905178   2.9090430383   0.9223979035
 C           6.0   2.4962600265   4.7600174607   5.3634824678
 C           6.0   6.8332569621   2.5972636370  -0.5729391939
 C           6.0   2.4428385439   5.1454622810   6.8422778601
 C           6.0   8.2221733965   2.1896819967  -1.0277487921
 C           6.0   1.0335504515   5.5011151899   7.3151329371
 O           8.0   8.1879295061   1.9293311232  -2.4145496586
 H           1.0   3.2537973062   3.2051766668   3.2015109509
 H           1.0   3.5757840993   4.8743218014   2.8065339921
 H           1.0   5.6940720658   2.7872791169   3.4669734553
 H           1.0   6.0272849439   4.4608424124   3.1008495199
 H           1.0   5.0365814480   4.1701546667   0.8331214880
 H           1.0   4.6826851034   2.4996785996   1.1961502767
 H           1.0   4.5746628755   5.2231599763   5.0627818327
 H           1.0   4.2720298387   3.5507964951   5.4607585523
 H           1.0   7.4759369822   3.7120617298   1.1488352356
 H           1.0   7.1117857909   2.0385957544   1.4844659327
 H           1.0   1.8233299219   3.9206912198   5.1893554482
 H           1.0   2.1159340099   5.5881464430   4.7658140077
 H           1.0   6.1391236888   1.7940265640  -0.8122350885
 H           1.0   6.5220674034   3.4685834966  -1.1457731241
 H           1.0   3.1056957045   5.9913564406   7.0173588241
 H           1.0   2.8275403676   4.3226221234   7.4427714146
 H           1.0   8.9331606950   2.9853152284  -0.8141317491
 H           1.0   8.5460147384   1.3017859613  -0.4884291541
 H           1.0   1.0279771936   5.7771827145   8.3659868584
 H           1.0   0.6319635992   6.3384567062   6.7492115936
 H           1.0   0.3555971173   4.6603388293   7.1883810747
 H           1.0   9.0500677555   1.6770225781  -2.7003886380


                     --------------------
                     INTERNAL COORDINATES
                     --------------------

                 - - ATOMS - -         COORDINATE      COORDINATE
 NO.   TYPE    I  J  K  L  M  N        (BOHR,RAD)       (ANG,DEG)
 ----------------------------------------------------------------
   1 STRETCH   1 12                     2.0591485       1.0896545
   2 STRETCH   1 13                     2.0591305       1.0896450
   3 STRETCH   1  2                     2.8891604       1.5288779
   4 STRETCH   1  4                     2.8901884       1.5294219
   5 STRETCH   2 14                     2.0591558       1.0896584
   6 STRETCH   2 15                     2.0591290       1.0896442
   7 STRETCH   2  3                     2.8899715       1.5293072
   8 STRETCH   3 17                     2.0588491       1.0894961
   9 STRETCH   3 16                     2.0588097       1.0894753
  10 STRETCH   3  5                     2.8892604       1.5289309
  11 STRETCH   4  6                     2.8894899       1.5290523
  12 STRETCH   4 19                     2.0593035       1.0897366
  13 STRETCH   4 18                     2.0592573       1.0897121
  14 STRETCH   5  7                     2.8886023       1.5285826
  15 STRETCH   5 21                     2.0585234       1.0893237
  16 STRETCH   5 20                     2.0584990       1.0893108
  17 STRETCH   6  8                     2.8896483       1.5291362
  18 STRETCH   6 23                     2.0594139       1.0897950
  19 STRETCH   6 22                     2.0593884       1.0897815
  20 STRETCH   7 25                     2.0563970       1.0881985
  21 STRETCH   7 24                     2.0564815       1.0882432
  22 STRETCH   7  9                     2.8671966       1.5172552
  23 STRETCH   8 27                     2.0576799       1.0888774
  24 STRETCH   8 26                     2.0576069       1.0888388
  25 STRETCH   8 10                     2.8883606       1.5284547
  26 STRETCH   9 29                     2.0563295       1.0881628
  27 STRETCH   9 28                     2.0563896       1.0881946
  28 STRETCH   9 11                     2.6672409       1.4114432
  29 STRETCH  10 32                     2.0550209       1.0874703
  30 STRETCH  10 31                     2.0550975       1.0875108
  31 STRETCH  10 30                     2.0532360       1.0865258
  32 STRETCH  11 33                     1.7814072       0.9426802
  33 BEND      1  2 14                  1.9064935     109.2340321
  34 BEND      1  2 15                  1.9064061     109.2290254
  35 BEND      1  4 19                  1.9072881     109.2795578
  36 BEND      1  4 18                  1.9065174     109.2354034
  37 BEND      1  2  3                  1.9789455     113.3852234
  38 BEND      1  4  6                  1.9748372     113.1498383
  39 BEND      2  1 12                  1.9057379     109.1907412
  40 BEND      2  3 16                  1.9068810     109.2562352
  41 BEND      2  3 17                  1.9077255     109.3046214
  42 BEND      2  3  5                  1.9738656     113.0941678
  43 BEND      2  1  4                  1.9810986     113.5085898
  44 BEND      2  1 13                  1.9056565     109.1860733
  45 BEND      3  2 15                  1.9049446     109.1452870
  46 BEND      3  5 20                  1.9047261     109.1327691
  47 BEND      3  5 21                  1.9047353     109.1332932
  48 BEND      3  5  7                  1.9786500     113.3682913
  49 BEND      3  2 14                  1.9057702     109.1925898
  50 BEND      4  6 22                  1.9056162     109.1837640
  51 BEND      4  1 12                  1.9053886     109.1707254
  52 BEND      4  6  8                  1.9840357     113.6768711
  53 BEND      4  6 23                  1.9055575     109.1803996
  54 BEND      4  1 13                  1.9046123     109.1262461
  55 BEND      5  3 17                  1.9066983     109.2457639
  56 BEND      5  3 16                  1.9066408     109.2424690
  57 BEND      5  7  9                  1.9633669     112.4926348
  58 BEND      5  7 24                  1.9194096     109.9740680
  59 BEND      5  7 25                  1.9186202     109.9288418
  60 BEND      6  4 18                  1.9069400     109.2596155
  61 BEND      6  4 19                  1.9070285     109.2646822
  62 BEND      6  8 10                  1.9714803     112.9575009
  63 BEND      6  8 26                  1.9071631     109.2723965
  64 BEND      6  8 27                  1.9076296     109.2991257
  65 BEND      7  5 21                  1.9072376     109.2766643
  66 BEND      7  9 11                  1.8984962     108.7758201
[...]
 901   8   2.759015   6.360161  13.583075   0.000404   0.201627   0.002004
 902   9  13.428116   1.122454  -2.953014   0.000518   0.094802   0.005461
 903  11  13.480858   1.150971  -3.422075   0.001226   0.094802   0.012930
 904  24  12.720964   1.271265  -2.778617   0.000231   0.094802   0.002437
 905   9  14.821808   7.184031  -4.127546   0.000541   0.094989   0.005698
 906  11  14.819119   6.971907  -4.550192   0.001395   0.094989   0.014686
 907  25  14.133225   7.417662  -3.973867   0.000141   0.094989   0.001487
 908   9  18.118557   5.752334  -4.323697  -0.000126   0.038597  -0.003269
 909  11  18.059178   5.628767  -4.774323  -0.000121   0.038597  -0.003133
 910  33  18.267756   5.402245  -4.868046  -0.000356   0.038597  -0.009233
 911   9  17.000753   0.861110  -3.377804  -0.000128   0.038597  -0.003325
 912  11  16.962344   0.829304  -3.846175  -0.000134   0.038597  -0.003483
 913  33  17.238344   0.897801  -3.996950  -0.000390   0.038597  -0.010099
 914  11  16.440913   0.651779  -3.741400   0.000719   0.162281   0.004432
 915  11  14.789766   0.684519  -3.706773   0.004798   0.335787   0.014289
 916   9  15.837243   0.613943  -3.042449   0.001428   0.348712   0.004096
 917   9  14.132703   0.785952  -3.032650   0.001306   0.177547   0.007354
 918  11  15.563306   6.880606  -4.889143   0.002401   0.161826   0.014837
 919  11  17.115075   6.330885  -4.824256   0.003091   0.334763   0.009234
 920   9  16.218160   6.960248  -4.243326   0.002489   0.347744   0.007156
 921   9  17.775345   6.262731  -4.150826   0.000172   0.177049   0.000972
 922   9  17.331189   5.643043   1.110490  -0.000256   0.088633  -0.002894
 923  20  16.775964   6.185051   1.734354  -0.000087   0.088633  -0.000985
 924  28  17.456939   5.881193   0.963224  -0.000356   0.088633  -0.004014
 925   9  17.393212   5.550282   1.314597   0.000051   0.007141   0.007100
 926   9  16.801893   3.217359   1.572040  -0.000307   0.088213  -0.003479
 927  21  16.132329   3.234410   2.304174  -0.000092   0.088213  -0.001045
 928  29  16.800549   2.913292   1.530436  -0.000394   0.088213  -0.004465
 929  21  16.003554   3.387902   2.878060   0.000037   0.031304   0.001196
 930   9  16.926661   3.407504   1.741126   0.000093   0.044441   0.002084
 931  24  12.356098   1.114266  -1.962723  -0.000838   0.295869  -0.002833
 932   9  13.468443   0.919122  -1.820168   0.000221   0.416484   0.000530
 933  25  13.996010   8.098453  -3.046637  -0.000774   0.289090  -0.002677
 934   9  14.970732   7.634884  -3.402985   0.000326   0.406997   0.000802
 935   9  18.697637   5.422483  -3.589869  -0.000101   0.006485  -0.015502
 936  28  18.711078   5.630264  -3.369789  -0.000074   0.006485  -0.011401
 937  33  18.731694   5.068858  -4.149171  -0.000185   0.006485  -0.028568
 938   9  18.465559   5.682073  -3.784304  -0.000068   0.006485  -0.010535
 939  28  18.502427   5.863651  -3.544597  -0.000076   0.006485  -0.011776
 940  33  18.526016   5.298919  -4.321488  -0.000153   0.006485  -0.023650
 941  28  18.064787   5.616514   0.615627  -0.000284   0.067356  -0.004220
 942  28  18.758004   5.189217  -0.100149  -0.000466   0.148587  -0.003139
 943  28  19.218870   5.106596  -1.326360  -0.000508   0.148587  -0.003422
 944  28  19.066907   5.569605  -2.545108  -0.000682   0.148587  -0.004589
 945   9  18.212180   5.055496   0.500787  -0.000389   0.148583  -0.002619
 946   9  19.013259   4.654152  -0.670657  -0.000272   0.148583  -0.001832
 947   9  19.195958   4.879130  -2.116717  -0.000497   0.148583  -0.003345
 948   9  18.887800   5.427793  -3.134617  -0.000332   0.082290  -0.004036
 949  28  18.400226   6.374096  -3.322566  -0.000297   0.071573  -0.004155
 950  28  17.541103   7.134448  -3.295104  -0.000584   0.159915  -0.003652
 951  28  16.578192   7.794699  -2.549348  -0.000639   0.159915  -0.003995
 952   9  17.902289   6.450363  -3.663149  -0.000643   0.155972  -0.004124
 953   9  16.727224   7.401817  -3.295886  -0.000428   0.155972  -0.002741
 954   9  15.943198   7.866292  -2.416340  -0.000152   0.087442  -0.001735
 955  29  17.810452   0.983867  -1.973708  -0.000319   0.067447  -0.004735
 956  29  18.371511   1.607211  -1.284367  -0.000592   0.148830  -0.003977
 957  29  18.431444   2.304655  -0.172125  -0.000440   0.148830  -0.002953
 958  29  17.734519   2.686293   0.874656  -0.000655   0.148830  -0.004403
 959   9  18.144688   1.463867  -2.062929  -0.000690   0.148744  -0.004642
 960   9  18.649400   2.314109  -0.966204  -0.000364   0.148744  -0.002445
 961   9  18.272602   2.952416   0.310918  -0.000287   0.148744  -0.001929
 962   9  17.465838   3.178508   1.167573  -0.000263   0.082401  -0.003187
 963  29  14.621958   0.543972  -0.783357  -0.000183   0.072289  -0.002534
 964  29  15.375927   0.304948  -1.629601  -0.000577   0.161882  -0.003564
 965  29  16.666021   0.463435  -2.143329  -0.000746   0.161882  -0.004610
 966   9  14.591887   0.575121  -1.392787  -0.000486   0.157199  -0.003094
 967   9  15.828927   0.444867  -2.350024  -0.000482   0.157199  -0.003066
 968   9  17.047786   0.736322  -2.602068  -0.000313   0.088317  -0.003546
 969  33  18.523444   5.284618  -4.848236  -0.000557   0.081455  -0.006838
 970   9  18.393909   5.736133  -4.024112  -0.000237   0.099515  -0.002385
 971  33  19.041229   4.632222  -4.391990  -0.002541   0.189641  -0.013398
 972  33  19.229719   3.340416  -3.902754  -0.007064   0.393886  -0.017933
 973  33  18.599509   1.791873  -3.740056  -0.006263   0.393886  -0.015901
 974   9  19.035331   4.490260  -3.324768  -0.003504   0.448485  -0.007813
 975   9  18.904170   2.674235  -2.833074  -0.004024   0.448485  -0.008973
 976   9  18.071685   1.380589  -2.848621  -0.001242   0.231688  -0.005361
 977  33  17.615076   0.934067  -3.964397  -0.000707   0.087539  -0.008072
 978   9  17.227492   0.845818  -3.102559  -0.000255   0.106949  -0.002387
 979  10   0.173228   8.572762  10.943704   0.000113   0.088132   0.001285
 980  22   0.751515   8.043993  10.326327   0.000230   0.088132   0.002611
 981  32   0.063563   8.344207  11.115996  -0.000087   0.088132  -0.000984
 982  22   0.884165   7.894453   9.734878   0.000088   0.045373   0.001929
 983  10   0.118698   8.726542  10.678496   0.000287   0.064447   0.004446
 984  10   0.608488  11.069965  10.284193   0.000107   0.088553   0.001213
 985  23   1.276503  11.052805   9.539751   0.000213   0.088553   0.002405
 986  31   0.584367  11.373733  10.317708  -0.000016   0.088553  -0.000181
 987  23   1.408698  10.879355   8.961005   0.000028   0.020754   0.001326
 988  10   0.499868  10.906895  10.124251   0.000147   0.029488   0.004981
 989  26   4.924243  13.616732  13.196591  -0.000152   0.217102  -0.000699
 990  26   5.245271  13.140870  14.647114  -0.001145   0.447119  -0.002562
 991  10   3.960229  13.579552  13.993951   0.000956   0.592130   0.001615
 992  10   4.353840  12.875109  15.573242   0.000731   0.305831   0.002391
 993  27   4.569767   7.935927  16.412173  -0.000167   0.217032  -0.000770
 994  27   3.937556   6.870906  15.464658  -0.001143   0.446959  -0.002558
 995  10   3.320830   7.938209  16.330920   0.001003   0.591952   0.001694
 996  10   2.672885   6.820377  15.116975   0.000745   0.305732   0.002435
 997  30   3.664676  12.462115  16.634676  -0.000084   0.069508  -0.001207
 998  30   2.748370  13.082660  16.466785  -0.000290   0.154486  -0.001877
 999  30   1.398708  13.171503  16.436277  -0.000136   0.154486  -0.000878
1000  30   0.274136  12.442580  16.621803  -0.000265   0.154486  -0.001714
1001  30  -0.154681  11.200965  16.945714  -0.000297   0.154486  -0.001921
1002  30   0.291728   9.966308  17.272445  -0.000183   0.154486  -0.001185
1003  30   1.426528   9.255348  17.465249  -0.000215   0.154486  -0.001394
1004  30   2.774775   9.365641  17.443434  -0.000322   0.154486  -0.002081
1005  10   3.501474  12.830476  16.190469  -0.000144   0.152215  -0.000943
1006  10   2.100904  13.399283  16.033599   0.000088   0.152215   0.000576
1007  10   0.632256  13.019346  16.125614   0.000087   0.152215   0.000571
1008  10  -0.289800  11.849680  16.428004  -0.000055   0.152215  -0.000360
1009  10  -0.279358  10.379823  16.814210  -0.000026   0.152215  -0.000173
1010  10   0.659211   9.224949  17.122594   0.000101   0.152215   0.000664
1011  10   2.133091   8.868407  17.224089  -0.000107   0.152215  -0.000704
1012  10   3.319106   9.204292  17.142146   0.000048   0.084919   0.000571
1013  31  -0.057390  11.514823  10.690426  -0.000035   0.067683  -0.000516
1014  31  -0.812227  11.673517  11.460883  -0.000105   0.149514  -0.000704
1015  31  -1.190617  12.251742  12.584945  -0.000209   0.149514  -0.001400
1016  31  -0.797665  13.081000  13.533078  -0.000251   0.149514  -0.001681
1017  31   0.211136  13.833152  13.930101  -0.000132   0.149514  -0.000885
1018  31   1.436597  14.210567  13.618910  -0.000187   0.149514  -0.001251
1019  31   2.393800  14.063900  12.722646  -0.000308   0.149514  -0.002060
1020  10  -0.384839  11.133966  11.004791   0.000074   0.149099   0.000496
1021  10  -1.200596  11.534396  12.176152   0.000044   0.149099   0.000297
1022  10  -1.191978  12.367371  13.402516  -0.000009   0.149099  -0.000058
1023  10  -0.362394  13.303280  14.198605   0.000011   0.149099   0.000076
1024  10   0.959884  13.971778  14.249403   0.000044   0.149099   0.000293
1025  10   2.251626  14.108339  13.534808   0.000044   0.149099   0.000296
1026  10   2.972776  13.830761  12.612355   0.000008   0.082689   0.000100
1027  32   1.408409   6.577560  14.311296  -0.000099   0.067523  -0.001469
1028  32   0.786868   6.956906  15.119519  -0.000244   0.149096  -0.001639
1029  32  -0.216565   7.704122  15.530213  -0.000109   0.149096  -0.000732
1030  32  -1.159676   8.526436  15.120064  -0.000239   0.149096  -0.001604
1031  32  -1.670925   9.099898  14.050651  -0.000240   0.149096  -0.001609
1032  32  -1.548907   9.198593  12.743268  -0.000170   0.149096  -0.001143
1033  32  -0.841690   8.783639  11.712958  -0.000132   0.149096  -0.000887
1034  10   1.547706   6.821115  14.832478  -0.000106   0.148813  -0.000711
1035  10   0.558476   7.486741  15.708431   0.000147   0.148813   0.000989
1036  10  -0.593263   8.415408  15.708754   0.000141   0.148813   0.000949
1037  10  -1.453786   9.241267  14.833320  -0.000043   0.148813  -0.000288
1038  10  -1.684088   9.638971  13.427006  -0.000063   0.148813  -0.000422
1039  10  -1.193442   9.451845  12.043830   0.000189   0.148813   0.001267
1040  10  -0.428914   8.952945  11.263833   0.000185   0.082495   0.002248
1041  24  11.214258   2.696761  -4.017234   0.000454   0.277592   0.001636
1042  24  11.831947   1.627554  -3.317711  -0.000114   0.560130  -0.000203
1043  11  12.447892   2.208447  -4.803171   0.009579   0.683349   0.014017
1044  11  13.184411   1.147566  -3.951002   0.004264   0.344799   0.012367
1045  25  13.556517   7.582390  -4.216934   0.000017   0.281078   0.000061
1046  25  12.461047   6.766744  -4.665724   0.000262   0.567403   0.000462
1047  11  14.045916   6.591707  -5.291695   0.009560   0.691636   0.013822
1048  11  12.871901   5.617871  -5.651699   0.004632   0.349043   0.013271
1049  33  17.255405   0.783023  -4.555231  -0.000492   0.083812  -0.005868
1050  33  16.891077   0.882058  -5.741507  -0.001611   0.182251  -0.008837
1051  33  16.733119   1.738098  -6.973526  -0.001997   0.182251  -0.010956
1052  33  16.973640   3.137389  -7.483195  -0.002028   0.182251  -0.011126
1053  33  17.509514   4.479970  -7.051986  -0.001736   0.182251  -0.009524
1054  33  18.110980   5.190198  -5.864786  -0.001581   0.182251  -0.008675
1055  11  16.680136   0.716310  -4.865083  -0.000459   0.179254  -0.002563
1056  11  16.309942   1.175308  -6.386777  -0.000685   0.179254  -0.003819
1057  11  16.357206   2.466402  -7.383829  -0.001238   0.179254  -0.006908
1058  11  16.801664   4.036024  -7.428745  -0.001043   0.179254  -0.005818
1059  11  17.452750   5.211182  -6.502265  -0.000580   0.179254  -0.003238
1060  11  17.953883   5.596904  -5.331251  -0.000278   0.095962  -0.002895
1061  17   7.579571   3.142956   4.019205   0.000150   0.252594   0.000593
1062  17   6.770999   3.507779   3.314720  -0.000283   0.505064  -0.000560
1063  17   6.245370   4.548161   2.574175   0.000113   0.505064   0.000223
1064  12   6.398545   3.679662   4.957112  -0.000117   0.505064  -0.000232
1065  12   5.560044   4.380728   4.113009  -0.000124   0.505064  -0.000246
1066  12   5.316798   5.358658   3.595642   0.000422   0.252594   0.001669
1067  22   2.614874   6.659328   7.369004   0.000432   0.253091   0.001707
1068  22   2.875498   5.689556   7.905610  -0.000113   0.506074  -0.000223
1069  22   3.732209   5.015872   8.764591  -0.000112   0.506074  -0.000222
1070  12   3.550677   5.845292   6.366062   0.000158   0.506074   0.000312
1071  12   4.097258   4.822129   7.127663  -0.000236   0.506074  -0.000467
1072  12   4.918334   4.483920   7.840249   0.000170   0.253091   0.000670
1073  16   6.962348   8.694811   1.521704   0.000405   0.253044   0.001601
1074  16   7.574645   9.646465   1.635374  -0.000179   0.505975  -0.000354
1075  16   8.662976  10.279864   2.214985  -0.000161   0.505975  -0.000318
1076  13   6.299007   9.496027   2.733141   0.000144   0.505975   0.000285
1077  13   7.211488  10.488922   3.054303  -0.000244   0.505975  -0.000482
1078  13   8.141562  10.790934   3.635014   0.000170   0.253044   0.000671
1079  23   5.350125  12.134774   7.308872   0.000171   0.253704   0.000674
1080  23   4.418111  11.805073   6.734552  -0.000237   0.507313  -0.000467
1081  23   3.518308  10.784198   6.436049   0.000154   0.507313   0.000304
1082  13   5.869337  11.607461   5.899487  -0.000118   0.507313  -0.000233
1083  13   4.784424  10.941135   5.333885  -0.000125   0.507313  -0.000247
1084  13   4.186971   9.970640   5.242307   0.000431   0.253704   0.001699
1085  19   8.545121   4.200158   9.491702   0.000177   0.252465   0.000701
1086  19   9.483267   4.508325  10.042809  -0.000219   0.504800  -0.000435
1087  19  10.404704   5.495159  10.322104   0.000179   0.504800   0.000355
1088  14   9.760947   3.831205   8.514354  -0.000109   0.504800  -0.000216
1089  14  10.858962   4.466744   9.054118  -0.000118   0.504800  -0.000234
1090  14  11.478067   5.409630   9.134608   0.000431   0.252465   0.001707
1091  21  14.147449   3.941589   5.390283   0.000343   0.252856   0.001355
1092  21  13.510371   3.003792   5.288851  -0.000302   0.505606  -0.000597
1093  21  12.399365   2.393777   4.724723  -0.000296   0.505606  -0.000585
1094  14  13.070103   4.019005   6.562450   0.000108   0.505606   0.000213
1095  14  12.129270   3.046263   6.256995  -0.000301   0.505606  -0.000595
1096  14  11.184660   2.763971   5.688098   0.000143   0.252856   0.000564
1097  18  11.317649   9.650522   9.484391   0.000435   0.253248   0.001718
1098  18  11.082626  10.617577   8.934624  -0.000116   0.506379  -0.000228
1099  18  10.252797  11.296315   8.056488  -0.000101   0.506379  -0.000199
1100  15  12.125608   9.574358   8.106976   0.000152   0.506379   0.000301
1101  15  11.609723  10.597437   7.327490  -0.000238   0.506379  -0.000470
1102  15  10.807385  10.942250   6.599457   0.000172   0.253248   0.000678
1103  20  13.580401   9.524428   2.937611   0.000088   0.253520   0.000347
1104  20  14.375957   9.153643   3.670250  -0.000417   0.506947  -0.000823
1105  20  14.870143   8.102894   4.440064  -0.000037   0.506947  -0.000072
1106  15  13.026687   9.860265   4.390433  -0.000185   0.506947  -0.000364
1107  15  13.842606   9.150063   5.268384  -0.000191   0.506947  -0.000378
1108  15  14.056673   8.163786   5.805582   0.000401   0.253520   0.001580
1109  25   9.790406   7.442009  -2.229817   0.000329   0.251044   0.001309
1110  25  10.415242   8.363642  -2.087520  -0.000360   0.501943  -0.000717
1111  25  11.493540   8.958133  -1.488845  -0.000301   0.501943  -0.000599
1112  16   9.117392   8.230743  -1.002888   0.000029   0.501943   0.000057
1113  16  10.035032   9.184407  -0.652150  -0.000339   0.501943  -0.000676
1114  16  10.950094   9.457199  -0.061959   0.000121   0.251044   0.000483
1115  24  10.270572   1.813641   0.186821   0.000089   0.252721   0.000350
1116  24   9.483519   2.201234  -0.520116  -0.000434   0.505291  -0.000858
1117  24   8.988115   3.254813  -1.249550  -0.000084   0.505291  -0.000166
1118  17   9.080300   2.359865   1.125897  -0.000213   0.505291  -0.000421
1119  17   8.270681   3.083741   0.284442  -0.000229   0.505291  -0.000453
1120  17   8.051274   4.066958  -0.220123   0.000381   0.252721   0.001509
1121  26   8.545946  11.146712  13.177382   0.000415   0.253362   0.001637
1122  26   8.294556  12.099797  12.613866  -0.000148   0.506601  -0.000291
1123  26   7.454582  12.750285  11.726926  -0.000134   0.506601  -0.000264
1124  18   9.357382  11.062138  11.798681   0.000167   0.506601   0.000331
1125  18   8.824752  12.063014  11.005015  -0.000234   0.506601  -0.000462
1126  18   8.018005  12.382962  10.272956   0.000174   0.253362   0.000685
1127  27   5.869627   5.654764  13.279531   0.000162   0.252587   0.000641
1128  27   6.798905   5.990627  13.825998  -0.000248   0.505035  -0.000491
1129  27   7.699030   6.998479  14.089538   0.000154   0.505035   0.000306
1130  19   7.096261   5.291602  12.307657  -0.000096   0.505035  -0.000191
1131  19   8.178813   5.957034  12.837492  -0.000113   0.505035  -0.000224
1132  19   8.778501   6.911545  12.902844   0.000435   0.252587   0.001722
1133  28  16.351906   8.140506  -0.721942  -0.000213   0.253254  -0.000842
1134  28  17.136952   7.749384   0.005647  -0.001153   0.506402  -0.002276
1135  28  17.616638   6.683821   0.756243  -0.000975   0.506402  -0.001926
1136  20  15.788929   8.455167   0.736411  -0.000581   0.506402  -0.001148
1137  20  16.590815   7.723351   1.602634  -0.000653   0.506402  -0.001290
1138  20  16.793582   6.729084   2.121263   0.000125   0.253254   0.000494
1139  29  16.815191   2.475776   1.674878  -0.000187   0.251025  -0.000745
1140  29  16.164577   1.559532   1.544094  -0.001206   0.501939  -0.002402
1141  29  15.058261   0.983569   0.954945  -0.001010   0.501939  -0.002013
1142  21  15.722017   2.553793   2.829734  -0.000407   0.501939  -0.000810
1143  21  14.772896   1.611664   2.491612  -0.000729   0.501939  -0.001453
1144  21  13.838238   1.357068   1.907231  -0.000037   0.251025  -0.000148
1145  32  -0.121990   7.930955  11.168365   0.000333   0.248617   0.001338
1146  32   0.164977   7.014311  11.718230  -0.000257   0.497059  -0.000518
1147  32   1.013385   6.397358  12.569431  -0.000277   0.497059  -0.000558
1148  22   0.849078   7.122106  10.163022   0.000136   0.497059   0.000274
1149  22   1.411858   6.163640  10.930870  -0.000230   0.497059  -0.000464
1150  22   2.214631   5.863723  11.631258   0.000174   0.248617   0.000699
1151  31   2.528548  13.514881  10.996765   0.000071   0.251013   0.000282
1152  31   1.619387  13.174677  10.445232  -0.000385   0.501859  -0.000768
1153  31   0.739594  12.173105  10.165863   0.000042   0.501859   0.000084
1154  23   3.072629  12.959550   9.579928  -0.000114   0.501859  -0.000228
1155  23   2.014213  12.293686   9.039918  -0.000140   0.501859  -0.000279
1156  23   1.427673  11.347141   8.959141   0.000355   0.251013   0.001414
1157  33  18.796028   5.146231  -4.558358  -0.000492   0.112717  -0.004362
1158  28  18.767822   5.880293  -3.398215  -0.000026   0.112717  -0.000227
1159  33  17.898614   1.026086  -3.739467  -0.000657   0.092309  -0.007115
1160  29  17.548809   0.774684  -2.435632  -0.000058   0.092309  -0.000629
 =====================================================

             10388939  WORDS OF DYNAMIC MEMORY USED
 EXECUTION OF GAMESS TERMINATED NORMALLY Tue Nov 22 21:54:19 2016
 DDI: 263640 bytes (0.3 MB / 0 MWords) used by master data server.

 ----------------------------------------
 CPU timing information for all processes
 ========================================
 0: 3035.904 + 0.908 = 3036.812
 ----------------------------------------
 ddikick.x: exited gracefully.
