----- GAMESS execution script -----

          ******************************************************
          *         GAMESS VERSION =  5 DEC 2014 (R1)          *
          *             FROM IOWA STATE UNIVERSITY             *
          * M.W.SCHMIDT, K.K.BALDRIDGE, J.A.BOATZ, S.T.ELBERT, *
          *   M.S.GORDON, J.H.JENSEN, S.KOSEKI, N.MATSUNAGA,   *
          *          K.A.NGUYEN, S.J.SU, T.L.WINDUS,           *
          *       TOGETHER WITH M.DUPUIS, J.A.MONTGOMERY       *
          *         J.COMPUT.CHEM.  14, 1347-1363(1993)        *
          **************** 64 BIT LINUX VERSION ****************

 EXECUTION OF GAMESS BEGUN Tue Nov 22 21:47:34 2016

            ECHO OF THE FIRST FEW INPUT CARDS -
 INPUT CARD>! SELECT RESTRICTED HARTREE-FOCK AS DEFAULT                                     
 INPUT CARD>$contrl scftyp=rhf $end                                                         
 INPUT CARD>                                                                                
 INPUT CARD>! THEORY: HF OR DFT                                                             
 INPUT CARD> $contrl mplevl=0 $end                                                          
 INPUT CARD>                                                                                
 INPUT CARD> $system timlim=10000 mwords=20 $end                                            
 INPUT CARD> $SCF DIRSCF=.TRUE. $end                                                        
 INPUT CARD>                                                                                
 INPUT CARD>                                                                                
 INPUT CARD>! BASIS SETS                                                                    
 INPUT CARD>! 6-311G(d,p)                                                                   
 INPUT CARD> $BASIS GBASIS=N311 NGAUSS=6 NDFUNC=1 NPFUNC=1 $END                             
 INPUT CARD>                                                                                
 INPUT CARD>! One of the following                                                          
 INPUT CARD> $guess guess=HUCKEL $end                                                       
 INPUT CARD>                                                                                
 INPUT CARD> $statpt projct=.FALSE. $end                                                    
 INPUT CARD> $STATPT IFREEZ(1)=1,2,3 $END                                                   
 INPUT CARD>                                                                                
 INPUT CARD>! Optimize the geometry with COSMO effects                                      
 INPUT CARD> $statpt opttol=0.0005 nstep=50 $end                                            
 INPUT CARD> $contrl nzvar=1 $end                                                           
 INPUT CARD> $zmat dlc=.t. auto=.t. $end                                                    
 INPUT CARD> $contrl runtyp=OPTIMIZE maxit=200 $end                                         
 INPUT CARD>                                                                                
 INPUT CARD>! Run COSMO on perfect conductor                                                
 INPUT CARD> $COSGMS PRFCND=.TRUE. $end                                                     
 INPUT CARD>                                                                                
 INPUT CARD>! Specifying RSOLV                                                              
 INPUT CARD> $COSGMS COSRAD = 1.4 $end                                                      
 INPUT CARD>                                                                                
 INPUT CARD>! available memory                                                              
 INPUT CARD> $SYSTEM MWORDS=40 $END                                                         
 INPUT CARD>                                                                                
 INPUT CARD> $DATA                                                                          
 INPUT CARD>1-Dodecene, ID: C112414                                                         
 INPUT CARD>C1                                                                              
 INPUT CARD>C      6.0      7.9190000000    3.9493000000    1.6737000000                    
 INPUT CARD>C      6.0      8.7438000000    2.7649000000    1.1966000000                    
 INPUT CARD>C      6.0     10.2060000000    2.9189000000    1.5827000000                    
 INPUT CARD>C      6.0     11.0305000000    1.7340000000    1.1015000000                    
 INPUT CARD>C      6.0     12.4661000000    1.9012000000    1.4573000000                    
 INPUT CARD>C      6.0     13.1777000000    0.9608000000    2.0672000000                    
 INPUT CARD>C      6.0      6.4546000000    3.7897000000    1.2986000000                    
 INPUT CARD>C      6.0      5.6319000000    4.9804000000    1.7640000000                    
 INPUT CARD>C      6.0      4.1653000000    4.8147000000    1.4003000000                    
 INPUT CARD>C      6.0      3.3445000000    6.0103000000    1.8555000000                    
 INPUT CARD>C      6.0      1.8764000000    5.8443000000    1.4970000000                    
 INPUT CARD>C      6.0      1.0590000000    7.0349000000    1.9446000000                    
   40000000 WORDS OF MEMORY AVAILABLE

     BASIS OPTIONS
     -------------
     GBASIS=N311         IGAUSS=       6      POLAR=POPN311 
     NDFUNC=       1     NFFUNC=       0     DIFFSP=       F
     NPFUNC=       1      DIFFS=       F     BASNAM=        


     RUN TITLE
     ---------
 1-Dodecene, ID: C112414                                                         

 THE POINT GROUP OF THE MOLECULE IS C1      
 THE ORDER OF THE PRINCIPAL AXIS IS     0

 ATOM      ATOMIC                      COORDINATES (BOHR)
           CHARGE         X                   Y                   Z
 C           6.0    14.9647400968        7.4630948433        3.1628343857
 C           6.0    16.5233860914        5.2249033835        2.2612461169
 C           6.0    19.2865434307        5.5159211856        2.9908693208
 C           6.0    20.8446225076        3.2767848627        2.0815331755
 C           6.0    23.5575131355        3.5927470479        2.7538976819
 C           6.0    24.9022421484        1.8156487290        3.9064415618
 C           6.0    12.1974253603        7.1614945757        2.4539981677
 C           6.0    10.6427477903        9.4115913092        3.3334766423
 C           6.0     7.8712756567        9.0984637131        2.6461833006
 C           6.0     6.3201885659       11.3578201040        3.5063865702
 C           6.0     3.5458818434       11.0441255900        2.8289198036
 C           6.0     2.0012198210       13.2940333510        3.6747611557
 H           1.0    15.7230871356        9.2379254910        2.3474176219
 H           1.0    15.1518229696        7.6753110717        5.2388873558
 H           1.0    16.3491533554        5.0219468124        0.1831144482
 H           1.0    15.7548345322        3.4487499276        3.0640017165
 H           1.0    19.4630438379        5.7077283733        5.0690009895
 H           1.0    20.0537721817        7.2960430660        2.1954836525
 H           1.0    20.6923105930        3.0859225379        0.0000000000
 H           1.0    20.0715356060        1.4962850371        2.8714386383
 H           1.0    24.4118582546        5.4066950235        2.2274200217
 H           1.0    26.8866434081        2.0556439294        4.3686685384
 H           1.0    24.1242419593        0.0000000000        4.4673122350
 H           1.0    11.4345429791        5.3964905031        3.2862334926
 H           1.0    12.0105314602        6.9296251970        0.3798349235
 H           1.0    11.3948587334       11.1745166832        2.4876352902
 H           1.0    10.8426807998        9.6534762357        5.4048052975
 H           1.0     7.1153852616        7.3432862157        3.5056306798
 H           1.0     7.6715316198        8.8399491980        0.5767443715
 H           1.0     7.0707877283       13.1129976014        2.6424038486
 H           1.0     6.5233341096       11.6206809889        5.5748806364
 H           1.0     2.7945267906        9.2932944624        3.6989496484
 H           1.0     3.3433032175       10.7738947738        0.7623154634
 H           1.0     2.6575216565       15.0509116018        2.7864009689
 H           1.0     2.1078003667       13.5669097837        5.7292712496
 H           1.0     0.0000000000       13.0610301367        3.1838103441

          INTERNUCLEAR DISTANCES (ANGS.)




     $CONTRL OPTIONS
     ---------------
 SCFTYP=RHF          RUNTYP=OPTIMIZE     EXETYP=RUN     
 MPLEVL=       0     CITYP =NONE         CCTYP =NONE         VBTYP =NONE    
 DFTTYP=NONE         TDDFT =NONE    
 MULT  =       1     ICHARG=       0     NZVAR =       1     COORD =UNIQUE  
 PP    =NONE         RELWFN=NONE         LOCAL =NONE         NUMGRD=       F
 ISPHER=      -1     NOSYM =       0     MAXIT =     200     UNITS =ANGS    
 PLTORB=       F     MOLPLT=       F     AIMPAC=       F     FRIEND=        
 NPRINT=       7     IREST =       0     GEOM  =INPUT   
 NORMF =       0     NORMP =       0     ITOL  =      20     ICUT  =       9
 INTTYP=BEST         GRDTYP=BEST         QMTTOL= 1.0E-06

     $SYSTEM OPTIONS
     ---------------
  REPLICATED MEMORY=    40000000 WORDS (ON EVERY NODE).
 DISTRIBUTED MEMDDI=           0 MILLION WORDS IN AGGREGATE,
 MEMDDI DISTRIBUTED OVER   1 PROCESSORS IS           0 WORDS/PROCESSOR.
 TOTAL MEMORY REQUESTED ON EACH PROCESSOR=    40000000 WORDS.
 TIMLIM=       10000.00 MINUTES, OR       6.9 DAYS.
 PARALL= F  BALTYP=  DLB     KDIAG=    0  COREFL= F
 MXSEQ2=     300 MXSEQ3=     150  mem10=         0

     $COSGMS OPTIONS
     ---------------
     EPSI  =   INFTY     NSPA  =      92     COSRAD=    1.40
     DISEX =   10.00     OUTCHG=DBLCAV       COSBUG=       F
     COSWRT=       F     DCOSMO=       F

     SYMMETRY COORDINATES WILL NOT BE USED FOR 
     THE COSMO CALCULATION, EVEN IF SPECIFIED:
         -- SWITCHING TO C1 POINT GROUP --


     DEFINITION OF CAVITY
     ---------------------------
     ATOM         COORDINATES           RADIUS 
     1   14.9647    7.4631    3.1628    2.0000
     2   16.5234    5.2249    2.2612    2.0000
     3   19.2865    5.5159    2.9909    2.0000
     4   20.8446    3.2768    2.0815    2.0000
     5   23.5575    3.5927    2.7539    2.0000
     6   24.9022    1.8156    3.9064    2.0000
     7   12.1974    7.1615    2.4540    2.0000
     8   10.6427    9.4116    3.3335    2.0000
     9    7.8713    9.0985    2.6462    2.0000
    10    6.3202   11.3578    3.5064    2.0000
    11    3.5459   11.0441    2.8289    2.0000
    12    2.0012   13.2940    3.6748    2.0000
    13   15.7231    9.2379    2.3474    1.3000
    14   15.1518    7.6753    5.2389    1.3000
    15   16.3492    5.0219    0.1831    1.3000
    16   15.7548    3.4487    3.0640    1.3000
    17   19.4630    5.7077    5.0690    1.3000
    18   20.0538    7.2960    2.1955    1.3000
    19   20.6923    3.0859    0.0000    1.3000
    20   20.0715    1.4963    2.8714    1.3000
    21   24.4119    5.4067    2.2274    1.3000
    22   26.8866    2.0556    4.3687    1.3000
    23   24.1242    0.0000    4.4673    1.3000
    24   11.4345    5.3965    3.2862    1.3000
    25   12.0105    6.9296    0.3798    1.3000
    26   11.3949   11.1745    2.4876    1.3000
    27   10.8427    9.6535    5.4048    1.3000
    28    7.1154    7.3433    3.5056    1.3000
    29    7.6715    8.8399    0.5767    1.3000
    30    7.0708   13.1130    2.6424    1.3000
    31    6.5233   11.6207    5.5749    1.3000
    32    2.7945    9.2933    3.6989    1.3000
    33    3.3433   10.7739    0.7623    1.3000
    34    2.6575   15.0509    2.7864    1.3000
    35    2.1078   13.5669    5.7293    1.3000
    36    0.0000   13.0610    3.1838    1.3000

          ----------------
          PROPERTIES INPUT
          ----------------

     MOMENTS            FIELD           POTENTIAL          DENSITY
 IEMOM =       1   IEFLD =       0   IEPOT =       0   IEDEN =       0
 WHERE =COMASS     WHERE =NUCLEI     WHERE =NUCLEI     WHERE =NUCLEI  
 OUTPUT=BOTH       OUTPUT=BOTH       OUTPUT=BOTH       OUTPUT=BOTH    
 IEMINT=       0   IEFINT=       0                     IEDINT=       0
                                                       MORB  =       0
          EXTRAPOLATION IN EFFECT
          SOSCF IN EFFECT
 ORBITAL PRINTING OPTION: NPREO=     1   372     2     1

     -------------------------------
     INTEGRAL TRANSFORMATION OPTIONS
     -------------------------------
     NWORD  =            0
     CUTOFF = 1.0E-09     MPTRAN =       0
     DIRTRF =       T     AOINTS =DUP     

          ----------------------
          INTEGRAL INPUT OPTIONS
          ----------------------
 NOPK  =       1 NORDER=       0 SCHWRZ=       T


 -----------------------------------------------
  STATISTICS ON AUTOMATIC COORDINATE GENERATION 
 -----------------------------------------------
  NUMBER OF USER SPECIFIED BONDS                             0
  NUMBER OF BONDS                                           35
  NUMBER OF ANGLES                                          66
  NUMBER OF TORSIONS                                        91
  NUMBER OF EXTRA COORD.                                     0
  NUMBER OF EXTRA COORD. FOR CONSTRAINTS                     0
  NUMBER OF CONSTRAINED COORD.                               0

  TOTAL NUMBER OF PRIMITIVES                               192
 -----------------------------------------------

   --- ENCODED Z MATRIX ---
 COORD  TYPE   I   J   K   L   M   N
    1      1    1   7
    2      1    1  14
    3      1    1  13
    4      1    1   2
    5      1    2   3
    6      1    2  15
    7      1    2  16
    8      1    3   4
    9      1    3  18
   10      1    3  17
   11      1    4  20
   12      1    4  19
   13      1    4   5
   14      1    5   6
   15      1    5  21
   16      1    6  23
   17      1    6  22
   18      1    7   8
   19      1    7  25
   20      1    7  24
   21      1    8  27
   22      1    8  26
   23      1    8   9
   24      1    9  29
   25      1    9  28
   26      1    9  10
   27      1   10  31
   28      1   10  30
   29      1   10  11
   30      1   11  32
   31      1   11  12
   32      1   11  33
   33      1   12  36
   34      1   12  35
   35      1   12  34
   36      2    1   2   3
   37      2    1   2  15
   38      2    1   7  24
   39      2    1   2  16
   40      2    1   7  25
   41      2    1   7   8
   42      2    2   1  14
   43      2    2   3   4
   44      2    2   3  18
   45      2    2   3  17
   46      2    2   1   7
   47      2    2   1  13
   48      2    3   2  15
   49      2    3   4   5
   50      2    3   4  20
   51      2    3   4  19
   52      2    3   2  16
   53      2    4   5  21
   54      2    4   3  18
   55      2    4   5   6
   56      2    4   3  17
   57      2    5   4  19
   58      2    5   6  23
   59      2    5   4  20
   60      2    5   6  22
   61      2    6   5  21
   62      2    7   8   9
   63      2    7   8  26
   64      2    7   8  27
   65      2    7   1  13
   66      2    7   1  14
   67      2    8   9  10
   68      2    8   9  28
   69      2    8   9  29
   70      2    8   7  24
   71      2    8   7  25
   72      2    9  10  30
   73      2    9  10  31
   74      2    9  10  11
   75      2    9   8  26
   76      2    9   8  27
   77      2   10  11  32
   78      2   10  11  12
   79      2   10  11  33
   80      2   10   9  28
   81      2   10   9  29
   82      2   11  12  35
   83      2   11  12  36
   84      2   11  10  30
   85      2   11  10  31
   86      2   11  12  34
   87      2   12  11  33
   88      2   12  11  32
   89      2   13   1  14
   90      2   15   2  16
   91      2   17   3  18
   92      2   19   4  20
   93      2   22   6  23
   94      2   24   7  25
   95      2   26   8  27
   96      2   28   9  29
   97      2   30  10  31
   98      2   32  11  33
   99      2   34  12  35
  100      2   34  12  36
  101      2   35  12  36
  102      3    1   2   3  17
  103      3    1   7   8   9
  104      3    1   7   8  26
  105      3    1   7   8  27
  106      3    1   2   3  18
  107      3    1   2   3   4
  108      3    2   3   4  20
  109      3    2   1   7  24
  110      3    2   1   7   8
  111      3    2   1   7  25
  112      3    2   3   4   5
  113      3    2   3   4  19
  114      3    3   2   1  13
  115      3    3   4   5  21
  116      3    3   4   5   6
  117      3    3   2   1   7
  118      3    3   2   1  14
  119      3    4   3   2  16
  120      3    4   3   2  15
  121      3    4   5   6  22
  122      3    4   5   6  23
  123      3    5   4   3  17
  124      3    5   4   3  18
  125      3    6   5   4  19
  126      3    6   5   4  20
  127      3    7   1   2  15
  128      3    7   1   2  16
  129      3    7   8   9  10
  130      3    7   8   9  28
  131      3    7   8   9  29
  132      3    8   9  10  11
  133      3    8   9  10  30
  134      3    8   9  10  31
  135      3    8   7   1  13
  136      3    8   7   1  14
  137      3    9   8   7  24
  138      3    9   8   7  25
  139      3    9  10  11  33
  140      3    9  10  11  12
  141      3    9  10  11  32
  142      3   10   9   8  26
  143      3   10   9   8  27
  144      3   10  11  12  34
  145      3   10  11  12  36
  146      3   10  11  12  35
  147      3   11  10   9  28
  148      3   11  10   9  29
  149      3   12  11  10  30
  150      3   12  11  10  31
  151      3   13   1   2  16
  152      3   13   1   7  24
  153      3   13   1   2  15
  154      3   13   1   7  25
  155      3   14   1   2  16
  156      3   14   1   7  24
  157      3   14   1   2  15
  158      3   14   1   7  25
  159      3   15   2   3  17
  160      3   15   2   3  18
  161      3   16   2   3  17
  162      3   16   2   3  18
  163      3   17   3   4  19
  164      3   17   3   4  20
  165      3   18   3   4  19
  166      3   18   3   4  20
  167      3   19   4   5  21
  168      3   20   4   5  21
  169      3   21   5   6  22
  170      3   21   5   6  23
  171      3   24   7   8  27
  172      3   24   7   8  26
  173      3   25   7   8  27
  174      3   25   7   8  26
  175      3   26   8   9  29
  176      3   26   8   9  28
  177      3   27   8   9  29
  178      3   27   8   9  28
  179      3   28   9  10  31
  180      3   28   9  10  30
  181      3   29   9  10  30
  182      3   29   9  10  31
  183      3   30  10  11  33
  184      3   30  10  11  32
  185      3   31  10  11  33
  186      3   31  10  11  32
  187      3   32  11  12  34
  188      3   32  11  12  36
  189      3   32  11  12  35
  190      3   33  11  12  34
  191      3   33  11  12  36
  192      3   33  11  12  35

          INDEP./SYM. INTERNAL COORDINATES
          --------------------------------
 CRD  1=  -0.3145 ( 36)  0.1011 ( 37)  0.1171 ( 38)  0.1105 ( 40) -0.3716 ( 41)
          -0.1128 ( 42)  0.2333 ( 43)  0.3579 ( 46) -0.1049 ( 47) -0.1478 ( 49)
           0.3360 ( 62) -0.1001 ( 63) -0.1070 ( 64) -0.1145 ( 65) -0.1055 ( 66)
          -0.2747 ( 67)  0.1102 ( 70)  0.1166 ( 71)  0.1824 ( 74) -0.1043 ( 75)
 CRD  2=   0.1227 ( 55)  0.1098 (102) -0.2838 (103) -0.1318 (104) -0.1310 (105)
           0.1113 (106)  0.2256 (107)  0.1261 (109)  0.2940 (110)  0.1281 (111)
          -0.1805 (112) -0.1179 (114) -0.2814 (117) -0.1177 (118) -0.1326 (127)
          -0.1287 (128)  0.2442 (129)  0.1180 (130)  0.1180 (131) -0.1757 (132)
           0.1309 (135)  0.1298 (136) -0.1163 (137) -0.1193 (138)  0.1135 (140)
 CRD  3=  -0.2984 ( 36)  0.1028 ( 37)  0.3458 ( 43) -0.1238 ( 44)  0.1469 ( 46)
          -0.2830 ( 49)  0.1072 ( 52)  0.1315 ( 55) -0.1191 ( 56)  0.1012 ( 59)
          -0.2419 ( 62)  0.3501 ( 67) -0.1029 ( 68) -0.1141 ( 69)  0.1084 ( 72)
          -0.3152 ( 74)  0.2113 ( 78) -0.1179 ( 80)
 CRD  4=  -0.3028 (  1) -0.2774 (  4) -0.2554 (  5) -0.1929 (  8) -0.1335 ( 13)
          -0.2972 ( 18) -0.2664 ( 23) -0.2367 ( 26) -0.1675 ( 29) -0.1070 ( 31)
          -0.1914 ( 36) -0.1677 ( 41) -0.1201 ( 43) -0.2289 ( 46) -0.1687 ( 49)
          -0.2298 ( 62) -0.1709 ( 67) -0.1132 ( 74) -0.1444 ( 78)
 CRD  5=  -0.1008 ( 39) -0.1346 ( 40)  0.2068 ( 41)  0.1286 ( 43) -0.1188 ( 44)
          -0.1945 ( 46)  0.1440 ( 47) -0.2060 ( 49) -0.1652 ( 53)  0.2725 ( 55)
           0.1374 ( 59) -0.1073 ( 61)  0.1239 ( 63)  0.1471 ( 66) -0.1306 ( 67)
          -0.1507 ( 70) -0.1407 ( 73)  0.2312 ( 74) -0.2083 ( 78)  0.1291 ( 81)
          -0.1017 ( 84) -0.1027 (108) -0.1445 (110) -0.1532 (112) -0.1299 (117)
          -0.1744 (129) -0.1063 (131) -0.1061 (135) -0.1162 (140)
 CRD  6=   0.1695 ( 38) -0.2812 ( 41) -0.1024 ( 42) -0.2604 ( 43)  0.1442 ( 45)
           0.1199 ( 46)  0.2410 ( 49) -0.1133 ( 50)  0.1256 ( 54) -0.1036 ( 57)
           0.1036 ( 62) -0.1383 ( 64) -0.1397 ( 65)  0.1717 ( 71)  0.1498 ( 72)
          -0.2677 ( 74)  0.2310 ( 78) -0.1177 ( 79) -0.1096 ( 80)  0.1304 ( 85)
          -0.1015 ( 88) -0.1060 (103) -0.1144 (110) -0.1093 (112) -0.1451 (117)
          -0.1541 (129) -0.1106 (140) -0.1002 (141)
 CRD  7=  -0.1158 ( 37)  0.1228 ( 40) -0.1301 ( 51) -0.1509 ( 53)  0.2821 ( 55)
          -0.1315 ( 61)  0.1273 ( 69) -0.1039 ( 74)  0.1039 ( 75)  0.1206 ( 84)
           0.1119 (102)  0.2158 (103)  0.1200 (106)  0.2440 (107) -0.1964 (112)
           0.1535 (115)  0.2125 (116)  0.1272 (119)  0.1234 (120) -0.1028 (123)
          -0.1334 (129)  0.2667 (132)  0.1514 (133)  0.1423 (134)  0.1304 (137)
           0.1344 (138) -0.1211 (140)  0.1120 (147)  0.1173 (148)
 CRD  8=   0.1285 (  4)  0.2009 (  5)  0.1756 (  8)  0.1624 ( 13) -0.1310 ( 23)
          -0.2096 ( 26) -0.1717 ( 29) -0.1633 ( 31)  0.1354 ( 43)  0.2465 ( 46)
           0.3589 ( 49) -0.1144 ( 57) -0.1479 ( 59) -0.2866 ( 62)  0.1191 ( 63)
          -0.1003 ( 65)  0.1245 ( 77) -0.3769 ( 78)  0.1291 ( 87)  0.1239 ( 88)
 CRD  9=  -0.1004 (  4) -0.1482 (  5) -0.1753 (  8) -0.1323 ( 13) -0.1164 ( 14)
           0.1503 ( 23)  0.1547 ( 26)  0.1570 ( 29) -0.3020 ( 36)  0.1604 ( 39)
          -0.1526 ( 43)  0.1167 ( 46)  0.1053 ( 53) -0.2385 ( 55)  0.1120 ( 56)
          -0.1099 ( 58)  0.1331 ( 61) -0.1309 ( 62)  0.2214 ( 67) -0.1050 ( 68)
          -0.1310 ( 73)  0.2878 ( 74) -0.1272 ( 78) -0.1196 ( 85)  0.1358 (107)
          -0.1071 (117) -0.1207 (129) -0.1012 (139) -0.1406 (140)
 CRD 10=   0.1365 ( 41)  0.2735 ( 43) -0.1197 ( 45) -0.1076 ( 46)  0.1115 ( 50)
           0.1880 ( 53) -0.1668 ( 54) -0.3360 ( 55) -0.1543 ( 58)  0.1248 ( 60)
           0.1481 ( 61) -0.2452 ( 67)  0.1192 ( 68)  0.1178 ( 72) -0.1443 ( 74)
          -0.1069 ( 75)  0.1415 ( 78)  0.1376 ( 81)  0.1161 ( 86) -0.1005 ( 88)
           0.1371 (107) -0.1202 (129) -0.1922 (140) -0.1297 (141) -0.1171 (143)
          -0.1086 (149)
 CRD 11=   0.1631 (  1)  0.1196 (  4) -0.1174 (  8) -0.1819 ( 13) -0.1242 ( 14)
           0.1394 ( 18) -0.1537 ( 29) -0.1898 ( 31)  0.2557 ( 36) -0.1537 ( 43)
           0.1033 ( 45)  0.1697 ( 46) -0.1324 ( 48) -0.3213 ( 49)  0.1138 ( 51)
          -0.1091 ( 52)  0.1005 ( 57)  0.1052 ( 59)  0.1383 ( 62)  0.1919 ( 67)
           0.1216 ( 72)  0.1003 ( 73) -0.2105 ( 74) -0.3378 ( 78)  0.1077 ( 79)
          -0.1083 ( 80) -0.1002 ( 81) -0.1147 ( 82)  0.1263 ( 87)  0.1059 ( 88)
 CRD 12=   0.1192 (  1) -0.1382 ( 36)  0.1427 ( 37)  0.2693 ( 41) -0.1168 ( 42)
           0.1234 ( 45) -0.1275 ( 50)  0.1361 ( 52)  0.1141 ( 54) -0.1112 ( 55)
          -0.1011 ( 57) -0.2202 ( 67)  0.1989 ( 69) -0.1147 ( 71) -0.1283 ( 76)
          -0.1323 ( 77)  0.1386 ( 80)  0.1592 ( 84) -0.1074 (108) -0.1257 (112)
          -0.1064 (113) -0.1390 (114) -0.1337 (115) -0.1156 (116) -0.1520 (117)
           0.1928 (132)  0.1050 (133)  0.1144 (134)  0.1122 (147)  0.1118 (148)
 CRD 13=  -0.1320 (  1)  0.1531 (  5)  0.1265 (  8) -0.1763 ( 18)  0.1308 ( 29)
           0.2520 ( 36)  0.1372 ( 38) -0.1515 ( 39) -0.3279 ( 41)  0.1942 ( 43)
          -0.1183 ( 48)  0.1314 ( 51) -0.1537 ( 55) -0.1388 ( 56) -0.1686 ( 62)
           0.1483 ( 67) -0.1679 ( 68)  0.1190 ( 70)  0.1721 ( 74)  0.1378 ( 75)
          -0.1323 ( 85) -0.1164 (115) -0.1336 (116) -0.1347 (117) -0.1165 (118)
          -0.1006 (127)  0.1642 (132)  0.1148 (148)
 CRD 14=  -0.1048 (  1) -0.1675 (  4)  0.1715 ( 23) -0.1147 ( 31) -0.1696 ( 36)
           0.1934 ( 43) -0.1298 ( 44) -0.3650 ( 46)  0.1151 ( 47)  0.1846 ( 49)
           0.1342 ( 52)  0.3484 ( 62) -0.1471 ( 63) -0.1346 ( 64)  0.1153 ( 65)
           0.1559 ( 66)  0.2139 ( 67)  0.1181 ( 73) -0.1569 ( 74) -0.2051 ( 78)
          -0.1343 ( 81)
 CRD 15=   0.1526 ( 13)  0.1657 ( 14) -0.1103 ( 43) -0.1016 ( 47) -0.1895 ( 50)
           0.1248 ( 54)  0.1828 ( 55)  0.1328 ( 58) -0.1356 ( 61) -0.1205 ( 71)
          -0.2158 ( 82)  0.2130 ( 86)  0.1071 ( 87) -0.1048 ( 88) -0.1043 (103)
          -0.1238 (107)  0.1081 (108)  0.2277 (110)  0.1005 (111)  0.1479 (112)
          -0.1789 (115) -0.2246 (116) -0.1172 (119) -0.1155 (120)  0.1029 (130)
           0.1361 (135)  0.1547 (136) -0.1197 (139) -0.2563 (140) -0.1201 (141)
           0.1130 (145) -0.1461 (149) -0.1455 (150) -0.1018 (170)
 CRD 16=  -0.1163 ( 13) -0.1956 ( 14) -0.1528 ( 38)  0.1581 ( 40) -0.1277 ( 44)
          -0.1136 ( 50)  0.1476 ( 51) -0.1122 ( 56) -0.2097 ( 57)  0.1268 ( 65)
          -0.1254 ( 66)  0.1063 ( 70)  0.1594 ( 77) -0.1586 ( 79) -0.1482 ( 84)
           0.1479 ( 85)  0.1023 ( 87) -0.1019 ( 88)  0.1899 (103)  0.1520 (104)
           0.1544 (105) -0.1333 (108) -0.2160 (112) -0.1301 (115) -0.1057 (122)
          -0.1290 (123) -0.1406 (124)  0.1145 (127)  0.1291 (128) -0.1740 (132)
          -0.1439 (144) -0.1283 (145) -0.1436 (146) -0.1523 (147) -0.1517 (148)
 CRD 17=   0.1952 ( 13) -0.1360 ( 37) -0.1377 ( 47) -0.1824 ( 50)  0.1087 ( 59)
          -0.1002 ( 61) -0.1078 ( 64) -0.1148 ( 80)  0.1007 ( 81)  0.3240 ( 82)
          -0.3337 ( 86) -0.1161 ( 87)  0.1033 ( 88)  0.1180 (100) -0.1105 (101)
           0.1445 (102)  0.1168 (106)  0.1091 (107)  0.1380 (109)  0.1096 (110)
           0.1256 (111) -0.1851 (115) -0.2263 (116) -0.1308 (125) -0.2164 (129)
          -0.1120 (130) -0.1195 (131)  0.1006 (140) -0.1279 (142) -0.1159 (143)
           0.1242 (149)  0.1322 (150) -0.1238 (170)
 CRD 18=   0.2463 (  1) -0.2205 (  4)  0.1919 (  5) -0.1535 (  8) -0.2699 ( 18)
           0.2805 ( 23) -0.2195 ( 26)  0.2305 ( 29) -0.3335 ( 31) -0.1337 ( 82)
          -0.1440 ( 83) -0.1449 ( 88)  0.1276 (101)
 CRD 19=   0.1772 (  1) -0.1734 (  4)  0.1787 (  5) -0.1676 (  8) -0.1268 ( 18)
           0.5177 ( 31) -0.1399 ( 74)  0.4270 ( 83)  0.1687 ( 87)  0.1291 ( 88)
          -0.2246 (100) -0.1945 (101)
 CRD 20=  -0.1231 (  4)  0.1582 (  5) -0.2350 (  8)  0.2791 ( 13)  0.2115 ( 14)
           0.1142 ( 17) -0.1379 ( 23)  0.2304 ( 26) -0.2828 ( 29)  0.1118 ( 45)
          -0.1471 ( 51)  0.1072 ( 52)  0.1902 ( 57) -0.1103 ( 58)  0.2113 ( 60)
          -0.1042 ( 68) -0.1030 ( 76) -0.1075 ( 79) -0.2300 ( 83) -0.1575 ( 84)
          -0.1010 ( 93)
 CRD 21=   0.1175 (  4) -0.2169 (  5)  0.1663 (  8)  0.3937 ( 14)  0.1222 ( 17)
          -0.1772 ( 26)  0.2358 ( 29) -0.1272 ( 48) -0.1974 ( 53)  0.1094 ( 54)
           0.1092 ( 57)  0.2723 ( 60)  0.2328 ( 61)  0.1051 ( 77)  0.1682 ( 83)
           0.1445 ( 85) -0.1620 ( 86) -0.1882 ( 93)
 CRD 22=  -0.2498 (  1)  0.1477 (  4) -0.2133 (  8)  0.2283 ( 13) -0.2025 ( 14)
           0.2358 ( 18) -0.1388 ( 23)  0.3088 ( 29) -0.1017 ( 31)  0.2824 ( 53)
           0.1009 ( 57) -0.1142 ( 60) -0.2756 ( 61) -0.1065 ( 76) -0.1575 ( 82)
           0.1802 ( 83)  0.1021 ( 85) -0.1122 ( 86)  0.1281 ( 99)
 CRD 23=   0.1314 (  5) -0.1758 (  8)  0.2033 ( 14)  0.1245 ( 17)  0.1436 ( 18)
          -0.1278 ( 23)  0.1464 ( 29)  0.1026 ( 48) -0.2276 ( 53) -0.1841 ( 58)
           0.1340 ( 59)  0.2841 ( 60)  0.2337 ( 61)  0.1267 ( 63) -0.1593 ( 75)
           0.1447 ( 79) -0.2297 ( 82)  0.1124 ( 84) -0.1000 ( 93) -0.1264 (112)
           0.1346 (117) -0.1322 (124)  0.1048 (128) -0.1158 (137)  0.1010 (144)
           0.1253 (145)  0.1128 (146)
 CRD 24=  -0.1173 (  1)  0.2681 (  4) -0.1990 (  5) -0.1104 (  9)  0.2763 ( 13)
          -0.1338 ( 18)  0.2980 ( 23) -0.1682 ( 26) -0.1736 ( 29)  0.1236 ( 31)
           0.1246 ( 39) -0.1069 ( 52)  0.1347 ( 53) -0.1338 ( 58)  0.1216 ( 59)
           0.1132 ( 60) -0.1137 ( 61) -0.1096 ( 64)  0.1015 ( 76) -0.1228 ( 81)
          -0.1519 ( 83)  0.2917 ( 86) -0.1266 ( 99) -0.1154 (136)
 CRD 25=  -0.1899 (  1)  0.1324 (  4)  0.1058 (  5)  0.1264 (  6) -0.2115 (  8)
          -0.1090 ( 12)  0.1631 ( 23) -0.1628 ( 26)  0.1165 ( 37) -0.1463 ( 38)
           0.1230 ( 45) -0.1379 ( 51) -0.1448 ( 56) -0.1056 ( 66)  0.1565 ( 68)
           0.1729 ( 70) -0.1068 ( 71) -0.1250 ( 73) -0.1523 ( 77)  0.1347 ( 79)
          -0.1816 ( 80)  0.2250 ( 82) -0.1053 ( 87)  0.1428 ( 88) -0.1333 (106)
          -0.1478 (107)  0.1218 (115)  0.1395 (116)  0.1412 (135) -0.1009 (139)
          -0.1248 (141)  0.1096 (144)
 CRD 26=  -0.2363 (  1)  0.2696 (  5) -0.1085 (  8) -0.1237 ( 11) -0.2524 ( 13)
           0.1021 ( 14)  0.1702 ( 18)  0.1403 ( 23) -0.2371 ( 26) -0.1624 ( 40)
           0.1496 ( 44)  0.1324 ( 48) -0.2049 ( 53) -0.1141 ( 54) -0.1062 ( 57)
           0.1002 ( 58)  0.1626 ( 61) -0.1206 ( 65)  0.1471 ( 69)  0.1375 ( 71)
           0.1182 ( 77) -0.1220 ( 79) -0.1396 ( 81)  0.1565 ( 82) -0.1166 ( 83)
           0.1137 ( 87)  0.1090 (113) -0.1138 (127)
 CRD 27=   0.3422 (  4) -0.2941 (  8) -0.3389 ( 18)  0.3008 ( 26)  0.1008 ( 28)
           0.1157 ( 47) -0.1027 ( 50) -0.1099 ( 53) -0.1065 ( 54) -0.1218 ( 63)
           0.1179 ( 72)  0.1439 ( 83) -0.2285 ( 86)  0.1110 ( 99)
 CRD 28=  -0.1367 (  1)  0.1452 (  5) -0.1209 ( 13)  0.1262 ( 16)  0.1031 ( 23)
           0.1168 ( 26)  0.1465 ( 42) -0.1305 ( 44)  0.2088 ( 45) -0.1044 ( 47)
           0.1074 ( 50) -0.1032 ( 51)  0.1406 ( 54) -0.1683 ( 56)  0.1451 ( 57)
           0.2055 ( 58) -0.1838 ( 59) -0.1622 ( 60) -0.1579 ( 64) -0.1341 ( 66)
          -0.1276 ( 72)  0.1941 ( 73)  0.1184 ( 76) -0.1107 ( 79) -0.1857 ( 82)
          -0.1199 ( 85) -0.1159 (108)  0.1016 (109) -0.1052 (118)  0.1638 (123)
           0.1220 (124) -0.1214 (130) -0.1002 (131)  0.1364 (139)  0.1384 (141)
 CRD 29=   0.2456 (  1)  0.1022 (  3) -0.1827 (  5) -0.1075 (  7) -0.1631 (  8)
          -0.1026 ( 10)  0.1353 ( 20) -0.2117 ( 23) -0.1346 ( 25) -0.1585 ( 26)
           0.1233 ( 38) -0.1769 ( 44) -0.1216 ( 52)  0.1150 ( 54) -0.1865 ( 56)
           0.1149 ( 65) -0.1255 ( 68) -0.1020 ( 72) -0.1163 ( 75)  0.1677 ( 77)
          -0.1054 ( 81)  0.2236 ( 82) -0.1271 ( 83)  0.1362 ( 87) -0.1232 ( 88)
          -0.1241 (119) -0.1046 (149)
 CRD 30=  -0.1840 ( 37) -0.1402 ( 38)  0.1712 ( 39)  0.1198 ( 40) -0.1655 ( 42)
          -0.1093 ( 44)  0.1207 ( 45)  0.1557 ( 47)  0.1855 ( 48) -0.1752 ( 52)
           0.1387 ( 54) -0.1219 ( 56)  0.1467 ( 63) -0.1501 ( 64) -0.1727 ( 65)
           0.1533 ( 66) -0.1725 ( 68)  0.1923 ( 69)  0.1264 ( 70) -0.1257 ( 71)
           0.1634 ( 72) -0.1487 ( 73) -0.1320 ( 75)  0.1511 ( 76)  0.1917 ( 80)
          -0.1822 ( 81) -0.1784 ( 84)  0.1717 ( 85)  0.1014 (102)  0.1080 (106)
           0.1096 (114)  0.1013 (118) -0.1001 (127)  0.1057 (133)  0.1107 (142)
           0.1136 (143) -0.1096 (147) -0.1182 (148)
 CRD 31=  -0.2029 (  1) -0.1417 (  2) -0.1637 (  4) -0.1104 (  7)  0.2028 (  8)
           0.1643 ( 11)  0.1318 ( 13) -0.1208 ( 14) -0.1172 ( 16) -0.1040 ( 19)
           0.1394 ( 21)  0.2075 ( 23)  0.1126 ( 26) -0.1003 ( 29) -0.1029 ( 35)
          -0.1640 ( 40) -0.1161 ( 47) -0.1035 ( 49)  0.1222 ( 54) -0.1824 ( 58)
           0.1170 ( 60) -0.1309 ( 66)  0.1079 ( 69) -0.1168 ( 79)  0.1171 ( 83)
          -0.2507 ( 86) -0.1001 (101) -0.1097 (103) -0.1177 (104)  0.1057 (117)
 CRD 32=  -0.1939 ( 37)  0.1835 ( 39) -0.1912 ( 42)  0.1799 ( 47)  0.2030 ( 48)
          -0.2064 ( 52)  0.1136 ( 54) -0.1035 ( 56) -0.1459 ( 63)  0.1484 ( 64)
          -0.2049 ( 65)  0.1991 ( 66)  0.2166 ( 68) -0.2048 ( 69) -0.1412 ( 72)
           0.1474 ( 73)  0.1134 ( 75) -0.1014 ( 76) -0.2041 ( 80)  0.2089 ( 81)
           0.1649 ( 84) -0.1701 ( 85)  0.1023 (106) -0.1023 (109) -0.1007 (111)
           0.1329 (114)  0.1317 (118) -0.1251 (127) -0.1258 (128)  0.1087 (130)
           0.1097 (131) -0.1222 (133) -0.1261 (134) -0.1200 (142) -0.1198 (143)
           0.1161 (147)  0.1109 (148)
 CRD 33=   0.1070 ( 37) -0.2271 ( 38) -0.1144 ( 39)  0.2192 ( 40) -0.1054 ( 42)
           0.1358 ( 44) -0.1381 ( 45) -0.1269 ( 54)  0.1377 ( 56)  0.1766 ( 63)
          -0.1736 ( 64)  0.2269 ( 70) -0.2227 ( 71) -0.1408 ( 72)  0.1442 ( 73)
          -0.2082 ( 75)  0.2183 ( 76)  0.1264 ( 77) -0.1344 ( 79)  0.1389 ( 84)
          -0.1420 ( 85)  0.1416 ( 87) -0.1423 ( 88)  0.1225 (104)  0.1272 (105)
           0.1356 (135)  0.1382 (136) -0.1549 (137) -0.1505 (138)
 CRD 34=  -0.1195 (  1)  0.1329 (  4)  0.2749 (  5)  0.1183 (  6)  0.1059 (  7)
           0.1918 (  8)  0.1236 (  9)  0.1393 ( 10) -0.2833 ( 18) -0.1120 ( 19)
          -0.1073 ( 20) -0.1311 ( 21) -0.1484 ( 22) -0.2285 ( 23)  0.2245 ( 29)
           0.1038 ( 30)  0.1129 ( 32) -0.1446 ( 36)  0.1437 ( 41) -0.1808 ( 43)
           0.1810 ( 62) -0.1446 ( 78)  0.1517 ( 82) -0.1943 ( 83)  0.1234 ( 86)
          -0.1055 ( 91)  0.1096 ( 95) -0.1353 ( 99)
 CRD 35=   0.1834 (  1)  0.1332 (  2)  0.1351 (  3)  0.2431 (  4)  0.2189 (  5)
           0.1472 (  6)  0.1449 (  7)  0.1127 (  8)  0.1055 (  9)  0.1087 ( 10)
          -0.2059 ( 26) -0.1422 ( 27) -0.1422 ( 28) -0.2461 ( 29) -0.1241 ( 30)
          -0.1237 ( 32) -0.2035 ( 36) -0.1095 ( 41) -0.1538 ( 43) -0.1879 ( 46)
           0.1198 ( 67)  0.1831 ( 74) -0.1061 ( 77)  0.1771 ( 78) -0.1065 ( 79)
          -0.1218 ( 82)  0.1751 ( 83) -0.1227 ( 86) -0.1067 ( 89) -0.1159 ( 90)
           0.1093 ( 97)  0.1242 ( 99)
 CRD 36=  -0.1935 (  1) -0.1257 (  2) -0.1199 (  3) -0.1594 (  4) -0.1107 (  5)
          -0.2121 ( 18) -0.1406 ( 19) -0.1421 ( 20) -0.1461 ( 21) -0.1515 ( 22)
          -0.2155 ( 23) -0.1474 ( 24) -0.1444 ( 25) -0.2077 ( 26) -0.1335 ( 27)
          -0.1299 ( 28) -0.1702 ( 29)  0.1327 ( 36)  0.2002 ( 41)  0.1736 ( 46)
           0.2113 ( 62)  0.2056 ( 67)  0.1776 ( 74)  0.1307 ( 78)  0.1101 ( 83)
           0.1116 ( 94)  0.1177 ( 95)  0.1150 ( 96)  0.1018 ( 97)
 CRD 37=  -0.1354 (  2)  0.1510 (  3) -0.1297 (  9)  0.1617 ( 10)  0.1185 ( 15)
           0.1271 ( 21) -0.1229 ( 22) -0.1152 ( 24)  0.1167 ( 25)  0.1028 ( 28)
          -0.1344 ( 30)  0.1366 ( 32)  0.1437 ( 50) -0.1112 ( 51)  0.1094 ( 57)
           0.1426 ( 58) -0.1129 ( 59)  0.1555 ( 82) -0.1539 ( 86)  0.1341 (107)
          -0.1076 (108) -0.1351 (110) -0.1078 (113) -0.1023 (116)  0.1192 (119)
           0.1214 (120) -0.1557 (122) -0.1783 (125) -0.1962 (126)  0.1403 (129)
          -0.1466 (140) -0.1073 (149) -0.1077 (150) -0.1435 (167) -0.1613 (168)
          -0.1924 (170)
 CRD 38=  -0.1600 ( 14) -0.4145 ( 15) -0.1978 ( 16)  0.1754 ( 17)  0.2304 ( 50)
          -0.2578 ( 51) -0.1103 ( 53)  0.1845 ( 55)  0.1543 ( 57) -0.2725 ( 58)
          -0.2345 ( 59)  0.1590 ( 60)  0.1137 ( 93) -0.2110 (122) -0.2033 (125)
          -0.2075 (126) -0.1817 (167) -0.1859 (168) -0.1060 (169) -0.2336 (170)
 CRD 39=   0.1691 (  6) -0.1495 (  7)  0.1098 ( 10)  0.1995 ( 11)  0.1107 ( 13)
           0.3558 ( 15)  0.1347 ( 16) -0.1296 ( 17) -0.1674 ( 19)  0.1710 ( 20)
           0.1719 ( 24) -0.1712 ( 25)  0.1607 ( 30) -0.1609 ( 32)  0.1462 ( 50)
           0.1088 ( 53) -0.1540 ( 55)  0.1818 ( 58) -0.1049 ( 60) -0.1041 (112)
          -0.1459 (121) -0.1483 (122) -0.1048 (124) -0.1271 (168) -0.1091 (169)
          -0.1115 (170)
 CRD 40=   0.2261 (  2) -0.2232 (  3)  0.1059 (  6)  0.1633 (  9) -0.1293 ( 10)
           0.2265 ( 11)  0.1408 ( 15) -0.1955 ( 21)  0.1943 ( 22) -0.1714 ( 24)
           0.1727 ( 25) -0.2116 ( 30)  0.2115 ( 32)  0.1343 ( 50)  0.1050 (109)
           0.1049 (111) -0.2008 (121) -0.1495 (122) -0.1023 (127) -0.1029 (128)
          -0.1029 (149) -0.1031 (150) -0.1486 (169)
 CRD 41=   0.1264 (  6) -0.1340 (  7) -0.2411 (  9)  0.2212 ( 10) -0.1592 ( 11)
          -0.2455 ( 19)  0.2445 ( 20) -0.2010 ( 21)  0.2022 ( 22)  0.2013 ( 27)
          -0.2007 ( 28) -0.2160 ( 30)  0.2156 ( 32)  0.1741 (121)  0.1088 (122)
           0.1030 (135)  0.1030 (136)  0.1303 (169)
 CRD 42=  -0.1737 ( 31) -0.4803 ( 33) -0.5029 ( 34) -0.5030 ( 35)  0.1768 ( 82)
           0.1942 ( 83)  0.1768 ( 86) -0.1876 ( 99) -0.2001 (100) -0.2000 (101)
 CRD 43=  -0.1754 (  2)  0.1778 (  3) -0.2295 (  6)  0.2350 (  7)  0.2025 (  9)
          -0.1864 ( 10) -0.1943 ( 16) -0.1634 ( 17)  0.1891 ( 24) -0.1889 ( 25)
           0.2339 ( 27) -0.2339 ( 28) -0.1763 ( 30)  0.1759 ( 32) -0.1685 ( 93)
          -0.1603 (121) -0.1224 (169)
 CRD 44=  -0.5454 ( 16) -0.4860 ( 17)  0.2154 ( 58)  0.2537 ( 60) -0.4691 ( 93)
 CRD 45=  -0.2182 (  2)  0.2196 (  3) -0.1875 (  6)  0.1931 (  7)  0.1394 (  9)
          -0.1225 ( 10) -0.2330 ( 19)  0.2336 ( 20) -0.2373 ( 21)  0.2376 ( 22)
          -0.2309 ( 24)  0.2316 ( 25) -0.2100 ( 27)  0.2102 ( 28)  0.1477 ( 30)
          -0.1473 ( 32) -0.1960 (121) -0.1079 (122) -0.1534 (169)
 CRD 46=   0.2113 ( 12)  0.1081 ( 24) -0.1081 ( 25)  0.1258 ( 27) -0.1257 ( 28)
          -0.1087 ( 30)  0.1086 ( 32)  0.1006 ( 45) -0.2738 (121) -0.1365 (122)
           0.1290 (125)  0.1090 (151)  0.1090 (152)  0.1123 (153)  0.1092 (154)
           0.1100 (155)  0.1099 (156)  0.1134 (157)  0.1101 (158)  0.1162 (159)
           0.1046 (160)  0.1121 (161)  0.1005 (162) -0.2163 (169)  0.1053 (171)
           0.1053 (172)  0.1055 (173)  0.1055 (174)
 CRD 47=  -0.1567 (  2)  0.1542 (  3) -0.1689 (  6)  0.1592 (  7)  0.1457 (  9)
          -0.1674 ( 10)  0.1590 ( 11) -0.3339 ( 12) -0.1247 ( 19)  0.1245 ( 20)
          -0.1086 ( 51)  0.2761 (121)  0.1125 (122) -0.1031 (123) -0.1597 (125)
          -0.1071 (126) -0.1033 (167)  0.2170 (169)  0.1102 (175)  0.1102 (176)
           0.1102 (177)  0.1103 (178)  0.1141 (179)  0.1142 (180)  0.1142 (181)
           0.1141 (182)  0.1006 (183)  0.1006 (184)  0.1006 (185)  0.1006 (186)
 CRD 48=  -0.1292 (  9)  0.1383 ( 10) -0.1713 ( 11)  0.2778 ( 12) -0.1311 ( 19)
           0.1310 ( 20) -0.1606 ( 21)  0.1607 ( 22) -0.1219 ( 24)  0.1224 ( 25)
          -0.1414 (121)  0.1102 (125) -0.1412 (151) -0.1139 (152) -0.1385 (153)
          -0.1136 (154) -0.1404 (155) -0.1132 (156) -0.1377 (157) -0.1129 (158)
          -0.1002 (159) -0.1092 (160) -0.1026 (161) -0.1116 (162) -0.1065 (169)
           0.1203 (179)  0.1203 (180)  0.1203 (181)  0.1203 (182)  0.1397 (183)
           0.1398 (184)  0.1397 (185)  0.1398 (186)
 CRD 49=   0.1685 ( 30)  0.1687 ( 32) -0.6349 ( 33)  0.2979 ( 34)  0.2924 ( 35)
           0.3281 ( 99) -0.1603 (100) -0.1575 (101)  0.1721 (144) -0.1714 (146)
           0.1567 (187) -0.1867 (189)  0.1874 (190) -0.1561 (192)
 CRD 50=   0.5366 ( 34) -0.5394 ( 35) -0.2853 (100)  0.2870 (101) -0.2358 (145)
          -0.2331 (188) -0.2333 (191)
 CRD 51=   0.5573 ( 11)  0.5988 ( 12) -0.1134 ( 50) -0.1228 ( 51)  0.2772 ( 92)
          -0.1169 (108) -0.1481 (125)  0.1308 (126) -0.1215 (164) -0.1275 (166)
          -0.1336 (167)  0.1453 (168)
 CRD 52=  -0.1385 (  2)  0.1421 (  3) -0.2949 ( 11)  0.1391 ( 24) -0.1367 ( 25)
           0.1001 ( 35)  0.1095 (125) -0.1417 (159) -0.1461 (160) -0.1434 (161)
          -0.1478 (162) -0.1242 (163) -0.1274 (165)  0.1456 (171)  0.1460 (172)
           0.1463 (173)  0.1467 (174) -0.1398 (183) -0.1400 (184) -0.1397 (185)
          -0.1399 (186) -0.1169 (187) -0.1171 (189) -0.1171 (190) -0.1173 (192)
 CRD 53=  -0.2724 (  2) -0.2732 (  3)  0.2111 (  6)  0.2113 (  7) -0.1228 (  9)
          -0.1230 ( 10)  0.3028 ( 19)  0.3022 ( 20) -0.2943 ( 21) -0.2940 ( 22)
           0.2490 ( 24)  0.2490 ( 25) -0.1756 ( 27) -0.1750 ( 28)  0.1002 ( 94)
 CRD 54=  -0.2365 (  2) -0.2370 (  3)  0.2999 (  6)  0.3001 (  7) -0.2191 (  9)
          -0.2194 ( 10)  0.1394 ( 21)  0.1400 ( 22) -0.2773 ( 24) -0.2763 ( 25)
           0.2855 ( 27)  0.2859 ( 28) -0.1603 ( 30) -0.1606 ( 32)  0.1037 ( 90)
 CRD 55=   0.2303 (  6)  0.2299 (  7) -0.2730 (  9) -0.2733 ( 10) -0.2747 ( 19)
          -0.2757 ( 20)  0.2279 ( 21)  0.2272 ( 22) -0.2780 ( 27) -0.2773 ( 28)
           0.2262 ( 30)  0.2267 ( 32) -0.1022 ( 91) -0.1014 ( 94) -0.1023 ( 97)
 CRD 56=  -0.2747 (  2) -0.2745 (  3)  0.2861 (  9)  0.2865 ( 10)  0.1471 ( 19)
           0.1465 ( 20)  0.2229 ( 21)  0.2233 ( 22) -0.2234 ( 24) -0.2234 ( 25)
          -0.1454 ( 27) -0.1464 ( 28)  0.2652 ( 30)  0.2655 ( 32) -0.1091 ( 89)
           0.1154 ( 91)  0.1018 ( 98)
 CRD 57=  -0.2265 (  2) -0.2257 (  3)  0.1331 (  6)  0.1336 (  7)  0.2647 (  9)
           0.2651 ( 10) -0.2187 ( 19) -0.2192 ( 20)  0.1452 ( 21)  0.1444 ( 22)
           0.2721 ( 24)  0.2720 ( 25) -0.2741 ( 30) -0.2742 ( 32)  0.1154 ( 91)
           0.1168 ( 96) -0.1141 ( 98)
 CRD 58=  -0.2544 (  6) -0.2552 (  7) -0.2209 (  9) -0.2214 ( 10)  0.2253 ( 19)
           0.2243 ( 20)  0.2658 ( 21)  0.2664 ( 22) -0.2117 ( 27) -0.2110 ( 28)
          -0.2516 ( 30) -0.2514 ( 32) -0.1175 ( 90) -0.1036 ( 91)  0.1039 ( 94)
           0.1230 ( 95) -0.1129 ( 98)
 CRD 59=  -0.2491 (  2) -0.2493 (  3) -0.2668 (  6) -0.2669 (  7) -0.1608 (  9)
          -0.1612 ( 10) -0.1227 ( 19) -0.1230 ( 20)  0.2114 ( 24)  0.2106 ( 25)
           0.2735 ( 27)  0.2730 ( 28)  0.2000 ( 30)  0.1997 ( 32) -0.1223 ( 89)
          -0.1308 ( 90)  0.1035 ( 96)  0.1334 ( 97)
 CRD 60=   0.2224 (  2)  0.2211 (  3)  0.1646 (  6)  0.1638 (  7)  0.2557 ( 19)
           0.2549 ( 20)  0.2627 ( 21)  0.2631 ( 22)  0.2432 ( 24)  0.2445 ( 25)
           0.1965 ( 27)  0.1975 ( 28)  0.1173 ( 30)  0.1172 ( 32)  0.1133 ( 89)
           0.1304 ( 94)  0.1343 ( 95)  0.1245 ( 96)  0.1001 ( 97) -0.1020 (171)
           0.1007 (174)
 CRD 61=  -0.1343 (  6)  0.1338 (  7) -0.1819 ( 11)  0.1855 ( 12)  0.1167 ( 19)
          -0.1172 ( 20)  0.1053 ( 21) -0.1051 ( 22) -0.1361 ( 27)  0.1366 ( 28)
          -0.1074 (108) -0.1107 (113) -0.1013 (142) -0.1012 (143)  0.1465 (152)
           0.1467 (154)  0.1465 (156)  0.1467 (158) -0.1613 (163) -0.1580 (164)
          -0.1615 (165) -0.1582 (166) -0.1534 (175) -0.1532 (176) -0.1532 (177)
          -0.1531 (178)  0.1137 (183)  0.1137 (184)  0.1138 (185)  0.1138 (186)
           0.1195 (187)  0.1019 (188)  0.1194 (189)  0.1195 (190)  0.1019 (191)
           0.1195 (192)
 CRD 62=  -0.1063 (  2)  0.1061 (  3) -0.2055 (  9)  0.2056 ( 10)  0.2046 ( 11)
          -0.1977 ( 12)  0.1268 ( 21) -0.1268 ( 22) -0.1519 ( 27)  0.1522 ( 28)
           0.1067 (108)  0.1159 (113)  0.1091 (123)  0.1050 (124) -0.1034 (133)
          -0.1035 (134) -0.1291 (151) -0.1281 (153) -0.1286 (155) -0.1277 (157)
           0.1827 (163)  0.1735 (164)  0.1785 (165)  0.1693 (166)  0.1392 (171)
           0.1390 (172)  0.1394 (173)  0.1393 (174) -0.1431 (179) -0.1431 (180)
          -0.1432 (181) -0.1432 (182)  0.1037 (187)  0.1037 (189)  0.1038 (190)
           0.1038 (192)
 CRD 63=  -0.2367 (  2)  0.2366 (  3)  0.2352 (  6) -0.2354 (  7)  0.1662 (  9)
          -0.1666 ( 10)  0.2201 ( 19) -0.2202 ( 20) -0.2341 ( 21)  0.2341 ( 22)
           0.2397 ( 24) -0.2400 ( 25) -0.1805 ( 27)  0.1806 ( 28) -0.1051 (151)
          -0.1059 (153) -0.1056 (155) -0.1064 (157)  0.1032 (175)  0.1032 (176)
           0.1031 (177)  0.1031 (178) -0.1009 (179) -0.1009 (180) -0.1009 (181)
          -0.1009 (182)
 CRD 64=   0.1308 (  2) -0.1306 (  3) -0.2770 (  6)  0.2773 (  7) -0.2361 (  9)
           0.2368 ( 10)  0.1073 ( 11) -0.2197 ( 21)  0.2198 ( 22)  0.1976 ( 24)
          -0.1978 ( 25) -0.1456 ( 27)  0.1456 ( 28) -0.1173 ( 30)  0.1172 ( 32)
           0.1247 (151)  0.1260 (153)  0.1252 (155)  0.1265 (157) -0.1382 (159)
          -0.1424 (160) -0.1400 (161) -0.1442 (162) -0.1091 (171) -0.1091 (172)
          -0.1091 (173) -0.1091 (174)  0.1008 (175)  0.1008 (176)  0.1009 (177)
           0.1009 (178)
 CRD 65=  -0.2354 (  2)  0.2354 (  3) -0.1305 (  9)  0.1310 ( 10)  0.1114 ( 11)
          -0.1038 ( 12)  0.2672 ( 19) -0.2673 ( 20) -0.1691 ( 24)  0.1694 ( 25)
           0.1974 ( 27) -0.1976 ( 28)  0.1196 (109)  0.1198 (111)  0.1134 (135)
           0.1140 (136)  0.1730 (152)  0.1731 (154)  0.1736 (156)  0.1738 (158)
          -0.1075 (171) -0.1079 (172) -0.1071 (173) -0.1075 (174)  0.1357 (179)
           0.1357 (180)  0.1358 (181)  0.1358 (182)
 CRD 66=   0.1277 ( 21) -0.1277 ( 22) -0.1495 ( 27)  0.1496 ( 28) -0.3375 ( 30)
           0.3370 ( 32)  0.1148 (139)  0.1147 (141) -0.1562 (144) -0.1705 (145)
          -0.1562 (146)  0.1307 (183)  0.1306 (184)  0.1310 (185)  0.1309 (186)
          -0.2358 (187) -0.2501 (188) -0.2358 (189) -0.2358 (190) -0.2501 (191)
          -0.2358 (192)
 CRD 67=  -0.1062 ( 11)  0.2296 ( 13) -0.2128 ( 14) -0.4522 ( 17) -0.1139 ( 44)
          -0.1250 ( 50) -0.1708 ( 51) -0.3426 ( 53)  0.1695 ( 57) -0.1235 ( 58)
           0.1390 ( 59) -0.1378 ( 60)  0.3470 ( 61)  0.2614 ( 93)  0.1422 (108)
           0.1071 (124) -0.1043 (163)  0.1050 (164)  0.2069 (166)  0.1068 (168)
 CRD 68=  -0.1140 ( 33) -0.1435 ( 38) -0.1445 ( 40) -0.1259 ( 42) -0.1263 ( 47)
          -0.1488 ( 63) -0.1490 ( 64)  0.1180 ( 65)  0.1161 ( 66) -0.1404 ( 68)
          -0.1405 ( 69)  0.1391 ( 70)  0.1392 ( 71) -0.1194 ( 72) -0.1197 ( 73)
           0.1487 ( 75)  0.1487 ( 76)  0.1453 ( 80)  0.1449 ( 81)  0.1270 ( 84)
           0.1271 ( 85)  0.1084 ( 87)  0.1084 ( 88) -0.1251 (151) -0.1517 (152)
           0.1208 (157)  0.1534 (158) -0.1683 (172)  0.1684 (173) -0.1692 (176)
           0.1690 (177) -0.1533 (180)  0.1538 (182) -0.1342 (184)  0.1343 (185)
 CRD 69=   0.1343 ( 11)  0.1998 ( 13) -0.6571 ( 15)  0.5308 ( 16) -0.2601 ( 17)
          -0.1183 ( 55)  0.1298 ( 60) -0.1687 ( 93)
 CRD 70=   0.1210 ( 13) -0.1157 ( 17) -0.1089 ( 18) -0.1085 ( 23)  0.1906 ( 33)
           0.1324 ( 37)  0.1289 ( 39) -0.1151 ( 42) -0.1164 ( 47) -0.1314 ( 48)
          -0.1361 ( 52) -0.1033 ( 54) -0.1192 ( 56)  0.1287 ( 65)  0.1243 ( 66)
           0.1274 ( 72)  0.1274 ( 73)  0.1242 ( 77)  0.1244 ( 79)  0.1051 ( 82)
           0.1370 ( 83) -0.1136 ( 84) -0.1135 ( 85)  0.1050 ( 86) -0.1512 ( 87)
          -0.1513 ( 88)  0.1189 ( 93) -0.1490 (100) -0.1492 (101) -0.1524 (151)
          -0.1100 (152)  0.1421 (157)  0.1144 (158)  0.1386 (159) -0.1369 (162)
           0.1110 (180) -0.1105 (182)  0.1655 (184) -0.1654 (185)
 CRD 71=   0.1285 (  1)  0.1319 (  4) -0.1773 ( 13)  0.1702 ( 17) -0.1372 ( 26)
          -0.1093 ( 29) -0.1248 ( 31)  0.1929 ( 33)  0.1295 ( 34)  0.1296 ( 35)
          -0.1158 ( 44) -0.1169 ( 45)  0.1122 ( 54)  0.1329 ( 56)  0.1052 ( 59)
          -0.1162 ( 63) -0.1168 ( 64)  0.1193 ( 75)  0.1178 ( 76)  0.1363 ( 82)
           0.1547 ( 83)  0.1364 ( 86) -0.1065 ( 87) -0.1064 ( 88) -0.1394 ( 93)
          -0.1196 ( 99) -0.1695 (100) -0.1695 (101) -0.1310 (159)  0.1130 (162)
          -0.1093 (163)  0.1471 (168) -0.1525 (170) -0.1210 (172)  0.1185 (173)
          -0.1116 (176)  0.1138 (177)
 CRD 72=  -0.1025 ( 31) -0.2602 (115) -0.2898 (121)  0.3098 (122) -0.1006 (126)
          -0.2400 (167) -0.3205 (168)  0.5410 (170)
 CRD 73=  -0.1505 (  4) -0.1352 (  5)  0.1443 ( 13)  0.1039 ( 14) -0.1742 ( 17)
           0.1388 ( 18)  0.1494 ( 23) -0.1211 ( 29) -0.2380 ( 31)  0.1111 ( 33)
           0.1389 ( 34)  0.1394 ( 35)  0.1085 ( 45)  0.1009 ( 47) -0.1009 ( 54)
          -0.1271 ( 57) -0.1041 ( 70) -0.1028 ( 71)  0.1290 ( 82)  0.1270 ( 83)
           0.1102 ( 84)  0.1101 ( 85)  0.1291 ( 86)  0.1156 ( 93) -0.1516 ( 99)
          -0.1309 (100) -0.1305 (101)  0.1001 (115)  0.1867 (121) -0.1372 (122)
           0.1090 (152) -0.1090 (158)  0.1112 (163) -0.1026 (166)  0.1634 (167)
           0.1035 (169) -0.2204 (170) -0.1166 (180)  0.1164 (182)
 CRD 74=  -0.1802 (  1)  0.1493 (  5)  0.1516 (  8) -0.3124 ( 14)  0.2352 ( 17)
           0.1383 ( 23)  0.1489 ( 26) -0.2614 ( 31)  0.1310 ( 34)  0.1306 ( 35)
          -0.1221 ( 51) -0.1060 ( 52)  0.1018 ( 57)  0.1528 ( 58) -0.1004 ( 75)
          -0.2256 ( 93) -0.1583 ( 99) -0.1049 (151) -0.1130 (167)
 CRD 75=   0.1980 ( 11) -0.1258 ( 12)  0.4285 ( 14) -0.2620 ( 15) -0.3808 ( 16)
          -0.1035 ( 18)  0.1048 ( 26) -0.1423 ( 31) -0.1031 ( 45) -0.1462 ( 55)
          -0.2967 ( 60)  0.2518 ( 93) -0.1753 (163) -0.1016 (165)
 CRD 76=  -0.1560 (  4)  0.1163 (  8)  0.1014 ( 11)  0.1286 ( 13) -0.1551 ( 14)
          -0.1674 ( 15) -0.2360 ( 16)  0.3562 ( 17)  0.1488 ( 18) -0.1292 ( 26)
          -0.1030 ( 29)  0.1722 ( 31) -0.1040 ( 53) -0.1777 ( 55)  0.3077 ( 58)
          -0.2256 ( 60)  0.2818 ( 61)  0.1266 ( 99)  0.1083 (159) -0.1211 (165)
           0.1133 (187) -0.1226 (192)
 CRD 77=   0.1218 ( 19) -0.1222 ( 20) -0.1102 ( 21)  0.1002 ( 22)  0.1584 ( 27)
          -0.1581 ( 28)  0.2566 ( 30) -0.2310 ( 32)  0.1663 ( 34) -0.2203 ( 35)
           0.1018 ( 79)  0.1416 (100) -0.1480 (101)  0.1499 (145)  0.1100 (171)
           0.1165 (172)  0.1787 (183)  0.1828 (184)  0.1856 (185)  0.1897 (186)
          -0.1462 (187) -0.1823 (189) -0.1886 (190) -0.2247 (192)
 CRD 78=   0.1457 (  1) -0.1204 (  5) -0.1183 (  8)  0.1632 ( 12)  0.2007 ( 13)
          -0.1841 ( 14)  0.1849 ( 17) -0.1346 ( 23)  0.1624 ( 29) -0.1240 ( 31)
          -0.1530 ( 32) -0.1011 ( 33)  0.1744 ( 34)  0.1114 ( 50) -0.1051 ( 53)
           0.1674 ( 58)  0.1731 ( 61) -0.1199 ( 77) -0.1155 ( 92) -0.1276 ( 99)
           0.1228 (121) -0.1209 (126)  0.1078 (151) -0.1194 (160) -0.1603 (168)
           0.1652 (169)  0.1075 (183) -0.2197 (187)
 CRD 79=  -0.1053 (  3) -0.1795 (  6)  0.1944 (  7) -0.1673 (  9)  0.1743 ( 10)
          -0.1187 ( 14) -0.1401 ( 21)  0.1583 ( 22)  0.1582 ( 24) -0.1603 ( 25)
          -0.1314 (153) -0.1300 (155) -0.1643 (157)  0.1687 (159)  0.1407 (160)
           0.1897 (161)  0.1617 (162) -0.1194 (164) -0.1168 (165) -0.1483 (166)
           0.1204 (173) -0.1692 (175) -0.1299 (176) -0.1533 (177) -0.1141 (178)
           0.1311 (179)  0.1380 (180)  0.1087 (181)  0.1018 (182)
 CRD 80=  -0.1973 (  2)  0.2006 (  3)  0.1388 (  6) -0.1398 (  7)  0.1918 ( 19)
          -0.2006 ( 20) -0.1386 ( 21)  0.1457 ( 22)  0.1643 (151) -0.1810 (152)
           0.1655 (153) -0.1838 (154)  0.1586 (155) -0.1922 (156)  0.1598 (157)
          -0.1950 (158) -0.1008 (159) -0.1030 (160)  0.1672 (171)  0.1539 (172)
           0.1748 (173)  0.1615 (174) -0.1235 (175) -0.1156 (176) -0.1196 (177)
          -0.1117 (178)
 CRD 81=  -0.1040 (  1) -0.1138 (  3)  0.1060 (  4) -0.1578 (  8) -0.1365 ( 10)
           0.2016 ( 12) -0.1259 ( 21)  0.1269 ( 23)  0.1553 ( 24) -0.1303 ( 25)
          -0.1593 ( 29)  0.1142 ( 30)  0.1344 ( 33) -0.1547 ( 35) -0.1096 ( 42)
          -0.1270 ( 44)  0.1070 ( 64)  0.1120 ( 79) -0.1267 ( 92) -0.1036 ( 98)
           0.1056 ( 99) -0.1116 (101)  0.1105 (121) -0.1052 (126)  0.1010 (145)
           0.1225 (158)  0.1168 (165)  0.1946 (166) -0.1625 (168)  0.1707 (169)
           0.1213 (172) -0.1184 (176) -0.1460 (178)  0.1176 (188) -0.1858 (192)
 CRD 82=  -0.1681 (  2) -0.1522 (  9) -0.1283 ( 14)  0.1646 ( 19) -0.1087 ( 22)
           0.1769 ( 25) -0.1295 ( 28)  0.1112 ( 32) -0.1159 ( 34) -0.1015 ( 47)
          -0.1056 ( 59)  0.1146 ( 70)  0.1430 ( 89) -0.1065 ( 90) -0.1433 ( 94)
           0.1182 ( 95) -0.1049 ( 96)  0.1087 ( 97) -0.1153 (100) -0.1056 (105)
          -0.1033 (127) -0.1045 (145)  0.1016 (150)  0.1444 (151) -0.2165 (152)
          -0.1086 (157)  0.1212 (159) -0.1073 (163) -0.1188 (164)  0.1002 (167)
           0.1364 (172) -0.1080 (173)  0.1434 (177) -0.1051 (181) -0.1631 (182)
          -0.1063 (184)  0.1230 (185)  0.1349 (187)
 CRD 83=   0.1107 (  3)  0.1269 (  4) -0.1104 (  6) -0.1670 (  8)  0.1138 ( 10)
           0.1653 ( 13) -0.1220 ( 14) -0.1339 ( 18) -0.1271 ( 20)  0.1017 ( 21)
          -0.1267 ( 24)  0.1606 ( 26) -0.1865 ( 29)  0.1438 ( 33) -0.1167 ( 34)
          -0.1166 ( 39) -0.1021 ( 59)  0.1143 ( 63) -0.1286 ( 89)  0.1312 ( 90)
           0.1357 ( 94) -0.1509 ( 95)  0.1185 ( 96)  0.1069 ( 99) -0.1009 (120)
          -0.1161 (143) -0.1131 (151)  0.1148 (157) -0.1159 (158) -0.1039 (159)
           0.1715 (162) -0.1100 (172)  0.1389 (173)  0.1823 (176) -0.1361 (177)
          -0.1246 (180)  0.1553 (187) -0.1077 (192)
 CRD 84=   0.1124 (  5)  0.1106 (  7) -0.1587 (  9)  0.1017 ( 11) -0.1243 ( 13)
           0.1185 ( 23) -0.1525 ( 24)  0.1508 ( 27)  0.1735 ( 31) -0.1016 ( 68)
          -0.1204 ( 90)  0.1728 ( 91) -0.1466 ( 92)  0.1653 ( 96) -0.1833 ( 97)
           0.1159 ( 98) -0.1170 (123)  0.1020 (125) -0.1034 (147)  0.1010 (148)
           0.1068 (149) -0.1020 (154)  0.1619 (159) -0.1895 (163)  0.1448 (166)
           0.1269 (176) -0.2117 (180)  0.1457 (182)  0.1707 (184) -0.1584 (185)
 CRD 85=   0.2468 (  1) -0.1695 (  4)  0.1334 (  6)  0.2391 (  8) -0.1446 ( 13)
           0.1111 ( 21) -0.1599 ( 23)  0.2173 ( 26) -0.1362 ( 31)  0.1425 ( 33)
          -0.1552 ( 90)  0.1192 ( 91) -0.1518 ( 95) -0.1156 ( 98)  0.1375 (151)
          -0.1140 (157)  0.1420 (159) -0.1843 (162) -0.1682 (172)  0.1319 (173)
           0.1248 (176) -0.1375 (177) -0.1174 (184)  0.1024 (185) -0.1223 (192)
 CRD 86=   0.1049 (  2)  0.1079 (  3) -0.1554 (  4)  0.2275 (  5)  0.1381 ( 12)
          -0.1409 ( 13)  0.2026 ( 18) -0.1362 ( 20) -0.1599 ( 23)  0.1156 ( 25)
          -0.1322 ( 28)  0.1502 ( 29) -0.1333 ( 31) -0.1647 ( 89)  0.1085 ( 91)
          -0.1593 ( 92)  0.1427 ( 94) -0.1227 ( 96)  0.1469 ( 97) -0.1401 (151)
           0.1527 (152)  0.1050 (157) -0.1882 (158) -0.1514 (163)  0.1518 (166)
          -0.1109 (168)  0.1176 (169)  0.1002 (173)  0.1197 (180) -0.1783 (182)
           0.1112 (185)
 CRD 87=   0.1229 (  3)  0.1178 (  6) -0.1210 (  7)  0.1855 ( 11) -0.1032 ( 12)
          -0.1353 ( 14)  0.1198 ( 15) -0.1180 ( 19)  0.1125 ( 21) -0.1223 ( 22)
          -0.1503 ( 27)  0.1249 ( 28)  0.1690 ( 34) -0.1465 ( 35)  0.1128 ( 51)
          -0.1310 ( 53)  0.1349 ( 55) -0.1513 ( 59)  0.1174 ( 66)  0.1301 (100)
          -0.1066 (101)  0.1393 (103)  0.1501 (112) -0.1382 (117)  0.1224 (124)
           0.1073 (125) -0.1272 (132)  0.1728 (145)  0.1376 (155)  0.1113 (157)
          -0.1205 (163) -0.1227 (164)  0.1576 (167) -0.1052 (171)  0.1396 (188)
           0.1401 (191)
 CRD 88=   0.1351 (  1) -0.1172 (  5)  0.1955 (  8) -0.1485 ( 13) -0.1725 ( 18)
           0.1203 ( 23) -0.1366 ( 29)  0.2002 ( 31) -0.1141 ( 33) -0.1132 ( 38)
          -0.1221 ( 40) -0.1050 ( 54) -0.1017 ( 56)  0.1054 ( 64)  0.1084 ( 70)
           0.1111 ( 71) -0.1160 ( 75) -0.1055 ( 76) -0.1068 ( 88) -0.1126 ( 89)
          -0.1084 ( 96)  0.1033 (104) -0.1027 (105) -0.1032 (137) -0.1009 (139)
           0.1168 (154) -0.1136 (156) -0.1476 (160)  0.1465 (161) -0.1966 (171)
           0.2067 (174) -0.1430 (183)  0.1519 (186)
 CRD 89=  -0.1446 (  4)  0.1637 (  5) -0.1030 ( 22)  0.1438 ( 26)  0.1120 ( 28)
          -0.1279 ( 29)  0.1065 ( 33)  0.1207 ( 42)  0.1006 ( 47) -0.1062 ( 65)
           0.1150 ( 68)  0.1015 ( 69) -0.1283 ( 80) -0.1129 ( 81)  0.1308 ( 90)
          -0.1194 ( 94)  0.1256 ( 95) -0.1405 ( 97)  0.1077 (111) -0.1214 (128)
          -0.1010 (131) -0.1095 (133)  0.1184 (134) -0.1047 (142)  0.1124 (143)
           0.1549 (153)  0.1703 (154) -0.1328 (155) -0.1867 (156) -0.1884 (175)
           0.2063 (178)  0.1652 (179) -0.1497 (181) -0.1092 (189)
 CRD 90=   0.1426 (  1) -0.1890 (  4)  0.1807 (  5) -0.1845 (  8)  0.1587 ( 13)
          -0.1385 ( 23)  0.1862 ( 26) -0.1810 ( 29)  0.1914 ( 31) -0.1390 ( 33)
           0.1098 ( 37)  0.1076 ( 39) -0.1106 ( 44) -0.1094 ( 45) -0.1000 ( 52)
           0.1168 ( 54)  0.1144 ( 56) -0.1094 ( 72) -0.1066 ( 73)  0.1100 ( 77)
           0.1110 ( 79)  0.1003 ( 85) -0.1170 ( 87) -0.1141 ( 88)  0.1898 (160)
          -0.1890 (161) -0.1205 (164)  0.1238 (165) -0.1903 (183)  0.1881 (186)
           0.1215 (189) -0.1229 (190)
 CRD 91=  -0.2422 (  1)  0.1618 (  4) -0.1355 (  5)  0.2944 ( 18) -0.2413 ( 23)
           0.1610 ( 26) -0.1334 ( 29) -0.1018 ( 37) -0.1227 ( 42) -0.1182 ( 63)
           0.1251 ( 65)  0.1098 ( 66)  0.1137 ( 68)  0.1193 ( 69) -0.1171 ( 70)
          -0.1031 ( 73) -0.1192 ( 81) -0.1046 (114)  0.1032 (128)  0.1085 (147)
          -0.1792 (153) -0.1073 (154)  0.1719 (155)  0.1372 (156) -0.1351 (175)
           0.1074 (178)  0.1676 (179) -0.1792 (181)
 CRD 92=  -0.1023 (  2)  0.1673 (  4) -0.1100 (  5) -0.1078 (  6)  0.1187 ( 12)
          -0.1537 ( 13)  0.1162 ( 21) -0.1081 ( 23)  0.1547 ( 26) -0.1269 ( 27)
          -0.1219 ( 33)  0.1369 ( 34) -0.1100 ( 51) -0.1115 ( 56)  0.1017 ( 59)
          -0.1102 ( 87)  0.1135 (100) -0.1227 (104)  0.1315 (108) -0.1420 (124)
           0.1199 (137) -0.1252 (144)  0.1041 (161)  0.1769 (164) -0.1669 (165)
           0.1250 (169)  0.1495 (171) -0.1583 (174) -0.1276 (183)  0.1614 (188)
           0.1297 (189) -0.1596 (190)
 CRD 93=   0.1577 (  7) -0.1718 ( 11) -0.1431 ( 20) -0.1098 ( 22)  0.1194 ( 25)
           0.1381 ( 28) -0.1688 ( 35)  0.1144 ( 86)  0.1076 ( 88) -0.1275 (101)
          -0.1145 (105) -0.1241 (107)  0.1254 (110)  0.1007 (113)  0.1192 (116)
          -0.1135 (123) -0.1120 (127) -0.1254 (129)  0.1053 (134)  0.1261 (138)
           0.1320 (140)  0.1007 (145) -0.1373 (146) -0.1168 (148) -0.1000 (158)
           0.1225 (160) -0.1351 (167) -0.1015 (171)  0.1071 (174)  0.1076 (177)
          -0.1074 (185) -0.1495 (189)  0.1120 (190)  0.2064 (191)
 CRD 94=   0.1069 (  1)  0.1066 ( 11) -0.1196 ( 13) -0.1046 ( 23)  0.1258 ( 24)
          -0.1117 ( 32)  0.1123 ( 33)  0.1062 ( 43) -0.1148 ( 46)  0.1009 ( 49)
           0.1132 ( 67) -0.1059 ( 78) -0.1064 ( 83)  0.1488 ( 89) -0.1329 ( 91)
          -0.1110 ( 92) -0.1474 ( 96)  0.1344 ( 98) -0.1042 (118)  0.1184 (123)
          -0.1146 (135)  0.1155 (144)  0.1226 (153) -0.1465 (154) -0.1007 (155)
           0.1690 (156)  0.1672 (164) -0.1984 (165)  0.1458 (175) -0.1734 (178)
           0.1101 (179) -0.1034 (181) -0.1422 (188) -0.1845 (189)  0.1901 (190)
 CRD 95=   0.1376 (  5) -0.1343 ( 10) -0.1324 ( 18)  0.1155 ( 19)  0.1013 ( 22)
           0.1302 ( 29) -0.1318 ( 30)  0.1117 ( 41) -0.1336 ( 43)  0.1238 ( 62)
          -0.1340 ( 78)  0.1069 ( 90)  0.1440 ( 91) -0.1224 ( 94) -0.1357 ( 95)
           0.1464 ( 98) -0.1132 (104) -0.1077 (106)  0.1071 (119) -0.1123 (143)
          -0.1103 (146) -0.1675 (160)  0.1522 (161) -0.1342 (164)  0.1624 (165)
          -0.1106 (169)  0.1847 (171) -0.1527 (174)  0.1287 (175) -0.1075 (178)
          -0.1611 (183)  0.1273 (186) -0.1665 (189)  0.1665 (190)  0.1498 (191)
 CRD 96=  -0.1520 (  3)  0.1100 (  9) -0.1018 ( 10)  0.1077 ( 11) -0.1144 ( 20)
           0.1270 ( 25)  0.1530 ( 32)  0.1220 ( 34) -0.1013 ( 82) -0.1370 (103)
           0.1127 (107) -0.1477 (111) -0.1314 (113) -0.1595 (116)  0.1147 (117)
           0.1182 (119)  0.1406 (122)  0.1036 (123)  0.1226 (127)  0.1052 (132)
           0.1372 (134)  0.1258 (136)  0.1290 (140) -0.1136 (142) -0.1501 (144)
           0.1461 (149) -0.1157 (155)  0.1041 (156)  0.1379 (167) -0.1665 (169)
           0.1077 (174) -0.1043 (181) -0.1357 (186)  0.2012 (188)  0.1077 (191)
 CRD 97=   0.1138 (  2) -0.1262 (  4) -0.1414 (  5)  0.1034 (  6)  0.1212 (  9)
          -0.1166 ( 24)  0.1282 ( 26)  0.1404 ( 29) -0.1241 ( 30)  0.1401 ( 36)
           0.1291 ( 43)  0.1043 ( 46) -0.1128 ( 67) -0.1385 ( 74) -0.1209 ( 78)
          -0.1001 ( 89) -0.1349 ( 90) -0.1238 ( 91)  0.1080 ( 96)  0.1336 ( 97)
           0.1160 ( 98)  0.1197 (120)  0.1280 (123)  0.1274 (128)  0.1001 (130)
           0.1236 (133) -0.1006 (146)  0.1303 (150) -0.1651 (153)  0.1398 (155)
           0.1482 (160) -0.1852 (161)  0.1243 (164) -0.1292 (165)  0.1037 (178)
          -0.1744 (179)  0.1406 (181) -0.1750 (183)  0.1420 (186) -0.1147 (189)
           0.1211 (190)  0.1364 (191)
 CRD 98=  -0.1482 (  1) -0.1265 (  4) -0.1562 ( 18)  0.1074 ( 22) -0.1507 ( 23)
          -0.1300 ( 26) -0.1024 ( 29)  0.1132 ( 36)  0.1563 ( 41)  0.1413 ( 46)
           0.1575 ( 62)  0.1449 ( 67)  0.1181 ( 74) -0.1270 ( 89) -0.1020 ( 90)
          -0.1405 ( 94) -0.1417 ( 95) -0.1301 ( 96) -0.1064 ( 97) -0.1012 (109)
          -0.1014 (138) -0.1019 (143) -0.1491 (153)  0.1761 (154)  0.1462 (155)
          -0.1682 (156)  0.1035 (160) -0.1137 (161)  0.1861 (171) -0.1772 (174)
           0.1745 (175) -0.1753 (178)  0.1480 (179) -0.1577 (181)  0.1105 (183)
          -0.1181 (186)
 CRD 99=   0.1101 (  7)  0.1049 (  9)  0.1032 ( 21) -0.1009 ( 22)  0.1055 ( 30)
          -0.1052 ( 32) -0.1426 (102) -0.1020 (106)  0.1246 (110) -0.1164 (112)
          -0.1180 (113)  0.1049 (114)  0.1211 (115) -0.1732 (116)  0.1185 (118)
           0.1191 (120)  0.2706 (122) -0.1144 (125) -0.2313 (126) -0.1168 (130)
          -0.1169 (131) -0.1287 (132)  0.1268 (137)  0.1209 (138)  0.1348 (144)
           0.1349 (146) -0.1357 (149) -0.1354 (150)  0.1798 (167) -0.2798 (169)
          -0.1263 (188) -0.1265 (191)
 CRD100=  -0.1432 ( 12)  0.1197 ( 57) -0.1146 (104) -0.1163 (105)  0.1057 (107)
          -0.1202 (108) -0.1056 (109) -0.1076 (111) -0.2538 (115) -0.2964 (122)
           0.1359 (123)  0.1625 (124)  0.1819 (125)  0.2832 (126) -0.1040 (129)
           0.1201 (135)  0.1219 (136)  0.1182 (139)  0.1179 (141)  0.1155 (144)
           0.1155 (146) -0.1083 (147) -0.1075 (148) -0.1234 (149) -0.1231 (150)
          -0.1465 (167)  0.2820 (169)
 CRD101=   0.1055 (  6) -0.1036 (  7)  0.1063 ( 10) -0.1066 ( 27)  0.1067 ( 28)
           0.1576 (102)  0.1640 (106)  0.1654 (108)  0.1505 (113) -0.1543 (114)
           0.1580 (115) -0.1545 (118) -0.1643 (119) -0.1618 (120)  0.1206 (122)
          -0.1280 (123) -0.1358 (124) -0.1277 (126)  0.1119 (127)  0.1133 (128)
           0.1526 (133)  0.1528 (134)  0.1596 (139)  0.1591 (141) -0.1436 (142)
          -0.1428 (143)  0.1162 (144)  0.1163 (146) -0.1628 (147) -0.1627 (148)
          -0.1298 (149) -0.1298 (150) -0.1052 (169)
 CRD102=   0.1019 (  2) -0.1015 (  3)  0.1096 ( 19) -0.1097 ( 20)  0.1068 ( 21)
          -0.1070 ( 22)  0.1342 (102) -0.1816 (104) -0.1822 (105)  0.1360 (106)
          -0.1705 (109) -0.1710 (111) -0.1430 (114) -0.1429 (118) -0.1040 (119)
          -0.1033 (120)  0.1656 (127)  0.1665 (128) -0.1750 (130) -0.1758 (131)
          -0.1516 (133) -0.1519 (134)  0.1814 (135)  0.1806 (136)  0.1785 (137)
           0.1782 (138) -0.1137 (139) -0.1133 (141)  0.1583 (142)  0.1581 (143)
           0.1226 (147)  0.1229 (148)

 THE DETERMINANT OF THE G MATRIX IS 10**(   -39)


                     --------------------
                     INTERNAL COORDINATES
                     --------------------

                 - - ATOMS - -         COORDINATE      COORDINATE
 NO.   TYPE    I  J  K  L  M  N        (BOHR,RAD)       (ANG,DEG)
 ----------------------------------------------------------------
   1 STRETCH   1  7                     2.8725324       1.5200788
   2 STRETCH   1 14                     2.0952402       1.1087535
   3 STRETCH   1 13                     2.0952371       1.1087518
   4 STRETCH   1  2                     2.8725842       1.5201062
   5 STRETCH   2  3                     2.8726434       1.5201375
   6 STRETCH   2 15                     2.0952756       1.1087722
   7 STRETCH   2 16                     2.0951871       1.1087254
   8 STRETCH   3  4                     2.8754537       1.5216247
   9 STRETCH   3 18                     2.0952595       1.1087636
  10 STRETCH   3 17                     2.0944149       1.1083167
  11 STRETCH   4 20                     2.0956607       1.1089759
  12 STRETCH   4 19                     2.0958072       1.1090535
  13 STRETCH   4  5                     2.8127712       1.4884545
  14 STRETCH   5  6                     2.5089304       1.3276689
  15 STRETCH   5 21                     2.0730392       1.0970052
  16 STRETCH   6 23                     2.0533973       1.0866111
  17 STRETCH   6 22                     2.0516091       1.0856649
  18 STRETCH   7  8                     2.8728801       1.5202628
  19 STRETCH   7 25                     2.0954345       1.1088563
  20 STRETCH   7 24                     2.0951956       1.1087298
  21 STRETCH   8 27                     2.0949663       1.1086085
  22 STRETCH   8 26                     2.0949998       1.1086263
  23 STRETCH   8  9                     2.8725387       1.5200821
  24 STRETCH   9 29                     2.0950668       1.1086617
  25 STRETCH   9 28                     2.0953921       1.1088338
  26 STRETCH   9 10                     2.8723705       1.5199931
  27 STRETCH  10 31                     2.0950016       1.1086272
  28 STRETCH  10 30                     2.0953552       1.1088143
  29 STRETCH  10 11                     2.8730025       1.5203276
  30 STRETCH  11 32                     2.0944918       1.1083574
  31 STRETCH  11 12                     2.8571863       1.5119580
  32 STRETCH  11 33                     2.0940192       1.1081073
  33 STRETCH  12 36                     2.0736933       1.0973513
  34 STRETCH  12 35                     2.0752910       1.0981968
  35 STRETCH  12 34                     2.0752198       1.0981591
  36 BEND      1  2  3                  1.9425637     111.3007039
  37 BEND      1  2 15                  1.9194622     109.9770855
  38 BEND      1  7 24                  1.9189939     109.9502521
  39 BEND      1  2 16                  1.9190196     109.9517217
  40 BEND      1  7 25                  1.9196287     109.9866219
  41 BEND      1  7  8                  1.9428814     111.3189051
  42 BEND      2  1 14                  1.9192601     109.9655044
  43 BEND      2  3  4                  1.9412012     111.2226344
  44 BEND      2  3 18                  1.9197018     109.9908090
  45 BEND      2  3 17                  1.9202167     110.0203126
  46 BEND      2  1  7                  1.9427786     111.3130120
  47 BEND      2  1 13                  1.9192812     109.9667150
  48 BEND      3  2 15                  1.9195329     109.9811320
  49 BEND      3  4  5                  1.9385783     111.0723527
  50 BEND      3  4 20                  1.9203844     110.0299207
  51 BEND      3  4 19                  1.9236998     110.2198799
  52 BEND      3  2 16                  1.9192057     109.9623869
  53 BEND      4  5 21                  2.0209147     115.7898827
  54 BEND      4  3 18                  1.9210369     110.0673062
  55 BEND      4  5  6                  2.1497981     123.1743587
  56 BEND      4  3 17                  1.9171108     109.8423550
  57 BEND      5  4 19                  1.8941367     108.5260412
  58 BEND      5  6 23                  2.1516060     123.2779432
  59 BEND      5  4 20                  1.9402838     111.1700733
  60 BEND      5  6 22                  2.1401161     122.6196222
  61 BEND      6  5 21                  2.1124585     121.0349572
  62 BEND      7  8  9                  1.9428119     111.3149229
  63 BEND      7  8 26                  1.9189875     109.9498859
  64 BEND      7  8 27                  1.9192689     109.9660055
  65 BEND      7  1 13                  1.9193994     109.9734851
  66 BEND      7  1 14                  1.9189438     109.9473821
  67 BEND      8  9 10                  1.9429328     111.3218514
  68 BEND      8  9 28                  1.9190100     109.9511760
  69 BEND      8  9 29                  1.9195992     109.9849303
  70 BEND      8  7 24                  1.9189355     109.9469036
  71 BEND      8  7 25                  1.9192281     109.9636696
  72 BEND      9 10 30                  1.9197970     109.9962639
  73 BEND      9 10 31                  1.9198583     109.9997756
  74 BEND      9 10 11                  1.9443751     111.4044877
  75 BEND      9  8 26                  1.9193083     109.9682666
  76 BEND      9  8 27                  1.9190182     109.9516433
  77 BEND     10 11 32                  1.9174227     109.8602291
  78 BEND     10 11 12                  1.9457872     111.4853969
  79 BEND     10 11 33                  1.9179535     109.8906409
  80 BEND     10  9 28                  1.9190294     109.9522830
  81 BEND     10  9 29                  1.9191872     109.9613265
  82 BEND     11 12 35                  1.9485700     111.6448363
  83 BEND     11 12 36                  1.9424552     111.2944847
  84 BEND     11 10 30                  1.9178679     109.8857366
  85 BEND     11 10 31                  1.9178794     109.8863977
  86 BEND     11 12 34                  1.9486802     111.6511499
  87 BEND     12 11 33                  1.9192914     109.9672988
  88 BEND     12 11 32                  1.9191407     109.9586632
  89 BEND     13  1 14                  1.8415927     105.5154895
  90 BEND     15  2 16                  1.8414803     105.5090477
  91 BEND     17  3 18                  1.8421090     105.5450727
  92 BEND     19  4 20                  1.8443706     105.6746529
  93 BEND     22  6 23                  1.9914623     114.1023876
  94 BEND     24  7 25                  1.8415811     105.5148266
  95 BEND     26  8 27                  1.8418713     105.5314534
  96 BEND     28  9 29                  1.8414825     105.5091770
  97 BEND     30 10 31                  1.8413647     105.5024258
  98 BEND     32 11 33                  1.8414615     105.5079722
  99 BEND     34 12 35                  1.8715433     107.2315315
 100 BEND     34 12 36                  1.8744199     107.3963497
 101 BEND     35 12 36                  1.8741448     107.3805857
 102 TORSION   1  2  3 17               1.0156152      58.1904634
 103 TORSION   1  7  8  9              -3.1323313    -179.4693620
 104 TORSION   1  7  8 26               1.0195628      58.4166448
 105 TORSION   1  7  8 27              -1.0012140     -57.3653361
 106 TORSION   1  2  3 18              -1.0064134     -57.6632379
 107 TORSION   1  2  3  4              -3.1393010    -179.8686988
 108 TORSION   2  3  4 20              -1.0054634     -57.6088110
 109 TORSION   2  1  7 24               1.0202210      58.4543596
 110 TORSION   2  1  7  8              -3.1320943    -179.4557835
 111 TORSION   2  1  7 25              -1.0004162     -57.3196248
 112 TORSION   2  3  4  5               3.1216783     178.8589893
 113 TORSION   2  3  4 19               1.0217452      58.5416866
 114 TORSION   3  2  1 13               1.0188563      58.3761654
 115 TORSION   3  4  5 21              -0.8817534     -50.5207456
 116 TORSION   3  4  5  6               2.2654789     129.8023812
 117 TORSION   3  2  1  7              -3.1327425    -179.4929252
 118 TORSION   3  2  1 14              -1.0017480     -57.3959315
 119 TORSION   4  3  2 16               1.0129759      58.0392424
 120 TORSION   4  3  2 15              -1.0076064     -57.7315922
 121 TORSION   4  5  6 22               3.1283184     179.2394386
 122 TORSION   4  5  6 23              -0.0118147      -0.6769348
 123 TORSION   5  4  3 17              -1.0314350     -59.0968734
 124 TORSION   5  4  3 18               0.9895640      56.6978403
 125 TORSION   6  5  4 19              -1.9003460    -108.8818026
 126 TORSION   6  5  4 20               0.1208637       6.9249770
 127 TORSION   7  1  2 15               1.0187073      58.3676264
 128 TORSION   7  1  2 16              -1.0017263     -57.3946916
 129 TORSION   7  8  9 10              -3.1334932    -179.5359367
 130 TORSION   7  8  9 28               1.0186574      58.3647704
 131 TORSION   7  8  9 29              -1.0018526     -57.4019271
 132 TORSION   8  9 10 11              -3.1380956    -179.7996315
 133 TORSION   8  9 10 30               1.0140123      58.0986264
 134 TORSION   8  9 10 31              -1.0069611     -57.6946236
 135 TORSION   8  7  1 13              -1.0005762     -57.3287916
 136 TORSION   8  7  1 14               1.0199134      58.4367336
 137 TORSION   9  8  7 24              -1.0014275     -57.3775670
 138 TORSION   9  8  7 25               1.0189442      58.3812019
 139 TORSION   9 10 11 33              -1.0054747     -57.6094587
 140 TORSION   9 10 11 12              -3.1380368    -179.7962660
 141 TORSION   9 10 11 32               1.0131452      58.0489418
 142 TORSION  10  9  8 26              -1.0023876     -57.4325811
 143 TORSION  10  9  8 27               1.0184297      58.3517254
 144 TORSION  10 11 12 34               1.0477437      60.0312935
 145 TORSION  10 11 12 36              -3.1410801    -179.9706327
 146 TORSION  10 11 12 35              -1.0471435     -59.9969017
 147 TORSION  11 10  9 28              -1.0070721     -57.7009793
 148 TORSION  11 10  9 29               1.0132108      58.0527051
 149 TORSION  12 11 10 30              -1.0058452     -57.6306826
 150 TORSION  12 11 10 31               1.0128711      58.0332413
 151 TORSION  13  1  2 16              -3.1333128    -179.5256010
 152 TORSION  13  1  7 24              -3.1314462    -179.4186485
 153 TORSION  13  1  2 15              -1.1128792     -63.7632829
 154 TORSION  13  1  7 25               1.1311019      64.8073672
 155 TORSION  14  1  2 16               1.1292682      64.7023020
 156 TORSION  14  1  7 24              -1.1109566     -63.6531233
 157 TORSION  14  1  2 15              -3.1334835    -179.5353799
 158 TORSION  14  1  7 25              -3.1315938    -179.4271076
 159 TORSION  15  2  3 17              -3.1358755    -179.6724300
 160 TORSION  15  2  3 18               1.1252813      64.4738687
 161 TORSION  16  2  3 17              -1.1152932     -63.9015953
 162 TORSION  16  2  3 18              -3.1373218    -179.7552967
 163 TORSION  17  3  4 19              -3.1313681    -179.4141761
 164 TORSION  17  3  4 20               1.1246086      64.4353263
 165 TORSION  18  3  4 19              -1.1103691     -63.6194624
 166 TORSION  18  3  4 20              -3.1375777    -179.7699600
 167 TORSION  19  4  5 21               1.2356071      70.7950705
 168 TORSION  20  4  5 21              -3.0263686    -173.3981498
 169 TORSION  21  5  6 22              -0.0073481      -0.4210140
 170 TORSION  21  5  6 23               3.1357041     179.6626126
 171 TORSION  24  7  8 27               1.1296898      64.7264589
 172 TORSION  24  7  8 26              -3.1327187    -179.4915602
 173 TORSION  25  7  8 27              -3.1331238    -179.5147721
 174 TORSION  25  7  8 26              -1.1123470     -63.7327912
 175 TORSION  26  8  9 29               1.1292530      64.7014286
 176 TORSION  26  8  9 28              -3.1334223    -179.5318739
 177 TORSION  27  8  9 29              -3.1331150    -179.5142650
 178 TORSION  27  8  9 28              -1.1126049     -63.7475675
 179 TORSION  28  9 10 31               1.1240623      64.4040286
 180 TORSION  28  9 10 30              -3.1381495    -179.8027214
 181 TORSION  29  9 10 30              -1.1178666     -64.0490370
 182 TORSION  29  9 10 31              -3.1388400    -179.8422870
 183 TORSION  30 10 11 33               1.1267169      64.5561246
 184 TORSION  30 10 11 32              -3.1378485    -179.7854748
 185 TORSION  31 10 11 33              -3.1377521    -179.7799514
 186 TORSION  31 10 11 32              -1.1191322     -64.1215508
 187 TORSION  32 11 12 34              -3.1044292    -177.8706888
 188 TORSION  32 11 12 36              -1.0100677     -57.8726150
 189 TORSION  32 11 12 35               1.0838689      62.1011160
 190 TORSION  33 11 12 34              -1.0840470     -62.1113179
 191 TORSION  33 11 12 36               1.0103145      57.8867559
 192 TORSION  33 11 12 35               3.1042511     177.8604869

     ------------------------------------------
     THE POINT GROUP IS C1 , NAXIS= 1, ORDER= 1
     ------------------------------------------

     DIMENSIONS OF THE SYMMETRY SUBSPACES ARE
 A   =  372

 ..... DONE SETTING UP THE RUN .....
 STEP CPU TIME =     0.04 TOTAL CPU TIME =        0.0 (    0.0 MIN)
 TOTAL WALL CLOCK TIME=        0.1 SECONDS, CPU UTILIZATION IS  80.00%


          -----------------------------
          STATIONARY POINT LOCATION RUN
          -----------------------------

 OBTAINING INITIAL HESSIAN, HESS=GUESS   
 DIAGONAL GUESS HESSIAN IN INTERNAL COORDS IS
     1  0.3743     2  0.3340     3  0.3340     4  0.3743     5  0.3743
     6  0.3340     7  0.3340     8  0.3732     9  0.3340    10  0.3343
    11  0.3338    12  0.3338    13  0.3981    14  0.5441    15  0.3417
    16  0.3487    17  0.3493    18  0.3742    19  0.3339    20  0.3340
    21  0.3341    22  0.3341    23  0.3743    24  0.3340    25  0.3339
    26  0.3744    27  0.3340    28  0.3339    29  0.3741    30  0.3342
    31  0.3803    32  0.3344    33  0.3415    34  0.3409    35  0.3409
    36  0.2499    37  0.2236    38  0.2236    39  0.2236    40  0.2235
    41  0.2499    42  0.2236    43  0.2498    44  0.2235    45  0.2236
    46  0.2499    47  0.2236    48  0.2235    49  0.2520    50  0.2234
    51  0.2234    52  0.2236    53  0.2261    54  0.2235    55  0.2666
    56  0.2235    57  0.2254    58  0.2369    59  0.2254    60  0.2369
    61  0.2362    62  0.2499    63  0.2235    64  0.2236    65  0.2236
    66  0.2236    67  0.2499    68  0.2235    69  0.2236    70  0.2235
    71  0.2235    72  0.2236    73  0.2236    74  0.2499    75  0.2236
    76  0.2236    77  0.2236    78  0.2504    79  0.2236    80  0.2236
    81  0.2236    82  0.2247    83  0.2247    84  0.2235    85  0.2235
    86  0.2247    87  0.2241    88  0.2241    89  0.2015    90  0.2015
    91  0.2016    92  0.2015    93  0.2038    94  0.2015    95  0.2015
    96  0.2015    97  0.2015    98  0.2016    99  0.2026   100  0.2026
   101  0.2026   102  0.2500   103  0.2500   104  0.2500   105  0.2500
   106  0.2500   107  0.2500   108  0.2500   109  0.2500   110  0.2500
   111  0.2500   112  0.2500   113  0.2500   114  0.2500   115  0.2500
   116  0.2500   117  0.2500   118  0.2500   119  0.2500   120  0.2500
   121  0.2500   122  0.2500   123  0.2500   124  0.2500   125  0.2500
   126  0.2500   127  0.2500   128  0.2500   129  0.2500   130  0.2500
   131  0.2500   132  0.2500   133  0.2500   134  0.2500   135  0.2500
   136  0.2500   137  0.2500   138  0.2500   139  0.2500   140  0.2500
   141  0.2500   142  0.2500   143  0.2500   144  0.2500   145  0.2500
   146  0.2500   147  0.2500   148  0.2500   149  0.2500   150  0.2500
   151  0.2500   152  0.2500   153  0.2500   154  0.2500   155  0.2500
   156  0.2500   157  0.2500   158  0.2500   159  0.2500   160  0.2500
   161  0.2500   162  0.2500   163  0.2500   164  0.2500   165  0.2500
   166  0.2500   167  0.2500   168  0.2500   169  0.2500   170  0.2500
   171  0.2500   172  0.2500   173  0.2500   174  0.2500   175  0.2500
   176  0.2500   177  0.2500   178  0.2500   179  0.2500   180  0.2500
   181  0.2500   182  0.2500   183  0.2500   184  0.2500   185  0.2500
   186  0.2500   187  0.2500   188  0.2500   189  0.2500   190  0.2500
   191  0.2500   192  0.2500
 TRANSFORMING HESSIAN TO SYMMETRY COORDINATES

          PARAMETERS CONTROLLING GEOMETRY SEARCH ARE
          METHOD =QA                  UPHESS =BFGS    
          NNEG   =         0          NFRZ   =         3
          NSTEP  =        50          IFOLOW =         1
          HESS   =GUESS               RESTAR =         F
          IHREP  =         0          HSSEND =         F
          NPRT   =         0          NPUN   =         0
          OPTTOL = 5.000E-04          RMIN   = 1.500E-03
          RMAX   = 1.000E-01          RLIM   = 7.000E-02
          DXMAX  = 3.000E-01          PURIFY =         F
          MOVIE  =         F          TRUPD  =         T
          TRMAX  = 5.000E-01          TRMIN  = 5.000E-02
          ITBMAT =         5          STPT   =         F
          STSTEP = 1.000E-02          PROJCT=          F
          FROZEN COORD(S)=   1   2   3


      ***** EQUILIBRIUM GEOMETRY LOCATED *****
            (SUBJECT TO   3 CONSTRAINT(S))
 COORDINATES OF ALL ATOMS ARE (ANGS)
   ATOM   CHARGE       X              Y              Z
 ------------------------------------------------------------
 C           6.0   7.9318611785   3.9404320018   1.6755697858
 C           6.0   8.7861258743   2.7647116475   1.2001887048
 C           6.0  10.2626151246   2.8885939099   1.5780213506
 C           6.0  11.0996933000   1.7036183015   1.0821336110
 C           6.0  12.5593996768   1.8280064627   1.4257148082
 C           6.0  13.2607471589   0.9421402867   2.1088919473
 C           6.0   6.4555616477   3.8009819553   1.3002124774
[...]
1006  10   7.282252  14.807198   4.405014   0.000252   0.172941   0.001460
1007  10   8.568129  14.198451   4.290937   0.000212   0.099832   0.002119
1008  31   5.218918  10.006704   7.007417  -0.000065   0.071724  -0.000900
1009  31   6.032902   9.640609   6.972771  -0.000062   0.071724  -0.000867
1010  10   5.499284   9.570676   6.688278  -0.000141   0.156408  -0.000898
1011  31   8.082330  13.123606   6.405061   0.000039   0.081963   0.000476
1012  31   6.934460  13.727049   6.444408  -0.000231   0.189330  -0.001218
1013  10   7.767837  13.565221   6.044690   0.000179   0.173332   0.001034
1014  10   6.442855  14.102803   6.107449   0.000223   0.100136   0.002223
1015  32   3.638296   8.564662   5.809836  -0.000149   0.144602  -0.001030
1016  10   4.596484   9.031366   6.169966   0.000438   0.203864   0.002150
1017  33   4.844078  12.104874  -0.672957  -0.000108   0.140679  -0.000769
1018  10   5.883714  12.270772  -0.278109   0.000412   0.198342   0.002079
1019  11  -0.036101   9.697877   3.611407   0.000036   0.028136   0.001278
1020  12  -0.272608  10.111292   3.758098   0.000064   0.028136   0.002258
1021  32   0.084723   9.451276   3.742141   0.000017   0.028136   0.000608
1022  11   1.949443  10.090927   6.178755   0.000054   0.028136   0.001928
1023  12   1.687112  10.499231   6.292055   0.000101   0.028136   0.003590
1024  32   1.892442   9.809124   6.079558   0.000015   0.028136   0.000527
1025  11   3.189522  13.410874  -0.190766   0.000036   0.028197   0.001270
1026  12   2.912788  13.780642  -0.003531   0.000065   0.028197   0.002294
1027  33   3.149435  13.175929  -0.379726   0.000013   0.028197   0.000450
1028  11   0.612483  11.440823   0.263307   0.000045   0.028197   0.001611
1029  12   0.369239  11.836194   0.444640   0.000100   0.028197   0.003538
1030  33   0.803167  11.382294   0.033685   0.000012   0.028197   0.000442
1031  11   3.498028  14.037100   0.245057   0.000034   0.025922   0.001319
1032  12   3.236209  14.445900   0.357469   0.000002   0.025922   0.000069
1033  34   3.274109  14.731491   0.452621  -0.000030   0.025922  -0.001170
1034  11   2.284904  10.763632   6.543630   0.000049   0.025884   0.001881
1035  12   2.008463  11.132960   6.731989   0.000025   0.025884   0.000965
1036  35   2.028173  11.370406   6.919815  -0.000017   0.025884  -0.000646
1037  11   0.141367  11.519848   0.712838   0.000089   0.025494   0.003480
1038  12  -0.157497  11.900869   0.830292   0.000029   0.025494   0.001149
1039  36  -0.421065  11.963087   0.966095  -0.000005   0.025494  -0.000202
1040  11  -0.358557  10.173564   3.301320   0.000053   0.025494   0.002082
1041  12  -0.664213  10.536294   3.453941   0.000025   0.025494   0.000961
1042  36  -0.882194  10.721277   3.353706  -0.000002   0.025494  -0.000082
1043  12   3.069340  14.241436   0.186402   0.000149   0.084199   0.001766
1044  11   3.375665  13.639712  -0.067754   0.000177   0.084199   0.002102
1045  12   0.031203  11.958090   0.620067   0.000129   0.048299   0.002678
1046  11   0.389581  11.364381   0.439153   0.000151   0.048299   0.003120
1047  12  -0.571155  10.385761   3.609751   0.000110   0.047612   0.002307
1048  11  -0.168552   9.815230   3.448615   0.000118   0.047612   0.002473
1049  12   1.741552  10.855650   6.568814   0.000219   0.086778   0.002521
1050  11   2.216380  10.341199   6.392703   0.000203   0.086778   0.002340
1051  11   3.582118   7.333427   2.267990   0.000156   0.089870   0.001736
1052  28   4.444426   6.879208   2.515773   0.000249   0.089870   0.002775
1053  32   3.431206   7.251338   2.522829  -0.000070   0.089870  -0.000782
1054  28   4.857684   6.455151   2.398309   0.000032   0.006783   0.004690
1055  11   3.621878   7.206799   2.067129   0.000075   0.009642   0.007763
1056  11   4.595127  14.061265   0.634489   0.000124   0.167952   0.000741
1057  30   5.290932  14.266176   0.840112  -0.000046   0.167952  -0.000272
1058  34   4.296278  14.718327   0.881200  -0.000043   0.167952  -0.000253
1059  30   5.978057  13.838326   0.451149  -0.000112   0.146016  -0.000770
1060  11   4.905936  13.589821   0.223030   0.000387   0.205868   0.001878
1061  11   3.425358  10.916523   6.679585   0.000127   0.168056   0.000755
1062  31   4.111215  11.092127   6.939651   0.000007   0.168056   0.000041
1063  35   3.115783  11.544276   6.983230  -0.000089   0.168056  -0.000528
1064  31   4.654725  10.557061   7.045667  -0.000149   0.146810  -0.001015
1065  11   3.719638  10.141651   6.579392   0.000419   0.206981   0.002023
1066  32   0.215411   8.982678   3.515227  -0.000048   0.067540  -0.000713
1067  32   0.668213   8.396057   2.721401  -0.000151   0.149016  -0.001011
1068  32   1.690624   7.718397   2.248423  -0.000013   0.149016  -0.000089
1069  32   2.700153   7.335777   2.365761  -0.000043   0.067540  -0.000637
1070  11   0.260944   9.080330   2.933016  -0.000032   0.148974  -0.000216
1071  11   1.115254   8.270405   2.040780   0.000244   0.148974   0.001637
1072  11   2.443089   7.633993   1.923535   0.000180   0.148974   0.001211
1073  32   3.037447   8.999768   6.059619  -0.000072   0.071593  -0.001006
1074  32   2.226310   9.371170   6.095825  -0.000060   0.071593  -0.000831
1075  11   2.803533   9.552602   6.157306  -0.000177   0.156078  -0.001137
1076  33   3.534926  12.881098  -0.637808  -0.000060   0.071210  -0.000844
1077  33   4.341707  12.511448  -0.674049  -0.000071   0.071210  -0.000993
1078  11   4.067280  12.948217  -0.354768  -0.000156   0.155421  -0.001002
1079  33   3.193459   8.647877  -0.151134   0.000019   0.067597   0.000274
1080  33   2.146641   8.931843  -0.083102  -0.000047   0.149165  -0.000315
1081  33   1.215924   9.861552  -0.095333  -0.000180   0.149165  -0.001210
1082  33   0.931834  10.907053  -0.180855  -0.000069   0.067597  -0.001025
1083  11   2.774291   8.508833   0.243597   0.000186   0.149078   0.001246
1084  11   1.456788   9.177026   0.295849   0.000216   0.149078   0.001448
1085  11   0.788027  10.492946   0.217495  -0.000036   0.149078  -0.000241
1086  34   3.646559  14.995371   0.617602  -0.000198   0.138599  -0.001426
1087  11   3.921277  13.971120   0.211322   0.000393   0.195307   0.002012
1088  35   2.256125  11.554261   7.124564  -0.000167   0.137440  -0.001216
1089  11   2.798713  10.672297   6.658169   0.000375   0.193674   0.001935
1090  36  -0.723046  11.742775   1.225619  -0.000212   0.198988  -0.001066
1091  36  -0.998005  11.040881   2.437300  -0.001013   0.406977  -0.002489
1092  11  -0.086704  10.684517   1.350281   0.000932   0.545322   0.001709
1093  11  -0.329336   9.995982   2.799696   0.000708   0.280219   0.002527
1094  12   4.813409  15.770382   4.019448   0.000110   0.088316   0.001240
1095  30   5.693920  15.421069   3.702857   0.000233   0.088316   0.002639
1096  34   4.740934  15.943754   3.777273  -0.000093   0.088316  -0.001057
1097  30   6.302974  15.372090   3.804033   0.000077   0.034699   0.002218
1098  12   4.966901  15.791357   4.265063   0.000225   0.049292   0.004556
1099  12   4.372484  14.575662   6.311317   0.000100   0.088386   0.001128
1100  31   5.162807  13.982527   6.461619   0.000213   0.088386   0.002405
1101  35   4.205810  14.496249   6.556002  -0.000007   0.088386  -0.000081
1102  31   5.784847  13.949372   6.533902   0.000038   0.032009   0.001195
1103  12   4.572859  14.746641   6.265693   0.000205   0.045475   0.004506
1104  32   1.513992   9.555889   5.887934  -0.000142   0.216618  -0.000653
1105  32   0.503093   9.354790   4.721834  -0.001117   0.446026  -0.002504
1106  12   0.648417  10.448411   5.746375   0.000945   0.590890   0.001599
1107  12  -0.363904  10.248913   4.308985   0.000786   0.305146   0.002575
1108  33   1.075296  11.635117  -0.293430  -0.000166   0.217013  -0.000763
1109  33   2.254931  12.616796  -0.569363  -0.001142   0.446918  -0.002555
1110  12   0.913947  12.816264   0.087694   0.000970   0.591903   0.001639
1111  12   2.348472  13.840137  -0.103058   0.000785   0.305706   0.002567
1112  34   2.943184  15.150185   0.425356  -0.000073   0.067582  -0.001079
1113  34   1.950395  15.584200   0.531998  -0.000209   0.149252  -0.001398
1114  34   1.077141  16.271254   1.240489  -0.000166   0.149252  -0.001115
1115  34   0.906435  16.904470   2.383499  -0.000163   0.149252  -0.001095
1116  34   1.505640  17.233971   3.509979  -0.000239   0.149252  -0.001599
1117  34   2.638300  17.129732   4.175403  -0.000122   0.149252  -0.000815
1118  34   3.857451  16.632886   4.117186  -0.000229   0.149252  -0.001534
1119  12   2.403325  14.920705   0.344604  -0.000119   0.148918  -0.000801
1120  12   1.158044  15.605239   0.760524   0.000045   0.148918   0.000305
1121  12   0.540296  16.386489   1.856123   0.000160   0.148918   0.001076
1122  12   0.793853  16.956163   3.199060  -0.000013   0.148918  -0.000086
1123  12   1.818659  17.089458   4.259394   0.000015   0.148918   0.000101
1124  12   3.210309  16.733775   4.618700   0.000186   0.148918   0.001250
1125  12   4.255586  16.202173   4.356136   0.000056   0.082567   0.000679
1126  35   3.694435  15.038874   6.676107  -0.000034   0.067626  -0.000501
1127  35   2.805501  15.668201   6.651429  -0.000136   0.149369  -0.000912
1128  35   1.493812  15.791066   6.706527  -0.000199   0.149369  -0.001335
1129  35   0.372227  15.111256   6.842781  -0.000248   0.149369  -0.001661
1130  35  -0.116072  13.897391   7.006352  -0.000130   0.149369  -0.000873
1131  35   0.221861  12.629117   7.132606  -0.000149   0.149369  -0.001000
1132  35   1.252495  11.807577   7.171655  -0.000321   0.149369  -0.002146
1133  12   3.522417  15.461676   6.298639   0.000025   0.148995   0.000171
1134  12   2.164185  16.053366   6.302942   0.000039   0.148995   0.000264
1135  12   0.724233  15.723779   6.416179   0.000018   0.148995   0.000119
1136  12  -0.228457  14.603149   6.593608   0.000078   0.148995   0.000523
1137  12  -0.317440  13.134280   6.765119   0.000158   0.148995   0.001058
1138  12   0.492444  11.897579   6.862942   0.000017   0.148995   0.000111
1139  12   1.559145  11.342546   6.869824   0.000006   0.082620   0.000076
1140  36  -1.254239  11.000989   3.628627  -0.000078   0.069492  -0.001127
1141  36  -1.548125  11.666851   4.478607  -0.000232   0.154440  -0.001504
1142  36  -1.810555  12.911708   4.937897  -0.000189   0.154440  -0.001224
1143  36  -1.863419  14.206202   4.549343  -0.000209   0.154440  -0.001350
1144  36  -1.684604  15.008884   3.475466  -0.000291   0.154440  -0.001886
1145  36  -1.348904  14.984014   2.165439  -0.000163   0.154440  -0.001058
1146  36  -0.996732  14.141995   1.167209  -0.000210   0.154440  -0.001357
1147  36  -0.775393  12.835019   0.898308  -0.000333   0.154440  -0.002156
1148  12  -1.054938  11.049142   4.192128  -0.000113   0.152193  -0.000745
1149  12  -1.425710  12.188408   5.126574   0.000113   0.152193   0.000740
1150  12  -1.612855  13.695657   5.168560   0.000163   0.152193   0.001073
1151  12  -1.538096  14.940451   4.300524  -0.000048   0.152193  -0.000315
1152  12  -1.232702  15.402127   2.885541  -0.000006   0.152193  -0.000038
1153  12  -0.824411  14.887579   1.515458   0.000161   0.152193   0.001060
1154  12  -0.483999  13.612028   0.763343   0.000013   0.152193   0.000084
1155  12  -0.338575  12.385590   0.756161   0.000016   0.084900   0.000183
1156  18  19.012890   8.846040   0.406771   0.000101   0.253742   0.000399
1157  18  19.347462   9.520739   1.255931  -0.000439   0.507355  -0.000866
1158  18  19.482137   9.708174   2.620020  -0.000028   0.507355  -0.000056
1159  13  17.740451   9.757489   0.763303  -0.000161   0.507355  -0.000318
1160  13  18.054160  10.356296   1.970377  -0.000188   0.507355  -0.000370
1161  13  18.065235  10.287687   3.103249   0.000402   0.253742   0.001584
1162  26  13.636348  12.269157   3.232948   0.000440   0.254081   0.001732
1163  26  13.624855  12.324364   2.093722  -0.000112   0.508050  -0.000220
1164  26  13.312346  11.703922   0.889781  -0.000096   0.508050  -0.000189
1165  13  15.050003  11.695838   2.754666   0.000184   0.508050   0.000363
1166  13  14.915432  11.489201   1.386720  -0.000253   0.508050  -0.000498
1167  13  14.582375  10.796593   0.543878   0.000161   0.254081   0.000634
1168  17  18.797382   7.766106   6.423074   0.000360   0.253357   0.001423
1169  17  18.416138   6.880497   7.015881  -0.000263   0.506577  -0.000519
1170  17  17.840868   5.626353   7.005413  -0.000214   0.506577  -0.000423
1171  14  17.252799   8.086358   6.733368   0.000131   0.506577   0.000258
1172  14  16.725858   6.895322   7.189099  -0.000275   0.506577  -0.000543
1173  14  16.257294   5.895690   6.939593   0.000174   0.253357   0.000685
1174  27  11.854646   7.912587   7.121700   0.000175   0.254271   0.000688
1175  27  12.321056   8.926008   7.359659  -0.000229   0.508428  -0.000450
1176  27  12.843588  10.121363   6.879693   0.000197   0.508428   0.000388
1177  14  13.433006   7.660287   7.191316  -0.000112   0.508428  -0.000220
1178  14  14.004978   8.927197   7.182947  -0.000141   0.508428  -0.000277
1179  14  14.382042   9.811308   6.568654   0.000430   0.254271   0.001690
1180  19  18.565753   2.279028  -1.251967   0.000131   0.255399   0.000515
1181  19  18.946339   3.187318  -1.860396  -0.000721   0.510740  -0.001411
1182  19  19.529377   4.470530  -1.838452  -0.000737   0.510740  -0.001444
1183  15  17.322357   3.238043  -1.439930  -0.000093   0.510740  -0.000182
1184  15  17.852363   4.459353  -1.903119  -0.000495   0.510740  -0.000969
1185  15  18.328828   5.479560  -1.634451   0.000060   0.255399   0.000234
1186  25  13.926844   7.394265  -1.446772   0.000158   0.254113   0.000621
1187  25  13.470173   6.375802  -1.698249  -0.000263   0.508129  -0.000518
1188  25  12.960676   5.165291  -1.230744   0.000154   0.508129   0.000303
1189  15  15.156315   6.398024  -1.633431  -0.000189   0.508129  -0.000373
1190  15  14.597107   5.121028  -1.640508  -0.000205   0.508129  -0.000404
1191  15  14.230282   4.222728  -1.034245   0.000387   0.254113   0.001522
1192  20  18.386855   1.173300   4.743778  -0.000061   0.254465  -0.000239
1193  20  18.035255   0.504404   3.886282  -0.000779   0.508823  -0.001532
1194  20  17.884683   0.333673   2.512333  -0.000401   0.508823  -0.000787
1195  16  16.848546   1.535861   4.509722  -0.000324   0.508823  -0.000638
1196  16  16.515202   0.948236   3.291881  -0.000356   0.508823  -0.000700
1197  16  16.493918   1.032776   2.152256   0.000281   0.254465   0.001104
1198  24  12.120354   2.996043   2.385991   0.000417   0.254601   0.001636
1199  24  12.142710   2.921717   3.529077  -0.000151   0.509106  -0.000296
1200  24  12.471922   3.525905   4.743603  -0.000129   0.509106  -0.000253
1201  16  13.514234   2.314815   2.753182   0.000092   0.509106   0.000181
1202  16  13.664003   2.500184   4.128574  -0.000320   0.509106  -0.000629
1203  16  14.010683   3.182830   4.980911   0.000134   0.254601   0.000525
1204  21  23.512505   6.835643   0.271465  -0.000408   0.253271  -0.001610
1205  21  23.839740   7.483712   1.114542  -0.001522   0.506331  -0.003006
1206  21  23.969766   7.658132   2.454360  -0.001008   0.506331  -0.001990
1207  18  22.206391   7.759424   0.628591  -0.000650   0.506331  -0.001285
1208  18  22.512505   8.332326   1.820445  -0.000631   0.506331  -0.001247
1209  18  22.521779   8.260858   2.930698   0.000169   0.253271   0.000666
1210  23  21.811975  -0.064208   5.822170  -0.000152   0.257941  -0.000589
1211  23  21.859850  -0.972431   5.037910  -0.001705   0.515993  -0.003305
1212  23  22.316242  -1.423243   3.726831  -0.001340   0.515993  -0.002597
1213  20  20.549943   0.014178   4.950261  -0.001035   0.515993  -0.002005
1214  20  20.771468  -0.872494   3.812196  -0.001333   0.515993  -0.002584
1215  20  21.244431  -0.991849   2.714797  -0.000146   0.257941  -0.000566
1216  22  28.018616   4.323417   3.352204  -0.000010   0.166143  -0.000062
1217  21  27.244053   5.346827   2.692303  -0.000042   0.166143  -0.000254
1218  28   7.712331   4.954948   2.623062   0.000440   0.254458   0.001727
1219  28   7.738670   4.895907   3.761708  -0.000111   0.508800  -0.000217
1220  28   8.069010   5.511587   4.963107  -0.000081   0.508800  -0.000159
1221  24   9.115875   4.277409   2.991819   0.000202   0.508800   0.000397
1222  24   9.269137   4.479161   4.358329  -0.000219   0.508800  -0.000430
1223  24   9.615478   5.168140   5.198597   0.000200   0.254458   0.000786
1224  29   9.493451   9.300408  -1.275752   0.000198   0.254001   0.000781
1225  29   9.038393   8.283078  -1.508885  -0.000215   0.507883  -0.000423
1226  29   8.533588   7.084115  -1.025978   0.000215   0.507883   0.000423
1227  25  10.731614   8.300444  -1.452953  -0.000090   0.507883  -0.000176
1228  25  10.175613   7.029136  -1.439691  -0.000110   0.507883  -0.000217
1229  25   9.813069   6.142539  -0.824143   0.000442   0.254001   0.001742
1230  30   9.249493  14.232068   3.376061   0.000437   0.254883   0.001715
1231  30   9.230247  14.282348   2.230035  -0.000115   0.509672  -0.000227
1232  30   8.903674  13.650969   1.026601  -0.000101   0.509672  -0.000198
1233  26  10.652138  13.653442   2.888268   0.000201   0.509672   0.000395
1234  26  10.505824  13.438445   1.514983  -0.000237   0.509672  -0.000466
1235  26  10.160768  12.736133   0.675955   0.000167   0.254883   0.000654
1236  31   7.471942   9.912047   7.300489   0.000191   0.255083   0.000748
1237  31   7.943238  10.933054   7.527970  -0.000232   0.510070  -0.000454
1238  31   8.465387  12.129204   7.027819   0.000197   0.510070   0.000387
1239  27   9.046434   9.663987   7.362798  -0.000097   0.510070  -0.000191
1240  27   9.622158  10.937367   7.338074  -0.000121   0.510070  -0.000237
1241  27   9.996620  11.818787   6.706250   0.000437   0.255083   0.001712
1242  32   3.286583   6.948408   2.844298   0.000417   0.254608   0.001636
1243  32   3.316413   6.897199   3.982280  -0.000149   0.509094  -0.000293
1244  32   3.654453   7.518398   5.177380  -0.000115   0.509094  -0.000226
1245  28   4.689524   6.263324   3.212556   0.000206   0.509094   0.000404
1246  28   4.848584   6.473357   4.576011  -0.000230   0.509094  -0.000452
1247  28   5.201842   7.165151   5.409766   0.000193   0.254608   0.000759
1248  33   5.067238  11.250455  -1.093773   0.000180   0.254358   0.000706
1249  33   4.601352  10.235589  -1.314619  -0.000255   0.508592  -0.000502
1250  33   4.088969   9.046125  -0.817399   0.000185   0.508592   0.000364
1251  29   6.297730  10.236323  -1.270337  -0.000091   0.508592  -0.000179
1252  29   5.730268   8.970716  -1.241790  -0.000122   0.508592  -0.000239
1253  29   5.363910   8.093441  -0.615733   0.000438   0.254358   0.001720
1254  34   4.839823  16.254498   3.456903   0.000373   0.249649   0.001495
1255  34   4.802230  16.269778   2.346626  -0.000245   0.499127  -0.000491
1256  34   4.469901  15.641504   1.192054  -0.000246   0.499127  -0.000492
1257  30   6.254828  15.641236   2.976366   0.000166   0.499127   0.000332
1258  30   6.092369  15.401096   1.651924  -0.000230   0.499127  -0.000461
1259  30   5.747991  14.715409   0.848431   0.000170   0.249649   0.000683
1260  35   3.056579  11.934797   7.491745   0.000089   0.249856   0.000358
1261  35   3.514503  12.922663   7.713653  -0.000355   0.499538  -0.000711
1262  35   4.023702  14.091314   7.251287   0.000055   0.499538   0.000110
1263  31   4.649188  11.662438   7.540881  -0.000098   0.499538  -0.000196
1264  31   5.208692  12.897586   7.527584  -0.000143   0.499538  -0.000286
1265  31   5.575766  13.765360   6.938482   0.000340   0.249856   0.001362
 =====================================================

             12338523  WORDS OF DYNAMIC MEMORY USED
 EXECUTION OF GAMESS TERMINATED NORMALLY Tue Nov 22 23:30:15 2016
 DDI: 263640 bytes (0.3 MB / 0 MWords) used by master data server.

 ----------------------------------------
 CPU timing information for all processes
 ========================================
 0: 6157.356 + 1.660 = 6159.16
 ----------------------------------------
 ddikick.x: exited gracefully.
