----- GAMESS execution script -----

          ******************************************************
          *         GAMESS VERSION =  5 DEC 2014 (R1)          *
          *             FROM IOWA STATE UNIVERSITY             *
          * M.W.SCHMIDT, K.K.BALDRIDGE, J.A.BOATZ, S.T.ELBERT, *
          *   M.S.GORDON, J.H.JENSEN, S.KOSEKI, N.MATSUNAGA,   *
          *          K.A.NGUYEN, S.J.SU, T.L.WINDUS,           *
          *       TOGETHER WITH M.DUPUIS, J.A.MONTGOMERY       *
          *         J.COMPUT.CHEM.  14, 1347-1363(1993)        *
          **************** 64 BIT LINUX VERSION ****************

 EXECUTION OF GAMESS BEGUN Tue Nov 22 21:15:41 2016

            ECHO OF THE FIRST FEW INPUT CARDS -
 INPUT CARD>! SELECT RESTRICTED HARTREE-FOCK AS DEFAULT                                     
 INPUT CARD>$contrl scftyp=rhf $end                                                         
 INPUT CARD>                                                                                
 INPUT CARD>! THEORY: HF OR DFT                                                             
 INPUT CARD> $contrl mplevl=0 $end                                                          
 INPUT CARD>                                                                                
 INPUT CARD> $system timlim=10000 mwords=20 $end                                            
 INPUT CARD> $SCF DIRSCF=.TRUE. $end                                                        
 INPUT CARD>                                                                                
 INPUT CARD>                                                                                
 INPUT CARD>! BASIS SETS                                                                    
 INPUT CARD>! 6-311G(d,p)                                                                   
 INPUT CARD> $BASIS GBASIS=N311 NGAUSS=6 NDFUNC=1 NPFUNC=1 $END                             
 INPUT CARD>                                                                                
 INPUT CARD>! One of the following                                                          
 INPUT CARD> $guess guess=HUCKEL $end                                                       
 INPUT CARD>                                                                                
 INPUT CARD> $statpt projct=.FALSE. $end                                                    
 INPUT CARD> $STATPT IFREEZ(1)=1,2,3 $END                                                   
 INPUT CARD>                                                                                
 INPUT CARD>! Optimize the geometry with COSMO effects                                      
 INPUT CARD> $statpt opttol=0.0005 nstep=50 $end                                            
 INPUT CARD> $contrl nzvar=1 $end                                                           
 INPUT CARD> $zmat dlc=.t. auto=.t. $end                                                    
 INPUT CARD> $contrl runtyp=OPTIMIZE maxit=200 $end                                         
 INPUT CARD>                                                                                
 INPUT CARD>! Run COSMO on perfect conductor                                                
 INPUT CARD> $COSGMS PRFCND=.TRUE. $end                                                     
 INPUT CARD>                                                                                
 INPUT CARD>! Specifying RSOLV                                                              
 INPUT CARD> $COSGMS COSRAD = 1.4 $end                                                      
 INPUT CARD>                                                                                
 INPUT CARD>! available memory                                                              
 INPUT CARD> $SYSTEM MWORDS=40 $END                                                         
 INPUT CARD>                                                                                
 INPUT CARD> $DATA                                                                          
 INPUT CARD>http://cactus.nci.nih.gov/chemical/structure/1-dodecanol/file?format=sdf&get3d=T
 INPUT CARD>C1                                                                              
 INPUT CARD>C      6.0      6.1758000000   -0.4578000000    0.0000000000                    
 INPUT CARD>C      6.0      4.9244000000    0.4225000000    0.0000000000                    
 INPUT CARD>C      6.0      3.6773000000   -0.4639000000    0.0000000000                    
 INPUT CARD>C      6.0      2.4259000000    0.4163000000    0.0000000000                    
 INPUT CARD>C      6.0      1.1788000000   -0.4701000000    0.0000000000                    
 INPUT CARD>C      6.0     -0.0726000000    0.4102000000    0.0000000000                    
 INPUT CARD>C      6.0     -1.3196000000   -0.4762000000    0.0000000000                    
 INPUT CARD>C      6.0     -2.5710000000    0.4040000000    0.0000000000                    
 INPUT CARD>C      6.0     -3.8181000000   -0.4824000000    0.0000000000                    
 INPUT CARD>C      6.0     -5.0695000000    0.3979000000    0.0000000000                    
 INPUT CARD>C      6.0     -6.3166000000   -0.4885000000    0.0000000000                    
 INPUT CARD>C      6.0     -7.5680000000    0.3917000000    0.0000000000                    
   40000000 WORDS OF MEMORY AVAILABLE

     BASIS OPTIONS
     -------------
     GBASIS=N311         IGAUSS=       6      POLAR=POPN311 
     NDFUNC=       1     NFFUNC=       0     DIFFSP=       F
     NPFUNC=       1      DIFFS=       F     BASNAM=        


     RUN TITLE
     ---------
 http://cactus.nci.nih.gov/chemical/structure/1-dodecanol/file?format=sdf&get3d=T

 THE POINT GROUP OF THE MOLECULE IS C1      
 THE ORDER OF THE PRINCIPAL AXIS IS     0

 ATOM      ATOMIC                      COORDINATES (BOHR)
           CHARGE         X                   Y                   Z
 C           6.0    11.6705697550       -0.8651165572        0.0000000000
 C           6.0     9.3057666539        0.7984092298        0.0000000000
 C           6.0     6.9490893746       -0.8766438857        0.0000000000
 C           6.0     4.5842862736        0.7866929287        0.0000000000
 C           6.0     2.2276089943       -0.8883601868        0.0000000000
 C           6.0    -0.1371941067        0.7751656002        0.0000000000
 C           6.0    -2.4936824134       -0.8998875154        0.0000000000
 C           6.0    -4.8584855144        0.7634492990        0.0000000000
 C           6.0    -7.2151627937       -0.9116038165        0.0000000000
 C           6.0    -9.5799658948        0.7519219705        0.0000000000
 C           6.0   -11.9366431740       -0.9231311450        0.0000000000
 C           6.0   -14.3014462751        0.7402056694        0.0000000000
 O           8.0    13.8715336129        0.6993875881        0.0000000000
 H           1.0    11.6734043440       -2.0543211213        1.6818561291
 H           1.0    11.6734043440       -2.0543211213       -1.6818561291
 H           1.0     9.3027430924        1.9876137939        1.6818561291
 H           1.0     9.3027430924        1.9876137939       -1.6818561291
 H           1.0     6.9521129362       -2.0658484498       -1.6818561291
 H           1.0     6.9521129362       -2.0658484498        1.6818561291
 H           1.0     4.5814516846        1.9758974928        1.6818561291
 H           1.0     4.5814516846        1.9758974928       -1.6818561291
 H           1.0     2.2306325559       -2.0775647509       -1.6818561291
 H           1.0     2.2306325559       -2.0775647509        1.6818561291
 H           1.0    -0.1400286957        1.9643701642        1.6818561291
 H           1.0    -0.1400286957        1.9643701642       -1.6818561291
 H           1.0    -2.4908478244       -2.0890920794       -1.6818561291
 H           1.0    -2.4908478244       -2.0890920794        1.6818561291
 H           1.0    -4.8615090760        1.9528428357        1.6818561291
 H           1.0    -4.8615090760        1.9528428357       -1.6818561291
 H           1.0    -7.2123282047       -2.1008083806       -1.6818561291
 H           1.0    -7.2123282047       -2.1008083806        1.6818561291
 H           1.0    -9.5829894563        1.9411265346        1.6818561291
 H           1.0    -9.5829894563        1.9411265346       -1.6818561291
 H           1.0   -11.9336196125       -2.1123357091       -1.6818561291
 H           1.0   -11.9336196125       -2.1123357091        1.6818561291
 H           1.0   -14.3042808641        1.9295992061        1.6818561291
 H           1.0   -14.3042808641        1.9295992061       -1.6818561291
 H           1.0   -15.9802788426       -0.4531562919        0.0000000000
 H           1.0    15.4445415251       -0.2305465705        0.0000000000

          INTERNUCLEAR DISTANCES (ANGS.)




     $CONTRL OPTIONS
     ---------------
 SCFTYP=RHF          RUNTYP=OPTIMIZE     EXETYP=RUN     
 MPLEVL=       0     CITYP =NONE         CCTYP =NONE         VBTYP =NONE    
 DFTTYP=NONE         TDDFT =NONE    
 MULT  =       1     ICHARG=       0     NZVAR =       1     COORD =UNIQUE  
 PP    =NONE         RELWFN=NONE         LOCAL =NONE         NUMGRD=       F
 ISPHER=      -1     NOSYM =       0     MAXIT =     200     UNITS =ANGS    
 PLTORB=       F     MOLPLT=       F     AIMPAC=       F     FRIEND=        
 NPRINT=       7     IREST =       0     GEOM  =INPUT   
 NORMF =       0     NORMP =       0     ITOL  =      20     ICUT  =       9
 INTTYP=BEST         GRDTYP=BEST         QMTTOL= 1.0E-06

     $SYSTEM OPTIONS
     ---------------
  REPLICATED MEMORY=    40000000 WORDS (ON EVERY NODE).
 DISTRIBUTED MEMDDI=           0 MILLION WORDS IN AGGREGATE,
 MEMDDI DISTRIBUTED OVER   1 PROCESSORS IS           0 WORDS/PROCESSOR.
 TOTAL MEMORY REQUESTED ON EACH PROCESSOR=    40000000 WORDS.
 TIMLIM=       10000.00 MINUTES, OR       6.9 DAYS.
 PARALL= F  BALTYP=  DLB     KDIAG=    0  COREFL= F
 MXSEQ2=     300 MXSEQ3=     150  mem10=         0

     $COSGMS OPTIONS
     ---------------
     EPSI  =   INFTY     NSPA  =      92     COSRAD=    1.40
     DISEX =   10.00     OUTCHG=DBLCAV       COSBUG=       F
     COSWRT=       F     DCOSMO=       F

     SYMMETRY COORDINATES WILL NOT BE USED FOR 
     THE COSMO CALCULATION, EVEN IF SPECIFIED:
         -- SWITCHING TO C1 POINT GROUP --


     DEFINITION OF CAVITY
     ---------------------------
     ATOM         COORDINATES           RADIUS 
     1   11.6706   -0.8651    0.0000    2.0000
     2    9.3058    0.7984    0.0000    2.0000
     3    6.9491   -0.8766    0.0000    2.0000
     4    4.5843    0.7867    0.0000    2.0000
     5    2.2276   -0.8884    0.0000    2.0000
     6   -0.1372    0.7752    0.0000    2.0000
     7   -2.4937   -0.8999    0.0000    2.0000
     8   -4.8585    0.7634    0.0000    2.0000
     9   -7.2152   -0.9116    0.0000    2.0000
    10   -9.5800    0.7519    0.0000    2.0000
    11  -11.9366   -0.9231    0.0000    2.0000
    12  -14.3014    0.7402    0.0000    2.0000
    13   13.8715    0.6994    0.0000    1.7200
    14   11.6734   -2.0543    1.6819    1.3000
    15   11.6734   -2.0543   -1.6819    1.3000
    16    9.3027    1.9876    1.6819    1.3000
    17    9.3027    1.9876   -1.6819    1.3000
    18    6.9521   -2.0658   -1.6819    1.3000
    19    6.9521   -2.0658    1.6819    1.3000
    20    4.5815    1.9759    1.6819    1.3000
    21    4.5815    1.9759   -1.6819    1.3000
    22    2.2306   -2.0776   -1.6819    1.3000
    23    2.2306   -2.0776    1.6819    1.3000
    24   -0.1400    1.9644    1.6819    1.3000
    25   -0.1400    1.9644   -1.6819    1.3000
    26   -2.4908   -2.0891   -1.6819    1.3000
    27   -2.4908   -2.0891    1.6819    1.3000
    28   -4.8615    1.9528    1.6819    1.3000
    29   -4.8615    1.9528   -1.6819    1.3000
    30   -7.2123   -2.1008   -1.6819    1.3000
    31   -7.2123   -2.1008    1.6819    1.3000
    32   -9.5830    1.9411    1.6819    1.3000
    33   -9.5830    1.9411   -1.6819    1.3000
    34  -11.9336   -2.1123   -1.6819    1.3000
    35  -11.9336   -2.1123    1.6819    1.3000
    36  -14.3043    1.9296    1.6819    1.3000
    37  -14.3043    1.9296   -1.6819    1.3000
    38  -15.9803   -0.4532    0.0000    1.3000
    39   15.4445   -0.2305    0.0000    1.3000

          ----------------
          PROPERTIES INPUT
          ----------------

     MOMENTS            FIELD           POTENTIAL          DENSITY
 IEMOM =       1   IEFLD =       0   IEPOT =       0   IEDEN =       0
 WHERE =COMASS     WHERE =NUCLEI     WHERE =NUCLEI     WHERE =NUCLEI  
 OUTPUT=BOTH       OUTPUT=BOTH       OUTPUT=BOTH       OUTPUT=BOTH    
 IEMINT=       0   IEFINT=       0                     IEDINT=       0
                                                       MORB  =       0
          EXTRAPOLATION IN EFFECT
          SOSCF IN EFFECT
 ORBITAL PRINTING OPTION: NPREO=     1   403     2     1

     -------------------------------
     INTEGRAL TRANSFORMATION OPTIONS
     -------------------------------
     NWORD  =            0
     CUTOFF = 1.0E-09     MPTRAN =       0
     DIRTRF =       T     AOINTS =DUP     

          ----------------------
          INTEGRAL INPUT OPTIONS
          ----------------------
 NOPK  =       1 NORDER=       0 SCHWRZ=       T


 -----------------------------------------------
  STATISTICS ON AUTOMATIC COORDINATE GENERATION 
 -----------------------------------------------
  NUMBER OF USER SPECIFIED BONDS                             0
  NUMBER OF BONDS                                           38
  NUMBER OF ANGLES                                          73
  NUMBER OF TORSIONS                                       102
  NUMBER OF EXTRA COORD.                                     0
  NUMBER OF EXTRA COORD. FOR CONSTRAINTS                     0
  NUMBER OF CONSTRAINED COORD.                               0

  TOTAL NUMBER OF PRIMITIVES                               213
 -----------------------------------------------

   --- ENCODED Z MATRIX ---
 COORD  TYPE   I   J   K   L   M   N
    1      1    1  13
    2      1    1   2
    3      1    1  14
    4      1    1  15
    5      1    2  17
    6      1    2   3
    7      1    2  16
    8      1    3   4
    9      1    3  18
   10      1    3  19
   11      1    4  21
   12      1    4  20
   13      1    4   5
   14      1    5   6
   15      1    5  23
   16      1    5  22
   17      1    6  25
   18      1    6  24
   19      1    6   7
   20      1    7   8
   21      1    7  27
   22      1    7  26
   23      1    8  29
   24      1    8  28
   25      1    8   9
   26      1    9  31
   27      1    9  30
   28      1    9  10
   29      1   10  32
   30      1   10  11
   31      1   10  33
   32      1   11  12
   33      1   11  35
   34      1   11  34
   35      1   12  38
   36      1   12  37
   37      1   12  36
   38      1   13  39
   39      2    1  13  39
   40      2    1   2  17
   41      2    1   2   3
   42      2    1   2  16
   43      2    2   1  15
   44      2    2   3   4
   45      2    2   1  13
   46      2    2   3  18
   47      2    2   1  14
   48      2    2   3  19
   49      2    3   4   5
   50      2    3   4  21
   51      2    3   2  17
   52      2    3   4  20
   53      2    3   2  16
   54      2    4   5  23
   55      2    4   5   6
   56      2    4   3  19
   57      2    4   3  18
   58      2    4   5  22
   59      2    5   4  20
   60      2    5   6  24
   61      2    5   4  21
   62      2    5   6   7
   63      2    5   6  25
   64      2    6   5  23
   65      2    6   5  22
   66      2    6   7  26
   67      2    6   7   8
   68      2    6   7  27
   69      2    7   8   9
   70      2    7   8  28
   71      2    7   8  29
   72      2    7   6  24
   73      2    7   6  25
   74      2    8   9  10
   75      2    8   9  31
   76      2    8   7  26
   77      2    8   7  27
   78      2    8   9  30
   79      2    9  10  33
   80      2    9  10  11
   81      2    9  10  32
   82      2    9   8  28
   83      2    9   8  29
   84      2   10  11  12
   85      2   10   9  30
   86      2   10   9  31
   87      2   10  11  35
   88      2   10  11  34
   89      2   11  10  33
   90      2   11  10  32
   91      2   11  12  36
   92      2   11  12  37
   93      2   11  12  38
   94      2   12  11  34
   95      2   12  11  35
   96      2   13   1  15
   97      2   13   1  14
   98      2   14   1  15
   99      2   16   2  17
  100      2   18   3  19
  101      2   20   4  21
  102      2   22   5  23
  103      2   24   6  25
  104      2   26   7  27
  105      2   28   8  29
  106      2   30   9  31
  107      2   32  10  33
  108      2   34  11  35
  109      2   36  12  37
  110      2   36  12  38
  111      2   37  12  38
  112      3    1   2   3  19
  113      3    1   2   3  18
  114      3    1   2   3   4
  115      3    2   3   4   5
  116      3    2   3   4  20
  117      3    2   3   4  21
  118      3    2   1  13  39
  119      3    3   2   1  13
  120      3    3   4   5  22
  121      3    3   4   5   6
  122      3    3   4   5  23
  123      3    3   2   1  15
  124      3    3   2   1  14
  125      3    4   5   6  24
  126      3    4   5   6  25
  127      3    4   3   2  16
  128      3    4   3   2  17
  129      3    4   5   6   7
  130      3    5   6   7  26
  131      3    5   6   7  27
  132      3    5   6   7   8
  133      3    5   4   3  19
  134      3    5   4   3  18
  135      3    6   5   4  20
  136      3    6   5   4  21
  137      3    6   7   8   9
  138      3    6   7   8  28
  139      3    6   7   8  29
  140      3    7   8   9  10
  141      3    7   8   9  30
  142      3    7   8   9  31
  143      3    7   6   5  22
  144      3    7   6   5  23
  145      3    8   7   6  24
  146      3    8   7   6  25
  147      3    8   9  10  33
  148      3    8   9  10  11
  149      3    8   9  10  32
  150      3    9   8   7  26
  151      3    9   8   7  27
  152      3    9  10  11  34
  153      3    9  10  11  35
  154      3    9  10  11  12
  155      3   10  11  12  36
  156      3   10  11  12  37
  157      3   10  11  12  38
  158      3   10   9   8  28
  159      3   10   9   8  29
  160      3   11  10   9  30
  161      3   11  10   9  31
  162      3   12  11  10  33
  163      3   12  11  10  32
  164      3   13   1   2  16
  165      3   13   1   2  17
  166      3   14   1   2  16
  167      3   14   1   2  17
  168      3   14   1  13  39
  169      3   15   1   2  16
  170      3   15   1  13  39
  171      3   15   1   2  17
  172      3   16   2   3  18
  173      3   16   2   3  19
  174      3   17   2   3  18
  175      3   17   2   3  19
  176      3   18   3   4  20
  177      3   18   3   4  21
  178      3   19   3   4  20
  179      3   19   3   4  21
  180      3   20   4   5  23
  181      3   20   4   5  22
  182      3   21   4   5  23
  183      3   21   4   5  22
  184      3   22   5   6  25
  185      3   22   5   6  24
  186      3   23   5   6  25
  187      3   23   5   6  24
  188      3   24   6   7  27
  189      3   24   6   7  26
  190      3   25   6   7  27
  191      3   25   6   7  26
  192      3   26   7   8  29
  193      3   26   7   8  28
  194      3   27   7   8  29
  195      3   27   7   8  28
  196      3   28   8   9  30
  197      3   28   8   9  31
  198      3   29   8   9  30
  199      3   29   8   9  31
  200      3   30   9  10  32
  201      3   30   9  10  33
  202      3   31   9  10  32
  203      3   31   9  10  33
  204      3   32  10  11  34
  205      3   32  10  11  35
  206      3   33  10  11  34
  207      3   33  10  11  35
  208      3   34  11  12  38
  209      3   34  11  12  37
  210      3   34  11  12  36
  211      3   35  11  12  38
  212      3   35  11  12  37
  213      3   35  11  12  36

          INDEP./SYM. INTERNAL COORDINATES
          --------------------------------
 CRD  1=  -0.1235 ( 41)  0.2041 ( 44) -0.2813 ( 49)  0.3355 ( 55)  0.1049 ( 60)
          -0.3610 ( 62)  0.1049 ( 63) -0.1030 ( 66)  0.3522 ( 67) -0.1030 ( 68)
          -0.3096 ( 69)  0.1053 ( 72)  0.1053 ( 73)  0.2432 ( 74) -0.1021 ( 76)
          -0.1021 ( 77) -0.1590 ( 80)
 CRD  2=  -0.1406 (114)  0.1885 (115) -0.1063 (120) -0.2588 (121) -0.1063 (122)
           0.1151 (125)  0.1151 (126)  0.2732 (129) -0.1347 (130) -0.1347 (131)
          -0.2983 (132) -0.1247 (135) -0.1247 (136)  0.2584 (137)  0.1192 (138)
           0.1192 (139) -0.2329 (140) -0.1151 (141) -0.1151 (142)  0.1230 (143)
           0.1230 (144) -0.1319 (145) -0.1319 (146)  0.1528 (148)  0.1055 (150)
           0.1055 (151) -0.1051 (154)
 CRD  3=   0.2640 ( 41) -0.3205 ( 44) -0.1149 ( 45)  0.3362 ( 49) -0.1003 ( 50)
          -0.1003 ( 52) -0.2006 ( 55)  0.1593 ( 67) -0.2708 ( 69)  0.3533 ( 74)
          -0.1045 ( 75) -0.1045 ( 78) -0.2826 ( 80)  0.1892 ( 84) -0.1036 ( 85)
          -0.1036 ( 86)
 CRD  4=   0.1184 (  2)  0.1685 (  6)  0.2262 (  8)  0.2647 ( 13)  0.2791 ( 14)
           0.2962 ( 19)  0.2763 ( 20)  0.2508 ( 25)  0.2150 ( 28)  0.1491 ( 30)
           0.1795 ( 44)  0.1387 ( 49)  0.2313 ( 55)  0.2097 ( 62)  0.1856 ( 67)
           0.2363 ( 69)  0.1362 ( 74)  0.1463 ( 80)  0.1102 ( 84)
 CRD  5=   0.3516 ( 41) -0.2731 ( 44) -0.1826 ( 45) -0.1093 ( 51) -0.1093 ( 53)
           0.1795 ( 55) -0.3011 ( 62)  0.2468 ( 67) -0.2301 ( 74)  0.3259 ( 80)
          -0.2887 ( 84)
 CRD  6=   0.1239 ( 54) -0.1239 ( 58)  0.1136 ( 59) -0.1175 ( 60) -0.1136 ( 61)
           0.1175 ( 63) -0.1093 ( 64)  0.1093 ( 65) -0.1298 ( 66)  0.1298 ( 68)
          -0.1206 ( 70)  0.1206 ( 71)  0.1357 ( 72) -0.1357 ( 73)  0.1185 ( 76)
          -0.1185 ( 77)  0.1162 ( 82) -0.1162 ( 83) -0.1627 (115) -0.1339 (121)
          -0.1219 (125) -0.1219 (126) -0.2161 (129) -0.1043 (130) -0.1043 (131)
          -0.1699 (132) -0.1121 (133) -0.1121 (134) -0.1940 (137) -0.1255 (138)
          -0.1255 (139) -0.1723 (140) -0.1121 (141) -0.1121 (142) -0.1313 (143)
          -0.1313 (144) -0.1091 (145) -0.1091 (146) -0.1180 (148) -0.1075 (150)
          -0.1075 (151) -0.1170 (154)
 CRD  7=   0.1046 (112)  0.1046 (113)  0.2592 (114) -0.2423 (115) -0.1094 (116)
          -0.1094 (117)  0.1063 (118) -0.1492 (119)  0.1311 (120)  0.2377 (121)
           0.1311 (122)  0.1369 (127)  0.1369 (128) -0.1056 (133) -0.1056 (134)
           0.1880 (137) -0.2499 (140) -0.1029 (141) -0.1029 (142)  0.1272 (147)
           0.2529 (148)  0.1272 (149)  0.1086 (150)  0.1086 (151) -0.1095 (152)
          -0.1095 (153) -0.1980 (154) -0.1250 (158) -0.1250 (159)  0.1026 (160)
           0.1026 (161)
 CRD  8=   0.3081 ( 41) -0.1195 ( 44) -0.2421 ( 45) -0.2541 ( 49)  0.2581 ( 55)
          -0.1142 ( 62) -0.2469 ( 67)  0.2892 ( 69) -0.2163 ( 80)  0.3682 ( 84)
          -0.1213 ( 87) -0.1213 ( 88)
 CRD  9=  -0.2009 (  2) -0.2437 (  6) -0.2629 (  8) -0.2089 ( 13)  0.1354 ( 20)
           0.2357 ( 25)  0.2641 ( 28)  0.2306 ( 30)  0.1702 ( 32) -0.2290 ( 41)
          -0.2618 ( 44) -0.1109 ( 49) -0.1541 ( 55)  0.1492 ( 67)  0.1391 ( 69)
           0.1393 ( 74)  0.2847 ( 80)  0.1676 ( 84)
 CRD 10=  -0.1880 ( 41)  0.2806 ( 45)  0.3631 ( 49) -0.1126 ( 50) -0.1126 ( 52)
          -0.1097 ( 59) -0.1097 ( 61) -0.2969 ( 62)  0.1254 ( 67)  0.1271 ( 69)
          -0.3358 ( 74)  0.1091 ( 75)  0.1091 ( 78)  0.3366 ( 84) -0.1156 ( 87)
          -0.1156 ( 88)
 CRD 11=   0.2056 (  2)  0.2044 (  6)  0.1102 (  8) -0.1734 ( 14) -0.2123 ( 19)
          -0.1526 ( 20)  0.1371 ( 28)  0.2101 ( 30)  0.1979 ( 32)  0.2171 ( 41)
           0.2958 ( 44) -0.2339 ( 55) -0.1169 ( 56) -0.1169 ( 57) -0.1145 ( 62)
          -0.1003 ( 67) -0.2055 ( 69) -0.1170 ( 79)  0.3109 ( 80) -0.1170 ( 81)
           0.2225 ( 84)
 CRD 12=   0.1356 ( 46) -0.1356 ( 48) -0.1184 ( 50)  0.1191 ( 51)  0.1184 ( 52)
          -0.1191 ( 53)  0.1046 ( 56) -0.1046 ( 57) -0.1352 ( 59)  0.1352 ( 61)
           0.1168 ( 75) -0.1168 ( 78)  0.1385 ( 79) -0.1385 ( 81)  0.1093 ( 82)
          -0.1093 ( 83)  0.1244 ( 85) -0.1244 ( 86) -0.1109 ( 89)  0.1109 ( 90)
          -0.1086 ( 91)  0.1086 ( 92)  0.2287 (115)  0.1356 (116)  0.1356 (117)
           0.1348 (119)  0.1366 (121)  0.1187 (123)  0.1187 (124)  0.1267 (133)
           0.1267 (134) -0.1333 (137) -0.1325 (140) -0.1040 (147) -0.1549 (148)
          -0.1040 (149) -0.1066 (150) -0.1066 (151) -0.1329 (152) -0.1329 (153)
          -0.2011 (154) -0.1132 (158) -0.1132 (159)
 CRD 13=  -0.1321 ( 43)  0.1321 ( 47)  0.1017 ( 56) -0.1017 ( 57)  0.1273 ( 91)
          -0.1273 ( 92)  0.1469 (112)  0.1469 (113)  0.2804 (114)  0.1746 (118)
          -0.1884 (119)  0.1337 (127)  0.1337 (128)  0.1896 (129) -0.1202 (130)
          -0.1202 (131) -0.2382 (132)  0.1014 (143)  0.1014 (144) -0.1177 (145)
          -0.1177 (146) -0.1145 (147) -0.2513 (148) -0.1145 (149)  0.1049 (152)
           0.1049 (153)  0.2198 (154) -0.1449 (157) -0.1352 (160) -0.1352 (161)
 CRD 14=  -0.1468 ( 19)  0.1242 ( 28) -0.1341 ( 44)  0.3036 ( 45)  0.1554 ( 49)
           0.1759 ( 55)  0.1143 ( 60) -0.2554 ( 62)  0.1143 ( 63) -0.3514 ( 67)
           0.1314 ( 69) -0.1021 ( 70) -0.1021 ( 71)  0.3637 ( 74) -0.1107 ( 75)
           0.1429 ( 76)  0.1429 ( 77) -0.1107 ( 78) -0.2093 ( 84) -0.1128 ( 85)
          -0.1128 ( 86) -0.1087 ( 96) -0.1087 ( 97)
 CRD 15=  -0.1264 (  2) -0.1073 (  6)  0.1570 ( 13)  0.1658 ( 14) -0.1708 ( 20)
          -0.1575 ( 25)  0.1142 ( 30)  0.1345 ( 32) -0.1244 ( 41) -0.2003 ( 44)
          -0.1165 ( 54)  0.3485 ( 55) -0.1165 ( 58)  0.2173 ( 62)  0.1241 ( 66)
          -0.2185 ( 67)  0.1241 ( 68) -0.3585 ( 69) -0.1237 ( 72) -0.1237 ( 73)
           0.2166 ( 80)  0.1203 ( 82)  0.1203 ( 83)  0.1458 ( 84)
 CRD 16=   0.2555 (  2) -0.1202 (  8) -0.1251 ( 13)  0.1327 ( 38) -0.1401 ( 39)
           0.2292 ( 41) -0.2253 ( 44)  0.5187 ( 45)  0.1272 ( 46)  0.1272 ( 48)
          -0.2830 ( 49) -0.1371 ( 51) -0.1371 ( 53)  0.1817 ( 62)  0.1068 ( 67)
          -0.2100 ( 96) -0.2100 ( 97) -0.1003 (172)  0.1003 (175)
 CRD 17=  -0.1384 ( 46)  0.1384 ( 48) -0.1569 ( 51)  0.1569 ( 53)  0.1280 ( 66)
          -0.1280 ( 68) -0.1416 ( 72)  0.1416 ( 73) -0.1164 ( 76)  0.1164 ( 77)
           0.1036 ( 79) -0.1036 ( 81)  0.1277 ( 87) -0.1277 ( 88) -0.1323 ( 89)
           0.1323 ( 90) -0.1609 ( 91)  0.1609 ( 92)  0.1296 ( 94) -0.1296 ( 95)
          -0.1306 (115) -0.1293 (116) -0.1293 (117) -0.1775 (119) -0.1484 (123)
          -0.1484 (124)  0.1656 (129)  0.1286 (132)  0.1076 (138)  0.1076 (139)
           0.1338 (143)  0.1338 (144) -0.1523 (148) -0.1584 (154) -0.1060 (155)
          -0.1060 (156) -0.1181 (160) -0.1181 (161) -0.1126 (162) -0.1126 (163)
 CRD 18=  -0.1078 ( 40)  0.1078 ( 42) -0.1777 ( 43)  0.1777 ( 47) -0.1082 ( 64)
           0.1082 ( 65) -0.2830 ( 91)  0.2830 ( 92)  0.1400 (112)  0.1400 (113)
           0.1694 (114)  0.1994 (118) -0.1361 (119) -0.2120 (121) -0.1437 (135)
          -0.1437 (136) -0.1542 (137)  0.1902 (140)  0.1179 (141)  0.1179 (142)
          -0.1512 (154)  0.1692 (157) -0.1184 (162) -0.1184 (163)
 CRD 19=   0.1040 (  6) -0.1237 (  8)  0.1409 ( 13) -0.1648 ( 14)  0.1696 ( 19)
          -0.1965 ( 20)  0.2348 ( 25) -0.1495 ( 28)  0.1894 ( 30) -0.4945 ( 32)
           0.1035 ( 84) -0.3046 ( 93) -0.1555 ( 94) -0.1555 ( 95)  0.1099 (109)
           0.1733 (110)  0.1733 (111)  0.1032 (205) -0.1032 (206)
 CRD 20=   0.1184 ( 40) -0.1184 ( 42) -0.1756 ( 51)  0.1756 ( 53) -0.1581 ( 54)
           0.1581 ( 58) -0.1027 ( 59)  0.1027 ( 61)  0.1163 ( 64) -0.1163 ( 65)
          -0.1193 ( 70)  0.1193 ( 71)  0.1534 ( 82) -0.1534 ( 83) -0.1769 ( 87)
           0.1769 ( 88)  0.1119 ( 89) -0.1119 ( 90) -0.1283 ( 94)  0.1283 ( 95)
          -0.2115 (119) -0.1584 (123) -0.1584 (124)  0.1420 (125)  0.1420 (126)
           0.1454 (129)  0.1113 (133)  0.1113 (134) -0.1974 (137) -0.1375 (150)
          -0.1375 (151)  0.1522 (155)  0.1522 (156)  0.1287 (157)  0.1243 (160)
           0.1243 (161)
 CRD 21=   0.2185 (  1)  0.1927 (  6) -0.2236 (  8)  0.2020 ( 13) -0.2022 ( 14)
           0.2032 ( 19) -0.1633 ( 20) -0.1336 ( 28)  0.1068 ( 30)  0.3480 ( 32)
           0.2592 ( 39) -0.1169 ( 80)  0.3661 ( 93) -0.1538 (110) -0.1538 (111)
 CRD 22=   0.4627 (  1) -0.1152 ( 19)  0.1430 ( 20) -0.1235 ( 25)  0.1576 ( 28)
          -0.1754 ( 30)  0.2068 ( 38)  0.5804 ( 39) -0.1118 ( 41) -0.1353 ( 43)
          -0.1353 ( 47) -0.2000 ( 93)  0.1029 ( 96)  0.1029 ( 97)
 CRD 23=  -0.1482 (  1) -0.2290 (  2)  0.2688 (  6) -0.2312 (  8)  0.2350 ( 13)
          -0.1726 ( 14) -0.1230 ( 25)  0.2413 ( 28) -0.3641 ( 30) -0.2124 ( 39)
          -0.1131 ( 89) -0.1131 ( 90)  0.1410 ( 91)  0.1410 ( 92) -0.2525 ( 93)
          -0.1177 (109)
 CRD 24=   0.2855 (  2) -0.3178 (  6)  0.1469 (  8) -0.1771 ( 14)  0.2775 ( 19)
          -0.2583 ( 20)  0.1718 ( 25) -0.3011 ( 30)  0.1346 ( 32)  0.1005 ( 40)
           0.1005 ( 42)  0.1617 ( 91)  0.1617 ( 92) -0.1936 ( 93) -0.1429 (109)
 CRD 25=  -0.1135 ( 40)  0.1135 ( 42) -0.1989 ( 43)  0.1989 ( 47)  0.1211 ( 50)
          -0.1211 ( 52) -0.1211 ( 76)  0.1211 ( 77)  0.1131 ( 79) -0.1131 ( 81)
           0.1168 ( 85) -0.1168 ( 86)  0.3612 ( 91) -0.3612 ( 92) -0.1368 (110)
           0.1368 (111)  0.1096 (112)  0.1096 (113)  0.1772 (118) -0.1337 (120)
          -0.1716 (121) -0.1337 (122)  0.1926 (132)  0.1326 (145)  0.1326 (146)
          -0.1177 (152) -0.1177 (153) -0.1314 (158) -0.1314 (159)
 CRD 26=   0.2928 (  2) -0.2223 (  6) -0.1061 (  8)  0.2892 ( 13) -0.2607 ( 14)
           0.1797 ( 20) -0.3271 ( 25)  0.2047 ( 28)  0.1532 ( 30) -0.1386 ( 32)
           0.1034 ( 43)  0.1034 ( 47) -0.1491 ( 91) -0.1491 ( 92)  0.1606 ( 93)
           0.1320 (109)
 CRD 27=  -0.1348 ( 40)  0.1348 ( 42)  0.1164 ( 50)  0.1581 ( 51) -0.1164 ( 52)
          -0.1581 ( 53)  0.1534 ( 59)  0.1085 ( 60) -0.1534 ( 61) -0.1085 ( 63)
           0.1116 ( 66) -0.1116 ( 68) -0.1554 ( 72)  0.1554 ( 73)  0.1404 ( 75)
          -0.1404 ( 78)  0.1201 ( 82) -0.1201 ( 83) -0.1817 ( 87)  0.1817 ( 88)
          -0.1742 ( 91)  0.1742 ( 92) -0.1375 ( 94)  0.1375 ( 95) -0.1352 (115)
           0.1732 (119)  0.1241 (123)  0.1241 (124) -0.1320 (133) -0.1320 (134)
           0.1089 (138)  0.1089 (139)  0.1311 (143)  0.1311 (144) -0.1310 (147)
          -0.1310 (149)  0.1432 (155)  0.1432 (156)  0.1490 (157)
 CRD 28=   0.2582 (  2) -0.3072 (  8)  0.2550 ( 13) -0.3272 ( 19)  0.1764 ( 20)
           0.2045 ( 25) -0.3197 ( 28)  0.1130 ( 32)  0.1057 ( 43)  0.1057 ( 47)
           0.1295 ( 91)  0.1295 ( 92) -0.1434 ( 93) -0.1137 (109)
 CRD 29=   0.2122 (  2) -0.3335 (  8)  0.3592 ( 14) -0.3547 ( 20)  0.3074 ( 28)
          -0.1143 ( 91) -0.1143 ( 92)  0.1377 ( 93)
 CRD 30=   0.1178 ( 40) -0.1178 ( 42)  0.1890 ( 43)  0.1137 ( 46) -0.1890 ( 47)
          -0.1137 ( 48)  0.1701 ( 56) -0.1701 ( 57) -0.1169 ( 60)  0.1169 ( 63)
          -0.1374 ( 64)  0.1374 ( 65)  0.1212 ( 66) -0.1212 ( 68)  0.1029 ( 75)
          -0.1423 ( 76)  0.1423 ( 77) -0.1029 ( 78)  0.1402 ( 79) -0.1402 ( 81)
           0.1099 ( 85) -0.1099 ( 86) -0.1847 ( 87)  0.1847 ( 88) -0.1606 ( 94)
           0.1606 ( 95) -0.1012 ( 96)  0.1012 ( 97) -0.1082 (118)  0.1426 (127)
           0.1426 (128) -0.1118 (130) -0.1118 (131) -0.1110 (135) -0.1110 (136)
           0.1041 (141)  0.1041 (142) -0.1255 (152) -0.1255 (153)  0.1342 (155)
           0.1342 (156)  0.1179 (157)
 CRD 31=   0.1818 (  2)  0.2003 (  6) -0.1859 (  8) -0.1110 ( 11) -0.1110 ( 12)
          -0.3158 ( 13)  0.3459 ( 19) -0.2896 ( 25) -0.1099 ( 26) -0.1099 ( 27)
          -0.1993 ( 28)  0.1520 ( 30)  0.1065 ( 49)  0.1072 ( 74)  0.1142 ( 91)
           0.1142 ( 92) -0.1513 ( 93)
 CRD 32=  -0.1186 ( 40)  0.1186 ( 42) -0.1739 ( 46)  0.1739 ( 48)  0.1094 ( 51)
          -0.1094 ( 53) -0.1286 ( 54) -0.1636 ( 56)  0.1636 ( 57)  0.1286 ( 58)
          -0.1223 ( 75)  0.1223 ( 78)  0.2354 ( 79) -0.2354 ( 81) -0.1006 ( 85)
           0.1006 ( 86) -0.1337 ( 87)  0.1337 ( 88) -0.2091 ( 89)  0.2091 ( 90)
          -0.1334 ( 94)  0.1334 ( 95) -0.1231 (116) -0.1231 (117)  0.1017 (125)
           0.1017 (126) -0.1679 (152) -0.1679 (153) -0.1152 (160) -0.1152 (161)
 CRD 33=  -0.1605 ( 46)  0.1605 ( 48) -0.1917 ( 50)  0.1917 ( 52)  0.1422 ( 54)
          -0.1450 ( 56)  0.1450 ( 57) -0.1422 ( 58) -0.1928 ( 59)  0.1033 ( 60)
           0.1928 ( 61) -0.1033 ( 63) -0.1484 ( 64)  0.1484 ( 65) -0.1363 ( 66)
           0.1363 ( 68)  0.1828 ( 70) -0.1828 ( 71) -0.1009 ( 72)  0.1009 ( 73)
           0.1507 ( 75)  0.1293 ( 76) -0.1293 ( 77) -0.1507 ( 78) -0.1863 ( 82)
           0.1863 ( 83)  0.1692 ( 85) -0.1692 ( 86) -0.1047 (116) -0.1047 (117)
           0.1176 (120)  0.1176 (122)  0.1219 (133)  0.1219 (134)  0.1109 (141)
           0.1109 (142)  0.1179 (150)  0.1179 (151) -0.1138 (158) -0.1138 (159)
 CRD 34=  -0.1131 (  3)  0.1131 (  4) -0.1151 (  9)  0.1151 ( 10) -0.1134 ( 15)
           0.1134 ( 16) -0.1281 ( 23)  0.1281 ( 24) -0.1142 ( 29)  0.1142 ( 31)
           0.2566 ( 43) -0.2566 ( 47)  0.1311 ( 60) -0.1311 ( 63) -0.1076 ( 66)
           0.1076 ( 68) -0.1814 ( 72)  0.1814 ( 73)  0.1065 ( 76) -0.1065 ( 77)
           0.1885 ( 91) -0.1885 ( 92) -0.1379 ( 96)  0.1379 ( 97)  0.1057 (114)
          -0.1050 (115) -0.1633 (118)  0.1350 (129) -0.1270 (137)  0.1578 (143)
           0.1578 (144) -0.1276 (154)
 CRD 35=  -0.1585 (  2) -0.1110 (  5) -0.2573 (  6) -0.1110 (  7)  0.2413 ( 13)
           0.2725 ( 14)  0.1256 ( 15)  0.1256 ( 16) -0.2339 ( 20) -0.1247 ( 23)
          -0.1247 ( 24) -0.2759 ( 25)  0.2132 ( 30)  0.1437 ( 41)  0.1025 ( 45)
          -0.1560 ( 55)  0.1528 ( 69)  0.1003 ( 74) -0.1178 ( 84)  0.1204 ( 91)
           0.1204 ( 92) -0.1670 ( 93) -0.1014 (102)  0.1002 (105) -0.1076 (109)
 CRD 36=   0.1840 ( 50) -0.1840 ( 52) -0.1847 ( 54)  0.1847 ( 58)  0.1770 ( 59)
          -0.1770 ( 61)  0.1990 ( 64) -0.1990 ( 65) -0.1299 ( 66)  0.1299 ( 68)
           0.2180 ( 70) -0.2180 ( 71)  0.1611 ( 75) -0.1611 ( 78) -0.1985 ( 82)
           0.1985 ( 83)  0.1773 ( 85) -0.1773 ( 86) -0.1175 (120) -0.1175 (122)
           0.1110 (125)  0.1110 (126) -0.1082 (133) -0.1082 (134)  0.1301 (135)
           0.1301 (136) -0.1026 (138) -0.1026 (139)  0.1472 (141)  0.1472 (142)
           0.1126 (150)  0.1126 (151) -0.1167 (158) -0.1167 (159)
 CRD 37=   0.1034 ( 40) -0.1034 ( 42) -0.1040 ( 43)  0.1432 ( 46)  0.1040 ( 47)
          -0.1432 ( 48)  0.1154 ( 56) -0.1154 ( 57)  0.2016 ( 60) -0.2016 ( 63)
          -0.1598 ( 66)  0.1598 ( 68) -0.1568 ( 72)  0.1568 ( 73) -0.1191 ( 75)
           0.1924 ( 76) -0.1924 ( 77)  0.1191 ( 78)  0.1411 ( 79) -0.1411 ( 81)
          -0.1722 ( 89)  0.1722 ( 90) -0.1218 ( 94)  0.1218 ( 95)  0.1141 (116)
           0.1141 (117)  0.1531 (130)  0.1531 (131) -0.1355 (145) -0.1355 (146)
          -0.1311 (160) -0.1311 (161)  0.1030 (162)  0.1030 (163)
 CRD 38=   0.1255 (  2)  0.1128 (  5)  0.2524 (  6)  0.1128 (  7)  0.1895 (  8)
           0.1222 (  9)  0.1222 ( 10) -0.1568 ( 14) -0.1121 ( 17) -0.1121 ( 18)
          -0.2478 ( 19) -0.2101 ( 20) -0.1266 ( 21) -0.1266 ( 22)  0.1425 ( 28)
           0.1061 ( 29)  0.2429 ( 30)  0.1061 ( 31)  0.1059 ( 33)  0.1059 ( 34)
          -0.1597 ( 41) -0.1640 ( 44)  0.1570 ( 62)  0.1770 ( 67)  0.1018 ( 69)
          -0.1285 ( 80) -0.1540 ( 84)  0.1148 ( 91)  0.1148 ( 92) -0.1613 ( 93)
           0.1050 (104) -0.1057 (109)
 CRD 39=   0.1124 (  5) -0.1124 (  7)  0.1619 ( 40) -0.1619 ( 42) -0.2811 ( 43)
           0.2811 ( 47) -0.1281 ( 51)  0.1281 ( 53)  0.1188 ( 91) -0.1188 ( 92)
           0.3208 ( 96) -0.3208 ( 97) -0.1225 (112) -0.1225 (113)  0.1656 (119)
           0.2234 (164)  0.2234 (165) -0.1679 (168) -0.1679 (170)
 CRD 40=   0.1945 (  6)  0.2243 (  8)  0.1288 (  9)  0.1288 ( 10)  0.1294 ( 11)
           0.1294 ( 12)  0.1975 ( 13)  0.1280 ( 14)  0.1003 ( 15)  0.1003 ( 16)
          -0.1644 ( 25) -0.1184 ( 26) -0.1184 ( 27) -0.2262 ( 28) -0.1365 ( 29)
          -0.2180 ( 30) -0.1365 ( 31) -0.1008 ( 33) -0.1008 ( 34) -0.1334 ( 41)
          -0.1819 ( 44) -0.1865 ( 49) -0.1451 ( 55)  0.1076 ( 69)  0.1698 ( 74)
           0.1835 ( 80)  0.1505 ( 84)  0.1297 ( 93) -0.1057 (100) -0.1070 (101)
           0.1099 (107)
 CRD 41=   0.1038 (  6)  0.1431 (  8)  0.1038 ( 11)  0.1038 ( 12)  0.1723 ( 13)
           0.1930 ( 14)  0.1205 ( 15)  0.1205 ( 16)  0.1306 ( 17)  0.1306 ( 18)
           0.2028 ( 19)  0.2003 ( 20)  0.1331 ( 21)  0.1331 ( 22)  0.1279 ( 23)
           0.1279 ( 24)  0.1875 ( 25)  0.1165 ( 26)  0.1165 ( 27)  0.1690 ( 28)
           0.1314 ( 30) -0.1161 ( 44) -0.1503 ( 49) -0.1748 ( 55) -0.1892 ( 62)
          -0.1929 ( 67) -0.1860 ( 69) -0.1684 ( 74) -0.1366 ( 80) -0.1073 (103)
          -0.1094 (104) -0.1053 (105)
 CRD 42=   0.1781 (  3) -0.1781 (  4)  0.1799 (  9) -0.1799 ( 10)  0.1828 ( 15)
          -0.1828 ( 16) -0.1819 ( 21)  0.1819 ( 22)  0.1799 ( 26) -0.1799 ( 27)
          -0.1755 ( 33)  0.1755 ( 34)  0.1114 ( 91) -0.1114 ( 92) -0.1097 ( 96)
           0.1097 ( 97)  0.1131 (116)  0.1131 (117)  0.1531 (118) -0.1117 (119)
           0.1032 (121) -0.1079 (125) -0.1079 (126) -0.1118 (127) -0.1118 (128)
          -0.1066 (132)  0.1094 (135)  0.1094 (136)  0.1072 (138)  0.1072 (139)
           0.1092 (140) -0.1081 (145) -0.1081 (146) -0.1068 (147) -0.1068 (149)
          -0.1174 (154)  0.1002 (157)  0.1076 (158)  0.1076 (159) -0.1153 (162)
          -0.1153 (163) -0.1639 (164) -0.1639 (165)
 CRD 43=  -0.1907 (  3)  0.1907 (  4) -0.1222 (  5)  0.1222 (  7) -0.1235 (  9)
           0.1235 ( 10)  0.2032 ( 11) -0.2032 ( 12) -0.2122 ( 17)  0.2122 ( 18)
           0.1612 ( 23) -0.1612 ( 24)  0.1816 ( 26) -0.1816 ( 27) -0.2094 ( 33)
           0.2094 ( 34) -0.1226 (118)  0.1010 (130)  0.1010 (131) -0.1031 (143)
          -0.1031 (144)  0.1007 (157) -0.1058 (162) -0.1058 (163)  0.1180 (164)
           0.1180 (165)
 CRD 44=   0.1762 (  3) -0.1762 (  4)  0.1962 (  5) -0.1962 (  7) -0.1873 ( 11)
           0.1873 ( 12) -0.2166 ( 15)  0.2166 ( 16)  0.1812 ( 21) -0.1812 ( 22)
           0.2201 ( 23) -0.2201 ( 24)  0.1746 ( 29) -0.1746 ( 31) -0.2130 ( 33)
           0.2130 ( 34)
 CRD 45=   0.1542 (  3) -0.1542 (  4)  0.2268 (  5) -0.2268 (  7) -0.1697 (  9)
           0.1697 ( 10) -0.1646 ( 15)  0.1646 ( 16) -0.2444 ( 17)  0.2444 ( 18)
          -0.1915 ( 21)  0.1915 ( 22)  0.1409 ( 26) -0.1409 ( 27) -0.2390 ( 29)
           0.2390 ( 31)  0.1946 ( 33) -0.1946 ( 34)
 CRD 46=   0.1817 ( 32)  0.4903 ( 35)  0.5104 ( 36)  0.5104 ( 37) -0.1711 ( 91)
          -0.1711 ( 92) -0.1868 ( 93)  0.1683 (109)  0.1803 (110)  0.1803 (111)
 CRD 47=   0.1301 (  3) -0.1301 (  4)  0.2187 (  5) -0.2187 (  7) -0.2465 (  9)
           0.2465 ( 10)  0.2043 ( 11) -0.2043 ( 12)  0.1153 ( 15) -0.1153 ( 16)
          -0.1147 ( 21)  0.1147 ( 22) -0.2042 ( 23)  0.2042 ( 24) -0.2480 ( 26)
           0.2480 ( 27)  0.2354 ( 29) -0.2354 ( 31) -0.1572 ( 33)  0.1572 ( 34)
 CRD 48=   0.1554 (  5) -0.1554 (  7) -0.2024 (  9)  0.2024 ( 10)  0.2291 ( 11)
          -0.2291 ( 12)  0.2440 ( 15) -0.2440 ( 16)  0.2472 ( 17) -0.2472 ( 18)
           0.2387 ( 21) -0.2387 ( 22)  0.2190 ( 23) -0.2190 ( 24)  0.1887 ( 26)
          -0.1887 ( 27) -0.1486 ( 29)  0.1486 ( 31)
 CRD 49=   0.1071 ( 54) -0.1071 ( 58) -0.1122 ( 60)  0.1122 ( 63) -0.1105 ( 66)
           0.1105 ( 68) -0.1021 ( 70)  0.1021 ( 71)  0.1088 ( 72) -0.1088 ( 73)
           0.1124 ( 76) -0.1124 ( 77)  0.1092 ( 82) -0.1092 ( 83)  0.1011 (176)
           0.1011 (177)  0.1011 (178)  0.1011 (179)  0.1224 (180)  0.1224 (181)
           0.1224 (182)  0.1224 (183)  0.1362 (184)  0.1362 (185)  0.1362 (186)
           0.1362 (187)  0.1418 (188)  0.1418 (189)  0.1418 (190)  0.1418 (191)
           0.1387 (192)  0.1387 (193)  0.1387 (194)  0.1387 (195)  0.1271 (196)
           0.1271 (197)  0.1271 (198)  0.1271 (199)  0.1078 (200)  0.1078 (201)
           0.1078 (202)  0.1078 (203)
 CRD 50=   0.6223 (  3)  0.6223 (  4) -0.1717 ( 39) -0.1281 ( 43) -0.1281 ( 47)
           0.2556 ( 98)  0.1553 (168) -0.1553 (170)
 CRD 51=  -0.1022 ( 17)  0.1022 ( 18) -0.1037 ( 21)  0.1037 ( 22) -0.1033 ( 46)
           0.1033 ( 48)  0.1030 ( 59) -0.1030 ( 61) -0.1022 ( 75)  0.1022 ( 78)
           0.1037 ( 89) -0.1037 ( 90)  0.1258 (172)  0.1258 (173)  0.1258 (174)
           0.1258 (175)  0.1429 (176)  0.1429 (177)  0.1429 (178)  0.1429 (179)
           0.1239 (180)  0.1239 (181)  0.1239 (182)  0.1239 (183) -0.1196 (196)
          -0.1196 (197) -0.1196 (198) -0.1196 (199) -0.1425 (200) -0.1425 (201)
          -0.1425 (202) -0.1425 (203) -0.1304 (204) -0.1304 (205) -0.1304 (206)
          -0.1304 (207)
 CRD 52=   0.2585 ( 33)  0.2585 ( 34) -0.6031 ( 35)  0.2687 ( 36)  0.2687 ( 37)
           0.3182 (109) -0.1503 (110) -0.1503 (111) -0.1600 (155)  0.1600 (156)
           0.1896 (209) -0.1303 (210)  0.1303 (212) -0.1896 (213)
 CRD 53=  -0.2306 ( 36)  0.2306 ( 37) -0.1048 ( 94)  0.1048 ( 95)  0.1204 (110)
          -0.1204 (111) -0.1405 (157) -0.1316 (172) -0.1316 (173) -0.1316 (174)
          -0.1316 (175)  0.1313 (188)  0.1313 (189)  0.1313 (190)  0.1313 (191)
          -0.1379 (204) -0.1379 (205) -0.1379 (206) -0.1379 (207) -0.1692 (208)
          -0.1692 (211)
 CRD 54=  -0.4981 ( 36)  0.4981 ( 37)  0.2728 (110) -0.2728 (111)  0.1041 (155)
           0.1041 (156) -0.1832 (157) -0.1614 (208)  0.1260 (209)  0.1260 (210)
          -0.1614 (211)  0.1260 (212)  0.1260 (213)
 CRD 55=   0.1070 (  5)  0.1070 (  7) -0.1767 (  9) -0.1767 ( 10)  0.2297 ( 11)
           0.2297 ( 12) -0.2649 ( 15) -0.2649 ( 16)  0.2781 ( 17)  0.2781 ( 18)
          -0.2685 ( 21) -0.2685 ( 22)  0.2368 ( 23)  0.2368 ( 24) -0.1868 ( 26)
          -0.1868 ( 27)  0.1206 ( 29)  0.1206 ( 31)
 CRD 56=   0.1911 (  5)  0.1911 (  7) -0.2699 (  9) -0.2699 ( 10)  0.2584 ( 11)
           0.2584 ( 12) -0.1663 ( 15) -0.1663 ( 16)  0.1317 ( 21)  0.1317 ( 22)
          -0.2418 ( 23) -0.2418 ( 24)  0.2759 ( 26)  0.2759 ( 27) -0.2206 ( 29)
          -0.2206 ( 31)
 CRD 57=   0.2426 (  5)  0.2426 (  7) -0.2523 (  9) -0.2523 ( 10)  0.1424 ( 15)
           0.1424 ( 16) -0.2691 ( 17) -0.2691 ( 18)  0.2095 ( 21)  0.2095 ( 22)
          -0.2030 ( 26) -0.2030 ( 27)  0.2696 ( 29)  0.2696 ( 31) -0.1457 ( 33)
          -0.1457 ( 34)
 CRD 58=  -0.2621 (  5) -0.2621 (  7)  0.1478 (  9)  0.1478 ( 10)  0.1460 ( 11)
           0.1460 ( 12) -0.2663 ( 15) -0.2663 ( 16)  0.2029 ( 21)  0.2029 ( 22)
          -0.2454 ( 23) -0.2454 ( 24)  0.2427 ( 29)  0.2427 ( 31) -0.1978 ( 33)
          -0.1978 ( 34) -0.1034 ( 35)
 CRD 59=   0.2568 (  5)  0.2568 (  7) -0.2629 ( 11) -0.2629 ( 12)  0.2390 ( 17)
           0.2390 ( 18) -0.1488 ( 21) -0.1488 ( 22) -0.1961 ( 23) -0.1961 ( 24)
           0.2058 ( 26)  0.2058 ( 27)  0.1359 ( 29)  0.1359 ( 31) -0.2374 ( 33)
          -0.2374 ( 34) -0.1059 ( 35)
 CRD 60=  -0.2360 (  5) -0.2360 (  7) -0.1257 (  9) -0.1257 ( 10)  0.2095 ( 11)
           0.2095 ( 12)  0.1877 ( 15)  0.1877 ( 16) -0.1561 ( 17) -0.1561 ( 18)
          -0.2313 ( 21) -0.2313 ( 22)  0.2564 ( 26)  0.2564 ( 27) -0.2525 ( 33)
          -0.2525 ( 34)  0.1027 (106)
 CRD 61=  -0.2047 (  5) -0.2047 (  7) -0.2183 (  9) -0.2183 ( 10)  0.2480 ( 15)
           0.2480 ( 16)  0.1753 ( 17)  0.1753 ( 18) -0.1019 ( 21) -0.1019 ( 22)
          -0.2601 ( 23) -0.2601 ( 24) -0.1139 ( 26) -0.1139 ( 27)  0.1644 ( 29)
           0.1644 ( 31)  0.2405 ( 33)  0.2405 ( 34)  0.1058 (102) -0.1109 (105)
 CRD 62=  -0.1657 (  5) -0.1657 (  7) -0.2527 (  9) -0.2527 ( 10) -0.1591 ( 11)
          -0.1591 ( 12)  0.2199 ( 17)  0.2199 ( 18)  0.2445 ( 21)  0.2445 ( 22)
           0.1025 ( 23)  0.1025 ( 24) -0.1094 ( 26) -0.1094 ( 27) -0.2456 ( 29)
          -0.2456 ( 31) -0.2045 ( 33) -0.2045 ( 34) -0.1139 (100)  0.1103 (104)
          -0.1106 (107)
 CRD 63=   0.1189 (  5)  0.1189 (  7)  0.2221 (  9)  0.2221 ( 10)  0.2504 ( 11)
           0.2504 ( 12)  0.1997 ( 15)  0.1997 ( 16) -0.1753 ( 23) -0.1753 ( 24)
          -0.2442 ( 26) -0.2442 ( 27) -0.2371 ( 29) -0.2371 ( 31) -0.1491 ( 33)
          -0.1491 ( 34)  0.1048 (100)  0.1182 (101) -0.1153 (106) -0.1118 (107)
 CRD 64=   0.1297 (  9)  0.1297 ( 10)  0.1832 ( 11)  0.1832 ( 12)  0.2216 ( 15)
           0.2216 ( 16)  0.2428 ( 17)  0.2428 ( 18)  0.2454 ( 21)  0.2454 ( 22)
           0.2293 ( 23)  0.2293 ( 24)  0.1949 ( 26)  0.1949 ( 27)  0.1451 ( 29)
           0.1451 ( 31)  0.1079 (102)  0.1182 (103)  0.1195 (104)  0.1116 (105)
 CRD 65=   0.1006 (  9) -0.1006 ( 10)  0.1030 ( 17) -0.1030 ( 18) -0.1045 ( 26)
           0.1045 ( 27)  0.1318 (166)  0.1318 (167)  0.1318 (169)  0.1318 (171)
           0.1259 (172)  0.1259 (173)  0.1259 (174)  0.1259 (175) -0.1315 (180)
          -0.1315 (181) -0.1315 (182) -0.1315 (183) -0.1255 (184) -0.1255 (185)
          -0.1255 (186) -0.1255 (187)  0.1318 (192)  0.1318 (193)  0.1318 (194)
           0.1318 (195)  0.1251 (196)  0.1251 (197)  0.1251 (198)  0.1251 (199)
          -0.1349 (204) -0.1349 (205) -0.1349 (206) -0.1349 (207) -0.1102 (209)
          -0.1102 (210) -0.1102 (212) -0.1102 (213)
 CRD 66=   0.1192 (  3) -0.1192 (  4)  0.1098 (  9) -0.1098 ( 10)  0.1150 ( 15)
          -0.1150 ( 16) -0.1046 ( 23)  0.1046 ( 24) -0.1206 ( 29)  0.1206 ( 31)
           0.1517 (166)  0.1517 (167)  0.1517 (169)  0.1517 (171) -0.1125 (176)
          -0.1125 (177) -0.1125 (178) -0.1125 (179) -0.1216 (180) -0.1216 (181)
          -0.1216 (182) -0.1216 (183)  0.1478 (188)  0.1478 (189)  0.1478 (190)
           0.1478 (191) -0.1372 (196) -0.1372 (197) -0.1372 (198) -0.1372 (199)
           0.1045 (208)  0.1173 (209)  0.1173 (210)  0.1045 (211)  0.1173 (212)
           0.1173 (213)
 CRD 67=  -0.1721 (  3)  0.1721 (  4)  0.1953 (  5) -0.1953 (  7)  0.1207 ( 17)
          -0.1207 ( 18) -0.1331 ( 29)  0.1331 ( 31) -0.1060 (123) -0.1060 (124)
          -0.1140 (164) -0.1140 (165) -0.1680 (166) -0.1680 (167) -0.1680 (169)
          -0.1680 (171)  0.1160 (176)  0.1160 (177)  0.1160 (178)  0.1160 (179)
          -0.1375 (184) -0.1375 (185) -0.1375 (186) -0.1375 (187)  0.1278 (192)
           0.1278 (193)  0.1278 (194)  0.1278 (195) -0.1385 (200) -0.1385 (201)
          -0.1385 (202) -0.1385 (203)  0.1006 (209)  0.1006 (210)  0.1006 (212)
           0.1006 (213)
 CRD 68=  -0.1336 (  5)  0.1336 (  7) -0.2141 (  9)  0.2141 ( 10) -0.2286 ( 11)
           0.2286 ( 12)  0.2008 ( 15) -0.2008 ( 16) -0.2067 ( 17)  0.2067 ( 18)
           0.2373 ( 21) -0.2373 ( 22) -0.2148 ( 23)  0.2148 ( 24)  0.1350 ( 26)
          -0.1350 ( 27)  0.1136 (176)  0.1136 (177)  0.1136 (178)  0.1136 (179)
           0.1166 (192)  0.1166 (193)  0.1166 (194)  0.1166 (195)
 CRD 69=   0.1292 (  3) -0.1292 (  4) -0.2331 (  5)  0.2331 (  7) -0.2317 (  9)
           0.2317 ( 10) -0.1154 ( 11)  0.1154 ( 12)  0.1797 ( 23) -0.1797 ( 24)
          -0.2579 ( 26)  0.2579 ( 27) -0.2181 ( 29)  0.2181 ( 31) -0.1314 (172)
          -0.1314 (173) -0.1314 (174) -0.1314 (175)  0.1107 (196)  0.1107 (197)
           0.1107 (198)  0.1107 (199) -0.1340 (200) -0.1340 (201) -0.1340 (202)
          -0.1340 (203)
 CRD 70=  -0.1274 (  3)  0.1274 (  4)  0.1790 (  5) -0.1790 (  7) -0.1631 ( 11)
           0.1631 ( 12)  0.2797 ( 15) -0.2797 ( 16) -0.1722 ( 17)  0.1722 ( 18)
           0.1359 ( 23) -0.1359 ( 24) -0.1249 ( 26)  0.1249 ( 27) -0.1114 ( 29)
           0.1114 ( 31) -0.1164 ( 33)  0.1164 ( 34) -0.1114 (120) -0.1114 (122)
           0.1075 (143)  0.1075 (144)  0.1029 (172)  0.1029 (173)  0.1029 (174)
           0.1029 (175) -0.1495 (180) -0.1495 (181) -0.1495 (182) -0.1495 (183)
           0.1466 (184)  0.1466 (185)  0.1466 (186)  0.1466 (187)
 CRD 71=  -0.1543 (  9)  0.1543 ( 10) -0.1915 ( 11)  0.1915 ( 12)  0.2038 ( 17)
          -0.2038 ( 18) -0.2489 ( 21)  0.2489 ( 22)  0.1340 ( 26) -0.1340 ( 27)
           0.1606 ( 29) -0.1606 ( 31)  0.1196 (130)  0.1196 (131)  0.1097 (145)
           0.1097 (146)  0.1231 (176)  0.1231 (177)  0.1231 (178)  0.1231 (179)
          -0.1021 (180) -0.1021 (181) -0.1021 (182) -0.1021 (183)  0.1697 (188)
           0.1697 (189)  0.1697 (190)  0.1697 (191) -0.1053 (192) -0.1053 (193)
          -0.1053 (194) -0.1053 (195)  0.1186 (200)  0.1186 (201)  0.1186 (202)
           0.1186 (203)
 CRD 72=   0.6268 (  1) -0.6027 ( 39) -0.1017 ( 45)  0.1636 ( 96)  0.1636 ( 97)
          -0.2317 ( 98) -0.1400 (123)  0.1400 (124)  0.1278 (166)  0.1521 (167)
          -0.1521 (169) -0.1278 (171)
 CRD 73=  -0.1415 ( 23)  0.1415 ( 24) -0.1461 ( 29)  0.1461 ( 31) -0.3246 ( 33)
           0.3246 ( 34)  0.1180 (152)  0.1180 (153) -0.1431 (155) -0.1431 (156)
          -0.1584 (157)  0.1020 (162)  0.1020 (163) -0.1110 (196) -0.1110 (197)
          -0.1110 (198) -0.1110 (199)  0.1412 (204)  0.1412 (205)  0.1412 (206)
           0.1412 (207) -0.2409 (208) -0.2256 (209) -0.2256 (210) -0.2409 (211)
          -0.2256 (212) -0.2256 (213)
 CRD 74=  -0.1375 (  2)  0.8402 ( 38) -0.1214 ( 39)  0.1620 ( 43)  0.1620 ( 47)
          -0.1073 (167) -0.1005 (168)  0.1073 (169)  0.1005 (170)  0.1004 (172)
          -0.1004 (175)
 CRD 75=   0.1280 ( 35)  0.1244 ( 38)  0.1064 ( 54)  0.1064 ( 58)  0.1204 ( 60)
           0.1204 ( 63) -0.1003 ( 64) -0.1003 ( 65)  0.1279 ( 66)  0.1279 ( 68)
           0.1284 ( 70)  0.1284 ( 71) -0.1163 ( 72) -0.1163 ( 73)  0.1220 ( 75)
          -0.1261 ( 76) -0.1261 ( 77)  0.1220 ( 78)  0.1093 ( 79)  0.1093 ( 81)
          -0.1290 ( 82) -0.1290 ( 83) -0.1252 ( 85) -0.1252 ( 86) -0.1123 ( 89)
          -0.1123 ( 90)  0.1017 ( 93) -0.1102 ( 94) -0.1102 ( 95) -0.1022 (110)
          -0.1022 (111) -0.1140 (181)  0.1140 (182) -0.1359 (185)  0.1359 (186)
          -0.1504 (189)  0.1504 (190) -0.1567 (193)  0.1567 (194) -0.1547 (196)
           0.1547 (199) -0.1426 (200)  0.1426 (203) -0.1391 (204)  0.1391 (207)
 CRD 76=  -0.1933 ( 35) -0.1120 ( 36) -0.1120 ( 37)  0.1921 ( 38)  0.1087 ( 46)
           0.1087 ( 48)  0.1222 ( 50)  0.1222 ( 52)  0.1109 ( 54)  0.1109 ( 58)
          -0.1204 ( 59) -0.1204 ( 61) -0.1173 ( 64) -0.1173 ( 65) -0.1103 ( 79)
          -0.1103 ( 81) -0.1136 ( 87) -0.1136 ( 88) -0.1294 ( 91) -0.1294 ( 92)
          -0.1605 ( 93)  0.1430 ( 94)  0.1430 ( 95)  0.1624 (110)  0.1624 (111)
          -0.1070 (172)  0.1070 (175) -0.1381 (176)  0.1381 (179) -0.1445 (181)
           0.1445 (182) -0.1218 (185)  0.1218 (186)  0.1030 (200) -0.1030 (203)
           0.1626 (204) -0.1626 (207)
 CRD 77=  -0.3357 (  3)  0.3357 (  4)  0.4858 (118)  0.1644 (166)  0.1644 (167)
           0.3877 (168)  0.1644 (169)  0.3877 (170)  0.1644 (171)
 CRD 78=   0.1344 (  1) -0.1028 ( 13) -0.1099 ( 14)  0.1107 ( 28)  0.1561 ( 32)
          -0.1734 ( 35) -0.1257 ( 36) -0.1257 ( 37) -0.2211 ( 38) -0.1133 ( 40)
          -0.1133 ( 42) -0.1123 ( 46) -0.1123 ( 48)  0.1176 ( 56)  0.1176 ( 57)
           0.1140 ( 66)  0.1140 ( 68)  0.1076 ( 70)  0.1076 ( 71) -0.1053 ( 76)
          -0.1053 ( 77) -0.1153 ( 82) -0.1153 ( 83) -0.1417 ( 91) -0.1417 ( 92)
          -0.1585 ( 93)  0.1213 (109)  0.1603 (110)  0.1603 (111)  0.1402 (172)
          -0.1402 (175)  0.1194 (176) -0.1194 (179) -0.1058 (189)  0.1058 (190)
          -0.1362 (193)  0.1362 (194) -0.1091 (196)  0.1091 (199)
 CRD 79=  -0.1795 (  1)  0.1422 (  8)  0.1055 ( 13) -0.1103 ( 19) -0.1398 ( 20)
           0.1159 ( 30)  0.2160 ( 32) -0.1096 ( 35) -0.1202 ( 36) -0.1202 ( 37)
           0.2135 ( 38)  0.1182 ( 40)  0.1182 ( 42) -0.1053 ( 45) -0.1087 ( 51)
          -0.1087 ( 53) -0.1091 ( 54) -0.1091 ( 58)  0.1074 ( 72)  0.1074 ( 73)
           0.1133 ( 75)  0.1133 ( 78) -0.1091 ( 85) -0.1091 ( 86) -0.1260 ( 91)
          -0.1260 ( 92) -0.1255 ( 93)  0.1219 ( 96)  0.1219 ( 97)  0.1318 (109)
           0.1229 (110)  0.1229 (111) -0.1177 (172)  0.1177 (175)  0.1260 (185)
          -0.1260 (186) -0.1080 (196)  0.1080 (199) -0.1240 (200)  0.1240 (203)
 CRD 80=   0.1799 (  1) -0.1078 (  2) -0.1537 (  6) -0.1056 (  8)  0.1668 ( 14)
          -0.1684 ( 25)  0.2481 ( 32) -0.1134 ( 36) -0.1134 ( 37) -0.1689 ( 38)
           0.1052 ( 39)  0.1226 ( 43)  0.1040 ( 45)  0.1226 ( 47)  0.1083 ( 50)
           0.1083 ( 52) -0.1051 ( 59) -0.1051 ( 61) -0.1088 ( 66) -0.1088 ( 68)
           0.1067 ( 76)  0.1067 ( 77)  0.1061 ( 79)  0.1061 ( 81) -0.1146 ( 89)
          -0.1146 ( 90) -0.1021 ( 91) -0.1021 ( 92) -0.1383 ( 96) -0.1383 ( 97)
           0.1388 (109) -0.1291 (168)  0.1291 (170) -0.1056 (181)  0.1056 (182)
           0.1030 (193) -0.1030 (194) -0.1067 (200)  0.1067 (203)
 CRD 81=  -0.1270 (  1)  0.2135 (  2)  0.1312 (  6) -0.1896 ( 13)  0.1650 ( 19)
           0.1360 ( 20) -0.1800 ( 28)  0.2454 ( 32) -0.1105 ( 36) -0.1105 ( 37)
           0.1103 ( 38) -0.1082 ( 39) -0.1308 ( 43) -0.1121 ( 46) -0.1308 ( 47)
          -0.1121 ( 48) -0.1059 ( 70) -0.1059 ( 71) -0.1025 ( 72) -0.1025 ( 73)
           0.1196 ( 96)  0.1196 ( 97)  0.1074 ( 98)  0.1479 (109)  0.1390 (168)
          -0.1390 (170)  0.1073 (176) -0.1073 (179) -0.1033 (185)  0.1033 (186)
          -0.1227 (210)  0.1227 (212)
 CRD 82=  -0.2602 (  2)  0.1009 (  3)  0.1009 (  4)  0.1886 (  8) -0.1890 ( 14)
           0.1738 ( 20)  0.1140 ( 25) -0.1430 ( 28) -0.1682 ( 30)  0.1883 ( 32)
           0.1079 ( 35) -0.1092 ( 36) -0.1092 ( 37)  0.1041 ( 39)  0.1143 ( 43)
           0.1143 ( 47)  0.1039 ( 85)  0.1039 ( 86)  0.1150 ( 87)  0.1150 ( 88)
          -0.1432 ( 98)  0.1573 (109) -0.1337 (168)  0.1337 (170) -0.1639 (210)
           0.1639 (212)
 CRD 83=   0.1041 ( 17) -0.1041 ( 18) -0.1441 ( 21)  0.1441 ( 22)  0.1896 ( 29)
          -0.1896 ( 31)  0.2540 ( 33) -0.2540 ( 34) -0.1781 ( 36)  0.1781 ( 37)
          -0.1393 (110)  0.1393 (111)  0.1289 (157) -0.1086 (188) -0.1086 (189)
          -0.1086 (190) -0.1086 (191)  0.1010 (192)  0.1010 (193)  0.1010 (194)
           0.1010 (195) -0.1042 (200) -0.1042 (201) -0.1042 (202) -0.1042 (203)
           0.1924 (204)  0.1924 (205)  0.1924 (206)  0.1924 (207) -0.1777 (209)
          -0.1777 (210) -0.1777 (212) -0.1777 (213)
 CRD 84=  -0.1411 (  9)  0.1411 ( 10) -0.1890 ( 11)  0.1890 ( 12)  0.1562 ( 15)
          -0.1562 ( 16)  0.1752 ( 23) -0.1752 ( 24) -0.1719 ( 26)  0.1719 ( 27)
          -0.1079 ( 29)  0.1079 ( 31) -0.1482 (176) -0.1482 (177) -0.1482 (178)
          -0.1482 (179)  0.1518 (180)  0.1518 (181)  0.1518 (182)  0.1518 (183)
           0.1165 (192)  0.1165 (193)  0.1165 (194)  0.1165 (195) -0.1537 (196)
          -0.1537 (197) -0.1537 (198) -0.1537 (199)  0.1278 (200)  0.1278 (201)
           0.1278 (202)  0.1278 (203)
 CRD 85=  -0.1375 (  5)  0.1375 (  7) -0.1246 (  9)  0.1246 ( 10) -0.1858 ( 15)
           0.1858 ( 16)  0.2269 ( 17) -0.2269 ( 18) -0.1226 ( 21)  0.1226 ( 22)
          -0.1356 ( 33)  0.1356 ( 34)  0.1239 ( 36) -0.1239 ( 37) -0.1123 (157)
           0.1061 (172)  0.1061 (173)  0.1061 (174)  0.1061 (175)  0.1757 (184)
           0.1757 (185)  0.1757 (186)  0.1757 (187) -0.1522 (188) -0.1522 (189)
          -0.1522 (190) -0.1522 (191)  0.1001 (209)  0.1001 (210)  0.1001 (212)
           0.1001 (213)
 CRD 86=   0.1298 (  5) -0.1298 (  7)  0.1800 (  9) -0.1800 ( 10)  0.1447 ( 11)
          -0.1447 ( 12) -0.1121 ( 21)  0.1121 ( 22)  0.1744 ( 23) -0.1744 ( 24)
          -0.1666 ( 26)  0.1666 ( 27) -0.1360 (172) -0.1360 (173) -0.1360 (174)
          -0.1360 (175)  0.1441 (176)  0.1441 (177)  0.1441 (178)  0.1441 (179)
          -0.1047 (180) -0.1047 (181) -0.1047 (182) -0.1047 (183)  0.1300 (192)
           0.1300 (193)  0.1300 (194)  0.1300 (195) -0.1497 (196) -0.1497 (197)
          -0.1497 (198) -0.1497 (199)  0.1103 (200)  0.1103 (201)  0.1103 (202)
           0.1103 (203)
 CRD 87=  -0.1989 (  2)  0.1218 (  3)  0.1218 (  4)  0.1658 (  6)  0.1049 (  8)
          -0.1497 ( 13)  0.1836 ( 19) -0.1802 ( 25)  0.2166 ( 30) -0.1695 ( 35)
          -0.1117 ( 51) -0.1117 ( 53) -0.1836 ( 98)  0.1168 ( 99)  0.1168 (108)
          -0.1518 (109) -0.1053 (164)  0.1053 (165)  0.1728 (167) -0.1170 (168)
          -0.1728 (169)  0.1170 (170)  0.1808 (210) -0.1808 (212)
 CRD 88=  -0.1225 (  1) -0.1015 ( 20)  0.1057 ( 35)  0.1323 ( 99) -0.1300 (100)
           0.1253 (101) -0.1451 (102)  0.1690 (103) -0.1617 (104)  0.1292 (105)
          -0.1093 (106)  0.1119 (107) -0.1040 (108)  0.1269 (167) -0.1269 (169)
           0.1353 (172) -0.1353 (175)  0.1019 (181) -0.1019 (182) -0.1538 (185)
           0.1538 (186)  0.1783 (189) -0.1783 (190) -0.1350 (193)  0.1350 (194)
           0.1202 (204) -0.1202 (207)
 CRD 89=  -0.1013 (  3)  0.1013 (  4)  0.1778 (  5) -0.1778 (  7) -0.1263 ( 11)
           0.1263 ( 12)  0.1081 ( 15) -0.1081 ( 16) -0.1529 ( 21)  0.1529 ( 22)
           0.1460 ( 26) -0.1460 ( 27)  0.1012 ( 29) -0.1012 ( 31)  0.1542 ( 36)
          -0.1542 ( 37)  0.1213 (110) -0.1213 (111) -0.1404 (118) -0.1271 (119)
          -0.1270 (121)  0.1133 (132)  0.1210 (148) -0.1718 (157)  0.1123 (166)
           0.1123 (167) -0.1961 (168)  0.1123 (169) -0.1961 (170)  0.1123 (171)
 CRD 90=  -0.1667 (  1)  0.1699 (  6) -0.1400 (  8) -0.1294 ( 20)  0.1531 ( 28)
          -0.1676 ( 30)  0.1347 ( 35) -0.1520 ( 98)  0.1484 ( 99) -0.1134 (103)
           0.1385 (104) -0.1614 (105)  0.1310 (106)  0.1049 (109) -0.1048 (158)
           0.1048 (159)  0.1736 (167) -0.1736 (169)  0.1079 (172) -0.1079 (175)
           0.1324 (193) -0.1324 (194) -0.1678 (196)  0.1678 (199) -0.1149 (210)
           0.1149 (212)
 CRD 91=  -0.1777 (  2)  0.1158 (  6)  0.1007 ( 11)  0.1007 ( 12) -0.1234 ( 13)
          -0.1204 ( 25)  0.1073 ( 28) -0.1095 ( 29) -0.1095 ( 31) -0.1743 ( 32)
           0.1016 ( 35)  0.1639 (100) -0.1736 (101)  0.1213 (102) -0.1534 (106)
           0.1874 (107) -0.1355 (108)  0.1078 (116) -0.1078 (117) -0.1341 (172)
           0.1341 (175)  0.1789 (176) -0.1789 (179) -0.1263 (181)  0.1263 (182)
          -0.1717 (200)  0.1717 (203)  0.1784 (204) -0.1784 (207)
 CRD 92=  -0.1565 (  1)  0.1205 (  2) -0.2130 (  8)  0.1498 ( 13) -0.2264 ( 19)
           0.1520 ( 20) -0.1897 ( 28)  0.1129 ( 30) -0.1295 ( 35)  0.1318 ( 99)
           0.1643 (102) -0.1136 (103)  0.1393 (105) -0.1334 (106)  0.1217 (167)
          -0.1217 (169)  0.1187 (172) -0.1187 (175) -0.1387 (181)  0.1387 (182)
           0.1625 (185) -0.1625 (186) -0.1056 (193)  0.1056 (194)  0.1560 (196)
          -0.1560 (199)
 CRD 93=   0.1610 (  2) -0.1794 (  6)  0.1730 ( 13) -0.2090 ( 14)  0.1548 ( 20)
          -0.2062 ( 25)  0.1158 ( 30) -0.1693 ( 32) -0.1509 (100)  0.1437 (101)
          -0.1295 (103)  0.1674 (104)  0.1540 (107) -0.1036 (108) -0.1648 (176)
           0.1648 (179) -0.1671 (189)  0.1671 (190)  0.1285 (193) -0.1285 (194)
          -0.1360 (200)  0.1360 (203)  0.1356 (204) -0.1356 (207)
 CRD 94=   0.1582 (  3) -0.1582 (  4)  0.1011 ( 11) -0.1011 ( 12) -0.1183 ( 17)
           0.1183 ( 18)  0.1282 ( 23) -0.1282 ( 24)  0.1359 ( 29) -0.1359 ( 31)
           0.1598 ( 36) -0.1598 ( 37)  0.1240 ( 96) -0.1240 ( 97)  0.1248 (110)
          -0.1248 (111) -0.1365 (115)  0.1794 (119)  0.1326 (129) -0.1261 (137)
           0.1136 (148) -0.1667 (157)  0.2333 (168)  0.2333 (170) -0.1405 (208)
          -0.1405 (211)
 CRD 95=  -0.1319 (  1)  0.1325 (  2)  0.1328 ( 13) -0.1031 ( 14) -0.1337 ( 25)
          -0.1247 ( 32)  0.1382 ( 35) -0.1071 ( 54) -0.1071 ( 58)  0.1043 ( 82)
           0.1043 ( 83) -0.1140 (101) -0.1128 (104)  0.1098 (106) -0.1015 (141)
           0.1015 (142)  0.1218 (173) -0.1218 (174) -0.1445 (180)  0.1445 (183)
           0.1668 (184) -0.1668 (187) -0.1531 (192)  0.1531 (195)  0.1621 (197)
          -0.1621 (198) -0.1161 (205)  0.1161 (206)  0.1060 (209) -0.1060 (213)
 CRD 96=  -0.1221 (  2)  0.1722 (  6) -0.1077 (  8)  0.1039 ( 14) -0.1378 ( 19)
           0.1065 ( 20)  0.1681 ( 30) -0.1312 ( 32) -0.1070 ( 60) -0.1070 ( 63)
          -0.1114 ( 76) -0.1114 ( 77) -0.1008 ( 89) -0.1008 ( 90)  0.1051 (100)
          -0.1249 (102) -0.1335 (105) -0.1004 (130)  0.1004 (131) -0.1028 (133)
           0.1028 (134)  0.1082 (145) -0.1082 (146)  0.1028 (147) -0.1028 (149)
           0.1504 (177) -0.1504 (178) -0.1031 (180)  0.1031 (183)  0.2086 (188)
          -0.2086 (191) -0.1152 (192)  0.1152 (195)  0.1620 (201) -0.1620 (202)
 CRD 97=  -0.1615 (  1)  0.1320 (  2) -0.1277 ( 14)  0.2003 ( 19) -0.1417 ( 20)
           0.1256 ( 32) -0.1611 ( 35) -0.1054 ( 98)  0.1109 (100)  0.1166 (107)
          -0.1020 (109)  0.1470 (166) -0.1470 (171)  0.1622 (173) -0.1622 (174)
          -0.1268 (180)  0.1268 (183) -0.1276 (197)  0.1276 (198)  0.1481 (205)
          -0.1481 (206) -0.1585 (209)  0.1585 (213)
 CRD 98=   0.1529 (  2) -0.1945 (  6)  0.1970 (  8) -0.1940 ( 13)  0.1401 ( 14)
          -0.1343 ( 20)  0.1973 ( 25) -0.1983 ( 28)  0.1910 ( 30) -0.1553 ( 32)
           0.1137 ( 46)  0.1137 ( 48) -0.1015 ( 50) -0.1015 ( 52) -0.1070 ( 56)
          -0.1070 ( 57)  0.1102 ( 59)  0.1102 ( 61) -0.1073 ( 75) -0.1073 ( 78)
           0.1106 ( 79)  0.1106 ( 81) -0.1145 ( 89) -0.1145 ( 90)  0.1225 (173)
          -0.1225 (174) -0.1816 (177)  0.1816 (178)  0.1028 (180) -0.1028 (183)
           0.1782 (201) -0.1782 (202) -0.1368 (205)  0.1368 (206)
 CRD 99=  -0.1660 (  3)  0.1660 (  4) -0.1184 (  9)  0.1184 ( 10) -0.1114 ( 15)
           0.1114 ( 16)  0.1060 ( 29) -0.1060 ( 31)  0.1490 ( 36) -0.1490 ( 37)
          -0.1168 ( 96)  0.1168 ( 97)  0.1153 (110) -0.1153 (111) -0.1371 (114)
          -0.1386 (119)  0.1342 (121) -0.1409 (132)  0.1416 (140) -0.1504 (154)
          -0.1227 (157) -0.1485 (164) -0.1485 (165) -0.1987 (168) -0.1987 (170)
          -0.1694 (208) -0.1694 (211)
 CRD100=  -0.1267 (  6)  0.1808 (  8) -0.2250 ( 13)  0.2323 ( 14) -0.2270 ( 19)
           0.2327 ( 20) -0.2237 ( 25)  0.1779 ( 28) -0.1244 ( 30) -0.1081 ( 60)
          -0.1081 ( 63)  0.1047 ( 66)  0.1047 ( 68)  0.1053 ( 72)  0.1053 ( 73)
          -0.1077 ( 76) -0.1077 ( 77) -0.1240 (184)  0.1240 (187)  0.1488 (188)
          -0.1488 (191) -0.1217 (192)  0.1217 (195)
 CRD101=  -0.1470 (  1)  0.1360 (  8) -0.1447 ( 28)  0.1418 ( 35) -0.1194 ( 98)
           0.1267 (100) -0.1158 (102)  0.1084 (104)  0.1024 (105) -0.1151 (107)
           0.1068 (109) -0.1007 (123)  0.1007 (124)  0.1786 (166) -0.1786 (171)
           0.1104 (177) -0.1104 (178) -0.1508 (184)  0.1508 (187)  0.1554 (192)
          -0.1554 (195) -0.1099 (201)  0.1099 (202)  0.1855 (209) -0.1855 (213)
 CRD102=   0.1113 (  1) -0.1003 (  8)  0.1126 ( 19)  0.1021 ( 35)  0.1041 ( 49)
           0.1033 ( 74)  0.1042 ( 98)  0.1273 ( 99) -0.1516 (101)  0.1270 (103)
           0.1162 (104) -0.1506 (106)  0.1366 (108) -0.1753 (166)  0.1753 (171)
          -0.1226 (177)  0.1226 (178) -0.1308 (180)  0.1308 (183)  0.1578 (188)
          -0.1578 (191) -0.1415 (197)  0.1415 (198) -0.1100 (201)  0.1100 (202)
           0.1728 (209) -0.1728 (213)
 CRD103=  -0.1099 (  6)  0.1131 ( 13)  0.1052 ( 14) -0.1111 ( 20) -0.1077 ( 25)
           0.1175 ( 30)  0.1209 ( 41) -0.1199 ( 55)  0.1203 ( 69) -0.1218 ( 84)
          -0.1466 ( 99)  0.1471 (102) -0.1476 (105)  0.1481 (108)  0.1615 (166)
          -0.1615 (171) -0.1254 (173)  0.1254 (174)  0.1504 (180) -0.1504 (183)
           0.1367 (184) -0.1367 (187) -0.1444 (192)  0.1444 (195) -0.1437 (197)
           0.1437 (198)  0.1336 (205) -0.1336 (206)  0.1550 (209) -0.1550 (213)
 CRD104=   0.1285 (  3) -0.1285 (  4)  0.1018 (  5) -0.1018 (  7) -0.1239 ( 11)
           0.1239 ( 12)  0.1034 ( 17) -0.1034 ( 18) -0.1229 ( 26)  0.1229 ( 27)
           0.1121 ( 33) -0.1121 ( 34)  0.1200 ( 36) -0.1200 ( 37)  0.1512 (114)
          -0.1034 (120) -0.1034 (122) -0.1151 (123) -0.1151 (124) -0.1384 (129)
           0.1032 (133)  0.1032 (134)  0.1434 (137) -0.1008 (147) -0.1016 (148)
          -0.1008 (149) -0.1463 (154)  0.1198 (155)  0.1198 (156)  0.1049 (158)
           0.1049 (159)  0.1539 (164)  0.1539 (165)  0.1305 (168)  0.1305 (170)
          -0.1698 (208) -0.1698 (211)
 CRD105=   0.1416 (  6) -0.1017 ( 14) -0.1368 ( 19)  0.1428 ( 30) -0.1275 ( 41)
          -0.1155 ( 44)  0.1233 ( 62)  0.1202 ( 67) -0.1191 ( 80) -0.1247 ( 84)
           0.1375 ( 99)  0.1264 (100) -0.1341 (103) -0.1307 (104)  0.1304 (107)
           0.1348 (108) -0.1354 (166)  0.1354 (171)  0.1643 (173) -0.1643 (174)
           0.1091 (177) -0.1091 (178) -0.1241 (184)  0.1241 (187) -0.1676 (188)
           0.1676 (191) -0.1166 (192)  0.1166 (195)  0.1171 (201) -0.1171 (202)
           0.1648 (205) -0.1648 (206)  0.1280 (209) -0.1280 (213)
 CRD106=  -0.1320 (  6) -0.1430 (  8) -0.1217 ( 13)  0.1248 ( 25)  0.1432 ( 28)
           0.1297 ( 30)  0.1064 ( 41)  0.1363 ( 44)  0.1330 ( 49) -0.1346 ( 74)
          -0.1351 ( 80) -0.1025 ( 84) -0.1055 ( 99) -0.1364 (100) -0.1325 (101)
           0.1341 (106)  0.1352 (107)  0.1018 (108) -0.1504 (173)  0.1504 (174)
          -0.1690 (177)  0.1690 (178) -0.1423 (180)  0.1423 (183)  0.1459 (197)
          -0.1459 (198)  0.1694 (201) -0.1694 (202)  0.1471 (205) -0.1471 (206)
 CRD107=  -0.1072 (  8) -0.1298 ( 13) -0.1435 ( 14) -0.1480 ( 19) -0.1428 ( 20)
          -0.1284 ( 25) -0.1051 ( 28)  0.1168 ( 49)  0.1344 ( 55)  0.1434 ( 62)
           0.1431 ( 67)  0.1333 ( 69)  0.1150 ( 74) -0.1106 (101) -0.1274 (102)
          -0.1359 (103) -0.1356 (104) -0.1263 (105) -0.1090 (106) -0.1233 (177)
           0.1233 (178) -0.1486 (180)  0.1486 (183) -0.1645 (184)  0.1645 (187)
          -0.1696 (188)  0.1696 (191) -0.1636 (192)  0.1636 (195) -0.1469 (197)
           0.1469 (198) -0.1210 (201)  0.1210 (202)
 CRD108=   0.1199 (  5) -0.1199 (  7) -0.1192 ( 15)  0.1192 ( 16)  0.1191 ( 23)
          -0.1191 ( 24) -0.1211 ( 33)  0.1211 ( 34)  0.1368 (112)  0.1368 (113)
           0.1428 (115) -0.1417 (123) -0.1417 (124) -0.1254 (125) -0.1254 (126)
          -0.1420 (132)  0.1265 (135)  0.1265 (136)  0.1250 (141)  0.1250 (142)
           0.1431 (148) -0.1266 (150) -0.1266 (151) -0.1425 (155) -0.1425 (156)
           0.1405 (162)  0.1405 (163)  0.1297 (164)  0.1297 (165)  0.1399 (208)
           0.1399 (211)
 CRD109=   0.1041 (  5) -0.1041 (  7) -0.1080 (  9)  0.1080 ( 10) -0.1071 ( 17)
           0.1071 ( 18) -0.1036 ( 21)  0.1036 ( 22) -0.1109 ( 29)  0.1109 ( 31)
           0.1008 ( 33) -0.1008 ( 34)  0.1441 (112)  0.1441 (113)  0.1321 (116)
           0.1321 (117)  0.1229 (121) -0.1367 (123) -0.1367 (124) -0.1412 (127)
          -0.1412 (128) -0.1394 (130) -0.1394 (131) -0.1255 (138) -0.1255 (139)
          -0.1226 (140)  0.1308 (143)  0.1308 (144)  0.1359 (145)  0.1359 (146)
           0.1446 (152)  0.1446 (153)  0.1332 (155)  0.1332 (156) -0.1369 (160)
          -0.1369 (161) -0.1420 (162) -0.1420 (163) -0.1004 (208) -0.1004 (211)
 CRD110=   0.1059 (  9) -0.1059 ( 10) -0.1079 ( 11)  0.1079 ( 12)  0.1091 ( 26)
          -0.1091 ( 27) -0.1038 ( 29)  0.1038 ( 31) -0.1164 (112) -0.1164 (113)
          -0.1546 (116) -0.1546 (117) -0.1529 (120) -0.1529 (122)  0.1055 (123)
           0.1055 (124) -0.1071 (125) -0.1071 (126)  0.1498 (127)  0.1498 (128)
           0.1570 (133)  0.1570 (134)  0.1192 (135)  0.1192 (136)  0.1250 (141)
           0.1250 (142)  0.1584 (147)  0.1584 (149) -0.1136 (150) -0.1136 (151)
           0.1467 (152)  0.1467 (153)  0.1001 (155)  0.1001 (156) -0.1553 (158)
          -0.1553 (159) -0.1522 (160) -0.1522 (161) -0.1113 (162) -0.1113 (163)
 CRD111=   0.1002 ( 15) -0.1002 ( 16)  0.1079 ( 17) -0.1079 ( 18)  0.1074 ( 21)
          -0.1074 ( 22)  0.1019 (116)  0.1019 (117)  0.1344 (120)  0.1344 (122)
           0.1569 (125)  0.1569 (126)  0.1677 (130)  0.1677 (131) -0.1288 (133)
          -0.1288 (134) -0.1534 (135) -0.1534 (136)  0.1658 (138)  0.1658 (139)
           0.1513 (141)  0.1513 (142) -0.1666 (143) -0.1666 (144) -0.1671 (145)
          -0.1671 (146)  0.1256 (147)  0.1256 (149) -0.1550 (150) -0.1550 (151)
          -0.1313 (158) -0.1313 (159)

 THE DETERMINANT OF THE G MATRIX IS 10**(   -43)


                     --------------------
                     INTERNAL COORDINATES
                     --------------------

                 - - ATOMS - -         COORDINATE      COORDINATE
 NO.   TYPE    I  J  K  L  M  N        (BOHR,RAD)       (ANG,DEG)
 ----------------------------------------------------------------
   1 STRETCH   1 13                     2.7003546       1.4289662
   2 STRETCH   1  2                     2.8912993       1.5300098
   3 STRETCH   1 14                     2.0598193       1.0900095
   4 STRETCH   1 15                     2.0598193       1.0900095
   5 STRETCH   2 17                     2.0598196       1.0900097
   6 STRETCH   2  3                     2.8913199       1.5300207
   7 STRETCH   2 16                     2.0598196       1.0900097
   8 STRETCH   3  4                     2.8911906       1.5299523
   9 STRETCH   3 18                     2.0598196       1.0900097
  10 STRETCH   3 19                     2.0598196       1.0900097
  11 STRETCH   4 21                     2.0598193       1.0900095
  12 STRETCH   4 20                     2.0598193       1.0900095
  13 STRETCH   4  5                     2.8913199       1.5300207
  14 STRETCH   5  6                     2.8912993       1.5300098
  15 STRETCH   5 23                     2.0598196       1.0900097
  16 STRETCH   5 22                     2.0598196       1.0900097
  17 STRETCH   6 25                     2.0598193       1.0900095
  18 STRETCH   6 24                     2.0598193       1.0900095
  19 STRETCH   6  7                     2.8911659       1.5299392
  20 STRETCH   7  8                     2.8911906       1.5299523
  21 STRETCH   7 27                     2.0598193       1.0900095
  22 STRETCH   7 26                     2.0598193       1.0900095
  23 STRETCH   8 29                     2.0599287       1.0900674
  24 STRETCH   8 28                     2.0599287       1.0900674
  25 STRETCH   8  9                     2.8913199       1.5300207
  26 STRETCH   9 31                     2.0598193       1.0900095
  27 STRETCH   9 30                     2.0598193       1.0900095
  28 STRETCH   9 10                     2.8912993       1.5300098
  29 STRETCH  10 32                     2.0598196       1.0900097
  30 STRETCH  10 11                     2.8913199       1.5300207
  31 STRETCH  10 33                     2.0598196       1.0900097
  32 STRETCH  11 12                     2.8911906       1.5299523
  33 STRETCH  11 35                     2.0598196       1.0900097
  34 STRETCH  11 34                     2.0598196       1.0900097
  35 STRETCH  12 38                     2.0597552       1.0899756
  36 STRETCH  12 37                     2.0599284       1.0900673
  37 STRETCH  12 36                     2.0599284       1.0900673
  38 STRETCH  13 39                     1.8273290       0.9669810
  39 BEND      1 13 39                  1.9897267     114.0029438
  40 BEND      1  2 17                  1.9106756     109.4736453
  41 BEND      1  2  3                  1.9106366     109.4714140
  42 BEND      1  2 16                  1.9106756     109.4736453
  43 BEND      2  1 15                  1.9105960     109.4690878
  44 BEND      2  3  4                  1.9106901     109.4744770
  45 BEND      2  1 13                  1.9105982     109.4692125
  46 BEND      2  3 18                  1.9105720     109.4677120
  47 BEND      2  1 14                  1.9105960     109.4690878
  48 BEND      2  3 19                  1.9105720     109.4677120
  49 BEND      3  4  5                  1.9106901     109.4744770
  50 BEND      3  4 21                  1.9105693     109.4675563
  51 BEND      3  2 17                  1.9105720     109.4677120
  52 BEND      3  4 20                  1.9105693     109.4675563
  53 BEND      3  2 16                  1.9105720     109.4677120
  54 BEND      4  5 23                  1.9105720     109.4677120
  55 BEND      4  5  6                  1.9106366     109.4714140
  56 BEND      4  3 19                  1.9106488     109.4721139
  57 BEND      4  3 18                  1.9106488     109.4721139
  58 BEND      4  5 22                  1.9105720     109.4677120
  59 BEND      5  4 20                  1.9106514     109.4722589
  60 BEND      5  6 24                  1.9105960     109.4690878
  61 BEND      5  4 21                  1.9106514     109.4722589
  62 BEND      5  6  7                  1.9105987     109.4692444
  63 BEND      5  6 25                  1.9105960     109.4690878
  64 BEND      6  5 23                  1.9106756     109.4736453
  65 BEND      6  5 22                  1.9106756     109.4736453
  66 BEND      6  7 26                  1.9106703     109.4733437
  67 BEND      6  7  8                  1.9106522     109.4723074
  68 BEND      6  7 27                  1.9106703     109.4733437
  69 BEND      7  8  9                  1.9106901     109.4744770
  70 BEND      7  8 28                  1.9106861     109.4742483
  71 BEND      7  8 29                  1.9106861     109.4742483
  72 BEND      7  6 24                  1.9106703     109.4733437
  73 BEND      7  6 25                  1.9106703     109.4733437
  74 BEND      8  9 10                  1.9106366     109.4714140
  75 BEND      8  9 31                  1.9106514     109.4722589
  76 BEND      8  7 26                  1.9105693     109.4675563
  77 BEND      8  7 27                  1.9105693     109.4675563
  78 BEND      8  9 30                  1.9106514     109.4722589
  79 BEND      9 10 33                  1.9106756     109.4736453
  80 BEND      9 10 11                  1.9106366     109.4714140
  81 BEND      9 10 32                  1.9106756     109.4736453
  82 BEND      9  8 28                  1.9106096     109.4698690
  83 BEND      9  8 29                  1.9106096     109.4698690
  84 BEND     10 11 12                  1.9106901     109.4744770
  85 BEND     10  9 30                  1.9105960     109.4690878
  86 BEND     10  9 31                  1.9105960     109.4690878
  87 BEND     10 11 35                  1.9105720     109.4677120
  88 BEND     10 11 34                  1.9105720     109.4677120
  89 BEND     11 10 33                  1.9105720     109.4677120
  90 BEND     11 10 32                  1.9105720     109.4677120
  91 BEND     11 12 36                  1.9106065     109.4696909
  92 BEND     11 12 37                  1.9106065     109.4696909
  93 BEND     11 12 38                  1.9106506     109.4722133
  94 BEND     12 11 34                  1.9106488     109.4721139
  95 BEND     12 11 35                  1.9106488     109.4721139
  96 BEND     13  1 15                  1.9106706     109.4733596
  97 BEND     13  1 14                  1.9106706     109.4733596
  98 BEND     14  1 15                  1.9106681     109.4732161
  99 BEND     16  2 17                  1.9106677     109.4731950
 100 BEND     18  3 19                  1.9106677     109.4731950
 101 BEND     20  4 21                  1.9106681     109.4732161
 102 BEND     22  5 23                  1.9106677     109.4731950
 103 BEND     24  6 25                  1.9106681     109.4732161
 104 BEND     26  7 27                  1.9106681     109.4732161
 105 BEND     28  8 29                  1.9105179     109.4646116
 106 BEND     30  9 31                  1.9106681     109.4732161
 107 BEND     32 10 33                  1.9106677     109.4731950
 108 BEND     34 11 35                  1.9106677     109.4731950
 109 BEND     36 12 37                  1.9105183     109.4646328
 110 BEND     36 12 38                  1.9107088     109.4755477
 111 BEND     37 12 38                  1.9107088     109.4755477
 112 TORSION   1  2  3 19               1.0471812      59.9990606
 113 TORSION   1  2  3 18              -1.0471812     -59.9990606
 114 TORSION   1  2  3  4               3.1415927     180.0000000
 115 TORSION   2  3  4  5               3.1415927     180.0000000
 116 TORSION   2  3  4 20              -1.0471797     -59.9989783
 117 TORSION   2  3  4 21               1.0471797      59.9989783
 118 TORSION   2  1 13 39               3.1415927     180.0000000
 119 TORSION   3  2  1 13               3.1415927     180.0000000
 120 TORSION   3  4  5 22              -1.0471812     -59.9990606
 121 TORSION   3  4  5  6               3.1415927     180.0000000
 122 TORSION   3  4  5 23               1.0471812      59.9990606
 123 TORSION   3  2  1 15               1.0471961      59.9999160
 124 TORSION   3  2  1 14              -1.0471961     -59.9999160
 125 TORSION   4  5  6 24              -1.0471961     -59.9999160
 126 TORSION   4  5  6 25               1.0471961      59.9999160
 127 TORSION   4  3  2 16               1.0471812      59.9990606
 128 TORSION   4  3  2 17              -1.0471812     -59.9990606
 129 TORSION   4  5  6  7               3.1415927     180.0000000
 130 TORSION   5  6  7 26              -1.0472416     -60.0025223
 131 TORSION   5  6  7 27               1.0472416      60.0025223
 132 TORSION   5  6  7  8               3.1415927     180.0000000
 133 TORSION   5  4  3 19              -1.0472282     -60.0017561
 134 TORSION   5  4  3 18               1.0472282      60.0017561
 135 TORSION   6  5  4 20               1.0472300      60.0018579
 136 TORSION   6  5  4 21              -1.0472300     -60.0018579
 137 TORSION   6  7  8  9               3.1415927     180.0000000
 138 TORSION   6  7  8 28              -1.0471593     -59.9978069
 139 TORSION   6  7  8 29               1.0471593      59.9978069
 140 TORSION   7  8  9 10               3.1415927     180.0000000
 141 TORSION   7  8  9 30              -1.0472300     -60.0018579
 142 TORSION   7  8  9 31               1.0472300      60.0018579
 143 TORSION   7  6  5 22               1.0472446      60.0026940
 144 TORSION   7  6  5 23              -1.0472446     -60.0026940
 145 TORSION   8  7  6 24               1.0472416      60.0025223
 146 TORSION   8  7  6 25              -1.0472416     -60.0025223
 147 TORSION   8  9 10 33               1.0472446      60.0026940
 148 TORSION   8  9 10 11               3.1415927     180.0000000
 149 TORSION   8  9 10 32              -1.0472446     -60.0026940
 150 TORSION   9  8  7 26               1.0471797      59.9989783
 151 TORSION   9  8  7 27              -1.0471797     -59.9989783
 152 TORSION   9 10 11 34              -1.0471812     -59.9990606
 153 TORSION   9 10 11 35               1.0471812      59.9990606
 154 TORSION   9 10 11 12               3.1415927     180.0000000
 155 TORSION  10 11 12 36              -1.0471108     -59.9950293
 156 TORSION  10 11 12 37               1.0471108      59.9950293
 157 TORSION  10 11 12 38               3.1415927     180.0000000
 158 TORSION  10  9  8 28               1.0471125      59.9951254
 159 TORSION  10  9  8 29              -1.0471125     -59.9951254
 160 TORSION  11 10  9 30               1.0471961      59.9999160
 161 TORSION  11 10  9 31              -1.0471961     -59.9999160
 162 TORSION  12 11 10 33              -1.0471812     -59.9990606
 163 TORSION  12 11 10 32               1.0471812      59.9990606
 164 TORSION  13  1  2 16              -1.0472446     -60.0026940
 165 TORSION  13  1  2 17               1.0472446      60.0026940
 166 TORSION  14  1  2 16               1.0471520      59.9973900
 167 TORSION  14  1  2 17              -3.1415442    -179.9972219
 168 TORSION  14  1 13 39               1.0472417      60.0025321
 169 TORSION  15  1  2 16               3.1415442     179.9972219
 170 TORSION  15  1 13 39              -1.0472417     -60.0025321
 171 TORSION  15  1  2 17              -1.0471520     -59.9973900
 172 TORSION  16  2  3 18               3.1415927     180.0000000
 173 TORSION  16  2  3 19              -1.0472303     -60.0018787
 174 TORSION  17  2  3 18               1.0472303      60.0018787
 175 TORSION  17  2  3 19               3.1415927     180.0000000
 176 TORSION  18  3  4 20              -3.1415442    -179.9972222
 177 TORSION  18  3  4 21              -1.0471847     -59.9992656
 178 TORSION  19  3  4 20               1.0471847      59.9992656
 179 TORSION  19  3  4 21               3.1415442     179.9972222
 180 TORSION  20  4  5 23              -1.0471815     -59.9990815
 181 TORSION  20  4  5 22              -3.1415438    -179.9972028
 182 TORSION  21  4  5 23               3.1415438     179.9972028
 183 TORSION  21  4  5 22               1.0471815      59.9990815
 184 TORSION  22  5  6 25              -1.0471520     -59.9973900
 185 TORSION  22  5  6 24              -3.1415442    -179.9972219
 186 TORSION  23  5  6 25               3.1415442     179.9972219
 187 TORSION  23  5  6 24               1.0471520      59.9973900
 188 TORSION  24  6  7 27              -1.0471095     -59.9949555
 189 TORSION  24  6  7 26               3.1415927     180.0000000
 190 TORSION  25  6  7 27               3.1415927     180.0000000
[...]
1081  12 -15.522111  -2.529859  -1.737497   0.000122   0.047668   0.002552
1082  11 -14.947469  -2.955177  -1.686645   0.000129   0.047668   0.002708
1083  12 -15.537431  -2.550580   1.688343   0.000109   0.047644   0.002293
1084  11 -14.932708  -2.931920   1.739156   0.000119   0.047644   0.002494
1085  12 -13.714926   0.114916   3.672643   0.000217   0.085284   0.002547
1086  11 -13.067461  -0.203959   3.672516   0.000194   0.085284   0.002274
1087  12 -13.656497   0.196745  -3.672588   0.000185   0.085168   0.002166
1088  11 -13.124502  -0.290949  -3.672666   0.000151   0.085168   0.001769
1089  11 -10.447040  -4.072272  -1.212458   0.000197   0.090018   0.002186
1090  30  -9.483199  -3.988710  -1.492566   0.000232   0.090018   0.002580
1091  34 -10.561732  -4.070083  -1.497591   0.000022   0.090018   0.000244
1092  11 -10.447226  -4.071505   1.215521   0.000220   0.090019   0.002445
1093  31  -9.483359  -3.987793   1.495589   0.000253   0.090019   0.002806
1094  35 -10.561961  -4.069121   1.500633  -0.000069   0.090019  -0.000761
1095  11 -12.207745   0.836930   3.457029   0.000123   0.167964   0.000733
1096  32 -11.662653   1.356753   3.488335   0.000002   0.167964   0.000014
1097  36 -12.755460   1.367065   3.489344  -0.000091   0.167964  -0.000542
1098  32 -10.953531   1.186273   3.731843  -0.000152   0.146340  -0.001036
1099  11 -11.621559   0.284465   3.671912   0.000418   0.206324   0.002027
1100  11 -12.207103   0.834404  -3.457499   0.000123   0.167963   0.000733
1101  33 -11.662027   1.354230  -3.489080  -0.000047   0.167963  -0.000282
1102  37 -12.754810   1.364508  -3.490309  -0.000042   0.167963  -0.000253
1103  33 -10.847122   1.080538  -3.750606  -0.000114   0.146254  -0.000777
1104  11 -11.717487   0.375940  -3.655202   0.000402   0.206203   0.001950
1105  34 -11.258231  -4.353777  -1.443255   0.000025   0.067711   0.000374
1106  34 -12.333068  -4.485910  -1.332835  -0.000038   0.149468  -0.000257
1107  34 -13.562926  -4.100980  -1.607376  -0.000186   0.149468  -0.001248
1108  34 -14.245954  -3.418658  -2.110202  -0.000064   0.067711  -0.000950
1109  11 -11.597503  -4.428555  -0.962967   0.000261   0.149279   0.001748
1110  11 -13.076207  -4.364266  -0.995058   0.000199   0.149279   0.001331
1111  11 -14.221653  -3.607230  -1.548754  -0.000020   0.149279  -0.000136
1112  34 -12.652863  -1.111738  -3.852426  -0.000064   0.071354  -0.000896
1113  34 -11.762997  -1.124754  -3.852310  -0.000070   0.071354  -0.000984
1114  11 -12.202194  -0.724980  -3.725791  -0.000176   0.155668  -0.001130
1115  35 -11.763478  -1.122290   3.853295  -0.000061   0.071378  -0.000857
1116  35 -12.653641  -1.109283   3.853255  -0.000068   0.071378  -0.000950
1117  11 -12.202809  -0.722627   3.726429  -0.000160   0.155709  -0.001025
1118  35 -14.246323  -3.417175   2.112411  -0.000044   0.067713  -0.000644
1119  35 -13.563250  -4.099872   1.610097  -0.000132   0.149472  -0.000886
1120  35 -12.333341  -4.485031   1.335959  -0.000036   0.149472  -0.000244
1121  35 -11.258491  -4.352846   1.446442  -0.000038   0.067713  -0.000556
1122  11 -14.221957  -3.606122   1.551087  -0.000083   0.149281  -0.000558
1123  11 -13.076449  -4.363582   0.998011   0.000223   0.149281   0.001492
1124  11 -11.597709  -4.427932   0.966159   0.000224   0.149281   0.001502
1125  36 -13.549611   1.124326   3.753453  -0.000168   0.137692  -0.001221
1126  11 -12.680243   0.400204   3.655380   0.000358   0.194029   0.001846
1127  37 -13.450318   1.217073  -3.736449  -0.000199   0.137738  -0.001441
1128  11 -12.769532   0.310356  -3.671962   0.000360   0.194093   0.001854
1129  38 -16.144095  -2.684839  -0.985236  -0.000189   0.198792  -0.000953
1130  38 -16.152524  -2.756136   0.438443  -0.000998   0.406545  -0.002455
1131  11 -15.137898  -3.227960  -0.502672   0.000907   0.544814   0.001664
1132  11 -15.130440  -3.161900   1.117094   0.000691   0.279941   0.002470
1133  12 -12.816349   3.912374   1.307851   0.000089   0.088309   0.001010
1134  32 -11.859952   3.808356   1.575382   0.000214   0.088309   0.002425
1135  36 -12.944442   3.906105   1.586274  -0.000011   0.088309  -0.000128
1136  32 -11.280753   4.047558   1.545237   0.000042   0.033363   0.001250
1137  12 -12.700745   4.100110   1.153786   0.000204   0.047393   0.004308
1138  12 -12.816201   3.911464  -1.310660   0.000120   0.088309   0.001359
1139  33 -11.859764   3.807277  -1.577937   0.000234   0.088309   0.002645
1140  37 -12.944231   3.904983  -1.589110  -0.000092   0.088309  -0.001038
1141  33 -11.287790   4.042361  -1.571847   0.000074   0.033425   0.002225
1142  12 -12.693870   4.103205  -1.134169   0.000231   0.047481   0.004858
1143  34 -14.406992  -2.842880  -2.565122  -0.000166   0.217151  -0.000762
1144  34 -13.718181  -1.761823  -3.454606  -0.001155   0.447226  -0.002583
1145  12 -15.046379  -1.781644  -2.743050   0.000965   0.592260   0.001629
1146  12 -14.144564  -0.531412  -3.620556   0.000785   0.305900   0.002566
1147  35 -13.372411  -1.327351   3.708597  -0.000150   0.217127  -0.000690
1148  35 -14.176443  -2.428804   2.950907  -0.001149   0.447170  -0.002569
1149  12 -14.520645  -1.010129   3.324424   0.001004   0.592196   0.001696
1150  12 -15.316987  -2.242664   2.328263   0.000755   0.305865   0.002469
1151  36 -13.635490   4.204067   1.531165  -0.000044   0.067590  -0.000657
1152  36 -14.701578   4.360679   1.374754  -0.000126   0.149269  -0.000843
1153  36 -15.950284   3.998303   1.589756  -0.000218   0.149269  -0.001463
1154  36 -16.702529   3.110178   2.207954  -0.000255   0.149269  -0.001709
1155  36 -16.661432   2.046812   2.985369  -0.000156   0.149269  -0.001043
1156  36 -15.843212   1.227876   3.615185  -0.000178   0.149269  -0.001196
1157  36 -14.570789   0.976572   3.848838  -0.000325   0.149269  -0.002180
1158  12 -13.951484   4.292409   1.038205   0.000163   0.148933   0.001097
1159  12 -15.431456   4.259278   1.003858   0.000114   0.148933   0.000764
1160  12 -16.615496   3.519308   1.496895  -0.000014   0.148933  -0.000092
1161  12 -17.036310   2.364535   2.322733   0.000045   0.148933   0.000303
1162  12 -16.527819   1.250704   3.155446   0.000123   0.148933   0.000828
1163  12 -15.290704   0.617401   3.666395  -0.000092   0.148933  -0.000615
1164  12 -14.092202   0.574972   3.744738   0.000029   0.082576   0.000347
1165  37 -14.147242   0.988094  -3.855919  -0.000074   0.067588  -0.001090
1166  37 -15.233849   1.015989  -3.792869  -0.000213   0.149265  -0.001426
1167  37 -16.334915   1.580018  -3.338734  -0.000175   0.149265  -0.001172
1168  37 -16.787568   2.571890  -2.598458  -0.000178   0.149265  -0.001190
1169  37 -16.413174   3.600180  -1.864180  -0.000234   0.149265  -0.001567
1170  37 -15.359483   4.259088  -1.425671  -0.000127   0.149265  -0.000848
1171  37 -14.042317   4.288586  -1.455983  -0.000239   0.149265  -0.001599
1172  12 -14.544509   0.567044  -3.731200  -0.000130   0.148931  -0.000872
1173  12 -15.974162   0.849673  -3.469112   0.000089   0.148931   0.000594
1174  12 -16.893555   1.770358  -2.762334   0.000091   0.148931   0.000609
1175  12 -16.939864   2.965762  -1.889786   0.000002   0.148931   0.000012
1176  12 -16.094813   3.964139  -1.195805   0.000059   0.148931   0.000394
1177  12 -14.691889   4.371494  -0.954260   0.000150   0.148931   0.001008
1178  12 -13.512329   4.210146  -1.118172   0.000166   0.082574   0.002012
1179  38 -16.411512  -2.306236   1.540631  -0.000084   0.069513  -0.001212
1180  38 -16.979012  -1.475401   2.031171  -0.000273   0.154497  -0.001765
1181  38 -17.739216  -0.362649   1.911120  -0.000146   0.154497  -0.000945
1182  38 -18.298977   0.456480   0.991209  -0.000277   0.154497  -0.001792
1183  38 -18.424008   0.639141  -0.343535  -0.000295   0.154497  -0.001908
1184  38 -18.061978   0.108883  -1.534460  -0.000174   0.154497  -0.001129
1185  38 -17.364413  -0.912357  -2.083106  -0.000207   0.154497  -0.001340
1186  38 -16.623277  -1.997141  -1.759840  -0.000317   0.154497  -0.002054
1187  12 -16.268227  -1.921619   1.977907  -0.000116   0.152227  -0.000760
1188  12 -17.100822  -0.702773   2.339992   0.000132   0.152227   0.000869
1189  12 -17.884325   0.443950   1.722693   0.000102   0.152227   0.000672
1190  12 -18.290803   1.038591   0.384379  -0.000082   0.152227  -0.000538
1191  12 -18.150125   0.832266  -1.114803  -0.000070   0.152227  -0.000462
1192  12 -17.521172  -0.088670  -2.147375   0.000105   0.152227   0.000689
1193  12 -16.667191  -1.338761  -2.281155  -0.000021   0.152227  -0.000135
1194  12 -16.037157  -2.260860  -1.752888   0.000018   0.084925   0.000213
1195  16  11.591551   2.293887   3.288246   0.000015   0.279355   0.000053
1196  16  11.553611   3.377632   2.358763   0.000261   0.563800   0.000463
1197  13  12.982358   2.480974   2.649069   0.009479   0.687561   0.013787
1198  13  12.876427   3.564863   1.536161   0.004607   0.346954   0.013277
1199  17  11.495761   3.729758  -1.929968   0.000463   0.279211   0.001657
1200  17  11.597886   2.744080  -2.957463  -0.000124   0.563500  -0.000221
1201  13  12.936226   3.182039  -1.984759   0.009912   0.687218   0.014423
1202  13  12.983077   2.008977  -3.006422   0.004289   0.346778   0.012368
1203  39  15.838392  -0.901686  -2.353186  -0.000490   0.083810  -0.005842
1204  39  16.530036   0.106334  -2.117603  -0.001608   0.182252  -0.008823
1205  39  17.161859   1.026941  -1.103128  -0.001994   0.182252  -0.010942
1206  39  17.303183   1.232497   0.384706  -0.002026   0.182252  -0.011114
1207  39  16.893405   0.634854   1.707878  -0.001733   0.182252  -0.009510
1208  39  16.108248  -0.509702   2.298975  -0.001579   0.182252  -0.008664
1209  13  15.775258  -0.261415  -2.485288  -0.000456   0.179247  -0.002544
1210  13  16.624345   0.975967  -1.843804  -0.000682   0.179247  -0.003807
1211  13  17.066947   1.620659  -0.411311  -0.001236   0.179247  -0.006895
1212  13  16.913266   1.396202   1.197901  -0.001041   0.179247  -0.005806
1213  13  16.229203   0.398848   2.293760  -0.000578   0.179247  -0.003227
1214  13  15.490924  -0.677289   2.555042  -0.000277   0.095960  -0.002885
1215  19   8.733941  -4.158216   1.983330   0.000091   0.252171   0.000361
1216  19   8.735602  -3.620281   2.985022  -0.000671   0.504240  -0.001330
1217  19   8.743253  -2.416172   3.671206  -0.000633   0.504240  -0.001256
1218  14  10.264747  -3.991158   2.383981  -0.000968   0.504240  -0.001919
1219  14  10.269111  -3.089904   3.436838  -0.001160   0.504240  -0.002301
1220  14  10.276712  -2.004665   3.775895  -0.000224   0.252171  -0.000887
1221  39  15.487355  -1.839390   2.165765  -0.000472   0.110186  -0.004286
1222  14  14.362544  -2.461622   2.648722  -0.000021   0.110186  -0.000194
1223  18   8.746524  -1.990380  -3.774026  -0.000022   0.252082  -0.000087
1224  18   8.739164  -3.075364  -3.435932  -0.000735   0.504060  -0.001458
1225  18   8.735002  -3.977269  -2.384440  -0.000393   0.504060  -0.000780
1226  15  10.274272  -2.425274  -3.677441  -0.001003   0.504060  -0.001990
1227  15  10.266890  -3.629428  -2.992574  -0.001210   0.504060  -0.002400
1228  15  10.265349  -4.168208  -1.991941  -0.000188   0.252082  -0.000747
1229  39  15.497453  -1.892800  -2.125176  -0.000694   0.109469  -0.006342
1230  15  14.354966  -2.403111  -2.690774   0.000013   0.109469   0.000115
1231  20   6.368435   1.947295   3.762140   0.000136   0.252691   0.000536
1232  20   6.375819   3.018967   3.418070  -0.000296   0.505228  -0.000585
1233  20   6.382654   3.906848   2.371376   0.000092   0.505228   0.000182
1234  16   7.925820   2.355206   3.660352  -0.000305   0.505228  -0.000604
1235  16   7.934295   3.543263   2.973041  -0.000363   0.505228  -0.000718
1236  16   7.938718   4.072671   1.979750   0.000350   0.252691   0.001387
1237  21   6.383964   4.083803  -1.976963   0.000317   0.252706   0.001254
1238  21   6.379873   3.555082  -2.970550  -0.000240   0.505258  -0.000475
1239  21   6.371771   2.367549  -3.658621  -0.000185   0.505258  -0.000366
1240  17   7.937322   3.898037  -2.371243  -0.000029   0.505258  -0.000058
1241  17   7.930894   3.010900  -3.418472  -0.000435   0.505258  -0.000861
1242  17   7.923780   1.939519  -3.763245   0.000080   0.252706   0.000315
1243  22   3.949151  -1.989177  -3.770414   0.000152   0.255740   0.000595
1244  22   3.951221  -3.088480  -3.418214  -0.000323   0.511405  -0.000631
1245  22   3.953049  -3.985391  -2.335672   0.000103   0.511405   0.000202
1246  18   5.475884  -2.415992  -3.665585  -0.000358   0.511405  -0.000701
1247  18   5.478226  -3.629926  -2.956565  -0.000326   0.511405  -0.000638
1248  18   5.479367  -4.156130  -1.929130   0.000350   0.255740   0.001368
1249  23   3.953468  -4.159402   1.926554   0.000364   0.255787   0.001422
1250  23   3.952700  -3.633548   2.954464  -0.000209   0.511498  -0.000409
1251  23   3.950735  -2.419587   3.664035  -0.000239   0.511498  -0.000467
1252  19   5.479032  -3.983453   2.333366  -0.000005   0.511498  -0.000010
1253  19   5.477645  -3.086791   3.416506  -0.000443   0.511498  -0.000866
1254  19   5.475832  -1.987336   3.769094   0.000094   0.255787   0.000369
1255  24   1.511680   1.931210   3.763668   0.000187   0.254916   0.000732
1256  24   1.503305   3.015970   3.411762  -0.000237   0.509709  -0.000465
1257  24   1.496514   3.904444   2.343167   0.000223   0.509709   0.000438
1258  20   3.052600   2.366894   3.658193  -0.000131   0.509709  -0.000257
1259  20   3.043371   3.565815   2.955462  -0.000176   0.509709  -0.000346
1260  20   3.039401   4.089572   1.942409   0.000411   0.254916   0.001614
1261  25   1.494668   4.077688  -1.942132   0.000392   0.254943   0.001539
1262  25   1.498685   3.554117  -2.955374  -0.000131   0.509764  -0.000257
1263  25   1.508062   2.355235  -3.658356  -0.000090   0.509764  -0.000176
1264  21   3.040235   3.916780  -2.343264   0.000191   0.509764   0.000375
1265  21   3.047122   3.028461  -3.412110  -0.000283   0.509764  -0.000555
1266  21   3.055637   1.943676  -3.764204   0.000167   0.254943   0.000656
1267  26  -0.867871  -2.035218  -3.766305   0.000190   0.255478   0.000744
1268  26  -0.856015  -3.126975  -3.413494  -0.000232   0.510855  -0.000454
1269  26  -0.846252  -4.018778  -2.337208   0.000238   0.510855   0.000465
1270  22   0.672723  -2.445166  -3.660813  -0.000106   0.510855  -0.000207
1271  22   0.685850  -3.651035  -2.954054  -0.000137   0.510855  -0.000267
1272  22   0.691626  -4.175147  -1.933357   0.000390   0.255478   0.001527
1273  27  -0.844165  -4.191413   1.934185   0.000449   0.255449   0.001759
1274  27  -0.849545  -3.667092   2.954625  -0.000119   0.510796  -0.000233
1275  27  -0.862305  -2.461220   3.661076  -0.000088   0.510796  -0.000173
1276  23   0.690068  -4.001861   2.337730   0.000200   0.510796   0.000392
1277  23   0.680760  -3.109901   3.413688  -0.000249   0.510796  -0.000487
1278  23   0.669141  -2.018213   3.766280   0.000180   0.255449   0.000705
1279  28  -3.317429   1.879462   3.766938   0.000191   0.255528   0.000746
1280  28  -3.328174   2.972841   3.414140  -0.000228   0.510960  -0.000447
1281  28  -3.336892   3.865662   2.336386   0.000225   0.510960   0.000441
1282  24  -1.787952   2.321801   3.661474  -0.000093   0.510960  -0.000182
1283  24  -1.799797   3.529370   2.954087  -0.000122   0.510960  -0.000239
1284  24  -1.804891   4.053846   1.931855   0.000444   0.255528   0.001739
1285  29  -3.338967   4.038168  -1.932243   0.000401   0.255561   0.001571
1286  29  -3.333822   3.513466  -2.954561  -0.000114   0.511027  -0.000223
1287  29  -3.321840   2.305557  -3.661776  -0.000087   0.511027  -0.000170
1288  25  -1.803674   3.880297  -2.337053   0.000232   0.511027   0.000453
1289  25  -1.794861   2.987156  -3.414811  -0.000237   0.511027  -0.000465
1290  25  -1.783988   1.893514  -3.767376   0.000188   0.255561   0.000737
1291  30  -5.711849  -2.079135  -3.762709   0.000198   0.255088   0.000777
1292  30  -5.705662  -3.163562  -3.409738  -0.000210   0.510051  -0.000412
1293  30  -5.700567  -4.050832  -2.340153   0.000272   0.510051   0.000533
1294  26  -4.163970  -2.493963  -3.656755  -0.000062   0.510051  -0.000121
1295  26  -4.157120  -3.692157  -2.952789  -0.000101   0.510051  -0.000199
1296  26  -4.154103  -4.214721  -1.939119   0.000403   0.255088   0.001579
1297  31  -5.699583  -4.222604   1.941707   0.000452   0.255059   0.001772
1298  31  -5.702376  -3.699593   2.954956  -0.000101   0.509992  -0.000199
1299  31  -5.708999  -2.501259   3.658302  -0.000063   0.509992  -0.000123
1300  27  -4.154944  -4.041068   2.342441   0.000253   0.509992   0.000495
1301  27  -4.159775  -3.153403   3.411446  -0.000208   0.509992  -0.000407
1302  27  -4.165807  -2.068994   3.763927   0.000199   0.255059   0.000780
1303  32  -8.128321   1.861575   3.768368   0.000183   0.255812   0.000716
1304  32  -8.127644   2.959032   3.415192  -0.000243   0.511541  -0.000475
1305  32  -8.127067   3.853929   2.333191   0.000238   0.511541   0.000465
1306  28  -6.599110   2.289540   3.662876  -0.000099   0.511541  -0.000194
1307  28  -6.598353   3.501210   2.953355  -0.000120   0.511541  -0.000235
1308  28  -6.598003   4.026047   1.926859   0.000405   0.255812   0.001584
1309  33  -8.126945   4.025862  -1.928720   0.000444   0.255804   0.001735
1310  33  -8.127154   3.500382  -2.954915  -0.000124   0.511526  -0.000242
1311  33  -8.127755   2.288246  -3.663702  -0.000104   0.511526  -0.000203
1312  29  -6.598163   3.851739  -2.334891   0.000218   0.511526   0.000427
1313  29  -6.598567   2.956155  -3.416363  -0.000240   0.511526  -0.000468
1314  29  -6.599132   1.858454  -3.768868   0.000186   0.255804   0.000728
1315  34 -10.567529  -2.066628  -3.761506   0.000177   0.254835   0.000695
1316  34 -10.575474  -3.149190  -3.408698  -0.000210   0.509541  -0.000412
1317  34 -10.581809  -4.035599  -2.341124   0.000233   0.509541   0.000458
1318  30  -9.023812  -2.500955  -3.655805  -0.000080   0.509541  -0.000156
1319  30  -9.032523  -3.697300  -2.952840  -0.000121   0.509541  -0.000237
1320  30  -9.036173  -4.219809  -1.941185   0.000393   0.254835   0.001540
1321  35 -10.583267  -4.207100   1.943947   0.000425   0.254820   0.001667
1322  35 -10.579631  -3.683964   2.955150  -0.000143   0.509512  -0.000281
1323  35 -10.570893  -2.487297   3.657305  -0.000112   0.509512  -0.000220
1324  31  -9.035156  -4.045636   2.344473   0.000235   0.509512   0.000461
1325  31  -9.028823  -3.158616   3.411369  -0.000185   0.509512  -0.000363
1326  31  -9.020843  -2.075951   3.763491   0.000190   0.254820   0.000744
1327  36 -12.985464   1.901166   3.765958   0.000087   0.249833   0.000350
1328  36 -12.976237   2.962270   3.432889  -0.000358   0.499497  -0.000717
1329  36 -12.970084   3.853962   2.409795   0.000053   0.499497   0.000105
1330  32 -11.424205   2.300069   3.662994  -0.000100   0.499497  -0.000201
1331  32 -11.414578   3.480960   2.994205  -0.000142   0.499497  -0.000285
1332  32 -11.411624   4.019759   2.021246   0.000343   0.249833   0.001373
1333  37 -12.968927   4.032901  -2.027541   0.000360   0.249832   0.001441
1334  37 -12.971677   3.493382  -3.000117  -0.000280   0.499494  -0.000560
1335  37 -12.981139   2.311985  -3.668045  -0.000262   0.499494  -0.000524
1336  33 -11.412145   3.837675  -2.408943   0.000167   0.499494   0.000334
1337  33 -11.418074   2.945221  -3.431395  -0.000235   0.499494  -0.000470
1338  33 -11.427205   1.883858  -3.763686   0.000168   0.249832   0.000674
 =====================================================


   1 warning(s) detected.
     A line exceeding 80 characters begins with "http://cactus.nci.ni".
 There may be a problem in your input file.

             14459524  WORDS OF DYNAMIC MEMORY USED
 EXECUTION OF GAMESS TERMINATED NORMALLY Tue Nov 22 22:39:24 2016
 DDI: 263640 bytes (0.3 MB / 0 MWords) used by master data server.

 ----------------------------------------
 CPU timing information for all processes
 ========================================
 0: 5020.344 + 1.272 = 5021.616
 ----------------------------------------
 ddikick.x: exited gracefully.
