----- GAMESS execution script -----

          ******************************************************
          *         GAMESS VERSION =  5 DEC 2014 (R1)          *
          *             FROM IOWA STATE UNIVERSITY             *
          * M.W.SCHMIDT, K.K.BALDRIDGE, J.A.BOATZ, S.T.ELBERT, *
          *   M.S.GORDON, J.H.JENSEN, S.KOSEKI, N.MATSUNAGA,   *
          *          K.A.NGUYEN, S.J.SU, T.L.WINDUS,           *
          *       TOGETHER WITH M.DUPUIS, J.A.MONTGOMERY       *
          *         J.COMPUT.CHEM.  14, 1347-1363(1993)        *
          **************** 64 BIT LINUX VERSION ****************

 EXECUTION OF GAMESS BEGUN Tue Nov 22 23:10:33 2016

            ECHO OF THE FIRST FEW INPUT CARDS -
 INPUT CARD>! SELECT RESTRICTED HARTREE-FOCK AS DEFAULT                                     
 INPUT CARD>$contrl scftyp=rhf $end                                                         
 INPUT CARD>                                                                                
 INPUT CARD>! THEORY: HF OR DFT                                                             
 INPUT CARD> $contrl mplevl=0 $end                                                          
 INPUT CARD>                                                                                
 INPUT CARD> $system timlim=10000 mwords=20 $end                                            
 INPUT CARD> $SCF DIRSCF=.TRUE. $end                                                        
 INPUT CARD>                                                                                
 INPUT CARD>                                                                                
 INPUT CARD>! BASIS SETS                                                                    
 INPUT CARD>! 6-311G(d,p)                                                                   
 INPUT CARD> $BASIS GBASIS=N311 NGAUSS=6 NDFUNC=1 NPFUNC=1 $END                             
 INPUT CARD>                                                                                
 INPUT CARD>! One of the following                                                          
 INPUT CARD> $guess guess=HUCKEL $end                                                       
 INPUT CARD>                                                                                
 INPUT CARD> $statpt projct=.FALSE. $end                                                    
 INPUT CARD> $STATPT IFREEZ(1)=1,2,3 $END                                                   
 INPUT CARD>                                                                                
 INPUT CARD>! Optimize the geometry with COSMO effects                                      
 INPUT CARD> $statpt opttol=0.0005 nstep=50 $end                                            
 INPUT CARD> $contrl nzvar=1 $end                                                           
 INPUT CARD> $zmat dlc=.t. auto=.t. $end                                                    
 INPUT CARD> $contrl runtyp=OPTIMIZE maxit=200 $end                                         
 INPUT CARD>                                                                                
 INPUT CARD>! Run COSMO on perfect conductor                                                
 INPUT CARD> $COSGMS PRFCND=.TRUE. $end                                                     
 INPUT CARD>                                                                                
 INPUT CARD>! Specifying RSOLV                                                              
 INPUT CARD> $COSGMS COSRAD = 1.4 $end                                                      
 INPUT CARD>                                                                                
 INPUT CARD>! available memory                                                              
 INPUT CARD> $SYSTEM MWORDS=40 $END                                                         
 INPUT CARD>                                                                                
 INPUT CARD> $DATA                                                                          
 INPUT CARD>1-Heptene, ID: C592767                                                          
 INPUT CARD>C1                                                                              
 INPUT CARD>C      6.0      3.3507000000    0.7358000000    1.4328000000                    
 INPUT CARD>C      6.0      4.5516000000    1.6172000000    1.7350000000                    
 INPUT CARD>C      6.0      5.8050000000    0.7833000000    1.9572000000                    
 INPUT CARD>C      6.0      2.0981000000    1.5657000000    1.2014000000                    
 INPUT CARD>C      6.0      6.9701000000    1.6461000000    2.2935000000                    
 INPUT CARD>C      6.0      0.9023000000    0.6912000000    0.9002000000                    
 INPUT CARD>C      6.0      8.1457000000    1.5501000000    1.6841000000                    
 INPUT CARD>H      1.0      3.1833000000    0.0243000000    2.2665000000                    
 INPUT CARD>H      1.0      3.5558000000    0.1069000000    0.5431000000                    
 INPUT CARD>H      1.0      4.3474000000    2.2423000000    2.6277000000                    
 INPUT CARD>H      1.0      4.7172000000    2.3316000000    0.9042000000                    
 INPUT CARD>H      1.0      6.0112000000    0.1617000000    1.0624000000                    
   40000000 WORDS OF MEMORY AVAILABLE

     BASIS OPTIONS
     -------------
     GBASIS=N311         IGAUSS=       6      POLAR=POPN311 
     NDFUNC=       1     NFFUNC=       0     DIFFSP=       F
     NPFUNC=       1      DIFFS=       F     BASNAM=        


     RUN TITLE
     ---------
 1-Heptene, ID: C592767                                                          

 THE POINT GROUP OF THE MOLECULE IS C1      
 THE ORDER OF THE PRINCIPAL AXIS IS     0

 ATOM      ATOMIC                      COORDINATES (BOHR)
           CHARGE         X                   Y                   Z
 C           6.0     6.3319048671        1.3904603818        2.7075993952
 C           6.0     8.6012768057        3.0560648673        3.2786745887
 C           6.0    10.9698593587        1.4802223662        3.6985717032
 C           6.0     3.9648340948        2.9587439790        2.2703168016
 C           6.0    13.1715791070        3.1106779484        4.3340865528
 C           6.0     1.7050997587        1.3061786027        1.7011313341
 C           6.0    15.3931409782        2.9292642536        3.1824875359
 H           1.0     6.0155647367        0.0459203415        4.2830639512
 H           1.0     6.7194876671        0.2020117081        1.0263101839
 H           1.0     8.2153947590        4.2373325823        4.9656329779
 H           1.0     8.9142154293        4.4060851130        1.7086902381
 H           1.0    11.3595208574        0.3055686922        2.0076448894
 H           1.0    10.6695818993        0.1277454768        5.2712016702
 H           1.0     4.2824970334        4.3034729918        0.6965529991
 H           1.0     3.5772512948        4.1458698445        3.9517949855
 H           1.0    12.8627978806        4.4945242892        5.8466232334
 H           1.0     0.0000000000        2.4439826199        1.3863029846
 H           1.0     1.2993755892        0.0000000000        3.2620450000
 H           1.0     2.0061331086        0.1564693118        0.0000000000
 H           1.0    15.7727869291        1.5926610625        1.6703288005
 H           1.0    16.9954396432        4.1110988863        3.6777847173

          INTERNUCLEAR DISTANCES (ANGS.)




     $CONTRL OPTIONS
     ---------------
 SCFTYP=RHF          RUNTYP=OPTIMIZE     EXETYP=RUN     
 MPLEVL=       0     CITYP =NONE         CCTYP =NONE         VBTYP =NONE    
 DFTTYP=NONE         TDDFT =NONE    
 MULT  =       1     ICHARG=       0     NZVAR =       1     COORD =UNIQUE  
 PP    =NONE         RELWFN=NONE         LOCAL =NONE         NUMGRD=       F
 ISPHER=      -1     NOSYM =       0     MAXIT =     200     UNITS =ANGS    
 PLTORB=       F     MOLPLT=       F     AIMPAC=       F     FRIEND=        
 NPRINT=       7     IREST =       0     GEOM  =INPUT   
 NORMF =       0     NORMP =       0     ITOL  =      20     ICUT  =       9
 INTTYP=BEST         GRDTYP=BEST         QMTTOL= 1.0E-06

     $SYSTEM OPTIONS
     ---------------
  REPLICATED MEMORY=    40000000 WORDS (ON EVERY NODE).
 DISTRIBUTED MEMDDI=           0 MILLION WORDS IN AGGREGATE,
 MEMDDI DISTRIBUTED OVER   1 PROCESSORS IS           0 WORDS/PROCESSOR.
 TOTAL MEMORY REQUESTED ON EACH PROCESSOR=    40000000 WORDS.
 TIMLIM=       10000.00 MINUTES, OR       6.9 DAYS.
 PARALL= F  BALTYP=  DLB     KDIAG=    0  COREFL= F
 MXSEQ2=     300 MXSEQ3=     150  mem10=         0

     $COSGMS OPTIONS
     ---------------
     EPSI  =   INFTY     NSPA  =      92     COSRAD=    1.40
     DISEX =   10.00     OUTCHG=DBLCAV       COSBUG=       F
     COSWRT=       F     DCOSMO=       F

     SYMMETRY COORDINATES WILL NOT BE USED FOR 
     THE COSMO CALCULATION, EVEN IF SPECIFIED:
         -- SWITCHING TO C1 POINT GROUP --


     DEFINITION OF CAVITY
     ---------------------------
     ATOM         COORDINATES           RADIUS 
     1    6.3319    1.3905    2.7076    2.0000
     2    8.6013    3.0561    3.2787    2.0000
     3   10.9699    1.4802    3.6986    2.0000
     4    3.9648    2.9587    2.2703    2.0000
     5   13.1716    3.1107    4.3341    2.0000
     6    1.7051    1.3062    1.7011    2.0000
     7   15.3931    2.9293    3.1825    2.0000
     8    6.0156    0.0459    4.2831    1.3000
     9    6.7195    0.2020    1.0263    1.3000
    10    8.2154    4.2373    4.9656    1.3000
    11    8.9142    4.4061    1.7087    1.3000
    12   11.3595    0.3056    2.0076    1.3000
    13   10.6696    0.1277    5.2712    1.3000
    14    4.2825    4.3035    0.6966    1.3000
    15    3.5773    4.1459    3.9518    1.3000
    16   12.8628    4.4945    5.8466    1.3000
    17    0.0000    2.4440    1.3863    1.3000
    18    1.2994    0.0000    3.2620    1.3000
    19    2.0061    0.1565    0.0000    1.3000
    20   15.7728    1.5927    1.6703    1.3000
    21   16.9954    4.1111    3.6778    1.3000

          ----------------
          PROPERTIES INPUT
          ----------------

     MOMENTS            FIELD           POTENTIAL          DENSITY
 IEMOM =       1   IEFLD =       0   IEPOT =       0   IEDEN =       0
 WHERE =COMASS     WHERE =NUCLEI     WHERE =NUCLEI     WHERE =NUCLEI  
 OUTPUT=BOTH       OUTPUT=BOTH       OUTPUT=BOTH       OUTPUT=BOTH    
 IEMINT=       0   IEFINT=       0                     IEDINT=       0
                                                       MORB  =       0
          EXTRAPOLATION IN EFFECT
          SOSCF IN EFFECT
 ORBITAL PRINTING OPTION: NPREO=     1   217     2     1

     -------------------------------
     INTEGRAL TRANSFORMATION OPTIONS
     -------------------------------
     NWORD  =            0
     CUTOFF = 1.0E-09     MPTRAN =       0
     DIRTRF =       T     AOINTS =DUP     

          ----------------------
          INTEGRAL INPUT OPTIONS
          ----------------------
 NOPK  =       1 NORDER=       0 SCHWRZ=       T


 -----------------------------------------------
  STATISTICS ON AUTOMATIC COORDINATE GENERATION 
 -----------------------------------------------
  NUMBER OF USER SPECIFIED BONDS                             0
  NUMBER OF BONDS                                           20
  NUMBER OF ANGLES                                          36
  NUMBER OF TORSIONS                                        46
  NUMBER OF EXTRA COORD.                                     0
  NUMBER OF EXTRA COORD. FOR CONSTRAINTS                     0
  NUMBER OF CONSTRAINED COORD.                               0

  TOTAL NUMBER OF PRIMITIVES                               102
 -----------------------------------------------

   --- ENCODED Z MATRIX ---
 COORD  TYPE   I   J   K   L   M   N
    1      1    1   8
    2      1    1   2
    3      1    1   9
    4      1    1   4
    5      1    2  11
    6      1    2  10
    7      1    2   3
    8      1    3  13
    9      1    3  12
   10      1    3   5
   11      1    4  15
   12      1    4  14
   13      1    4   6
   14      1    5  16
   15      1    5   7
   16      1    6  19
   17      1    6  18
   18      1    6  17
   19      1    7  21
   20      1    7  20
   21      2    1   4   6
   22      2    1   2   3
   23      2    1   2  10
   24      2    1   4  14
   25      2    1   4  15
   26      2    1   2  11
   27      2    2   1   9
   28      2    2   3  13
   29      2    2   1   4
   30      2    2   1   8
   31      2    2   3   5
   32      2    2   3  12
   33      2    3   2  10
   34      2    3   5   7
   35      2    3   5  16
   36      2    3   2  11
   37      2    4   6  18
   38      2    4   6  19
   39      2    4   1   8
   40      2    4   6  17
   41      2    4   1   9
   42      2    5   7  21
   43      2    5   3  12
   44      2    5   3  13
   45      2    5   7  20
   46      2    6   4  14
   47      2    6   4  15
   48      2    7   5  16
   49      2    8   1   9
   50      2   10   2  11
   51      2   12   3  13
   52      2   14   4  15
   53      2   17   6  18
   54      2   17   6  19
   55      2   18   6  19
   56      2   20   7  21
   57      3    1   2   3  13
   58      3    1   4   6  17
   59      3    1   2   3   5
   60      3    1   2   3  12
   61      3    1   4   6  18
   62      3    1   4   6  19
   63      3    2   3   5   7
   64      3    2   3   5  16
   65      3    2   1   4  15
   66      3    2   1   4  14
   67      3    2   1   4   6
   68      3    3   2   1   8
   69      3    3   5   7  20
   70      3    3   5   7  21
   71      3    3   2   1   4
   72      3    3   2   1   9
   73      3    4   1   2  10
   74      3    4   1   2  11
   75      3    5   3   2  10
   76      3    5   3   2  11
   77      3    6   4   1   9
   78      3    6   4   1   8
   79      3    7   5   3  12
   80      3    7   5   3  13
   81      3    8   1   2  10
   82      3    8   1   2  11
   83      3    8   1   4  15
   84      3    8   1   4  14
   85      3    9   1   2  10
   86      3    9   1   2  11
   87      3    9   1   4  15
   88      3    9   1   4  14
   89      3   10   2   3  13
   90      3   10   2   3  12
   91      3   11   2   3  13
   92      3   11   2   3  12
   93      3   12   3   5  16
   94      3   13   3   5  16
   95      3   14   4   6  17
   96      3   14   4   6  19
   97      3   14   4   6  18
   98      3   15   4   6  18
   99      3   15   4   6  17
  100      3   15   4   6  19
  101      3   16   5   7  20
  102      3   16   5   7  21

          INDEP./SYM. INTERNAL COORDINATES
          --------------------------------
 CRD  1=  -0.2777 ( 21) -0.4773 ( 22)  0.1635 ( 23)  0.1002 ( 24)  0.1315 ( 26)
          -0.1487 ( 27) -0.1244 ( 28)  0.4298 ( 29) -0.1236 ( 30)  0.3754 ( 31)
          -0.1098 ( 32)  0.1386 ( 33) -0.1740 ( 34)  0.1016 ( 35)  0.1555 ( 36)
          -0.1334 ( 39) -0.1245 ( 41) -0.1319 ( 43)
 CRD  2=  -0.1141 (  2) -0.1422 (  7) -0.1302 ( 10)  0.1148 ( 23) -0.1029 ( 26)
          -0.2023 ( 29)  0.1434 ( 30) -0.4336 ( 34)  0.2321 ( 35)  0.1117 ( 39)
           0.1211 ( 42)  0.1160 ( 44) -0.1415 ( 45)  0.2020 ( 48) -0.1567 ( 57)
          -0.3219 ( 59) -0.1398 ( 60)  0.1883 ( 63)  0.1143 ( 64) -0.1183 ( 65)
          -0.1389 ( 66) -0.2187 ( 67)  0.1033 ( 68)  0.2074 ( 71) -0.1583 ( 75)
          -0.1494 ( 76)
 CRD  3=  -0.3089 (  2) -0.2222 (  4) -0.2239 (  7) -0.1898 ( 10) -0.1844 ( 13)
          -0.1210 ( 15) -0.4554 ( 21) -0.1278 ( 22)  0.1229 ( 24)  0.1380 ( 25)
           0.1246 ( 28) -0.4393 ( 31) -0.1240 ( 35) -0.1124 ( 37)  0.1963 ( 43)
           0.1267 ( 44)  0.1715 ( 46)  0.1342 ( 47)
 CRD  4=  -0.1979 (  2) -0.2037 (  4) -0.2195 (  7) -0.1230 ( 10) -0.1125 ( 15)
           0.2074 ( 21) -0.2906 ( 22) -0.1351 ( 25)  0.1022 ( 26)  0.1451 ( 27)
          -0.1467 ( 28) -0.4044 ( 29)  0.1881 ( 31) -0.1417 ( 34)  0.1876 ( 36)
          -0.1001 ( 40)  0.2096 ( 41)  0.1490 ( 59) -0.1440 ( 63)  0.1098 ( 65)
           0.1536 ( 67) -0.2024 ( 71) -0.1095 ( 72)
 CRD  5=  -0.2026 ( 21)  0.2275 ( 22)  0.1943 ( 24) -0.1951 ( 26) -0.1391 ( 28)
           0.1400 ( 30)  0.2265 ( 32) -0.2505 ( 33) -0.1306 ( 34)  0.1111 ( 36)
          -0.1940 ( 39)  0.1304 ( 41) -0.1088 ( 43)  0.1304 ( 47) -0.1032 ( 57)
          -0.1008 ( 58) -0.1344 ( 61) -0.1065 ( 62) -0.2250 ( 63) -0.2246 ( 64)
          -0.1724 ( 68) -0.1029 ( 69) -0.3122 ( 71) -0.2019 ( 72) -0.1788 ( 73)
          -0.1522 ( 74) -0.1034 (101)
 CRD  6=   0.2135 (  4) -0.1187 (  7) -0.2430 ( 10)  0.2310 ( 13) -0.1956 ( 15)
           0.3123 ( 21) -0.1168 ( 22)  0.1040 ( 23) -0.1073 ( 25)  0.1145 ( 26)
          -0.1292 ( 27)  0.1100 ( 28)  0.3233 ( 29) -0.1746 ( 30) -0.3645 ( 31)
           0.1489 ( 32) -0.1931 ( 34)  0.1506 ( 38)  0.1075 ( 44) -0.1164 ( 45)
          -0.1388 ( 47)  0.1596 ( 48) -0.1119 ( 71) -0.1045 ( 74)
 CRD  7=  -0.1180 ( 15) -0.2128 ( 21)  0.3232 ( 22) -0.2057 ( 23)  0.1155 ( 25)
           0.1735 ( 27)  0.1122 ( 31) -0.3767 ( 34)  0.2119 ( 35) -0.1379 ( 36)
          -0.2043 ( 37)  0.1588 ( 42) -0.1147 ( 44) -0.2077 ( 45)  0.1676 ( 46)
           0.1646 ( 48)  0.1348 ( 60)  0.1387 ( 65)  0.1684 ( 66)  0.2655 ( 67)
           0.1049 ( 77)  0.1558 ( 78)
 CRD  8=   0.1290 (  8)  0.2568 ( 10)  0.2740 ( 15)  0.1202 ( 23) -0.3535 ( 37)
           0.3749 ( 38)  0.2225 ( 44)  0.1177 ( 46) -0.1272 ( 47)  0.1312 ( 53)
          -0.1047 ( 54) -0.1243 ( 56) -0.1421 ( 58) -0.2487 ( 59) -0.1465 ( 60)
           0.1117 ( 63)  0.1855 ( 67) -0.1430 ( 70) -0.1698 ( 75) -0.1606 ( 76)
           0.1673 ( 77)  0.1628 ( 78)  0.1074 ( 80)
 CRD  9=  -0.1220 ( 10) -0.2262 ( 24)  0.2432 ( 25) -0.1871 ( 28)  0.2794 ( 32)
           0.1919 ( 39) -0.1581 ( 41) -0.1742 ( 43)  0.1410 ( 44)  0.1307 ( 46)
          -0.1643 ( 47)  0.1159 ( 48)  0.1977 ( 58)  0.2084 ( 61)  0.2061 ( 62)
          -0.3034 ( 63) -0.2892 ( 64) -0.1533 ( 69)  0.1422 ( 71)  0.1721 ( 73)
           0.1944 ( 74) -0.1026 ( 79) -0.1330 ( 80) -0.1187 ( 94) -0.1690 (101)
 CRD 10=  -0.1497 (  2)  0.1881 (  4)  0.2354 (  7) -0.5787 ( 13)  0.1115 ( 21)
           0.1390 ( 24)  0.1071 ( 29) -0.3540 ( 40) -0.2060 ( 46) -0.1673 ( 47)
           0.2122 ( 53)  0.1991 ( 54)  0.1145 ( 55) -0.1195 ( 83)  0.1114 ( 88)
           0.1027 ( 97) -0.1033 (100)
 CRD 11=   0.3502 (  2) -0.3764 (  4) -0.2540 (  7)  0.1798 ( 10) -0.2061 ( 13)
          -0.1128 ( 18)  0.1063 ( 26)  0.1022 ( 27)  0.1261 ( 29) -0.1158 ( 33)
          -0.1105 ( 36)  0.1954 ( 37) -0.1243 ( 39) -0.4002 ( 40) -0.1913 ( 41)
           0.1028 ( 53)  0.1682 ( 54)  0.1183 ( 81) -0.1135 ( 86)
 CRD 12=   0.1422 ( 10)  0.1257 ( 14)  0.4871 ( 15)  0.2034 ( 19) -0.2996 ( 35)
           0.1426 ( 37) -0.1412 ( 38)  0.4527 ( 42) -0.2174 ( 45)  0.3461 ( 48)
          -0.2353 ( 56)
 CRD 13=  -0.3884 (  4)  0.3340 (  7) -0.3373 ( 10)  0.1668 ( 13)  0.1493 ( 28)
          -0.2308 ( 35)  0.3006 ( 38) -0.1230 ( 39) -0.2305 ( 40) -0.1449 ( 44)
           0.2061 ( 48) -0.1817 ( 55)  0.1076 ( 82) -0.1077 ( 85)
 CRD 14=   0.1329 (  1)  0.3576 (  2)  0.1103 (  4) -0.2826 (  7) -0.1239 (  8)
          -0.1063 (  9) -0.3075 ( 10) -0.1464 ( 13)  0.1266 ( 15)  0.1432 ( 23)
           0.1604 ( 30) -0.1084 ( 33) -0.2930 ( 35) -0.3420 ( 37)  0.1632 ( 40)
          -0.1203 ( 44)  0.2411 ( 48)  0.1429 ( 55) -0.1163 ( 65)  0.1225 ( 75)
 CRD 15=   0.1821 (  2)  0.1258 (  6) -0.1293 ( 10) -0.1004 ( 11) -0.1077 ( 19)
           0.1291 ( 20) -0.1348 ( 23)  0.1987 ( 24) -0.2361 ( 25)  0.2256 ( 26)
           0.2114 ( 27) -0.1146 ( 28) -0.1190 ( 30)  0.1608 ( 32)  0.1574 ( 33)
          -0.1535 ( 36) -0.1572 ( 38)  0.1050 ( 40) -0.1827 ( 42) -0.2196 ( 43)
           0.1802 ( 44)  0.2166 ( 45) -0.1960 ( 46)  0.1795 ( 47) -0.1300 ( 58)
           0.1283 ( 60) -0.1569 ( 61) -0.1435 ( 62)  0.1535 ( 65)  0.1618 ( 66)
          -0.1453 ( 75) -0.1924 ( 76) -0.1081 ( 77)
 CRD 16=  -0.1091 (  1)  0.2311 (  2)  0.1656 (  3) -0.1156 (  4)  0.1469 (  5)
           0.2227 (  7)  0.1439 (  8) -0.1070 ( 11) -0.1483 ( 16) -0.1258 ( 22)
           0.2063 ( 23) -0.1676 ( 24)  0.1310 ( 27)  0.1195 ( 28) -0.1235 ( 33)
           0.2287 ( 36)  0.1222 ( 37) -0.3872 ( 38)  0.1769 ( 40)  0.1064 ( 46)
          -0.1263 ( 47) -0.1469 ( 53)  0.1149 ( 54)  0.1263 ( 55)  0.1440 ( 63)
           0.1046 ( 64)  0.1394 ( 67) -0.1122 ( 68) -0.1320 ( 71) -0.1562 ( 72)
           0.1122 ( 78)  0.1215 ( 79)
 CRD 17=   0.1191 (  2) -0.1179 (  4)  0.1316 (  5)  0.2083 (  7)  0.1384 (  9)
          -0.1231 ( 12) -0.1071 ( 22) -0.1712 ( 23) -0.1655 ( 24)  0.2380 ( 26)
          -0.2121 ( 27)  0.2818 ( 30) -0.1006 ( 31)  0.1041 ( 32)  0.2777 ( 33)
          -0.1662 ( 36) -0.1365 ( 37) -0.2693 ( 39)  0.1420 ( 40)  0.2269 ( 41)
           0.1209 ( 46) -0.1388 ( 47)  0.1222 ( 57)  0.1087 ( 60) -0.1471 ( 65)
          -0.1491 ( 66)  0.1565 ( 68)  0.1228 ( 72) -0.1666 ( 73) -0.1238 ( 74)
 CRD 18=  -0.1113 (  2)  0.1370 (  4) -0.1170 (  6) -0.2437 (  7) -0.1651 (  9)
          -0.1433 ( 10)  0.1452 ( 15)  0.1369 ( 17) -0.1127 ( 19)  0.1591 ( 20)
           0.1189 ( 22) -0.1194 ( 23)  0.1778 ( 25) -0.1380 ( 27) -0.1174 ( 28)
           0.1202 ( 31) -0.1500 ( 36)  0.3039 ( 37) -0.1313 ( 39) -0.1540 ( 40)
           0.1795 ( 41) -0.1708 ( 42) -0.1440 ( 43)  0.2499 ( 45)  0.1615 ( 46)
          -0.1419 ( 47)  0.1249 ( 54) -0.1073 ( 55) -0.1087 ( 73) -0.1610 ( 74)
          -0.1069 ( 75)  0.1348 ( 77)  0.1052 ( 78)  0.1062 ( 80)
 CRD 19=  -0.2062 (  1) -0.3039 (  2) -0.2061 (  3) -0.3376 (  4) -0.1444 (  5)
          -0.1425 (  6) -0.1433 (  7) -0.1706 ( 11) -0.1713 ( 12)  0.2448 ( 21)
           0.2044 ( 22) -0.1457 ( 24) -0.1454 ( 25) -0.1029 ( 26) -0.1055 ( 27)
           0.2671 ( 29) -0.1107 ( 30) -0.1646 ( 37) -0.1626 ( 38) -0.1061 ( 39)
           0.2346 ( 40) -0.1131 ( 41)  0.1585 ( 49)  0.1147 ( 50)  0.1364 ( 52)
           0.1669 ( 55)
 CRD 20=  -0.1691 (  5)  0.1332 (  6) -0.1619 ( 11)  0.1556 ( 12)  0.2281 ( 28)
          -0.2814 ( 32)  0.1200 ( 37) -0.1233 ( 38)  0.1828 ( 43) -0.1640 ( 44)
          -0.1204 ( 57) -0.1215 ( 60)  0.1236 ( 67)  0.1176 ( 68) -0.2755 ( 69)
          -0.1099 ( 70)  0.1160 ( 72)  0.1119 ( 77)  0.1097 ( 78) -0.2790 ( 79)
          -0.2435 ( 80) -0.2613 ( 93) -0.2258 ( 94) -0.2943 (101) -0.1286 (102)
 CRD 21=   0.1338 (  5)  0.1158 (  9)  0.1340 ( 10)  0.5481 ( 14)  0.1977 ( 15)
          -0.2248 ( 19)  0.2491 ( 20)  0.1642 ( 28) -0.1069 ( 31) -0.2463 ( 34)
           0.1597 ( 35) -0.1990 ( 42)  0.1780 ( 43)  0.3417 ( 45) -0.1428 ( 56)
           0.1119 ( 59) -0.1054 ( 80)
 CRD 22=  -0.1275 (  1)  0.1150 (  3)  0.1874 (  5) -0.2296 (  6)  0.1096 (  8)
          -0.3024 (  9)  0.2865 ( 11) -0.2906 ( 12) -0.1805 ( 14) -0.1276 ( 23)
          -0.1771 ( 32)  0.1329 ( 58)  0.1081 ( 61)  0.1079 ( 62)  0.1182 ( 63)
          -0.1073 ( 68) -0.1990 ( 69) -0.2703 ( 70) -0.1085 ( 71) -0.1114 ( 72)
          -0.1191 ( 75) -0.1082 ( 76) -0.1416 ( 77) -0.1402 ( 78) -0.1215 ( 93)
          -0.1289 (101) -0.2002 (102)
 CRD 23=  -0.1737 ( 13) -0.5032 ( 16) -0.5027 ( 17) -0.4803 ( 18)  0.1769 ( 37)
           0.1767 ( 38)  0.1942 ( 40) -0.2001 ( 53) -0.2000 ( 54) -0.1876 ( 55)
 CRD 24=   0.5040 ( 19)  0.5721 ( 20) -0.2679 ( 42) -0.2248 ( 45)  0.4927 ( 56)
 CRD 25=   0.3700 (  1) -0.3772 (  3)  0.2908 (  5) -0.3147 (  6) -0.1375 (  9)
          -0.2781 ( 11)  0.2762 ( 12)  0.1012 ( 57) -0.1163 ( 65) -0.1156 ( 66)
          -0.1470 ( 69) -0.2542 ( 70)  0.1095 ( 73)  0.1171 ( 74) -0.1963 (102)
 CRD 26=  -0.1253 (  1)  0.1123 (  3) -0.1147 (  5) -0.3603 (  8)  0.1244 (  9)
           0.1157 ( 11) -0.1194 ( 12) -0.1364 ( 26) -0.1466 ( 28)  0.1055 ( 36)
          -0.1175 ( 39)  0.1055 ( 41) -0.1820 ( 69) -0.3874 ( 70)  0.1211 ( 75)
           0.1410 ( 76)  0.1204 ( 79)  0.1961 ( 80)  0.1211 ( 81)  0.1384 ( 82)
           0.1113 ( 83)  0.1128 ( 84)  0.1152 ( 85)  0.1325 ( 86)  0.1063 ( 87)
           0.1077 ( 88)  0.1075 ( 89)  0.1275 ( 91)  0.1085 ( 92)  0.1189 ( 94)
          -0.1012 (101) -0.3066 (102)
 CRD 27=  -0.1796 (  5)  0.1675 (  6) -0.3776 (  8)  0.2362 (  9) -0.1030 ( 24)
           0.1044 ( 25)  0.1346 ( 27) -0.1297 ( 30)  0.1071 ( 33)  0.1120 ( 39)
          -0.1184 ( 41)  0.1367 ( 46) -0.1385 ( 47) -0.1101 ( 65) -0.1093 ( 66)
          -0.1813 ( 70) -0.1111 ( 73)  0.1188 ( 79)  0.1464 ( 80) -0.1645 ( 81)
          -0.1525 ( 82) -0.1964 ( 83) -0.1955 ( 84) -0.1674 ( 85) -0.1554 ( 86)
          -0.2000 ( 87) -0.1991 ( 88)  0.1027 ( 94) -0.1105 ( 95) -0.1097 ( 96)
          -0.1098 ( 97) -0.1108 ( 98) -0.1115 ( 99) -0.1107 (100) -0.1357 (102)
 CRD 28=   0.1686 ( 11)  0.1689 ( 12)  0.2967 ( 16)  0.2935 ( 17) -0.6348 ( 18)
          -0.1598 ( 53) -0.1579 ( 54)  0.3280 ( 55)  0.1720 ( 61) -0.1714 ( 62)
          -0.1867 ( 96)  0.1567 ( 97)  0.1874 ( 98) -0.1560 (100)
 CRD 29=  -0.5486 ( 16)  0.5503 ( 17)  0.2936 ( 53) -0.2944 ( 54)  0.2284 ( 58)
           0.2189 ( 95)  0.2190 ( 99)
 CRD 30=   0.5675 (  8)  0.6085 (  9) -0.1290 ( 28) -0.1187 ( 32)  0.2862 ( 51)
          -0.1008 ( 57)  0.1018 ( 60) -0.1195 ( 79)  0.1686 ( 80)  0.1065 ( 90)
          -0.1013 ( 91)  0.1013 ( 92) -0.1392 ( 93)  0.1490 ( 94)
 CRD 31=   0.4459 (  1)  0.4470 (  3) -0.3509 (  5) -0.3496 (  6) -0.2695 ( 11)
          -0.2694 ( 12)  0.1566 ( 49) -0.1245 ( 50)  0.1345 ( 82) -0.1184 ( 84)
          -0.1347 ( 85)  0.1174 ( 87)
 CRD 32=   0.4250 (  5)  0.4244 (  6) -0.4176 ( 11) -0.4177 ( 12) -0.1031 ( 18)
           0.1779 ( 50) -0.1675 ( 52)  0.1098 ( 97) -0.1097 (100)
 CRD 33=  -0.4089 (  1) -0.4097 (  3)  0.1047 (  4) -0.2618 (  5) -0.2623 (  6)
          -0.3147 ( 11) -0.3148 ( 12) -0.1982 ( 49) -0.1291 ( 50) -0.1492 ( 52)
          -0.1224 ( 81)  0.1289 ( 83)  0.1222 ( 86) -0.1277 ( 88)
 CRD 34=  -0.1852 (  1)  0.1842 (  3) -0.1009 (  5)  0.1041 (  6)  0.2601 (  8)
          -0.2551 (  9)  0.1037 ( 44)  0.1569 ( 57)  0.1518 ( 60) -0.1181 ( 61)
          -0.1181 ( 62)  0.1044 ( 68)  0.1054 ( 72)  0.1120 ( 75)  0.1120 ( 76)
          -0.1025 ( 77) -0.1028 ( 78)  0.1138 ( 81)  0.1108 ( 82) -0.1520 ( 83)
          -0.1523 ( 84)  0.1148 ( 85)  0.1119 ( 86) -0.1517 ( 87) -0.1520 ( 88)
           0.2295 ( 89)  0.2244 ( 90)  0.2295 ( 91)  0.2244 ( 92) -0.1431 ( 95)
          -0.1673 ( 96) -0.1673 ( 97) -0.1673 ( 98) -0.1431 ( 99) -0.1673 (100)
 CRD 35=   0.3203 (  1) -0.3205 (  3) -0.3633 (  5)  0.3628 (  6)  0.1927 (  8)
          -0.2072 (  9)  0.1283 ( 11) -0.1283 ( 12) -0.1195 ( 68) -0.1221 ( 72)
          -0.1319 ( 73) -0.1257 ( 74)  0.1001 ( 76) -0.2033 ( 81) -0.1970 ( 82)
          -0.2058 ( 85) -0.1996 ( 86)  0.1418 ( 89)  0.1295 ( 90)  0.1487 ( 91)
           0.1364 ( 92)
 CRD 36=  -0.1655 (  1)  0.1653 (  3) -0.3526 ( 11)  0.3522 ( 12)  0.1759 ( 58)
           0.1626 ( 61)  0.1625 ( 62) -0.1147 ( 65) -0.1141 ( 66) -0.1315 ( 83)
          -0.1310 ( 84) -0.1328 ( 87) -0.1322 ( 88)  0.2613 ( 95)  0.2478 ( 96)
           0.2479 ( 97)  0.2475 ( 98)  0.2608 ( 99)  0.2473 (100)
 CRD 37=  -0.1062 (  9)  0.2300 ( 10) -0.2137 ( 15) -0.4531 ( 19) -0.1132 ( 23)
          -0.1711 ( 28) -0.1259 ( 32) -0.3434 ( 35) -0.1381 ( 42)  0.1393 ( 43)
           0.1693 ( 44) -0.1239 ( 45)  0.3478 ( 48)  0.2621 ( 56) -0.1426 ( 60)
          -0.1070 ( 75) -0.2070 ( 90)  0.1038 ( 91) -0.1054 ( 92) -0.1072 ( 93)
 CRD 38=  -0.1033 (  7) -0.2113 ( 10)  0.1386 ( 14)  0.1148 ( 16)  0.1140 ( 17)
           0.2323 ( 18)  0.2297 ( 19) -0.1005 ( 20) -0.1112 ( 23)  0.1554 ( 24)
           0.1562 ( 25) -0.1096 ( 26)  0.1708 ( 27)  0.1716 ( 30)  0.1366 ( 33)
           0.1382 ( 36)  0.1238 ( 37)  0.1239 ( 38) -0.1612 ( 39)  0.1652 ( 40)
          -0.1592 ( 41) -0.1912 ( 46) -0.1915 ( 47) -0.1788 ( 53) -0.1795 ( 54)
          -0.1178 ( 65)  0.1161 ( 66)  0.1717 ( 82)  0.2135 ( 84) -0.1673 ( 85)
          -0.2155 ( 87)  0.1143 ( 97) -0.1143 (100)
 CRD 39=   0.1363 (  9)  0.1430 ( 10) -0.6471 ( 14) -0.2013 ( 19)  0.5264 ( 20)
          -0.1241 ( 34)  0.1415 ( 42)  0.1068 ( 43) -0.2025 ( 56)  0.1148 ( 91)
 CRD 40=  -0.1152 (  2) -0.1348 (  4)  0.1945 ( 10) -0.1693 ( 13)  0.1367 ( 16)
           0.1416 ( 17)  0.1800 ( 18) -0.1907 ( 19)  0.1137 ( 23)  0.1071 ( 26)
           0.1372 ( 32) -0.1272 ( 36)  0.1415 ( 37)  0.1438 ( 38)  0.1543 ( 40)
          -0.1341 ( 43) -0.1076 ( 45) -0.1703 ( 53) -0.1657 ( 54) -0.1357 ( 55)
           0.1785 ( 56)  0.1793 ( 64) -0.2054 ( 69)  0.1451 ( 70)  0.1251 ( 79)
          -0.1154 ( 82) -0.1052 ( 91)  0.2792 ( 93)  0.1175 ( 94) -0.3678 (101)
 CRD 41=  -0.1212 (  4) -0.1887 ( 13)  0.1284 ( 16)  0.1199 ( 17)  0.1264 ( 18)
          -0.1033 ( 19)  0.1029 ( 26) -0.1177 ( 33)  0.1226 ( 37)  0.1197 ( 38)
           0.1237 ( 40) -0.1154 ( 44) -0.1280 ( 53) -0.1353 ( 54) -0.1293 ( 55)
          -0.2258 ( 64)  0.2799 ( 69) -0.3083 ( 70)  0.1316 ( 85) -0.2189 ( 93)
          -0.2608 ( 94)  0.4766 (101) -0.1116 (102)
 CRD 42=   0.1714 (  2)  0.1807 (  7) -0.3114 ( 13) -0.3702 ( 15)  0.1617 ( 16)
           0.1496 ( 17)  0.2802 ( 19)  0.1179 ( 20) -0.1232 ( 27) -0.1442 ( 28)
          -0.1082 ( 30) -0.1016 ( 32)  0.1154 ( 37)  0.1176 ( 38)  0.1137 ( 39)
           0.1096 ( 40)  0.1086 ( 41)  0.1103 ( 43)  0.1211 ( 44)  0.1818 ( 45)
          -0.1881 ( 55) -0.2683 ( 56)  0.1131 ( 70)  0.1120 ( 80)  0.1338 ( 94)
          -0.1214 ( 97)  0.1035 (100)
 CRD 43=   0.1139 (  2) -0.1350 (  8)  0.2126 (  9) -0.1450 ( 13) -0.2818 ( 14)
           0.3591 ( 15)  0.1227 ( 17)  0.1084 ( 19) -0.4130 ( 20) -0.1042 ( 26)
          -0.1826 ( 34) -0.3291 ( 42)  0.1103 ( 44)  0.1216 ( 45)  0.1298 ( 48)
           0.2075 ( 56)  0.1136 ( 57)  0.1304 ( 89)  0.1977 ( 91)  0.1275 (100)
 CRD 44=  -0.1109 (  2) -0.1487 (  4)  0.2421 ( 10)  0.1857 ( 13) -0.1295 ( 14)
          -0.2851 ( 15) -0.1037 ( 16) -0.1105 ( 17)  0.3784 ( 19) -0.1724 ( 20)
          -0.1562 ( 34) -0.1591 ( 35) -0.1883 ( 42)  0.3296 ( 45)  0.3153 ( 48)
           0.1437 ( 55) -0.1413 ( 56)  0.1348 ( 97) -0.1412 (100)
 CRD 45=  -0.1867 (  1)  0.1965 (  3) -0.2834 ( 11)  0.2601 ( 12)  0.2353 ( 16)
          -0.1985 ( 17)  0.1672 ( 53) -0.1570 ( 54)  0.1622 ( 58) -0.1368 ( 81)
          -0.1362 ( 82)  0.2238 ( 83)  0.2249 ( 84) -0.1335 ( 85) -0.1329 ( 86)
           0.2077 ( 87)  0.2088 ( 88) -0.2105 ( 96) -0.2385 ( 97) -0.2059 ( 98)
          -0.1780 (100)
 CRD 46=   0.1195 (  1)  0.1749 (  4) -0.2292 (  5)  0.1307 (  6) -0.2021 (  7)
           0.2704 (  8)  0.1485 ( 16) -0.1384 ( 18) -0.1351 ( 23) -0.1300 ( 24)
           0.1224 ( 32) -0.1185 ( 44) -0.1547 ( 51)  0.1120 ( 52) -0.1274 ( 55)
          -0.1482 ( 70) -0.1063 ( 77)  0.1576 ( 79)  0.1285 ( 81)  0.1049 ( 82)
           0.1372 ( 85)  0.1136 ( 86) -0.1086 ( 87) -0.1870 ( 89) -0.2600 ( 90)
          -0.1173 ( 92)  0.2312 ( 93) -0.1883 ( 97)  0.1283 ( 99)  0.1353 (100)
          -0.2257 (102)
 CRD 47=   0.1185 (  2) -0.1504 (  3) -0.1640 (  4) -0.1436 (  5)  0.2132 (  6)
           0.1084 (  7) -0.1336 (  9) -0.1175 ( 10)  0.1618 ( 12) -0.1229 ( 14)
           0.2174 ( 15) -0.1990 ( 17)  0.1763 ( 18)  0.1316 ( 25) -0.1051 ( 27)
          -0.1215 ( 34)  0.1540 ( 35)  0.1222 ( 41)  0.1730 ( 43) -0.1460 ( 52)
          -0.1661 ( 54)  0.1157 ( 55)  0.1461 ( 58)  0.1034 ( 59) -0.1341 ( 78)
           0.1407 ( 80)  0.1513 ( 82) -0.1508 ( 84)  0.1416 ( 86)  0.1193 ( 87)
          -0.1001 ( 90) -0.1340 ( 91) -0.1698 ( 92)  0.1552 ( 94)  0.1558 ( 95)
           0.1035 ( 97) -0.2375 (100)
 CRD 48=   0.1070 (  1)  0.1393 (  2)  0.1353 (  3) -0.2557 (  4) -0.1526 (  5)
          -0.1855 (  6)  0.1326 (  7)  0.1070 (  8)  0.1040 (  9) -0.2876 ( 10)
           0.1246 ( 13)  0.1115 ( 39) -0.1017 ( 45) -0.1227 ( 48) -0.1898 ( 49)
           0.2636 ( 50) -0.1598 ( 51)  0.1019 ( 55)  0.1016 ( 57) -0.1109 ( 60)
          -0.1229 ( 68)  0.1257 ( 72)  0.1188 ( 73) -0.1182 ( 74) -0.1210 ( 75)
           0.1326 ( 76) -0.2553 ( 82)  0.2302 ( 85) -0.2268 ( 90)  0.2393 ( 91)
 CRD 49=  -0.1649 (  1)  0.2629 (  2) -0.3005 (  7)  0.1344 (  8)  0.1424 ( 11)
          -0.2582 ( 13) -0.1046 ( 16)  0.1785 ( 18)  0.1284 ( 32)  0.1242 ( 33)
           0.1176 ( 47)  0.1596 ( 49) -0.1606 ( 51) -0.1846 ( 52) -0.1540 ( 53)
          -0.1426 ( 66) -0.1094 ( 70)  0.1055 ( 77) -0.1558 ( 80) -0.1884 ( 84)
          -0.1497 ( 85)  0.2222 ( 87)  0.1153 ( 91)  0.1503 ( 93)  0.1636 ( 97)
          -0.1078 ( 99) -0.1713 (102)
 CRD 50=  -0.1873 (  1)  0.1544 (  3)  0.1650 (  8) -0.1916 (  9)  0.1028 ( 13)
          -0.1092 ( 14)  0.1349 ( 15) -0.1747 ( 16)  0.2150 ( 17) -0.1124 ( 27)
          -0.1529 ( 28) -0.1315 ( 34)  0.1397 ( 35) -0.1294 ( 37)  0.1079 ( 39)
           0.1756 ( 43) -0.1324 ( 46) -0.1073 ( 53)  0.1838 ( 54) -0.1992 ( 58)
           0.1529 ( 59) -0.1572 ( 63) -0.1309 ( 65) -0.1483 ( 67)  0.1285 ( 71)
           0.1107 ( 74)  0.1785 ( 75)  0.1596 ( 88) -0.1431 ( 92)  0.1748 ( 94)
          -0.1885 ( 95)  0.1063 ( 96) -0.2071 ( 99) -0.1600 (102)
 CRD 51=  -0.2139 (  2)  0.2110 (  4)  0.2479 (  7)  0.1009 (  9) -0.2539 ( 10)
          -0.1302 ( 13)  0.1608 ( 23)  0.1514 ( 26)  0.1249 ( 27)  0.1126 ( 30)
          -0.1686 ( 33) -0.1642 ( 36) -0.1390 ( 39) -0.1316 ( 41)  0.1084 ( 44)
           0.1303 ( 49) -0.1361 ( 51)  0.1353 ( 57) -0.1321 ( 60)  0.1505 ( 68)
          -0.1453 ( 72)  0.1183 ( 73) -0.1318 ( 74)  0.2751 ( 81) -0.2708 ( 86)
           0.2016 ( 89) -0.1897 ( 92)
 CRD 52=   0.2127 (  2) -0.1439 (  3) -0.1908 (  4) -0.1312 (  7)  0.1310 (  9)
           0.2255 ( 13)  0.1339 ( 16) -0.2253 ( 18)  0.1454 ( 24)  0.1585 ( 25)
          -0.1435 ( 30) -0.1233 ( 38)  0.1024 ( 40)  0.1136 ( 41) -0.1282 ( 46)
          -0.1820 ( 47)  0.1491 ( 49) -0.1174 ( 51)  0.1463 ( 53) -0.1222 ( 55)
          -0.1631 ( 61)  0.1178 ( 62)  0.1260 ( 66)  0.1504 ( 77) -0.1403 ( 78)
          -0.2720 ( 83)  0.2229 ( 88)  0.1118 ( 89)  0.1386 ( 95)  0.2031 ( 96)
          -0.2278 ( 98)
 CRD 53=  -0.1364 (  2)  0.1293 (  4)  0.1658 (  5)  0.1015 (  9) -0.1547 ( 10)
          -0.1537 ( 12) -0.1264 ( 17)  0.1498 ( 18) -0.1499 ( 21)  0.1562 ( 22)
           0.1219 ( 31) -0.1454 ( 40) -0.1935 ( 50) -0.1329 ( 51)  0.1879 ( 52)
           0.1248 ( 55) -0.1391 ( 60) -0.1540 ( 62) -0.1181 ( 73)  0.1330 ( 75)
          -0.1346 ( 76) -0.1031 ( 80) -0.1221 ( 81) -0.1156 ( 83)  0.1105 ( 86)
           0.2670 ( 89) -0.2298 ( 92) -0.2592 ( 96)  0.2531 ( 98)  0.1905 ( 99)
          -0.1255 (102)
 CRD 54=  -0.1235 (  4)  0.1640 (  5) -0.1014 (  6) -0.1080 (  9)  0.2043 ( 11)
           0.1582 ( 16)  0.1157 ( 21) -0.1124 ( 28)  0.1055 ( 29)  0.1010 ( 33)
          -0.1305 ( 38)  0.1025 ( 46) -0.1067 ( 47) -0.1086 ( 49) -0.1161 ( 52)
           0.1065 ( 53) -0.1410 ( 57) -0.1254 ( 60) -0.1952 ( 61) -0.2023 ( 63)
           0.1608 ( 67)  0.1916 ( 69)  0.1330 ( 71)  0.1841 ( 72)  0.1343 ( 75)
           0.1941 ( 78) -0.1249 ( 79) -0.1437 ( 81) -0.1958 ( 88)  0.1654 ( 94)
           0.2631 ( 95)  0.1278 ( 96) -0.1163 ( 98)  0.1200 ( 99) -0.2294 (102)
 CRD 55=  -0.1230 (  1)  0.1770 (  2) -0.1102 (  3)  0.1760 (  4) -0.1767 (  6)
           0.1354 (  7) -0.1292 (  9) -0.1716 ( 12) -0.1059 ( 17) -0.1492 ( 21)
          -0.1657 ( 22) -0.1809 ( 29) -0.1126 ( 31)  0.1719 ( 49)  0.1567 ( 50)
           0.1408 ( 52) -0.1482 ( 57) -0.1458 ( 62) -0.1129 ( 65)  0.1767 ( 68)
          -0.1099 ( 74)  0.1781 ( 76)  0.1857 ( 77)  0.1844 ( 81) -0.2254 ( 83)
          -0.2422 ( 86)  0.1721 ( 88) -0.1607 ( 89)  0.1653 ( 92)  0.1004 ( 94)
          -0.1358 ( 96)  0.1474 ( 98)  0.1936 ( 99)
 CRD 56=  -0.1442 (  8) -0.1049 ( 11) -0.1030 ( 31)  0.1288 ( 44) -0.1327 ( 59)
           0.1378 ( 61)  0.1351 ( 62) -0.1545 ( 63)  0.2602 ( 64)  0.1177 ( 65)
           0.1250 ( 66)  0.3769 ( 69) -0.1145 ( 71) -0.1223 ( 74) -0.1304 ( 75)
          -0.1362 ( 77) -0.1487 ( 78) -0.3449 ( 79) -0.2054 ( 80)  0.2093 ( 94)
          -0.1173 ( 95) -0.1120 ( 99) -0.3703 (102)
 CRD 57=   0.1435 (  1) -0.1408 (  3)  0.1396 (  5) -0.1313 (  6)  0.1130 (  8)
          -0.1002 ( 11)  0.1008 ( 12)  0.1200 ( 23) -0.1017 ( 24)  0.1012 ( 25)
          -0.1199 ( 26)  0.1197 ( 27) -0.1222 ( 30)  0.1037 ( 32)  0.1027 ( 33)
          -0.1064 ( 36) -0.1086 ( 39)  0.1093 ( 41) -0.2003 ( 57) -0.2181 ( 60)
           0.1529 ( 61)  0.1532 ( 62) -0.2046 ( 64)  0.2137 ( 65)  0.2129 ( 66)
           0.2152 ( 68) -0.1539 ( 69)  0.2191 ( 72) -0.2229 ( 73) -0.2159 ( 74)
           0.1771 ( 75)  0.1675 ( 76) -0.1724 ( 77) -0.1705 ( 78)  0.1634 ( 79)
           0.1198 ( 80) -0.1008 ( 95) -0.1013 ( 99)  0.1335 (102)

 THE DETERMINANT OF THE G MATRIX IS 10**(   -19)


                     --------------------
                     INTERNAL COORDINATES
                     --------------------

                 - - ATOMS - -         COORDINATE      COORDINATE
 NO.   TYPE    I  J  K  L  M  N        (BOHR,RAD)       (ANG,DEG)
 ----------------------------------------------------------------
   1 STRETCH   1  8                     2.0952202       1.1087428
   2 STRETCH   1  2                     2.8723534       1.5199841
   3 STRETCH   1  9                     2.0950809       1.1086692
   4 STRETCH   1  4                     2.8729347       1.5202917
   5 STRETCH   2 11                     2.0941194       1.1081603
   6 STRETCH   2 10                     2.0952630       1.1087655
   7 STRETCH   2  3                     2.8757219       1.5217666
   8 STRETCH   3 13                     2.0958352       1.1090683
   9 STRETCH   3 12                     2.0954429       1.1088607
  10 STRETCH   3  5                     2.8124428       1.4882807
  11 STRETCH   4 15                     2.0944825       1.1083525
  12 STRETCH   4 14                     2.0942632       1.1082364
  13 STRETCH   4  6                     2.8568066       1.5117570
  14 STRETCH   5 16                     2.0731965       1.0970884
  15 STRETCH   5  7                     2.5088699       1.3276369
  16 STRETCH   6 19                     2.0751627       1.0981289
  17 STRETCH   6 18                     2.0753713       1.0982393
  18 STRETCH   6 17                     2.0739045       1.0974631
  19 STRETCH   7 21                     2.0516855       1.0857053
  20 STRETCH   7 20                     2.0535976       1.0867171
  21 BEND      1  4  6                  1.9457967     111.4859389
  22 BEND      1  2  3                  1.9412225     111.2238537
  23 BEND      1  2 10                  1.9192969     109.9676132
  24 BEND      1  4 14                  1.9176237     109.8717469
  25 BEND      1  4 15                  1.9173632     109.8568166
  26 BEND      1  2 11                  1.9207338     110.0499431
  27 BEND      2  1  9                  1.9201885     110.0186973
  28 BEND      2  3 13                  1.9232248     110.1926623
  29 BEND      2  1  4                  1.9440822     111.3877054
  30 BEND      2  1  8                  1.9197396     109.9929750
  31 BEND      2  3  5                  1.9391776     111.1066918
  32 BEND      2  3 12                  1.9203949     110.0305241
  33 BEND      3  2 10                  1.9209804     110.0640723
  34 BEND      3  5  7                  2.1502416     123.1997690
  35 BEND      3  5 16                  2.0210851     115.7996460
  36 BEND      3  2 11                  1.9173450     109.8557765
  37 BEND      4  6 18                  1.9485746     111.6451016
  38 BEND      4  6 19                  1.9488048     111.6582911
  39 BEND      4  1  8                  1.9180908     109.8985094
  40 BEND      4  6 17                  1.9425156     111.2979457
  41 BEND      4  1  9                  1.9176411     109.8727399
  42 BEND      5  7 21                  2.1401301     122.6204242
  43 BEND      5  3 12                  1.9409404     111.2076906
  44 BEND      5  3 13                  1.8930606     108.4643824
  45 BEND      5  7 20                  2.1516671     123.2814427
  46 BEND      6  4 14                  1.9195152     109.9801182
  47 BEND      6  4 15                  1.9192493     109.9648847
  48 BEND      7  5 16                  2.1118376     120.9993843
  49 BEND      8  1  9                  1.8414212     105.5056651
  50 BEND     10  2 11                  1.8417836     105.5264297
  51 BEND     12  3 13                  1.8446049     105.6880748
  52 BEND     14  4 15                  1.8415102     105.5107603
  53 BEND     17  6 18                  1.8741639     107.3816828
  54 BEND     17  6 19                  1.8742140     107.3845518
  55 BEND     18  6 19                  1.8715264     107.2305616
  56 BEND     20  7 21                  1.9913874     114.0980944
  57 TORSION   1  2  3 13              -1.0128870     -58.0341490
  58 TORSION   1  4  6 17              -3.1414785    -179.9934619
  59 TORSION   1  2  3  5              -3.1115465    -178.2784824
  60 TORSION   1  2  3 12               1.0143340      58.1170589
  61 TORSION   1  4  6 18               1.0477014      60.0288675
  62 TORSION   1  4  6 19              -1.0472531     -60.0031839
  63 TORSION   2  3  5  7              -2.2739048    -130.2851479
  64 TORSION   2  3  5 16               0.8745938      50.1105309
  65 TORSION   2  1  4 15              -1.0097881     -57.8565949
  66 TORSION   2  1  4 14               1.0086670      57.7923626
  67 TORSION   2  1  4  6               3.1412910     179.9827166
  68 TORSION   3  2  1  8               1.0167889      58.2577148
  69 TORSION   3  5  7 20               0.0134356       0.7698021
  70 TORSION   3  5  7 21              -3.1268339    -179.1543864
  71 TORSION   3  2  1  4              -3.1352736    -179.6379442
  72 TORSION   3  2  1  9              -1.0044113     -57.5485310
  73 TORSION   4  1  2 10               1.0153597      58.1758247
  74 TORSION   4  1  2 11              -1.0063393     -57.6589926
  75 TORSION   5  3  2 10              -0.9799699     -56.1481404
  76 TORSION   5  3  2 11               1.0407383      59.6299127
  77 TORSION   6  4  1  9               1.0089568      57.8089691
  78 TORSION   6  4  1  8              -1.0098189     -57.8583601
  79 TORSION   7  5  3 12              -0.1283835      -7.3558300
  80 TORSION   7  5  3 13               1.8928390     108.4516877
  81 TORSION   8  1  2 10              -1.1157631     -63.9285163
  82 TORSION   8  1  2 11              -3.1374620    -179.7633336
  83 TORSION   8  1  4 15               1.1222873      64.3023284
  84 TORSION   8  1  4 14               3.1407424     179.9512860
  85 TORSION   9  1  2 10              -3.1369634    -179.7347621
  86 TORSION   9  1  2 11               1.1245230      64.4304206
  87 TORSION   9  1  4 15               3.1410631     179.9696576
  88 TORSION   9  1  4 14              -1.1236671     -64.3813849
  89 TORSION  10  2  3 13               1.1186896      64.0961930
  90 TORSION  10  2  3 12              -3.1372747    -179.7525991
  91 TORSION  11  2  3 13               3.1393978     179.8742461
  92 TORSION  11  2  3 12              -1.1165665     -63.9745460
  93 TORSION  12  3  5 16               3.0201151     173.0398488
  94 TORSION  13  3  5 16              -1.2418477     -71.1526335
  95 TORSION  14  4  6 17              -1.0099451     -57.8655909
  96 TORSION  14  4  6 19               1.0842803      62.1246871
  97 TORSION  14  4  6 18              -3.1039505    -177.8432615
  98 TORSION  15  4  6 18              -1.0833170     -62.0694927
  99 TORSION  15  4  6 17               1.0106884      57.9081779
 100 TORSION  15  4  6 19               3.1049138     177.8984560
 101 TORSION  16  5  7 20              -3.1354106    -179.6457949
 102 TORSION  16  5  7 21               0.0075052       0.4300166

     ------------------------------------------
     THE POINT GROUP IS C1 , NAXIS= 1, ORDER= 1
     ------------------------------------------

     DIMENSIONS OF THE SYMMETRY SUBSPACES ARE
 A   =  217

 ..... DONE SETTING UP THE RUN .....
 STEP CPU TIME =     0.01 TOTAL CPU TIME =        0.0 (    0.0 MIN)
 TOTAL WALL CLOCK TIME=        0.0 SECONDS, CPU UTILIZATION IS  33.33%


          -----------------------------
          STATIONARY POINT LOCATION RUN
          -----------------------------

 OBTAINING INITIAL HESSIAN, HESS=GUESS   
 DIAGONAL GUESS HESSIAN IN INTERNAL COORDS IS
     1  0.3340     2  0.3744     3  0.3340     4  0.3742     5  0.3344
     6  0.3340     7  0.3731     8  0.3338     9  0.3339    10  0.3982
    11  0.3342    12  0.3343    13  0.3804    14  0.3416    15  0.5441
    16  0.3409    17  0.3409    18  0.3414    19  0.3493    20  0.3486
    21  0.2505    22  0.2498    23  0.2236    24  0.2236    25  0.2236
    26  0.2236    27  0.2236    28  0.2234    29  0.2499    30  0.2236
    31  0.2520    32  0.2234    33  0.2235    34  0.2666    35  0.2262
    36  0.2235    37  0.2247    38  0.2247    39  0.2235    40  0.2247
    41  0.2235    42  0.2369    43  0.2254    44  0.2254    45  0.2369
    46  0.2241    47  0.2241    48  0.2362    49  0.2015    50  0.2016
    51  0.2015    52  0.2016    53  0.2026    54  0.2026    55  0.2026
    56  0.2038    57  0.2500    58  0.2500    59  0.2500    60  0.2500
    61  0.2500    62  0.2500    63  0.2500    64  0.2500    65  0.2500
    66  0.2500    67  0.2500    68  0.2500    69  0.2500    70  0.2500
    71  0.2500    72  0.2500    73  0.2500    74  0.2500    75  0.2500
    76  0.2500    77  0.2500    78  0.2500    79  0.2500    80  0.2500
    81  0.2500    82  0.2500    83  0.2500    84  0.2500    85  0.2500
    86  0.2500    87  0.2500    88  0.2500    89  0.2500    90  0.2500
    91  0.2500    92  0.2500    93  0.2500    94  0.2500    95  0.2500
    96  0.2500    97  0.2500    98  0.2500    99  0.2500   100  0.2500
   101  0.2500   102  0.2500
 TRANSFORMING HESSIAN TO SYMMETRY COORDINATES

          PARAMETERS CONTROLLING GEOMETRY SEARCH ARE
          METHOD =QA                  UPHESS =BFGS    
          NNEG   =         0          NFRZ   =         3
          NSTEP  =        50          IFOLOW =         1
          HESS   =GUESS               RESTAR =         F
          IHREP  =         0          HSSEND =         F
          NPRT   =         0          NPUN   =         0
          OPTTOL = 5.000E-04          RMIN   = 1.500E-03
          RMAX   = 1.000E-01          RLIM   = 7.000E-02
          DXMAX  = 3.000E-01          PURIFY =         F
          MOVIE  =         F          TRUPD  =         T
          TRMAX  = 5.000E-01          TRMIN  = 5.000E-02
          ITBMAT =         5          STPT   =         F
          STSTEP = 1.000E-02          PROJCT=          F
          FROZEN COORD(S)=   1   2   3


      ***** EQUILIBRIUM GEOMETRY LOCATED *****
            (SUBJECT TO   3 CONSTRAINT(S))
 COORDINATES OF ALL ATOMS ARE (ANGS)
   ATOM   CHARGE       X              Y              Z
 ------------------------------------------------------------
 C           6.0   3.3345004593   0.7655322935   1.4493244183
 C           6.0   4.5696797101   1.6145134156   1.7395512043
 C           6.0   5.8157415020   0.7565264360   1.9884237020
 C           6.0   2.0738468023   1.5751735644   1.1513221784
 C           6.0   7.0270605713   1.5756410965   2.3372762939
 C           6.0   0.8625907485   0.6792083592   0.8981306563
 C           6.0   8.1468341583   1.6196688556   1.6398067534
 H           1.0   3.1440478470   0.1165867968   2.3034830523
 H           1.0   3.5414180010   0.1088504909   0.6049407221
 H           1.0   4.3840960563   2.2407268502   2.6111740453
 H           1.0   4.7611383241   2.2897932201   0.9071565144
 H           1.0   6.0223032292   0.1477128498   1.1119286096
 H           1.0   5.6074492072   0.0713664449   2.8094706897
 H           1.0   2.2461289284   2.2110928663   0.2844336057
 H           1.0   1.8637026565   2.2422515244   1.9859168057
 H           1.0   6.9457543284   2.1748436416   3.2331839253
 H           1.0  -0.0276275860   1.2617828446   0.6798686207
 H           1.0   0.6528313508   0.0606139767   1.7676147330
 H           1.0   1.0421739774   0.0144831402   0.0563912987
 H           1.0   8.2760613942   1.0419872248   0.7383237149
 H           1.0   8.9764041356   2.2336476979   1.9473571957


                     --------------------
                     INTERNAL COORDINATES
                     --------------------

                 - - ATOMS - -         COORDINATE      COORDINATE
 NO.   TYPE    I  J  K  L  M  N        (BOHR,RAD)       (ANG,DEG)
 ----------------------------------------------------------------
   1 STRETCH   1  8                     2.0588384       1.0894904
   2 STRETCH   1  2                     2.8849552       1.5266527
   3 STRETCH   1  9                     2.0588733       1.0895089
   4 STRETCH   1  4                     2.8867517       1.5276033
   5 STRETCH   2 11                     2.0575811       1.0888251
   6 STRETCH   2 10                     2.0582499       1.0891790
   7 STRETCH   2  3                     2.8973568       1.5332153
   8 STRETCH   3 13                     2.0588025       1.0894715
   9 STRETCH   3 12                     2.0541290       1.0869983
  10 STRETCH   3  5                     2.8408439       1.5033100
  11 STRETCH   4 15                     2.0577214       1.0888993
  12 STRETCH   4 14                     2.0576073       1.0888390
  13 STRETCH   4  6                     2.8870170       1.5277437
  14 STRETCH   5 16                     2.0425699       1.0808815
  15 STRETCH   5  7                     2.4943632       1.3199603
  16 STRETCH   6 19                     2.0550585       1.0874902
  17 STRETCH   6 18                     2.0550808       1.0875020
  18 STRETCH   6 17                     2.0523503       1.0860571
  19 STRETCH   7 21                     2.0350723       1.0769139
  20 STRETCH   7 20                     2.0380039       1.0784653
  21 BEND      1  4  6                  1.9560464     112.0732016
  22 BEND      1  2  3                  1.9575753     112.1608056
  23 BEND      1  2 10                  1.9113456     109.5120345
  24 BEND      1  4 14                  1.9116379     109.5287808
  25 BEND      1  4 15                  1.9118023     109.5382023
  26 BEND      1  2 11                  1.9196552     109.9881395
  27 BEND      2  1  9                  1.9058922     109.1995813
  28 BEND      2  3 13                  1.8953401     108.5949869
  29 BEND      2  1  4                  1.9932891     114.2070502
  30 BEND      2  1  8                  1.9003602     108.8826194
  31 BEND      2  3  5                  1.9688371     112.8060585
  32 BEND      2  3 12                  1.9145010     109.6928244
  33 BEND      3  2 10                  1.9074339     109.2879150
  34 BEND      3  5  7                  2.1884449     125.3886563
  35 BEND      3  5 16                  2.0194927     115.7084079
  36 BEND      3  2 11                  1.9052406     109.1622475
  37 BEND      4  6 18                  1.9326546     110.7329501
  38 BEND      4  6 19                  1.9345935     110.8440437
  39 BEND      4  1  8                  1.9011467     108.9276829
  40 BEND      4  6 17                  1.9482928     111.6289533
  41 BEND      4  1  9                  1.9018018     108.9652159
  42 BEND      5  7 21                  2.1195296     121.4400981
  43 BEND      5  3 12                  1.9168356     109.8265904
  44 BEND      5  3 13                  1.8984652     108.7740455
  45 BEND      5  7 20                  2.1240680     121.7001330
  46 BEND      6  4 14                  1.9134794     109.6342962
  47 BEND      6  4 15                  1.9105904     109.4687678
  48 BEND      7  5 16                  2.0752144     118.9010257
  49 BEND      8  1  9                  1.8564621     106.3674434
  50 BEND     10  2 11                  1.8599855     106.5693211
  51 BEND     12  3 13                  1.8668771     106.9641793
  52 BEND     14  4 15                  1.8576833     106.4374154
  53 BEND     17  6 18                  1.8835710     107.9206683
  54 BEND     17  6 19                  1.8835562     107.9198234
  55 BEND     18  6 19                  1.8786449     107.6384228
  56 BEND     20  7 21                  2.0395839     116.8595484
  57 TORSION   1  2  3 13              -0.9902724     -56.7384288
  58 TORSION   1  4  6 17              -3.1342367    -179.5785360
  59 TORSION   1  2  3  5              -3.0960548    -177.3908743
  60 TORSION   1  2  3 12               1.0443612      59.8374863
  61 TORSION   1  4  6 18               1.0499097      60.1553963
  62 TORSION   1  4  6 19              -1.0338959     -59.2378701
  63 TORSION   2  3  5  7              -2.0711782    -118.6697675
  64 TORSION   2  3  5 16               1.0615001      60.8194743
  65 TORSION   2  1  4 15              -0.9959031     -57.0610441
  66 TORSION   2  1  4 14               1.0354539      59.3271360
  67 TORSION   2  1  4  6              -3.1200406    -178.7651592
  68 TORSION   3  2  1  8               1.0439761      59.8154222
  69 TORSION   3  5  7 20              -0.0072438      -0.4150389
  70 TORSION   3  5  7 21               3.1374241     179.7611571
  71 TORSION   3  2  1  4              -3.1102330    -178.2032231
  72 TORSION   3  2  1  9              -0.9762727     -55.9363073
  73 TORSION   4  1  2 10               1.0521177      60.2819048
  74 TORSION   4  1  2 11              -0.9863787     -56.5153385
  75 TORSION   5  3  2 10              -0.9729793     -55.7476065
  76 TORSION   5  3  2 11               1.0550488      60.4498449
  77 TORSION   6  4  1  9               1.0269488      58.8398292
  78 TORSION   6  4  1  8              -0.9914959     -56.8085326
  79 TORSION   7  5  3 12               0.0702865       4.0271207
  80 TORSION   7  5  3 13               2.1080117     120.7801733
  81 TORSION   8  1  2 10              -1.0768585     -61.6994499
  82 TORSION   8  1  2 11              -3.1153550    -178.4966931
  83 TORSION   8  1  4 15               1.1326416      64.8955825
  84 TORSION   8  1  4 14              -3.1191868    -178.7162374
  85 TORSION   9  1  2 10              -3.0971073    -177.4511794
  86 TORSION   9  1  2 11               1.1475815      65.7515773
  87 TORSION   9  1  4 15              -3.1320990    -179.4560557
  88 TORSION   9  1  4 14              -1.1007421     -63.0678756
  89 TORSION  10  2  3 13               1.1328031      64.9048390
  90 TORSION  10  2  3 12              -3.1157486    -178.5192459
  91 TORSION  11  2  3 13              -3.1223541    -178.8977096
  92 TORSION  11  2  3 12              -1.0877205     -62.3217944
  93 TORSION  12  3  5 16              -3.0802206    -176.4836375
  94 TORSION  13  3  5 16              -1.0424954     -59.7305849
  95 TORSION  14  4  6 17              -1.0075993     -57.7311849
  96 TORSION  14  4  6 19               1.0927416      62.6094810
  97 TORSION  14  4  6 18              -3.1066381    -177.9972526
  98 TORSION  15  4  6 18              -1.0749221     -61.5885006
  99 TORSION  15  4  6 17               1.0241167      58.6775671
 100 TORSION  15  4  6 19               3.1244576     179.0182330
 101 TORSION  16  5  7 20              -3.1396618    -179.8893695
 102 TORSION  16  5  7 21               0.0050061       0.2868265

          INTERNUCLEAR DISTANCES (ANGS.)


 =====================================================
   GAMESS/COSab RESULTS
 =====================================================

   Dielectric Constant                  = INFTY
   Basic Grid Size                      =                 1082
   Number of Segments                   =                   92
   Number of Segments located on spheres=                  276
   Number of Segments of the cavity     =                  770
   Solvent Radius (rsolv)               = 1.40
   Outlying Charge Error Method         = double cavity

 =====================================================

  Total solvated Energy (a.u.)          =  -273.2826682844
  Total Energy corrected (a.u.)         =  -273.2825915518

  Outlying charge effect (a.u.)         =     0.0000767327
  Outlying charge effect (kcal/mol)     =     0.0481505315

  Dielectric Energy (a.u.)              =    -0.0034570477
  Dielectric energy corr. (a.u.)        =    -0.0033803150

  Sum of polarization charges           =     0.0297062149
  Sum of polarization charges(cor.)     =    -0.0297062149

  Total surface area of cavity (A**2)   =  170.70
  Total volume of cavity (A**3)         =  162.35

 =====================================================
 NPS=                   770
NR.  ATOM  (X, Y, Z)(a.u.)                  CHARGE(e)  AREA(A**2) SIGMA(e/A**2)
   1   1   7.329624  -2.190139   2.713525   0.001278   0.278737   0.004585
   2   1   7.127916   2.182648  -0.874942   0.000191   0.092912   0.002061
   3   1   6.671718   1.773235  -1.008233   0.000065   0.046456   0.001396
   4   1   6.908969  -2.233085   3.350873   0.001185   0.232280   0.005103
   5   1   5.740766   2.006807   6.434256   0.000260   0.139368   0.001863
   6   1   5.301135  -2.160792   2.218850   0.001026   0.232280   0.004419
   7   1   6.193582  -2.326928   2.557597   0.001908   0.325193   0.005867
   8   1   7.438803   1.940067  -0.831459   0.000096   0.046456   0.002076
   9   1   5.393570  -2.205706   3.086174   0.000609   0.139368   0.004373
  10   1   5.193446   2.000737   6.309517   0.000102   0.046456   0.002188
  11   2   7.741331   6.697921   2.857586   0.001499   0.325193   0.004608
  12   2   9.439785   2.409688  -0.349492   0.000159   0.092912   0.001710
  13   2   7.753891   6.698626   3.736481   0.001274   0.278737   0.004569
  14   2   7.531571   2.403344   6.843433   0.000205   0.139368   0.001470
  15   2   9.829685   6.636054   3.359950   0.001032   0.232280   0.004441
  16   2   8.881819   6.822391   3.284831   0.001817   0.325193   0.005587
  17   2   9.145300   2.660620  -0.437233   0.000088   0.046456   0.001903
  18   2   9.372012   6.667056   4.103178   0.000583   0.139368   0.004180
  19   2   8.078999   2.395362   6.967596   0.000071   0.046456   0.001535
  20   3  13.266452  -1.574011   4.042039   0.000750   0.325193   0.002305
  21   3   9.934734  -2.198321   3.665938   0.001097   0.325193   0.003372
  22   3  10.119115   2.003405   7.390255  -0.000024   0.092912  -0.000260
  23   3  10.435587  -2.228496   2.986278   0.000879   0.232280   0.003782
  24   3  12.881830  -1.802663   3.249486   0.000603   0.232280   0.002597
  25   3  11.431904   2.117031   0.067516   0.000038   0.139368   0.000272
  26   3  12.337266  -2.042862   4.398994   0.001132   0.325193   0.003481
  27   3  11.077270  -2.348412   3.813651   0.001349   0.278737   0.004840
  28   3  13.047097  -1.421498   5.144795   0.000734   0.325193   0.002257
  29   3   9.811795   1.759027   7.333503   0.000043   0.046456   0.000930
  30   3  11.916555  -2.225092   3.494674   0.001183   0.278737   0.004245
  31   4   1.535464   5.823962   1.471529   0.000779   0.278737   0.002796
  32   4   4.721191   6.641852   2.630681   0.001496   0.325193   0.004601
  33   4   3.120992   2.292680   5.806071   0.000177   0.092912   0.001909
  34   4   2.634941   2.679306   5.717876   0.000069   0.046456   0.001487
  35   4   4.710990   6.647790   1.751775   0.001349   0.278737   0.004839
  36   4   2.114474   5.931171   0.659525   0.000804   0.278737   0.002883
  37   4   5.048190   2.379029  -1.381275   0.000274   0.139368   0.001968
  38   4   2.275562   6.374037   1.972858   0.001611   0.371649   0.004336
  39   4   3.625221   6.743746   2.258926   0.001592   0.278737   0.005712
  40   4   1.506947   5.845406   2.662026   0.000805   0.278737   0.002888
  41   4   3.408923   2.550278   5.896217   0.000094   0.046456   0.002031
  42   4   3.021048   6.602207   1.598398   0.001350   0.278737   0.004844
  43   4   4.501467   2.358262  -1.507047   0.000108   0.046456   0.002335
  44   5  14.637081  -0.410271   5.398241   0.001329   0.185824   0.007154
  45   5  13.036395   1.428196   7.855538   0.000373   0.232280   0.001605
  46   5  15.555477   2.600744   7.410294   0.001988   0.278737   0.007133
  47   5  12.348828   6.635569   4.223275   0.001044   0.232280   0.004495
  48   5  12.332334   6.582316   5.043914   0.000603   0.185824   0.003246
  49   5  14.487756   6.404292   5.456555   0.000157   0.092912   0.001690
  50   5  15.429013   3.530671   7.475684   0.000565   0.232280   0.002431
  51   5  12.442155   2.152887   8.008962   0.000032   0.278737   0.000114
  52   5  13.893427   1.426721   7.808268   0.000750   0.278737   0.002690
  53   5  15.113484   1.851394   7.523503   0.001804   0.278737   0.006472
  54   5  13.968294   6.645739   5.011581   0.000977   0.185824   0.005257
  55   5  13.190214   6.737721   4.046179   0.001816   0.325193   0.005585
  56   5  13.960322   0.494416   7.183482   0.000830   0.278737   0.002977
  57   5  14.345135  -0.147117   6.256541   0.001359   0.232280   0.005850
  58   5  15.022853   0.263858   6.386566   0.002286   0.232280   0.009841
  59   5  15.391940   1.091458   6.919483   0.001017   0.185824   0.005472
  60   5  12.705939   6.433467   2.998302   0.002066   0.185824   0.011119
  61   5  13.225959   6.714938   4.976526   0.000777   0.185824   0.004182
  62   5  14.260691   2.259042   7.995183   0.001213   0.371649   0.003265
  63   5  14.716337   0.896966   7.225757   0.001434   0.278737   0.005144
  64   6   0.042597   1.082801  -1.726806   0.001135   0.232280   0.004885
  65   6  -1.559194  -0.739016   1.548222   0.000949   0.371649   0.002554
  66   6  -1.020941   1.672587   4.362737   0.001812   0.371649   0.004876
  67   6   2.852756  -2.278807   1.382383   0.000556   0.139368   0.003992
  68   6  -0.088289   4.334713   3.119086   0.000137   0.092912   0.001475
  69   6  -1.464710   2.158073   3.682597   0.001250   0.278737   0.004484
  70   6  -1.999737   0.288593   1.352419   0.001279   0.418105   0.003060
  71   6  -0.357307   1.782387  -1.478591   0.001773   0.371649   0.004770
  72   6   0.783460   3.882067  -0.913356   0.000624   0.232280   0.002685
  73   6   1.382938  -2.480096   1.455610   0.001708   0.325193   0.005253
  74   6   1.511879  -2.457924   2.218630   0.001112   0.232280   0.004789
  75   6   1.258376   2.919074  -1.689685   0.001038   0.325193   0.003193
  76   6   0.829543   1.939973  -1.937687   0.001425   0.325193   0.004383
  77   6  -0.792191   0.378999  -1.059372   0.002522   0.511017   0.004935
  78   6  -1.433967  -0.390876   0.250721   0.001271   0.418105   0.003040
  79   6  -1.681519  -0.237938   2.698611   0.001660   0.418105   0.003970
  80   6  -1.581176   0.863525   3.645482   0.001743   0.325193   0.005359
  81   6  -0.490618   2.990845   4.318659   0.001656   0.464561   0.003564
  82   6  -0.032840   3.949318   3.797810   0.000237   0.092912   0.002550
  83   6   2.938253   1.752556  -1.817461   0.000174   0.092912   0.001871
  84   6   0.149756  -2.074928   0.795129   0.001376   0.371649   0.003703
  85   6  -0.847854  -1.464523   0.927532   0.001295   0.464561   0.002788
  86   6  -1.000287  -1.376052   2.237725   0.000985   0.325193   0.003029
  87   6  -0.150373   2.044233   4.943070   0.000988   0.278737   0.003545
  88   6   1.033670   2.021650   5.355589   0.000257   0.139368   0.001845
  89   6   2.589627  -2.336529   2.205882   0.001802   0.371649   0.004848
  90   6  -0.540882   3.661078   3.676719   0.000383   0.139368   0.002750
  91   6  -1.960439   0.720045   2.734034   0.001412   0.325193   0.004343
  92   6  -1.499013   0.433852  -0.244736   0.001022   0.278737   0.003668
  93   6   0.350917   2.878435  -1.481511   0.000844   0.232280   0.003635
  94   6   0.035398  -2.137690   1.888511   0.001728   0.418105   0.004132
  95   6   2.015303   2.026047  -1.988505   0.001021   0.325193   0.003138
  96   6  -0.642255  -0.988545  -0.292390   0.001116   0.371649   0.003002
  97   6   0.427774   2.623808   5.020218   0.000654   0.232280   0.002817
  98   7  14.475840   6.659757   2.401779   0.002852   0.278737   0.010231
  99   7  18.038668   2.483926   5.737742   0.002279   0.464561   0.004906
 100   7  16.621506   5.075224   0.145408   0.001056   0.418105   0.002526
 101   7  18.993132   2.296660   2.229311   0.000374   0.278737   0.001342
 102   7  16.738666  -0.439951   3.573009   0.002270   0.371649   0.006108
 103   7  15.040936   6.800028   3.518632   0.001754   0.232280   0.007551
 104   7  15.884911   6.132217   5.245975   0.000004   0.046456   0.000077
 105   7  16.702124   4.444786   6.363870   0.000081   0.092912   0.000877
 106   7  17.158234   3.331921   6.430858   0.001688   0.325193   0.005192
 107   7  16.576805  -0.484235   2.531718   0.001570   0.325193   0.004828
 108   7  18.499777   2.036305   1.202213   0.000252   0.371649   0.000679
 109   7  16.635017   4.018044  -0.340819   0.000789   0.418105   0.001887
 110   7  13.761637   3.242267  -0.304523   0.001181   0.232280   0.005084
 111   7  15.478045   6.831610   2.858366   0.002176   0.325193   0.006691
 112   7  16.156714   6.736726   2.661205   0.000827   0.185824   0.004449
 113   7  17.134827   1.831512   6.220849   0.003917   0.464561   0.008432
 114   7  14.039754   4.375260  -0.175171   0.002657   0.371649   0.007148
 115   7  15.420515   4.840223  -0.235433   0.001892   0.464561   0.004073
 116   7  17.740713   4.280253   0.397676   0.000620   0.371649   0.001667
 117   7  18.610813   3.341836   1.132663   0.000409   0.371649   0.001100
 118   7  18.619594   1.221322   2.388349   0.001332   0.603929   0.002206
 119   7  17.735464   0.093336   3.049239   0.001819   0.464561   0.003915
 120   7  15.690874  -0.704716   3.234313   0.001452   0.232280   0.006251
 121   7  14.039716   6.181752   1.453837   0.003629   0.325193   0.011160
 122   7  15.153214   6.457407   1.459214   0.002909   0.464561   0.006263
 123   7  15.945270   5.872905   0.634357   0.001788   0.464561   0.003849
 124   7  17.498433   5.283539   0.880650   0.000692   0.371649   0.001862
 125   7  17.039614   6.053850   1.479639   0.000856   0.278737   0.003069
 126   7  18.990648   3.166666   1.938432   0.000183   0.278737   0.000657
 127   7  19.096036   2.332542   3.340586   0.000701   0.418105   0.001677
 128   7  18.705570   2.081794   4.637609   0.001322   0.371649   0.003558
 129   7  17.821566   1.144750   5.272830   0.003213   0.511017   0.006287
 130   7  17.352221   0.133905   4.472980   0.003032   0.511017   0.005933
 131   7  16.021328  -0.408256   4.462061   0.004048   0.418105   0.009683
 132   7  15.567551   6.643941   4.288369   0.000654   0.232280   0.002815
 133   7  17.816412   0.336657   2.097838   0.000625   0.278737   0.002243
 134   7  17.967124   3.360966   0.345645   0.000189   0.325193   0.000581
 135   7  14.967428   3.980516  -0.541983   0.001128   0.278737   0.004047
 136   7  15.486534  -0.643267   2.352857   0.000598   0.139368   0.004294
 137   7  16.267821   6.469187   1.718456   0.001476   0.325193   0.004538
 138   7  16.665105   0.460256   5.529709   0.004370   0.418105   0.010452
 139   7  14.374856   5.512431   0.409527   0.004090   0.557473   0.007337
 140   7  18.358120   4.553230   1.288175   0.000132   0.232280   0.000568
 141   7  18.484436   1.041895   3.914722   0.001994   0.603929   0.003302
 142   8   5.707708  -1.386537   6.196470  -0.001440   0.353299  -0.004076
 143   8   5.869185   0.583902   6.781478  -0.000847   0.372926  -0.002270
 144   8   6.163417  -2.205985   4.667392  -0.000260   0.314043  -0.000829
 145   8   4.859833   0.173192   6.558214  -0.001553   0.471065  -0.003297
 146   8   6.099617  -0.539196   6.683885  -0.001725   0.392554  -0.004394
 147   8   6.400587  -1.812506   5.653679  -0.001410   0.353299  -0.003990
 148   8   5.203157  -2.043810   4.956174  -0.001250   0.431809  -0.002895
 149   8   4.782030  -1.116569   6.057001  -0.001843   0.372926  -0.004942
 150   9   6.966743  -1.422207  -0.676080  -0.001430   0.353299  -0.004049
 151   9   6.755777   0.534544  -1.290536  -0.000840   0.372926  -0.002251
 152   9   6.415205  -2.216680   0.842586  -0.000298   0.314043  -0.000948
 153   9   7.751823   0.169164  -1.072949  -0.001489   0.451437  -0.003299
 154   9   6.553700  -0.592413  -1.176071  -0.001745   0.392554  -0.004446
 155   9   6.279459  -1.839991  -0.152888  -0.001383   0.333671  -0.004144
 156   9   7.436026  -2.076109   0.618483  -0.001203   0.451437  -0.002664
 157   9   7.872029  -1.160423  -0.523275  -0.001959   0.392554  -0.004990
 158  10   7.728082   5.797757   6.745748  -0.001559   0.353299  -0.004412
 159  10   7.292444   3.822186   7.143588  -0.000952   0.372926  -0.002554
 160  10   7.953680   6.652288   5.215646  -0.000366   0.353299  -0.001035
 161  10   8.332560   4.209210   7.390444  -0.001822   0.490692  -0.003712
 162  10   7.123925   4.960321   6.974139  -0.001956   0.412182  -0.004747
 163  10   7.308520   6.270495   5.901977  -0.001722   0.392554  -0.004387
 164  10   8.807444   6.440665   5.879960  -0.001530   0.451437  -0.003388
 165  10   8.641389   5.504177   7.006945  -0.002094   0.392554  -0.005334
 166  11   9.635817   5.852087  -0.102762  -0.001503   0.353299  -0.004253
 167  11   9.889169   4.035037  -0.556020  -0.000950   0.353299  -0.002690
 168  11   9.384427   6.747895   1.556781  -0.000421   0.372926  -0.001128
 169  11   8.261880   6.591764   1.109704  -0.000780   0.314043  -0.002483
 170  11   8.954757   4.457765  -0.738514  -0.001588   0.451437  -0.003518
 171  11  10.234463   5.152322  -0.241055  -0.001839   0.392554  -0.004685
 172  11  10.201859   6.287979   0.854723  -0.001589   0.392554  -0.004047
 173  11   8.940452   6.472123   0.518192  -0.001165   0.314043  -0.003709
 174  11   8.629548   5.694267  -0.293372  -0.001777   0.353299  -0.005030
 175  12  12.005066  -1.045129   0.128604  -0.001746   0.314043  -0.005561
 176  12  11.393245   0.672195  -0.323719  -0.001567   0.372926  -0.004201
 177  12  10.963016  -2.083279   1.572320  -0.000852   0.294415  -0.002894
 178  12  12.753374  -1.728844   1.757319  -0.000807   0.255160  -0.003165
 179  12  11.988936  -0.214909  -0.227018  -0.001416   0.255160  -0.005551
 180  12  11.074831  -0.561611  -0.186723  -0.001695   0.294415  -0.005757
 181  12  11.103333  -1.648725   0.604050  -0.002171   0.412182  -0.005267
 182  12  11.936728  -2.061210   1.602805  -0.000768   0.333671  -0.002303
 183  12  12.481594  -1.474059   0.778764  -0.001578   0.294415  -0.005360
 184  13  10.390286  -1.401358   7.215051  -0.002127   0.412182  -0.005161
 185  13  10.528418   0.302673   7.759078  -0.001236   0.392554  -0.003149
 186  13  11.931009  -1.163631   6.911691  -0.001093   0.314043  -0.003480
 187  13  10.728261  -2.301495   5.595311  -0.000763   0.353299  -0.002160
 188  13   9.553793   0.012790   7.530122  -0.002218   0.490692  -0.004520
 189  13  11.180313  -0.628407   7.570035  -0.001681   0.412182  -0.004078
 190  13  11.048191  -1.901745   6.606557  -0.001409   0.314043  -0.004487
 191  13   9.797118  -2.146013   5.749123  -0.001570   0.392554  -0.003999
 192  13   9.499172  -1.372094   6.909099  -0.002380   0.392554  -0.006062
 193  13  11.787760  -1.880653   6.053305  -0.000426   0.274788  -0.001552
 194  14   4.407469   5.558596  -1.488199  -0.001973   0.451437  -0.004370
 195  14   3.523320   4.373241  -1.802776  -0.000702   0.294415  -0.002386
 196  14   5.299001   3.783524  -1.645925  -0.000771   0.333671  -0.002312
 197  14   4.624726   6.591641   0.279424  -0.000584   0.392554  -0.001487
 198  14   2.807971   5.848100  -0.550259  -0.000539   0.353299  -0.001526
 199  14   4.398021   4.127837  -1.913819  -0.001111   0.412182  -0.002696
 200  14   5.419318   4.976111  -1.467145  -0.001824   0.412182  -0.004426
 201  14   5.110163   6.141677  -0.658816  -0.001729   0.412182  -0.004194
 202  14   3.742999   6.387477  -0.412910  -0.001122   0.451437  -0.002486
 203  14   3.160731   5.295637  -1.363039  -0.001148   0.451437  -0.002544
 204  15   2.821271   5.492774   5.744802  -0.001658   0.392554  -0.004224
 205  15   2.591242   3.983711   6.012206  -0.000811   0.412182  -0.001968
 206  15   1.554574   5.433154   4.609937  -0.000774   0.314043  -0.002463
 207  15   3.084504   6.641297   4.006530  -0.000449   0.314043  -0.001431
 208  15   4.107644   6.585995   4.171624  -0.000513   0.294415  -0.001743
 209  15   3.554358   4.358945   6.206255  -0.001553   0.451437  -0.003441
 210  15   1.895387   4.771594   5.514686  -0.000963   0.392554  -0.002454
 211  15   2.415385   6.090557   4.925880  -0.001302   0.353299  -0.003686
 212  15   3.675304   6.317644   5.050347  -0.001466   0.372926  -0.003932
 213  15   3.871659   5.558051   5.794468  -0.001416   0.294415  -0.004808
 214  15   2.068470   6.206862   3.960979  -0.000415   0.314043  -0.001322
 215  16  13.199496   5.474972   8.150924  -0.003641   0.490692  -0.007421
 216  16  12.427433   3.621777   8.414050  -0.001838   0.392554  -0.004683
 217  16  12.445379   6.418934   6.600315  -0.001879   0.372926  -0.005037
 218  16  14.473891   5.920490   7.078725  -0.002063   0.353299  -0.005840
 219  16  14.451698   4.140104   8.177575  -0.001221   0.372926  -0.003274
 220  16  11.987410   4.592268   8.232778  -0.003432   0.471065  -0.007286
 221  16  12.144036   5.765227   7.636719  -0.003433   0.451437  -0.007605
 222  16  13.473905   6.389668   6.956128  -0.002612   0.490692  -0.005324
 223  16  14.450244   5.213756   7.859616  -0.002744   0.451437  -0.006078
 224  16  13.460995   4.111448   8.543460  -0.002696   0.471065  -0.005723
 225  17  -2.096453   3.678374   0.858313  -0.003271   0.588831  -0.005555
 226  17  -1.317659   2.763373  -0.786492  -0.000630   0.372926  -0.001690
 227  17  -0.487467   4.361799  -0.106490  -0.000855   0.353299  -0.002420
 228  17  -1.022671   4.466098   2.156508  -0.000959   0.353299  -0.002714
 229  17  -2.153118   2.778035   2.495712  -0.000694   0.372926  -0.001860
 230  17  -2.365517   1.775499   0.725352  -0.000877   0.412182  -0.002127
 231  17  -1.229866   3.768523  -0.368250  -0.001825   0.490692  -0.003719
 232  17  -0.997621   4.631918   0.984689  -0.001854   0.490692  -0.003779
 233  17  -1.776606   3.805182   2.306049  -0.001590   0.471065  -0.003375
 234  17  -2.492366   2.451728   1.560878  -0.001661   0.471065  -0.003527
 235  17  -2.075533   2.455670  -0.106702  -0.001728   0.490692  -0.003521
 236  18   0.442412  -1.258853   5.217207  -0.002243   0.451437  -0.004969
 237  18   1.832145  -2.166099   4.029907  -0.000903   0.333671  -0.002706
 238  18   0.214291  -2.099251   3.648575  -0.000676   0.353299  -0.001915
 239  18  -0.818261  -0.411988   4.584260  -0.000683   0.372926  -0.001830
 240  18   0.574193   0.695491   5.634362  -0.000695   0.372926  -0.001865
 241  18   1.565534  -1.382508   5.259621  -0.002202   0.412182  -0.005342
 242  18   1.002794  -2.175553   4.198913  -0.001326   0.392554  -0.003379
 243  18  -0.443709  -1.445555   4.227747  -0.001457   0.471065  -0.003093
 244  18  -0.178492  -0.076061   5.341444  -0.001526   0.471065  -0.003240
 245  18   1.312166  -0.107048   5.785674  -0.002177   0.490692  -0.004437
 246  19   1.978341  -1.522229  -1.799690  -0.002242   0.451437  -0.004966
 247  19   2.716500  -2.307240  -0.056604  -0.000792   0.353299  -0.002243
 248  19   2.962231   0.283895  -2.125847  -0.001074   0.353299  -0.003039
 249  19   1.010273  -0.140353  -2.148876  -0.000660   0.372926  -0.001770
 250  19   0.641381  -1.752132  -0.944529  -0.000837   0.412182  -0.002030
 251  19   2.884978  -1.916546  -1.084279  -0.001995   0.412182  -0.004841
 252  19   3.091399  -0.918571  -1.863592  -0.002155   0.412182  -0.005229
 253  19   2.055110  -0.064827  -2.346859  -0.001363   0.431809  -0.003157
 254  19   0.843795  -1.064443  -1.784473  -0.001355   0.431809  -0.003137
 255  19   1.607334  -2.321362  -0.515922  -0.001340   0.510320  -0.002626
 256  20  16.402332   0.618546  -0.509815  -0.003586   0.471065  -0.007613
 257  20  14.700466   2.003275  -0.874604  -0.001926   0.392554  -0.004907
 258  20  16.599618  -0.223319   0.841479  -0.001615   0.392554  -0.004114
 259  20  17.507561   1.493456  -0.127638  -0.001875   0.372926  -0.005028
 260  20  15.940339   2.617679  -0.955057  -0.001473   0.392554  -0.003752
 261  20  15.088496   0.655868  -0.606513  -0.003166   0.392554  -0.008065
 262  20  15.663843  -0.274688   0.395215  -0.003394   0.490692  -0.006916
 263  20  17.356344   0.508313   0.418688  -0.002111   0.412182  -0.005121
 264  20  16.918582   2.049283  -0.700604  -0.002335   0.412182  -0.005664
 265  20  15.720040   1.526047  -1.019784  -0.002520   0.372926  -0.006757
 266  21  18.807661   5.679405   4.390711  -0.004911   0.608459  -0.008072
 267  21  18.227133   4.540324   5.762021  -0.001869   0.412182  -0.004533
 268  21  17.130827   6.203997   5.120305  -0.001721   0.353299  -0.004870
 269  21  17.693776   6.499020   3.121786  -0.001409   0.353299  -0.003989
 270  21  19.040650   4.931878   2.578643  -0.001647   0.333671  -0.004937
 271  21  19.334063   3.693908   4.047546  -0.001316   0.333671  -0.003943
 272  21  17.826631   5.555575   5.552936  -0.003083   0.490692  -0.006283
 273  21  17.608657   6.539755   4.171364  -0.002803   0.490692  -0.005712
 274  21  18.577610   5.882263   2.862564  -0.003027   0.510320  -0.005931
 275  21  19.382553   4.610067   3.508940  -0.003137   0.490692  -0.006393
 276  21  19.019328   4.250101   5.023676  -0.003232   0.549575  -0.005880
 277   1   6.420033   1.732418   6.513831  -0.000004   0.028755  -0.000148
 278   2   6.830508   2.008937   6.567225   0.000023   0.028755   0.000804
 279   8   6.346454   1.439265   6.550658  -0.000032   0.028755  -0.001114
 280   1   8.113227   1.691371  -0.578140   0.000018   0.028382   0.000617
 281   2   8.504131   1.968373  -0.443026   0.000028   0.028382   0.000976
 282   9   8.060193   1.398509  -0.642317  -0.000022   0.028382  -0.000778
 283   1   6.505889   2.414987   6.497451   0.000025   0.027980   0.000886
 284   2   6.897569   2.690662   6.632987  -0.000008   0.027980  -0.000278
 285  10   6.953294   2.980716   6.706196  -0.000038   0.027980  -0.001374
 286   1   8.012082   2.633792  -0.543651   0.000032   0.027362   0.001185
 287   2   8.421436   2.912070  -0.491190   0.000018   0.027362   0.000645
 288  11   8.503946   3.203577  -0.517517  -0.000022   0.027362  -0.000799
 289   2   8.596018   2.447212  -0.489839   0.000170   0.108267   0.001574
 290   1   7.947828   2.158462  -0.639777   0.000181   0.108267   0.001671
 291   2   6.921904   2.437626   6.663010   0.000076   0.055013   0.001388
 292   1   6.380595   1.985880   6.534995   0.000082   0.055013   0.001491
 293   1   8.187500  -1.819191   2.128342   0.000136   0.068485   0.001983
 294   3   8.998927  -1.741331   2.321445   0.000133   0.068485   0.001937
 295   9   8.146737  -1.807109   1.825121  -0.000028   0.068485  -0.000413
 296   1   8.293291  -1.771968   4.063056   0.000162   0.068545   0.002356
 297   3   9.104767  -1.856154   4.253299   0.000035   0.068545   0.000505
 298  13   9.144826  -1.854466   4.556837  -0.000128   0.068545  -0.001872
 299   3   9.195798  -1.964481   3.475263   0.000708   0.456512   0.001552
 300   1   8.096855  -1.954632   2.902067   0.001046   0.456512   0.002292
 301   1   4.499774   1.700364   6.060941   0.000022   0.028715   0.000754
 302   4   4.100262   1.964142   5.923358   0.000039   0.028715   0.001346
 303   8   4.558530   1.409448   6.128930  -0.000017   0.028715  -0.000593
 304   1   6.156863   1.666887  -1.039655   0.000012   0.028670   0.000402
 305   4   5.738269   1.931052  -1.095438   0.000034   0.028670   0.001174
 306   9   6.239458   1.375614  -1.071973  -0.000021   0.028670  -0.000746
 307   1   6.099111   2.427780  -1.016751   0.000036   0.027946   0.001272
 308   4   5.699551   2.691214  -1.154767   0.000007   0.027946   0.000238
 309  14   5.634642   2.979387  -1.227153  -0.000022   0.027946  -0.000792
 310   1   4.520630   2.556553   6.010701   0.000040   0.027937   0.001428
 311   4   4.102497   2.821503   5.955382   0.000023   0.027937   0.000837
 312  15   4.015023   3.111505   5.982970  -0.000015   0.027937  -0.000528
 313   4   5.663498   2.404806  -1.188911   0.000117   0.071231   0.001644
 314   1   6.208372   1.953857  -1.059204   0.000132   0.071231   0.001856
 315   4   3.973415   2.405083   5.961772   0.000166   0.090396   0.001834
[...]
 511   6   1.003901   4.531359  -0.244457   0.000109   0.052966   0.002058
 512   4   1.599236   4.924888  -0.176689   0.000126   0.052966   0.002384
 513   4   3.194592   1.342628   5.593789   0.000068   0.167211   0.000408
 514   8   3.716498   0.823760   5.751592  -0.000121   0.167211  -0.000722
 515  18   2.665217   0.800035   5.524165  -0.000098   0.167211  -0.000584
 516   8   4.422766   1.081968   6.160327  -0.000140   0.131498  -0.001068
 517   4   3.602887   1.789911   5.873125   0.000312   0.185439   0.001681
 518   4   4.692449   1.217378  -1.167929   0.000078   0.167417   0.000464
 519   9   5.238380   0.707612  -1.073667  -0.000065   0.167417  -0.000391
 520  19   4.182872   0.667709  -1.303988  -0.000138   0.167417  -0.000824
 521   9   5.987701   0.904138  -1.157847  -0.000213   0.155488  -0.001367
 522   4   5.319796   1.801918  -1.257661   0.000397   0.219220   0.001812
 523   4   5.857162   6.188736   1.320209   0.000090   0.089904   0.001004
 524  11   6.863073   6.121231   1.286889   0.000191   0.089904   0.002127
 525  14   5.807061   6.177804   1.017217  -0.000084   0.089904  -0.000939
 526  11   7.410197   6.382758   1.437736   0.000066   0.040098   0.001644
 527   4   5.924775   6.389749   1.536632   0.000238   0.057019   0.004179
 528  14   5.189619   3.170493  -1.491612  -0.000081   0.071944  -0.001126
 529  14   4.314422   3.141748  -1.686634  -0.000070   0.071944  -0.000968
 530   4   4.735079   2.765895  -1.455576  -0.000202   0.156682  -0.001288
 531  14   2.345961   5.420889  -0.405965  -0.000058   0.068362  -0.000849
 532  14   2.885000   6.138303   0.227428  -0.000186   0.151196  -0.001228
 533  14   4.023778   6.562764   0.765114  -0.000050   0.151196  -0.000330
 534  14   5.108256   6.450489   0.898283  -0.000066   0.068362  -0.000972
 535   4   2.239378   5.622533   0.143936  -0.000062   0.150434  -0.000413
 536   4   3.220968   6.427746   0.929686   0.000207   0.150434   0.001373
 537   4   4.666519   6.527210   1.289937   0.000144   0.150434   0.000960
 538  15   4.495574   6.493155   3.729585  -0.000038   0.068672  -0.000550
 539  15   3.458173   6.611122   3.374087  -0.000095   0.152015  -0.000625
 540  15   2.187903   6.203097   3.380377  -0.000208   0.152015  -0.001371
 541  15   1.416480   5.504115   3.744831  -0.000077   0.068672  -0.001129
 542   4   4.266903   6.555947   3.182192   0.000135   0.150988   0.000891
 543   4   2.800769   6.468812   2.882680   0.000186   0.150988   0.001234
 544   4   1.560889   5.686744   3.195591  -0.000067   0.150988  -0.000442
 545  15   2.638017   3.276881   5.832612  -0.000066   0.071190  -0.000925
 546  15   3.504106   3.308227   6.025630  -0.000084   0.071190  -0.001180
 547   4   3.110688   2.897129   5.815532  -0.000181   0.155389  -0.001168
 548  17  -0.181273   4.707836   2.188547  -0.000212   0.195194  -0.001087
 549  17   0.120339   4.741349   0.821856  -0.000972   0.398739  -0.002438
 550   4   0.894279   5.267085   1.934019   0.000833   0.535430   0.001555
 551   4   1.256682   5.164205   0.387023   0.000683   0.274867   0.002483
 552  18   1.929497   0.949022   5.606004  -0.000214   0.143415  -0.001490
 553   4   2.580625   1.875321   5.665379   0.000374   0.202105   0.001850
 554  19   3.479480   0.865206  -1.725040  -0.000193   0.127771  -0.001514
 555   4   4.279213   1.624705  -1.465211   0.000326   0.180076   0.001812
 556   5  12.433569   5.847007   2.042204   0.001147   0.096992   0.011826
 557   7  12.813005   5.803462   1.842382   0.001673   0.096992   0.017254
 558  11  11.507197   5.777406   1.673018   0.000623   0.096992   0.006425
 559   5  15.024794   5.988079   5.896540  -0.000048   0.011367  -0.004241
 560   7  15.377216   5.970937   5.651640  -0.000022   0.011367  -0.001917
 561  16  14.850869   5.978351   6.140740  -0.000072   0.011367  -0.006309
 562   5  15.642201   4.710353   6.807136  -0.000041   0.011367  -0.003604
 563   7  15.987463   4.708029   6.551675  -0.000022   0.011367  -0.001939
 564  16  15.412934   4.815154   6.969715  -0.000053   0.011367  -0.004642
 565   7  13.657307   6.283908   2.288724   0.003122   0.220471   0.014163
 566   7  14.874006   6.412029   4.250191   0.002361   0.460585   0.005127
 567   5  13.600069   6.387922   3.370348   0.005319   0.460585   0.011548
 568   5  14.824021   6.271320   5.328018   0.000222   0.220471   0.001007
 569   7  16.393919   4.201144   6.550850   0.000247   0.188346   0.001310
 570   7  16.432233   2.195170   6.485763   0.003868   0.385719   0.010029
 571   7  15.768879   0.172574   5.293118   0.005245   0.385719   0.013597
 572   5  15.914971   3.410795   6.898984   0.001422   0.385719   0.003687
 573   5  15.676468   1.041624   6.366556   0.005201   0.385719   0.013484
 574   5  14.943499  -0.335171   5.102900   0.001907   0.188346   0.010127
 575   5  11.361114   6.099553   5.560438  -0.000107   0.083669  -0.001279
 576  10  10.377585   6.016070   5.569752  -0.000008   0.083669  -0.000096
 577  16  11.452124   6.073038   5.848158  -0.000304   0.083669  -0.003639
 578  10   9.815320   6.290327   5.380665   0.000028   0.084943   0.000330
 579   5  11.268488   6.329162   5.259734   0.000295   0.120523   0.002445
 580  11  10.657283   6.275415   1.922114   0.000085   0.267569   0.000319
 581   5  12.052824   6.190574   2.432908   0.002370   0.379866   0.006238
 582  13  12.523269  -0.784754   6.607030  -0.000312   0.165797  -0.001882
 583  13  11.923228   0.012177   7.341876  -0.001266   0.337087  -0.003755
 584  13  11.096397   0.885764   7.639100  -0.000408   0.165797  -0.002461
 585   5  13.226059   0.110689   6.941499   0.000535   0.457391   0.001170
 586   5  12.205207   1.305858   7.679891  -0.000125   0.457391  -0.000274
 587  16  14.419685   6.187081   6.279907  -0.000297   0.072339  -0.004110
 588  16  13.329691   6.491110   5.977654  -0.000562   0.162866  -0.003453
 589  16  12.165674   6.362421   5.958092  -0.000296   0.072339  -0.004086
 590   5  14.153457   6.342662   5.752403  -0.000478   0.156430  -0.003054
 591   5  12.588520   6.464399   5.528970  -0.000395   0.156430  -0.002526
 592  16  11.806763   3.261581   7.999424  -0.000406   0.069309  -0.005864
 593  16  12.882542   3.040047   8.245214  -0.000678   0.154529  -0.004387
 594  16  14.193314   3.384298   8.133921  -0.000545   0.154529  -0.003526
 595  16  15.010320   4.320626   7.581828  -0.000747   0.154529  -0.004836
 596   5  12.138541   2.764712   7.962559  -0.000731   0.151270  -0.004831
 597   5  13.657442   2.734760   8.120427  -0.000334   0.151270  -0.002206
 598   5  14.921761   3.495676   7.726244  -0.000253   0.151270  -0.001674
 599   5  15.453975   4.450362   7.136028  -0.000191   0.084676  -0.002261
 600   6   3.093700  -1.827725   3.418213   0.000090   0.087367   0.001028
 601   8   3.957642  -1.707779   3.880240   0.000187   0.087367   0.002143
 602  18   2.913003  -1.816160   3.665531  -0.000100   0.087367  -0.001144
 603   8   4.524342  -1.932003   3.975768   0.000077   0.050889   0.001506
 604   6   3.272139  -2.024235   3.235999   0.000298   0.072205   0.004133
 605   6   3.702091  -1.862585   0.922481   0.000098   0.088116   0.001112
 606   9   4.686239  -1.741752   0.856205   0.000175   0.088116   0.001984
 607  19   3.642474  -1.867987   0.621826  -0.000036   0.088116  -0.000404
 608   9   5.240333  -1.953467   0.966445   0.000014   0.009514   0.001441
 609   6   3.779314  -2.036021   1.065100   0.000084   0.013508   0.006192
 610  14   3.579952   3.343145  -1.705635  -0.000161   0.214579  -0.000749
 611  14   2.617860   4.424437  -1.175521  -0.001079   0.441448  -0.002444
 612   6   2.385593   2.997340  -1.576789   0.000950   0.585646   0.001622
 613   6   1.375099   4.212998  -0.820397   0.000768   0.302261   0.002542
 614  15   1.173652   4.930506   4.166763  -0.000194   0.215925  -0.000900
 615  15   1.675470   3.889020   5.201444  -0.001149   0.444478  -0.002584
 616   6   0.533505   3.857439   4.223471   0.000940   0.589102   0.001596
 617   6   1.247497   2.653312   5.296585   0.000701   0.304168   0.002304
 618  17   0.120706   4.266376  -0.283648  -0.000090   0.069819  -0.001283
 619  17  -0.297677   3.405651  -0.874599  -0.000226   0.155374  -0.001457
 620  17  -1.037061   2.265529  -0.902005  -0.000218   0.155374  -0.001404
 621  17  -1.770011   1.444140  -0.104872  -0.000218   0.155374  -0.001402
 622  17  -2.186457   1.288970   1.179579  -0.000299   0.155374  -0.001925
 623  17  -2.110223   1.865663   2.407964  -0.000159   0.155374  -0.001025
 624  17  -1.573559   2.930251   3.060622  -0.000247   0.155374  -0.001591
 625  17  -0.803499   4.032365   2.861448  -0.000338   0.155374  -0.002174
 626   6   0.370006   3.878674  -0.669191  -0.000150   0.152708  -0.000981
 627   6  -0.326318   2.621536  -1.184577   0.000015   0.152708   0.000096
 628   6  -1.200776   1.456542  -0.727416   0.000126   0.152708   0.000827
 629   6  -1.883434   0.876538   0.508893  -0.000070   0.152708  -0.000459
 630   6  -2.085495   1.126892   2.001334   0.000017   0.152708   0.000112
 631   6  -1.721478   2.101693   3.118536   0.000107   0.152708   0.000701
 632   6  -0.945380   3.388555   3.387871  -0.000044   0.152708  -0.000289
 633   6  -0.235332   4.316572   2.968774   0.000011   0.085299   0.000132
 634  18   1.207655   1.169992   5.560223  -0.000105   0.066908  -0.001564
 635  18   0.173071   1.103159   5.263081  -0.000265   0.147466  -0.001797
 636  18  -0.779611   0.500057   4.604173  -0.000111   0.147466  -0.000755
 637  18  -1.041356  -0.511801   3.821147  -0.000216   0.147466  -0.001464
 638  18  -0.510892  -1.540913   3.216969  -0.000237   0.147466  -0.001606
 639  18   0.606539  -2.189100   3.025402  -0.000156   0.147466  -0.001059
 640  18   1.878585  -2.205571   3.320566  -0.000130   0.147466  -0.000879
 641   6   0.839718   1.573700   5.338532  -0.000102   0.147718  -0.000692
 642   6  -0.477175   1.240235   4.783589   0.000044   0.147718   0.000296
 643   6  -1.195079   0.285557   3.931196   0.000053   0.147718   0.000359
 644   6  -1.036226  -0.920954   3.111155   0.000040   0.147718   0.000270
 645   6  -0.062079  -1.912483   2.640753   0.000043   0.147718   0.000291
 646   6   1.350451  -2.305393   2.701995   0.000185   0.147718   0.001252
 647   6   2.461564  -2.132816   3.092831   0.000143   0.081742   0.001751
 648  19   2.965296  -2.178171   0.536792  -0.000045   0.067335  -0.000665
 649  19   1.898387  -2.354427   0.448363  -0.000091   0.148596  -0.000612
 650  19   0.730311  -2.029967  -0.057073  -0.000216   0.148596  -0.001452
 651  19   0.124006  -1.181974  -0.856098  -0.000255   0.148596  -0.001715
 652  19   0.317007  -0.142670  -1.635675  -0.000139   0.148596  -0.000937
 653  19   1.233701   0.680770  -2.090382  -0.000178   0.148596  -0.001196
 654  19   2.514949   0.965743  -2.042078  -0.000312   0.148596  -0.002100
 655   6   2.546803  -2.260139   0.946215   0.000154   0.148480   0.001036
 656   6   1.103323  -2.261162   0.639061   0.000158   0.148480   0.001063
 657   6   0.053745  -1.567634  -0.132552  -0.000025   0.148480  -0.000171
 658   6  -0.190732  -0.451264  -1.066323   0.000053   0.148480   0.000355
 659   6   0.465672   0.650582  -1.796424   0.000190   0.148480   0.001281
 660   6   1.765795   1.306228  -2.036819   0.000015   0.148480   0.000104
 661   6   2.945694   1.385672  -1.847828  -0.000004   0.082265  -0.000043
 662  11  11.053705   5.917895   1.084269   0.000264   0.253090   0.001042
 663  11  11.061011   5.091008   0.294182   0.000112   0.506744   0.000222
 664  11  10.936382   4.026104  -0.103910   0.000196   0.253090   0.000775
 665   7  13.000048   5.530821   0.940059   0.006795   0.747735   0.009087
 666   7  12.914386   4.149559   0.072529   0.004807   0.747735   0.006428
 667   7  13.415772   2.205302  -0.079113  -0.000023   0.082048  -0.000280
 668  12  12.687469   1.613337   0.043929  -0.000048   0.082048  -0.000586
 669  20  13.612228   2.002627  -0.186238  -0.000219   0.082048  -0.002667
 670   7  14.828885  -0.537215   1.880881   0.000004   0.082048   0.000048
 671  12  13.923844  -0.786173   1.758786  -0.000035   0.082048  -0.000429
 672  20  14.893444  -0.483910   1.590815  -0.000236   0.082048  -0.002880
 673  12  12.133345   1.485123  -0.067351  -0.000001   0.020957  -0.000061
 674   7  13.236906   2.337266  -0.172700   0.000094   0.029633   0.003181
 675  12  13.494995  -1.201389   1.943597  -0.000100   0.104896  -0.000949
 676   7  14.795422  -0.779656   2.246094   0.000525   0.148294   0.003542
 677   7  16.180607   5.182392   6.141410  -0.000059   0.010963  -0.005377
 678  16  15.568556   5.202706   6.514471  -0.000076   0.010963  -0.006945
 679  21  16.436391   5.249827   6.005255  -0.000089   0.010963  -0.008143
 680   7  15.954998   5.654864   5.806724  -0.000056   0.010963  -0.005103
 681  16  15.369617   5.619324   6.219349  -0.000076   0.010963  -0.006902
 682  21  16.233829   5.674033   5.704758  -0.000078   0.010963  -0.007142
 683  16  15.272812   5.044530   7.020234  -0.000364   0.090975  -0.004006
 684   7  16.137892   5.019896   6.380918   0.000003   0.128681   0.000026
 685  16  14.910970   5.839196   6.470595  -0.000402   0.095289  -0.004214
 686   7  15.687439   5.915778   5.729218   0.000048   0.134778   0.000358
 687  20  14.155730   2.379787  -0.517308  -0.000195   0.069187  -0.002817
 688  20  15.111491   2.936415  -0.736999  -0.000499   0.154453  -0.003230
 689  20  16.463784   3.021961  -0.597976  -0.000670   0.154453  -0.004341
 690  20  17.523772   2.378841  -0.033917  -0.000733   0.154453  -0.004749
 691  20  17.836087   1.283339   0.712860  -0.000816   0.154453  -0.005280
 692  20  17.266559   0.206081   1.321541  -0.000597   0.154453  -0.003864
 693  20  16.059855  -0.390146   1.530637  -0.000454   0.154453  -0.002941
 694   7  14.312880   2.954770  -0.469470  -0.000111   0.150797  -0.000738
 695   7  15.749005   3.467772  -0.592349  -0.000273   0.150797  -0.001809
 696   7  17.182951   3.136330  -0.174412  -0.000560   0.150797  -0.003713
 697   7  17.998696   2.102832   0.604796  -0.000632   0.150797  -0.004192
 698   7  17.845799   0.811266   1.410529  -0.000481   0.150797  -0.003191
 699   7  16.789944  -0.183513   1.896644  -0.000243   0.150797  -0.001615
 700   7  15.597512  -0.535578   1.951325  -0.000028   0.084527  -0.000334
 701  21  17.004457   5.135133   5.960947  -0.000301   0.065323  -0.004604
 702  21  17.633686   4.269132   5.992559  -0.000524   0.144226  -0.003632
 703  21  18.454510   3.452962   5.407879  -0.000389   0.144226  -0.002699
 704  21  19.057387   3.199306   4.288087  -0.000526   0.144226  -0.003645
 705  21  19.209205   3.606244   3.066167  -0.000687   0.144226  -0.004763
 706  21  18.851261   4.516426   2.214592  -0.000781   0.144226  -0.005418
 707  21  18.121960   5.577918   2.062636  -0.000573   0.144226  -0.003972
 708  21  17.303297   6.380278   2.669056  -0.000492   0.144226  -0.003411
 709  21  16.711820   6.613262   3.799369  -0.000343   0.144226  -0.002379
 710  21  16.576232   6.186782   5.016524  -0.000655   0.144226  -0.004541
 711   7  16.907723   4.594167   6.153336  -0.000501   0.143894  -0.003484
 712   7  17.819367   3.483281   5.912055  -0.000116   0.143894  -0.000805
 713   7  18.660955   2.850878   4.904495  -0.000230   0.143894  -0.001598
 714   7  19.107075   2.941487   3.520246  -0.000441   0.143894  -0.003067
 715   7  18.985229   3.720072   2.294547  -0.000565   0.143894  -0.003926
 716   7  18.342529   4.885582   1.701333  -0.000508   0.143894  -0.003533
 717   7  17.427485   5.987355   1.969978  -0.000345   0.143894  -0.002399
 718   7  16.593913   6.599375   2.996608  -0.000077   0.143894  -0.000537
 719   7  16.164125   6.484995   4.384261  -0.000225   0.143894  -0.001562
 720   7  16.185040   5.933200   5.429447  -0.000247   0.079806  -0.003094
 721  13   8.581089   0.199824   7.068125  -0.000106   0.251147  -0.000424
 722  13   8.634408  -0.886142   6.711484  -0.000907   0.502232  -0.001805
 723  13   8.835352  -1.772584   5.653943  -0.000567   0.502232  -0.001130
 724   8   7.115997  -0.197427   6.656188  -0.000420   0.502232  -0.000836
 725   8   7.238151  -1.396188   5.954332  -0.000379   0.502232  -0.000755
 726   8   7.433892  -1.917598   4.954745   0.000312   0.251147   0.001241
 727  18   2.797314  -1.930167   4.094401   0.000282   0.249498   0.001129
 728  18   2.580641  -1.365641   5.042726  -0.000411   0.498877  -0.000825
 729  18   2.418607  -0.156317   5.669704  -0.000396   0.498877  -0.000794
 730   8   4.210055  -1.706410   4.793173  -0.000056   0.498877  -0.000113
 731   8   3.976932  -0.783004   5.780490  -0.000382   0.498877  -0.000766
 732   8   3.888697   0.298104   6.077771   0.000090   0.249498   0.000363
 733  12   9.894319  -1.831591   1.384098   0.000139   0.249997   0.000557
 734  12  10.081951  -1.262956   0.422359  -0.000744   0.499902  -0.001488
 735  12  10.193300  -0.043058  -0.216017  -0.000715   0.499902  -0.001431
 736   9   8.478441  -1.663561   0.697612  -0.000202   0.499902  -0.000405
 737   9   8.668711  -0.732432  -0.304821  -0.000488   0.499902  -0.000976
 738   9   8.713722   0.358049  -0.608659   0.000058   0.249997   0.000230
 739  19   4.031966   0.116902  -1.608249   0.000012   0.252576   0.000047
 740  19   3.993828  -0.957245  -1.249683  -0.000523   0.505028  -0.001036
 741  19   3.797078  -1.835821  -0.202121  -0.000059   0.505028  -0.000117
 742   9   5.527303  -0.245950  -1.168925  -0.000275   0.505028  -0.000544
 743   9   5.418658  -1.432307  -0.469821  -0.000268   0.505028  -0.000531
 744   9   5.221322  -1.950323   0.518376   0.000306   0.252576   0.001211
 745  15   4.636414   4.193524   6.201889   0.000142   0.248287   0.000571
 746  15   4.717207   5.244257   5.878780  -0.000269   0.496386  -0.000542
 747  15   4.961589   6.130205   4.895840   0.000010   0.496386   0.000019
 748  10   6.179070   4.601915   6.481485  -0.000264   0.496386  -0.000532
 749  10   6.339697   5.772150   5.836858  -0.000297   0.496386  -0.000598
 750  10   6.571721   6.309559   4.902876   0.000352   0.248287   0.001417
 751  16  11.392564   6.172686   6.275635  -0.000072   0.242249  -0.000296
 752  16  11.169817   5.579588   7.130163  -0.001245   0.484253  -0.002571
 753  16  11.007422   4.409453   7.675025  -0.001266   0.484253  -0.002614
 754  10   9.759121   6.008435   6.240190  -0.000352   0.484253  -0.000727
 755  10   9.521438   5.080803   7.120796  -0.000652   0.484253  -0.001347
 756  10   9.434519   4.050200   7.369600  -0.000039   0.242249  -0.000161
 757  14   5.886102   6.308735   0.584243   0.000370   0.250404   0.001477
 758  14   6.136825   5.778918  -0.361399  -0.000195   0.500633  -0.000389
 759  14   6.334672   4.603929  -1.011954  -0.000147   0.500633  -0.000294
 760  11   7.499130   6.179313   0.584964  -0.000001   0.500633  -0.000002
 761  11   7.773018   5.296905  -0.409674  -0.000303   0.500633  -0.000605
 762  11   7.886411   4.238687  -0.733901   0.000135   0.250404   0.000539
 763  20  14.880109  -0.569945   1.130982  -0.000124   0.257805  -0.000482
 764  20  14.493138  -0.004808   0.149317  -0.001681   0.515704  -0.003259
 765  20  13.918521   1.213100  -0.401823  -0.001300   0.515704  -0.002520
 766  12  13.388769  -0.916192   0.960793  -0.001136   0.515704  -0.002203
 767  12  12.856500   0.014103  -0.023322  -0.001317   0.515704  -0.002554
 768  12  12.392890   1.099743  -0.221418  -0.000103   0.257805  -0.000398
 769  21  16.485213   5.633434   5.892626  -0.000047   0.184108  -0.000255
 770  16  15.310480   5.513634   6.721997  -0.000075   0.184108  -0.000405
 =====================================================

              4277583  WORDS OF DYNAMIC MEMORY USED
 EXECUTION OF GAMESS TERMINATED NORMALLY Tue Nov 22 23:40:59 2016
 DDI: 263640 bytes (0.3 MB / 0 MWords) used by master data server.

 ----------------------------------------
 CPU timing information for all processes
 ========================================
 0: 1824.172 + 0.648 = 1824.820
 ----------------------------------------
 ddikick.x: exited gracefully.
