----- GAMESS execution script -----

          ******************************************************
          *         GAMESS VERSION =  5 DEC 2014 (R1)          *
          *             FROM IOWA STATE UNIVERSITY             *
          * M.W.SCHMIDT, K.K.BALDRIDGE, J.A.BOATZ, S.T.ELBERT, *
          *   M.S.GORDON, J.H.JENSEN, S.KOSEKI, N.MATSUNAGA,   *
          *          K.A.NGUYEN, S.J.SU, T.L.WINDUS,           *
          *       TOGETHER WITH M.DUPUIS, J.A.MONTGOMERY       *
          *         J.COMPUT.CHEM.  14, 1347-1363(1993)        *
          **************** 64 BIT LINUX VERSION ****************

 EXECUTION OF GAMESS BEGUN Tue Nov 22 23:30:18 2016

            ECHO OF THE FIRST FEW INPUT CARDS -
 INPUT CARD>! SELECT RESTRICTED HARTREE-FOCK AS DEFAULT                                     
 INPUT CARD>$contrl scftyp=rhf $end                                                         
 INPUT CARD>                                                                                
 INPUT CARD>! THEORY: HF OR DFT                                                             
 INPUT CARD> $contrl mplevl=0 $end                                                          
 INPUT CARD>                                                                                
 INPUT CARD> $system timlim=10000 mwords=20 $end                                            
 INPUT CARD> $SCF DIRSCF=.TRUE. $end                                                        
 INPUT CARD>                                                                                
 INPUT CARD>                                                                                
 INPUT CARD>! BASIS SETS                                                                    
 INPUT CARD>! 6-311G(d,p)                                                                   
 INPUT CARD> $BASIS GBASIS=N311 NGAUSS=6 NDFUNC=1 NPFUNC=1 $END                             
 INPUT CARD>                                                                                
 INPUT CARD>! One of the following                                                          
 INPUT CARD> $guess guess=HUCKEL $end                                                       
 INPUT CARD>                                                                                
 INPUT CARD> $statpt projct=.FALSE. $end                                                    
 INPUT CARD> $STATPT IFREEZ(1)=1,2,3 $END                                                   
 INPUT CARD>                                                                                
 INPUT CARD>! Optimize the geometry with COSMO effects                                      
 INPUT CARD> $statpt opttol=0.0005 nstep=50 $end                                            
 INPUT CARD> $contrl nzvar=1 $end                                                           
 INPUT CARD> $zmat dlc=.t. auto=.t. $end                                                    
 INPUT CARD> $contrl runtyp=OPTIMIZE maxit=200 $end                                         
 INPUT CARD>                                                                                
 INPUT CARD>! Run COSMO on perfect conductor                                                
 INPUT CARD> $COSGMS PRFCND=.TRUE. $end                                                     
 INPUT CARD>                                                                                
 INPUT CARD>! Specifying RSOLV                                                              
 INPUT CARD> $COSGMS COSRAD = 1.4 $end                                                      
 INPUT CARD>                                                                                
 INPUT CARD>! available memory                                                              
 INPUT CARD> $SYSTEM MWORDS=40 $END                                                         
 INPUT CARD>                                                                                
 INPUT CARD> $DATA                                                                          
 INPUT CARD>http://cactus.nci.nih.gov/chemical/structure/1-HEXANAL/file?format=sdf&get3d=Tru
 INPUT CARD>C1                                                                              
 INPUT CARD>C      6.0      2.5513000000    0.2321000000   -0.3096000000                    
 INPUT CARD>C      6.0      1.2679000000   -0.5556000000   -0.2510000000                    
 INPUT CARD>C      6.0      0.0851000000    0.4057000000   -0.1167000000                    
 INPUT CARD>C      6.0     -1.2178000000   -0.3941000000   -0.0572000000                    
 INPUT CARD>C      6.0     -2.4006000000    0.5672000000    0.0771000000                    
 INPUT CARD>C      6.0     -3.7035000000   -0.2326000000    0.1366000000                    
 INPUT CARD>O      8.0      3.4406000000   -0.0035000000    0.4727000000                    
 INPUT CARD>H      1.0      2.6774000000    1.0044000000   -1.0540000000                    
 INPUT CARD>H      1.0      1.1587000000   -1.1406000000   -1.1642000000                    
 INPUT CARD>H      1.0      1.2914000000   -1.2251000000    0.6088000000                    
 INPUT CARD>H      1.0      0.1944000000    0.9907000000    0.7965000000                    
 INPUT CARD>H      1.0      0.0616000000    1.0752000000   -0.9765000000                    
   40000000 WORDS OF MEMORY AVAILABLE

     BASIS OPTIONS
     -------------
     GBASIS=N311         IGAUSS=       6      POLAR=POPN311 
     NDFUNC=       1     NFFUNC=       0     DIFFSP=       F
     NPFUNC=       1      DIFFS=       F     BASNAM=        


     RUN TITLE
     ---------
 http://cactus.nci.nih.gov/chemical/structure/1-HEXANAL/file?format=sdf&get3d=Tru

 THE POINT GROUP OF THE MOLECULE IS C1      
 THE ORDER OF THE PRINCIPAL AXIS IS     0

 ATOM      ATOMIC                      COORDINATES (BOHR)
           CHARGE         X                   Y                   Z
 C           6.0     4.8212579125        0.4386054018       -0.5850591658
 C           6.0     2.3959835798       -1.0499317588       -0.4743212229
 C           6.0     0.1608156816        0.7666618332       -0.2205310228
 C           6.0    -2.3013083078       -0.7447410118       -0.1080923265
 C           6.0    -4.5364762061        1.0718525802        0.1456978737
 C           6.0    -6.9986001955       -0.4395502647        0.2581365699
 O           8.0     6.5017912334       -0.0066140410        0.8932734744
 H           1.0     5.0595523595        1.8980407821       -1.9917711911
 H           1.0     2.1896255020       -2.1554214616       -2.2000189949
 H           1.0     2.4403921405       -2.3151033076        1.1504651813
 H           1.0     0.3673627320        1.8721515360        1.5051667492
 H           1.0     0.1164071208        2.0318333820       -1.8453174270
 H           1.0    -2.5076663857       -1.8502307146       -1.8337900985
 H           1.0    -2.2568997471       -2.0099125605        1.5166940777
 H           1.0    -4.3301181283        2.1775312557        1.8713956456
 H           1.0    -4.5808847668        2.3370241290       -1.4790885306
 H           1.0    -8.5908833128        0.8547230642        0.4387943743
 H           1.0    -7.2049582734       -1.5450399676       -1.4675612021
 H           1.0    -6.9541916348       -1.7047218135        1.8829229742

          INTERNUCLEAR DISTANCES (ANGS.)




     $CONTRL OPTIONS
     ---------------
 SCFTYP=RHF          RUNTYP=OPTIMIZE     EXETYP=RUN     
 MPLEVL=       0     CITYP =NONE         CCTYP =NONE         VBTYP =NONE    
 DFTTYP=NONE         TDDFT =NONE    
 MULT  =       1     ICHARG=       0     NZVAR =       1     COORD =UNIQUE  
 PP    =NONE         RELWFN=NONE         LOCAL =NONE         NUMGRD=       F
 ISPHER=      -1     NOSYM =       0     MAXIT =     200     UNITS =ANGS    
 PLTORB=       F     MOLPLT=       F     AIMPAC=       F     FRIEND=        
 NPRINT=       7     IREST =       0     GEOM  =INPUT   
 NORMF =       0     NORMP =       0     ITOL  =      20     ICUT  =       9
 INTTYP=BEST         GRDTYP=BEST         QMTTOL= 1.0E-06

     $SYSTEM OPTIONS
     ---------------
  REPLICATED MEMORY=    40000000 WORDS (ON EVERY NODE).
 DISTRIBUTED MEMDDI=           0 MILLION WORDS IN AGGREGATE,
 MEMDDI DISTRIBUTED OVER   1 PROCESSORS IS           0 WORDS/PROCESSOR.
 TOTAL MEMORY REQUESTED ON EACH PROCESSOR=    40000000 WORDS.
 TIMLIM=       10000.00 MINUTES, OR       6.9 DAYS.
 PARALL= F  BALTYP=  DLB     KDIAG=    0  COREFL= F
 MXSEQ2=     300 MXSEQ3=     150  mem10=         0

     $COSGMS OPTIONS
     ---------------
     EPSI  =   INFTY     NSPA  =      92     COSRAD=    1.40
     DISEX =   10.00     OUTCHG=DBLCAV       COSBUG=       F
     COSWRT=       F     DCOSMO=       F

     SYMMETRY COORDINATES WILL NOT BE USED FOR 
     THE COSMO CALCULATION, EVEN IF SPECIFIED:
         -- SWITCHING TO C1 POINT GROUP --


     DEFINITION OF CAVITY
     ---------------------------
     ATOM         COORDINATES           RADIUS 
     1    4.8213    0.4386   -0.5851    2.0000
     2    2.3960   -1.0499   -0.4743    2.0000
     3    0.1608    0.7667   -0.2205    2.0000
     4   -2.3013   -0.7447   -0.1081    2.0000
     5   -4.5365    1.0719    0.1457    2.0000
     6   -6.9986   -0.4396    0.2581    2.0000
     7    6.5018   -0.0066    0.8933    1.7200
     8    5.0596    1.8980   -1.9918    1.3000
     9    2.1896   -2.1554   -2.2000    1.3000
    10    2.4404   -2.3151    1.1505    1.3000
    11    0.3674    1.8722    1.5052    1.3000
    12    0.1164    2.0318   -1.8453    1.3000
    13   -2.5077   -1.8502   -1.8338    1.3000
    14   -2.2569   -2.0099    1.5167    1.3000
    15   -4.3301    2.1775    1.8714    1.3000
    16   -4.5809    2.3370   -1.4791    1.3000
    17   -8.5909    0.8547    0.4388    1.3000
    18   -7.2050   -1.5450   -1.4676    1.3000
    19   -6.9542   -1.7047    1.8829    1.3000

          ----------------
          PROPERTIES INPUT
          ----------------

     MOMENTS            FIELD           POTENTIAL          DENSITY
 IEMOM =       1   IEFLD =       0   IEPOT =       0   IEDEN =       0
 WHERE =COMASS     WHERE =NUCLEI     WHERE =NUCLEI     WHERE =NUCLEI  
 OUTPUT=BOTH       OUTPUT=BOTH       OUTPUT=BOTH       OUTPUT=BOTH    
 IEMINT=       0   IEFINT=       0                     IEDINT=       0
                                                       MORB  =       0
          EXTRAPOLATION IN EFFECT
          SOSCF IN EFFECT
 ORBITAL PRINTING OPTION: NPREO=     1   205     2     1

     -------------------------------
     INTEGRAL TRANSFORMATION OPTIONS
     -------------------------------
     NWORD  =            0
     CUTOFF = 1.0E-09     MPTRAN =       0
     DIRTRF =       T     AOINTS =DUP     

          ----------------------
          INTEGRAL INPUT OPTIONS
          ----------------------
 NOPK  =       1 NORDER=       0 SCHWRZ=       T


 -----------------------------------------------
  STATISTICS ON AUTOMATIC COORDINATE GENERATION 
 -----------------------------------------------
  NUMBER OF USER SPECIFIED BONDS                             0
  NUMBER OF BONDS                                           18
  NUMBER OF ANGLES                                          33
  NUMBER OF TORSIONS                                        42
  NUMBER OF EXTRA COORD.                                     0
  NUMBER OF EXTRA COORD. FOR CONSTRAINTS                     0
  NUMBER OF CONSTRAINED COORD.                               0

  TOTAL NUMBER OF PRIMITIVES                                93
 -----------------------------------------------

   --- ENCODED Z MATRIX ---
 COORD  TYPE   I   J   K   L   M   N
    1      1    1   7
    2      1    1   2
    3      1    1   8
    4      1    2   3
    5      1    2   9
    6      1    2  10
    7      1    3   4
    8      1    3  12
    9      1    3  11
   10      1    4  14
   11      1    4  13
   12      1    4   5
   13      1    5  16
   14      1    5  15
   15      1    5   6
   16      1    6  19
   17      1    6  18
   18      1    6  17
   19      2    1   2  10
   20      2    1   2   3
   21      2    1   2   9
   22      2    2   1   8
   23      2    2   3  12
   24      2    2   3  11
   25      2    2   1   7
   26      2    2   3   4
   27      2    3   4  14
   28      2    3   2  10
   29      2    3   4   5
   30      2    3   4  13
   31      2    3   2   9
   32      2    4   3  11
   33      2    4   5   6
   34      2    4   3  12
   35      2    4   5  15
   36      2    4   5  16
   37      2    5   6  17
   38      2    5   6  18
   39      2    5   6  19
   40      2    5   4  13
   41      2    5   4  14
   42      2    6   5  15
   43      2    6   5  16
   44      2    7   1   8
   45      2    9   2  10
   46      2   11   3  12
   47      2   13   4  14
   48      2   15   5  16
   49      2   17   6  18
   50      2   17   6  19
   51      2   18   6  19
   52      3    1   2   3  11
   53      3    1   2   3  12
   54      3    1   2   3   4
   55      3    2   3   4   5
   56      3    2   3   4  13
   57      3    2   3   4  14
   58      3    3   2   1   7
   59      3    3   4   5   6
   60      3    3   4   5  15
   61      3    3   4   5  16
   62      3    3   2   1   8
   63      3    4   5   6  17
   64      3    4   5   6  18
   65      3    4   5   6  19
   66      3    4   3   2  10
   67      3    4   3   2   9
   68      3    5   4   3  11
   69      3    5   4   3  12
   70      3    6   5   4  13
   71      3    6   5   4  14
   72      3    7   1   2   9
   73      3    7   1   2  10
   74      3    8   1   2   9
   75      3    8   1   2  10
   76      3    9   2   3  12
   77      3    9   2   3  11
   78      3   10   2   3  12
   79      3   10   2   3  11
   80      3   11   3   4  14
   81      3   11   3   4  13
   82      3   12   3   4  14
   83      3   12   3   4  13
   84      3   13   4   5  16
   85      3   13   4   5  15
   86      3   14   4   5  16
   87      3   14   4   5  15
   88      3   15   5   6  19
   89      3   15   5   6  18
   90      3   15   5   6  17
   91      3   16   5   6  19
   92      3   16   5   6  18
   93      3   16   5   6  17

          INDEP./SYM. INTERNAL COORDINATES
          --------------------------------
 CRD  1=   0.3048 ( 20)  0.1379 ( 23)  0.1402 ( 24) -0.4828 ( 26) -0.1500 ( 27)
           0.4867 ( 29) -0.1422 ( 30)  0.1406 ( 32) -0.3389 ( 33)  0.1512 ( 34)
           0.1125 ( 35)  0.1106 ( 36) -0.1417 ( 40) -0.1412 ( 41)
 CRD  2=  -0.1646 (  2) -0.2408 (  4) -0.3392 (  7) -0.2604 ( 12) -0.2247 ( 15)
           0.1686 ( 19) -0.4188 ( 20)  0.1289 ( 21) -0.1214 ( 22) -0.1506 ( 29)
          -0.4531 ( 33)  0.1157 ( 35)  0.1180 ( 36) -0.1201 ( 38)  0.1669 ( 42)
           0.1378 ( 43)
 CRD  3=   0.1055 (  4)  0.1061 (  7)  0.1081 ( 12)  0.1134 ( 19) -0.1076 ( 21)
          -0.1668 ( 22)  0.1951 ( 25)  0.1166 ( 26)  0.1004 ( 27)  0.1803 ( 29)
          -0.1946 ( 30)  0.1265 ( 32) -0.1715 ( 34) -0.1273 ( 38)  0.1423 ( 39)
          -0.1012 ( 40)  0.1050 ( 42) -0.1200 ( 43) -0.1281 ( 52) -0.1591 ( 53)
          -0.3504 ( 54)  0.2367 ( 55)  0.1040 ( 56)  0.1120 ( 58) -0.3428 ( 59)
          -0.2069 ( 60) -0.1899 ( 61)  0.1049 ( 63) -0.2040 ( 66) -0.1883 ( 67)
          -0.1530 ( 70) -0.1219 ( 71)
 CRD  4=  -0.1931 (  4) -0.1791 (  7) -0.1976 ( 12)  0.2675 ( 20)  0.1379 ( 23)
           0.1850 ( 24) -0.4305 ( 26)  0.1298 ( 27) -0.1083 ( 28) -0.3789 ( 29)
          -0.1424 ( 31)  0.1441 ( 32)  0.2872 ( 33) -0.1121 ( 35) -0.1329 ( 36)
          -0.1259 ( 37)  0.1267 ( 40)  0.1699 ( 41) -0.1088 ( 54)  0.1013 ( 55)
          -0.1270 ( 59) -0.1040 ( 61)
 CRD  5=   0.1460 (  2)  0.1420 (  4) -0.1000 ( 12) -0.1605 ( 15) -0.1686 ( 19)
           0.3321 ( 20)  0.1315 ( 22) -0.1600 ( 23)  0.1117 ( 24)  0.2327 ( 26)
          -0.2069 ( 29)  0.1815 ( 30) -0.1935 ( 31) -0.1939 ( 32) -0.2860 ( 33)
           0.1903 ( 35) -0.1048 ( 39) -0.1209 ( 40)  0.1556 ( 41)  0.1354 ( 43)
           0.2698 ( 55)  0.1062 ( 56)  0.1811 ( 57)  0.1395 ( 58)  0.1080 ( 63)
           0.1309 ( 64)  0.1093 ( 68)  0.1896 ( 69)  0.1009 ( 82)
 CRD  6=   0.1315 (  2)  0.1264 (  4) -0.1326 ( 15)  0.3073 ( 20) -0.1587 ( 21)
           0.1523 ( 23) -0.1630 ( 24)  0.1587 ( 26)  0.2066 ( 27) -0.2152 ( 28)
          -0.1843 ( 29) -0.2128 ( 33) -0.1993 ( 34)  0.1918 ( 36) -0.1276 ( 38)
           0.1869 ( 40) -0.1461 ( 41)  0.1488 ( 42) -0.2952 ( 55) -0.1907 ( 56)
          -0.1300 ( 57) -0.1073 ( 58) -0.1609 ( 62) -0.1097 ( 63) -0.1164 ( 64)
          -0.1444 ( 65) -0.2024 ( 68) -0.1336 ( 69)
 CRD  7=   0.1448 ( 19) -0.1442 ( 21) -0.3132 ( 22)  0.3868 ( 25)  0.3430 ( 38)
          -0.3535 ( 39) -0.1462 ( 42)  0.1449 ( 43)  0.1069 ( 50) -0.1923 ( 52)
          -0.1681 ( 53) -0.2321 ( 54)  0.2367 ( 59) -0.1122 ( 63)  0.1802 ( 70)
           0.1783 ( 71)
 CRD  8=   0.1650 (  4)  0.1085 ( 12) -0.6103 ( 15)  0.1401 ( 29)  0.1185 ( 33)
          -0.4515 ( 37) -0.1721 ( 42) -0.1893 ( 43)  0.2397 ( 49)  0.2198 ( 50)
           0.1049 ( 51)  0.1024 ( 84) -0.1034 ( 87) -0.1036 ( 89)
 CRD  9=   0.2568 (  2) -0.2268 (  4)  0.3476 (  7) -0.4658 ( 12) -0.1127 ( 18)
          -0.3578 ( 37)  0.1307 ( 38)  0.2022 ( 39) -0.1542 ( 40) -0.1504 ( 41)
          -0.1380 ( 44) -0.1333 ( 51)  0.1213 ( 80) -0.1198 ( 83)
 CRD 10=  -0.1194 (  1) -0.3413 (  2) -0.1201 ( 12)  0.1095 ( 17) -0.1986 ( 19)
           0.1150 ( 22) -0.3201 ( 25)  0.1236 ( 27)  0.2256 ( 28) -0.1023 ( 31)
          -0.1222 ( 35)  0.1115 ( 36) -0.1193 ( 37)  0.3946 ( 38) -0.2540 ( 39)
          -0.1338 ( 41)  0.2051 ( 44) -0.1078 ( 49)  0.1455 ( 50)  0.1013 ( 57)
           0.1414 ( 58)  0.1215 ( 62) -0.1564 ( 63) -0.1199 ( 64) -0.1059 ( 65)
          -0.1591 ( 66)
 CRD 11=   0.1236 (  1)  0.2709 (  2)  0.2207 ( 21) -0.1069 ( 23)  0.1637 ( 24)
           0.2345 ( 25)  0.2126 ( 28) -0.3100 ( 31)  0.1036 ( 34) -0.2327 ( 35)
           0.2411 ( 36)  0.1377 ( 40)  0.1561 ( 42) -0.1775 ( 43) -0.1623 ( 44)
           0.1286 ( 56)  0.2230 ( 58)  0.2491 ( 62) -0.1841 ( 63) -0.1950 ( 64)
          -0.2051 ( 65) -0.1224 ( 68) -0.1212 ( 69)
 CRD 12=  -0.1891 (  2) -0.1235 (  3)  0.4529 (  4) -0.2035 (  7) -0.1071 ( 10)
          -0.2794 ( 12)  0.2015 ( 15) -0.2068 ( 22)  0.1399 ( 24)  0.1182 ( 25)
           0.1334 ( 28) -0.1605 ( 32) -0.2047 ( 37)  0.3607 ( 39)  0.1103 ( 42)
          -0.1799 ( 51)  0.1027 ( 60)  0.1065 ( 67) -0.1052 ( 81)  0.1092 ( 82)
 CRD 13=  -0.4038 (  2) -0.1263 (  3) -0.1047 (  4) -0.1375 (  5)  0.4116 (  7)
           0.1118 ( 11) -0.1240 ( 15) -0.1550 ( 21) -0.2821 ( 22) -0.1110 ( 23)
           0.1863 ( 30)  0.1646 ( 34)  0.1605 ( 37) -0.3151 ( 38)  0.2166 ( 44)
           0.1259 ( 51) -0.1403 ( 53)  0.1215 ( 61)  0.1140 ( 67)  0.1071 ( 77)
          -0.1123 ( 78)
 CRD 14=  -0.3138 (  4) -0.2102 (  7) -0.2032 (  8)  0.2069 ( 12)  0.1399 ( 13)
           0.1324 ( 19)  0.1375 ( 20) -0.1772 ( 21) -0.1475 ( 23)  0.1519 ( 26)
          -0.2031 ( 27) -0.2327 ( 28) -0.1443 ( 32) -0.1056 ( 33)  0.2435 ( 36)
          -0.2074 ( 37)  0.1612 ( 38)  0.1478 ( 39)  0.1423 ( 41)  0.1646 ( 42)
          -0.1433 ( 43)  0.1038 ( 46) -0.1358 ( 51) -0.1263 ( 52)  0.1092 ( 60)
           0.1155 ( 61) -0.1043 ( 62) -0.1238 ( 64) -0.1008 ( 65) -0.1169 ( 71)
 CRD 15=   0.2244 (  4)  0.1883 (  5)  0.1155 (  9)  0.1267 ( 10) -0.1563 ( 11)
          -0.1577 ( 12) -0.1138 ( 13) -0.1271 ( 16)  0.1867 ( 19) -0.1114 ( 20)
          -0.1372 ( 21)  0.2108 ( 24) -0.1595 ( 28)  0.2980 ( 31) -0.1512 ( 32)
           0.2015 ( 34) -0.1691 ( 35)  0.1396 ( 37) -0.3021 ( 39)  0.1206 ( 42)
          -0.1383 ( 43) -0.1155 ( 49)  0.1162 ( 55)  0.1167 ( 57) -0.1879 ( 58)
          -0.1224 ( 59) -0.1740 ( 62)  0.1316 ( 66)  0.1227 ( 67) -0.1202 ( 70)
 CRD 16=  -0.1114 (  4)  0.1017 ( 14) -0.1030 ( 21) -0.1014 ( 22) -0.2645 ( 23)
           0.2089 ( 24)  0.2599 ( 27) -0.2753 ( 30) -0.2286 ( 32)  0.2100 ( 34)
           0.1717 ( 35) -0.1023 ( 36)  0.3018 ( 40) -0.2674 ( 41) -0.1591 ( 42)
           0.1707 ( 43)  0.1627 ( 56)  0.1409 ( 57) -0.1594 ( 60) -0.1554 ( 61)
           0.1255 ( 66)  0.1349 ( 67) -0.1763 ( 68) -0.2009 ( 69)  0.1185 ( 70)
           0.1098 ( 71)
 CRD 17=  -0.1411 (  4) -0.3150 (  7) -0.1757 (  8) -0.1001 (  9) -0.2426 ( 10)
          -0.1513 ( 11) -0.3430 ( 12) -0.1067 ( 13) -0.2039 ( 14)  0.2006 ( 26)
          -0.1007 ( 27)  0.2577 ( 29) -0.1058 ( 30) -0.1119 ( 32)  0.2304 ( 33)
          -0.1400 ( 35) -0.1317 ( 36)  0.2082 ( 37) -0.2256 ( 38) -0.1376 ( 41)
           0.1149 ( 46)  0.1576 ( 47)  0.1304 ( 48)  0.1388 ( 51)
 CRD 18=  -0.2257 (  1)  0.1189 (  2)  0.2838 (  3)  0.1268 (  4)  0.2346 (  6)
           0.2313 (  9)  0.1541 ( 11)  0.1900 ( 13) -0.1333 ( 14)  0.1154 ( 16)
          -0.1041 ( 17)  0.1444 ( 19) -0.1311 ( 20)  0.2991 ( 22)  0.1287 ( 24)
          -0.2549 ( 25) -0.1037 ( 26) -0.1519 ( 38)  0.1937 ( 39)  0.1038 ( 49)
          -0.1371 ( 52) -0.1592 ( 53) -0.1916 ( 54)  0.1111 ( 56)  0.1680 ( 59)
           0.1189 ( 70)  0.1371 ( 71)
 CRD 19=   0.1179 (  1) -0.1439 (  3)  0.2860 (  5) -0.3427 (  6) -0.2077 (  8)
           0.1945 (  9)  0.1655 ( 10) -0.1695 ( 11)  0.3219 ( 13) -0.3231 ( 14)
          -0.1070 ( 34)  0.1528 ( 52)  0.1562 ( 53)  0.1209 ( 55)  0.1022 ( 56)
           0.1034 ( 57) -0.1738 ( 58) -0.1094 ( 62) -0.1441 ( 63) -0.1201 ( 64)
          -0.1201 ( 65)  0.1503 ( 70)  0.1506 ( 71)
 CRD 20=   0.5880 (  1)  0.1450 (  2)  0.5480 (  3) -0.2571 ( 22) -0.2027 ( 25)
           0.4598 ( 44)
 CRD 21=  -0.1817 ( 15) -0.5104 ( 16) -0.5103 ( 17) -0.4902 ( 18)  0.1867 ( 37)
           0.1711 ( 38)  0.1711 ( 39) -0.1802 ( 49) -0.1803 ( 50) -0.1684 ( 51)
 CRD 22=   0.2135 (  5) -0.2348 (  6) -0.3585 (  8)  0.3552 (  9) -0.3747 ( 10)
           0.3736 ( 11) -0.2578 ( 13)  0.2576 ( 14)  0.1029 ( 56)  0.1033 ( 57)
          -0.1005 ( 58)  0.1182 ( 60)  0.1183 ( 61) -0.1148 ( 66) -0.1159 ( 67)
          -0.1085 ( 68) -0.1075 ( 69)
 CRD 23=  -0.1310 ( 19)  0.1304 ( 21) -0.1464 ( 23)  0.1484 ( 24) -0.1319 ( 27)
           0.1025 ( 28)  0.1324 ( 30) -0.1081 ( 31) -0.1414 ( 32)  0.1391 ( 34)
          -0.1464 ( 40)  0.1458 ( 41) -0.1267 ( 42)  0.1266 ( 43) -0.1044 ( 56)
          -0.1041 ( 57) -0.1194 ( 58) -0.1009 ( 60) -0.1008 ( 61) -0.1009 ( 66)
          -0.1029 ( 67) -0.1015 ( 68) -0.1001 ( 69) -0.1689 ( 72) -0.1678 ( 73)
          -0.1487 ( 74) -0.1476 ( 75) -0.1838 ( 76) -0.1851 ( 77) -0.1818 ( 78)
          -0.1831 ( 79) -0.1994 ( 80) -0.1997 ( 81) -0.1980 ( 82) -0.1983 ( 83)
          -0.1734 ( 84) -0.1735 ( 85) -0.1731 ( 86) -0.1731 ( 87)
 CRD 24=  -0.6325 (  5) -0.6008 (  6) -0.2583 ( 45)  0.1013 ( 66)  0.1154 ( 72)
          -0.1258 ( 73)  0.1195 ( 74) -0.1217 ( 75) -0.1071 ( 77)  0.1104 ( 78)
 CRD 25=   0.2585 ( 13)  0.2585 ( 14)  0.2675 ( 16)  0.2699 ( 17) -0.6031 ( 18)
          -0.1496 ( 49) -0.1509 ( 50)  0.3181 ( 51) -0.1598 ( 64)  0.1601 ( 65)
           0.1897 ( 88) -0.1302 ( 89)  0.1304 ( 91) -0.1895 ( 92)
 CRD 26=  -0.5492 ( 16)  0.5482 ( 17)  0.2982 ( 49) -0.2975 ( 50) -0.2266 ( 63)
          -0.2199 ( 90) -0.2198 ( 93)
 CRD 27=  -0.3617 (  8) -0.3619 (  9)  0.4491 ( 10)  0.4489 ( 11) -0.2322 ( 13)
          -0.2320 ( 14)  0.1015 ( 16)  0.1014 ( 17) -0.1477 ( 18) -0.1212 ( 46)
           0.1484 ( 47) -0.1271 ( 81)  0.1273 ( 82)  0.1028 ( 85) -0.1023 ( 86)
 CRD 28=   0.4180 (  8)  0.4185 (  9) -0.4126 ( 13) -0.4128 ( 14)  0.1321 ( 16)
           0.1317 ( 17) -0.1691 ( 18)  0.1655 ( 46) -0.1550 ( 48) -0.1233 ( 89)
           0.1224 ( 91)
 CRD 29=   0.1009 (  7) -0.2750 (  8) -0.2760 (  9) -0.4146 ( 10) -0.4154 ( 11)
           0.1062 ( 12) -0.3081 ( 13) -0.3077 ( 14) -0.1279 ( 46) -0.1902 ( 47)
          -0.1387 ( 48) -0.1153 ( 80)  0.1163 ( 83) -0.1167 ( 84)  0.1185 ( 87)
 CRD 30=   0.1368 (  8) -0.1342 (  9)  0.1245 ( 10) -0.1220 ( 11)  0.1033 ( 28)
          -0.1195 ( 31) -0.1033 ( 35)  0.1032 ( 36)  0.1201 ( 42) -0.1207 ( 43)
          -0.1934 ( 58)  0.1062 ( 60)  0.1066 ( 61) -0.1684 ( 62)  0.1107 ( 70)
           0.1108 ( 71) -0.2780 ( 72) -0.2683 ( 73) -0.2530 ( 74) -0.2433 ( 75)
          -0.1382 ( 76) -0.1415 ( 77) -0.1403 ( 78) -0.1436 ( 79)  0.1951 ( 84)
           0.1947 ( 85)  0.1952 ( 86)  0.1948 ( 87)  0.1486 ( 88)  0.1484 ( 89)
           0.1273 ( 90)  0.1485 ( 91)  0.1484 ( 92)  0.1272 ( 93)
 CRD 31=  -0.2723 (  5)  0.2669 (  6) -0.1300 ( 10)  0.1301 ( 11)  0.1171 ( 56)
           0.1192 ( 57) -0.2051 ( 58) -0.1471 ( 62) -0.1021 ( 64) -0.1019 ( 65)
           0.1104 ( 66)  0.1114 ( 67) -0.2968 ( 72) -0.2762 ( 73) -0.2388 ( 74)
          -0.2183 ( 75)  0.1393 ( 76)  0.1345 ( 77)  0.1383 ( 78)  0.1335 ( 79)
           0.1523 ( 80)  0.1502 ( 81)  0.1574 ( 82)  0.1553 ( 83) -0.1511 ( 88)
          -0.1512 ( 89) -0.1374 ( 90) -0.1507 ( 91) -0.1508 ( 92) -0.1370 ( 93)
 CRD 32=   0.2307 (  5) -0.2281 (  6)  0.3625 (  8) -0.3617 (  9) -0.3081 ( 10)
           0.3082 ( 11)  0.1295 ( 13) -0.1294 ( 14) -0.1013 ( 52) -0.1034 ( 53)
           0.1149 ( 56)  0.1139 ( 57)  0.1258 ( 68)  0.1232 ( 69) -0.1487 ( 76)
          -0.1466 ( 77) -0.1481 ( 78) -0.1460 ( 79)  0.1967 ( 80)  0.1977 ( 81)
           0.1941 ( 82)  0.1951 ( 83)
 CRD 33=   0.1224 (  5) -0.1193 (  6)  0.1711 ( 10) -0.1710 ( 11) -0.3447 ( 13)
           0.3448 ( 14)  0.1213 ( 60)  0.1209 ( 61) -0.1630 ( 63) -0.1472 ( 64)
          -0.1473 ( 65)  0.1075 ( 70)  0.1068 ( 71)  0.1480 ( 84)  0.1483 ( 85)
           0.1472 ( 86)  0.1476 ( 87) -0.2349 ( 88) -0.2348 ( 89) -0.2505 ( 90)
          -0.2352 ( 91) -0.2351 ( 92) -0.2508 ( 93)
 CRD 34=   0.3135 (  1) -0.1334 ( 18) -0.1752 ( 19) -0.1834 ( 21)  0.1407 ( 22)
          -0.1525 ( 23) -0.1560 ( 24)  0.1032 ( 25) -0.1232 ( 27)  0.1848 ( 28)
          -0.1226 ( 30)  0.1730 ( 31)  0.1561 ( 32)  0.1543 ( 34) -0.1050 ( 37)
           0.1311 ( 40)  0.1301 ( 41)  0.1185 ( 42)  0.1193 ( 43) -0.2445 ( 44)
           0.1051 ( 49)  0.1053 ( 50)  0.1043 ( 67)  0.1783 ( 72) -0.2200 ( 75)
           0.1956 ( 77) -0.1821 ( 78)  0.1764 ( 81) -0.1752 ( 82)  0.1518 ( 85)
          -0.1542 ( 86)
 CRD 35=   0.2618 (  1) -0.1341 (  4) -0.1357 (  7) -0.1697 ( 15)  0.1702 ( 16)
           0.1701 ( 17)  0.2627 ( 18) -0.1050 ( 21)  0.1394 ( 22)  0.1158 ( 28)
           0.1102 ( 31)  0.1351 ( 35)  0.1350 ( 36)  0.2283 ( 37)  0.1947 ( 38)
           0.1948 ( 39) -0.1666 ( 42) -0.1663 ( 43) -0.2361 ( 44) -0.2314 ( 49)
          -0.2314 ( 50) -0.1549 ( 51) -0.1205 ( 60)  0.1203 ( 61)  0.1111 ( 72)
          -0.1343 ( 75) -0.1688 ( 85)  0.1680 ( 86)
 CRD 36=  -0.2102 (  1) -0.3031 (  2)  0.6724 (  3) -0.1859 (  6)  0.2995 ( 25)
          -0.2996 ( 44)  0.1393 ( 45)  0.1029 ( 67) -0.1430 ( 72)  0.1372 ( 76)
 CRD 37=   0.4781 (  1) -0.2134 (  2) -0.1749 (  3) -0.1266 (  4) -0.1548 (  5)
           0.1360 (  6)  0.1112 ( 12)  0.2540 ( 15) -0.1369 ( 16) -0.1157 ( 17)
           0.2444 ( 22)  0.1472 ( 24)  0.1203 ( 27) -0.1208 ( 32) -0.1181 ( 37)
          -0.1217 ( 38) -0.1280 ( 39) -0.1247 ( 40) -0.1224 ( 41) -0.2196 ( 44)
           0.1024 ( 49)  0.1192 ( 50)  0.1463 ( 51) -0.1107 ( 52)  0.1013 ( 57)
           0.1411 ( 75) -0.1216 ( 77) -0.1513 ( 79) -0.1346 ( 81)  0.1520 ( 82)
 CRD 38=   0.1329 (  1) -0.1400 (  2)  0.2328 (  4) -0.2608 (  5) -0.2524 ( 15)
           0.1308 ( 17) -0.1829 ( 28) -0.1375 ( 30)  0.1031 ( 38)  0.1147 ( 40)
           0.1096 ( 41) -0.1010 ( 44)  0.1686 ( 45) -0.1405 ( 51) -0.2172 ( 58)
           0.2104 ( 62) -0.2396 ( 72)  0.1879 ( 74)  0.4210 ( 75) -0.1629 ( 78)
           0.1005 ( 85) -0.1002 ( 91)
 CRD 39=   0.1561 (  1) -0.2139 (  2) -0.1260 (  4)  0.1270 (  5)  0.2270 (  7)
           0.2001 ( 12) -0.2758 ( 15)  0.1765 ( 16)  0.1225 ( 17) -0.1300 ( 18)
           0.1306 ( 19)  0.1195 ( 22)  0.1108 ( 23)  0.1122 ( 24) -0.1210 ( 32)
          -0.1715 ( 34) -0.1706 ( 35) -0.1409 ( 36)  0.1102 ( 43) -0.2129 ( 51)
           0.1223 ( 58) -0.1181 ( 62) -0.1680 ( 74) -0.1618 ( 75) -0.1123 ( 77)
           0.2124 ( 78) -0.1116 ( 80)  0.2378 ( 89)  0.1187 ( 90) -0.1948 ( 91)
          -0.1306 ( 93)
 CRD 40=   0.1257 (  8) -0.1267 (  9) -0.2268 ( 10)  0.2270 ( 11)  0.2654 ( 13)
          -0.2667 ( 14) -0.1810 ( 16)  0.1840 ( 17) -0.1420 ( 49)  0.1425 ( 50)
           0.1215 ( 63) -0.1656 ( 80) -0.1653 ( 81) -0.1648 ( 82) -0.1645 ( 83)
           0.2179 ( 84)  0.2185 ( 85)  0.2185 ( 86)  0.2190 ( 87) -0.1864 ( 88)
          -0.1843 ( 89) -0.1891 ( 91) -0.1870 ( 92)
 CRD 41=  -0.1348 (  1)  0.1099 (  3) -0.1006 (  4)  0.1842 (  6) -0.2705 (  8)
           0.2260 (  9)  0.1215 ( 10) -0.1660 ( 14) -0.1373 ( 16)  0.2300 ( 17)
          -0.1545 ( 19) -0.1387 ( 22)  0.1153 ( 25) -0.1209 ( 32) -0.1406 ( 36)
          -0.1224 ( 41) -0.1132 ( 49)  0.1771 ( 50)  0.1469 ( 54) -0.1170 ( 55)
           0.2070 ( 63)  0.1892 ( 72) -0.1287 ( 76) -0.1971 ( 77) -0.1177 ( 78)
          -0.1861 ( 79)  0.1489 ( 80)  0.1473 ( 81)  0.1314 ( 82)  0.1298 ( 83)
          -0.1101 ( 88)  0.1374 ( 90) -0.1993 ( 91) -0.1072 ( 92)
 CRD 42=  -0.1967 (  2)  0.2499 (  7) -0.1158 ( 11) -0.2044 ( 12)  0.1558 ( 13)
          -0.1128 ( 15) -0.1772 ( 16)  0.2616 ( 18)  0.1279 ( 21) -0.1283 ( 27)
          -0.1275 ( 30)  0.1056 ( 35)  0.1054 ( 40)  0.1158 ( 47) -0.2052 ( 48)
          -0.1709 ( 49)  0.1725 ( 51)  0.1307 ( 58) -0.1040 ( 62) -0.1335 ( 64)
           0.1325 ( 65) -0.1318 ( 71)  0.1492 ( 73) -0.1533 ( 74) -0.1152 ( 77)
           0.1869 ( 85) -0.2007 ( 86) -0.2650 ( 89)  0.1929 ( 91)  0.1398 ( 93)
 CRD 43=  -0.2311 (  2)  0.1818 (  4) -0.1482 (  8) -0.1721 (  9)  0.1318 ( 10)
           0.1544 ( 11) -0.2249 ( 12)  0.1857 ( 15)  0.1077 ( 41) -0.1453 ( 45)
           0.2739 ( 46) -0.2450 ( 47) -0.1076 ( 52)  0.1183 ( 53)  0.1385 ( 56)
          -0.1345 ( 57) -0.1055 ( 67)  0.1394 ( 68) -0.1365 ( 69) -0.2109 ( 77)
           0.2165 ( 78)  0.2657 ( 81) -0.2832 ( 82) -0.1581 ( 85)  0.1630 ( 86)
 CRD 44=   0.1068 (  1)  0.2689 (  4) -0.1754 (  6) -0.1597 (  7)  0.2011 ( 15)
           0.1256 ( 17) -0.1356 ( 18)  0.1537 ( 19)  0.1346 ( 22) -0.1059 ( 25)
          -0.1046 ( 28) -0.1974 ( 31) -0.1279 ( 42)  0.1488 ( 45) -0.1171 ( 46)
           0.1115 ( 48)  0.1433 ( 50) -0.1593 ( 53)  0.1854 ( 58)  0.1338 ( 61)
          -0.1102 ( 62)  0.2698 ( 73) -0.3522 ( 74)  0.1235 ( 77)  0.1262 ( 79)
          -0.1232 ( 85) -0.1303 ( 87) -0.1064 ( 91)
 CRD 45=  -0.1289 (  2)  0.1974 (  6) -0.2045 ( 10)  0.2336 ( 16) -0.1192 ( 17)
          -0.1417 ( 18)  0.1715 ( 21)  0.1016 ( 25) -0.1217 ( 30)  0.1120 ( 34)
          -0.1463 ( 39) -0.1589 ( 43)  0.1098 ( 47)  0.1999 ( 49)  0.1454 ( 52)
           0.1701 ( 54) -0.1553 ( 59) -0.1116 ( 60) -0.1693 ( 62) -0.1610 ( 63)
           0.1526 ( 64)  0.1759 ( 72)  0.1516 ( 73) -0.1947 ( 76)  0.1875 ( 84)
           0.1022 ( 85) -0.1000 ( 88) -0.2373 ( 90)  0.1802 ( 92) -0.1334 ( 93)
 CRD 46=  -0.2092 (  2)  0.2383 (  4)  0.1071 (  5) -0.2218 (  7)  0.2313 ( 12)
          -0.1740 ( 15)  0.1108 ( 19) -0.1564 ( 23) -0.1628 ( 24)  0.1102 ( 27)
           0.1507 ( 30)  0.1607 ( 32)  0.1255 ( 34) -0.1404 ( 40) -0.1625 ( 41)
          -0.1247 ( 45)  0.1070 ( 47) -0.1100 ( 48) -0.1329 ( 56)  0.1579 ( 57)
           0.1132 ( 60)  0.1145 ( 66) -0.1204 ( 67)  0.1167 ( 68) -0.1571 ( 69)
          -0.1493 ( 76)  0.1826 ( 79)  0.2880 ( 80) -0.2765 ( 83) -0.1409 ( 84)
           0.1089 ( 87)
 CRD 47=  -0.1478 (  4)  0.1490 (  5)  0.2267 (  7) -0.1572 ( 11) -0.1622 ( 12)
           0.1358 ( 15)  0.1762 ( 17) -0.1977 ( 18) -0.1387 ( 27)  0.1321 ( 35)
           0.1232 ( 36)  0.1103 ( 37) -0.1325 ( 38) -0.1666 ( 42) -0.1249 ( 45)
           0.1450 ( 47)  0.1615 ( 50) -0.1298 ( 51) -0.1002 ( 58)  0.1648 ( 62)
          -0.1697 ( 65)  0.1439 ( 70) -0.1067 ( 71) -0.2545 ( 73)  0.1997 ( 74)
           0.1101 ( 78)  0.1422 ( 84) -0.1083 ( 86) -0.2190 ( 87) -0.2403 ( 88)
           0.2040 ( 92)  0.2009 ( 93)
 CRD 48=  -0.1514 (  2) -0.1450 (  4)  0.1113 (  5)  0.1199 (  6)  0.1253 (  8)
           0.1513 ( 12) -0.1474 ( 13) -0.1149 ( 14)  0.1135 ( 15)  0.1269 ( 18)
           0.1656 ( 20)  0.1336 ( 26) -0.1664 ( 33) -0.1353 ( 37) -0.1832 ( 45)
          -0.1743 ( 46)  0.2152 ( 48)  0.1154 ( 51)  0.1278 ( 52) -0.1136 ( 53)
          -0.1084 ( 60)  0.1126 ( 61) -0.1198 ( 64)  0.1109 ( 66) -0.1424 ( 67)
          -0.1537 ( 73)  0.1611 ( 74) -0.2423 ( 76)  0.2524 ( 79)  0.1473 ( 84)
          -0.1635 ( 87)  0.2401 ( 88)  0.1648 ( 90) -0.2414 ( 92) -0.1115 ( 93)
 CRD 49=  -0.1615 (  6)  0.1338 (  7) -0.1726 (  8) -0.1185 ( 11)  0.1330 ( 12)
          -0.2001 ( 14) -0.1324 ( 17) -0.1011 ( 21) -0.1008 ( 24) -0.1121 ( 26)
           0.1180 ( 28) -0.1313 ( 29) -0.1089 ( 33)  0.1138 ( 38) -0.1077 ( 43)
           0.1135 ( 46)  0.1352 ( 47)  0.1107 ( 48) -0.2210 ( 52) -0.1571 ( 55)
          -0.1749 ( 56) -0.1199 ( 59)  0.1237 ( 61)  0.1630 ( 62)  0.1103 ( 64)
           0.1847 ( 65)  0.1586 ( 67) -0.2195 ( 71) -0.1200 ( 72)  0.1166 ( 76)
           0.2036 ( 80) -0.1071 ( 83)  0.1880 ( 84) -0.1185 ( 87) -0.1036 ( 90)
          -0.1123 ( 92) -0.2311 ( 93)
 CRD 50=  -0.1256 (  4)  0.1631 (  5) -0.1618 (  7)  0.1682 (  9)  0.1289 ( 10)
          -0.1517 ( 12)  0.1796 ( 13)  0.1106 ( 16)  0.1006 ( 20)  0.1460 ( 26)
           0.1551 ( 29)  0.1214 ( 33) -0.1470 ( 46) -0.1567 ( 47) -0.1216 ( 48)
          -0.2125 ( 53) -0.1257 ( 55) -0.1672 ( 57)  0.1247 ( 60)  0.1745 ( 62)
           0.1578 ( 64)  0.1539 ( 66) -0.1110 ( 68) -0.2045 ( 70) -0.1710 ( 73)
          -0.1408 ( 76)  0.1600 ( 79) -0.1525 ( 80)  0.2291 ( 83) -0.1469 ( 84)
           0.1991 ( 87) -0.1195 ( 88) -0.2006 ( 90)  0.1002 ( 92)
 CRD 51=  -0.1477 (  8)  0.1488 (  9) -0.1663 ( 10)  0.1667 ( 11) -0.1204 ( 13)
           0.1205 ( 14)  0.1055 ( 23) -0.1057 ( 24)  0.1362 ( 27) -0.1365 ( 30)
          -0.1331 ( 32)  0.1331 ( 34) -0.1190 ( 35)  0.1189 ( 36) -0.1270 ( 40)
           0.1271 ( 41) -0.1443 ( 52) -0.1456 ( 53) -0.2168 ( 56) -0.2174 ( 57)
          -0.2290 ( 60) -0.2292 ( 61)  0.1411 ( 62) -0.1699 ( 64) -0.1699 ( 65)
           0.2063 ( 66)  0.2041 ( 67)  0.2323 ( 68)  0.2334 ( 69)  0.1867 ( 70)
           0.1870 ( 71)  0.1130 ( 90)  0.1131 ( 93)

 THE DETERMINANT OF THE G MATRIX IS 10**(   -19)


                     --------------------
                     INTERNAL COORDINATES
                     --------------------

                 - - ATOMS - -         COORDINATE      COORDINATE
 NO.   TYPE    I  J  K  L  M  N        (BOHR,RAD)       (ANG,DEG)
 ----------------------------------------------------------------
   1 STRETCH   1  7                     2.2820780       1.2076238
   2 STRETCH   1  2                     2.8477994       1.5069906
   3 STRETCH   1  8                     2.0409739       1.0800370
   4 STRETCH   2  3                     2.8914352       1.5300817
   5 STRETCH   2  9                     2.0597874       1.0899926
   6 STRETCH   2 10                     2.0597480       1.0899718
   7 STRETCH   3  4                     2.8911997       1.5299571
   8 STRETCH   3 12                     2.0597480       1.0899718
   9 STRETCH   3 11                     2.0598063       1.0900026
  10 STRETCH   4 14                     2.0597480       1.0899718
  11 STRETCH   4 13                     2.0597874       1.0899926
  12 STRETCH   4  5                     2.8914352       1.5300817
  13 STRETCH   5 16                     2.0597480       1.0899718
  14 STRETCH   5 15                     2.0598888       1.0900463
  15 STRETCH   5  6                     2.8911997       1.5299571
  16 STRETCH   6 19                     2.0597480       1.0899718
  17 STRETCH   6 18                     2.0597874       1.0899926
  18 STRETCH   6 17                     2.0598899       1.0900468
  19 BEND      1  2 10                  1.9106744     109.4735795
  20 BEND      1  2  3                  1.9106577     109.4726232
  21 BEND      1  2  9                  1.9105700     109.4675964
  22 BEND      2  1  8                  2.0943926     119.9998570
  23 BEND      2  3 12                  1.9106330     109.4712098
  24 BEND      2  3 11                  1.9105011     109.4636487
  25 BEND      2  1  7                  2.0943722     119.9986864
  26 BEND      2  3  4                  1.9105850     109.4684545
  27 BEND      3  4 14                  1.9107198     109.4761775
  28 BEND      3  2 10                  1.9106330     109.4712098
  29 BEND      3  4  5                  1.9105850     109.4684545
  30 BEND      3  4 13                  1.9105974     109.4691669
  31 BEND      3  2  9                  1.9105796     109.4681447
  32 BEND      4  3 11                  1.9106770     109.4737285
  33 BEND      4  5  6                  1.9105850     109.4684545
  34 BEND      4  3 12                  1.9107198     109.4761775
  35 BEND      4  5 15                  1.9106233     109.4706501
  36 BEND      4  5 16                  1.9106330     109.4712098
  37 BEND      5  6 17                  1.9105190     109.4646769
  38 BEND      5  6 18                  1.9105974     109.4691669
  39 BEND      5  6 19                  1.9107198     109.4761775
  40 BEND      5  4 13                  1.9105796     109.4681447
  41 BEND      5  4 14                  1.9106330     109.4712098
  42 BEND      6  5 15                  1.9106309     109.4710839
  43 BEND      6  5 16                  1.9107198     109.4761775
  44 BEND      7  1  8                  2.0944111     120.0009190
  45 BEND      9  2 10                  1.9106847     109.4741699
  46 BEND     11  3 12                  1.9106836     109.4741038
  47 BEND     13  4 14                  1.9106847     109.4741699
  48 BEND     15  5 16                  1.9106075     109.4697478
  49 BEND     17  6 18                  1.9105519     109.4665576
  50 BEND     17  6 19                  1.9107267     109.4765740
  51 BEND     18  6 19                  1.9106847     109.4741699
  52 TORSION   1  2  3 11              -1.0472434     -60.0026294
  53 TORSION   1  2  3 12               1.0471323      59.9962586
  54 TORSION   1  2  3  4              -3.1415817    -179.9993710
  55 TORSION   2  3  4  5               3.1415927     180.0000000
  56 TORSION   2  3  4 13              -1.0473148     -60.0067182
  57 TORSION   2  3  4 14               1.0471744      59.9986718
  58 TORSION   3  2  1  7               2.1816289     124.9981262
  59 TORSION   3  4  5  6               3.1415927     180.0000000
  60 TORSION   3  4  5 15              -1.0472361     -60.0022106
  61 TORSION   3  4  5 16               1.0471213      59.9956296
  62 TORSION   3  2  1  8              -0.9646186     -55.2685760
  63 TORSION   4  5  6 17              -3.1415184    -179.9957439
  64 TORSION   4  5  6 18              -1.0473148     -60.0067182
  65 TORSION   4  5  6 19               1.0471744      59.9986718
  66 TORSION   4  3  2 10              -1.0471213     -59.9956296
  67 TORSION   4  3  2  9               1.0473039      60.0060922
  68 TORSION   5  4  3 11               1.0473622      60.0094316
  69 TORSION   5  4  3 12              -1.0471744     -59.9986718
  70 TORSION   6  5  4 13               1.0473039      60.0060922
  71 TORSION   6  5  4 14              -1.0471213     -59.9956296
  72 TORSION   7  1  2  9              -2.0072508    -115.0070013
  73 TORSION   7  1  2 10               0.0871938       4.9958359
  74 TORSION   8  1  2  9               1.1296870      64.7262965
  75 TORSION   8  1  2 10              -3.0590537    -175.2708664
  76 TORSION   9  2  3 12              -1.0471675     -59.9982781
  77 TORSION   9  2  3 11              -3.1415432    -179.9971661
  78 TORSION  10  2  3 12               3.1415927     180.0000000
  79 TORSION  10  2  3 11               1.0472170      60.0011120
  80 TORSION  11  3  4 14              -1.0470561     -59.9918966
  81 TORSION  11  3  4 13              -3.1415453    -179.9972866
  82 TORSION  12  3  4 14               3.1415927     180.0000000
  83 TORSION  12  3  4 13               1.0471035      59.9946100
  84 TORSION  13  4  5 16              -1.0471675     -59.9982781
  85 TORSION  13  4  5 15              -3.1415249    -179.9961183
  86 TORSION  14  4  5 16               3.1415927     180.0000000
  87 TORSION  14  4  5 15               1.0472352      60.0021598
  88 TORSION  15  5  6 19              -1.0471775     -59.9988519
  89 TORSION  15  5  6 18               3.1415186     179.9957581
  90 TORSION  15  5  6 17               1.0473151      60.0067324
  91 TORSION  16  5  6 19               3.1415927     180.0000000
  92 TORSION  16  5  6 18               1.0471035      59.9946100
  93 TORSION  16  5  6 17              -1.0471001     -59.9944157

     ------------------------------------------
     THE POINT GROUP IS C1 , NAXIS= 1, ORDER= 1
     ------------------------------------------

     DIMENSIONS OF THE SYMMETRY SUBSPACES ARE
 A   =  205

 ..... DONE SETTING UP THE RUN .....
 STEP CPU TIME =     0.02 TOTAL CPU TIME =        0.0 (    0.0 MIN)
 TOTAL WALL CLOCK TIME=        0.0 SECONDS, CPU UTILIZATION IS 100.00%


          -----------------------------
          STATIONARY POINT LOCATION RUN
          -----------------------------

 OBTAINING INITIAL HESSIAN, HESS=GUESS   
 DIAGONAL GUESS HESSIAN IN INTERNAL COORDS IS
     1  0.5548     2  0.3840     3  0.3531     4  0.3671     5  0.3464
     6  0.3464     7  0.3672     8  0.3464     9  0.3464    10  0.3464
    11  0.3464    12  0.3671    13  0.3464    14  0.3463    15  0.3672
    16  0.3464    17  0.3464    18  0.3463    19  0.2255    20  0.2501
    21  0.2255    22  0.2261    23  0.2241    24  0.2241    25  0.2605
    26  0.2485    27  0.2241    28  0.2241    29  0.2485    30  0.2241
    31  0.2241    32  0.2241    33  0.2485    34  0.2241    35  0.2241
    36  0.2241    37  0.2241    38  0.2241    39  0.2241    40  0.2241
    41  0.2241    42  0.2241    43  0.2241    44  0.2334    45  0.2034
    46  0.2034    47  0.2034    48  0.2034    49  0.2034    50  0.2034
    51  0.2034    52  0.2500    53  0.2500    54  0.2500    55  0.2500
    56  0.2500    57  0.2500    58  0.2500    59  0.2500    60  0.2500
    61  0.2500    62  0.2500    63  0.2500    64  0.2500    65  0.2500
    66  0.2500    67  0.2500    68  0.2500    69  0.2500    70  0.2500
    71  0.2500    72  0.2500    73  0.2500    74  0.2500    75  0.2500
    76  0.2500    77  0.2500    78  0.2500    79  0.2500    80  0.2500
    81  0.2500    82  0.2500    83  0.2500    84  0.2500    85  0.2500
    86  0.2500    87  0.2500    88  0.2500    89  0.2500    90  0.2500
    91  0.2500    92  0.2500    93  0.2500
 TRANSFORMING HESSIAN TO SYMMETRY COORDINATES

          PARAMETERS CONTROLLING GEOMETRY SEARCH ARE
          METHOD =QA                  UPHESS =BFGS    
          NNEG   =         0          NFRZ   =         3
          NSTEP  =        50          IFOLOW =         1
          HESS   =GUESS               RESTAR =         F
          IHREP  =         0          HSSEND =         F
          NPRT   =         0          NPUN   =         0
          OPTTOL = 5.000E-04          RMIN   = 1.500E-03
          RMAX   = 1.000E-01          RLIM   = 7.000E-02
          DXMAX  = 3.000E-01          PURIFY =         F
          MOVIE  =         F          TRUPD  =         T
          TRMAX  = 5.000E-01          TRMIN  = 5.000E-02
          ITBMAT =         5          STPT   =         F
          STSTEP = 1.000E-02          PROJCT=          F
          FROZEN COORD(S)=   1   2   3


      ***** EQUILIBRIUM GEOMETRY LOCATED *****
            (SUBJECT TO   3 CONSTRAINT(S))
 COORDINATES OF ALL ATOMS ARE (ANGS)
   ATOM   CHARGE       X              Y              Z
 ------------------------------------------------------------
 C           6.0   2.5567666234   0.1906690326  -0.2832907653
 C           6.0   1.2792103013  -0.5866536624  -0.2588673984
 C           6.0   0.0989568709   0.3778741816  -0.1237545317
 C           6.0  -1.2301975045  -0.3568418964  -0.0879028111
 C           6.0  -2.4246374697   0.5733418732   0.0808518293
 C           6.0  -3.7171405217  -0.2297653315   0.1551319167
 O           8.0   3.4628405823   0.0439061560   0.4768753765
 H           1.0   2.6085099057   0.9618477127  -1.0582047403
 H           1.0   1.1997008510  -1.1325877464  -1.1973698828
 H           1.0   1.3005336139  -1.3024359491   0.5558701225
 H           1.0   0.2158645040   0.9653264478   0.7845019175
 H           1.0   0.1058829254   1.0771592622  -0.9569274663
 H           1.0  -1.3491691045  -0.9291989783  -1.0066276097
 H           1.0  -1.2220069129  -1.0765599499   0.7287492379
 H           1.0  -2.2979850932   1.1686071527   0.9836090372
 H           1.0  -2.4629287247   1.2743843193  -0.7513818192
 H           1.0  -4.5879871470   0.4049366804   0.2794538852
 H           1.0  -3.8467376174  -0.8137445478  -0.7527785504
 H           1.0  -3.6772622868  -0.9227329666   0.9918973105


                     --------------------
                     INTERNAL COORDINATES
                     --------------------

                 - - ATOMS - -         COORDINATE      COORDINATE
 NO.   TYPE    I  J  K  L  M  N        (BOHR,RAD)       (ANG,DEG)
 ----------------------------------------------------------------
   1 STRETCH   1  7                     2.2521554       1.1917894
   2 STRETCH   1  2                     2.8263739       1.4956528
   3 STRETCH   1  8                     2.0682665       1.0944796
   4 STRETCH   2  3                     2.8916930       1.5302182
   5 STRETCH   2  9                     2.0572449       1.0886472
   6 STRETCH   2 10                     2.0498050       1.0847102
   7 STRETCH   3  4                     2.8707323       1.5191262
   8 STRETCH   3 12                     2.0555709       1.0877613
   9 STRETCH   3 11                     2.0559814       1.0879786
  10 STRETCH   4 14                     2.0570965       1.0885687
  11 STRETCH   4 13                     2.0578085       1.0889454
  12 STRETCH   4  5                     2.8785972       1.5232882
  13 STRETCH   5 16                     2.0575806       1.0888249
  14 STRETCH   5 15                     2.0574180       1.0887388
  15 STRETCH   5  6                     2.8790041       1.5235035
  16 STRETCH   6 19                     2.0544813       1.0871848
  17 STRETCH   6 18                     2.0546185       1.0872574
  18 STRETCH   6 17                     2.0498749       1.0847472
  19 BEND      1  2 10                  1.9160435     109.7812077
  20 BEND      1  2  3                  1.9099377     109.4313715
  21 BEND      1  2  9                  1.8848717     107.9951936
  22 BEND      2  1  8                  2.0021975     114.7174676
  23 BEND      2  3 12                  1.9099296     109.4309063
  24 BEND      2  3 11                  1.9083421     109.3399510
  25 BEND      2  1  7                  2.1833822     125.0985834
  26 BEND      2  3  4                  1.9520424     111.8437891
  27 BEND      3  4 14                  1.9080405     109.3226690
  28 BEND      3  2 10                  1.9441927     111.3940339
  29 BEND      3  4  5                  1.9750623     113.1627316
  30 BEND      3  4 13                  1.9069800     109.2619030
  31 BEND      3  2  9                  1.9133353     109.6260389
  32 BEND      4  3 11                  1.9128872     109.6003611
  33 BEND      4  5  6                  1.9270144     110.4097948
  34 BEND      4  3 12                  1.9119410     109.5461477
  35 BEND      4  5 15                  1.9118812     109.5427251
  36 BEND      4  5 16                  1.9135297     109.6371745
  37 BEND      5  6 17                  1.9586823     112.2242309
  38 BEND      5  6 18                  1.9214861     110.0930424
  39 BEND      5  6 19                  1.9202743     110.0236135
  40 BEND      5  4 13                  1.9057816     109.1932432
  41 BEND      5  4 14                  1.9034175     109.0577883
  42 BEND      6  5 15                  1.9246111     110.2720960
  43 BEND      6  5 16                  1.9249904     110.2938253
  44 BEND      7  1  8                  2.0972000     120.1607092
  45 BEND      9  2 10                  1.8944540     108.5442189
  46 BEND     11  3 12                  1.8667229     106.9553464
  47 BEND     13  4 14                  1.8611060     106.6335207
  48 BEND     15  5 16                  1.8606797     106.6090927
  49 BEND     17  6 18                  1.8904991     108.3176187
  50 BEND     17  6 19                  1.8903967     108.3117535
  51 BEND     18  6 19                  1.8804437     107.7414872
  52 TORSION   1  2  3 11              -1.0157145     -58.1961555
  53 TORSION   1  2  3 12               1.0235782      58.6467095
  54 TORSION   1  2  3  4              -3.1377133    -179.7777275
  55 TORSION   2  3  4  5               3.1167321     178.5755933
  56 TORSION   2  3  4 13              -1.0390736     -59.5345332
  57 TORSION   2  3  4 14               0.9916175      56.8154964
  58 TORSION   3  2  1  7               2.1408692     122.6627723
  59 TORSION   3  4  5  6              -3.1088617    -178.1246560
  60 TORSION   3  4  5 15              -0.9860993     -56.4993295
  61 TORSION   3  4  5 16               1.0500052      60.1608670
  62 TORSION   3  2  1  8              -0.9700035     -55.5771059
  63 TORSION   4  5  6 17               3.1377443     179.7795073
  64 TORSION   4  5  6 18              -1.0383273     -59.4917713
  65 TORSION   4  5  6 19               1.0315991      59.1062771
  66 TORSION   4  3  2 10              -1.0158038     -58.2012706
  67 TORSION   4  3  2  9               1.0813026      61.9540778
  68 TORSION   5  4  3 11               0.9973547      57.1442172
  69 TORSION   5  4  3 12              -1.0457190     -59.9152856
  70 TORSION   6  5  4 13               1.0462727      59.9470118
  71 TORSION   6  5  4 14              -0.9811555     -56.2160696
  72 TORSION   7  1  2  9              -2.0604906    -118.0574128
  73 TORSION   7  1  2 10               0.0020772       0.1190131
  74 TORSION   8  1  2  9               1.1118220      63.7027089
  75 TORSION   8  1  2 10              -3.1087956    -178.1208651
  76 TORSION   9  2  3 12              -1.0405912     -59.6214852
  77 TORSION   9  2  3 11              -3.0798839    -176.4643502
  78 TORSION  10  2  3 12              -3.1376977    -179.7768335
  79 TORSION  10  2  3 11               1.1061949      63.3803015
  80 TORSION  11  3  4 14              -1.1277598     -64.6158797
  81 TORSION  11  3  4 13               3.1247344     179.0340907
  82 TORSION  12  3  4 14               3.1123517     178.3246176
  83 TORSION  12  3  4 13               1.0816606      61.9745879
  84 TORSION  13  4  5 16              -1.0780456     -61.7674651
  85 TORSION  13  4  5 15              -3.1141502    -178.4276617
  86 TORSION  14  4  5 16              -3.1054739    -177.9305465
  87 TORSION  14  4  5 15               1.1416069      65.4092569
  88 TORSION  15  5  6 19              -1.0836134     -62.0864760
  89 TORSION  15  5  6 18               3.1296454     179.3154756
  90 TORSION  15  5  6 17               1.0225318      58.5867542
  91 TORSION  16  5  6 19              -3.1340568    -179.5682283
  92 TORSION  16  5  6 18               1.0792021      61.8337233
  93 TORSION  16  5  6 17              -1.0279116     -58.8949980

          INTERNUCLEAR DISTANCES (ANGS.)


 =====================================================
   GAMESS/COSab RESULTS
 =====================================================

   Dielectric Constant                  = INFTY
   Basic Grid Size                      =                 1082
   Number of Segments                   =                   92
   Number of Segments located on spheres=                  267
   Number of Segments of the cavity     =                  700
   Solvent Radius (rsolv)               = 1.40
   Outlying Charge Error Method         = double cavity

 =====================================================

  Total solvated Energy (a.u.)          =  -309.1435385249
  Total Energy corrected (a.u.)         =  -309.1430927825

  Outlying charge effect (a.u.)         =     0.0004457424
  Outlying charge effect (kcal/mol)     =     0.2797077988

  Dielectric Energy (a.u.)              =    -0.0131842963
  Dielectric energy corr. (a.u.)        =    -0.0127385539

  Sum of polarization charges           =     0.0247650690
  Sum of polarization charges(cor.)     =    -0.0247650690

  Total surface area of cavity (A**2)   =  160.00
  Total volume of cavity (A**3)         =  150.00

 =====================================================
 NPS=                   700
NR.  ATOM  (X, Y, Z)(a.u.)                  CHARGE(e)  AREA(A**2) SIGMA(e/A**2)
   1   1   5.723629   3.834364   0.656057  -0.000244   0.278737  -0.000876
   2   1   7.996609   1.737838  -2.074618   0.000142   0.185824   0.000766
   3   1   6.253609  -0.672917  -3.881181  -0.002709   0.418105  -0.006479
   4   1   5.736562   0.208277  -4.201709  -0.001640   0.278737  -0.005884
   5   1   7.656567   2.214740  -2.227941  -0.000431   0.185824  -0.002322
   6   1   5.737054   4.026105  -0.373110  -0.001304   0.418105  -0.003118
   7   1   6.526831  -2.884096  -1.475716  -0.000452   0.371649  -0.001215
   8   1   4.549646   4.013354   0.392012  -0.002187   0.418105  -0.005231
   9   1   6.593564   3.666543  -0.036835  -0.000158   0.185824  -0.000849
  10   1   7.623754   2.742090  -1.438239  -0.000287   0.185824  -0.001545
  11   1   7.908993   0.886522  -2.665368  -0.000603   0.418105  -0.001442
  12   1   7.143623   0.076737  -3.511653  -0.002053   0.464561  -0.004420
  13   1   5.089236  -0.538855  -4.197234  -0.001785   0.278737  -0.006406
  14   1   4.424506   2.887065   2.245660  -0.000388   0.185824  -0.002086
  15   1   4.996485   3.514025   1.540975  -0.000651   0.325193  -0.002001
  16   1   7.265486  -2.008928  -2.192806  -0.000634   0.371649  -0.001705
  17   1   6.931780  -1.381100  -3.150878  -0.002733   0.464561  -0.005882
  18   1   5.754869  -1.673045  -3.584499  -0.002600   0.325193  -0.007994
  19   1   6.110097  -3.196004  -0.583766  -0.000011   0.092912  -0.000118
  20   1   7.199569   1.031780  -3.403465  -0.000947   0.232280  -0.004076
  21   1   7.074984   3.389493  -0.810099  -0.000128   0.278737  -0.000459
  22   1   4.158597   4.076127  -0.380419  -0.001026   0.232280  -0.004418
  23   1   4.310892   0.320989  -4.278556  -0.001750   0.278737  -0.006277
  24   1   6.307398  -2.457842  -2.576013  -0.002941   0.418105  -0.007034
  25   1   4.174065   3.603218   1.290967  -0.001634   0.232280  -0.007033
  26   1   7.812370  -0.620551  -2.641806  -0.000587   0.418105  -0.001403
  27   2   4.761981  -4.058652  -0.779604  -0.000215   0.232280  -0.000926
  28   2   1.269977  -4.709351  -0.438809   0.000814   0.371649   0.002191
  29   2   2.671740  -0.617114   3.249519  -0.000262   0.139368  -0.001878
  30   2   1.415636  -4.644505  -1.371437   0.000219   0.278737   0.000785
  31   2   4.353565  -4.054350  -1.852299  -0.000236   0.418105  -0.000566
  32   2   1.930218  -0.127003  -4.106287  -0.000408   0.139368  -0.002928
  33   2   3.915740  -4.555161  -0.889813   0.000377   0.278737   0.001352
  34   2   2.393842  -4.881316  -0.713912   0.000733   0.278737   0.002631
  35   2   4.483386  -4.219272   0.093608  -0.000307   0.278737  -0.001100
  36   2   2.137335  -1.013980   3.278683  -0.000069   0.092912  -0.000745
  37   2   3.106322  -4.744549  -1.257070   0.000498   0.278737   0.001785
  38   2   2.489994  -0.147329  -4.143628  -0.000153   0.046456  -0.003296
  39   2   3.238076  -4.787478  -0.212224   0.000345   0.185824   0.001856
  40   3  -0.484755   4.433164  -0.270583   0.001085   0.325193   0.003337
  41   3  -0.108589   0.221743  -3.969430  -0.000015   0.092912  -0.000167
  42   3  -0.228130   4.383932   0.568663   0.000900   0.278737   0.003229
  43   3   0.010479  -0.094829   3.453795   0.000040   0.185824   0.000217
  44   3   1.607687   4.216197  -0.265474   0.000444   0.185824   0.002390
  45   3   0.735813   4.453046  -0.178040   0.001345   0.325193   0.004135
  46   3  -0.393922   0.497278  -3.962100   0.000007   0.046456   0.000143
  47   3   1.419657   4.218180   0.463289   0.000374   0.139368   0.002680
  48   3   0.624024  -0.105142   3.429768  -0.000002   0.046456  -0.000045
  49   4  -3.478357  -4.273176  -0.124134   0.001038   0.232280   0.004470
  50   4  -1.983871  -0.249097   3.573849   0.000119   0.092912   0.001276
  51   4  -3.346995  -4.248483  -0.847797   0.001027   0.232280   0.004421
  52   4  -2.851118   0.209061  -3.802970   0.000198   0.139368   0.001417
  53   4  -1.474230  -4.355802  -0.253602   0.000922   0.232280   0.003970
  54   4  -2.436498  -4.449075  -0.318052   0.001732   0.325193   0.005326
  55   4  -2.310031  -0.472360   3.607921   0.000061   0.046456   0.001316
  56   4  -1.823557  -4.313905  -1.052995   0.000563   0.139368   0.004040
  57   4  -2.293356   0.166792  -3.850635   0.000055   0.046456   0.001180
  58   5  -5.616793   4.717453   0.066660   0.001652   0.371649   0.004445
  59   5  -4.974755   0.565352  -3.570311   0.000150   0.092912   0.001618
  60   5  -5.082042   4.743039   0.953827   0.001266   0.278737   0.004541
  61   5  -4.568505   0.331473   3.856650   0.000241   0.139368   0.001727
  62   5  -3.230260   4.607149  -0.049692   0.001044   0.232280   0.004497
  63   5  -4.237804   4.847143   0.177533   0.001969   0.371649   0.005298
  64   5  -6.258303   4.389516   0.890345   0.001044   0.325193   0.003211
  65   5  -6.889934   3.904437   1.152482   0.000310   0.139368   0.002227
  66   5  -6.717245   4.109322  -0.601386   0.000505   0.185824   0.002715
  67   5  -7.183487   3.613434  -0.903282   0.000073   0.046456   0.001578
  68   5  -5.267832   0.832318  -3.555401   0.000085   0.046456   0.001823
  69   5  -6.536607   3.835905   1.852048   0.000410   0.185824   0.002205
  70   5  -3.433953   4.625834   0.799410   0.000580   0.139368   0.004164
  71   5  -4.010760   0.294510   3.804583   0.000079   0.046456   0.001703
  72   5  -6.850546   4.106209   0.129296   0.000561   0.232280   0.002417
  73   6  -7.928852  -4.095588   0.047526   0.002335   0.418105   0.005585
  74   6  -7.526901   1.000036   3.753597   0.000817   0.278737   0.002933
  75   6  -8.300962   1.664024  -2.579492   0.000825   0.278737   0.002960
  76   6 -10.205882  -1.304642  -1.551992   0.001887   0.418105   0.004514
  77   6  -9.834717  -1.892170   2.357242   0.001495   0.371649   0.004022
  78   6  -6.210324  -4.101077  -0.125825   0.001814   0.325193   0.005578
  79   6 -10.214952  -0.867616   2.272180   0.001557   0.371649   0.004190
  80   6 -10.502388  -0.461241  -1.185669   0.001162   0.278737   0.004170
  81   6  -9.096977   1.491903  -2.212588   0.001014   0.278737   0.003636
  82   6  -8.477519   1.278465   3.332788   0.000983   0.278737   0.003526
  83   6  -6.956496  -4.147412  -0.408023   0.000785   0.185824   0.004225
  84   6  -6.964353  -4.210709   0.429394   0.000898   0.185824   0.004832
  85   6  -8.444991   2.315647  -1.875834   0.000539   0.185824   0.002899
  86   6  -8.888032   0.503577  -2.858297   0.001400   0.325193   0.004304
  87   6  -9.800461  -0.297040  -2.267858   0.001803   0.325193   0.005543
  88   6 -10.583203  -1.568519  -0.283260   0.001486   0.464561   0.003200
  89   6 -10.364466  -1.934090   1.230324   0.001362   0.464561   0.002933
  90   6  -9.429135  -0.802245   3.185532   0.001967   0.371649   0.005293
  91   6  -8.314549   0.400467   3.746122   0.000898   0.232280   0.003868
  92   6  -7.113132   0.190144   4.019618   0.001022   0.325193   0.003142
  93   6  -7.886401   0.842453  -3.158133   0.000972   0.325193   0.002990
  94   6  -9.937630  -2.524381  -0.901952   0.001325   0.418105   0.003168
  95   6  -9.111374  -3.534687  -0.268620   0.001530   0.418105   0.003660
  96   6  -8.836999  -3.704553   0.843922   0.001728   0.464561   0.003720
  97   6  -9.597645  -2.844797   1.653838   0.000985   0.325193   0.003030
  98   6 -10.708101  -1.155339   0.733953   0.000778   0.278737   0.002791
  99   6  -9.661120   0.599782  -2.209391   0.001322   0.278737   0.004742
 100   6  -8.226797   2.783612  -1.282977   0.000127   0.092912   0.001368
 101   6  -8.026230   1.962827   3.038113   0.000657   0.232280   0.002827
 102   6  -9.264312   0.293581   3.249032   0.001464   0.325193   0.004502
 103   6  -6.161584  -0.107789   3.958297   0.000128   0.092912   0.001374
 104   6  -7.104195   0.430329  -3.385234   0.000357   0.139368   0.002562
 105   6  -9.987443  -2.779433   0.358579   0.001152   0.464561   0.002479
 106   6  -8.433200  -0.308783   3.797961   0.001026   0.232280   0.004419
 107   7   8.960691  -0.376548   3.025364   0.004897   0.377948   0.012957
 108   7   7.839225  -2.859198   1.381025   0.003688   0.274871   0.013419
 109   7   5.978799  -1.450086   3.710992   0.004874   0.274871   0.017732
 110   7   6.539681   1.853391   3.626999   0.003700   0.343589   0.010769
 111   7   8.769209   2.437788   1.160169   0.005769   0.343589   0.016791
 112   7   9.425622  -0.575531  -0.450231   0.003891   0.309230   0.012581
 113   7   8.886108  -1.473919   2.530412   0.005397   0.412307   0.013090
 114   7   8.335187  -2.374064   2.049497   0.004734   0.343589   0.013777
 115   7   8.073002  -0.944753   3.578856   0.005816   0.412307   0.014106
 116   7   7.008133  -1.346628   3.783057   0.005512   0.343589   0.016044
 117   7   8.326332   0.487965   3.588775   0.005202   0.412307   0.012617
 118   7   7.600951   1.405835   3.675529   0.004468   0.377948   0.011822
 119   7   9.228372   0.711218   2.622534   0.005238   0.377948   0.013860
 120   7   9.225341   1.609790   1.922381   0.005391   0.343589   0.015689
 121   7   9.586147  -0.362897   1.954778   0.006362   0.481025   0.013226
 122   7   9.737979  -0.502157   0.761008   0.005446   0.412307   0.013208
 123   7   7.220135  -2.781739   2.279831   0.004379   0.274871   0.015932
 124   7   6.559431  -2.201758   3.212968   0.006093   0.309230   0.019705
 125   7   6.191285  -0.417283   4.093356   0.004972   0.343589   0.014472
 126   7   6.286593   0.864340   4.045666   0.004891   0.412307   0.011863
 127   7   7.380607   2.468257   2.944392   0.005101   0.412307   0.012373
 128   7   8.201039   2.613634   2.090264   0.006223   0.412307   0.015093
 129   7   9.321293   1.730945   0.534491   0.006608   0.377948   0.017483
 130   7   9.610551   0.565264  -0.061752   0.006434   0.412307   0.015605
 131   7   9.232538  -1.508963   0.006050   0.005138   0.446666   0.011503
 132   7   8.556593  -2.458428   0.667210   0.005245   0.446666   0.011742
 133   7   6.858557  -3.120898   1.349340   0.004282   0.274871   0.015578
 134   7   5.279663  -0.451286   3.847534   0.004319   0.274871   0.015712
 135   7   5.447211   1.702579   3.497103   0.003321   0.343589   0.009666
 136   7   6.204559   2.665244   2.845731   0.003956   0.377948   0.010467
 137   7   7.790803   3.083538   0.979995   0.005149   0.343589   0.014986
 138   7   8.525493   2.483716  -0.033717   0.005971   0.377948   0.015799
 139   7   9.077216   0.192052  -1.132224   0.004899   0.377948   0.012962
 140   7   8.803777  -1.102843  -1.111576   0.002851   0.274871   0.010371
 141   7   7.454083  -2.974337   0.277470   0.004364   0.377948   0.011547
 142   7   7.777906  -2.037207   3.033428   0.006405   0.412307   0.015534
 143   7   7.292719   0.042334   4.063777   0.006408   0.481025   0.013321
 144   7   8.523806   1.718653   2.893350   0.005621   0.412307   0.013633
 145   7   9.701962   0.788299   1.206595   0.006976   0.446666   0.015619
 146   7   9.269654  -1.634229   1.332140   0.004958   0.412307   0.012025
 147   7   6.480819  -2.736965   2.516303   0.002388   0.137436   0.017375
 148   7   5.179621   0.523302   3.818298   0.003842   0.309230   0.012424
 149   7   7.076959   3.124109   1.916948   0.003810   0.343589   0.011089
 150   7   9.049919   1.441781  -0.660162   0.005595   0.377948   0.014803
 151   7   8.301673  -2.236694  -0.545836   0.003777   0.412307   0.009160
 152   8   5.201733   3.803541  -3.419938  -0.003142   0.372926  -0.008425
 153   8   4.200699   1.942472  -4.342476  -0.003171   0.372926  -0.008504
 154   8   5.716537   1.840656  -4.326705  -0.002620   0.392554  -0.006673
 155   8   6.652928   3.364626  -2.818977  -0.002594   0.372926  -0.006956
 156   8   5.292828   4.241546  -1.833561  -0.001849   0.314043  -0.005888
 157   8   4.238494   3.394545  -3.752171  -0.003966   0.412182  -0.009622
 158   8   4.959924   2.519138  -4.353862  -0.002790   0.353299  -0.007898
 159   8   5.896098   3.081615  -3.871297  -0.003235   0.392554  -0.008241
 160   8   6.015128   3.972730  -2.459849  -0.002671   0.372926  -0.007162
 161   8   4.398618   4.174668  -2.444416  -0.004175   0.490692  -0.008509
 162   8   6.695584   2.426455  -3.594974  -0.002044   0.333671  -0.006127
 163   9   2.301751  -3.386947  -4.379230  -0.002938   0.392554  -0.007483
 164   9   3.165186  -2.325995  -4.541748  -0.001833   0.333671  -0.005493
 165   9   1.564707  -1.592623  -4.552203  -0.002192   0.372926  -0.005877
 166   9   1.743439  -4.479375  -2.800718  -0.001923   0.392554  -0.004898
 167   9   3.693479  -3.870972  -3.265312  -0.001572   0.333671  -0.004710
 168   9   2.548314  -1.717664  -4.666328  -0.002214   0.372926  -0.005938
 169   9   1.399526  -2.739352  -4.481599  -0.003135   0.392554  -0.007987
 170   9   1.426484  -3.923195  -3.728865  -0.003372   0.431809  -0.007808
 171   9   2.739044  -4.303789  -3.326449  -0.002577   0.451437  -0.005709
 172   9   3.469626  -3.218241  -4.113922  -0.002861   0.431809  -0.006626
 173  10   2.848253  -4.185475   2.756183  -0.002596   0.392554  -0.006613
 174  10   2.712635  -2.285136   3.487454  -0.001694   0.333671  -0.005076
 175  10   3.935165  -4.072964   2.170459  -0.002060   0.353299  -0.005830
 176  10   2.547485  -4.915376   1.115960  -0.000972   0.294415  -0.003302
 177  10   1.515271  -4.699310   1.422029  -0.001573   0.314043  -0.005010
 178  10   1.964874  -2.810703   3.431638  -0.002612   0.412182  -0.006337
 179  10   3.281221  -3.323282   3.198396  -0.002300   0.353299  -0.006510
 180  10   3.416714  -4.664726   1.560345  -0.001724   0.392554  -0.004393
 181  10   2.097785  -4.645038   2.116574  -0.001936   0.314043  -0.006164
 182  10   1.734350  -3.881881   2.919583  -0.002776   0.372926  -0.007444
 183  11   0.552846   3.323796   3.422935  -0.002023   0.372926  -0.005425
 184  11   1.357237   1.540987   3.730541  -0.001787   0.392554  -0.004552
 185  11   0.091214   1.317528   3.865373  -0.001255   0.353299  -0.003551
 186  11   0.370521   4.239952   1.927264  -0.000779   0.353299  -0.002204
 187  11   0.754767   2.266862   3.873910  -0.001404   0.294415  -0.004769
 188  11  -0.156274   2.533487   3.765850  -0.001751   0.294415  -0.005947
 189  11  -0.060886   3.860917   2.773654  -0.001998   0.372926  -0.005359
 190  11   1.378458   3.919711   2.320332  -0.001640   0.471065  -0.003481
 191  11   1.606481   2.955001   3.304539  -0.002300   0.392554  -0.005859
 192  12   0.481812   3.718149  -3.575971  -0.001584   0.294415  -0.005380
 193  12  -0.707786   2.069661  -4.090804  -0.001422   0.314043  -0.004529
 194  12   0.451661   1.819897  -4.242521  -0.001506   0.412182  -0.003655
 195  12   0.652356   4.444343  -1.976368  -0.000753   0.333671  -0.002255
 196  12  -0.345194   2.974381  -4.012040  -0.002012   0.372926  -0.005394
 197  12   0.875751   2.871583  -4.017310  -0.002061   0.353299  -0.005833
 198  12   1.032385   4.073972  -2.897906  -0.001930   0.353299  -0.005464
 199  12  -0.321931   4.374296  -2.349474  -0.001824   0.431809  -0.004224
 200  12  -0.488549   3.820619  -3.349233  -0.001779   0.294415  -0.006042
 201  13  -2.989971  -3.189070  -3.848344  -0.001583   0.353299  -0.004481
 202  13  -3.177749  -1.166716  -4.202976  -0.000981   0.372926  -0.002631
 203  13  -3.015778  -4.124536  -2.357713  -0.000431   0.333671  -0.001293
 204  13  -2.154231  -1.646540  -4.324419  -0.001844   0.490692  -0.003758
 205  13  -3.447915  -2.282623  -4.127263  -0.001881   0.392554  -0.004791
 206  13  -3.518350  -3.633425  -3.155872  -0.001577   0.353299  -0.004462
 207  13  -2.108479  -3.967643  -2.876367  -0.001505   0.451437  -0.003335
 208  13  -2.047995  -2.975076  -3.975236  -0.002019   0.372926  -0.005413
 209  14  -2.111648  -3.796058   3.077922  -0.001483   0.333671  -0.004445
 210  14  -1.658527  -1.908810   3.742701  -0.000943   0.353299  -0.002669
 211  14  -2.127269  -4.484170   1.402889  -0.000440   0.314043  -0.001402
 212  14  -2.660034  -2.223202   3.801274  -0.001692   0.451437  -0.003748
 213  14  -1.569044  -3.048691   3.488638  -0.001829   0.372926  -0.004905
 214  14  -1.674746  -4.205775   2.335095  -0.001512   0.333671  -0.004532
 215  14  -2.998262  -4.325953   1.933217  -0.001343   0.431809  -0.003110
 216  14  -2.976200  -3.539259   3.200800  -0.001986   0.372926  -0.005326
 217  15  -4.250002   3.342468   4.035983  -0.001822   0.412182  -0.004420
 218  15  -4.554418   1.804267   4.272659  -0.000877   0.412182  -0.002128
 219  15  -5.838034   3.439405   3.369781  -0.000833   0.333671  -0.002496
 220  15  -4.358908   4.606309   2.392285  -0.000622   0.372926  -0.001669
 221  15  -3.544970   2.084068   4.178990  -0.001628   0.451437  -0.003606
 222  15  -5.310743   2.721618   4.057459  -0.001184   0.431809  -0.002742
 223  15  -4.776417   4.051462   3.423950  -0.001397   0.353299  -0.003954
 224  15  -3.431618   4.358233   2.622495  -0.001326   0.431809  -0.003072
 225  15  -3.323284   3.490725   3.689517  -0.002000   0.392554  -0.005094
 226  15  -5.450136   4.252637   2.652043  -0.000452   0.314043  -0.001438
 227  16  -4.981317   3.959880  -3.296221  -0.002054   0.451437  -0.004549
 228  16  -6.036440   2.881584  -3.394907  -0.000747   0.294415  -0.002537
 229  16  -4.369247   2.144941  -3.845724  -0.000848   0.333671  -0.002541
 230  16  -4.125645   4.798805  -1.622034  -0.000637   0.392554  -0.001622
 231  16  -6.175932   4.280011  -1.884716  -0.000564   0.353299  -0.001595
 232  16  -5.268474   2.581531  -3.792213  -0.001188   0.412182  -0.002883
 233  16  -4.077677   3.302095  -3.634340  -0.001931   0.412182  -0.004684
 234  16  -4.001443   4.405003  -2.693437  -0.001838   0.412182  -0.004459
 235  16  -5.193702   4.730323  -2.013210  -0.001208   0.451437  -0.002677
 236  16  -6.149181   3.782637  -2.802414  -0.001263   0.451437  -0.002799
 237  17 -10.678229   2.142177   0.854089  -0.003455   0.608459  -0.005678
 238  17  -9.316499   3.083193   1.022229  -0.001251   0.353299  -0.003541
 239  17  -9.715389   1.776482   2.507921  -0.000638   0.333671  -0.001913
 240  17 -10.876942   0.444755   1.558640  -0.000745   0.353299  -0.002109
 241  17 -10.856224   0.872246  -0.587367  -0.000716   0.372926  -0.001920
 242  17  -9.630560   2.491646  -0.932016  -0.000663   0.353299  -0.001877
 243  17  -9.503170   2.627857   1.896149  -0.001648   0.490692  -0.003358
 244  17 -10.508988   1.289273   2.070419  -0.001662   0.490692  -0.003387
 245  17 -11.126565   0.741774   0.520268  -0.001785   0.510320  -0.003497
 246  17 -10.524358   1.868027  -0.646815  -0.001759   0.490692  -0.003585
 247  17  -9.667300   2.957858   0.045510  -0.001851   0.490692  -0.003773
 248  18  -8.011763  -2.793455  -3.399163  -0.002369   0.471065  -0.005029
 249  18  -7.015556  -3.932172  -1.909825  -0.000759   0.392554  -0.001934
 250  18  -6.992255  -1.096978  -3.823398  -0.001200   0.353299  -0.003397
 251  18  -8.892316  -1.572035  -3.266369  -0.000777   0.372926  -0.002084
 252  18  -9.017376  -3.132573  -2.082686  -0.000433   0.274788  -0.001577
 253  18  -6.951493  -3.444745  -2.938284  -0.002154   0.431809  -0.004989
 254  18  -6.893173  -2.364056  -3.705276  -0.002230   0.412182  -0.005410
 255  18  -7.988961  -1.314807  -3.760807  -0.001320   0.451437  -0.002925
 256  18  -9.105745  -2.425496  -2.791634  -0.001021   0.392554  -0.002602
 257  18  -8.184575  -3.679264  -2.204359  -0.001478   0.510320  -0.002896
 258  19  -7.185284  -3.266095   3.787953  -0.002275   0.451437  -0.005039
 259  19  -6.408122  -4.132826   2.060723  -0.000926   0.353299  -0.002620
 260  19  -7.957238  -3.940123   2.315307  -0.000642   0.353299  -0.001817
 261  19  -8.524583  -2.317726   3.669733  -0.000649   0.372926  -0.001741
 262  19  -6.800711  -1.367883   4.297600  -0.000693   0.372926  -0.001859
 263  19  -6.221383  -3.545577   3.377396  -0.002029   0.372926  -0.005442
 264  19  -7.066958  -4.072439   2.647880  -0.001148   0.333671  -0.003440
 265  19  -8.351545  -3.323796   3.127947  -0.001453   0.471065  -0.003085
 266  19  -7.655838  -2.080227   4.202983  -0.001518   0.471065  -0.003223
 267  19  -6.119205  -2.256869   4.129004  -0.002295   0.490692  -0.004676
 268   1   5.949525  -3.238961  -0.161910   0.000034   0.036807   0.000928
 269   2   5.510954  -3.451933  -0.154638  -0.000125   0.036807  -0.003388
 270   7   6.228999  -3.160207   0.103751   0.000323   0.036807   0.008784
 271   1   3.353012   0.891645  -3.978160  -0.000341   0.020487  -0.016666
 272   2   2.945696   0.628813  -3.927745  -0.000329   0.020487  -0.016042
 273   8   3.488706   1.165504  -4.002078  -0.000323   0.020487  -0.015771
 274   1   3.467915  -0.176930  -4.129409  -0.000423   0.029293  -0.014456
 275   2   3.049417  -0.425201  -4.160919  -0.000335   0.029293  -0.011432
 276   9   2.978752  -0.710043  -4.240660  -0.000274   0.029293  -0.009369
 277   1   5.111146  -2.833452  -2.723332  -0.000474   0.029293  -0.016170
 278   2   4.712941  -3.114529  -2.737477  -0.000306   0.029293  -0.010437
 279   9   4.494273  -3.160103  -2.943861  -0.000251   0.029293  -0.008558
 280   2   2.839593   0.131506  -4.072400  -0.000850   0.133603  -0.006363
 281   1   3.519374   0.357732  -4.117759  -0.001059   0.133603  -0.007925
 282   2   4.969014  -3.309878  -2.214190  -0.001178   0.207041  -0.005689
 283   2   5.205456  -3.653331  -0.777398  -0.000680   0.207041  -0.003284
 284   1   5.662710  -3.082500  -1.495093  -0.003222   0.420908  -0.007656
 285   1   3.389106   3.851256  -1.072786  -0.000667   0.064130  -0.010404
 286   3   2.577599   3.831073  -1.012524  -0.000535   0.064130  -0.008348
 287   8   3.503094   3.868463  -1.358638  -0.000728   0.064130  -0.011349
 288   1   2.977537   3.635961   0.814611  -0.000777   0.065994  -0.011777
 289   3   2.178282   3.772519   0.887992  -0.000269   0.065994  -0.004073
 290  11   2.088620   3.746877   1.178744  -0.000310   0.065994  -0.004704
 291   3   2.218283   3.955072   0.117304  -0.000873   0.446882  -0.001955
 292   1   3.355652   3.897579  -0.284688  -0.003068   0.446882  -0.006866
 293   1   3.863591   1.658145   2.903788  -0.000236   0.025886  -0.009125
 294   7   4.220787   1.541229   3.013732  -0.000031   0.025886  -0.001197
 295  11   2.916792   1.831409   2.934617  -0.000342   0.025886  -0.013207
 296   7   6.851376  -3.003256  -0.070655   0.001153   0.134482   0.008571
 297   7   7.788437  -2.103123  -1.013784   0.001994   0.283177   0.007042
 298   7   8.508714  -0.359685  -1.535704   0.002310   0.283177   0.008158
 299   7   8.474165   1.553688  -1.125113   0.003443   0.283177   0.012157
 300   7   7.698032   2.903660   0.060624   0.003232   0.283177   0.011414
 301   7   6.477783   3.172828   1.567049   0.002585   0.283177   0.009127
 302   7   5.281101   2.258028   2.816797   0.001947   0.283177   0.006874
 303   1   6.831226  -2.731563  -0.855360   0.000882   0.279776   0.003153
 304   1   7.879393  -1.285051  -1.825432   0.001099   0.279776   0.003927
 305   1   8.253879   0.711986  -1.886230   0.001577   0.279776   0.005637
 306   1   7.811155   2.494145  -1.014452   0.001862   0.279776   0.006655
 307   1   6.720902   3.378380   0.455775   0.001605   0.279776   0.005738
 308   1   5.400982   3.025791   1.960961   0.001020   0.279776   0.003647
 309   1   4.477242   1.983922   2.860846   0.000286   0.143496   0.001995
 310   8   4.159485   4.082393  -1.440229  -0.000766   0.070715  -0.010830
 311   8   5.279999   4.102124  -1.345784  -0.001450   0.156940  -0.009240
 312   8   6.490220   3.624774  -1.740043  -0.001375   0.156940  -0.008762
 313   8   7.070327   2.734222  -2.587586  -0.001478   0.156940  -0.009418
 314   8   6.777584   1.803108  -3.533770  -0.001446   0.156940  -0.009214
 315   8   5.734484   1.221045  -4.182677  -0.001617   0.156940  -0.010305
 316   8   4.377498   1.231588  -4.262781  -0.001617   0.156940  -0.010302
 317   1   4.527422   4.055424  -0.960730  -0.001529   0.155149  -0.009857
 318   1   6.037555   3.852567  -1.061792  -0.001245   0.155149  -0.008022
 319   1   7.100239   3.040622  -1.798888  -0.001218   0.155149  -0.007854
 320   1   7.270810   1.959336  -2.863590  -0.001270   0.155149  -0.008187
 321   1   6.477893   1.061160  -3.810389  -0.001459   0.155149  -0.009405
 322   1   5.053275   0.721923  -4.243108  -0.001561   0.155149  -0.010064
 323   1   3.830120   0.906804  -4.140776  -0.000820   0.086394  -0.009496
 324   9   3.151611  -1.085675  -4.342976  -0.001175   0.169348  -0.006939
 325   9   3.907491  -2.067975  -4.043170  -0.003118   0.344858  -0.009043
 326   9   4.348395  -3.020450  -3.318914  -0.001211   0.169348  -0.007151
 327   1   4.266032  -0.746671  -4.139497  -0.003528   0.466675  -0.007561
 328   1   5.122028  -2.130513  -3.407039  -0.003822   0.466675  -0.008191
 329  11   2.339458   2.400797   3.063615  -0.001289   0.244229  -0.005279
 330  11   2.225468   3.390840   2.095473  -0.002775   0.494195  -0.005615
 331   1   3.688583   2.607787   2.415951  -0.003360   0.679996  -0.004941
 332   1   3.489328   3.642240   1.228666  -0.001689   0.345614  -0.004888
 333   2   1.366693  -0.352907  -4.048485  -0.000136   0.027837  -0.004892
 334   3   0.985076  -0.043277  -3.962195  -0.000125   0.027837  -0.004497
 335   9   1.407695  -0.641813  -4.133850  -0.000220   0.027837  -0.007897
 336   2   1.578693  -1.118874   3.203034  -0.000121   0.025185  -0.004791
 337   3   1.194937  -0.800113   3.203523  -0.000097   0.025185  -0.003851
 338  10   1.644526  -1.412761   3.226091  -0.000132   0.025185  -0.005243
 339   2   1.749248  -0.192532   3.228713  -0.000114   0.028138  -0.004062
 340   3   1.369108   0.118973   3.314830  -0.000108   0.028138  -0.003852
 341  11   1.332576   0.411417   3.388270  -0.000109   0.028138  -0.003861
 342   2   1.306059   0.271166  -3.949005  -0.000131   0.028011  -0.004680
 343   3   0.920722   0.588132  -3.947360  -0.000118   0.028011  -0.004220
 344  12   0.876704   0.887006  -3.977747  -0.000151   0.028011  -0.005397
 345   3   1.152367  -0.328724   3.318027  -0.000111   0.108231  -0.001028
 346   2   1.786314  -0.679443   3.259518  -0.000164   0.108231  -0.001511
 347   3   0.882660   0.365116  -3.990811  -0.000050   0.042982  -0.001159
 348   2   1.401552  -0.125457  -4.055975  -0.000071   0.042982  -0.001659
 349   2  -0.169336  -3.953804  -1.629612  -0.000095   0.066761  -0.001416
 350   4  -1.001778  -3.957614  -1.598326   0.000038   0.066761   0.000572
 351  13  -1.132924  -3.909275  -1.870298  -0.000104   0.066761  -0.001551
 352   2  -0.041429  -4.139709   0.424431  -0.000041   0.067726  -0.000605
 353   4  -0.871820  -4.145240   0.491431   0.000045   0.067726   0.000657
 354  14  -0.959153  -4.145483   0.784389  -0.000126   0.067726  -0.001855
 355   4  -0.880959  -4.164261  -0.755345   0.000664   0.519350   0.001278
 356   2   0.322622  -4.305942  -0.465270  -0.000135   0.519350  -0.000259
 357   2   3.410602  -1.119528   3.196114  -0.000108   0.064594  -0.001678
 358   7   4.189543  -0.890869   3.281629   0.000659   0.064594   0.010204
 359  10   3.367896  -1.419055   3.221942  -0.000224   0.064594  -0.003475
 360   2   4.893031  -3.632194   0.949825  -0.000071   0.064594  -0.001101
 361   7   5.587098  -3.259677   1.163949   0.000605   0.064594   0.009365
 362  10   4.712265  -3.697714   1.184853  -0.000210   0.064594  -0.003250
 363   2   2.952214   0.260376   3.040543  -0.001043   0.162764  -0.006406
 364   7   3.746713   0.448920   3.095844  -0.000362   0.162764  -0.002222
 365  11   2.459079   0.826990   3.093195  -0.001052   0.162764  -0.006465
 366   7   4.393998  -0.077613   3.466703   0.002017   0.255243   0.007900
 367   2   3.332875  -0.572913   3.265340  -0.000124   0.281822  -0.000440
[...]
 443  10   1.532045  -1.702266   3.270986  -0.000492   0.110150  -0.004469
 444   3   0.747092  -0.881867   3.286190  -0.000028   0.155234  -0.000182
 445   3  -1.204492   3.958372   1.298404  -0.000060   0.088699  -0.000681
 446  11  -1.074105   3.928305   1.574571  -0.000240   0.088699  -0.002709
 447  15  -2.135071   3.927613   1.648006   0.000068   0.088699   0.000771
 448  11   0.015438   0.735555   3.648758  -0.000198   0.070169  -0.002815
 449  11   0.886391   0.655080   3.588702  -0.000229   0.070169  -0.003270
 450   3   0.405260   0.312793   3.469213  -0.000516   0.153520  -0.003360
 451  11   1.435514   4.041115   1.327965  -0.000204   0.080106  -0.002553
 452  11   0.172063   4.187885   1.395663  -0.000647   0.184125  -0.003513
 453   3   0.959352   4.157271   0.911320  -0.000241   0.170107  -0.001417
 454   3  -0.437145   4.204432   1.060570  -0.000051   0.097868  -0.000522
 455  12  -0.538815   4.337770  -1.421359  -0.000187   0.079712  -0.002351
 456  12   0.729469   4.321777  -1.424238  -0.000686   0.182999  -0.003747
 457   3  -0.076257   4.340164  -0.976688  -0.000256   0.169444  -0.001510
 458   3   1.314896   4.218822  -1.066967  -0.000092   0.097386  -0.000947
 459  12   0.410043   1.149780  -4.089196  -0.000240   0.070358  -0.003413
 460  12  -0.463788   1.228235  -4.030612  -0.000221   0.070358  -0.003136
 461   3  -0.055684   0.790416  -3.955872  -0.000553   0.153825  -0.003598
 462  13  -1.568001  -0.815746  -4.009024  -0.000316   0.149320  -0.002115
 463   3  -0.644712  -0.186288  -3.926590   0.000067   0.210561   0.000317
 464  14  -0.944944  -1.528944   3.425007  -0.000310   0.133144  -0.002331
 465   3  -0.217638  -0.679558   3.380900   0.000086   0.187775   0.000456
 466  15  -2.659954   4.196541   1.722423   0.000026   0.009158   0.002850
 467   3  -1.294413   4.153460   1.186181   0.000075   0.013004   0.005796
 468   4  -3.556955  -0.030120  -3.689114  -0.000019   0.028311  -0.000685
 469   5  -3.941239   0.269375  -3.592582   0.000010   0.028311   0.000346
 470  13  -3.517105  -0.320909  -3.769076  -0.000053   0.028311  -0.001883
 471   4  -3.012293  -0.644693   3.558397  -0.000010   0.028443  -0.000352
 472   5  -3.402859  -0.338137   3.571657   0.000007   0.028443   0.000250
 473  14  -2.966123  -0.944300   3.581574  -0.000043   0.028443  -0.001525
 474   4  -2.891563   0.238585   3.568751   0.000010   0.027875   0.000358
 475   5  -3.274889   0.539218   3.665482  -0.000000   0.027875  -0.000006
 476  15  -3.318165   0.831035   3.739221  -0.000032   0.027875  -0.001155
 477   4  -3.562561   0.676881  -3.593444   0.000011   0.027767   0.000414
 478   5  -3.953730   0.982651  -3.580620  -0.000004   0.027767  -0.000135
 479  16  -4.007653   1.280574  -3.609326  -0.000035   0.027767  -0.001254
 480   5  -3.454736   0.116766   3.680614   0.000122   0.096889   0.001263
 481   4  -2.824796  -0.225977   3.602119   0.000107   0.096889   0.001105
 482   5  -4.013011   0.724676  -3.621856   0.000090   0.060628   0.001489
 483   4  -3.499692   0.232357  -3.701316   0.000067   0.060628   0.001099
 484   4  -4.116739  -3.927618   0.726949   0.000120   0.067764   0.001770
 485   6  -4.929964  -3.807361   0.797387   0.000187   0.067764   0.002764
 486  14  -3.991430  -3.943446   1.005382  -0.000063   0.067764  -0.000928
 487   4  -4.806743  -3.638782  -1.218861   0.000168   0.065625   0.002563
 488   6  -5.628962  -3.675561  -1.162981   0.000093   0.065625   0.001423
 489  18  -5.771752  -3.634610  -1.429265  -0.000055   0.065625  -0.000833
 490   6  -5.477199  -3.875564  -0.351858   0.001146   0.495173   0.002314
 491   4  -4.273655  -3.968485  -0.110199   0.001117   0.495173   0.002256
 492   4  -1.931976   0.740891   3.400303  -0.000101   0.165431  -0.000608
 493  11  -1.354600   1.222738   3.429593  -0.000330   0.165431  -0.001993
 494  15  -2.415185   1.308532   3.513392  -0.000225   0.165431  -0.001363
 495  11  -0.673853   1.006345   3.598482  -0.000378   0.130578  -0.002898
 496   4  -1.414914   0.168812   3.527451   0.000172   0.184144   0.000937
 497   4  -2.447558   1.273272  -3.488555  -0.000081   0.165472  -0.000488
 498  12  -1.866388   1.749174  -3.526651  -0.000389   0.165472  -0.002348
 499  16  -2.951483   1.832475  -3.439499  -0.000167   0.165472  -0.001012
 500  12  -1.080129   1.421119  -3.872831  -0.000444   0.155061  -0.002861
 501   4  -1.998358   0.785804  -3.756495   0.000167   0.218627   0.000763
 502   4  -4.352444  -3.684775  -1.442517   0.000085   0.088074   0.000960
 503  13  -4.270216  -3.663297  -1.737836  -0.000141   0.088074  -0.001602
 504  18  -5.311229  -3.530629  -1.620100   0.000120   0.088074   0.001365
 505  13  -1.838858  -4.100432  -1.927760  -0.000054   0.078334  -0.000694
 506  13  -3.076379  -4.075786  -1.782875  -0.000373   0.178813  -0.002087
 507   4  -2.238778  -4.163144  -1.437477   0.000068   0.167383   0.000406
 508   4  -3.603805  -4.025196  -1.346668   0.000131   0.095702   0.001364
 509  13  -3.068331  -0.552173  -3.979072  -0.000132   0.070536  -0.001876
 510  13  -2.193937  -0.619682  -4.050234  -0.000140   0.070536  -0.001987
 511   4  -2.588984  -0.205378  -3.857756  -0.000329   0.154261  -0.002135
 512  14  -1.625145  -1.273464   3.609884  -0.000138   0.070201  -0.001960
 513  14  -2.495755  -1.203053   3.680673  -0.000135   0.070201  -0.001927
 514   4  -2.035662  -0.836365   3.550400  -0.000303   0.153637  -0.001972
 515  14  -3.330566  -4.233743   1.018064  -0.000037   0.076529  -0.000488
 516  14  -2.123635  -4.363392   0.891693  -0.000357   0.173691  -0.002056
 517   4  -2.938275  -4.274950   0.528989   0.000032   0.164372   0.000194
 518   4  -1.593790  -4.324773   0.471589   0.000096   0.093497   0.001027
 519  15  -3.170432   1.130493   3.806469  -0.000168   0.122982  -0.001367
 520   4  -2.399025   0.343496   3.596559   0.000212   0.173424   0.001222
 521  16  -3.702505   1.728178  -3.636118  -0.000269   0.156949  -0.001716
 522   4  -3.115311   0.769035  -3.690865   0.000295   0.221249   0.001334
 523   4  -4.442172  -3.865917  -1.326730   0.000058   0.006716   0.008618
 524   5  -5.245317   0.662039   3.857216   0.000016   0.026964   0.000604
 525   6  -5.668330   0.402350   3.838766   0.000048   0.026964   0.001770
 526  15  -5.151474   0.944970   3.917117  -0.000007   0.026964  -0.000273
 527   5  -6.807737   3.051121   2.501087   0.000040   0.026964   0.001486
 528   6  -7.210249   2.760084   2.500432   0.000094   0.026964   0.003475
 529  15  -6.573703   3.119689   2.682669   0.000002   0.026964   0.000061
 530   5  -7.186799   3.292945  -1.482185   0.000032   0.026942   0.001191
 531   6  -7.585297   2.999345  -1.440764   0.000059   0.026942   0.002207
 532  16  -6.990195   3.385626  -1.694850   0.000005   0.026942   0.000196
 533   5  -5.935850   1.103856  -3.383708   0.000035   0.026942   0.001291
 534   6  -6.350770   0.838991  -3.317328   0.000077   0.026942   0.002859
 535  16  -5.851498   1.392970  -3.425745  -0.000001   0.026942  -0.000025
 536   5  -7.392194   3.069860   1.964186   0.000078   0.023925   0.003266
 537   6  -7.830598   2.841385   2.011533   0.000035   0.023925   0.001471
 538  17  -8.114745   2.834240   1.909391  -0.000007   0.023925  -0.000274
 539   5  -7.662139   3.246188  -0.826718   0.000047   0.023925   0.001949
 540   6  -8.104242   3.020130  -0.817617   0.000020   0.023925   0.000828
 541  17  -8.363730   2.996877  -0.664814  -0.000008   0.023925  -0.000331
 542   5  -5.964551   0.291259  -3.392456   0.000029   0.027080   0.001054
 543   6  -6.387893   0.032083  -3.410718   0.000005   0.027080   0.000197
 544  18  -6.480579  -0.249939  -3.473093  -0.000031   0.027080  -0.001136
 545   5  -5.275867  -0.154051   3.771414   0.000017   0.027164   0.000626
 546   6  -5.691098  -0.418477   3.837659  -0.000007   0.027164  -0.000258
 547  19  -5.772830  -0.707313   3.881198  -0.000044   0.027164  -0.001625
 548   6  -5.742052  -0.110089   3.887899   0.000125   0.083577   0.001496
 549   5  -5.190444   0.350586   3.862800   0.000129   0.083577   0.001540
 550   6  -7.615619   2.760486   2.323556   0.000214   0.078998   0.002714
 551   5  -7.042773   3.178794   2.209929   0.000194   0.078998   0.002452
 552   6  -7.967199   3.010419  -1.092078   0.000157   0.082537   0.001904
 553   5  -7.347237   3.351692  -1.218780   0.000174   0.082537   0.002109
 554   6  -6.492804   0.423943  -3.402116   0.000152   0.081978   0.001848
 555   5  -5.837390   0.715676  -3.447543   0.000151   0.081978   0.001848
 556   5  -2.667343   4.191006  -1.063318   0.000107   0.089433   0.001194
 557  12  -1.739552   4.042342  -1.418534   0.000019   0.089433   0.000215
 558  16  -2.810582   4.213922  -1.334185  -0.000143   0.089433  -0.001598
 559   5  -5.021954  -0.362088  -3.397640  -0.000025   0.165847  -0.000151
 560  13  -4.529862  -0.917737  -3.520624  -0.000203   0.165847  -0.001227
 561  18  -5.583132  -0.869126  -3.412968  -0.000255   0.165847  -0.001535
 562  13  -3.831722  -0.761320  -3.811077  -0.000316   0.156200  -0.002025
 563   5  -4.400470   0.189296  -3.628015   0.000320   0.220230   0.001452
 564   5  -4.354863  -0.812072   3.508796  -0.000045   0.165256  -0.000273
 565  14  -3.874087  -1.387821   3.461276  -0.000258   0.165256  -0.001561
 566  19  -4.908726  -1.323013   3.571495  -0.000230   0.165256  -0.001392
 567  14  -3.099130  -1.244433   3.632126  -0.000187   0.116613  -0.001604
 568   5  -3.871933  -0.437864   3.671913   0.000223   0.164481   0.001358
 569  15  -4.647611   1.119712   4.038447  -0.000089   0.071073  -0.001250
 570  15  -3.766940   1.062372   3.952705  -0.000112   0.071073  -0.001579
 571   5  -4.246639   0.706993   3.848107  -0.000254   0.155170  -0.001635
 572  15  -3.234436   4.393405   1.681567  -0.000040   0.069779  -0.000580
 573  15  -4.334006   4.605062   1.696265  -0.000141   0.154996  -0.000910
 574  15  -5.577080   4.254731   2.101662  -0.000277   0.154996  -0.001785
 575  15  -6.239575   3.546478   2.661615  -0.000090   0.069779  -0.001287
 576   5  -3.627588   4.522032   1.245682   0.000141   0.152919   0.000925
 577   5  -5.134973   4.540910   1.444708   0.000098   0.152919   0.000638
 578   5  -6.270521   3.777184   2.107606  -0.000103   0.152919  -0.000671
 579  16  -6.652058   3.812013  -1.684701  -0.000073   0.070329  -0.001044
 580  16  -5.880165   4.458218  -1.175880  -0.000243   0.156470  -0.001554
 581  16  -4.567554   4.766386  -0.976679  -0.000138   0.156470  -0.000882
 582  16  -3.482889   4.556054  -1.203749  -0.000103   0.070329  -0.001464
 583   5  -6.572358   3.975702  -1.109717  -0.000129   0.153888  -0.000838
 584   5  -5.311327   4.667363  -0.585107   0.000134   0.153888   0.000874
 585   5  -3.784193   4.630293  -0.686586   0.000108   0.153888   0.000702
 586  16  -4.488072   1.530012  -3.706491  -0.000098   0.071636  -0.001365
 587  16  -5.375297   1.586467  -3.618122  -0.000092   0.071636  -0.001288
 588   5  -4.946587   1.159194  -3.556990  -0.000230   0.156150  -0.001472
 589  17  -8.336746   3.007980   1.579793  -0.000198   0.188401  -0.001053
 590  17  -8.471275   3.157284   0.241017  -0.000912   0.384149  -0.002374
 591   5  -7.352638   3.537032   1.058251   0.000749   0.517611   0.001447
 592   5  -7.496286   3.574894  -0.474358   0.000579   0.265305   0.002183
 593  18  -6.371394  -0.576399  -3.564517  -0.000233   0.134197  -0.001739
 594   5  -5.479901   0.109829  -3.512077   0.000267   0.189190   0.001413
 595  19  -5.553216  -1.144085   3.875649  -0.000265   0.137661  -0.001926
 596   5  -4.858258  -0.261405   3.798705   0.000291   0.194073   0.001500
 597   6  -5.416078  -3.817846   1.161070   0.000060   0.086091   0.000694
 598  14  -4.463508  -3.805939   1.345893   0.000102   0.086091   0.001181
 599  19  -5.496093  -3.823241   1.456742  -0.000117   0.086091  -0.001364
 600  14  -3.935543  -4.058478   1.248644   0.000047   0.041803   0.001120
 601   6  -5.331471  -3.995227   0.931760   0.000257   0.059223   0.004341
 602  15  -6.376201   2.950383   3.083631  -0.000178   0.209195  -0.000849
 603  15  -5.679965   1.822741   3.794333  -0.001077   0.429514  -0.002507
 604   6  -7.059595   1.921889   3.248711   0.000929   0.571721   0.001625
 605   6  -6.173047   0.623692   3.921294   0.000657   0.294665   0.002229
 606  16  -6.049610   1.826488  -3.395195  -0.000190   0.209054  -0.000907
 607  16  -6.701578   2.881473  -2.546728  -0.001057   0.429197  -0.002464
 608   6  -7.167972   1.524853  -2.936603   0.000842   0.571360   0.001474
 609   6  -7.791678   2.694569  -1.858666   0.000689   0.294465   0.002341
 610  17  -8.848243   2.811311  -0.817512  -0.000103   0.070293  -0.001472
 611  17  -9.489338   2.033467  -1.337133  -0.000327   0.156796  -0.002085
 612  17 -10.284967   0.922762  -1.239952  -0.000161   0.156796  -0.001025
 613  17 -10.794889   0.043289  -0.321997  -0.000293   0.156796  -0.001866
 614  17 -10.799287  -0.225829   1.021018  -0.000327   0.156796  -0.002084
 615  17 -10.296263   0.231419   2.210146  -0.000208   0.156796  -0.001327
 616  17  -9.502663   1.217924   2.732777  -0.000259   0.156796  -0.001653
 617  17  -8.760592   2.308421   2.363614  -0.000354   0.156796  -0.002255
 618   6  -8.757196   2.459901  -1.298704  -0.000173   0.153389  -0.001125
 619   6  -9.669228   1.286355  -1.696045   0.000050   0.153389   0.000324
 620   6 -10.445445   0.103093  -1.092495   0.000068   0.153389   0.000440
 621   6 -10.751234  -0.579803   0.251767  -0.000075   0.153389  -0.000487
 622   6 -10.454776  -0.467950   1.757255  -0.000041   0.153389  -0.000270
 623   6  -9.683867   0.390435   2.774982   0.000079   0.153389   0.000518
 624   6  -8.770833   1.625317   2.866227  -0.000168   0.153389  -0.001097
 625   6  -8.169811   2.562098   2.293810   0.000035   0.085878   0.000411
 626  18  -6.442706  -3.848770  -1.467324  -0.000092   0.071643  -0.001280
 627  18  -7.573468  -3.910692  -1.266080  -0.000178   0.160211  -0.001110
 628  18  -8.833154  -3.354814  -1.443808  -0.000266   0.160211  -0.001663
 629  18  -9.462998  -2.275304  -2.048252  -0.000264   0.160211  -0.001649
 630  18  -9.184260  -1.149904  -2.811911  -0.000201   0.160211  -0.001257
 631  18  -8.120296  -0.476663  -3.396826  -0.000240   0.160211  -0.001501
 632  18  -6.988015  -0.424285  -3.592148  -0.000112   0.071643  -0.001557
 633   6  -6.771500  -3.935062  -0.962840  -0.000002   0.155989  -0.000015
 634   6  -8.314736  -3.731349  -0.873576   0.000028   0.155989   0.000178
 635   6  -9.439847  -2.757565  -1.339316  -0.000066   0.155989  -0.000421
 636   6  -9.648911  -1.444662  -2.153946   0.000081   0.155989   0.000521
 637   6  -8.849406  -0.373670  -2.956948   0.000117   0.155989   0.000753
 638   6  -7.395156  -0.018561  -3.392950  -0.000170   0.155989  -0.001088
 639  19  -6.248175  -0.901872   4.071705  -0.000129   0.071092  -0.001815
 640  19  -7.389316  -0.942802   4.092190  -0.000289   0.158713  -0.001821
 641  19  -8.549254  -1.543407   3.650075  -0.000160   0.158713  -0.001007
 642  19  -8.992486  -2.559429   2.829774  -0.000262   0.158713  -0.001654
 643  19  -8.525728  -3.547806   1.989001  -0.000297   0.158713  -0.001871
 644  19  -7.352523  -4.077529   1.494398  -0.000140   0.158713  -0.000884
 645  19  -6.211235  -4.049118   1.463537  -0.000052   0.071092  -0.000736
 646   6  -6.677896  -0.479559   4.005784  -0.000166   0.155035  -0.001070
 647   6  -8.183547  -0.791238   3.819419   0.000022   0.155035   0.000141
 648   6  -9.137336  -1.753033   3.068358   0.000113   0.155035   0.000728
 649   6  -9.123339  -2.945530   2.080119  -0.000033   0.155035  -0.000214
 650   6  -8.147660  -3.848707   1.285651  -0.000001   0.155035  -0.000005
 651   6  -6.635769  -4.068712   1.031403   0.000095   0.155035   0.000610
 652  10   4.629031  -3.747735   1.670136  -0.000418   0.271552  -0.001541
 653  10   4.195478  -2.986051   2.784333  -0.001471   0.548263  -0.002684
 654  10   3.522559  -1.872302   3.346747  -0.000417   0.271552  -0.001535
 655   7   5.767666  -2.906472   2.195842   0.008300   0.666715   0.012448
 656   7   5.012587  -1.626638   3.339996   0.008248   0.666715   0.012372
 657  11   2.305003   1.490414   3.380141  -0.000769   0.361071  -0.002130
 658   7   4.244335   1.169338   3.405953   0.001481   0.466816   0.003173
 659  12   1.904923   4.083681  -2.028904  -0.000335   0.253749  -0.001322
 660  12   1.840691   3.620148  -3.088357  -0.001732   0.507463  -0.003414
 661  12   1.755102   2.449393  -3.870289  -0.001828   0.507463  -0.003602
 662   8   3.383806   3.865743  -2.507178  -0.002990   0.507463  -0.005892
 663   8   3.299524   3.034847  -3.643804  -0.003266   0.507463  -0.006436
 664   8   3.232929   1.956808  -4.061927  -0.001287   0.253749  -0.005073
 665  13  -1.046975  -1.658384  -4.126003  -0.000117   0.246450  -0.000474
 666  13  -1.114508  -2.735127  -3.880321  -0.000878   0.492750  -0.001782
 667  13  -1.121983  -3.707758  -2.943086  -0.000474   0.492750  -0.000961
 668   9   0.458252  -2.197633  -4.174678  -0.001624   0.492750  -0.003296
 669   9   0.402875  -3.422686  -3.608417  -0.001756   0.492750  -0.003564
 670   9   0.421857  -4.043535  -2.692729  -0.000305   0.246450  -0.001237
 671  14  -0.860472  -4.287675   1.443708   0.000061   0.253368   0.000242
 672  14  -0.747816  -3.826817   2.485331  -0.000768   0.506649  -0.001516
 673  14  -0.591877  -2.673364   3.253639  -0.000779   0.506649  -0.001538
 674  10   0.697216  -4.275112   1.750175  -0.001120   0.506649  -0.002211
 675  10   0.847326  -3.453702   2.867233  -0.001524   0.506649  -0.003009
 676  10   0.970517  -2.392694   3.278507  -0.000383   0.253368  -0.001512
 677  15  -2.574365   1.847576   3.836792   0.000008   0.256157   0.000033
 678  15  -2.505221   2.971815   3.561920  -0.000649   0.512256  -0.001267
 679  15  -2.507137   3.947430   2.541614  -0.000260   0.512256  -0.000507
 680  11  -1.034374   2.162397   3.642335  -0.000872   0.512256  -0.001702
 681  11  -0.981501   3.427510   3.018198  -0.000899   0.512256  -0.001755
 682  11  -1.011415   4.028344   2.027061   0.000086   0.256157   0.000336
 683  16  -2.856144   4.377845  -1.760336   0.000254   0.250015   0.001017
 684  16  -2.971928   3.921749  -2.769763  -0.000466   0.499865  -0.000933
 685  16  -3.118349   2.801246  -3.524569  -0.000398   0.499865  -0.000796
 686  12  -1.352519   4.111304  -2.281260  -0.000558   0.499865  -0.001116
 687  12  -1.501086   3.307942  -3.367187  -0.000958   0.499865  -0.001916
 688  12  -1.612995   2.279056  -3.778575  -0.000142   0.250015  -0.000568
 689  18  -5.862822  -1.381378  -3.692895  -0.000091   0.252365  -0.000362
 690  18  -5.887494  -2.500088  -3.426805  -0.000760   0.504679  -0.001507
 691  18  -5.831241  -3.480643  -2.427373  -0.000316   0.504679  -0.000627
 692  13  -4.375690  -1.885173  -3.773356  -0.000581   0.504679  -0.001152
 693  13  -4.372197  -3.147419  -3.164881  -0.000546   0.504679  -0.001082
 694  13  -4.301489  -3.756882  -2.192010   0.000234   0.252365   0.000926
 695  19  -5.477856  -3.969589   1.898506   0.000220   0.252286   0.000870
 696  19  -5.335008  -3.488580   2.950165  -0.000751   0.504586  -0.001489
 697  19  -5.179220  -2.299921   3.708877  -0.000703   0.504586  -0.001394
 698  14  -3.951120  -3.906491   2.155866  -0.000425   0.504586  -0.000843
 699  14  -3.777584  -3.054699   3.277098  -0.000785   0.504586  -0.001555
 700  14  -3.666834  -1.964438   3.673110  -0.000057   0.252286  -0.000225
 =====================================================


   1 warning(s) detected.
     A line exceeding 80 characters begins with "http://cactus.nci.ni".
 There may be a problem in your input file.

              3777276  WORDS OF DYNAMIC MEMORY USED
 EXECUTION OF GAMESS TERMINATED NORMALLY Tue Nov 22 23:53:38 2016
 DDI: 263640 bytes (0.3 MB / 0 MWords) used by master data server.

 ----------------------------------------
 CPU timing information for all processes
 ========================================
 0: 1399.20 + 0.508 = 1399.528
 ----------------------------------------
 ddikick.x: exited gracefully.
