----- GAMESS execution script -----

          ******************************************************
          *         GAMESS VERSION =  5 DEC 2014 (R1)          *
          *             FROM IOWA STATE UNIVERSITY             *
          * M.W.SCHMIDT, K.K.BALDRIDGE, J.A.BOATZ, S.T.ELBERT, *
          *   M.S.GORDON, J.H.JENSEN, S.KOSEKI, N.MATSUNAGA,   *
          *          K.A.NGUYEN, S.J.SU, T.L.WINDUS,           *
          *       TOGETHER WITH M.DUPUIS, J.A.MONTGOMERY       *
          *         J.COMPUT.CHEM.  14, 1347-1363(1993)        *
          **************** 64 BIT LINUX VERSION ****************

 EXECUTION OF GAMESS BEGUN Tue Nov 22 23:40:59 2016

            ECHO OF THE FIRST FEW INPUT CARDS -
 INPUT CARD>! SELECT RESTRICTED HARTREE-FOCK AS DEFAULT                                     
 INPUT CARD>$contrl scftyp=rhf $end                                                         
 INPUT CARD>                                                                                
 INPUT CARD>! THEORY: HF OR DFT                                                             
 INPUT CARD> $contrl mplevl=0 $end                                                          
 INPUT CARD>                                                                                
 INPUT CARD> $system timlim=10000 mwords=20 $end                                            
 INPUT CARD> $SCF DIRSCF=.TRUE. $end                                                        
 INPUT CARD>                                                                                
 INPUT CARD>                                                                                
 INPUT CARD>! BASIS SETS                                                                    
 INPUT CARD>! 6-311G(d,p)                                                                   
 INPUT CARD> $BASIS GBASIS=N311 NGAUSS=6 NDFUNC=1 NPFUNC=1 $END                             
 INPUT CARD>                                                                                
 INPUT CARD>! One of the following                                                          
 INPUT CARD> $guess guess=HUCKEL $end                                                       
 INPUT CARD>                                                                                
 INPUT CARD> $statpt projct=.FALSE. $end                                                    
 INPUT CARD> $STATPT IFREEZ(1)=1,2,3 $END                                                   
 INPUT CARD>                                                                                
 INPUT CARD>! Optimize the geometry with COSMO effects                                      
 INPUT CARD> $statpt opttol=0.0005 nstep=50 $end                                            
 INPUT CARD> $contrl nzvar=1 $end                                                           
 INPUT CARD> $zmat dlc=.t. auto=.t. $end                                                    
 INPUT CARD> $contrl runtyp=OPTIMIZE maxit=200 $end                                         
 INPUT CARD>                                                                                
 INPUT CARD>! Run COSMO on perfect conductor                                                
 INPUT CARD> $COSGMS PRFCND=.TRUE. $end                                                     
 INPUT CARD>                                                                                
 INPUT CARD>! Specifying RSOLV                                                              
 INPUT CARD> $COSGMS COSRAD = 1.4 $end                                                      
 INPUT CARD>                                                                                
 INPUT CARD>! available memory                                                              
 INPUT CARD> $SYSTEM MWORDS=40 $END                                                         
 INPUT CARD>                                                                                
 INPUT CARD> $DATA                                                                          
 INPUT CARD>1-Hexyne, ID: C693027                                                           
 INPUT CARD>C1                                                                              
 INPUT CARD>C      6.0      4.6537000000    1.9437000000    1.0614000000                    
 INPUT CARD>C      6.0      3.4282000000    1.0434000000    0.9577000000                    
 INPUT CARD>C      6.0      2.1460000000    1.8535000000    1.0653000000                    
 INPUT CARD>C      6.0      5.8739000000    1.1856000000    0.9628000000                    
 INPUT CARD>C      6.0      0.9242000000    0.9692000000    0.9610000000                    
 INPUT CARD>C      6.0      6.8838000000    0.5591000000    0.8798000000                    
 INPUT CARD>H      1.0      4.6442000000    2.7118000000    0.2615000000                    
 INPUT CARD>H      1.0      4.6528000000    2.4969000000    2.0225000000                    
 INPUT CARD>H      1.0      3.4459000000    0.4865000000    0.0000000000                    
 INPUT CARD>H      1.0      3.4565000000    0.2709000000    1.7515000000                    
 INPUT CARD>H      1.0      2.1307000000    2.4091000000    2.0242000000                    
 INPUT CARD>H      1.0      2.1218000000    2.6281000000    0.2730000000                    
   40000000 WORDS OF MEMORY AVAILABLE

     BASIS OPTIONS
     -------------
     GBASIS=N311         IGAUSS=       6      POLAR=POPN311 
     NDFUNC=       1     NFFUNC=       0     DIFFSP=       F
     NPFUNC=       1      DIFFS=       F     BASNAM=        


     RUN TITLE
     ---------
 1-Hexyne, ID: C693027                                                           

 THE POINT GROUP OF THE MOLECULE IS C1      
 THE ORDER OF THE PRINCIPAL AXIS IS     0

 ATOM      ATOMIC                      COORDINATES (BOHR)
           CHARGE         X                   Y                   Z
 C           6.0     8.7942178291        3.6730604023        2.0057551634
 C           6.0     6.4783586311        1.9717400956        1.8097905784
 C           6.0     4.0553519697        3.5026071182        2.0131250947
 C           6.0    11.1000614793        2.2404591310        1.8194281810
 C           6.0     1.7464847579        1.8315224273        1.8160266742
 C           6.0    13.0084957543        1.0565457997        1.6625809240
 H           1.0     8.7762654322        5.1245589335        0.4941633458
 H           1.0     8.7925170757        4.7184568187        3.8219708102
 H           1.0     6.5118067811        0.9193516930        0.0000000000
 H           1.0     6.5318378766        0.5119267701        3.3098550675
 H           1.0     4.0264391620        4.5525388770        3.8251833443
 H           1.0     4.0096206007        4.9663888683        0.5158951946
 H           1.0     0.0000000000        2.9406026095        1.9583230411
 H           1.0     1.6897929782        0.8139049829        0.0083147943
 H           1.0     1.7016982519        0.4072359504        3.3247839028
 H           1.0    14.7132175678        0.0000000000        1.5212294201

          INTERNUCLEAR DISTANCES (ANGS.)




     $CONTRL OPTIONS
     ---------------
 SCFTYP=RHF          RUNTYP=OPTIMIZE     EXETYP=RUN     
 MPLEVL=       0     CITYP =NONE         CCTYP =NONE         VBTYP =NONE    
 DFTTYP=NONE         TDDFT =NONE    
 MULT  =       1     ICHARG=       0     NZVAR =       1     COORD =UNIQUE  
 PP    =NONE         RELWFN=NONE         LOCAL =NONE         NUMGRD=       F
 ISPHER=      -1     NOSYM =       0     MAXIT =     200     UNITS =ANGS    
 PLTORB=       F     MOLPLT=       F     AIMPAC=       F     FRIEND=        
 NPRINT=       7     IREST =       0     GEOM  =INPUT   
 NORMF =       0     NORMP =       0     ITOL  =      20     ICUT  =       9
 INTTYP=BEST         GRDTYP=BEST         QMTTOL= 1.0E-06

     $SYSTEM OPTIONS
     ---------------
  REPLICATED MEMORY=    40000000 WORDS (ON EVERY NODE).
 DISTRIBUTED MEMDDI=           0 MILLION WORDS IN AGGREGATE,
 MEMDDI DISTRIBUTED OVER   1 PROCESSORS IS           0 WORDS/PROCESSOR.
 TOTAL MEMORY REQUESTED ON EACH PROCESSOR=    40000000 WORDS.
 TIMLIM=       10000.00 MINUTES, OR       6.9 DAYS.
 PARALL= F  BALTYP=  DLB     KDIAG=    0  COREFL= F
 MXSEQ2=     300 MXSEQ3=     150  mem10=         0

     $COSGMS OPTIONS
     ---------------
     EPSI  =   INFTY     NSPA  =      92     COSRAD=    1.40
     DISEX =   10.00     OUTCHG=DBLCAV       COSBUG=       F
     COSWRT=       F     DCOSMO=       F

     SYMMETRY COORDINATES WILL NOT BE USED FOR 
     THE COSMO CALCULATION, EVEN IF SPECIFIED:
         -- SWITCHING TO C1 POINT GROUP --


     DEFINITION OF CAVITY
     ---------------------------
     ATOM         COORDINATES           RADIUS 
     1    8.7942    3.6731    2.0058    2.0000
     2    6.4784    1.9717    1.8098    2.0000
     3    4.0554    3.5026    2.0131    2.0000
     4   11.1001    2.2405    1.8194    2.0000
     5    1.7465    1.8315    1.8160    2.0000
     6   13.0085    1.0565    1.6626    2.0000
     7    8.7763    5.1246    0.4942    1.3000
     8    8.7925    4.7185    3.8220    1.3000
     9    6.5118    0.9194    0.0000    1.3000
    10    6.5318    0.5119    3.3099    1.3000
    11    4.0264    4.5525    3.8252    1.3000
    12    4.0096    4.9664    0.5159    1.3000
    13    0.0000    2.9406    1.9583    1.3000
    14    1.6898    0.8139    0.0083    1.3000
    15    1.7017    0.4072    3.3248    1.3000
    16   14.7132    0.0000    1.5212    1.3000

          ----------------
          PROPERTIES INPUT
          ----------------

     MOMENTS            FIELD           POTENTIAL          DENSITY
 IEMOM =       1   IEFLD =       0   IEPOT =       0   IEDEN =       0
 WHERE =COMASS     WHERE =NUCLEI     WHERE =NUCLEI     WHERE =NUCLEI  
 OUTPUT=BOTH       OUTPUT=BOTH       OUTPUT=BOTH       OUTPUT=BOTH    
 IEMINT=       0   IEFINT=       0                     IEDINT=       0
                                                       MORB  =       0
          EXTRAPOLATION IN EFFECT
          SOSCF IN EFFECT
 ORBITAL PRINTING OPTION: NPREO=     1   174     2     1

     -------------------------------
     INTEGRAL TRANSFORMATION OPTIONS
     -------------------------------
     NWORD  =            0
     CUTOFF = 1.0E-09     MPTRAN =       0
     DIRTRF =       T     AOINTS =DUP     

          ----------------------
          INTEGRAL INPUT OPTIONS
          ----------------------
 NOPK  =       1 NORDER=       0 SCHWRZ=       T


 -----------------------------------------------
  STATISTICS ON AUTOMATIC COORDINATE GENERATION 
 -----------------------------------------------
  NUMBER OF USER SPECIFIED BONDS                             0
  NUMBER OF BONDS                                           15
  NUMBER OF ANGLES                                          26
  NUMBER OF TORSIONS                                        31
  NUMBER OF EXTRA COORD.                                     0
  NUMBER OF EXTRA COORD. FOR CONSTRAINTS                     0
  NUMBER OF CONSTRAINED COORD.                               0

  TOTAL NUMBER OF PRIMITIVES                                72
 -----------------------------------------------

   --- ENCODED Z MATRIX ---
 COORD  TYPE   I   J   K   L   M   N
    1      1    1   8
    2      1    1   2
    3      1    1   7
    4      1    1   4
    5      1    2   3
    6      1    2   9
    7      1    2  10
    8      1    3  11
    9      1    3   5
   10      1    3  12
   11      1    4   6
   12      1    5  15
   13      1    5  14
   14      1    5  13
   15      1    6  16
   16      2    1   4   6
   17      2    1   2   3
   18      2    1   2   9
   19      2    1   2  10
   20      2    2   3  11
   21      2    2   3   5
   22      2    2   1   7
   23      2    2   1   4
   24      2    2   1   8
   25      2    2   3  12
   26      2    3   2  10
   27      2    3   5  13
   28      2    3   5  15
   29      2    3   5  14
   30      2    3   2   9
   31      2    4   1   8
   32      2    4   6  16
   33      2    4   1   7
   34      2    5   3  12
   35      2    5   3  11
   36      2    7   1   8
   37      2    9   2  10
   38      2   11   3  12
   39      2   13   5  14
   40      2   13   5  15
   41      2   14   5  15
   42      3    1   2   3  12
   43      3    1   2   3   5
   44      3    1   4   6  16
   45      3    1   2   3  11
   46      3    2   3   5  13
   47      3    2   3   5  14
   48      3    2   1   4   6
   49      3    2   3   5  15
   50      3    3   2   1   4
   51      3    3   2   1   7
   52      3    3   2   1   8
   53      3    4   1   2   9
   54      3    4   1   2  10
   55      3    5   3   2  10
   56      3    5   3   2   9
   57      3    6   4   1   7
   58      3    6   4   1   8
   59      3    7   1   2  10
   60      3    7   1   2   9
   61      3    8   1   2  10
   62      3    8   1   2   9
   63      3    9   2   3  12
   64      3    9   2   3  11
   65      3   10   2   3  12
   66      3   10   2   3  11
   67      3   11   3   5  14
   68      3   11   3   5  15
   69      3   11   3   5  13
   70      3   12   3   5  14
   71      3   12   3   5  15
   72      3   12   3   5  13

          INDEP./SYM. INTERNAL COORDINATES
          --------------------------------
 CRD  1=   0.1906 ( 16)  0.4814 ( 17) -0.1520 ( 18) -0.1528 ( 19)  0.1277 ( 20)
          -0.3892 ( 21)  0.1402 ( 22) -0.5071 ( 23)  0.1390 ( 24)  0.1350 ( 25)
          -0.1513 ( 26) -0.1407 ( 30)  0.1514 ( 31)  0.1679 ( 33)  0.1086 ( 34)
           0.1070 ( 35)
 CRD  2=  -0.6682 ( 16)  0.1734 ( 17)  0.1350 ( 20) -0.1607 ( 21) -0.1729 ( 30)
           0.1027 ( 31) -0.2741 ( 32) -0.1773 ( 33) -0.1265 ( 43)  0.1141 ( 46)
           0.3314 ( 50)  0.1354 ( 51)  0.1413 ( 52)  0.1941 ( 53)  0.1872 ( 54)
 CRD  3=   0.3573 (  2)  0.2256 (  4)  0.3710 (  5)  0.2845 (  9)  0.1612 ( 11)
           0.4618 ( 17) -0.1474 ( 18) -0.1534 ( 19)  0.2548 ( 21)  0.2050 ( 23)
          -0.1617 ( 26) -0.1140 ( 30) -0.1547 ( 31) -0.1133 ( 34) -0.1230 ( 35)
 CRD  4=  -0.1252 (  4)  0.1382 (  9) -0.1459 ( 20)  0.5199 ( 21)  0.1285 ( 22)
          -0.5090 ( 23)  0.1600 ( 24) -0.2138 ( 25)  0.1221 ( 26) -0.1331 ( 27)
           0.1450 ( 28)  0.2225 ( 31)  0.1151 ( 33) -0.1621 ( 34) -0.1393 ( 35)
           0.1135 ( 38)  0.1424 ( 50)  0.1105 ( 53)
 CRD  5=   0.1261 ( 16) -0.1955 ( 18)  0.2073 ( 19) -0.2140 ( 22)  0.1831 ( 24)
           0.2991 ( 28) -0.3095 ( 29) -0.2012 ( 34)  0.2098 ( 35) -0.2232 ( 42)
          -0.4217 ( 43) -0.2259 ( 45) -0.1320 ( 48) -0.2308 ( 55) -0.2359 ( 56)
 CRD  6=   0.1170 (  2) -0.4513 (  4) -0.1035 (  5)  0.1561 (  9) -0.4003 ( 11)
          -0.2338 ( 15) -0.2271 ( 16) -0.1913 ( 20)  0.1525 ( 22)  0.1069 ( 24)
           0.1304 ( 25) -0.2095 ( 26)  0.1211 ( 29)  0.1100 ( 30) -0.1256 ( 31)
          -0.1762 ( 32) -0.1622 ( 33)  0.1089 ( 35) -0.1713 ( 46) -0.1534 ( 47)
          -0.1579 ( 49) -0.1485 ( 50) -0.2188 ( 51) -0.1000 ( 57)
 CRD  7=   0.1837 (  2) -0.2360 (  4)  0.3254 (  9) -0.2146 ( 11) -0.1269 ( 15)
           0.2439 ( 16)  0.1546 ( 18)  0.1478 ( 20)  0.1080 ( 23) -0.2416 ( 25)
           0.1573 ( 26)  0.2150 ( 27)  0.1515 ( 28) -0.2091 ( 30) -0.1613 ( 31)
           0.1948 ( 32)  0.1906 ( 34) -0.1650 ( 40)  0.2090 ( 46)  0.2028 ( 47)
           0.1693 ( 49)  0.1310 ( 50)  0.1457 ( 51)  0.1993 ( 52)  0.1029 ( 66)
 CRD  8=   0.2277 (  2) -0.1562 (  4) -0.1216 (  5) -0.4958 (  9) -0.1450 ( 11)
           0.1518 ( 17)  0.1424 ( 20) -0.4626 ( 27) -0.1742 ( 30) -0.1443 ( 31)
          -0.1640 ( 35)  0.2367 ( 39)  0.1905 ( 40)  0.1024 ( 49) -0.1099 ( 64)
           0.1286 ( 65)
 CRD  9=   0.2485 (  2)  0.2546 (  4) -0.5642 (  5)  0.1815 (  9)  0.2434 ( 11)
           0.1473 ( 15)  0.1098 ( 18)  0.1484 ( 19) -0.1264 ( 20) -0.1567 ( 26)
          -0.2133 ( 27)  0.1446 ( 28)  0.2265 ( 29)  0.1202 ( 35) -0.1825 ( 41)
           0.1077 ( 54)  0.1229 ( 59) -0.1223 ( 62) -0.1095 ( 63)  0.1019 ( 66)
 CRD 10=  -0.1033 ( 12) -0.1476 ( 18)  0.1584 ( 19) -0.3413 ( 22)  0.3528 ( 24)
          -0.4288 ( 28)  0.3988 ( 29) -0.1757 ( 31)  0.1570 ( 33)  0.1186 ( 34)
          -0.1266 ( 35) -0.1679 ( 39)  0.1692 ( 40) -0.1662 ( 42) -0.1721 ( 45)
          -0.2153 ( 48)  0.1011 ( 57)  0.1142 ( 58)
 CRD 11=   0.1270 (  1)  0.5132 (  2)  0.1135 (  3)  0.1205 (  6)  0.1477 (  7)
          -0.1975 (  9)  0.1140 ( 14) -0.1788 ( 17)  0.1335 ( 18)  0.1332 ( 19)
           0.2059 ( 22) -0.1795 ( 23)  0.1221 ( 24)  0.3352 ( 27) -0.2855 ( 28)
          -0.2342 ( 29) -0.1683 ( 36) -0.1108 ( 37)  0.2433 ( 41) -0.1022 ( 57)
 CRD 12=   0.1025 ( 12) -0.1140 ( 13) -0.2607 ( 18)  0.2672 ( 19)  0.2559 ( 20)
           0.1110 ( 22) -0.2773 ( 25) -0.2708 ( 26)  0.1171 ( 28) -0.1620 ( 29)
           0.2686 ( 30)  0.2797 ( 34) -0.2841 ( 35) -0.1477 ( 42) -0.1470 ( 45)
           0.1333 ( 46)  0.1539 ( 47)  0.1504 ( 49) -0.1410 ( 50) -0.1719 ( 51)
          -0.1743 ( 52)  0.1770 ( 55)  0.1745 ( 56)
 CRD 13=   0.1800 (  2)  0.3539 (  5)  0.2391 (  7)  0.2368 (  8)  0.1042 (  9)
           0.1178 ( 10)  0.1070 ( 13) -0.1073 ( 14) -0.2103 ( 17)  0.1346 ( 19)
           0.1549 ( 20) -0.2465 ( 21)  0.2190 ( 22) -0.1174 ( 24)  0.1496 ( 25)
          -0.2709 ( 27)  0.3042 ( 29)  0.1349 ( 30)  0.1570 ( 31)  0.1414 ( 32)
          -0.1289 ( 33) -0.1270 ( 37) -0.1411 ( 38) -0.1924 ( 41)
 CRD 14=  -0.1631 (  1) -0.1127 (  2) -0.1798 (  5) -0.2489 (  6) -0.2214 ( 10)
          -0.1388 ( 12)  0.1313 ( 16)  0.1360 ( 17) -0.1232 ( 18)  0.1262 ( 21)
           0.2161 ( 22)  0.1269 ( 23) -0.3599 ( 24)  0.1223 ( 27) -0.2993 ( 28)
           0.1251 ( 29)  0.1865 ( 31)  0.2447 ( 32) -0.2501 ( 33) -0.1377 ( 39)
           0.1042 ( 40) -0.1117 ( 42) -0.1917 ( 43) -0.1124 ( 45)  0.1422 ( 48)
           0.1030 ( 50) -0.1116 ( 55) -0.1004 ( 58)
 CRD 15=   0.2135 (  1) -0.2783 (  3) -0.1183 (  6) -0.3137 (  8)  0.3002 ( 10)
          -0.1050 ( 18)  0.1110 ( 19)  0.1293 ( 31)  0.4252 ( 32) -0.1465 ( 33)
          -0.1518 ( 46) -0.1236 ( 47) -0.1231 ( 49)  0.2162 ( 50)  0.2384 ( 53)
           0.2530 ( 54)  0.1666 ( 55)  0.1578 ( 56)
 CRD 16=   0.1738 (  9)  0.5032 ( 12)  0.5027 ( 13)  0.4803 ( 14) -0.1942 ( 27)
          -0.1765 ( 28) -0.1769 ( 29)  0.2002 ( 39)  0.1998 ( 40)  0.1875 ( 41)
 CRD 17=  -0.3073 (  1)  0.3245 (  3) -0.3953 (  6)  0.4006 (  7) -0.3153 (  8)
           0.3183 ( 10) -0.1940 ( 32)  0.1066 ( 34) -0.1036 ( 35) -0.1389 ( 42)
          -0.1375 ( 45) -0.1075 ( 46)  0.1179 ( 51)  0.1173 ( 52) -0.1374 ( 53)
          -0.1431 ( 54)
 CRD 18=  -0.5733 (  1) -0.5931 (  3)  0.1425 ( 11)  0.1510 ( 15)  0.1665 ( 22)
           0.1651 ( 24) -0.3075 ( 36) -0.1855 ( 57)  0.1863 ( 58)
 CRD 19=  -0.2196 (  1)  0.2297 (  3) -0.1598 ( 18)  0.1593 ( 19) -0.1328 ( 20)
           0.1328 ( 25) -0.1248 ( 26)  0.1253 ( 30) -0.1176 ( 31)  0.1162 ( 33)
          -0.1713 ( 34)  0.1714 ( 35)  0.1376 ( 42)  0.1377 ( 45)  0.1030 ( 46)
           0.1314 ( 51)  0.1328 ( 52)  0.1284 ( 55)  0.1287 ( 56)  0.1806 ( 59)
           0.1809 ( 60)  0.1820 ( 61)  0.1823 ( 62)  0.2542 ( 63)  0.2543 ( 64)
           0.2540 ( 65)  0.2540 ( 66)  0.1470 ( 67)  0.1473 ( 68)  0.1531 ( 69)
           0.1470 ( 70)  0.1473 ( 71)  0.1531 ( 72)
 CRD 20=   0.1691 (  8)  0.1694 ( 10)  0.2930 ( 12)  0.2968 ( 13) -0.6346 ( 14)
          -0.1578 ( 39) -0.1599 ( 40)  0.3280 ( 41) -0.1713 ( 47)  0.1720 ( 49)
          -0.1559 ( 67)  0.1874 ( 68) -0.1867 ( 70)  0.1566 ( 71)
 CRD 21=   0.5503 ( 12) -0.5480 ( 13) -0.2950 ( 39)  0.2939 ( 40)  0.2235 ( 46)
          -0.1062 ( 67) -0.1050 ( 68)  0.2115 ( 69) -0.1063 ( 70) -0.1051 ( 71)
           0.2115 ( 72)
 CRD 22=  -0.4834 (  6) -0.4827 (  7)  0.3817 (  8)  0.3820 ( 10)  0.1041 ( 14)
          -0.1795 ( 37)  0.1342 ( 38) -0.1496 ( 64)  0.1500 ( 65)
 CRD 23=  -0.1199 (  5)  0.3725 (  6)  0.3728 (  7)  0.4474 (  8)  0.4471 ( 10)
           0.1047 ( 14)  0.1743 ( 37)  0.2012 ( 38)  0.1342 ( 63) -0.1339 ( 66)
           0.1258 ( 67) -0.1257 ( 71)
 CRD 24=  -0.3126 (  1)  0.2630 (  3)  0.3237 (  6) -0.3278 (  7)  0.1696 ( 32)
           0.1066 ( 33) -0.1098 ( 47) -0.1089 ( 49)  0.1602 ( 51)  0.1374 ( 52)
           0.1488 ( 53)  0.1573 ( 54)  0.2628 ( 59)  0.2543 ( 60)  0.2400 ( 61)
           0.2316 ( 62) -0.1183 ( 63) -0.1224 ( 64) -0.1069 ( 65) -0.1109 ( 66)
          -0.1351 ( 67) -0.1342 ( 68) -0.1185 ( 69) -0.1327 ( 70) -0.1318 ( 71)
          -0.1161 ( 72)
 CRD 25=  -0.1185 (  1)  0.1261 (  2) -0.1304 (  3)  0.4278 (  4) -0.3538 ( 11)
          -0.6273 ( 15) -0.1257 ( 22) -0.1237 ( 24)  0.1873 ( 31) -0.1005 ( 32)
           0.1711 ( 33)  0.1039 ( 51) -0.1428 ( 52)  0.1285 ( 59) -0.1183 ( 61)
          -0.1855 ( 62)
 CRD 26=  -0.2211 (  6)  0.2210 (  7)  0.3717 (  8) -0.3717 ( 10)  0.1076 ( 42)
           0.1069 ( 45) -0.1703 ( 46) -0.1588 ( 47) -0.1587 ( 49)  0.1303 ( 63)
           0.1295 ( 64)  0.1320 ( 65)  0.1313 ( 66) -0.2506 ( 67) -0.2505 ( 68)
          -0.2621 ( 69) -0.2501 ( 70) -0.2499 ( 71) -0.2616 ( 72)
 CRD 27=  -0.1056 (  1)  0.2243 (  3)  0.1199 (  4) -0.1197 ( 15) -0.4916 ( 16)
           0.1350 ( 24)  0.6816 ( 32) -0.1133 ( 50) -0.1124 ( 53) -0.1519 ( 54)
          -0.1200 ( 59) -0.1276 ( 61)
 CRD 28=  -0.2512 (  1)  0.1219 (  2) -0.2876 (  4)  0.1469 ( 14)  0.3023 ( 15)
          -0.1364 ( 16)  0.1967 ( 18)  0.1495 ( 19) -0.2383 ( 22) -0.1613 ( 24)
           0.1142 ( 25) -0.1261 ( 26)  0.1011 ( 27) -0.1704 ( 30)  0.1681 ( 31)
           0.1224 ( 32)  0.1771 ( 33) -0.1363 ( 34) -0.1396 ( 35)  0.1670 ( 36)
          -0.1188 ( 40)  0.1050 ( 42) -0.1164 ( 53)  0.1296 ( 55)  0.2067 ( 57)
          -0.1774 ( 58) -0.1162 ( 60) -0.1581 ( 62) -0.1847 ( 64)  0.2022 ( 65)
 CRD 29=  -0.1841 (  1)  0.2783 (  2)  0.1404 (  5)  0.1733 (  9) -0.1110 ( 11)
          -0.1799 ( 12) -0.1944 ( 13) -0.2878 ( 14)  0.1601 ( 15) -0.1545 ( 20)
          -0.1653 ( 22) -0.1236 ( 24) -0.1413 ( 25) -0.2280 ( 27) -0.1981 ( 28)
          -0.1984 ( 29)  0.1031 ( 31)  0.1627 ( 34)  0.1638 ( 35)  0.1562 ( 36)
           0.2558 ( 39)  0.2438 ( 40)  0.1705 ( 41) -0.1040 ( 42)  0.1283 ( 45)
           0.1523 ( 57) -0.1296 ( 58) -0.1075 ( 63)  0.1248 ( 64) -0.1093 ( 65)
           0.1230 ( 66)
 CRD 30=   0.1683 (  1)  0.2335 (  4) -0.6732 ( 11)  0.5665 ( 15) -0.1850 ( 36)
           0.1061 ( 51) -0.1077 ( 57)  0.1354 ( 59)
 CRD 31=  -0.1795 (  1)  0.2929 (  2)  0.1142 (  4) -0.4110 (  9) -0.1373 ( 11)
           0.2151 ( 12)  0.2043 ( 13) -0.1303 ( 18) -0.1362 ( 19) -0.1172 ( 20)
          -0.1032 ( 25)  0.1734 ( 26)  0.1438 ( 27)  0.1524 ( 28)  0.1579 ( 29)
           0.1407 ( 30)  0.1634 ( 36) -0.1118 ( 39) -0.1208 ( 40) -0.2542 ( 41)
           0.1247 ( 53) -0.1066 ( 54)  0.1062 ( 57) -0.2121 ( 59)  0.1316 ( 62)
           0.1586 ( 67) -0.1633 ( 71) -0.1153 ( 72)
 CRD 32=   0.1436 (  1) -0.1833 (  3) -0.2341 (  6)  0.2514 (  7)  0.2200 (  8)
          -0.2540 ( 10)  0.1857 ( 12) -0.1234 ( 13) -0.1028 ( 16)  0.1373 ( 33)
           0.1011 ( 34)  0.1186 ( 39) -0.1107 ( 40)  0.1804 ( 59)  0.1953 ( 60)
           0.1724 ( 61)  0.1873 ( 62) -0.2387 ( 63) -0.2365 ( 64) -0.2180 ( 65)
          -0.2158 ( 66)  0.2236 ( 67)  0.1823 ( 68)  0.1708 ( 70)  0.1295 ( 71)
 CRD 33=   0.2069 (  1) -0.1037 (  2) -0.2077 (  4)  0.3429 (  5) -0.1926 (  8)
          -0.1161 (  9)  0.1022 ( 11)  0.2783 ( 13) -0.2181 ( 14) -0.1858 ( 25)
          -0.1458 ( 26)  0.1528 ( 33) -0.1314 ( 36)  0.1386 ( 38)  0.1673 ( 40)
          -0.2052 ( 41)  0.1415 ( 46)  0.1202 ( 47) -0.1353 ( 49) -0.1086 ( 50)
           0.1056 ( 51) -0.1268 ( 53)  0.2056 ( 59) -0.1008 ( 62)  0.1466 ( 67)
          -0.1088 ( 68)  0.1679 ( 69) -0.3282 ( 71)
 CRD 34=   0.1123 (  1)  0.1228 (  2) -0.3156 (  3)  0.1039 (  4) -0.1994 (  5)
           0.1667 (  7)  0.1510 ( 10) -0.2842 ( 12)  0.1444 ( 13)  0.1100 ( 14)
          -0.1757 ( 16)  0.1426 ( 20)  0.1668 ( 30) -0.1446 ( 31)  0.1288 ( 33)
           0.1432 ( 36) -0.1953 ( 39)  0.1283 ( 40)  0.1012 ( 41)  0.2382 ( 46)
           0.1126 ( 48) -0.2057 ( 50) -0.1589 ( 54) -0.1370 ( 58)  0.1220 ( 60)
           0.1236 ( 61)  0.2563 ( 62) -0.2253 ( 67) -0.1477 ( 70)  0.1640 ( 72)
 CRD 35=   0.2530 (  2) -0.2570 (  4) -0.1716 (  6) -0.1423 (  7)  0.1331 (  8)
          -0.2921 (  9)  0.1497 ( 10)  0.1035 ( 11)  0.1950 ( 14) -0.1023 ( 19)
           0.1211 ( 33)  0.1131 ( 34)  0.1079 ( 35) -0.1065 ( 36)  0.2446 ( 37)
          -0.2202 ( 38) -0.1245 ( 39) -0.1276 ( 42)  0.1383 ( 45)  0.1014 ( 51)
          -0.1028 ( 52) -0.1401 ( 55)  0.1294 ( 56)  0.2041 ( 59) -0.1790 ( 62)
           0.2649 ( 64) -0.2706 ( 65) -0.1606 ( 67)  0.1412 ( 71)
 CRD 36=  -0.2717 (  2)  0.1962 (  4)  0.2779 (  5) -0.2831 (  9)  0.1775 ( 14)
           0.1623 ( 18)  0.1660 ( 19) -0.1538 ( 20) -0.1530 ( 25) -0.1551 ( 26)
          -0.1579 ( 30)  0.1607 ( 34)  0.1640 ( 35) -0.1375 ( 42)  0.1344 ( 45)
          -0.1007 ( 47)  0.1038 ( 49) -0.1042 ( 51)  0.1081 ( 52)  0.1323 ( 55)
          -0.1325 ( 56) -0.1616 ( 60)  0.1594 ( 61) -0.2666 ( 63)  0.2701 ( 66)
           0.1495 ( 68) -0.1477 ( 70)
 CRD 37=  -0.1313 (  1)  0.2129 (  4) -0.1699 (  6)  0.1176 (  8)  0.1694 ( 13)
          -0.2037 ( 14) -0.1328 ( 17)  0.1012 ( 21) -0.1259 ( 23)  0.1226 ( 24)
           0.1519 ( 27) -0.1112 ( 29) -0.1100 ( 33)  0.1403 ( 36)  0.1841 ( 37)
          -0.1383 ( 38)  0.1213 ( 40) -0.1573 ( 41)  0.1176 ( 47) -0.1814 ( 49)
          -0.1815 ( 51)  0.1013 ( 52)  0.1934 ( 54) -0.2767 ( 60)  0.2875 ( 61)
          -0.1446 ( 65) -0.2785 ( 68)  0.2573 ( 70)  0.1948 ( 72)
 CRD 38=   0.1327 (  1) -0.2250 (  3)  0.1112 (  6) -0.1468 (  7)  0.1572 ( 10)
           0.2328 ( 12) -0.1692 ( 13) -0.1294 ( 16) -0.1130 ( 18)  0.1330 ( 19)
           0.1290 ( 22) -0.1303 ( 24) -0.1602 ( 28)  0.1150 ( 29) -0.1052 ( 31)
           0.1074 ( 33) -0.1414 ( 34)  0.1098 ( 35)  0.1691 ( 39) -0.1284 ( 40)
          -0.1011 ( 42) -0.2498 ( 43) -0.1499 ( 46)  0.1783 ( 47)  0.1570 ( 48)
           0.1710 ( 52) -0.2323 ( 53) -0.1879 ( 54) -0.1169 ( 58)  0.1291 ( 64)
           0.1103 ( 66) -0.3053 ( 69)  0.1120 ( 70) -0.2162 ( 72)
 CRD 39=   0.1180 (  2)  0.2540 (  5) -0.1405 (  6) -0.1421 (  7) -0.1643 (  8)
           0.1359 (  9) -0.1380 ( 10)  0.1079 ( 14) -0.2071 ( 17) -0.2208 ( 21)
          -0.1008 ( 23) -0.1364 ( 27)  0.2097 ( 37)  0.2241 ( 38)  0.1380 ( 42)
          -0.1371 ( 45)  0.1142 ( 49) -0.1436 ( 53)  0.1112 ( 54) -0.1455 ( 55)
           0.1194 ( 56) -0.2004 ( 60)  0.2115 ( 61)  0.2753 ( 63) -0.2647 ( 66)
           0.2382 ( 68)  0.1193 ( 69) -0.2390 ( 70) -0.1602 ( 72)
 CRD 40=  -0.1688 (  6)  0.1757 (  7) -0.1706 (  8)  0.1727 ( 10)  0.1173 ( 18)
          -0.1188 ( 19)  0.1473 ( 20)  0.1060 ( 24) -0.1490 ( 25) -0.1487 ( 26)
          -0.1063 ( 28)  0.1055 ( 29)  0.1479 ( 30) -0.1196 ( 34)  0.1201 ( 35)
           0.2488 ( 42)  0.2516 ( 45)  0.2383 ( 47) -0.1079 ( 48)  0.2369 ( 49)
          -0.1014 ( 50) -0.2278 ( 51) -0.2400 ( 52)  0.1699 ( 53)  0.1629 ( 54)
          -0.2510 ( 55) -0.2575 ( 56) -0.1883 ( 69) -0.1867 ( 72)
 CRD 41=  -0.4868 ( 44) -0.5041 ( 48) -0.5049 ( 57) -0.5040 ( 58)
 CRD 42=  -0.8735 ( 44)  0.2810 ( 48)  0.2811 ( 57)  0.2810 ( 58)

 THE DETERMINANT OF THE G MATRIX IS 10**(    -4)


                     --------------------
                     INTERNAL COORDINATES
                     --------------------

                 - - ATOMS - -         COORDINATE      COORDINATE
 NO.   TYPE    I  J  K  L  M  N        (BOHR,RAD)       (ANG,DEG)
 ----------------------------------------------------------------
   1 STRETCH   1  8                     2.0955896       1.1089383
   2 STRETCH   1  2                     2.8802946       1.5241864
   3 STRETCH   1  7                     2.0957290       1.1090121
   4 STRETCH   1  4                     2.7210254       1.4399047
   5 STRETCH   2  3                     2.8733012       1.5204856
   6 STRETCH   2  9                     2.0937961       1.1079893
   7 STRETCH   2 10                     2.0938263       1.1080052
   8 STRETCH   3 11                     2.0944564       1.1083387
   9 STRETCH   3  5                     2.8569634       1.5118400
  10 STRETCH   3 12                     2.0943843       1.1083005
  11 STRETCH   4  6                     2.2513048       1.1913393
  12 STRETCH   5 15                     2.0753183       1.0982112
  13 STRETCH   5 14                     2.0752305       1.0981647
  14 STRETCH   5 13                     2.0737686       1.0973912
  15 STRETCH   6 16                     2.0105586       1.0639418
  16 BEND      1  4  6                  3.1402212     179.9214204
  17 BEND      1  2  3                  1.9374661     111.0086329
  18 BEND      1  2  9                  1.9207456     110.0506166
  19 BEND      1  2 10                  1.9204150     110.0316744
  20 BEND      2  3 11                  1.9176592     109.8737799
  21 BEND      2  3  5                  1.9444109     111.4065391
  22 BEND      2  1  7                  1.9317225     110.6795460
  23 BEND      2  1  4                  1.9451896     111.4511516
  24 BEND      2  1  8                  1.9315456     110.6694097
  25 BEND      2  3 12                  1.9179205     109.8887510
  26 BEND      3  2 10                  1.9201605     110.0170918
  27 BEND      3  5 13                  1.9423414     111.2879650
  28 BEND      3  5 15                  1.9484198     111.6362291
  29 BEND      3  5 14                  1.9487233     111.6536200
  30 BEND      3  2  9                  1.9203000     110.0250853
  31 BEND      4  1  8                  1.8993554     108.8250491
  32 BEND      4  6 16                  3.1408301     179.9563116
  33 BEND      4  1  7                  1.8991838     108.8152137
  34 BEND      5  3 12                  1.9196682     109.9888863
  35 BEND      5  3 11                  1.9195684     109.9831652
  36 BEND      7  1  8                  1.8541764     106.2364811
  37 BEND      9  2 10                  1.8425388     105.5696961
  38 BEND     11  3 12                  1.8419393     105.5353482
  39 BEND     13  5 14                  1.8744599     107.3986400
  40 BEND     13  5 15                  1.8744221     107.3964769
  41 BEND     14  5 15                  1.8714635     107.2269615
  42 TORSION   1  2  3 12               1.0077049      57.7372376
  43 TORSION   1  2  3  5               3.1397938     179.8969304
  44 TORSION   1  4  6 16               0.0706767       4.0494743
  45 TORSION   1  2  3 11              -1.0116097     -57.9609649
  46 TORSION   2  3  5 13              -3.1390403    -179.8537583
  47 TORSION   2  3  5 14              -1.0446764     -59.8555482
  48 TORSION   2  1  4  6               1.9823784     113.5819183
  49 TORSION   2  3  5 15               1.0500353      60.1625903
  50 TORSION   3  2  1  4               3.1399524     179.9060225
  51 TORSION   3  2  1  7              -1.0271086     -58.8489866
  52 TORSION   3  2  1  8               1.0237317      58.6555061
  53 TORSION   4  1  2  9              -1.0130758     -58.0449688
  54 TORSION   4  1  2 10               1.0101969      57.8800215
  55 TORSION   5  3  2 10              -1.0134878     -58.0685733
  56 TORSION   5  3  2  9               1.0093772      57.8330524
  57 TORSION   6  4  1  7              -0.1525973      -8.7431831
  58 TORSION   6  4  1  8              -2.1659366    -124.0990248
  59 TORSION   7  1  2 10               3.1263212     179.1250124
  60 TORSION   7  1  2  9               1.1030485      63.2000221
  61 TORSION   8  1  2 10              -1.1060238     -63.3704948
  62 TORSION   8  1  2  9              -3.1292965    -179.2954851
  63 TORSION   9  2  3 12              -1.1227117     -64.3266404
  64 TORSION   9  2  3 11               3.1411591     179.9751570
  65 TORSION  10  2  3 12               3.1376087     179.7717339
  66 TORSION  10  2  3 11               1.1182941      64.0735313
  67 TORSION  11  3  5 14               3.1078300     178.0655424
  68 TORSION  11  3  5 15              -1.0806436     -61.9163191
  69 TORSION  11  3  5 13               1.0134661      58.0673323
  70 TORSION  12  3  5 14               1.0864030      62.2463063
  71 TORSION  12  3  5 15              -3.1020706    -177.7355552
  72 TORSION  12  3  5 13              -1.0079609     -57.7519038

     ------------------------------------------
     THE POINT GROUP IS C1 , NAXIS= 1, ORDER= 1
     ------------------------------------------

     DIMENSIONS OF THE SYMMETRY SUBSPACES ARE
 A   =  174

 ..... DONE SETTING UP THE RUN .....
 STEP CPU TIME =     0.01 TOTAL CPU TIME =        0.0 (    0.0 MIN)
 TOTAL WALL CLOCK TIME=        0.0 SECONDS, CPU UTILIZATION IS  50.00%


          -----------------------------
          STATIONARY POINT LOCATION RUN
          -----------------------------

 OBTAINING INITIAL HESSIAN, HESS=GUESS   
 DIAGONAL GUESS HESSIAN IN INTERNAL COORDS IS
     1  0.3338     2  0.3713     3  0.3338     4  0.4375     5  0.3740
     6  0.3345     7  0.3345     8  0.3342     9  0.3804    10  0.3343
    11  0.7092    12  0.3409    13  0.3409    14  0.3414    15  0.3644
    16  0.2816    17  0.2496    18  0.2234    19  0.2234    20  0.2236
    21  0.2504    22  0.2233    23  0.2554    24  0.2233    25  0.2236
    26  0.2236    27  0.2247    28  0.2247    29  0.2247    30  0.2236
    31  0.2284    32  0.2476    33  0.2284    34  0.2241    35  0.2241
    36  0.2015    37  0.2016    38  0.2016    39  0.2026    40  0.2026
    41  0.2026    42  0.2500    43  0.2500    44  0.2500    45  0.2500
    46  0.2500    47  0.2500    48  0.2500    49  0.2500    50  0.2500
    51  0.2500    52  0.2500    53  0.2500    54  0.2500    55  0.2500
    56  0.2500    57  0.2500    58  0.2500    59  0.2500    60  0.2500
    61  0.2500    62  0.2500    63  0.2500    64  0.2500    65  0.2500
    66  0.2500    67  0.2500    68  0.2500    69  0.2500    70  0.2500
    71  0.2500    72  0.2500
 TRANSFORMING HESSIAN TO SYMMETRY COORDINATES

          PARAMETERS CONTROLLING GEOMETRY SEARCH ARE
          METHOD =QA                  UPHESS =BFGS    
          NNEG   =         0          NFRZ   =         3
          NSTEP  =        50          IFOLOW =         1
          HESS   =GUESS               RESTAR =         F
          IHREP  =         0          HSSEND =         F
          NPRT   =         0          NPUN   =         0
          OPTTOL = 5.000E-04          RMIN   = 1.500E-03
          RMAX   = 1.000E-01          RLIM   = 7.000E-02
          DXMAX  = 3.000E-01          PURIFY =         F
          MOVIE  =         F          TRUPD  =         T
          TRMAX  = 5.000E-01          TRMIN  = 5.000E-02
          ITBMAT =         5          STPT   =         F
          STSTEP = 1.000E-02          PROJCT=          F
          FROZEN COORD(S)=   1   2   3


      ***** EQUILIBRIUM GEOMETRY LOCATED *****
            (SUBJECT TO   3 CONSTRAINT(S))
 COORDINATES OF ALL ATOMS ARE (ANGS)
   ATOM   CHARGE       X              Y              Z
 ------------------------------------------------------------
 C           6.0   4.6480328397   1.9336680177   1.0905283287
 C           6.0   3.4178994674   1.0297162346   1.0103328992
 C           6.0   2.1387128060   1.8536529482   1.0484252240
 C           6.0   5.9014914089   1.1824427500   0.9512897778
 C           6.0   0.8953470540   0.9828007872   0.9394416484
 C           6.0   6.9126880360   0.5712467074   0.8467846865
 H           1.0   4.5975753410   2.6814355899   0.3053396560
 H           1.0   4.6532082963   2.4646150473   2.0373876879
 H           1.0   3.4556932749   0.4480029271   0.0922591749
 H           1.0   3.4330829685   0.3178068601   1.8329273266
 H           1.0   2.1130177955   2.4325299364   1.9698611079
 H           1.0   2.1613467328   2.5722484586   0.2312981910
 H           1.0  -0.0086206944   1.5828052320   0.9410699647
 H           1.0   0.9181216922   0.4043980147   0.0193798825
 H           1.0   0.8430838872   0.2850474697   1.7711844208
 H           1.0   7.8139386690   0.0282905106   0.7513502457


                     --------------------
                     INTERNAL COORDINATES
                     --------------------

                 - - ATOMS - -         COORDINATE      COORDINATE
 NO.   TYPE    I  J  K  L  M  N        (BOHR,RAD)       (ANG,DEG)
 ----------------------------------------------------------------
   1 STRETCH   1  8                     2.0514402       1.0855755
   2 STRETCH   1  2                     2.8887404       1.5286557
   3 STRETCH   1  7                     2.0512221       1.0854601
   4 STRETCH   1  4                     2.7740284       1.4679527
   5 STRETCH   2  3                     2.8762606       1.5220517
   6 STRETCH   2  9                     2.0550960       1.0875100
   7 STRETCH   2 10                     2.0559898       1.0879830
   8 STRETCH   3 11                     2.0569413       1.0884865
   9 STRETCH   3  5                     2.8759986       1.5219130
  10 STRETCH   3 12                     2.0567550       1.0883880
  11 STRETCH   4  6                     2.2415373       1.1861705
  12 STRETCH   5 15                     2.0539741       1.0869164
  13 STRETCH   5 14                     2.0541435       1.0870060
  14 STRETCH   5 13                     2.0503010       1.0849727
  15 STRETCH   6 16                     1.9964683       1.0564856
  16 BEND      1  4  6                  3.1338550     179.5566642
  17 BEND      1  2  3                  1.9335910     110.7866042
  18 BEND      1  2  9                  1.9098880     109.4285241
  19 BEND      1  2 10                  1.9135057     109.6358026
  20 BEND      2  3 11                  1.9059521     109.2030111
  21 BEND      2  3  5                  1.9552662     112.0285027
  22 BEND      2  1  7                  1.9092334     109.3910173
  23 BEND      2  1  4                  1.9600944     112.3051345
  24 BEND      2  1  8                  1.9164516     109.8045867
  25 BEND      2  3 12                  1.8977312     108.7319894
  26 BEND      3  2 10                  1.9251899     110.3052567
  27 BEND      3  5 13                  1.9434988     111.3542770
  28 BEND      3  5 15                  1.9303097     110.5986017
  29 BEND      3  5 14                  1.9262019     110.3632376
  30 BEND      3  2  9                  1.9176028     109.8705450
  31 BEND      4  1  8                  1.9059924     109.2053208
  32 BEND      4  6 16                  3.1389280     179.8473240
  33 BEND      4  1  7                  1.9003507     108.8820776
  34 BEND      5  3 12                  1.9187999     109.9391363
  35 BEND      5  3 11                  1.9237225     110.2211789
  36 BEND      7  1  8                  1.8694406     107.1110565
  37 BEND      9  2 10                  1.8627062     106.7252055
  38 BEND     11  3 12                  1.8597104     106.5535552
  39 BEND     13  5 14                  1.8891344     108.2394295
  40 BEND     13  5 15                  1.8899890     108.2883956
  41 BEND     14  5 15                  1.8829661     107.8860078
  42 TORSION   1  2  3 12               0.9954771      57.0366385
  43 TORSION   1  2  3  5               3.1197605     178.7491083
  44 TORSION   1  4  6 16              -3.0711454    -175.9636685
  45 TORSION   1  2  3 11              -1.0272252     -58.8556708
  46 TORSION   2  3  5 13              -3.1151372    -178.4842144
  47 TORSION   2  3  5 14              -1.0166043     -58.2471367
  48 TORSION   2  1  4  6              -1.1633987     -66.6578368
  49 TORSION   2  3  5 15               1.0656780      61.0588503
  50 TORSION   3  2  1  4              -3.0638200    -175.5439561
  51 TORSION   3  2  1  7              -0.9517545     -54.5315179
  52 TORSION   3  2  1  8               1.0951000      62.7446078
  53 TORSION   4  1  2  9              -0.9468720     -54.2517706
  54 TORSION   4  1  2 10               1.0905155      62.4819337
  55 TORSION   5  3  2 10              -1.0414289     -59.6694815
  56 TORSION   5  3  2  9               1.0073678      57.7179212
  57 TORSION   6  4  1  7               3.0026233     172.0376452
  58 TORSION   6  4  1  8               0.9668228      55.3948647
  59 TORSION   7  1  2 10              -3.0806044    -176.5056280
  60 TORSION   7  1  2  9               1.1651935      66.7606677
  61 TORSION   8  1  2 10              -1.0337498     -59.2295024
  62 TORSION   8  1  2  9              -3.0711373    -175.9632067
  63 TORSION   9  2  3 12              -1.1169156     -63.9945486
  64 TORSION   9  2  3 11              -3.1396180    -179.8868579
  65 TORSION  10  2  3 12               3.1174731     178.6180487
  66 TORSION  10  2  3 11               1.0947707      62.7257394
  67 TORSION  11  3  5 14               3.1405296     179.9390914
  68 TORSION  11  3  5 15              -1.0603734     -60.7549217
  69 TORSION  11  3  5 13               1.0419967      59.7020136
  70 TORSION  12  3  5 14               1.0955507      62.7704299
  71 TORSION  12  3  5 15              -3.1053523    -177.9235832
  72 TORSION  12  3  5 13              -1.0029822     -57.4666479

          INTERNUCLEAR DISTANCES (ANGS.)


 =====================================================
   GAMESS/COSab RESULTS
 =====================================================

   Dielectric Constant                  = INFTY
   Basic Grid Size                      =                 1082
   Number of Segments                   =                   92
   Number of Segments located on spheres=                  243
   Number of Segments of the cavity     =                  604
   Solvent Radius (rsolv)               = 1.40
   Outlying Charge Error Method         = double cavity

 =====================================================

  Total solvated Energy (a.u.)          =  -233.0344691403
  Total Energy corrected (a.u.)         =  -233.0344929996

  Outlying charge effect (a.u.)         =    -0.0000238593
  Outlying charge effect (kcal/mol)     =    -0.0149719454

  Dielectric Energy (a.u.)              =    -0.0071131455
  Dielectric energy corr. (a.u.)        =    -0.0071370048

  Sum of polarization charges           =     0.0251439075
  Sum of polarization charges(cor.)     =    -0.0251439075

  Total surface area of cavity (A**2)   =  146.65
  Total volume of cavity (A**3)         =  135.04

 =====================================================
 NPS=                   604
NR.  ATOM  (X, Y, Z)(a.u.)                  CHARGE(e)  AREA(A**2) SIGMA(e/A**2)
   1   1   9.915914   7.171154   2.855924   0.000567   0.371649   0.001525
   2   1   8.919431   2.470846   5.647670  -0.000129   0.092912  -0.001386
   3   1   9.440653   7.374559   1.957910   0.000414   0.278737   0.001485
   4   1   8.987915   3.569634  -1.712185  -0.000223   0.139368  -0.001603
   5   1   7.524657   7.137901   2.810885   0.000124   0.232280   0.000536
   6   1   8.551344   7.373637   2.689577   0.000734   0.371649   0.001975
   7   1  10.590879   6.970991   2.186900   0.000151   0.232280   0.000651
   8   1  11.232454   6.512386   1.718541   0.000179   0.139368   0.001283
   9   1  10.952686   6.410867   3.467620  -0.000014   0.185824  -0.000074
  10   1   9.220499   2.724264   5.697920  -0.000080   0.046456  -0.001717
  11   1  10.755530   6.795119   1.333196  -0.000175   0.232280  -0.000754
  12   1   7.783316   7.298154   1.992210   0.000054   0.139368   0.000389
  13   1   8.427132   3.546468  -1.700282  -0.000080   0.046456  -0.001728
  14   1  11.132835   6.531581   2.757234  -0.000191   0.232280  -0.000822
  15   2   5.598231  -1.734069   1.948585   0.001159   0.325193   0.003564
  16   2   6.388435   2.408768   5.659584   0.000012   0.092912   0.000134
  17   2   5.812037  -1.688198   1.097234   0.000919   0.278737   0.003297
  18   2   6.181371   2.760291  -1.770964   0.000069   0.139368   0.000496
  19   2   7.743370  -1.608438   1.944702   0.000765   0.232280   0.003293
  20   2   6.809472  -1.815408   1.790392   0.001492   0.325193   0.004587
  21   2   6.089223   2.148328   5.665125   0.000033   0.046456   0.000700
  22   2   7.469469  -1.608387   1.115370   0.000385   0.139368   0.002766
  23   2   6.742202   2.784604  -1.765058   0.000003   0.046456   0.000054
  24   3   2.946250   7.119314   1.903891   0.001643   0.371649   0.004420
  25   3   4.153752   3.055478  -1.769959   0.000106   0.092912   0.001141
  26   3   3.215111   7.104419   2.775086   0.001191   0.278737   0.004273
  27   3   3.636138   2.660497   5.643243   0.000198   0.139368   0.001421
  28   3   5.130347   7.119359   2.122559   0.000648   0.185824   0.003485
  29   3   4.236025   7.274528   2.126761   0.001663   0.325193   0.005115
  30   3   2.026693   6.660116   2.487618   0.001110   0.371649   0.002986
  31   3   1.453032   6.153614   2.727800   0.000281   0.139368   0.002013
  32   3   1.889554   6.521601   1.246097   0.000936   0.325193   0.002878
  33   3   3.844900   3.303828  -1.787837   0.000064   0.046456   0.001367
  34   3   1.719131   6.089005   3.465326   0.000328   0.185824   0.001766
  35   3   4.873615   7.090711   2.829469   0.000481   0.139368   0.003449
  36   3   4.197213   2.658549   5.661883   0.000064   0.046456   0.001386
  37   4  11.227076   2.227764   5.576391   0.001487   0.278737   0.005336
  38   4  11.266727   1.230617   5.439578   0.001581   0.232280   0.006808
  39   4  10.701601   0.162630   4.926361   0.002714   0.325193   0.008346
  40   4  10.454827   0.969947  -1.695000   0.001657   0.232280   0.007132
  41   4  11.146640   2.315981  -1.980882   0.002808   0.325193   0.008635
  42   4  10.771470   3.140571  -1.851742   0.000850   0.278737   0.003051
  43   4  12.017116   4.324823  -1.229967   0.002669   0.371649   0.007182
  44   4  12.761210   4.683023  -0.589786   0.001134   0.232280   0.004880
  45   4  12.992450   5.262442   0.482681   0.002754   0.325193   0.008467
  46   4  12.813865   5.613406   1.472029   0.001362   0.325193   0.004188
  47   4  12.824629   5.457747   2.845470   0.001863   0.371649   0.005013
  48   4  13.236511   4.866514   3.533297   0.002186   0.278737   0.007842
  49   4  12.860019   4.080020   4.619321   0.002101   0.232280   0.009043
  50   4  12.297784   3.486727   5.174637   0.001959   0.325193   0.006024
  51   4  10.469692   1.334930   5.404519   0.000815   0.232280   0.003510
  52   4  10.292204   1.959402  -1.872327   0.001075   0.232280   0.004628
  53   4  12.335178   5.279468  -0.103085   0.000934   0.232280   0.004020
  54   4  12.449816   4.756466   4.295703   0.001127   0.325193   0.003465
  55   4  11.758548   3.491907  -1.714506   0.002032   0.278737   0.007289
  56   4  13.441281   5.235666   1.990803   0.002105   0.278737   0.007552
  57   4  11.935823   2.602597   5.476638   0.002085   0.278737   0.007480
  58   5   0.975326  -1.833146   1.385689   0.002167   0.418105   0.005183
  59   5   0.645553   3.235842   5.135160   0.000762   0.278737   0.002734
  60   5   0.826257   3.778366  -1.362237   0.000655   0.232280   0.002819
  61   5  -1.157530   0.885604  -0.509574   0.001829   0.418105   0.004374
  62   5  -1.324929   0.272583   3.409768   0.001439   0.371649   0.003871
  63   5   2.805818  -1.750083   1.599684   0.001638   0.371649   0.004407
  64   5  -1.728841   1.282785   3.276085   0.001513   0.371649   0.004072
  65   5  -1.535927   1.713349  -0.185400   0.001122   0.278737   0.004026
  66   5  -0.012628   3.741880  -1.022343   0.001120   0.325193   0.003443
  67   5  -0.245483   3.482287   4.584164   0.000944   0.278737   0.003385
  68   5   2.137587  -1.817233   1.011113   0.000975   0.232280   0.004197
  69   5   1.868151  -1.908500   2.044479   0.001215   0.278737   0.004359
  70   5   0.512287   4.653522  -0.477133   0.000542   0.232280   0.002332
  71   5   0.261536   2.755819  -1.605641   0.001344   0.325193   0.004133
  72   5  -0.693812   1.915145  -1.155410   0.001728   0.325193   0.005315
  73   5  -1.701315   0.594618   0.690971   0.001432   0.464561   0.003083
  74   5  -1.686535   0.222131   2.218537   0.001304   0.464561   0.002807
  75   5  -1.084444   1.368577   4.292640   0.001887   0.371649   0.005078
  76   5  -0.108976   2.606919   5.012396   0.000867   0.232280   0.003731
  77   5   1.048451   2.439555   5.453748   0.000951   0.325193   0.002925
  78   5   1.333223   3.092536  -1.778525   0.000760   0.278737   0.002726
  79   5  -0.937313  -0.329668   0.166363   0.001223   0.418105   0.002925
  80   5  -0.171014  -1.314320   0.906479   0.001437   0.418105   0.003436
  81   5  -0.051660  -1.485036   2.045995   0.001617   0.464561   0.003480
  82   5  -0.952987  -0.663106   2.742967   0.000914   0.325193   0.002812
  83   5  -1.986009   0.992321   1.681840   0.000744   0.278737   0.002669
  84   5  -0.599338   2.815963  -1.073403   0.001271   0.278737   0.004559
  85   5   0.216157   4.186265   4.360222   0.000591   0.232280   0.002545
  86   5  -0.973252   2.469160   4.384207   0.001426   0.325193   0.004384
  87   5   2.009914   2.178594   5.527607   0.000108   0.092912   0.001167
  88   5   2.103768   2.755725  -1.872640   0.000270   0.139368   0.001934
  89   5  -1.156363  -0.599322   1.405627   0.001084   0.464561   0.002333
  90   5  -0.206036   1.893183   5.043405   0.000991   0.232280   0.004268
  91   6  14.523264   1.083232  -1.885812   0.001029   0.371649   0.002769
  92   6  16.202474   3.158300   1.272825   0.000952   0.418105   0.002276
  93   6  15.269545   1.168899   4.667403   0.000975   0.371649   0.002624
  94   6  13.305281  -2.156657   3.537415   0.000966   0.418105   0.002311
  95   6  12.813569  -2.197004  -0.267035   0.000819   0.371649   0.002205
  96   6  13.941611  -2.146268  -0.162450  -0.000955   0.418105  -0.002284
  97   6  14.442630  -2.046330   3.215827  -0.001060   0.325193  -0.003258
  98   6  15.941244   0.489553   3.977676  -0.000931   0.464561  -0.002004
  99   6  16.632274   2.166183   0.996568  -0.000881   0.325193  -0.002708
 100   6  15.345789   0.494523  -1.354707  -0.000814   0.464561  -0.001752
 101   6  15.354991   1.921324  -1.284746   0.000728   0.371649   0.001960
 102   6  16.052766   2.653056  -0.093943   0.000857   0.511017   0.001677
 103   6  16.339012   2.792282   2.386956   0.000924   0.511017   0.001807
 104   6  15.981645   1.956869   3.835479   0.000852   0.464561   0.001833
 105   6  14.865072  -0.151467   4.685931   0.000800   0.511017   0.001566
 106   6  14.022985  -1.356887   4.325411   0.000815   0.464561   0.001755
 107   6  13.239878  -2.599996   2.445343   0.000857   0.603929   0.001418
 108   6  12.992462  -2.631367   0.886942   0.000751   0.464561   0.001617
 109   6  13.417905  -1.366056  -1.259470   0.000934   0.464561   0.002010
 110   6  14.012917  -0.186870  -1.831785   0.000924   0.464561   0.001989
 111   6  12.300303   0.926847  -2.098345   0.003051   0.371649   0.008208
 112   6  13.381292   0.954399  -2.163774   0.002398   0.418105   0.005735
 113   6  14.300167   2.342567  -1.740264   0.002702   0.511017   0.005288
 114   6  14.006111   3.487603  -1.155908   0.003549   0.371649   0.009549
 115   6  14.554176   4.114224  -0.088429   0.003266   0.371649   0.008789
 116   6  15.497957   3.757205   0.511321   0.002077   0.418105   0.004969
 117   6  15.444556   3.972068   2.096138   0.003215   0.511017   0.006291
 118   6  14.763479   4.193862   2.901610   0.002561   0.278737   0.009186
 119   6  14.620358   3.404805   4.140292   0.004367   0.464561   0.009401
 120   6  14.862541   2.321847   4.682848   0.003154   0.557473   0.005657
 121   6  14.262742   1.004590   5.183406   0.002299   0.418105   0.005499
 122   6  13.196846   0.833168   5.369225   0.003460   0.418105   0.008276
 123   6  12.214744  -0.300690   5.014800   0.004141   0.418105   0.009904
 124   6  12.679718  -1.322998   4.492459   0.002843   0.511017   0.005564
 125   6  12.124200  -2.153273   3.318288   0.001999   0.371649   0.005379
 126   6  11.138358  -1.990032   2.676099   0.003436   0.325193   0.010565
 127   6  10.997535  -2.043297   1.084587   0.003161   0.278737   0.011340
 128   6  11.715234  -2.199029   0.289169   0.003001   0.511017   0.005872
 129   6  12.221231  -1.408124  -1.117765   0.002348   0.464561   0.005054
 130   6  11.578889  -0.357918  -1.564500   0.003529   0.325193   0.010853
 131   6  13.847464  -2.610877   1.376302  -0.000791   0.278737  -0.002839
 132   6  15.119215  -1.033629   3.964775  -0.000778   0.325193  -0.002392
 133   6  16.571710   1.759706   2.829494  -0.001001   0.418105  -0.002395
 134   6  16.130899   1.538639  -0.558994  -0.000884   0.371649  -0.002378
 135   6  14.542260  -0.936200  -1.234121  -0.000820   0.371649  -0.002207
 136   6  13.206216   2.301552  -1.973384   0.004251   0.418105   0.010167
 137   6  14.757046   4.440196   1.253002   0.003751   0.371649   0.010094
 138   6  13.743218   2.195670   5.146428   0.003187   0.278737   0.011432
 139   6  11.522561  -1.480146   3.915178   0.003866   0.371649   0.010402
 140   6  11.192326  -1.424893  -0.524079   0.003994   0.418105   0.009553
 141   6  15.127648   3.140427  -0.802831   0.002193   0.464561   0.004721
 142   6  15.597766   3.227153   3.402208   0.002203   0.464561   0.004742
 143   6  13.523576  -0.364688   5.062338   0.002433   0.464561   0.005238
 144   6  11.889778  -2.505119   1.841151   0.002831   0.557473   0.005078
 145   6  12.666960  -0.237649  -1.920109   0.002802   0.464561   0.006032
 146   7   8.930420   6.860194  -1.084762  -0.003354   0.451437  -0.007430
 147   7   9.104495   5.094012  -1.843954  -0.002304   0.412182  -0.005590
 148   7  10.273123   6.571245  -0.545825  -0.002103   0.372926  -0.005639
 149   7   9.051669   7.496294   0.528904  -0.001175   0.294415  -0.003991
 150   7   8.146450   5.443717  -1.789397  -0.003382   0.471065  -0.007180
 151   7   9.708649   6.023304  -1.442774  -0.002512   0.412182  -0.006094
 152   7   9.689552   7.213048  -0.076842  -0.001958   0.372926  -0.005250
 153   7   8.058295   7.414561   0.219068  -0.003166   0.510320  -0.006203
 154   7   7.952070   6.719748  -1.084997  -0.003276   0.392554  -0.008346
 155   8   9.052208   5.791408   6.013950  -0.003523   0.471065  -0.007478
 156   8   9.958694   4.711988   6.012042  -0.001790   0.314043  -0.005699
 157   8   8.302579   3.988676   6.162485  -0.001816   0.314043  -0.005784
 158   8   8.364760   6.998345   4.459752  -0.001863   0.372926  -0.004996
 159   8  10.305917   6.373201   4.746332  -0.001587   0.333671  -0.004757
 160   8   9.220253   4.227986   6.230946  -0.002203   0.372926  -0.005907
 161   8   8.077043   5.118970   6.154262  -0.003437   0.431809  -0.007961
 162   8   8.118748   6.408662   5.435468  -0.003261   0.412182  -0.007913
 163   8   9.361386   6.805366   4.898344  -0.002424   0.451437  -0.005370
 164   8  10.180461   5.717534   5.578419  -0.002719   0.412182  -0.006596
 165   9   6.521260  -0.580257  -1.825420  -0.002132   0.412182  -0.005173
 166   9   6.125968   1.365997  -2.192477  -0.001274   0.372926  -0.003417
 167   9   6.344163  -1.558657  -0.289471  -0.000717   0.353299  -0.002028
 168   9   7.160386   0.991682  -2.195690  -0.001920   0.471065  -0.004077
 169   9   5.943936   0.212797  -2.125555  -0.002094   0.372926  -0.005616
 170   9   5.888548  -1.148084  -1.108006  -0.001925   0.372926  -0.005162
 171   9   7.344993  -1.285911  -0.733254  -0.001933   0.471065  -0.004103
 172   9   7.571561  -0.269499  -1.750544  -0.002349   0.431809  -0.005439
 173  10   6.620449  -1.054168   5.274606  -0.001676   0.333671  -0.005022
 174  10   5.650805   0.610250   5.773436  -0.001159   0.274788  -0.004217
 175  10   6.917227   0.783608   5.875569  -0.001309   0.392554  -0.003334
 176  10   7.130313  -1.754054   3.742616  -0.000953   0.372926  -0.002556
 177  10   5.903964  -1.784003   3.554858  -0.000822   0.314043  -0.002617
 178  10   6.251381  -0.070534   5.815088  -0.001515   0.333671  -0.004540
 179  10   7.509767  -0.284732   5.514699  -0.002051   0.412182  -0.004975
 180  10   7.559686  -1.250134   4.672287  -0.001927   0.392554  -0.004909
 181  10   6.091883  -1.608558   4.462863  -0.001812   0.372926  -0.004859
 182  10   5.669429  -0.836251   5.280658  -0.001751   0.294415  -0.005947
 183  11   3.607735   6.034896   5.676616  -0.002273   0.471065  -0.004826
 184  11   3.504982   4.120321   6.082563  -0.000986   0.412182  -0.002393
 185  11   2.274993   5.716330   5.075335  -0.000992   0.353299  -0.002808
 186  11   3.758669   6.975288   4.290839  -0.000724   0.372926  -0.001941
 187  11   4.478987   4.518852   6.129339  -0.002042   0.510320  -0.004001
 188  11   2.774834   5.023249   5.812784  -0.001457   0.471065  -0.003092
 189  11   2.814430   6.543066   4.648841  -0.001170   0.451437  -0.002592
 190  11   4.614181   6.795505   4.625267  -0.001389   0.392554  -0.003538
 191  11   4.644364   5.832065   5.743639  -0.002330   0.431809  -0.005396
 192  12   4.069992   6.583929  -1.313877  -0.002207   0.451437  -0.004888
 193  12   3.000224   5.364486  -1.709095  -0.000996   0.333671  -0.002985
 194  12   4.647776   4.662335  -1.945810  -0.000881   0.314043  -0.002807
 195  12   4.339300   7.303796   0.390942  -0.000443   0.314043  -0.001411
 196  12   2.518348   6.649093  -0.183345  -0.000603   0.353299  -0.001708
 197  12   3.776840   5.026689  -1.994579  -0.001210   0.392554  -0.003083
 198  12   4.762550   5.847310  -1.708142  -0.001981   0.392554  -0.005045
 199  12   4.714918   7.043872  -0.496666  -0.001302   0.274788  -0.004738
 200  12   3.478596   7.160912  -0.177637  -0.001279   0.451437  -0.002833
 201  12   2.741416   6.185253  -1.136945  -0.001508   0.490692  -0.003072
 202  13  -2.102619   4.287414   1.820564  -0.003525   0.608459  -0.005793
 203  13  -0.816551   5.277663   2.185978  -0.001289   0.353299  -0.003647
 204  13  -1.371905   3.941608   3.593253  -0.000684   0.333671  -0.002049
 205  13  -2.333366   2.576547   2.481480  -0.000782   0.353299  -0.002214
 206  13  -2.023562   3.026471   0.362491  -0.000761   0.372926  -0.002040
 207  13  -0.825421   4.694666   0.204141  -0.000737   0.353299  -0.002086
 208  13  -1.108012   4.806644   3.022103  -0.001726   0.490692  -0.003518
 209  13  -2.075388   3.429136   3.044559  -0.001714   0.490692  -0.003494
 210  13  -2.443777   2.874497   1.419509  -0.001840   0.510320  -0.003606
 211  13  -1.725727   4.034686   0.355767  -0.001828   0.490692  -0.003726
 212  13  -1.019336   5.149112   1.168577  -0.001880   0.490692  -0.003832
 213  14   1.394178  -0.591539  -1.983504  -0.002325   0.451437  -0.005151
 214  14   2.410533  -1.540900  -0.478442  -0.000876   0.353299  -0.002480
 215  14   2.332041   1.240915  -2.298189  -0.001204   0.353299  -0.003407
 216  14   0.399604   0.814800  -2.024747  -0.000720   0.372926  -0.001930
 217  14   0.221382  -0.908174  -0.936647  -0.000897   0.412182  -0.002176
 218  14   2.374656  -1.055600  -1.484651  -0.002005   0.392554  -0.005108
 219  14   2.462495   0.008734  -2.184886  -0.002169   0.392554  -0.005524
 220  14   1.395690   0.912616  -2.391940  -0.001450   0.431809  -0.003358
 221  14   0.285621  -0.141014  -1.728312  -0.001424   0.431809  -0.003298
 222  14   1.238760  -1.513538  -0.738480  -0.001428   0.510320  -0.002798
 223  15   1.169780  -1.023135   5.195458  -0.002437   0.471065  -0.005173
 224  15   2.306526  -1.787467   3.686673  -0.001012   0.353299  -0.002865
 225  15   0.618621  -1.698059   3.634026  -0.000739   0.353299  -0.002093
 226  15  -0.197481  -0.109766   4.898869  -0.000736   0.372926  -0.001972
 227  15   1.381834   0.899600   5.767833  -0.000772   0.372926  -0.002070
 228  15   2.308606  -1.127832   5.004178  -0.002302   0.412182  -0.005586
 229  15   1.494884  -1.822666   4.017521  -0.001406   0.392554  -0.003581
 230  15   0.089501  -1.103972   4.384235  -0.001535   0.471065  -0.003259
 231  15   0.577036   0.156099   5.550728  -0.001604   0.471065  -0.003405
 232  15   2.123849   0.089165   5.703207  -0.002293   0.490692  -0.004673
 233  16  16.866707  -1.210276   1.258606  -0.009520   0.628086  -0.015157
 234  16  15.436225  -2.304088   1.587622  -0.004557   0.392554  -0.011608
 235  16  16.249380  -1.113502   2.992578  -0.003759   0.333671  -0.011267
 236  16  17.104155   0.517174   2.014897  -0.004167   0.353299  -0.011795
 237  16  16.710726   0.251819  -0.068324  -0.003703   0.333671  -0.011099
 238  16  15.774382  -1.352722  -0.324109  -0.004037   0.353299  -0.011426
 239  16  16.017170  -1.848982   2.342290  -0.005953   0.471065  -0.012636
 240  16  16.920173  -0.415580   2.504067  -0.005959   0.471065  -0.012650
 241  16  17.166238   0.273945   0.944060  -0.006242   0.490692  -0.012721
 242  16  16.509668  -0.747904  -0.114204  -0.006094   0.471065  -0.012936
 243  16  15.692454  -2.052386   0.558100  -0.006185   0.490692  -0.012606
 244   1   7.709169   3.793542  -1.568336  -0.000172   0.027870  -0.006186
 245   2   7.311326   3.493687  -1.552570  -0.000127   0.027870  -0.004541
 246   7   7.764015   4.090589  -1.584797  -0.000177   0.027870  -0.006346
 247   1   7.897339   2.898353   5.664409  -0.000142   0.027369  -0.005196
 248   2   7.497385   2.608908   5.595971  -0.000094   0.027369  -0.003452
 249   8   7.959477   3.181716   5.750347  -0.000207   0.027369  -0.007555
 250   1   7.877836   2.812263  -1.624123  -0.000106   0.027978  -0.003800
 251   2   7.479369   2.520728  -1.692472  -0.000094   0.027978  -0.003359
 252   9   7.423837   2.231628  -1.766281  -0.000097   0.027978  -0.003473
 253   1   7.805534   2.271990   5.559753  -0.000080   0.027760  -0.002877
 254   2   7.406255   1.974088   5.576004  -0.000076   0.027760  -0.002748
 255  10   7.347452   1.677536   5.605007  -0.000110   0.027760  -0.003968
 256   2   7.264645   3.005746  -1.674447  -0.000123   0.117823  -0.001045
 257   1   7.923442   3.315159  -1.648769  -0.000243   0.117823  -0.002064
 258   2   7.379937   2.201318   5.624692  -0.000016   0.044799  -0.000363
 259   1   7.922947   2.666847   5.666738  -0.000069   0.044799  -0.001550
 260   1   6.977588   6.963058   1.439985  -0.000230   0.067822  -0.003387
 261   3   6.156227   6.857634   1.432330  -0.000101   0.067822  -0.001490
 262   7   7.078184   6.987043   1.153832  -0.000394   0.067822  -0.005807
 263   1   6.447311   6.664244   3.299895  -0.000173   0.066893  -0.002584
 264   3   5.620941   6.716001   3.309815  -0.000011   0.066893  -0.000159
 265  11   5.507200   6.675624   3.590573  -0.000132   0.066893  -0.001970
 266   3   5.705829   6.922103   2.543648   0.000397   0.457933   0.000868
 267   1   6.891332   6.995762   2.233976  -0.000428   0.457933  -0.000935
 268   1   9.592536   3.864674  -1.632954  -0.000132   0.027769  -0.004763
 269   4  10.000909   3.615451  -1.639469  -0.000077   0.027769  -0.002787
 270   7   9.518342   4.157681  -1.646375  -0.000159   0.027769  -0.005713
 271   1  11.150788   6.090405   0.386565  -0.000148   0.027769  -0.005322
 272   4  11.540536   5.814580   0.355913  -0.000081   0.027769  -0.002914
 273   7  10.938060   6.185536   0.193602  -0.000159   0.027769  -0.005739
 274   1  11.276655   5.607681   4.136627  -0.000143   0.027425  -0.005222
 275   4  11.665082   5.336320   4.070298  -0.000069   0.027425  -0.002529
 276   8  11.076646   5.651809   4.359373  -0.000161   0.027425  -0.005880
 277   1   9.858423   2.965239   5.626094  -0.000159   0.027425  -0.005814
 278   4  10.263896   2.725638   5.541862  -0.000084   0.027425  -0.003053
 279   8   9.784605   3.244485   5.716310  -0.000164   0.027425  -0.005975
 280   1   8.763124   2.413848  -1.556104  -0.000377   0.101101  -0.003732
 281   4   9.176983   2.168593  -1.567773  -0.000240   0.101101  -0.002371
 282   9   8.257091   1.862087  -1.622654  -0.000357   0.101101  -0.003532
 283   1   8.998138   1.589800   5.267963  -0.000346   0.099501  -0.003477
 284   4   9.409294   1.354305   5.185142  -0.000221   0.099501  -0.002222
 285  10   8.455686   1.068329   5.252058  -0.000313   0.099501  -0.003142
 286   4   9.840517   2.737516  -1.717679  -0.000080   0.199237  -0.000404
 287   1   9.381524   3.301538  -1.660689  -0.000475   0.199237  -0.002382
 288   4  11.971919   5.812691   0.878546   0.000003   0.202223   0.000013
 289   4  12.080809   5.636199   2.811145  -0.000460   0.411242  -0.001119
 290   1  11.454924   6.140869   1.685873  -0.001234   0.411242  -0.003000
 291   1  11.475873   5.820534   3.602873  -0.000385   0.202223  -0.001906
 292   4  10.233121   2.061138   5.466332  -0.000016   0.198590  -0.000079
 293   1   9.518891   2.207093   5.481185  -0.000467   0.198590  -0.002351
 294   7   9.047258   4.365588  -1.751501  -0.000303   0.066329  -0.004564
 295   7   8.215057   4.339436  -1.722926  -0.000373   0.066329  -0.005627
 296   1   8.646478   3.945843  -1.663225  -0.000824   0.146491  -0.005625
 297   7   7.746431   7.268618   1.096776  -0.000399   0.077316  -0.005158
 298   7   8.979501   7.370522   1.114581  -0.000977   0.176377  -0.005540
 299   7  10.256412   6.861334   0.547600  -0.001086   0.176377  -0.006157
 300   1   8.189680   7.285393   1.546528  -0.000682   0.165248  -0.004125
 301   1   9.833143   7.135487   1.298151  -0.000723   0.165248  -0.004376
 302   1  10.821355   6.485842   0.615959  -0.000377   0.094459  -0.003991
 303   1   6.984634   6.640471   3.681149  -0.000345   0.086709  -0.003974
 304   8   7.102174   6.601214   3.960455  -0.000489   0.086709  -0.005642
 305  11   6.038923   6.504828   3.914454  -0.000176   0.086709  -0.002035
 306   8  10.709746   6.081323   4.398749  -0.000396   0.077887  -0.005086
 307   8   9.789911   6.815992   3.991809  -0.000964   0.178009  -0.005414
 308   8   8.306298   6.988260   3.903307  -0.001097   0.178009  -0.006164
 309   1  10.570698   6.372349   3.852834  -0.000917   0.166193  -0.005516
 310   1   9.097313   7.078082   3.465141  -0.000626   0.166193  -0.003770
 311   1   7.729400   6.966373   3.535245  -0.000381   0.095157  -0.004007
 312   8   8.433935   3.387956   5.921451  -0.000354   0.069845  -0.005066
 313   8   9.309368   3.412301   5.903023  -0.000379   0.069845  -0.005432
 314   1   8.878339   3.027500   5.737665  -0.000898   0.152703  -0.005882
 315   9   7.557355   1.931508  -1.850542  -0.000321   0.122206  -0.002625
 316   1   8.362143   2.699465  -1.696122  -0.000156   0.172320  -0.000904
 317  10   7.741284   1.123998   5.546288  -0.000702   0.209285  -0.003354
 318   1   8.335375   2.090590   5.575891  -0.000294   0.294822  -0.000997
 319  11   5.466015   6.736435   3.885638   0.000005   0.058300   0.000086
 320   1   6.850352   6.860709   3.464651   0.000095   0.082692   0.001150
 321   2   5.525320   2.449317  -1.726267  -0.000048   0.027366  -0.001758
 322   3   5.109770   2.715003  -1.671589  -0.000027   0.027366  -0.000995
 323   9   5.605055   2.165317  -1.797566  -0.000084   0.027366  -0.003086
 324   2   5.385318   1.893018   5.540345  -0.000036   0.026851  -0.001334
 325   3   4.971484   2.165204   5.510345  -0.000012   0.026851  -0.000439
 326  10   5.467876   1.602446   5.571566  -0.000060   0.026851  -0.002237
 327   2   5.370025   2.697200   5.562965  -0.000019   0.028252  -0.000665
 328   3   4.954113   2.962462   5.617176  -0.000028   0.028252  -0.000984
 329  11   4.881570   3.248457   5.690313  -0.000051   0.028252  -0.001801
 330   2   5.521703   3.261769  -1.624296  -0.000032   0.028794  -0.001119
 331   3   5.107459   3.533551  -1.653275  -0.000039   0.028794  -0.001358
 332  12   5.042192   3.828938  -1.682910  -0.000074   0.028794  -0.002555
 333   3   5.041867   3.226751  -1.705947   0.000048   0.082526   0.000587
 334   2   5.585851   2.758362  -1.730786   0.000019   0.082526   0.000232
 335   3   4.841127   2.576750   5.611516   0.000067   0.079903   0.000834
 336   2   5.491119   2.272256   5.601509   0.000040   0.079903   0.000502
 337   2   4.845659  -1.238282   0.552532   0.000026   0.066667   0.000391
 338   5   4.015673  -1.174213   0.553783   0.000103   0.066667   0.001548
 339   9   4.967792  -1.200319   0.275537  -0.000167   0.066667  -0.002510
 340   2   4.792194  -1.387741   2.734732   0.000029   0.065531   0.000441
 341   5   3.963459  -1.319471   2.697451   0.000116   0.065531   0.001770
 342  10   4.909828  -1.391210   3.016345  -0.000136   0.065531  -0.002082
 343   5   3.555497  -1.446404   1.405617   0.000919   0.545414   0.001684
 344   2   4.732582  -1.450727   1.829161   0.000665   0.545414   0.001220
 345   2   8.409013  -1.134999   0.646359   0.000229   0.103473   0.002216
 346   6   9.593387  -1.131314   0.637174   0.001552   0.103473   0.015000
 347   9   8.301919  -1.096303   0.361316  -0.000056   0.103473  -0.000537
 348   2   8.473084  -1.232954   2.728334   0.000287   0.096093   0.002991
 349   6   9.653309  -1.216332   2.638079   0.001256   0.096093   0.013067
 350  10   8.347067  -1.233246   3.007518  -0.000049   0.096093  -0.000505
 351   6  10.210127  -1.629255   1.783245   0.007758   0.715503   0.010842
 352   2   8.507901  -1.392075   1.496950   0.002234   0.715503   0.003122
 353   2   6.487278   3.900154  -1.422170  -0.000442   0.163941  -0.002693
 354   7   6.978929   4.471747  -1.401613  -0.000882   0.163941  -0.005377
 355  12   5.953206   4.425776  -1.433484  -0.000506   0.163941  -0.003089
 356   7   7.671436   4.364246  -1.622561  -0.000466   0.091044  -0.005119
 357   2   6.897940   3.554866  -1.621662  -0.000042   0.128412  -0.000326
 358   2   6.358985   3.343926   5.502032  -0.000405   0.165807  -0.002442
 359   8   6.889464   3.875117   5.593417  -0.000840   0.165807  -0.005064
 360  11   5.817471   3.861481   5.565574  -0.000494   0.165807  -0.002980
 361   8   7.631339   3.666744   5.829657  -0.001010   0.175911  -0.005741
 362   2   7.019021   2.729280   5.672945  -0.000120   0.247902  -0.000485
 363   9   7.469841  -1.411543   0.246579  -0.000121   0.081822  -0.001475
 364   9   6.173243  -1.497558   0.247705  -0.000599   0.189286  -0.003164
 365   2   7.002199  -1.510478   0.687920  -0.000118   0.172763  -0.000683
 366   2   5.570927  -1.484631   0.612625  -0.000011   0.099963  -0.000112
 367   9   6.088759   1.980392  -1.959451  -0.000171   0.069591  -0.002460
 368   9   6.958323   2.013226  -1.944460  -0.000205   0.069591  -0.002950
 369   2   6.506421   2.379621  -1.797310  -0.000469   0.152461  -0.003075
 370  10   6.865810   1.437358   5.739560  -0.000194   0.072733  -0.002661
 371  10   5.958892   1.399155   5.723242  -0.000187   0.072733  -0.002567
 372   2   6.397314   1.817503   5.632448  -0.000485   0.157934  -0.003071
 373  10   5.623990  -1.653694   3.087361  -0.000183   0.086221  -0.002125
 374  10   6.984948  -1.669448   3.048600  -0.000631   0.202606  -0.003112
 375   2   6.108862  -1.662612   2.625936  -0.000233   0.179677  -0.001294
 376   2   7.605905  -1.560477   2.686688   0.000024   0.105338   0.000223
 377  11   5.017662   3.579169   5.776042  -0.000288   0.139227  -0.002066
 378   2   5.881892   2.878453   5.645415   0.000095   0.196338   0.000486
 379  12   5.285097   4.263122  -1.684288  -0.000344   0.138286  -0.002484
 380   2   5.944528   3.361845  -1.680531   0.000080   0.195049   0.000410
 381   3   2.930158   2.955933   5.559815   0.000004   0.026996   0.000145
 382   5   2.528561   2.675126   5.481931   0.000036   0.026996   0.001315
 383  11   2.998960   3.241930   5.636270  -0.000024   0.026996  -0.000882
 384   3   1.423434   5.296466   4.047400   0.000020   0.026996   0.000738
 385   5   1.041550   4.985036   3.989304   0.000070   0.026996   0.002598
 386  11   1.627385   5.372524   4.259514  -0.000014   0.026996  -0.000535
 387   3   1.536798   5.627351   0.095903   0.000012   0.027346   0.000432
 388   5   1.153608   5.312556   0.079230   0.000038   0.027346   0.001390
 389  12   1.751377   5.734389  -0.090789  -0.000014   0.027346  -0.000529
 390   3   3.162324   3.531507  -1.702215   0.000017   0.027346   0.000621
 391   5   2.757965   3.244003  -1.695473   0.000059   0.027346   0.002160
 392  12   3.231207   3.826394  -1.727743  -0.000017   0.027346  -0.000620
 393   3   0.918399   5.295629   3.446841   0.000060   0.025205   0.002373
 394   5   0.491654   5.042975   3.432408   0.000020   0.025205   0.000786
 395  13   0.227677   5.030481   3.285870  -0.000018   0.025205  -0.000717
 396   3   1.041037   5.488342   0.507850   0.000031   0.025205   0.001220
 397   5   0.615947   5.238287   0.453775   0.000006   0.025205   0.000236
 398  13   0.340795   5.208234   0.575026  -0.000024   0.025205  -0.000962
 399   3   3.211016   2.675574  -1.724760   0.000010   0.026700   0.000364
 400   5   2.809526   2.394647  -1.802719  -0.000008   0.026700  -0.000304
 401  14   2.738900   2.109703  -1.878598  -0.000043   0.026700  -0.001613
 402   3   2.928562   2.177931   5.462090   0.000011   0.026386   0.000420
 403   5   2.523771   1.891095   5.469323  -0.000012   0.026386  -0.000464
 404  15   2.446249   1.599609   5.499836  -0.000049   0.026386  -0.001851
 405   5   2.666015   2.805976  -1.803904   0.000132   0.090840   0.001449
 406   3   3.310146   3.123604  -1.757833   0.000122   0.090840   0.001348
 407   5   2.462891   2.180089   5.514587   0.000104   0.076157   0.001369
 408   3   2.991175   2.662100   5.568810   0.000101   0.076157   0.001330
 409   5   0.664894   4.966137   3.765291   0.000172   0.076657   0.002244
 410   3   1.223577   5.415073   3.737000   0.000152   0.076657   0.001977
 411   5   0.765328   5.260362   0.268488   0.000087   0.049270   0.001769
 412   3   1.364528   5.648197   0.266177   0.000093   0.049270   0.001892
 413   3   5.658490   6.892961   1.143510  -0.000092   0.086509  -0.001066
 414   7   6.592492   6.875625   0.877176  -0.000321   0.086509  -0.003716
 415  12   5.570055   6.911556   0.850117  -0.000222   0.086509  -0.002565
 416   7   7.120975   7.111693   0.931483  -0.000081   0.032605  -0.002480
 417   3   5.751729   7.058554   1.354188   0.000162   0.046196   0.003508
 418   3   4.162107   2.097562  -1.609158  -0.000125   0.166752  -0.000751
 419   9   4.707236   1.579090  -1.671720  -0.000315   0.166752  -0.001887
 420  14   3.636368   1.560636  -1.702142  -0.000313   0.166752  -0.001877
 421   9   5.391535   1.753471  -1.875502  -0.000335   0.130246  -0.002573
 422   3   4.706530   2.636690  -1.759876   0.000177   0.183645   0.000966
 423   3   3.984514   1.526493   5.290086  -0.000096   0.167634  -0.000571
 424  10   4.537791   1.009592   5.292890  -0.000329   0.167634  -0.001964
 425  15   3.443457   0.995758   5.266642  -0.000239   0.167634  -0.001425
 426  10   5.334949   1.258484   5.595772  -0.000328   0.142947  -0.002294
 427   3   4.456600   1.963904   5.535104   0.000191   0.201500   0.000949
 428  11   4.862690   6.895791   3.693127  -0.000069   0.067165  -0.001031
 429  11   3.790102   6.993130   3.602067  -0.000180   0.148056  -0.001213
 430  11   2.585188   6.546163   3.849268  -0.000267   0.148056  -0.001803
 431  11   1.932254   5.808734   4.294338  -0.000102   0.067165  -0.001519
 432   3   4.518680   6.995120   3.223454   0.000077   0.148269   0.000522
 433   3   3.053694   6.872873   3.259403   0.000047   0.148269   0.000317
 434   3   1.945632   6.040637   3.751343  -0.000138   0.148269  -0.000933
 435  11   3.479052   3.440482   5.825284  -0.000116   0.072782  -0.001599
 436  11   4.386458   3.440018   5.850879  -0.000142   0.072782  -0.001953
 437   3   3.937038   3.060112   5.679337  -0.000336   0.158076  -0.002124
 438  12   4.569393   4.050152  -1.830775  -0.000135   0.069140  -0.001955
 439  12   3.706011   4.053148  -1.852057  -0.000118   0.069140  -0.001710
 440   3   4.134002   3.648111  -1.748089  -0.000292   0.151763  -0.001922
 441  12   2.081545   6.198099  -0.010724  -0.000117   0.078834  -0.001489
 442  12   2.887483   6.908824   0.636632  -0.000343   0.180342  -0.001903
 443  12   4.343289   7.178572   0.914182  -0.000406   0.180342  -0.002253
 444   3   2.143391   6.378555   0.598001  -0.000276   0.168116  -0.001645
 445   3   3.507313   7.109353   1.278465   0.000033   0.168116   0.000197
 446   3   4.890378   7.123561   1.329270   0.000102   0.096312   0.001056
 447  13   0.046590   5.211397   2.912200  -0.000288   0.197371  -0.001461
 448  13   0.096440   5.375227   1.501867  -0.001200   0.403621  -0.002974
 449   3   1.061051   5.794488   2.510741   0.000528   0.540995   0.000975
 450   3   1.136572   5.835277   0.897363   0.000549   0.277986   0.001974
 451  14   2.867880   1.798125  -1.957180  -0.000260   0.128433  -0.002026
 452   3   3.702782   2.533584  -1.779651   0.000199   0.181063   0.001100
 453  15   2.715154   1.141211   5.507799  -0.000321   0.154818  -0.002076
 454   3   3.367519   2.064670   5.534564   0.000274   0.218194   0.001256
 455   4   9.960829  -0.120641  -0.942378   0.000715   0.042525   0.016805
 456   6  10.310042  -0.280086  -0.919306   0.000886   0.042525   0.020843
 457   9   8.995308  -0.154488  -0.962200   0.000224   0.042525   0.005276
 458   4   9.996950  -0.812443   3.760805   0.000491   0.029815   0.016479
 459   6  10.346109  -0.952189   3.682932   0.000474   0.029815   0.015892
 460  10   9.012951  -0.797823   3.889708   0.000185   0.029815   0.006219
 461   6  11.044705  -0.117744  -1.350521   0.002227   0.155411   0.014329
 462   6  11.927497   1.431119  -1.866926   0.004297   0.317392   0.013537
 463   6  13.106599   3.289050  -1.323867   0.004362   0.317392   0.013743
 464   6  13.977683   4.430335   0.429923   0.004275   0.317392   0.013469
 465   6  14.189011   4.394131   2.686277   0.004416   0.317392   0.013914
 466   6  13.655250   3.195057   4.534093   0.004415   0.317392   0.013911
 467   6  12.591928   1.317291   5.227234   0.004537   0.317392   0.014294
 468   6  11.428410  -0.480937   4.485815   0.004157   0.317392   0.013097
 469   4  10.899330   0.750009  -1.543932   0.004205   0.317392   0.013249
 470   4  12.054228   2.691768  -1.725278   0.004150   0.317392   0.013075
 471   4  13.135341   4.273327  -0.514094   0.004232   0.317392   0.013335
 472   4  13.706123   4.856064   1.600552   0.004042   0.317392   0.012734
 473   4  13.536096   4.204672   3.764780   0.004231   0.317392   0.013332
 474   4  12.693916   2.582179   5.104688   0.004185   0.317392   0.013186
 475   4  11.519649   0.643738   5.079230   0.003884   0.317392   0.012236
 476   4  10.623193  -0.677620   4.133002   0.002048   0.155411   0.013180
 477   7  10.804213   6.137360  -0.196551  -0.000811   0.163113  -0.004972
 478   7  10.402554   5.395395  -1.107553  -0.002168   0.331868  -0.006533
 479   7   9.684634   4.538208  -1.647543  -0.000800   0.163113  -0.004906
 480   4  11.576266   5.293799  -0.442748  -0.000001   0.450117  -0.000002
 481   4  10.775309   4.149751  -1.480801  -0.000017   0.450117  -0.000038
 482   8   9.948904   3.612044   5.799321  -0.000797   0.161452  -0.004938
 483   8  10.624935   4.572157   5.442862  -0.002131   0.328298  -0.006492
 484   8  10.967573   5.510023   4.729487  -0.000858   0.161452  -0.005313
 485   4  11.021166   3.282780   5.466973  -0.000012   0.445738  -0.000028
 486   4  11.750007   4.640752   4.701525  -0.000049   0.445738  -0.000110
 487   9   8.102693   1.203648  -1.802219  -0.000792   0.281389  -0.002814
 488   9   8.326282   0.049966  -1.452464  -0.000753   0.281389  -0.002677
 489   4   9.582117   0.939988  -1.468588   0.002237   0.780744   0.002865
 490  10   8.391891  -0.731487   4.512143  -0.000700   0.315449  -0.002220
 491  10   8.277071   0.362998   5.264063  -0.000873   0.315449  -0.002767
 492   4   9.731585   0.119446   4.659395   0.002522   0.876246   0.002879
 493   5   3.534478  -1.203858   0.349307   0.000031   0.088091   0.000353
 494   9   4.487625  -1.076690   0.106704   0.000009   0.088091   0.000100
 495  14   3.425972  -1.180393   0.063773  -0.000100   0.088091  -0.001133
 496   9   5.043987  -1.293935   0.090131   0.000004   0.008471   0.000416
 497   5   3.630736  -1.389199   0.458746   0.000077   0.012025   0.006372
 498   5   3.451237  -1.367071   2.914434   0.000038   0.088432   0.000433
 499  10   4.402219  -1.277713   3.212315   0.000039   0.088432   0.000437
 500  15   3.316426  -1.379846   3.189141  -0.000156   0.088432  -0.001765
 501  10   4.970883  -1.509532   3.221763   0.000019   0.021080   0.000900
 502   5   3.569503  -1.544135   2.757419   0.000146   0.029951   0.004876
 503  11   1.780003   5.203463   4.680884  -0.000255   0.209495  -0.001218
 504  11   2.440883   4.094863   5.459619  -0.001249   0.430232  -0.002902
 505   5   1.140570   4.136446   4.738604   0.000714   0.572460   0.001247
 506   5   2.005077   2.868212   5.501301   0.000590   0.295103   0.001998
 507  12   2.999725   4.251557  -1.714192  -0.000279   0.211810  -0.001317
 508  12   2.174655   5.261080  -0.923324  -0.001278   0.435410  -0.002936
 509   5   1.849178   3.885661  -1.404483   0.000633   0.578417   0.001094
 510   5   1.018499   5.006112  -0.374662   0.000575   0.298383   0.001926
 511  13  -0.109570   4.998079   0.365649  -0.000115   0.069321  -0.001666
 512  13  -0.643255   4.195564  -0.203024  -0.000345   0.154140  -0.002237
 513  13  -1.391170   3.068716  -0.189745  -0.000184   0.154140  -0.001192
 514  13  -1.976807   2.184125   0.649222  -0.000303   0.154140  -0.001968
 515  13  -2.154692   1.912573   1.962217  -0.000335   0.154140  -0.002172
 516  13  -1.850263   2.367884   3.198887  -0.000219   0.154140  -0.001420
 517  13  -1.191124   3.359211   3.840872  -0.000263   0.154140  -0.001707
 518  13  -0.453558   4.471031   3.619079  -0.000377   0.154140  -0.002444
 519   5   0.056808   4.645977  -0.089300  -0.000212   0.151726  -0.001398
 520   5  -0.741388   3.444702  -0.566988   0.000034   0.151726   0.000222
 521   5  -1.533019   2.250660  -0.061073   0.000039   0.151726   0.000260
 522   5  -1.986266   1.564343   1.216387  -0.000090   0.151726  -0.000590
 523   5  -1.911146   1.673428   2.729933  -0.000058   0.151726  -0.000380
 524   5  -1.339147   2.532189   3.845151   0.000059   0.151726   0.000392
 525   5  -0.510026   3.780671   4.094588  -0.000183   0.151726  -0.001205
 526   5   0.127325   4.742101   3.653212   0.000001   0.084691   0.000013
 527  14   2.743539  -1.477320   0.075805  -0.000071   0.066676  -0.001060
 528  14   1.683088  -1.640982   0.152445  -0.000144   0.146900  -0.000982
 529  14   0.460486  -1.274334  -0.108317  -0.000239   0.146900  -0.001624
 530  14  -0.261750  -0.364569  -0.698134  -0.000269   0.146900  -0.001834
 531  14  -0.205475   0.737943  -1.389856  -0.000152   0.146900  -0.001036
 532  14   0.607639   1.608606  -1.917088  -0.000225   0.146900  -0.001529
 533  14   1.864447   1.912108  -2.076782  -0.000343   0.146900  -0.002336
 534   5   2.402120  -1.598115   0.539725  -0.000000   0.147257  -0.000001
 535   5   0.939539  -1.569170   0.485326   0.000000   0.147257   0.000001
 536   5  -0.209878  -0.814799  -0.017374  -0.000034   0.147257  -0.000233
 537   5  -0.603467   0.374475  -0.774775   0.000006   0.147257   0.000041
 538   5  -0.089650   1.540640  -1.495188   0.000042   0.147257   0.000287
 539   5   1.133692   2.234582  -1.901167   0.000001   0.147257   0.000004
 540   5   2.317627   2.321630  -1.926587  -0.000035   0.081459  -0.000424
 541  15   1.975480   1.383860   5.623340  -0.000127   0.066991  -0.001898
 542  15   0.901744   1.332294   5.512608  -0.000281   0.147738  -0.001901
 543  15  -0.158347   0.778817   4.981679  -0.000137   0.147738  -0.000924
 544  15  -0.559464  -0.162811   4.166537  -0.000260   0.147738  -0.001761
 545  15  -0.145638  -1.126456   3.384135  -0.000265   0.147738  -0.001791
 546  15   0.922221  -1.737421   2.938696  -0.000226   0.147738  -0.001527
 547  15   2.228895  -1.758142   3.003423  -0.000210   0.147738  -0.001424
 548   5   1.574738   1.801481   5.510104  -0.000169   0.147811  -0.001146
 549   5   0.175172   1.503711   5.172356  -0.000028   0.147811  -0.000187
 550   5  -0.688830   0.619666   4.376434   0.000127   0.147811   0.000858
 551   5  -0.681315  -0.506908   3.431817  -0.000042   0.147811  -0.000281
 552   5   0.194794  -1.437963   2.705804  -0.000064   0.147811  -0.000432
 553   5   1.598838  -1.811475   2.480692   0.000056   0.147811   0.000382
 554   5   2.763435  -1.654611   2.685467   0.000088   0.081844   0.001071
 555   9   8.426115  -0.612499  -1.005523   0.000006   0.297297   0.000020
 556   9   8.260983  -1.155380  -0.160266   0.000249   0.297297   0.000837
 557   6  10.263667  -1.088234  -0.338987   0.008112   0.877138   0.009248
 558  10   8.335397  -1.308425   3.585873   0.000180   0.370188   0.000487
 559   6  10.341109  -1.449036   3.351562   0.004637   0.555035   0.008354
 560  16  16.816576   0.820992   2.535200  -0.000622   0.061889  -0.010052
 561  16  16.431369   0.071505   3.161527  -0.001555   0.136967  -0.011355
 562  16  15.792465  -1.016740   3.319320  -0.001555   0.136967  -0.011351
 563  16  15.170133  -1.942345   2.708311  -0.001406   0.136967  -0.010266
 564  16  14.802084  -2.351762   1.561886  -0.001564   0.136967  -0.011419
 565  16  14.828899  -2.088607   0.317939  -0.001473   0.136967  -0.010758
 566  16  15.240336  -1.253395  -0.548384  -0.001600   0.136967  -0.011680
 567  16  15.879241  -0.165150  -0.706177  -0.001408   0.136967  -0.010277
 568  16  16.501572   0.760455  -0.095169  -0.001604   0.136967  -0.011712
 569  16  16.869622   1.169872   1.051257  -0.001505   0.136967  -0.010989
 570  16  16.908261   1.050778   2.093717  -0.000641   0.061889  -0.010353
 571   6  16.515892   0.845824   3.014709  -0.001425   0.135860  -0.010490
 572   6  15.895383  -0.290493   3.619725  -0.001433   0.135860  -0.010546
 573   6  15.150285  -1.480213   3.351979  -0.001318   0.135860  -0.009701
 574   6  14.565199  -2.268902   2.313742  -0.001393   0.135860  -0.010255
 575   6  14.363608  -2.355308   0.901586  -0.001405   0.135860  -0.010341
 576   6  14.622514  -1.706428  -0.345095  -0.001430   0.135860  -0.010523
 577   6  15.243023  -0.570110  -0.950111  -0.001371   0.135860  -0.010094
 578   6  15.988121   0.619609  -0.682365  -0.001383   0.135860  -0.010179
 579   6  16.573207   1.408298   0.355872  -0.001443   0.135860  -0.010624
 580   6  16.774798   1.494705   1.768028  -0.001423   0.135860  -0.010476
 581  12   5.562942   7.073274   0.405627  -0.000018   0.255934  -0.000072
 582  12   5.616655   6.624723  -0.700370  -0.001259   0.511974  -0.002459
 583  12   5.695191   5.428964  -1.521339  -0.001142   0.511974  -0.002231
 584   7   7.041970   6.997542   0.014203  -0.001952   0.511974  -0.003813
 585   7   7.115342   6.166832  -1.175139  -0.002277   0.511974  -0.004448
 586   7   7.178401   5.057633  -1.614473  -0.000656   0.255934  -0.002562
 587  11   5.576793   4.363654   5.874212  -0.000145   0.244281  -0.000592
 588  11   5.569142   5.445998   5.647711  -0.000985   0.488436  -0.002017
 589  11   5.581091   6.434708   4.728416  -0.000699   0.488436  -0.001430
 590   8   7.100101   4.801588   5.856125  -0.001726   0.488436  -0.003534
 591   8   7.098956   6.037210   5.312041  -0.001869   0.488436  -0.003827
 592   8   7.114955   6.673566   4.407814  -0.000429   0.244281  -0.001757
 593  14   3.426268   1.038609  -2.023579  -0.000117   0.254232  -0.000461
 594  14   3.438207  -0.080800  -1.769372  -0.000849   0.508380  -0.001670
 595  14   3.426666  -1.066668  -0.777485  -0.000385   0.508380  -0.000758
 596   9   4.957140   0.630337  -1.912502  -0.000785   0.508380  -0.001543
 597   9   4.961759  -0.634720  -1.316250  -0.000830   0.508380  -0.001632
 598   9   4.944487  -1.249481  -0.346914   0.000056   0.254232   0.000221
 599  15   3.281550  -1.538516   3.614490   0.000202   0.247804   0.000814
 600  15   3.251857  -1.074204   4.613861  -0.000537   0.495428  -0.001085
 601  15   3.219861   0.043107   5.363413  -0.000578   0.495428  -0.001167
 602  10   4.830168  -1.367340   4.044761  -0.000457   0.495428  -0.000922
 603  10   4.794310  -0.559341   5.120442  -0.000780   0.495428  -0.001575
 604  10   4.771591   0.463498   5.530921  -0.000058   0.247804  -0.000234
 =====================================================

              2745555  WORDS OF DYNAMIC MEMORY USED
 EXECUTION OF GAMESS TERMINATED NORMALLY Tue Nov 22 23:57:25 2016
 DDI: 263640 bytes (0.3 MB / 0 MWords) used by master data server.

 ----------------------------------------
 CPU timing information for all processes
 ========================================
 0: 985.84 + 0.360 = 985.444
 ----------------------------------------
 ddikick.x: exited gracefully.
