----- GAMESS execution script -----

          ******************************************************
          *         GAMESS VERSION =  5 DEC 2014 (R1)          *
          *             FROM IOWA STATE UNIVERSITY             *
          * M.W.SCHMIDT, K.K.BALDRIDGE, J.A.BOATZ, S.T.ELBERT, *
          *   M.S.GORDON, J.H.JENSEN, S.KOSEKI, N.MATSUNAGA,   *
          *          K.A.NGUYEN, S.J.SU, T.L.WINDUS,           *
          *       TOGETHER WITH M.DUPUIS, J.A.MONTGOMERY       *
          *         J.COMPUT.CHEM.  14, 1347-1363(1993)        *
          **************** 64 BIT LINUX VERSION ****************

 EXECUTION OF GAMESS BEGUN Tue Nov 22 23:25:31 2016

            ECHO OF THE FIRST FEW INPUT CARDS -
 INPUT CARD>! SELECT RESTRICTED HARTREE-FOCK AS DEFAULT                                     
 INPUT CARD>$contrl scftyp=rhf $end                                                         
 INPUT CARD>                                                                                
 INPUT CARD>! THEORY: HF OR DFT                                                             
 INPUT CARD> $contrl mplevl=0 $end                                                          
 INPUT CARD>                                                                                
 INPUT CARD> $system timlim=10000 mwords=20 $end                                            
 INPUT CARD> $SCF DIRSCF=.TRUE. $end                                                        
 INPUT CARD>                                                                                
 INPUT CARD>                                                                                
 INPUT CARD>! BASIS SETS                                                                    
 INPUT CARD>! 6-311G(d,p)                                                                   
 INPUT CARD> $BASIS GBASIS=N311 NGAUSS=6 NDFUNC=1 NPFUNC=1 $END                             
 INPUT CARD>                                                                                
 INPUT CARD>! One of the following                                                          
 INPUT CARD> $guess guess=HUCKEL $end                                                       
 INPUT CARD>                                                                                
 INPUT CARD> $statpt projct=.FALSE. $end                                                    
 INPUT CARD> $STATPT IFREEZ(1)=1,2,3 $END                                                   
 INPUT CARD>                                                                                
 INPUT CARD>! Optimize the geometry with COSMO effects                                      
 INPUT CARD> $statpt opttol=0.0005 nstep=50 $end                                            
 INPUT CARD> $contrl nzvar=1 $end                                                           
 INPUT CARD> $zmat dlc=.t. auto=.t. $end                                                    
 INPUT CARD> $contrl runtyp=OPTIMIZE maxit=200 $end                                         
 INPUT CARD>                                                                                
 INPUT CARD>! Run COSMO on perfect conductor                                                
 INPUT CARD> $COSGMS PRFCND=.TRUE. $end                                                     
 INPUT CARD>                                                                                
 INPUT CARD>! Specifying RSOLV                                                              
 INPUT CARD> $COSGMS COSRAD = 1.4 $end                                                      
 INPUT CARD>                                                                                
 INPUT CARD>! available memory                                                              
 INPUT CARD> $SYSTEM MWORDS=40 $END                                                         
 INPUT CARD>                                                                                
 INPUT CARD> $DATA                                                                          
 INPUT CARD>1-Heptyne, ID: C628717                                                          
 INPUT CARD>C1                                                                              
 INPUT CARD>C      6.0      5.8645000000    1.7462000000    0.9088000000                    
 INPUT CARD>C      6.0      4.4729000000    1.1344000000    0.9088000000                    
 INPUT CARD>C      6.0      3.4016000000    2.2186000000    0.9088000000                    
 INPUT CARD>C      6.0      6.9407000000    0.6725000000    0.8925000000                    
 INPUT CARD>C      6.0      2.0778000000    1.6519000000    0.9068000000                    
 INPUT CARD>C      6.0      8.3261000000    1.2779000000    0.9027000000                    
 INPUT CARD>C      6.0      0.9805000000    1.1883000000    0.9051000000                    
 INPUT CARD>H      1.0      5.9855000000    2.4152000000    0.0329000000                    
 INPUT CARD>H      1.0      5.9930000000    2.3957000000    1.7982000000                    
 INPUT CARD>H      1.0      4.3465000000    0.4766000000    0.0261000000                    
 INPUT CARD>H      1.0      4.3467000000    0.4761000000    1.7910000000                    
 INPUT CARD>H      1.0      3.5086000000    2.8744000000    1.7967000000                    
   40000000 WORDS OF MEMORY AVAILABLE

     BASIS OPTIONS
     -------------
     GBASIS=N311         IGAUSS=       6      POLAR=POPN311 
     NDFUNC=       1     NFFUNC=       0     DIFFSP=       F
     NPFUNC=       1      DIFFS=       F     BASNAM=        


     RUN TITLE
     ---------
 1-Heptyne, ID: C628717                                                          

 THE POINT GROUP OF THE MOLECULE IS C1      
 THE ORDER OF THE PRINCIPAL AXIS IS     0

 ATOM      ATOMIC                      COORDINATES (BOHR)
           CHARGE         X                   Y                   Z
 C           6.0    11.0822980550        3.2998395198        1.7173829776
 C           6.0     8.4525553705        2.1437051605        1.7173829776
 C           6.0     6.4280919198        4.1925460764        1.7173829776
 C           6.0    13.1160211630        1.2708407267        1.6865804440
 C           6.0     3.9264726573        3.1216383591        1.7136035257
 C           6.0    15.7340475464        2.4148808397        1.7058556491
 C           6.0     1.8528763310        2.2455613912        1.7103909915
 H           1.0    11.3109548995        4.5640662055        0.0621719850
 H           1.0    11.3251278444        4.5272165488        3.3981052711
 H           1.0     8.2136940056        0.9006434057        0.0493218483
 H           1.0     8.2140719508        0.8996985428        3.3844992440
 H           1.0     6.6302926005        5.4318283791        3.3952706821
 H           1.0     6.6333161621        5.4357968037        0.0427078073
 H           1.0    12.8784826063        0.0000000000        3.3342325327
 H           1.0    12.8798054145        0.0519674647        0.0000000000
 H           1.0    16.0509545945        3.5738497880        3.3977273259
 H           1.0    17.1972623787        0.9456188843        1.6784546223
 H           1.0    16.0490648685        3.6348879374        0.0568807522
 H           1.0     0.0000000000        1.4647266131        1.7071784573

          INTERNUCLEAR DISTANCES (ANGS.)




     $CONTRL OPTIONS
     ---------------
 SCFTYP=RHF          RUNTYP=OPTIMIZE     EXETYP=RUN     
 MPLEVL=       0     CITYP =NONE         CCTYP =NONE         VBTYP =NONE    
 DFTTYP=NONE         TDDFT =NONE    
 MULT  =       1     ICHARG=       0     NZVAR =       1     COORD =UNIQUE  
 PP    =NONE         RELWFN=NONE         LOCAL =NONE         NUMGRD=       F
 ISPHER=      -1     NOSYM =       0     MAXIT =     200     UNITS =ANGS    
 PLTORB=       F     MOLPLT=       F     AIMPAC=       F     FRIEND=        
 NPRINT=       7     IREST =       0     GEOM  =INPUT   
 NORMF =       0     NORMP =       0     ITOL  =      20     ICUT  =       9
 INTTYP=BEST         GRDTYP=BEST         QMTTOL= 1.0E-06

     $SYSTEM OPTIONS
     ---------------
  REPLICATED MEMORY=    40000000 WORDS (ON EVERY NODE).
 DISTRIBUTED MEMDDI=           0 MILLION WORDS IN AGGREGATE,
 MEMDDI DISTRIBUTED OVER   1 PROCESSORS IS           0 WORDS/PROCESSOR.
 TOTAL MEMORY REQUESTED ON EACH PROCESSOR=    40000000 WORDS.
 TIMLIM=       10000.00 MINUTES, OR       6.9 DAYS.
 PARALL= F  BALTYP=  DLB     KDIAG=    0  COREFL= F
 MXSEQ2=     300 MXSEQ3=     150  mem10=         0

     $COSGMS OPTIONS
     ---------------
     EPSI  =   INFTY     NSPA  =      92     COSRAD=    1.40
     DISEX =   10.00     OUTCHG=DBLCAV       COSBUG=       F
     COSWRT=       F     DCOSMO=       F

     SYMMETRY COORDINATES WILL NOT BE USED FOR 
     THE COSMO CALCULATION, EVEN IF SPECIFIED:
         -- SWITCHING TO C1 POINT GROUP --


     DEFINITION OF CAVITY
     ---------------------------
     ATOM         COORDINATES           RADIUS 
     1   11.0823    3.2998    1.7174    2.0000
     2    8.4526    2.1437    1.7174    2.0000
     3    6.4281    4.1925    1.7174    2.0000
     4   13.1160    1.2708    1.6866    2.0000
     5    3.9265    3.1216    1.7136    2.0000
     6   15.7340    2.4149    1.7059    2.0000
     7    1.8529    2.2456    1.7104    2.0000
     8   11.3110    4.5641    0.0622    1.3000
     9   11.3251    4.5272    3.3981    1.3000
    10    8.2137    0.9006    0.0493    1.3000
    11    8.2141    0.8997    3.3845    1.3000
    12    6.6303    5.4318    3.3953    1.3000
    13    6.6333    5.4358    0.0427    1.3000
    14   12.8785    0.0000    3.3342    1.3000
    15   12.8798    0.0520    0.0000    1.3000
    16   16.0510    3.5738    3.3977    1.3000
    17   17.1973    0.9456    1.6785    1.3000
    18   16.0491    3.6349    0.0569    1.3000
    19    0.0000    1.4647    1.7072    1.3000

          ----------------
          PROPERTIES INPUT
          ----------------

     MOMENTS            FIELD           POTENTIAL          DENSITY
 IEMOM =       1   IEFLD =       0   IEPOT =       0   IEDEN =       0
 WHERE =COMASS     WHERE =NUCLEI     WHERE =NUCLEI     WHERE =NUCLEI  
 OUTPUT=BOTH       OUTPUT=BOTH       OUTPUT=BOTH       OUTPUT=BOTH    
 IEMINT=       0   IEFINT=       0                     IEDINT=       0
                                                       MORB  =       0
          EXTRAPOLATION IN EFFECT
          SOSCF IN EFFECT
 ORBITAL PRINTING OPTION: NPREO=     1   205     2     1

     -------------------------------
     INTEGRAL TRANSFORMATION OPTIONS
     -------------------------------
     NWORD  =            0
     CUTOFF = 1.0E-09     MPTRAN =       0
     DIRTRF =       T     AOINTS =DUP     

          ----------------------
          INTEGRAL INPUT OPTIONS
          ----------------------
 NOPK  =       1 NORDER=       0 SCHWRZ=       T


 -----------------------------------------------
  STATISTICS ON AUTOMATIC COORDINATE GENERATION 
 -----------------------------------------------
  NUMBER OF USER SPECIFIED BONDS                             0
  NUMBER OF BONDS                                           18
  NUMBER OF ANGLES                                          32
  NUMBER OF TORSIONS                                        40
  NUMBER OF EXTRA COORD.                                     0
  NUMBER OF EXTRA COORD. FOR CONSTRAINTS                     0
  NUMBER OF CONSTRAINED COORD.                               0

  TOTAL NUMBER OF PRIMITIVES                                90
 -----------------------------------------------

   --- ENCODED Z MATRIX ---
 COORD  TYPE   I   J   K   L   M   N
    1      1    1   8
    2      1    1   2
    3      1    1   4
    4      1    1   9
    5      1    2  11
    6      1    2  10
    7      1    2   3
    8      1    3  13
    9      1    3  12
   10      1    3   5
   11      1    4  15
   12      1    4  14
   13      1    4   6
   14      1    5   7
   15      1    6  16
   16      1    6  18
   17      1    6  17
   18      1    7  19
   19      2    1   4   6
   20      2    1   4  14
   21      2    1   2  11
   22      2    1   4  15
   23      2    1   2  10
   24      2    1   2   3
   25      2    2   3  12
   26      2    2   1   9
   27      2    2   1   8
   28      2    2   3   5
   29      2    2   3  13
   30      2    2   1   4
   31      2    3   2  10
   32      2    3   5   7
   33      2    3   2  11
   34      2    4   6  17
   35      2    4   6  16
   36      2    4   6  18
   37      2    4   1   9
   38      2    4   1   8
   39      2    5   7  19
   40      2    5   3  12
   41      2    5   3  13
   42      2    6   4  14
   43      2    6   4  15
   44      2    8   1   9
   45      2   10   2  11
   46      2   12   3  13
   47      2   14   4  15
   48      2   16   6  17
   49      2   16   6  18
   50      2   17   6  18
   51      3    1   4   6  16
   52      3    1   4   6  17
   53      3    1   2   3   5
   54      3    1   2   3  12
   55      3    1   2   3  13
   56      3    1   4   6  18
   57      3    2   1   4  15
   58      3    2   3   5   7
   59      3    2   1   4  14
   60      3    2   1   4   6
   61      3    3   5   7  19
   62      3    3   2   1   9
   63      3    3   2   1   4
   64      3    3   2   1   8
   65      3    4   1   2  11
   66      3    4   1   2  10
   67      3    5   3   2  10
   68      3    5   3   2  11
   69      3    6   4   1   9
   70      3    6   4   1   8
   71      3    7   5   3  12
   72      3    7   5   3  13
   73      3    8   1   4  14
   74      3    8   1   4  15
   75      3    8   1   2  11
   76      3    8   1   2  10
   77      3    9   1   4  15
   78      3    9   1   2  11
   79      3    9   1   4  14
   80      3    9   1   2  10
   81      3   10   2   3  12
   82      3   10   2   3  13
   83      3   11   2   3  12
   84      3   11   2   3  13
   85      3   14   4   6  16
   86      3   14   4   6  17
   87      3   14   4   6  18
   88      3   15   4   6  16
   89      3   15   4   6  17
   90      3   15   4   6  18

          INDEP./SYM. INTERNAL COORDINATES
          --------------------------------
 CRD  1=   0.2545 ( 19) -0.1380 ( 21) -0.1381 ( 23)  0.4504 ( 24)  0.1115 ( 25)
           0.1310 ( 26)  0.1327 ( 27) -0.4015 ( 28)  0.1115 ( 29) -0.4208 ( 30)
          -0.1398 ( 31)  0.3041 ( 32) -0.1396 ( 33)  0.1274 ( 37)  0.1272 ( 38)
           0.1088 ( 39)  0.1242 ( 40)  0.1243 ( 41)
 CRD  2=  -0.2407 (  2) -0.1621 (  3) -0.1519 (  7) -0.1453 ( 10) -0.1369 ( 13)
          -0.1007 ( 14) -0.4699 ( 19)  0.1447 ( 20)  0.1446 ( 22) -0.1487 ( 24)
          -0.4129 ( 28)  0.1496 ( 30)  0.3779 ( 32)  0.1489 ( 39)  0.1587 ( 40)
           0.1699 ( 41)  0.1440 ( 42)  0.1517 ( 43)
 CRD  3=   0.1753 ( 21) -0.1636 ( 23)  0.1636 ( 26) -0.1509 ( 27)  0.1297 ( 35)
          -0.1392 ( 36)  0.1493 ( 40) -0.1323 ( 41)  0.1209 ( 42) -0.1073 ( 43)
           0.1039 ( 52) -0.4307 ( 53) -0.2181 ( 54) -0.2180 ( 55) -0.2146 ( 57)
           0.1058 ( 58) -0.2140 ( 59) -0.3607 ( 60)  0.2399 ( 63) -0.1968 ( 67)
          -0.2011 ( 68) -0.1427 ( 69) -0.1387 ( 70)
 CRD  4=   0.3156 (  2)  0.3168 (  3)  0.2744 (  7)  0.1150 ( 10)  0.1877 ( 13)
           0.3382 ( 24) -0.1240 ( 26) -0.1421 ( 27) -0.1286 ( 28)  0.4970 ( 30)
          -0.1480 ( 31)  0.1462 ( 32) -0.1459 ( 33) -0.1767 ( 37) -0.1793 ( 38)
 CRD  5=  -0.1255 (  3)  0.1414 (  7)  0.1313 ( 10) -0.2163 ( 13) -0.4722 ( 19)
           0.1441 ( 20) -0.1719 ( 21)  0.1491 ( 22) -0.1745 ( 23)  0.3962 ( 24)
           0.1321 ( 26)  0.1327 ( 27)  0.1902 ( 28) -0.2001 ( 30) -0.2604 ( 32)
          -0.1280 ( 35) -0.1246 ( 36) -0.1214 ( 39) -0.1040 ( 41)  0.1516 ( 42)
           0.1528 ( 43)
 CRD  6=   0.1920 ( 20) -0.1354 ( 21) -0.1888 ( 22)  0.1302 ( 23)  0.1731 ( 25)
          -0.1313 ( 26)  0.1349 ( 27) -0.1748 ( 29) -0.2027 ( 31)  0.2013 ( 33)
           0.2281 ( 37) -0.2297 ( 38)  0.1877 ( 51)  0.1751 ( 52)  0.1885 ( 56)
           0.1160 ( 58)  0.2107 ( 62)  0.4085 ( 63)  0.2093 ( 64)  0.2429 ( 65)
           0.2444 ( 66)
 CRD  7=  -0.2594 ( 10) -0.2230 ( 14) -0.1281 ( 18)  0.1117 ( 29) -0.1824 ( 32)
          -0.3642 ( 35)  0.3635 ( 36) -0.1793 ( 39)  0.1115 ( 40) -0.1805 ( 41)
          -0.1533 ( 42)  0.1411 ( 43)  0.1024 ( 48) -0.1273 ( 50) -0.1134 ( 52)
          -0.2643 ( 53) -0.1327 ( 54)  0.2104 ( 60) -0.1962 ( 67) -0.1817 ( 68)
           0.1714 ( 69)  0.1874 ( 70)
 CRD  8=  -0.1099 (  3)  0.4784 ( 10)  0.4149 ( 14)  0.2396 ( 18) -0.1004 ( 24)
          -0.1688 ( 25) -0.1464 ( 29)  0.3018 ( 32) -0.2090 ( 35)  0.2186 ( 36)
           0.1873 ( 39)  0.1698 ( 40) -0.1566 ( 53) -0.1322 ( 55)  0.1106 ( 60)
          -0.1126 ( 68)  0.1157 ( 69)
 CRD  9=   0.1296 (  2) -0.1544 (  3) -0.2584 (  7)  0.5924 ( 13) -0.1124 ( 19)
          -0.1013 ( 20) -0.1022 ( 30)  0.3757 ( 34)  0.1895 ( 42)  0.1819 ( 43)
          -0.2177 ( 48) -0.1109 ( 49) -0.2094 ( 50) -0.1117 ( 74)  0.1114 ( 79)
           0.1008 ( 87) -0.1028 ( 88)
 CRD 10=  -0.3562 (  2)  0.3928 (  3)  0.3005 (  7)  0.1569 ( 13)  0.1162 ( 17)
          -0.1403 ( 30)  0.1452 ( 31)  0.1376 ( 32)  0.1387 ( 33)  0.3991 ( 34)
          -0.1475 ( 35) -0.1158 ( 36)  0.1675 ( 37)  0.1705 ( 38)  0.1354 ( 39)
          -0.1182 ( 48)  0.1023 ( 49) -0.1301 ( 50)  0.1262 ( 76) -0.1268 ( 78)
 CRD 11=   0.3951 (  3) -0.4975 (  7)  0.1219 ( 10) -0.1881 ( 13)  0.1190 ( 14)
          -0.1236 ( 25) -0.1020 ( 28) -0.1135 ( 31) -0.1982 ( 32) -0.1130 ( 33)
           0.1880 ( 34) -0.1407 ( 35) -0.2144 ( 36) -0.2124 ( 39)  0.1414 ( 40)
           0.1179 ( 41)  0.1740 ( 49)  0.1161 ( 71) -0.1065 ( 72)  0.1320 ( 75)
          -0.1311 ( 80)
 CRD 12=  -0.2411 ( 20)  0.2502 ( 22)  0.3405 ( 25) -0.3551 ( 29) -0.1687 ( 31)
           0.1513 ( 33) -0.2112 ( 35)  0.1837 ( 36) -0.1236 ( 37)  0.1279 ( 38)
          -0.2008 ( 40)  0.2049 ( 41)  0.1538 ( 42) -0.1636 ( 43) -0.2049 ( 51)
          -0.2204 ( 52) -0.2030 ( 56)  0.1991 ( 58)  0.1556 ( 62)  0.1595 ( 64)
          -0.1079 ( 66) -0.1057 ( 72)
 CRD 13=  -0.1074 (  1) -0.4900 (  2) -0.1152 (  4)  0.2132 ( 10)  0.1649 ( 13)
           0.2236 ( 14)  0.1414 ( 18) -0.1288 ( 21) -0.1483 ( 26) -0.2008 ( 28)
           0.1277 ( 30) -0.2623 ( 32) -0.2358 ( 34)  0.2301 ( 35)  0.1600 ( 36)
          -0.2839 ( 39)  0.1154 ( 40) -0.1838 ( 49)
 CRD 14=  -0.1137 (  5)  0.1086 ( 12)  0.2535 ( 20)  0.1156 ( 21) -0.2310 ( 22)
          -0.1470 ( 23)  0.1287 ( 25)  0.2329 ( 26) -0.2748 ( 27) -0.1523 ( 29)
          -0.1117 ( 33) -0.1002 ( 35)  0.1727 ( 36) -0.1518 ( 37)  0.1618 ( 38)
          -0.2107 ( 40)  0.2285 ( 41) -0.2141 ( 42)  0.2184 ( 43)  0.1659 ( 51)
           0.1353 ( 52)  0.1599 ( 56) -0.2227 ( 57) -0.2213 ( 59) -0.1153 ( 60)
           0.2004 ( 67)  0.1882 ( 68)  0.1078 ( 70)
 CRD 15=   0.2685 ( 21) -0.2882 ( 23)  0.1875 ( 25) -0.2257 ( 26)  0.2127 ( 27)
          -0.2263 ( 29)  0.2781 ( 31) -0.2958 ( 33)  0.2403 ( 37) -0.2288 ( 38)
          -0.2134 ( 40)  0.2004 ( 41) -0.1643 ( 54) -0.1635 ( 55)  0.1228 ( 57)
           0.1232 ( 59) -0.1789 ( 62) -0.1715 ( 64)  0.1472 ( 65)  0.1417 ( 66)
           0.1166 ( 67)  0.1096 ( 68)
 CRD 16=  -0.2617 (  3) -0.1164 (  4)  0.1114 (  6)  0.2156 (  7)  0.1775 (  9)
           0.1113 ( 10) -0.1059 ( 11) -0.1633 ( 12) -0.1120 ( 13)  0.1317 ( 14)
          -0.1095 ( 16)  0.1722 ( 19) -0.1557 ( 22) -0.1239 ( 24)  0.2793 ( 25)
          -0.2770 ( 28) -0.1912 ( 32)  0.2612 ( 34) -0.3052 ( 36) -0.2479 ( 39)
           0.1302 ( 41) -0.1647 ( 46)  0.1054 ( 47)  0.1840 ( 49)
 CRD 17=   0.2028 (  1)  0.1120 (  3) -0.1376 (  4) -0.1933 (  8)  0.1067 (  9)
           0.1496 ( 11)  0.1848 ( 15) -0.1464 ( 16)  0.1205 ( 20)  0.1443 ( 25)
           0.1085 ( 28) -0.2579 ( 29)  0.1020 ( 32) -0.1034 ( 34)  0.3834 ( 35)
          -0.2369 ( 36) -0.1023 ( 37)  0.1545 ( 38) -0.1316 ( 42)  0.1560 ( 43)
          -0.1592 ( 48)  0.1853 ( 50) -0.1367 ( 53)  0.1626 ( 58)  0.2021 ( 60)
          -0.1482 ( 65) -0.1564 ( 66) -0.1380 ( 67) -0.1456 ( 68)  0.1575 ( 69)
           0.1576 ( 70) -0.1007 ( 72)
 CRD 18=   0.1830 (  1)  0.2990 (  2)  0.2781 (  3)  0.2037 (  4)  0.1602 (  5)
           0.1779 (  6)  0.1620 (  7)  0.1090 (  8)  0.1315 ( 11)  0.1522 ( 12)
          -0.2040 ( 19)  0.1211 ( 20)  0.1243 ( 21)  0.1170 ( 22)  0.1144 ( 23)
          -0.2383 ( 24)  0.1156 ( 25)  0.1035 ( 26)  0.1034 ( 27) -0.2216 ( 28)
           0.1197 ( 29) -0.2485 ( 30) -0.1181 ( 32) -0.1813 ( 34)  0.1089 ( 35)
           0.1426 ( 36)  0.1056 ( 37) -0.1704 ( 39) -0.1474 ( 44) -0.1342 ( 45)
          -0.1304 ( 46) -0.1129 ( 47) -0.1296 ( 49)
 CRD 19=   0.1253 (  1) -0.1235 (  4) -0.2509 (  5)  0.2487 (  6) -0.2590 (  8)
           0.2521 (  9) -0.3367 ( 11)  0.3362 ( 12) -0.1003 ( 15) -0.1345 ( 21)
           0.1297 ( 23)  0.1026 ( 25) -0.1041 ( 26)  0.1054 ( 27) -0.1161 ( 29)
           0.1278 ( 51)  0.1576 ( 52)  0.1055 ( 54)  0.1054 ( 55)  0.1277 ( 56)
           0.1062 ( 58) -0.1380 ( 62) -0.1320 ( 63) -0.1382 ( 64) -0.1531 ( 67)
          -0.1553 ( 68) -0.1674 ( 69) -0.1681 ( 70)
 CRD 20=  -0.1737 ( 13) -0.5030 ( 15) -0.5031 ( 16) -0.4801 ( 17)  0.1941 ( 34)
           0.1768 ( 35)  0.1768 ( 36) -0.2000 ( 48) -0.1877 ( 49) -0.1999 ( 50)
 CRD 21=   0.3911 (  1) -0.3916 (  4)  0.3516 (  5) -0.3487 (  6)  0.1965 (  8)
          -0.1950 (  9) -0.2828 ( 11)  0.2817 ( 12) -0.1033 ( 54) -0.1034 ( 55)
           0.1274 ( 57)  0.1271 ( 59)  0.1056 ( 62)  0.1053 ( 64)
 CRD 22=  -0.1488 (  5)  0.1490 (  6) -0.1849 (  8)  0.1901 (  9) -0.1128 ( 20)
           0.1127 ( 22)  0.1528 ( 26) -0.1528 ( 27)  0.1430 ( 31) -0.1425 ( 33)
          -0.1471 ( 37)  0.1468 ( 38)  0.1545 ( 42) -0.1545 ( 43)  0.1033 ( 54)
           0.1040 ( 55)  0.1218 ( 57)  0.1218 ( 59)  0.1211 ( 65)  0.1216 ( 66)
           0.2142 ( 73)  0.2142 ( 74)  0.2019 ( 75)  0.2024 ( 76)  0.2142 ( 77)
           0.2022 ( 78)  0.2142 ( 79)  0.2027 ( 80)  0.1271 ( 81)  0.1279 ( 82)
           0.1266 ( 83)  0.1273 ( 84)  0.1147 ( 85)  0.1147 ( 86)  0.1147 ( 87)
           0.1146 ( 88)  0.1146 ( 89)  0.1146 ( 90)
 CRD 23=  -0.5951 (  8) -0.5830 (  9)  0.1373 ( 14)  0.1456 ( 18)  0.1587 ( 25)
           0.1597 ( 29) -0.3018 ( 46) -0.1816 ( 71)  0.1810 ( 72)
 CRD 24=  -0.1689 ( 11) -0.1691 ( 12) -0.2972 ( 15) -0.2926 ( 16)  0.6350 ( 17)
           0.1576 ( 48) -0.3280 ( 49)  0.1600 ( 50) -0.1713 ( 51)  0.1720 ( 56)
          -0.1866 ( 85)  0.1567 ( 87) -0.1559 ( 88)  0.1874 ( 90)
 CRD 25=   0.5485 ( 15) -0.5506 ( 16)  0.2946 ( 48) -0.2934 ( 50)  0.2292 ( 52)
           0.2202 ( 86)  0.2204 ( 89)
 CRD 26=  -0.4382 (  1) -0.4372 (  4)  0.3714 (  5)  0.3729 (  6)  0.2546 ( 11)
           0.2555 ( 12) -0.1527 ( 44)  0.1322 ( 45) -0.1129 ( 73)  0.1364 ( 75)
           0.1134 ( 77) -0.1364 ( 80)
 CRD 27=  -0.4192 (  5) -0.4191 (  6)  0.4165 ( 11)  0.4170 ( 12)  0.1038 ( 17)
          -0.1753 ( 45)  0.1655 ( 47) -0.1000 ( 73)  0.1002 ( 77)  0.1089 ( 87)
          -0.1087 ( 88)
 CRD 28=   0.4120 (  1) -0.1072 (  3)  0.4114 (  4)  0.2433 (  5)  0.2416 (  6)
           0.3281 ( 11)  0.3271 ( 12)  0.1988 ( 44)  0.1198 ( 45)  0.1545 ( 47)
           0.1297 ( 74) -0.1193 ( 76)  0.1190 ( 78) -0.1307 ( 79)
 CRD 29=  -0.1815 (  1)  0.1833 (  4) -0.1238 (  5)  0.1241 (  6)  0.2378 (  8)
          -0.2513 (  9) -0.1055 ( 40)  0.1091 ( 41)  0.1184 ( 51) -0.1535 ( 54)
          -0.1577 ( 55)  0.1184 ( 56) -0.1208 ( 67) -0.1232 ( 68)  0.1065 ( 69)
           0.1061 ( 70)  0.1593 ( 73)  0.1597 ( 74) -0.1019 ( 75)  0.1602 ( 77)
          -0.1005 ( 78)  0.1598 ( 79) -0.2327 ( 81) -0.2369 ( 82) -0.2351 ( 83)
          -0.2393 ( 84)  0.1684 ( 85)  0.1431 ( 86)  0.1683 ( 87)  0.1685 ( 88)
           0.1432 ( 89)  0.1685 ( 90)
 CRD 30=   0.3119 (  1) -0.3124 (  4) -0.3654 (  5)  0.3645 (  6)  0.2100 (  8)
          -0.2515 (  9)  0.1068 ( 11) -0.1069 ( 12)  0.1222 ( 62)  0.1181 ( 64)
           0.1240 ( 65)  0.1342 ( 66)  0.1968 ( 75)  0.2070 ( 76)  0.2009 ( 78)
           0.2112 ( 80) -0.1032 ( 81) -0.1324 ( 82) -0.1137 ( 83) -0.1428 ( 84)
 CRD 31=  -0.1099 (  7)  0.1144 (  8) -0.4200 ( 10)  0.3391 ( 14)  0.6087 ( 18)
           0.1022 ( 25)  0.1133 ( 29)  0.2564 ( 39) -0.1615 ( 40) -0.1611 ( 41)
          -0.1328 ( 54)  0.1080 ( 55) -0.1761 ( 81) -0.1116 ( 83)  0.1292 ( 84)
 CRD 32=  -0.1756 (  1)  0.1759 (  4) -0.3566 ( 11)  0.3567 ( 12) -0.1613 ( 51)
          -0.1748 ( 52) -0.1611 ( 56)  0.1145 ( 57)  0.1153 ( 59)  0.1348 ( 73)
           0.1340 ( 74)  0.1323 ( 77)  0.1331 ( 79) -0.2466 ( 85) -0.2601 ( 86)
          -0.2464 ( 87) -0.2471 ( 88) -0.2606 ( 89) -0.2469 ( 90)
 CRD 33=  -0.1445 (  9) -0.2492 ( 10)  0.2602 ( 18) -0.1142 ( 29)  0.4723 ( 32)
          -0.7086 ( 39)  0.1424 ( 46)
 CRD 34=   0.1253 ( 10) -0.1101 ( 15) -0.1115 ( 16) -0.2283 ( 17) -0.1439 ( 18)
          -0.1557 ( 20)  0.1312 ( 21) -0.1549 ( 22)  0.1230 ( 23) -0.1784 ( 26)
          -0.1749 ( 27) -0.1472 ( 31)  0.1514 ( 32) -0.1548 ( 33) -0.1617 ( 34)
          -0.1195 ( 35) -0.1201 ( 36)  0.1695 ( 37)  0.1684 ( 38) -0.1353 ( 39)
          -0.1056 ( 40) -0.1133 ( 41)  0.1909 ( 42)  0.1926 ( 43)  0.1745 ( 48)
           0.1755 ( 50) -0.1160 ( 57)  0.1169 ( 59) -0.1038 ( 62) -0.1013 ( 69)
           0.1012 ( 70)  0.2162 ( 73)  0.1813 ( 75) -0.2192 ( 77) -0.1875 ( 80)
          -0.1047 ( 81)  0.1285 ( 84)  0.1168 ( 87) -0.1127 ( 88)
 CRD 35=   0.1404 (  2)  0.1528 (  3) -0.1189 ( 10)  0.1868 ( 13) -0.2710 ( 14)
          -0.1634 ( 15) -0.1582 ( 16) -0.2147 ( 17)  0.3373 ( 18) -0.1318 ( 21)
          -0.1149 ( 23) -0.1413 ( 25) -0.1017 ( 28) -0.1159 ( 29)  0.1109 ( 31)
          -0.1743 ( 32)  0.1219 ( 33) -0.1812 ( 34) -0.1664 ( 35) -0.1653 ( 36)
           0.1137 ( 39)  0.1682 ( 40)  0.1908 ( 41)  0.1015 ( 42)  0.1997 ( 48)
           0.1551 ( 49)  0.1956 ( 50)  0.1133 ( 71)  0.1074 ( 80)  0.1101 ( 81)
          -0.1557 ( 84)
 CRD 36=  -0.1029 (  3)  0.1266 (  7)  0.2035 ( 10) -0.2291 ( 13) -0.5903 ( 14)
           0.1287 ( 15)  0.1288 ( 16)  0.4972 ( 18)  0.1126 ( 34)  0.1162 ( 35)
           0.1162 ( 36)  0.1058 ( 37)  0.1056 ( 38) -0.1134 ( 48) -0.1430 ( 49)
          -0.1135 ( 50)  0.1145 ( 75) -0.1138 ( 80)
 CRD 37=  -0.1566 (  5)  0.1509 (  6)  0.4372 (  8) -0.3908 (  9) -0.1103 ( 23)
           0.1436 ( 25) -0.1105 ( 29)  0.1010 ( 39)  0.1525 ( 40) -0.1525 ( 41)
          -0.1344 ( 53)  0.1569 ( 54)  0.1374 ( 55)  0.1780 ( 58) -0.1049 ( 71)
           0.2686 ( 81)  0.2491 ( 82)  0.2536 ( 83)  0.2341 ( 84)
 CRD 38=  -0.1904 (  2) -0.2056 (  7)  0.1571 (  9)  0.2710 ( 10)  0.3279 ( 13)
          -0.2694 ( 14) -0.1689 ( 15) -0.1548 ( 16)  0.1659 ( 18)  0.1002 ( 20)
           0.1431 ( 25)  0.1245 ( 26)  0.1132 ( 27)  0.1255 ( 28)  0.1648 ( 29)
           0.1868 ( 32) -0.1062 ( 34) -0.1104 ( 35) -0.1109 ( 36) -0.1696 ( 40)
          -0.1382 ( 41) -0.1478 ( 46)  0.2006 ( 49) -0.1625 ( 71)  0.1785 ( 72)
          -0.1063 ( 76)  0.1261 ( 78) -0.1438 ( 87)  0.1307 ( 88)
 CRD 39=   0.2076 (  1) -0.2033 (  4)  0.2666 ( 11) -0.2733 ( 12) -0.2039 ( 15)
           0.2141 ( 16)  0.1571 ( 48) -0.1549 ( 50)  0.1504 ( 52)  0.2198 ( 73)
           0.2200 ( 74) -0.1486 ( 75) -0.1498 ( 76)  0.2258 ( 77) -0.1503 ( 78)
           0.2256 ( 79) -0.1515 ( 80) -0.2048 ( 85) -0.1973 ( 87) -0.2144 ( 88)
          -0.2069 ( 90)
 CRD 40=  -0.2438 (  3)  0.2995 (  7) -0.1577 (  8) -0.1738 (  9)  0.1414 ( 13)
          -0.1390 ( 15) -0.1325 ( 16)  0.1797 ( 17)  0.1425 ( 20)  0.1241 ( 21)
           0.1411 ( 22)  0.1186 ( 23) -0.1228 ( 25) -0.1235 ( 29) -0.1420 ( 32)
          -0.1314 ( 45)  0.2241 ( 46) -0.1482 ( 47)  0.1921 ( 49)  0.1051 ( 51)
          -0.1089 ( 56) -0.1172 ( 67)  0.1228 ( 68)  0.1649 ( 71) -0.1671 ( 72)
          -0.1736 ( 81)  0.1903 ( 84) -0.1252 ( 86) -0.2349 ( 87)  0.2255 ( 88)
           0.1212 ( 89)
 CRD 41=   0.2679 (  2) -0.2704 (  3) -0.1346 (  5) -0.1404 (  6)  0.1413 (  8)
           0.1409 (  9) -0.2773 ( 10)  0.1156 ( 14) -0.1012 ( 15)  0.2054 ( 17)
           0.2146 ( 45) -0.2076 ( 46) -0.1162 ( 47)  0.1503 ( 49)  0.1143 ( 51)
           0.1359 ( 54) -0.1345 ( 55) -0.1139 ( 56)  0.1135 ( 67) -0.1168 ( 68)
           0.1585 ( 75) -0.1554 ( 80)  0.2491 ( 81) -0.2515 ( 84) -0.1792 ( 87)
           0.1780 ( 88)
 CRD 42=   0.1677 (  1) -0.1947 (  2) -0.1195 (  3)  0.1608 (  4)  0.3136 (  7)
          -0.1274 ( 11) -0.1236 ( 12)  0.2998 ( 13) -0.1452 ( 17) -0.1079 ( 31)
          -0.1046 ( 33) -0.1124 ( 42) -0.1142 ( 43) -0.2549 ( 44)  0.1303 ( 45)
           0.1955 ( 47)  0.1288 ( 57) -0.1306 ( 59) -0.1135 ( 62)  0.1138 ( 64)
           0.1041 ( 65) -0.1032 ( 66)  0.1231 ( 69) -0.1206 ( 70) -0.2508 ( 73)
           0.2144 ( 75)  0.2523 ( 77) -0.2202 ( 80)  0.1091 ( 87) -0.1043 ( 88)
 CRD 43=   0.2087 (  1) -0.2139 (  4) -0.1941 (  5)  0.1896 (  6) -0.1017 (  8)
           0.1079 (  9)  0.2446 ( 15) -0.2430 ( 16) -0.1072 ( 25)  0.1128 ( 29)
          -0.1317 ( 31)  0.1322 ( 33)  0.1241 ( 37) -0.1300 ( 38) -0.1851 ( 48)
           0.1820 ( 50) -0.2787 ( 52) -0.1070 ( 58)  0.2135 ( 63)  0.1597 ( 67)
           0.1551 ( 68) -0.1643 ( 75) -0.1675 ( 76) -0.1583 ( 78) -0.1615 ( 80)
           0.1016 ( 85) -0.1947 ( 86)  0.1010 ( 87)  0.1033 ( 88) -0.1930 ( 89)
           0.1027 ( 90)
 CRD 44=   0.1257 (  1)  0.1236 (  4) -0.1628 (  7) -0.1089 (  8) -0.1097 (  9)
           0.2606 ( 10)  0.1805 ( 17) -0.1338 ( 21) -0.1347 ( 23) -0.1249 ( 28)
           0.1275 ( 30)  0.1392 ( 31)  0.1391 ( 33) -0.1071 ( 34) -0.1023 ( 40)
          -0.1026 ( 41) -0.1925 ( 44)  0.1641 ( 46)  0.1297 ( 49)  0.1234 ( 51)
          -0.1557 ( 54)  0.1551 ( 55) -0.1219 ( 56) -0.1394 ( 62)  0.1385 ( 64)
           0.2159 ( 76) -0.2173 ( 78)  0.2375 ( 82) -0.2371 ( 83)  0.1911 ( 85)
          -0.1899 ( 90)
 CRD 45=  -0.2824 (  2)  0.2774 (  3)  0.2255 (  7) -0.2767 ( 13)  0.1684 ( 17)
          -0.1493 ( 20) -0.1494 ( 22)  0.1637 ( 26)  0.1655 ( 27) -0.1581 ( 37)
          -0.1558 ( 38)  0.1569 ( 42)  0.1581 ( 43) -0.1323 ( 57)  0.1341 ( 59)
           0.1071 ( 65) -0.1082 ( 66)  0.1281 ( 69) -0.1287 ( 70) -0.2626 ( 74)
          -0.1635 ( 76)  0.1668 ( 78)  0.2605 ( 79)  0.1403 ( 85) -0.1405 ( 90)
 CRD 46=  -0.1371 (  2)  0.1388 (  3)  0.1324 (  5)  0.1333 (  6) -0.1084 (  7)
          -0.1523 ( 10) -0.1315 ( 11) -0.1334 ( 12)  0.1552 ( 17) -0.1598 ( 19)
           0.1599 ( 24)  0.1467 ( 28) -0.1520 ( 34) -0.1997 ( 45) -0.1386 ( 46)
           0.1989 ( 47)  0.1298 ( 49)  0.1281 ( 51)  0.1199 ( 54) -0.1211 ( 55)
          -0.1254 ( 56) -0.1376 ( 67)  0.1392 ( 68)  0.1086 ( 74)  0.1149 ( 76)
          -0.1159 ( 78) -0.1073 ( 79) -0.2590 ( 82)  0.2588 ( 83)  0.2682 ( 85)
           0.1388 ( 86) -0.1434 ( 89) -0.2676 ( 90)
 CRD 47=  -0.1930 (  5)  0.1867 (  6) -0.1663 ( 11)  0.1594 ( 12) -0.1814 ( 15)
           0.1774 ( 16)  0.1127 ( 21) -0.1123 ( 23)  0.1000 ( 29) -0.1189 ( 31)
           0.1186 ( 33)  0.1458 ( 35) -0.1428 ( 36) -0.1412 ( 42)  0.1418 ( 43)
           0.1309 ( 48) -0.1331 ( 50) -0.1813 ( 51) -0.1790 ( 54) -0.1759 ( 55)
          -0.1871 ( 56)  0.2354 ( 60)  0.1740 ( 62)  0.1517 ( 63)  0.1700 ( 64)
           0.1467 ( 67)  0.1412 ( 68)  0.1450 ( 69)  0.1497 ( 70)  0.2699 ( 86)
           0.2634 ( 89)
 CRD 48=  -0.1369 (  1)  0.2036 (  2)  0.2100 (  3) -0.1377 (  4) -0.1103 (  5)
          -0.1194 (  6)  0.1192 (  7) -0.1129 ( 11) -0.1208 ( 12)  0.1113 ( 13)
          -0.1811 ( 19) -0.1780 ( 24) -0.2102 ( 30) -0.1001 ( 34)  0.2026 ( 44)
           0.1700 ( 45)  0.1727 ( 47)  0.1132 ( 57) -0.1118 ( 59)  0.1234 ( 62)
          -0.1317 ( 64)  0.1147 ( 65) -0.1113 ( 66) -0.1045 ( 68) -0.1303 ( 69)
           0.1227 ( 70)  0.2408 ( 74) -0.2389 ( 76)  0.2423 ( 78) -0.2371 ( 79)
           0.1647 ( 82) -0.1668 ( 83)  0.1746 ( 85) -0.1105 ( 89) -0.1750 ( 90)
 CRD 49=  -0.1717 (  1)  0.1722 (  4) -0.1249 (  5)  0.1240 (  6)  0.1394 ( 11)
          -0.1385 ( 12)  0.1312 ( 20)  0.1245 ( 21) -0.1318 ( 22) -0.1236 ( 23)
          -0.1329 ( 26)  0.1321 ( 27) -0.1366 ( 37)  0.1373 ( 38)  0.2027 ( 51)
          -0.1177 ( 53) -0.1735 ( 54) -0.1735 ( 55)  0.2033 ( 56)  0.2499 ( 57)
           0.2510 ( 59)  0.1971 ( 62)  0.1981 ( 64) -0.2469 ( 65) -0.2483 ( 66)
          -0.2230 ( 69) -0.2230 ( 70) -0.1445 ( 86) -0.1439 ( 89)
 CRD 50=  -0.5644 ( 58) -0.1970 ( 61) -0.5668 ( 71) -0.5668 ( 72)
 CRD 51=  -0.1137 ( 58)  0.9804 ( 61) -0.1138 ( 71) -0.1138 ( 72)

 THE DETERMINANT OF THE G MATRIX IS 10**(    -9)


                     --------------------
                     INTERNAL COORDINATES
                     --------------------

                 - - ATOMS - -         COORDINATE      COORDINATE
 NO.   TYPE    I  J  K  L  M  N        (BOHR,RAD)       (ANG,DEG)
 ----------------------------------------------------------------
   1 STRETCH   1  8                     2.0952987       1.1087844
   2 STRETCH   1  2                     2.8726631       1.5201480
   3 STRETCH   1  4                     2.8729453       1.5202973
   4 STRETCH   1  9                     2.0952919       1.1087808
   5 STRETCH   2 11                     2.0937296       1.1079540
   6 STRETCH   2 10                     2.0939640       1.1080781
   7 STRETCH   2  3                     2.8803127       1.5241960
   8 STRETCH   3 13                     2.0957877       1.1090432
   9 STRETCH   3 12                     2.0957130       1.1090036
  10 STRETCH   3  5                     2.7212050       1.4399998
  11 STRETCH   4 15                     2.0942788       1.1082447
  12 STRETCH   4 14                     2.0943300       1.1082718
  13 STRETCH   4  6                     2.8571422       1.5119346
  14 STRETCH   5  7                     2.2510715       1.1912158
  15 STRETCH   6 16                     2.0751070       1.0980994
  16 STRETCH   6 18                     2.0752762       1.0981890
  17 STRETCH   6 17                     2.0737597       1.0973864
  18 STRETCH   7 19                     2.0106874       1.0640100
  19 BEND      1  4  6                  1.9452694     111.4557255
  20 BEND      1  4 14                  1.9175277     109.8662458
  21 BEND      1  2 11                  1.9213278     110.0839756
  22 BEND      1  4 15                  1.9175279     109.8662573
  23 BEND      1  2 10                  1.9212695     110.0806314
  24 BEND      1  2  3                  1.9360065     110.9249996
  25 BEND      2  3 12                  1.9313820     110.6600377
  26 BEND      2  1  9                  1.9196766     109.9893662
  27 BEND      2  1  8                  1.9206182     110.0433167
  28 BEND      2  3  5                  1.9457280     111.4820047
  29 BEND      2  3 13                  1.9317244     110.6796531
  30 BEND      2  1  4                  1.9431315     111.3332328
  31 BEND      3  2 10                  1.9199422     110.0045844
  32 BEND      3  5  7                  3.1368551     179.7285592
  33 BEND      3  2 11                  1.9204596     110.0342324
  34 BEND      4  6 17                  1.9420152     111.2692727
  35 BEND      4  6 16                  1.9488080     111.6584711
  36 BEND      4  6 18                  1.9488640     111.6616810
  37 BEND      4  1  9                  1.9179931     109.8929109
  38 BEND      4  1  8                  1.9181397     109.9013118
  39 BEND      5  7 19                  3.1406652     179.9468614
  40 BEND      5  3 12                  1.8991942     108.8158139
  41 BEND      5  3 13                  1.8990233     108.8060193
  42 BEND      6  4 14                  1.9194063     109.9738810
  43 BEND      6  4 15                  1.9196556     109.9881656
  44 BEND      8  1  9                  1.8416760     105.5202611
  45 BEND     10  2 11                  1.8427157     105.5798323
  46 BEND     12  3 13                  1.8540863     106.2313215
  47 BEND     14  4 15                  1.8417143     105.5224572
  48 BEND     16  6 17                  1.8741502     107.3808954
  49 BEND     16  6 18                  1.8716322     107.2366230
  50 BEND     17  6 18                  1.8743446     107.3920367
  51 TORSION   1  4  6 16               1.0504223      60.1847654
  52 TORSION   1  4  6 17              -3.1389585    -179.8490740
  53 TORSION   1  2  3  5               3.1401001     179.9144818
  54 TORSION   1  2  3 12              -1.0268161     -58.8322262
  55 TORSION   1  2  3 13               1.0238123      58.6601252
  56 TORSION   1  4  6 18              -1.0448687     -59.8665640
  57 TORSION   2  1  4 15               1.0164882      58.2404849
  58 TORSION   2  3  5  7              -3.1329743    -179.5062026
  59 TORSION   2  1  4 14              -1.0022531     -57.4248719
  60 TORSION   2  1  4  6              -3.1343169    -179.5831303
  61 TORSION   3  5  7 19               0.1769531      10.1386632
  62 TORSION   3  2  1  9               1.0227890      58.6014938
  63 TORSION   3  2  1  4              -3.1300821    -179.3404958
  64 TORSION   3  2  1  8              -0.9989330     -57.2346446
  65 TORSION   4  1  2 11               1.0233272      58.6323272
  66 TORSION   4  1  2 10              -1.0009993     -57.3530376
  67 TORSION   5  3  2 10               1.0102427      57.8826423
  68 TORSION   5  3  2 11              -1.0128027     -58.0293210
  69 TORSION   6  4  1  9              -1.0030286     -57.4693031
  70 TORSION   6  4  1  8               1.0162860      58.2288979
  71 TORSION   7  5  3 12               1.0153050      58.1726901
  72 TORSION   7  5  3 13              -0.9977543     -57.1671105
  73 TORSION   8  1  4 14              -3.1348355    -179.6128436
  74 TORSION   8  1  4 15              -1.1160942     -63.9474869
  75 TORSION   8  1  2 11              -3.1287090    -179.2618217
  76 TORSION   8  1  2 10               1.1301498      64.7528135
  77 TORSION   9  1  4 15              -3.1354087    -179.6456879
  78 TORSION   9  1  2 11              -1.1069870     -63.4256833
  79 TORSION   9  1  4 14               1.1290353      64.6889554
  80 TORSION   9  1  2 10              -3.1313135    -179.4110481
  81 TORSION  10  2  3 12               3.1265119     179.1359344
  82 TORSION  10  2  3 13              -1.1060451     -63.3717142
  83 TORSION  11  2  3 12               1.1034665      63.2239711
  84 TORSION  11  2  3 13              -3.1290905    -179.2836775
  85 TORSION  14  4  6 16              -1.0805574     -61.9113777
  86 TORSION  14  4  6 17               1.0132471      58.0547829
  87 TORSION  14  4  6 18               3.1073370     178.0372929
  88 TORSION  15  4  6 16              -3.1016105    -177.7091914
  89 TORSION  15  4  6 17              -1.0078060     -57.7430308
  90 TORSION  15  4  6 18               1.0862838      62.2394792

     ------------------------------------------
     THE POINT GROUP IS C1 , NAXIS= 1, ORDER= 1
     ------------------------------------------

     DIMENSIONS OF THE SYMMETRY SUBSPACES ARE
 A   =  205

 ..... DONE SETTING UP THE RUN .....
 STEP CPU TIME =     0.01 TOTAL CPU TIME =        0.0 (    0.0 MIN)
 TOTAL WALL CLOCK TIME=        0.0 SECONDS, CPU UTILIZATION IS  50.00%


          -----------------------------
          STATIONARY POINT LOCATION RUN
          -----------------------------

 OBTAINING INITIAL HESSIAN, HESS=GUESS   
 DIAGONAL GUESS HESSIAN IN INTERNAL COORDS IS
     1  0.3339     2  0.3743     3  0.3742     4  0.3340     5  0.3345
     6  0.3344     7  0.3713     8  0.3338     9  0.3338    10  0.4374
    11  0.3343    12  0.3343    13  0.3803    14  0.7094    15  0.3410
    16  0.3409    17  0.3414    18  0.3643    19  0.2505    20  0.2236
    21  0.2236    22  0.2236    23  0.2236    24  0.2496    25  0.2233
    26  0.2235    27  0.2235    28  0.2554    29  0.2233    30  0.2499
    31  0.2233    32  0.2816    33  0.2234    34  0.2247    35  0.2247
    36  0.2247    37  0.2235    38  0.2235    39  0.2476    40  0.2284
    41  0.2284    42  0.2241    43  0.2241    44  0.2015    45  0.2016
    46  0.2015    47  0.2016    48  0.2026    49  0.2026    50  0.2026
    51  0.2500    52  0.2500    53  0.2500    54  0.2500    55  0.2500
    56  0.2500    57  0.2500    58  0.2500    59  0.2500    60  0.2500
    61  0.2500    62  0.2500    63  0.2500    64  0.2500    65  0.2500
    66  0.2500    67  0.2500    68  0.2500    69  0.2500    70  0.2500
    71  0.2500    72  0.2500    73  0.2500    74  0.2500    75  0.2500
    76  0.2500    77  0.2500    78  0.2500    79  0.2500    80  0.2500
    81  0.2500    82  0.2500    83  0.2500    84  0.2500    85  0.2500
    86  0.2500    87  0.2500    88  0.2500    89  0.2500    90  0.2500
 TRANSFORMING HESSIAN TO SYMMETRY COORDINATES

          PARAMETERS CONTROLLING GEOMETRY SEARCH ARE
          METHOD =QA                  UPHESS =BFGS    
          NNEG   =         0          NFRZ   =         3
          NSTEP  =        50          IFOLOW =         1
          HESS   =GUESS               RESTAR =         F
          IHREP  =         0          HSSEND =         F
          NPRT   =         0          NPUN   =         0
          OPTTOL = 5.000E-04          RMIN   = 1.500E-03
          RMAX   = 1.000E-01          RLIM   = 7.000E-02
          DXMAX  = 3.000E-01          PURIFY =         F
          MOVIE  =         F          TRUPD  =         T
          TRMAX  = 5.000E-01          TRMIN  = 5.000E-02
          ITBMAT =         5          STPT   =         F
          STSTEP = 1.000E-02          PROJCT=          F
          FROZEN COORD(S)=   1   2   3


      ***** EQUILIBRIUM GEOMETRY LOCATED *****
            (SUBJECT TO   3 CONSTRAINT(S))
 COORDINATES OF ALL ATOMS ARE (ANGS)
   ATOM   CHARGE       X              Y              Z
 ------------------------------------------------------------
 C           6.0   5.8739651853   1.7141398435   0.9104469012
 C           6.0   4.4689983640   1.1116960419   0.9109324544
 C           6.0   3.3909179658   2.2042968997   0.9109198033
 C           6.0   6.9912085803   0.6708076972   0.8948373812
 C           6.0   2.0189319828   1.6694810737   0.9061656111
 C           6.0   8.3828242361   1.3029797181   0.8985552016
 C           6.0   0.9213887679   1.2168948687   0.9025146430
 H           1.0   5.9819476013   2.3637299185   0.0427532807
 H           1.0   5.9904661749   2.3479638667   1.7886500720
 H           1.0   4.3372609370   0.4787959684   0.0367046304
 H           1.0   4.3371058660   0.4783496917   1.7848278178
 H           1.0   3.5091608263   2.8379631390   1.7846112735
 H           1.0   3.5124921370   2.8407143165   0.0397298807
 H           1.0   6.8883850246   0.0177756978   1.7596992766
 H           1.0   6.8838221420   0.0401298656   0.0141161809
 H           1.0   8.5307440443   1.9154609977   1.7849013698
 H           1.0   9.1613787463   0.5454844000   0.8840018910
 H           1.0   8.5231256281   1.9410284084   0.0291171537
 H           1.0  -0.0587882631   0.8188962439   0.8921044671


                     --------------------
                     INTERNAL COORDINATES
                     --------------------

                 - - ATOMS - -         COORDINATE      COORDINATE
 NO.   TYPE    I  J  K  L  M  N        (BOHR,RAD)       (ANG,DEG)
 ----------------------------------------------------------------
   1 STRETCH   1  8                     2.0584310       1.0892748
   2 STRETCH   1  2                     2.8887913       1.5286826
   3 STRETCH   1  4                     2.8888827       1.5287310
   4 STRETCH   1  9                     2.0584540       1.0892870
   5 STRETCH   2 11                     2.0546948       1.0872977
   6 STRETCH   2 10                     2.0546732       1.0872863
   7 STRETCH   2  3                     2.9006118       1.5349378
   8 STRETCH   3 13                     2.0517058       1.0857160
   9 STRETCH   3 12                     2.0517683       1.0857491
  10 STRETCH   3  5                     2.7827113       1.4725475
  11 STRETCH   4 15                     2.0570743       1.0885569
  12 STRETCH   4 14                     2.0571207       1.0885815
  13 STRETCH   4  6                     2.8884073       1.5284794
  14 STRETCH   5  7                     2.2434866       1.1872021
  15 STRETCH   6 16                     2.0550482       1.0874848
  16 STRETCH   6 18                     2.0551264       1.0875262
  17 STRETCH   6 17                     2.0529054       1.0863508
  18 STRETCH   7 19                     1.9992357       1.0579500
  19 BEND      1  4  6                  1.9639396     112.5254524
  20 BEND      1  4 14                  1.9095080     109.4067498
  21 BEND      1  2 11                  1.9190949     109.9560402
  22 BEND      1  4 15                  1.9087687     109.3643918
  23 BEND      1  2 10                  1.9182440     109.9072870
  24 BEND      1  2  3                  1.9444239     111.4072846
  25 BEND      2  3 12                  1.9165831     109.8121232
  26 BEND      2  1  9                  1.9042954     109.1080908
  27 BEND      2  1  8                  1.9032683     109.0492421
  28 BEND      2  3  5                  1.9778106     113.3202014
  29 BEND      2  3 13                  1.9162348     109.7921638
  30 BEND      2  1  4                  1.9852895     113.7487100
  31 BEND      3  2 10                  1.9062939     109.2225943
  32 BEND      3  5  7                  3.1221660     178.8869376
  33 BEND      3  2 11                  1.9065076     109.2348392
  34 BEND      4  6 17                  1.9434315     111.3504247
  35 BEND      4  6 16                  1.9377394     111.0242893
  36 BEND      4  6 18                  1.9371019     110.9877623
  37 BEND      4  1  9                  1.9041195     109.0980095
  38 BEND      4  1  8                  1.9033062     109.0514099
  39 BEND      5  7 19                  3.1329310     179.5037243
  40 BEND      5  3 12                  1.8923396     108.4230737
  41 BEND      5  3 13                  1.8908644     108.3385488
  42 BEND      6  4 14                  1.9094091     109.4010818
  43 BEND      6  4 15                  1.9085938     109.3543682
  44 BEND      8  1  9                  1.8594014     106.5358550
  45 BEND     10  2 11                  1.8676089     107.0061086
  46 BEND     12  3 13                  1.8664801     106.9414325
  47 BEND     14  4 15                  1.8607603     106.6137099
  48 BEND     16  6 17                  1.8819468     107.8276088
  49 BEND     16  6 18                  1.8792817     107.6749126
  50 BEND     17  6 18                  1.8817088     107.8139723
  51 TORSION   1  4  6 16               1.0476974      60.0286399
  52 TORSION   1  4  6 17              -3.1383208    -179.8125345
  53 TORSION   1  2  3  5               3.1377360     179.7790323
  54 TORSION   1  2  3 12              -1.0265126     -58.8148395
  55 TORSION   1  2  3 13               1.0209488      58.4960586
  56 TORSION   1  4  6 18              -1.0418852     -59.6956268
  57 TORSION   2  1  4 15               1.0195621      58.4166051
  58 TORSION   2  3  5  7               0.0092422       0.5295388
  59 TORSION   2  1  4 14              -1.0125565     -58.0152155
  60 TORSION   2  1  4  6              -3.1388700    -179.8440043
  61 TORSION   3  5  7 19              -2.2532170    -129.0998256
  62 TORSION   3  2  1  9               1.0224900      58.5843632
  63 TORSION   3  2  1  4              -3.1304434    -179.3611949
  64 TORSION   3  2  1  8              -1.0019943     -57.4100416
  65 TORSION   4  1  2 11               1.0364883      59.3864034
  66 TORSION   4  1  2 10              -1.0150366     -58.1573118
  67 TORSION   5  3  2 10               1.0153723      58.1765473
  68 TORSION   5  3  2 11              -1.0218724     -58.5489740
  69 TORSION   6  4  1  9              -1.0085208     -57.7839872
  70 TORSION   6  4  1  8               1.0158871      58.2060426
  71 TORSION   7  5  3 12              -2.1232511    -121.6533289
  72 TORSION   7  5  3 13               2.1402323     122.6262794
  73 TORSION   8  1  4 14              -3.1409847    -179.9651686
  74 TORSION   8  1  4 15              -1.1088661     -63.5333479
  75 TORSION   8  1  2 11              -3.1182479    -178.6624434
  76 TORSION   8  1  2 10               1.1134126      63.7938415
  77 TORSION   9  1  4 15              -3.1332740    -179.5233777
  78 TORSION   9  1  2 11              -1.0937636     -62.6680385
  79 TORSION   9  1  4 14               1.1177927      64.0448017
  80 TORSION   9  1  2 10               3.1378969     179.7882463
  81 TORSION  10  2  3 12               3.1343090     179.5826756
  82 TORSION  10  2  3 13              -1.1014149     -63.1064264
  83 TORSION  11  2  3 12               1.0970643      62.8571543
  84 TORSION  11  2  3 13              -3.1386596    -179.8319477
  85 TORSION  14  4  6 16              -1.0786722     -61.8033650
  86 TORSION  14  4  6 17               1.0184949      58.3554606
  87 TORSION  14  4  6 18               3.1149305     178.4723683
  88 TORSION  15  4  6 16              -3.1106353    -178.2262765
  89 TORSION  15  4  6 17              -1.0134682     -58.0674509
  90 TORSION  15  4  6 18               1.0829673      62.0494568

          INTERNUCLEAR DISTANCES (ANGS.)


 =====================================================
   GAMESS/COSab RESULTS
 =====================================================

   Dielectric Constant                  = INFTY
   Basic Grid Size                      =                 1082
   Number of Segments                   =                   92
   Number of Segments located on spheres=                  267
   Number of Segments of the cavity     =                  702
   Solvent Radius (rsolv)               = 1.40
   Outlying Charge Error Method         = double cavity

 =====================================================

  Total solvated Energy (a.u.)          =  -272.0792129131
  Total Energy corrected (a.u.)         =  -272.0792228392

  Outlying charge effect (a.u.)         =    -0.0000099261
  Outlying charge effect (kcal/mol)     =    -0.0062287474

  Dielectric Energy (a.u.)              =    -0.0072193288
  Dielectric energy corr. (a.u.)        =    -0.0072292549

  Sum of polarization charges           =     0.0274610404
  Sum of polarization charges(cor.)     =    -0.0274610404

  Total surface area of cavity (A**2)   =  166.92
  Total volume of cavity (A**3)         =  155.65

 =====================================================
 NPS=                   702
NR.  ATOM  (X, Y, Z)(a.u.)                  CHARGE(e)  AREA(A**2) SIGMA(e/A**2)
   1   1  12.717319   6.636964   2.073590   0.001317   0.325193   0.004051
   2   1  10.981853   2.471112   5.419164   0.000138   0.092912   0.001487
   3   1  12.403302   6.761858   1.299318   0.001088   0.232280   0.004683
   4   1  11.287174   2.683904  -2.013264   0.000209   0.139368   0.001498
   5   1  10.594739   6.970587   2.045886   0.000899   0.232280   0.003869
   6   1  11.554691   6.986214   1.915268   0.001771   0.325193   0.005446
   7   1  11.329094   2.660737   5.448379   0.000073   0.046456   0.001566
   8   1  10.882152   6.979224   1.221185   0.000558   0.139368   0.004003
   9   1  10.733878   2.778879  -2.012895   0.000069   0.046456   0.001482
  10   2   6.720967  -1.247718   2.035760   0.000993   0.325193   0.003052
  11   2   8.601679   2.814862   5.429490   0.000037   0.092912   0.000401
  12   2   7.027973  -1.372189   1.258614   0.000840   0.232280   0.003618
  13   2   9.219970  -1.489182   0.829190   0.000062   0.046456   0.001339
  14   2   8.262498   2.712075  -2.003805  -0.000002   0.139368  -0.000012
  15   2   8.831609  -1.648891   1.994932   0.000905   0.232280   0.003897
  16   2   7.871180  -1.631939   1.868042   0.001545   0.325193   0.004750
  17   2   8.248631   2.636103   5.457591   0.000007   0.046456   0.000144
  18   2   8.541053  -1.637193   1.171371   0.000486   0.139368   0.003484
  19   2   8.812452   2.599395  -2.006965   0.000030   0.046456   0.000636
  20   3   5.842294   7.882168   1.333072   0.000526   0.371649   0.001415
  21   3   6.286468   3.448600  -1.987455  -0.000137   0.092912  -0.001477
  22   3   6.295112   7.903987   2.264821   0.000403   0.278737   0.001448
  23   3   5.998890   3.667534   5.445503  -0.000207   0.139368  -0.001485
  24   3   8.197671   7.483529   1.453591   0.000214   0.232280   0.000923
  25   3   7.211378   7.855417   1.568900   0.000787   0.371649   0.002118
  26   3   4.930506   7.643027   1.813232   0.000103   0.371649   0.000276
  27   3   4.707142   7.385041   0.708331  -0.000070   0.232280  -0.000303
  28   3   6.028512   3.748671  -2.015794  -0.000083   0.046456  -0.001794
  29   3   4.814456   7.449055   2.702982  -0.000078   0.278737  -0.000279
  30   3   7.923194   7.583072   2.276735   0.000090   0.139368   0.000649
  31   3   6.550181   3.561619   5.449574  -0.000069   0.046456  -0.001478
  32   4  13.710857  -2.458978   1.307408   0.001715   0.371649   0.004614
  33   4  13.314388   2.051166  -2.004903   0.000165   0.092912   0.001775
  34   4  13.415292  -2.475803   2.169874   0.001284   0.278737   0.004608
  35   4  13.667194   1.751265   5.411582   0.000288   0.185824   0.001552
  36   4  11.502844  -2.087814   1.365749   0.001098   0.232280   0.004726
  37   4  12.405471  -2.419136   1.485347   0.001799   0.325193   0.005532
  38   4  14.730631  -2.180146   1.989537   0.001348   0.418105   0.003225
  39   4  14.874195  -1.988021   0.731730   0.000972   0.325193   0.002988
  40   4  13.579558   1.757992  -2.038378   0.000087   0.046456   0.001876
  41   4  15.028462  -1.783473   2.984622   0.000385   0.185824   0.002070
  42   4  11.779890  -2.194836   2.187092   0.000606   0.139368   0.004350
  43   4  13.055566   1.803493   5.429031   0.000089   0.046456   0.001917
  44   5   3.953299   3.601834  -2.037982   0.001765   0.325193   0.005429
  45   5   3.698030   2.698125  -2.037514   0.001475   0.232280   0.006350
  46   5   4.070580   1.493375  -1.672631   0.002826   0.325193   0.008691
  47   5   4.165209   1.322671   4.999474   0.001640   0.232280   0.007061
  48   5   3.677377   2.708118   5.462829   0.002733   0.325193   0.008405
  49   5   4.179869   3.472889   5.460761   0.000833   0.278737   0.002987
  50   5   3.157831   4.913957   4.992301   0.002643   0.371649   0.007110
  51   5   2.504705   5.470774   4.396319   0.001153   0.232280   0.004964
  52   5   2.338488   6.173138   3.442599   0.002577   0.278737   0.009247
  53   5   2.812539   6.676526   2.648797   0.001766   0.464561   0.003802
  54   5   2.702906   6.715945   1.107631   0.001892   0.371649   0.005091
  55   5   2.233747   6.298729   0.334243   0.002176   0.278737   0.007806
  56   5   2.541140   5.525835  -0.940798   0.002654   0.278737   0.009523
  57   5   3.319481   5.016830  -1.538994   0.001554   0.325193   0.004779
  58   5   4.579155   2.446195  -1.920560   0.000786   0.232280   0.003385
  59   5   4.470572   2.239582   5.320318   0.001039   0.232280   0.004471
  60   5   3.037082   6.054206   4.008622   0.000943   0.232280   0.004062
  61   5   3.057505   6.231953  -0.347129   0.001235   0.371649   0.003322
  62   5   3.265056   3.991451   5.356814   0.002089   0.278737   0.007494
  63   5   2.024719   6.477437   1.909635   0.002156   0.278737   0.007736
  64   5   3.073116   4.159596  -1.854673   0.002103   0.278737   0.007544
  65   6  18.894005   2.383046  -0.528794   0.002240   0.418105   0.005358
  66   6  16.359588   0.857347   5.080288   0.000846   0.278737   0.003034
  67   6  19.216365   2.441212   3.398725   0.001819   0.418105   0.004350
  68   6  17.993738   5.533211   1.228519   0.001439   0.371649   0.003873
  69   6  15.629948   1.738504  -2.005466   0.000700   0.278737   0.002512
  70   6  16.742442  -0.162917  -0.867229   0.000724   0.232280   0.003117
  71   6  16.575518   0.719441  -1.574238   0.000993   0.325193   0.003054
  72   6  17.605149   1.418442  -1.477412   0.001287   0.278737   0.004618
  73   6  17.626807   5.749195   2.238587   0.001630   0.371649   0.004385
  74   6  18.752890   2.982909   4.050790   0.001147   0.278737   0.004116
  75   6  16.889730   1.563318   5.216084   0.001021   0.278737   0.003662
  76   6  15.219614   6.142765   2.291171   0.000721   0.185824   0.003879
  77   6  18.346486   1.359442  -0.908095   0.001038   0.232280   0.004470
  78   6  18.010450   2.158438  -1.382005   0.001275   0.278737   0.004573
  79   6  15.693871   1.646472   5.385424   0.000577   0.232280   0.002483
  80   6  17.602307   0.814923   4.608196   0.001392   0.325193   0.004282
  81   6  18.538423   1.714096   4.237647   0.001737   0.325193   0.005342
  82   6  19.207930   3.693525   2.895410   0.001459   0.464561   0.003140
  83   6  18.771640   4.839590   1.911231   0.001356   0.464561   0.002920
  84   6  16.757975   6.120604   1.452004   0.001651   0.325193   0.005079
  85   6  15.438741   6.204827   1.358066   0.001151   0.278737   0.004130
  86   6  16.801130   0.075861   4.467112   0.000946   0.325193   0.002908
  87   6  19.590912   2.747048   2.076434   0.001201   0.418105   0.002871
  88   6  19.454173   2.771325   0.632399   0.001446   0.418105   0.003458
  89   6  18.992186   3.564437  -0.074304   0.001628   0.464561   0.003505
  90   6  18.683978   4.724399   0.655918   0.000918   0.325193   0.002823
  91   6  17.357995   0.476960  -1.137874   0.000814   0.232280   0.003504
  92   6  16.583410   1.601158  -1.906418   0.000834   0.232280   0.003589
  93   6  18.678719   4.663374   2.876236   0.000776   0.278737   0.002784
  94   6  17.847649   1.774247   4.826150   0.001323   0.278737   0.004748
  95   6  16.165412   6.198785   2.164588   0.001345   0.278737   0.004824
  96   6  16.607013  -0.556988   3.838550   0.000343   0.139368   0.002459
  97   6  19.355001   3.825072   1.414105   0.001121   0.464561   0.002412
  98   7   0.895114   0.161749   4.705182   0.001034   0.371649   0.002781
  99   7  -0.711705   3.920769   4.080247   0.000966   0.418105   0.002310
 100   7  -0.834930   4.541576   0.086421   0.000956   0.371649   0.002574
 101   7   0.422491   1.129684  -1.637647   0.000985   0.418105   0.002357
 102   7   1.485104  -1.410785   1.033331   0.000784   0.371649   0.002109
 103   7   0.400688  -1.210558   1.297795  -0.000975   0.418105  -0.002332
 104   7  -0.589083   1.099176  -1.017210  -0.001051   0.325193  -0.003231
 105   7  -1.532882   3.636181   0.371965  -0.000948   0.464561  -0.002042
 106   7  -1.288315   2.966027   3.864739  -0.000911   0.371649  -0.002450
 107   7  -0.118423   0.129751   4.178953  -0.000869   0.464561  -0.001871
 108   7   0.138527   1.241972   4.960840   0.000760   0.418105   0.001818
 109   7  -0.359780   2.776084   4.810852   0.000809   0.371649   0.002176
 110   7  -1.106874   4.378391   3.066183   0.000918   0.511017   0.001797
 111   7  -1.195200   4.656900   1.381406   0.000818   0.464561   0.001760
 112   7  -0.769015   3.521394  -0.842122   0.000786   0.511017   0.001539
 113   7  -0.196424   2.305684  -1.539483   0.000820   0.464561   0.001764
 114   7   0.550859   0.080240  -1.112635   0.000878   0.603929   0.001453
 115   7   1.026596  -0.975460  -0.040262   0.000747   0.464561   0.001608
 116   7   1.263764  -1.376106   2.444157   0.000876   0.464561   0.001885
 117   7   1.068916  -0.806206   3.751563   0.000913   0.464561   0.001966
 118   7   3.019519  -0.279656   4.154501   0.003813   0.371649   0.010259
 119   7   2.001446  -0.211216   4.518397   0.002356   0.418105   0.005636
 120   7   1.389445   1.189971   5.301235   0.002732   0.511017   0.005346
 121   7   1.854773   2.410618   5.481615   0.003764   0.371649   0.010128
 122   7   1.312341   3.622921   5.219638   0.003171   0.371649   0.008533
 123   7   0.227725   3.820786   4.816721   0.002077   0.418105   0.004968
 124   7   0.080102   5.007328   3.753242   0.003157   0.511017   0.006177
 125   7   0.658381   5.641041   3.100674   0.002493   0.278737   0.008943
 126   7   0.409270   5.836276   1.659405   0.004220   0.464561   0.009084
 127   7  -0.169594   5.389588   0.663813   0.003175   0.557473   0.005695
 128   7   0.007885   4.668307  -0.675492   0.002223   0.418105   0.005317
 129   7   0.957772   4.570455  -1.212322   0.003639   0.418105   0.008703
 130   7   1.671576   3.314087  -1.934581   0.003290   0.371649   0.008852
 131   7   1.071535   2.327803  -2.014046   0.002962   0.511017   0.005796
 132   7   1.588856   0.891629  -1.798596   0.002056   0.371649   0.005531
 133   7   2.716547   0.563745  -1.506936   0.002947   0.371649   0.007930
 134   7   3.100131  -0.491907  -0.449735   0.003878   0.325193   0.011926
 135   7   2.416496  -1.129787   0.267592   0.002530   0.464561   0.005445
 136   7   2.461299  -1.400814   1.975136   0.002771   0.511017   0.005422
 137   7   3.271725  -0.996110   2.744757   0.003382   0.278737   0.012132
 138   7   0.135489  -0.571146  -0.155926  -0.000791   0.278737  -0.002839
 139   7  -1.111098   2.407435  -0.771828  -0.000778   0.325193  -0.002393
 140   7  -1.648690   3.904104   2.173049  -0.001009   0.418105  -0.002413
 141   7  -0.733369   1.736473   4.506179  -0.000586   0.371649  -0.001578
 142   7   0.286842  -0.940903   2.997163  -0.000835   0.371649  -0.002246
 143   7   2.463886   0.916519   5.147750   0.004076   0.418105   0.009749
 144   7   0.984614   4.756888   4.475620   0.003915   0.371649   0.010534
 145   7   0.798447   5.501760  -0.066959   0.003189   0.278737   0.011441
 146   7   2.232903   1.737910  -1.999491   0.004012   0.371649   0.010794
 147   7   3.146062  -1.146341   1.045106   0.003367   0.371649   0.009060
 148   7   0.641328   2.470654   5.317334   0.002180   0.464561   0.004693
 149   7  -0.452760   5.304368   2.370485   0.002238   0.464561   0.004819
 150   7   0.404549   3.492656  -1.622301   0.002538   0.464561   0.005464
 151   7   1.962011  -0.352604  -0.978034   0.003020   0.557473   0.005418
 152   7   2.359407  -1.014069   3.414807   0.002615   0.464561   0.005630
 153   8  11.740732   6.044877  -1.750656  -0.001565   0.353299  -0.004430
 154   8  11.712861   4.059824  -2.307187  -0.000983   0.372926  -0.002635
 155   8  12.032337   6.799401  -0.172051  -0.000464   0.353299  -0.001314
 156   8  10.757312   4.629248  -2.308673  -0.001737   0.471065  -0.003687
 157   8  12.091119   5.134857  -2.148460  -0.001888   0.392554  -0.004808
 158   8  12.362830   6.350912  -1.087355  -0.001511   0.333671  -0.004527
 159   8  11.085723   6.803325  -0.645834  -0.001421   0.431809  -0.003292
 160   8  10.794314   5.908861  -1.841577  -0.001904   0.353299  -0.005389
 161   9  11.440255   6.040281   5.237548  -0.001565   0.353299  -0.004430
 162   9  10.791209   4.155023   5.762410  -0.000976   0.372926  -0.002618
 163   9  11.441607   6.869336   3.702894  -0.000536   0.372926  -0.001437
 164   9  11.908632   4.364617   5.764124  -0.001782   0.490692  -0.003632
 165   9  10.800706   5.297002   5.621823  -0.001871   0.392554  -0.004766
 166   9  10.960795   6.549779   4.580920  -0.001507   0.333671  -0.004517
 167   9  12.366812   6.519830   4.155874  -0.001438   0.431809  -0.003330
 168   9  12.307258   5.601027   5.305201  -0.001973   0.372926  -0.005291
 169  10   7.697252  -0.402984  -1.949516  -0.002101   0.412182  -0.005097
 170  10   7.782729   1.286871  -2.321907  -0.001415   0.412182  -0.003433
 171  10   7.246381  -1.325514  -0.328893  -0.000930   0.372926  -0.002493
 172  10   8.413693  -1.519005  -0.266846  -0.000840   0.314043  -0.002675
 173  10   8.753107   0.749222  -2.318283  -0.002167   0.490692  -0.004416
 174  10   6.999284   0.352479  -2.003650  -0.002081   0.412182  -0.005048
 175  10   6.927527  -0.814150  -1.143371  -0.001766   0.353299  -0.004999
 176  10   8.295538  -1.204201  -1.186591  -0.001748   0.353299  -0.004947
 177  10   8.729237  -0.466218  -1.898223  -0.001822   0.314043  -0.005802
 178  11   7.990382  -0.703902   5.218834  -0.001940   0.372926  -0.005202
 179  11   7.446121   1.156892   5.698544  -0.001493   0.372926  -0.004003
 180  11   8.735563   1.181482   5.753361  -0.001270   0.372926  -0.003404
 181  11   7.985005  -1.526818   3.659220  -0.000627   0.353299  -0.001773
 182  11   7.934341   0.334326   5.748174  -0.001335   0.294415  -0.004534
 183  11   8.850501  -0.030581   5.548459  -0.001860   0.333671  -0.005573
 184  11   8.527444  -1.264942   4.477896  -0.002014   0.392554  -0.005129
 185  11   7.017680  -1.107308   4.148526  -0.002007   0.490692  -0.004089
 186  11   6.948035  -0.170441   5.195900  -0.002315   0.431809  -0.005360
 187  12   6.680952   7.004024   5.199893  -0.003541   0.471065  -0.007516
 188  12   6.084748   5.130113   5.756147  -0.002154   0.392554  -0.005486
 189  12   5.246568   6.954264   4.631521  -0.002069   0.353299  -0.005857
 190  12   6.864419   7.776485   3.767114  -0.001622   0.372926  -0.004350
 191  12   7.169947   5.351944   5.769280  -0.003663   0.529948  -0.006912
 192  12   5.731277   6.237507   5.484344  -0.002947   0.471065  -0.006257
 193  12   5.933125   7.569641   4.195981  -0.002129   0.412182  -0.005164
 194  12   7.722599   7.428446   4.132774  -0.002922   0.451437  -0.006473
 195  12   7.619798   6.521314   5.300208  -0.003103   0.372926  -0.008321
 196  13   6.650900   6.821423  -1.905584  -0.003203   0.431809  -0.007419
 197  13   5.606975   5.859337  -2.100144  -0.001749   0.314043  -0.005569
 198  13   7.056665   4.888580  -2.297593  -0.001866   0.314043  -0.005943
 199  13   7.433534   7.673973  -0.216415  -0.001823   0.372926  -0.004888
 200  13   5.439681   7.388313  -0.645338  -0.001635   0.333671  -0.004900
 201  13   6.280303   5.382828  -2.355401  -0.002221   0.372926  -0.005955
 202  13   7.446641   6.058124  -2.139567  -0.003141   0.392554  -0.008002
 203  13   7.641661   7.176442  -1.250540  -0.003166   0.412182  -0.007680
 204  13   6.443684   7.688162  -0.709228  -0.002391   0.451437  -0.005297
 205  13   5.511607   6.826849  -1.549546  -0.002673   0.412182  -0.006485
 206  14  12.946806  -1.258469   5.413597  -0.001627   0.372926  -0.004364
 207  14  13.545269   0.202192   5.718630  -0.000824   0.412182  -0.001999
 208  14  14.465019  -1.497351   4.588302  -0.000874   0.333671  -0.002618
 209  14  12.847357  -2.397147   3.638118  -0.000504   0.353299  -0.001427
 210  14  12.446500   0.049203   5.714749  -0.001729   0.490692  -0.003523
 211  14  14.026498  -0.859922   5.379127  -0.001256   0.412182  -0.003047
 212  14  13.335502  -1.979942   4.696294  -0.001393   0.353299  -0.003942
 213  14  11.993456  -2.067670   4.081579  -0.001475   0.471065  -0.003132
 214  14  12.000614  -1.221443   5.176477  -0.001869   0.372926  -0.005011
 215  14  13.983040  -2.162313   3.854707  -0.000473   0.314043  -0.001505
 216  15  13.038492  -1.327084  -1.989752  -0.002027   0.451437  -0.004490
 217  15  14.048250  -0.364786  -2.155047  -0.000880   0.314043  -0.002802
 218  15  12.468964   0.451892  -2.340292  -0.001041   0.372926  -0.002790
 219  15  12.228328  -2.231078  -0.296581  -0.000617   0.392554  -0.001571
 220  15  14.287745  -1.883736  -0.720826  -0.000579   0.353299  -0.001638
 221  15  13.397934   0.195629  -2.395947  -0.000904   0.353299  -0.002560
 222  15  12.191896  -0.656952  -2.171323  -0.001743   0.372926  -0.004674
 223  15  12.047240  -1.740819  -1.318964  -0.001785   0.412182  -0.004332
 224  15  13.257964  -2.229471  -0.784744  -0.001174   0.451437  -0.002601
 225  15  14.200423  -1.331264  -1.596448  -0.001192   0.431809  -0.002759
 226  16  16.752951   4.932504   5.350840  -0.002380   0.471065  -0.005052
 227  16  15.843720   6.007879   3.877852  -0.000945   0.353299  -0.002674
 228  16  17.485470   5.602609   3.863646  -0.000696   0.353299  -0.001971
 229  16  17.935369   3.799590   5.019173  -0.000705   0.372926  -0.001890
 230  16  16.159830   3.048723   5.762016  -0.000702   0.372926  -0.001882
 231  16  15.663022   5.265997   5.137971  -0.002228   0.412182  -0.005405
 232  16  16.633068   5.863451   4.232161  -0.001354   0.392554  -0.003449
 233  16  17.861923   4.865248   4.578002  -0.001492   0.471065  -0.003168
 234  16  17.098300   3.639133   5.626667  -0.001552   0.471065  -0.003294
 235  16  15.586637   3.988207   5.742351  -0.002210   0.490692  -0.004504
 236  17  19.093237  -0.661087   1.709529  -0.003308   0.588831  -0.005618
 237  17  18.875402   0.294657  -0.076033  -0.000656   0.372926  -0.001759
 238  17  17.614435  -1.068821   0.431386  -0.000874   0.353299  -0.002475
 239  17  17.636239  -1.148265   2.757691  -0.000985   0.353299  -0.002787
 240  17  18.991516   0.301549   3.308866  -0.000717   0.372926  -0.001923
 241  17  19.765945   1.141400   1.612024  -0.000908   0.412182  -0.002204
 242  17  18.499917  -0.648492   0.327006  -0.001856   0.490692  -0.003782
 243  17  17.821365  -1.371790   1.610065  -0.001866   0.490692  -0.003803
 244  17  18.461292  -0.640778   3.056583  -0.001618   0.471065  -0.003436
 245  17  19.576363   0.501667   2.464244  -0.001696   0.471065  -0.003599
 246  17  19.522355   0.485516   0.746277  -0.001761   0.490692  -0.003588
 247  18  16.717734   4.805608  -2.034771  -0.002677   0.529948  -0.005051
 248  18  16.489524   3.275612  -2.339620  -0.000874   0.412182  -0.002121
 249  18  18.031579   4.360003  -1.305066  -0.000888   0.392554  -0.002261
 250  18  16.957122   5.957385  -0.209818  -0.000585   0.353299  -0.001655
 251  18  15.755382   6.037057  -0.492316  -0.001076   0.353299  -0.003046
 252  18  15.539673   3.857100  -2.327877  -0.001980   0.490692  -0.004036
 253  18  17.480977   3.651567  -1.980977  -0.001012   0.412182  -0.002455
 254  18  17.676345   5.296247  -0.903709  -0.001482   0.471065  -0.003146
 255  18  16.486821   5.749061  -1.193831  -0.001509   0.353299  -0.004271
 256  18  15.565580   5.209536  -1.779748  -0.002085   0.372926  -0.005590
 257  19  -2.401634   0.662176   1.617096  -0.009537   0.628086  -0.015184
 258  19  -1.347751  -0.070665   0.312017  -0.004579   0.392554  -0.011666
 259  19  -2.061353   1.809227   0.215097  -0.003777   0.333671  -0.011320
 260  19  -2.331947   2.479130   2.170503  -0.004175   0.353299  -0.011817
 261  19  -1.689852   0.893724   3.450820  -0.003668   0.333671  -0.010993
 262  19  -1.139828  -0.563698   2.406736  -0.004058   0.353299  -0.011485
 263  19  -1.913573   0.811664   0.187592  -0.005973   0.471065  -0.012679
 264  19  -2.458085   2.075878   1.188341  -0.005975   0.471065  -0.012685
 265  19  -2.265025   1.617853   2.865105  -0.006468   0.510320  -0.012675
 266  19  -1.731193   0.091172   2.821395  -0.006116   0.471065  -0.012984
 267  19  -1.369611  -0.527104   1.302021  -0.006209   0.490692  -0.012654
 268   1  10.061475   3.188639  -1.921550  -0.000023   0.028566  -0.000805
 269   2   9.605588   2.991543  -1.879285  -0.000017   0.028566  -0.000592
 270   8  10.178966   3.464952  -1.971374  -0.000048   0.028566  -0.001678
 271   1  10.091349   3.125418   5.369453  -0.000026   0.028498  -0.000902
 272   2   9.635127   2.929050   5.327444  -0.000018   0.028498  -0.000636
 273   9  10.209866   3.400570   5.423187  -0.000059   0.028498  -0.002079
 274   1   9.926485   2.366011  -1.881085  -0.000010   0.027368  -0.000356
 275   2   9.470603   2.169044  -1.923598  -0.000036   0.027368  -0.001311
 276  10   9.343906   1.898329  -1.975494  -0.000062   0.027368  -0.002265
 277   1   9.930618   2.361742   5.322422  -0.000014   0.027307  -0.000505
 278   2   9.474794   2.164721   5.365284  -0.000038   0.027307  -0.001405
 279  11   9.347644   1.894194   5.417087  -0.000078   0.027307  -0.002847
 280   2   9.474795   2.461241   5.395142   0.000043   0.075336   0.000566
 281   1  10.095816   2.825900   5.395634   0.000072   0.075336   0.000954
 282   2   9.419490   2.584266  -1.951242   0.000043   0.086054   0.000505
 283   1  10.116831   2.770940  -1.951716   0.000080   0.086054   0.000927
 284   1  10.045623   6.772151   0.721138   0.000026   0.068007   0.000382
 285   3   9.214901   6.853985   0.737751  -0.000146   0.068007  -0.002147
 286   8  10.147615   6.740443   0.434336  -0.000112   0.068007  -0.001647
 287   1  10.043987   6.749688   2.792351   0.000022   0.067521   0.000326
 288   3   9.213299   6.831158   2.774050  -0.000120   0.067521  -0.001784
 289   9  10.149911   6.712396   3.077012  -0.000134   0.067521  -0.001978
 290   3   8.822649   7.126260   1.941871  -0.000437   0.510971  -0.000855
 291   1   9.992448   6.899518   1.575548   0.000561   0.510971   0.001097
 292   1  12.015087   2.847262  -1.933993  -0.000015   0.028562  -0.000509
 293   4  12.377582   2.507112  -1.896945   0.000013   0.028562   0.000472
 294   8  11.997644   3.147153  -1.982955  -0.000049   0.028562  -0.001704
 295   1  12.055534   2.781808   5.356939   0.000001   0.028510   0.000047
 296   4  12.417553   2.442415   5.309716   0.000024   0.028510   0.000838
 297   9  12.038157   3.080738   5.411545  -0.000032   0.028510  -0.001118
 298   1  11.915779   1.978386   5.305567   0.000025   0.028085   0.000876
 299   4  12.277989   1.637977   5.342838   0.000008   0.028085   0.000301
 300  14  12.299360   1.338497   5.390595  -0.000024   0.028085  -0.000847
 301   1  11.901535   2.071091  -1.898996   0.000014   0.028136   0.000509
 302   4  12.263586   1.731771  -1.946393  -0.000000   0.028136  -0.000016
 303  15  12.284266   1.433583  -2.001850  -0.000033   0.028136  -0.001166
 304   4  12.460747   2.001654   5.375369   0.000131   0.082308   0.001592
 305   1  11.871167   2.417106   5.381979   0.000119   0.082308   0.001452
 306   4  12.368361   2.012584  -1.972329   0.000115   0.075782   0.001523
 307   1  11.908264   2.566674  -1.964679   0.000089   0.075782   0.001169
 308   1  13.321508   6.168984   0.685632   0.000150   0.067666   0.002223
 309   6  14.131822   5.952885   0.699331   0.000193   0.067666   0.002849
 310   8  13.206838   6.176201   0.402030  -0.000076   0.067666  -0.001121
 311   1  13.329284   6.151998   2.786655   0.000106   0.067799   0.001564
 312   6  14.139532   5.936368   2.764008   0.000198   0.067799   0.002918
 313   9  13.217702   6.154077   3.071598  -0.000060   0.067799  -0.000882
 314   6  14.605452   6.078274   1.544695   0.001163   0.522497   0.002227
 315   1  13.425323   6.268928   1.922809   0.001070   0.522497   0.002048
 316   8  11.557565   3.437000  -2.134222  -0.000122   0.070694  -0.001724
 317   8  10.689358   3.588698  -2.128693  -0.000133   0.070694  -0.001885
 318   1  11.056228   3.123551  -2.007925  -0.000304   0.154569  -0.001969
 319   8  10.867299   6.862698   0.344533  -0.000047   0.078819  -0.000594
 320   8  12.107746   6.689308   0.369085  -0.000363   0.180171  -0.002012
 321   1  11.313657   6.830019   0.798960   0.000084   0.168215   0.000499
 322   1  12.663018   6.535369   0.746284   0.000149   0.096295   0.001551
 323   9  10.723536   3.520575   5.578516  -0.000128   0.071194  -0.001801
 324   9  11.597647   3.367630   5.572948  -0.000123   0.071194  -0.001725
 325   1  11.092121   3.057520   5.445513  -0.000283   0.155439  -0.001821
 326   9  12.584860   6.523661   3.164176  -0.000038   0.079104  -0.000484
 327   9  11.360086   6.803080   3.124979  -0.000368   0.180995  -0.002033
 328   1  12.161265   6.658103   2.705024   0.000037   0.168681   0.000217
 329   1  10.789989   6.861132   2.740396   0.000103   0.096643   0.001067
 330   1  10.778942   1.593316  -1.749953  -0.000034   0.166844  -0.000204
 331  10  10.150530   1.171872  -1.780222  -0.000289   0.166844  -0.001733
 332  15  11.226301   0.986584  -1.790109  -0.000130   0.166844  -0.000782
 333  10   9.412426   1.551471  -2.033276  -0.000303   0.135415  -0.002236
 334   1  10.389954   2.105696  -1.939652   0.000211   0.190894   0.001104
 335   1  10.818310   1.528883   5.162513  -0.000031   0.166941  -0.000189
 336  11  10.185413   1.113866   5.194085  -0.000239   0.166941  -0.001434
 337  14  11.263406   0.919274   5.183820  -0.000175   0.166941  -0.001048
 338  11   9.515951   1.403984   5.447812  -0.000380   0.149349  -0.002542
 339   1  10.337779   2.176274   5.387542   0.000248   0.210507   0.001178
 340  14  12.103747   1.028499   5.442216  -0.000184   0.141638  -0.001300
 341   1  11.373353   1.880520   5.360043   0.000273   0.199684   0.001369
 342  15  11.954382   1.032863  -2.039022  -0.000228   0.148558  -0.001535
 343   1  11.454363   2.038656  -1.965319   0.000305   0.209432   0.001458
 344   2   7.528841   2.569370  -1.923615  -0.000080   0.028278  -0.002843
 345   3   7.179331   2.925112  -1.881102  -0.000088   0.028278  -0.003121
 346  10   7.536769   2.270601  -1.975832  -0.000115   0.028278  -0.004052
 347   2   7.526939   2.567484   5.366188  -0.000081   0.028265  -0.002863
 348   3   7.177454   2.923249   5.323663  -0.000091   0.028265  -0.003203
 349  11   7.534968   2.268688   5.418275  -0.000088   0.028265  -0.003112
 350   2   7.686112   3.356282   5.321912  -0.000105   0.027432  -0.003834
 351   3   7.336872   3.712211   5.364800  -0.000149   0.027432  -0.005428
 352  12   7.321917   4.010009   5.416583  -0.000159   0.027432  -0.005813
 353   2   7.697683   3.367537  -1.877549  -0.000104   0.027456  -0.003775
 354   3   7.348578   3.723600  -1.920420  -0.000143   0.027456  -0.005196
 355  13   7.334022   4.021564  -1.971281  -0.000199   0.027456  -0.007235
 356   3   7.147398   3.361667   5.394290  -0.000141   0.080689  -0.001750
 357   2   7.719920   2.918731   5.394030  -0.000056   0.080689  -0.000693
 358   3   7.223840   3.437041  -1.950603  -0.000146   0.082972  -0.001759
 359   2   7.657141   2.856734  -1.951128  -0.000055   0.082972  -0.000668
 360   2   9.589196  -1.364122   0.595114   0.000036   0.066824   0.000533
 361   4  10.431667  -1.425740   0.610539   0.000145   0.066824   0.002171
 362  10   9.468966  -1.327386   0.317282  -0.000121   0.066824  -0.001817
 363   2  10.139730  -1.399338   2.730690   0.000114   0.067483   0.001690
 364   4  10.953270  -1.627001   2.743971   0.000117   0.067483   0.001741
 365  14  11.073904  -1.637312   3.024590  -0.000048   0.067483  -0.000711
 366   4  10.845457  -1.725345   1.856180   0.001164   0.544368   0.002138
 367   2   9.655843  -1.512886   1.478774   0.000810   0.544368   0.001488
 368   2   5.971027  -0.663263   0.669517   0.000315   0.100902   0.003121
 369   7   4.797163  -0.462368   0.708363   0.001284   0.100902   0.012725
 370  10   6.089534  -0.662722   0.386884  -0.000072   0.100902  -0.000711
 371   2   5.967072  -0.660429   2.770162   0.000219   0.100553   0.002175
 372   7   4.793513  -0.459240   2.725068   0.001476   0.100553   0.014678
 373  11   6.086087  -0.659977   3.052545  -0.000070   0.100553  -0.000697
 374   7   4.146387  -0.814633   1.531667   0.007826   0.725676   0.010784
 375   2   5.859661  -0.864875   1.904523   0.002221   0.725676   0.003061
 376   2   8.757065   3.770805  -1.743708  -0.000393   0.166633  -0.002356
 377   8   9.376410   4.198798  -1.778502  -0.000462   0.166633  -0.002775
 378  13   8.334873   4.400027  -1.779060  -0.000809   0.166633  -0.004858
 379   8  10.102953   3.813411  -2.026795  -0.000260   0.135004  -0.001924
 380   2   9.136872   3.249482  -1.936107   0.000102   0.190364   0.000537
 381   2   8.753047   3.760732   5.190733  -0.000380   0.166812  -0.002276
 382   9   9.376749   4.182645   5.228094  -0.000419   0.166812  -0.002511
 383  12   8.329872   4.389426   5.225697  -0.000839   0.166812  -0.005032
 384   9  10.035452   3.885818   5.463343  -0.000328   0.146842  -0.002235
 385   2   9.226965   3.107699   5.399343   0.000136   0.207031   0.000656
 386  10   8.718320  -1.475619   0.246324  -0.000174   0.085815  -0.002027
 387  10   7.375167  -1.295301   0.318175  -0.000605   0.201480  -0.003003
 388   2   8.245551  -1.450873   0.717223  -0.000164   0.178937  -0.000916
 389   2   6.784212  -1.127240   0.703131   0.000056   0.104842   0.000537
 390  10   7.966673   1.966928  -2.132635  -0.000187   0.070663  -0.002649
 391  10   8.831745   1.786650  -2.132477  -0.000179   0.070663  -0.002540
 392   2   8.479188   2.260683  -2.004951  -0.000463   0.154303  -0.002998
 393   2   9.632569  -1.339078   2.970098  -0.000020   0.089436  -0.000223
 394  11   9.514857  -1.313391   3.251963  -0.000206   0.089436  -0.002308
 395  14  10.601211  -1.418623   3.234203   0.000111   0.089436   0.001247
 396  11   6.862108  -1.132844   3.163579  -0.000135   0.085550  -0.001576
[...]
 443   9  10.237766   6.805473   3.255549   0.000008   0.006676   0.001209
 444   3   8.871195   7.117431   2.838271   0.000057   0.009477   0.006034
 445  10   7.141661   1.848269  -1.993927  -0.000527   0.170556  -0.003087
 446   3   6.692249   2.883076  -1.936450  -0.000216   0.240373  -0.000901
 447  11   7.278892   1.933951   5.458647  -0.000503   0.174468  -0.002884
 448   3   6.549153   2.790457   5.352535  -0.000243   0.245876  -0.000988
 449  12   6.044536   4.457708   5.579386  -0.000317   0.068920  -0.004600
 450  12   6.895563   4.306090   5.574177  -0.000365   0.068920  -0.005290
 451   3   6.400466   3.995670   5.450501  -0.000856   0.151108  -0.005665
 452  12   7.974248   7.403527   3.181667  -0.000397   0.077328  -0.005137
 453  12   6.782394   7.726720   3.108562  -0.000944   0.176370  -0.005354
 454  12   5.397660   7.395440   3.536241  -0.001107   0.176370  -0.006275
 455   3   7.576226   7.549997   2.713478  -0.000673   0.165308  -0.004073
 456   3   5.917778   7.671216   2.850009  -0.000717   0.165308  -0.004335
 457   3   4.783465   7.137944   3.390298  -0.000393   0.094474  -0.004163
 458  13   6.910189   4.318017  -2.129264  -0.000337   0.068432  -0.004920
 459  13   6.064873   4.467686  -2.137899  -0.000365   0.068432  -0.005337
 460   3   6.417724   4.005774  -2.009112  -0.000865   0.150248  -0.005759
 461  13   5.032150   7.181227  -0.299744  -0.000385   0.076883  -0.005012
 462  13   6.042639   7.673616   0.200976  -0.000925   0.175092  -0.005280
 463  13   7.512659   7.571273   0.331366  -0.001058   0.175092  -0.006043
 464   3   5.198469   7.369378   0.277892  -0.000897   0.164577  -0.005448
 465   3   6.741681   7.741079   0.764792  -0.000594   0.164577  -0.003612
 466   3   8.056414   7.407425   0.704535  -0.000360   0.093929  -0.003830
 467   4  14.247701   1.315497   5.333576   0.000017   0.028090   0.000619
 468   6  14.699170   1.522555   5.292463   0.000052   0.028090   0.001843
 469  14  14.132408   1.038387   5.381983  -0.000008   0.028090  -0.000286
 470   4  15.390198  -1.189230   3.578136   0.000025   0.028090   0.000904
 471   6  15.826802  -0.949584   3.559863   0.000085   0.028090   0.003025
 472  14  15.172582  -1.242013   3.783763  -0.000002   0.028090  -0.000077
 473   4  15.379134  -1.141896  -0.268556   0.000024   0.028146   0.000841
 474   6  15.815870  -0.902762  -0.246969   0.000053   0.028146   0.001897
 475  15  15.160552  -1.189257  -0.474465   0.000001   0.028146   0.000024
 476   4  14.223952   1.410946  -1.955760   0.000036   0.028146   0.001292
 477   6  14.675705   1.616892  -1.912238   0.000084   0.028146   0.002971
 478  15  14.108816   1.134978  -2.010579  -0.000001   0.028146  -0.000039
 479   4  14.376955   2.127824   5.299642   0.000022   0.025908   0.000865
 480   6  14.828391   2.334069   5.344283   0.000004   0.025908   0.000169
 481  16  14.961352   2.600939   5.400465  -0.000032   0.025908  -0.001246
 482   4  15.882993  -1.172012   3.117125   0.000076   0.025364   0.002992
 483   6  16.351060  -1.002310   3.137777   0.000028   0.025364   0.001099
 484  17  16.620372  -1.028990   3.001862  -0.000009   0.025364  -0.000363
 485   4  15.870825  -1.127945   0.170563   0.000044   0.025364   0.001728
 486   6  16.338726  -0.957644   0.151131   0.000020   0.025364   0.000796
 487  17  16.609148  -0.988343   0.283958  -0.000008   0.025364  -0.000320
 488   4  14.349356   2.230494  -1.900422   0.000034   0.025961   0.001307
 489   6  14.800467   2.437973  -1.942582   0.000003   0.025961   0.000122
 490  18  14.932629   2.706581  -1.992086  -0.000028   0.025961  -0.001079
 491   6  14.838239   2.020476   5.368520   0.000144   0.084297   0.001711
 492   4  14.229666   1.632916   5.365741   0.000126   0.084297   0.001500
 493   6  16.197063  -0.959176   3.394568   0.000137   0.052780   0.002601
 494   4  15.558681  -1.280793   3.336382   0.000125   0.052780   0.002373
 495   6  16.196959  -0.938806  -0.039959   0.000112   0.049154   0.002288
 496   4  15.534974  -1.208490  -0.093505   0.000107   0.049154   0.002177
 497   6  14.854395   2.027994  -1.977460   0.000146   0.085824   0.001696
 498   4  14.161388   1.826284  -1.977391   0.000163   0.085824   0.001896
 499   4  13.505540   2.983703  -1.749355   0.000022   0.167856   0.000130
 500   8  13.061546   3.592128  -1.774128  -0.000145   0.167856  -0.000862
 501  18  14.134908   3.413649  -1.778535  -0.000169   0.167856  -0.001004
 502   8  12.330824   3.547781  -2.015178  -0.000273   0.148555  -0.001839
 503   4  12.825474   2.539942  -1.966863   0.000326   0.209447   0.001555
 504   4  13.522065   2.903774   5.168698   0.000023   0.167957   0.000139
 505   9  13.080277   3.513295   5.208761  -0.000191   0.167957  -0.001140
 506  16  14.153277   3.330697   5.205832  -0.000118   0.167957  -0.000703
 507   9  12.238976   3.390632   5.468551  -0.000222   0.143026  -0.001553
 508   4  12.965575   2.540328   5.362507   0.000295   0.201658   0.001465
 509   4  10.904255  -1.547933   0.440676   0.000135   0.090246   0.001492
 510  10   9.965048  -1.289143   0.172038   0.000070   0.090246   0.000774
 511  15  11.017952  -1.561868   0.155622  -0.000126   0.090246  -0.001392
 512  14  11.663767  -2.005954   3.105938  -0.000024   0.068077  -0.000353
 513  14  12.703090  -2.327611   2.986623  -0.000102   0.150462  -0.000677
 514  14  13.988732  -2.166536   3.261093  -0.000244   0.150462  -0.001621
 515  14  14.784092  -1.615017   3.772091  -0.000089   0.068077  -0.001310
 516   4  11.984273  -2.135238   2.622602   0.000184   0.149904   0.001226
 517   4  13.458683  -2.334873   2.647149   0.000134   0.149904   0.000891
 518   4  14.725579  -1.791787   3.207839  -0.000080   0.149904  -0.000536
 519  14  13.621599   0.907644   5.538695  -0.000090   0.071334  -0.001260
 520  14  12.743221   1.051416   5.542827  -0.000102   0.071334  -0.001432
 521   4  13.245565   1.368890   5.418446  -0.000242   0.155604  -0.001554
 522  15  12.725589   1.150342  -2.163101  -0.000084   0.070895  -0.001186
 523  15  13.598746   1.007493  -2.167271  -0.000094   0.070895  -0.001326
 524   4  13.226023   1.465393  -2.033568  -0.000214   0.154842  -0.001385
 525  15  14.771917  -1.562207  -0.470189  -0.000069   0.068043  -0.001016
 526  15  13.978891  -2.125822   0.030099  -0.000192   0.150373  -0.001274
 527  15  12.695037  -2.293199   0.306492  -0.000095   0.150373  -0.000635
 528  15  11.655713  -1.968470   0.200681  -0.000080   0.068043  -0.001179
 529   4  14.716040  -1.753189   0.089536  -0.000135   0.149841  -0.000900
 530   4  13.451973  -2.309453   0.641994   0.000165   0.149841   0.001104
 531   4  11.978407  -2.110097   0.678905   0.000153   0.149841   0.001020
 532  16  14.811741   3.059388   5.445915  -0.000216   0.138250  -0.001561
 533   4  13.984548   2.284529   5.374191   0.000308   0.194815   0.001578
 534  17  16.783864  -1.214019   2.621869  -0.000245   0.198093  -0.001239
 535  17  16.773862  -1.264462   1.202193  -0.001073   0.405027  -0.002649
 536   4  15.696843  -1.568478   2.140463   0.000764   0.542990   0.001407
 537   4  15.693953  -1.479054   0.527347   0.000620   0.278955   0.002221
 538  18  14.867381   3.048559  -2.045329  -0.000192   0.134019  -0.001436
 539   4  13.889524   2.479730  -1.952649   0.000295   0.188862   0.001564
 540   5   4.542880   0.295425  -0.690280   0.000600   0.038498   0.015574
 541   7   4.173772   0.199930  -0.639093   0.000722   0.038498   0.018753
 542  10   5.514002   0.127514  -0.754047   0.000203   0.038498   0.005274
 543   5   4.535279   0.278613   4.097221   0.000652   0.037895   0.017208
 544   7   4.166341   0.183717   4.043936   0.000772   0.037895   0.020370
 545  11   5.507630   0.113400   4.167404   0.000209   0.037895   0.005521
 546   7   3.438838   0.375681   4.468297   0.002220   0.155065   0.014316
 547   7   2.788840   1.946004   5.201016   0.004421   0.316595   0.013965
 548   7   1.933797   4.021606   4.936414   0.004422   0.316595   0.013966
 549   7   1.314827   5.535199   3.375918   0.004326   0.316595   0.013663
 550   7   1.180392   5.879204   1.145934   0.004374   0.316595   0.013814
 551   7   1.584457   4.915530  -0.858387   0.004372   0.316595   0.013810
 552   7   2.364825   3.031013  -1.832480   0.004214   0.316595   0.013312
 553   7   3.208242   0.982125  -1.385330   0.004183   0.316595   0.013211
 554   5   3.710194   1.169503   4.792750   0.004199   0.316595   0.013264
 555   5   2.865211   3.214863   5.252902   0.004140   0.316595   0.013078
 556   5   2.088185   5.106908   4.290802   0.004174   0.316595   0.013185
 557   5   1.691028   6.086140   2.292651   0.004144   0.316595   0.013090
 558   5   1.833163   5.759481   0.060538   0.004162   0.316595   0.013147
 559   5   2.457537   4.258058  -1.509533   0.004196   0.316595   0.013255
 560   5   3.313515   2.184564  -1.787311   0.003925   0.316595   0.012398
 561   5   3.961001   0.608583  -1.064584   0.002074   0.155065   0.013378
 562  10   6.179963   0.156052  -1.310682  -0.000726   0.293046  -0.002477
 563  10   6.532426   1.230800  -1.842694  -0.000745   0.293046  -0.002542
 564   5   5.026539   1.221754  -1.390290   0.002382   0.814928   0.002923
 565  11   6.517520   1.216714   5.274155  -0.000828   0.294777  -0.002810
 566  11   6.170278   0.139696   4.730243  -0.000756   0.294777  -0.002566
 567   5   5.012895   1.205014   4.808779   0.002259   0.819768   0.002756
 568  12   4.680778   6.700252   4.161330  -0.000880   0.165661  -0.005312
 569  12   4.895618   5.790363   5.007174  -0.002231   0.337291  -0.006614
 570  12   5.436095   4.750911   5.472935  -0.000828   0.165661  -0.004997
 571   5   3.765793   5.977338   4.274839  -0.000051   0.456845  -0.000112
 572   5   4.306080   4.582952   5.213045  -0.000044   0.456845  -0.000096
 573  13   5.456613   4.760218  -2.034254  -0.000824   0.166070  -0.004963
 574  13   4.911424   5.801013  -1.567134  -0.002252   0.338177  -0.006659
 575  13   4.691897   6.710290  -0.716422  -0.000890   0.166070  -0.005356
 576   5   4.325156   4.592355  -1.780875  -0.000034   0.457921  -0.000074
 577   5   3.778161   5.987227  -0.838238  -0.000073   0.457921  -0.000159
 578   6  14.642656   5.895672   0.447664   0.000068   0.088191   0.000768
 579   8  13.685264   5.963102   0.180518   0.000129   0.088191   0.001466
 580  18  14.765533   5.871805   0.167827  -0.000039   0.088191  -0.000444
 581   8  13.162709   6.293185   0.200232   0.000019   0.025289   0.000752
 582   6  14.565903   6.094855   0.592584   0.000162   0.035916   0.004515
 583   6  14.662454   5.863046   3.051103   0.000073   0.088014   0.000835
 584   9  13.706757   5.926452   3.321371   0.000144   0.088014   0.001636
 585  16  14.786991   5.830538   3.329292  -0.000114   0.088014  -0.001295
 586   9  13.186271   6.257554   3.316166   0.000047   0.036050   0.001315
 587   6  14.574271   6.075812   2.870623   0.000216   0.051193   0.004223
 588  14  15.042900  -1.080088   4.231416  -0.000236   0.216314  -0.001092
 589  14  14.554685   0.090018   5.130468  -0.001294   0.445350  -0.002905
 590   6  15.857411  -0.148621   4.416041   0.000798   0.590103   0.001352
 591   6  15.189798   1.224124   5.306192   0.000663   0.304718   0.002174
 592  15  14.267006   0.667147  -2.030034  -0.000222   0.216675  -0.001023
 593  15  14.870681  -0.564965  -1.293910  -0.001304   0.446167  -0.002922
 594   6  15.454054   0.776690  -1.649925   0.000827   0.591028   0.001399
 595   6  16.028864  -0.586445  -0.677792   0.000732   0.305230   0.002399
 596  16  15.459325   2.710846   5.558663  -0.000111   0.067456  -0.001646
 597  16  16.532146   2.550999   5.490080  -0.000280   0.148917  -0.001882
 598  16  17.711411   2.919860   5.038387  -0.000118   0.148917  -0.000790
 599  16  18.328373   3.825079   4.309903  -0.000249   0.148917  -0.001670
 600  16  18.140462   4.910752   3.591047  -0.000257   0.148917  -0.001726
 601  16  17.221558   5.750027   3.164449  -0.000182   0.148917  -0.001221
 602  16  15.932946   6.012926   3.197834  -0.000157   0.148917  -0.001057
 603   6  15.776389   2.229134   5.426497  -0.000155   0.148695  -0.001044
 604   6  17.230119   2.262466   5.160855   0.000071   0.148695   0.000477
 605   6  18.292811   3.016243   4.462634   0.000110   0.148695   0.000742
 606   6  18.546648   4.194103   3.606352  -0.000044   0.148695  -0.000295
 607   6  17.891830   5.332949   2.928673  -0.000090   0.148695  -0.000602
 608   6  16.585809   5.985022   2.696038   0.000068   0.148695   0.000458
 609   6  15.398473   6.034686   2.859872   0.000068   0.082413   0.000831
 610  17  17.101413  -0.851622   0.106987  -0.000086   0.069553  -0.001237
 611  17  17.800812  -0.123470  -0.378514  -0.000245   0.154627  -0.001583
 612  17  18.742050   0.841459  -0.250381  -0.000237   0.154627  -0.001534
 613  17  19.439087   1.540061   0.676727  -0.000244   0.154627  -0.001575
 614  17  19.599590   1.679349   2.013990  -0.000318   0.154627  -0.002059
 615  17  19.156247   1.200906   3.200571  -0.000189   0.154627  -0.001222
 616  17  18.294991   0.305387   3.738827  -0.000249   0.154627  -0.001611
 617  17  17.377026  -0.631634   3.403019  -0.000356   0.154627  -0.002301
 618   6  17.024075  -0.442317  -0.324681  -0.000173   0.152275  -0.001137
 619   6  18.052225   0.621196  -0.678759   0.000039   0.152275   0.000256
 620   6  19.024776   1.608741  -0.052322   0.000020   0.152275   0.000131
 621   6  19.533849   2.106149   1.291908  -0.000062   0.152275  -0.000405
 622   6  19.365943   1.904811   2.790172  -0.000030   0.152275  -0.000200
 623   6  18.591476   1.089168   3.814111   0.000014   0.152275   0.000094
 624   6  17.535252   0.001292   3.934293   0.000004   0.152275   0.000024
 625   6  16.754203  -0.791102   3.394938   0.000012   0.084974   0.000146
 626  18  15.496262   6.042865   0.224030  -0.000051   0.067502  -0.000756
 627  18  16.573021   6.007851   0.372085  -0.000168   0.149034  -0.001126
 628  18  17.736302   5.436935   0.140819  -0.000258   0.149034  -0.001728
 629  18  18.317908   4.442134  -0.495386  -0.000275   0.149034  -0.001845
 630  18  18.088908   3.415018  -1.286109  -0.000160   0.149034  -0.001072
 631  18  17.139440   2.759878  -1.920108  -0.000184   0.149034  -0.001233
 632  18  15.843233   2.734588  -2.147829  -0.000344   0.149034  -0.002310
 633   6  15.825830   6.066867   0.715019   0.000115   0.148780   0.000773
 634   6  17.275601   5.775047   0.734803   0.000072   0.148780   0.000483
 635   6  18.307979   4.848677   0.221556  -0.000073   0.148780  -0.000492
 636   6  18.516602   3.652391  -0.622699  -0.000049   0.148780  -0.000332
 637   6  17.819351   2.657069  -1.465648   0.000082   0.148780   0.000548
 638   6  16.490677   2.254487  -1.975493  -0.000027   0.148780  -0.000180
 639   6  15.303853   2.419437  -2.045952  -0.000016   0.082469  -0.000190
 640  10   6.117385  -0.787028  -0.079262   0.000235   0.247509   0.000949
 641  10   6.016782  -0.388174  -0.816186   0.000083   0.247509   0.000337
 642   7   4.106929  -0.476681  -0.120095   0.006406   0.735846   0.008705
 643  11   6.011192  -0.398773   4.235023   0.000101   0.242143   0.000417
 644  11   6.113723  -0.786666   3.513412   0.000245   0.242143   0.001011
 645   7   4.100782  -0.483540   3.536804   0.006458   0.720331   0.008965
 646  19  -2.063088   3.025952   1.888946  -0.000630   0.062106  -0.010149
 647  19  -1.973944   2.833339   0.859558  -0.001575   0.137412  -0.011459
 648  19  -1.649258   2.058739  -0.097156  -0.001572   0.137412  -0.011443
 649  19  -1.179510   0.909194  -0.377531  -0.001424   0.137412  -0.010359
 650  19  -0.744127  -0.176210   0.125528  -0.001582   0.137412  -0.011514
 651  19  -0.509412  -0.782885   1.219868  -0.001496   0.137412  -0.010888
 652  19  -0.565017  -0.679102   2.487490  -0.001620   0.137412  -0.011787
 653  19  -0.889703   0.095497   3.444205  -0.001426   0.137412  -0.010377
 654  19  -1.359451   1.245042   3.724579  -0.001629   0.137412  -0.011855
 655  19  -1.794834   2.330446   3.221520  -0.001453   0.137412  -0.010574
 656  19  -2.025617   2.920743   2.383085  -0.000647   0.062106  -0.010416
 657   7  -1.844053   3.331478   1.463751  -0.001433   0.136385  -0.010505
 658   7  -1.619389   2.812557   0.149683  -0.001441   0.136385  -0.010565
 659   7  -1.150062   1.675833  -0.581150  -0.001323   0.136385  -0.009699
 660   7  -0.615339   0.355496  -0.449595  -0.001399   0.136385  -0.010254
 661   7  -0.219467  -0.644131   0.494098  -0.001413   0.136385  -0.010364
 662   7  -0.113654  -0.941224   1.889471  -0.001442   0.136385  -0.010573
 663   7  -0.338318  -0.422304   3.203539  -0.001377   0.136385  -0.010098
 664   7  -0.807645   0.714420   3.934372  -0.001430   0.136385  -0.010484
 665   7  -1.342368   2.034758   3.802817  -0.001379   0.136385  -0.010108
 666   7  -1.738240   3.034385   2.859124  -0.001425   0.136385  -0.010451
 667  13   8.629348   7.129482  -0.221657  -0.000445   0.254160  -0.001751
 668  13   8.528896   6.602904  -1.246841  -0.001912   0.508275  -0.003761
 669  13   8.297921   5.402649  -1.947585  -0.001870   0.508275  -0.003679
 670   8  10.079303   6.668768  -0.626073  -0.000625   0.508275  -0.001229
 671   8   9.908397   5.777105  -1.703444  -0.001014   0.508275  -0.001994
 672   8   9.699340   4.692589  -2.047678  -0.000157   0.254160  -0.000619
 673  18  14.452960   3.905278  -2.049613   0.000033   0.250800   0.000130
 674  18  14.629536   4.955653  -1.703335  -0.000551   0.501447  -0.001099
 675  18  14.779958   5.826337  -0.661328  -0.000084   0.501447  -0.000167
 676   8  12.992067   4.569544  -1.936996  -0.000393   0.501447  -0.000783
 677   8  13.189431   5.733902  -1.250111  -0.000430   0.501447  -0.000857
 678   8  13.281212   6.253792  -0.262352   0.000203   0.250800   0.000808
 679  12   8.210916   4.966302   5.498131  -0.000559   0.253956  -0.002200
 680  12   8.424368   6.044396   5.157597  -0.001959   0.507844  -0.003858
 681  12   8.601844   6.934321   4.089439  -0.001539   0.507844  -0.003031
 682   9   9.785187   5.092775   5.399802  -0.000832   0.507844  -0.001638
 683   9  10.022187   6.287206   4.705833  -0.000845   0.507844  -0.001664
 684   9  10.128037   6.814842   3.688873   0.000058   0.253956   0.000227
 685  16  14.834254   5.945347   3.769771   0.000272   0.249770   0.001090
 686  16  14.742902   5.400394   4.738809  -0.000391   0.499383  -0.000784
 687  16  14.543558   4.223892   5.393431  -0.000409   0.499383  -0.000818
 688   9  13.274511   6.022526   4.156162  -0.000152   0.499383  -0.000303
 689   9  13.123662   5.127729   5.170563  -0.000523   0.499383  -0.001047
 690   9  12.944717   4.073952   5.489759   0.000041   0.249770   0.000164
 691  15  11.012228  -1.696303  -0.287403   0.000299   0.253685   0.001179
 692  15  11.094099  -1.169786  -1.282587  -0.000404   0.507216  -0.000797
 693  15  11.290876   0.007810  -1.967275  -0.000364   0.507216  -0.000718
 694  10   9.505593  -1.256928  -0.667806  -0.000412   0.507216  -0.000812
 695  10   9.648169  -0.375323  -1.715038  -0.000750   0.507216  -0.001479
 696  10   9.827958   0.685921  -2.055262  -0.000050   0.253685  -0.000196
 697  14  11.399683   0.352329   5.450824   0.000072   0.250806   0.000286
 698  14  11.208388  -0.688298   5.102157  -0.000442   0.501438  -0.000882
 699  14  11.042691  -1.549494   4.063688  -0.000088   0.501438  -0.000176
 700  11   9.788660   0.223691   5.360371  -0.000570   0.501438  -0.001137
 701  11   9.573764  -0.929202   4.673211  -0.000661   0.501438  -0.001318
 702  11   9.471324  -1.443013   3.690067   0.000188   0.250806   0.000751
 =====================================================

              3776670  WORDS OF DYNAMIC MEMORY USED
 EXECUTION OF GAMESS TERMINATED NORMALLY Tue Nov 22 23:42:31 2016
 DDI: 263640 bytes (0.3 MB / 0 MWords) used by master data server.

 ----------------------------------------
 CPU timing information for all processes
 ========================================
 0: 1018.696 + 0.356 = 1019.52
 ----------------------------------------
 ddikick.x: exited gracefully.
