----- GAMESS execution script -----

          ******************************************************
          *         GAMESS VERSION =  5 DEC 2014 (R1)          *
          *             FROM IOWA STATE UNIVERSITY             *
          * M.W.SCHMIDT, K.K.BALDRIDGE, J.A.BOATZ, S.T.ELBERT, *
          *   M.S.GORDON, J.H.JENSEN, S.KOSEKI, N.MATSUNAGA,   *
          *          K.A.NGUYEN, S.J.SU, T.L.WINDUS,           *
          *       TOGETHER WITH M.DUPUIS, J.A.MONTGOMERY       *
          *         J.COMPUT.CHEM.  14, 1347-1363(1993)        *
          **************** 64 BIT LINUX VERSION ****************

 EXECUTION OF GAMESS BEGUN Tue Nov 22 22:39:27 2016

            ECHO OF THE FIRST FEW INPUT CARDS -
 INPUT CARD>! SELECT RESTRICTED HARTREE-FOCK AS DEFAULT                                     
 INPUT CARD>$contrl scftyp=rhf $end                                                         
 INPUT CARD>                                                                                
 INPUT CARD>! THEORY: HF OR DFT                                                             
 INPUT CARD> $contrl mplevl=0 $end                                                          
 INPUT CARD>                                                                                
 INPUT CARD> $system timlim=10000 mwords=20 $end                                            
 INPUT CARD> $SCF DIRSCF=.TRUE. $end                                                        
 INPUT CARD>                                                                                
 INPUT CARD>                                                                                
 INPUT CARD>! BASIS SETS                                                                    
 INPUT CARD>! 6-311G(d,p)                                                                   
 INPUT CARD> $BASIS GBASIS=N311 NGAUSS=6 NDFUNC=1 NPFUNC=1 $END                             
 INPUT CARD>                                                                                
 INPUT CARD>! One of the following                                                          
 INPUT CARD> $guess guess=HUCKEL $end                                                       
 INPUT CARD>                                                                                
 INPUT CARD> $statpt projct=.FALSE. $end                                                    
 INPUT CARD> $STATPT IFREEZ(1)=1,2,3 $END                                                   
 INPUT CARD>                                                                                
 INPUT CARD>! Optimize the geometry with COSMO effects                                      
 INPUT CARD> $statpt opttol=0.0005 nstep=50 $end                                            
 INPUT CARD> $contrl nzvar=1 $end                                                           
 INPUT CARD> $zmat dlc=.t. auto=.t. $end                                                    
 INPUT CARD> $contrl runtyp=OPTIMIZE maxit=200 $end                                         
 INPUT CARD>                                                                                
 INPUT CARD>! Run COSMO on perfect conductor                                                
 INPUT CARD> $COSGMS PRFCND=.TRUE. $end                                                     
 INPUT CARD>                                                                                
 INPUT CARD>! Specifying RSOLV                                                              
 INPUT CARD> $COSGMS COSRAD = 1.4 $end                                                      
 INPUT CARD>                                                                                
 INPUT CARD>! available memory                                                              
 INPUT CARD> $SYSTEM MWORDS=40 $END                                                         
 INPUT CARD>                                                                                
 INPUT CARD> $DATA                                                                          
 INPUT CARD>Heptanal, ID: C111717                                                           
 INPUT CARD>C1                                                                              
 INPUT CARD>C      6.0      3.1005000000    1.2271000000    4.5103000000                    
 INPUT CARD>C      6.0      2.8602000000    2.5454000000    3.7905000000                    
 INPUT CARD>C      6.0      1.4075000000    2.7182000000    3.3692000000                    
 INPUT CARD>C      6.0      4.5499000000    1.0634000000    4.9315000000                    
 INPUT CARD>C      6.0      1.0849000000    1.9875000000    2.0734000000                    
 INPUT CARD>C      6.0      4.9802000000    1.8664000000    6.1322000000                    
 INPUT CARD>C      6.0      1.8763000000    2.5377000000    0.9075000000                    
 INPUT CARD>O      8.0      4.2307000000    2.4204000000    6.9026000000                    
 INPUT CARD>H      1.0      2.8193000000    0.3846000000    3.8463000000                    
 INPUT CARD>H      1.0      2.4343000000    1.1483000000    5.3929000000                    
 INPUT CARD>H      1.0      3.5086000000    2.6176000000    2.8865000000                    
 INPUT CARD>H      1.0      3.1590000000    3.3848000000    4.4479000000                    
   40000000 WORDS OF MEMORY AVAILABLE

     BASIS OPTIONS
     -------------
     GBASIS=N311         IGAUSS=       6      POLAR=POPN311 
     NDFUNC=       1     NFFUNC=       0     DIFFSP=       F
     NPFUNC=       1      DIFFS=       F     BASNAM=        


     RUN TITLE
     ---------
 Heptanal, ID: C111717                                                           

 THE POINT GROUP OF THE MOLECULE IS C1      
 THE ORDER OF THE PRINCIPAL AXIS IS     0

 ATOM      ATOMIC                      COORDINATES (BOHR)
           CHARGE         X                   Y                   Z
 C           6.0     5.8590954249        2.3188827595        8.5232311224
 C           6.0     5.4049942701        4.8101085291        7.1630063565
 C           6.0     2.6597893277        5.1366531798        6.3668647978
 C           6.0     8.5980642715        2.0095346153        9.3191837085
 C           6.0     2.0501637241        3.7558304006        3.9181578629
 C           6.0     9.4112133641        3.5269845835       11.5881777019
 C           6.0     3.5456928708        4.7955576390        1.7149263339
 O           8.0     7.9948637363        4.5738927807       13.0440226028
 H           1.0     5.3277044772        0.7267886149        7.2684530666
 H           1.0     4.6001599719        2.1699723517       10.1911032792
 H           1.0     6.6302926005        4.9465467455        5.4546940636
 H           1.0     5.9696443952        6.3963445232        8.4053122208
 H           1.0     1.3830904504        4.4733593581        7.8884721631
 H           1.0     2.2461283090        7.1760454658        6.1310269946
 H           1.0     8.9833794004        0.0000000000        9.7721510277
 H           1.0     9.8690939709        2.4834778931        7.7216093584
 H           1.0     2.4385024146        1.7088792107        4.1396337487
 H           1.0     0.0000000000        3.8994495757        3.5237720493
 H           1.0    11.4687470195        3.6278959512       11.9133995444
 H           1.0     3.2686590410        3.6664463614        0.0000000000
 H           1.0     3.0031525397        6.7485894474        1.2740532609
 H           1.0     5.5822505677        4.8048172964        2.1595788588

          INTERNUCLEAR DISTANCES (ANGS.)




     $CONTRL OPTIONS
     ---------------
 SCFTYP=RHF          RUNTYP=OPTIMIZE     EXETYP=RUN     
 MPLEVL=       0     CITYP =NONE         CCTYP =NONE         VBTYP =NONE    
 DFTTYP=NONE         TDDFT =NONE    
 MULT  =       1     ICHARG=       0     NZVAR =       1     COORD =UNIQUE  
 PP    =NONE         RELWFN=NONE         LOCAL =NONE         NUMGRD=       F
 ISPHER=      -1     NOSYM =       0     MAXIT =     200     UNITS =ANGS    
 PLTORB=       F     MOLPLT=       F     AIMPAC=       F     FRIEND=        
 NPRINT=       7     IREST =       0     GEOM  =INPUT   
 NORMF =       0     NORMP =       0     ITOL  =      20     ICUT  =       9
 INTTYP=BEST         GRDTYP=BEST         QMTTOL= 1.0E-06

     $SYSTEM OPTIONS
     ---------------
  REPLICATED MEMORY=    40000000 WORDS (ON EVERY NODE).
 DISTRIBUTED MEMDDI=           0 MILLION WORDS IN AGGREGATE,
 MEMDDI DISTRIBUTED OVER   1 PROCESSORS IS           0 WORDS/PROCESSOR.
 TOTAL MEMORY REQUESTED ON EACH PROCESSOR=    40000000 WORDS.
 TIMLIM=       10000.00 MINUTES, OR       6.9 DAYS.
 PARALL= F  BALTYP=  DLB     KDIAG=    0  COREFL= F
 MXSEQ2=     300 MXSEQ3=     150  mem10=         0

     $COSGMS OPTIONS
     ---------------
     EPSI  =   INFTY     NSPA  =      92     COSRAD=    1.40
     DISEX =   10.00     OUTCHG=DBLCAV       COSBUG=       F
     COSWRT=       F     DCOSMO=       F

     SYMMETRY COORDINATES WILL NOT BE USED FOR 
     THE COSMO CALCULATION, EVEN IF SPECIFIED:
         -- SWITCHING TO C1 POINT GROUP --


     DEFINITION OF CAVITY
     ---------------------------
     ATOM         COORDINATES           RADIUS 
     1    5.8591    2.3189    8.5232    2.0000
     2    5.4050    4.8101    7.1630    2.0000
     3    2.6598    5.1367    6.3669    2.0000
     4    8.5981    2.0095    9.3192    2.0000
     5    2.0502    3.7558    3.9182    2.0000
     6    9.4112    3.5270   11.5882    2.0000
     7    3.5457    4.7956    1.7149    2.0000
     8    7.9949    4.5739   13.0440    1.7200
     9    5.3277    0.7268    7.2685    1.3000
    10    4.6002    2.1700   10.1911    1.3000
    11    6.6303    4.9465    5.4547    1.3000
    12    5.9696    6.3963    8.4053    1.3000
    13    1.3831    4.4734    7.8885    1.3000
    14    2.2461    7.1760    6.1310    1.3000
    15    8.9834    0.0000    9.7722    1.3000
    16    9.8691    2.4835    7.7216    1.3000
    17    2.4385    1.7089    4.1396    1.3000
    18    0.0000    3.8994    3.5238    1.3000
    19   11.4687    3.6279   11.9134    1.3000
    20    3.2687    3.6664    0.0000    1.3000
    21    3.0032    6.7486    1.2741    1.3000
    22    5.5823    4.8048    2.1596    1.3000

          ----------------
          PROPERTIES INPUT
          ----------------

     MOMENTS            FIELD           POTENTIAL          DENSITY
 IEMOM =       1   IEFLD =       0   IEPOT =       0   IEDEN =       0
 WHERE =COMASS     WHERE =NUCLEI     WHERE =NUCLEI     WHERE =NUCLEI  
 OUTPUT=BOTH       OUTPUT=BOTH       OUTPUT=BOTH       OUTPUT=BOTH    
 IEMINT=       0   IEFINT=       0                     IEDINT=       0
                                                       MORB  =       0
          EXTRAPOLATION IN EFFECT
          SOSCF IN EFFECT
 ORBITAL PRINTING OPTION: NPREO=     1   236     2     1

     -------------------------------
     INTEGRAL TRANSFORMATION OPTIONS
     -------------------------------
     NWORD  =            0
     CUTOFF = 1.0E-09     MPTRAN =       0
     DIRTRF =       T     AOINTS =DUP     

          ----------------------
          INTEGRAL INPUT OPTIONS
          ----------------------
 NOPK  =       1 NORDER=       0 SCHWRZ=       T


 -----------------------------------------------
  STATISTICS ON AUTOMATIC COORDINATE GENERATION 
 -----------------------------------------------
  NUMBER OF USER SPECIFIED BONDS                             0
  NUMBER OF BONDS                                           21
  NUMBER OF ANGLES                                          39
  NUMBER OF TORSIONS                                        51
  NUMBER OF EXTRA COORD.                                     0
  NUMBER OF EXTRA COORD. FOR CONSTRAINTS                     0
  NUMBER OF CONSTRAINED COORD.                               0

  TOTAL NUMBER OF PRIMITIVES                               111
 -----------------------------------------------

   --- ENCODED Z MATRIX ---
 COORD  TYPE   I   J   K   L   M   N
    1      1    1   9
    2      1    1   2
    3      1    1   4
    4      1    1  10
    5      1    2   3
    6      1    2  11
    7      1    2  12
    8      1    3  14
    9      1    3  13
   10      1    3   5
   11      1    4  15
   12      1    4  16
   13      1    4   6
   14      1    5   7
   15      1    5  18
   16      1    5  17
   17      1    6   8
   18      1    6  19
   19      1    7  22
   20      1    7  21
   21      1    7  20
   22      2    1   2   3
   23      2    1   2  12
   24      2    1   2  11
   25      2    1   4   6
   26      2    1   4  15
   27      2    1   4  16
   28      2    2   1   4
   29      2    2   3  14
   30      2    2   1  10
   31      2    2   3   5
   32      2    2   3  13
   33      2    2   1   9
   34      2    3   2  12
   35      2    3   2  11
   36      2    3   5  17
   37      2    3   5  18
   38      2    3   5   7
   39      2    4   6  19
   40      2    4   6   8
   41      2    4   1   9
   42      2    4   1  10
   43      2    5   3  13
   44      2    5   3  14
   45      2    5   7  20
   46      2    5   7  21
   47      2    5   7  22
   48      2    6   4  16
   49      2    6   4  15
   50      2    7   5  17
   51      2    7   5  18
   52      2    8   6  19
   53      2    9   1  10
   54      2   11   2  12
   55      2   13   3  14
   56      2   15   4  16
   57      2   17   5  18
   58      2   20   7  21
   59      2   20   7  22
   60      2   21   7  22
   61      3    1   2   3   5
   62      3    1   2   3  13
   63      3    1   4   6  19
   64      3    1   4   6   8
   65      3    1   2   3  14
   66      3    2   1   4   6
   67      3    2   3   5  17
   68      3    2   3   5  18
   69      3    2   3   5   7
   70      3    2   1   4  15
   71      3    2   1   4  16
   72      3    3   5   7  22
   73      3    3   2   1   4
   74      3    3   2   1  10
   75      3    3   2   1   9
   76      3    3   5   7  20
   77      3    3   5   7  21
   78      3    4   1   2  11
   79      3    4   1   2  12
   80      3    5   3   2  12
   81      3    5   3   2  11
   82      3    6   4   1  10
   83      3    6   4   1   9
   84      3    7   5   3  13
   85      3    7   5   3  14
   86      3    8   6   4  16
   87      3    8   6   4  15
   88      3    9   1   2  12
   89      3    9   1   2  11
   90      3    9   1   4  16
   91      3    9   1   4  15
   92      3   10   1   2  11
   93      3   10   1   4  16
   94      3   10   1   4  15
   95      3   10   1   2  12
   96      3   11   2   3  14
   97      3   11   2   3  13
   98      3   12   2   3  13
   99      3   12   2   3  14
  100      3   13   3   5  18
  101      3   13   3   5  17
  102      3   14   3   5  18
  103      3   14   3   5  17
  104      3   15   4   6  19
  105      3   16   4   6  19
  106      3   17   5   7  22
  107      3   17   5   7  21
  108      3   17   5   7  20
  109      3   18   5   7  22
  110      3   18   5   7  21
  111      3   18   5   7  20

          INDEP./SYM. INTERNAL COORDINATES
          --------------------------------
 CRD  1=  -0.1238 (  5) -0.1147 ( 10)  0.1334 ( 22)  0.1241 ( 25) -0.2399 ( 28)
           0.1258 ( 29) -0.5720 ( 31)  0.2335 ( 32)  0.1055 ( 33) -0.1373 ( 35)
           0.1175 ( 37) -0.3145 ( 38)  0.1591 ( 42)  0.1771 ( 43)  0.1619 ( 44)
           0.1353 ( 51)  0.1303 ( 69) -0.1917 ( 73) -0.1293 ( 74)
 CRD  2=  -0.4992 ( 22)  0.2012 ( 23)  0.1334 ( 24)  0.2377 ( 25) -0.1088 ( 26)
           0.4631 ( 28)  0.1288 ( 29) -0.1339 ( 30) -0.2636 ( 31) -0.1873 ( 33)
           0.1692 ( 34)  0.1085 ( 35) -0.1547 ( 41)  0.1027 ( 44)  0.1162 ( 61)
          -0.1130 ( 73)  0.1022 ( 92)
 CRD  3=   0.1472 (  2)  0.2316 (  3)  0.1959 (  5)  0.1412 ( 10)  0.3115 ( 22)
          -0.1527 ( 23)  0.5621 ( 25) -0.1373 ( 26) -0.1500 ( 27)  0.1347 ( 28)
           0.1663 ( 31) -0.1659 ( 35) -0.1236 ( 39)  0.1771 ( 40) -0.1267 ( 41)
          -0.1240 ( 44) -0.1989 ( 48) -0.1908 ( 49) -0.1169 ( 61) -0.1336 ( 73)
          -0.1167 ( 78) -0.1041 ( 80)
 CRD  4=  -0.1770 ( 22)  0.1761 ( 24)  0.1286 ( 28) -0.1491 ( 30) -0.1471 ( 32)
           0.1625 ( 36)  0.1576 ( 37) -0.4835 ( 38)  0.1258 ( 43) -0.1984 ( 44)
           0.1127 ( 45) -0.1326 ( 46)  0.2078 ( 50) -0.2946 ( 61) -0.1691 ( 62)
          -0.1690 ( 65) -0.1657 ( 66) -0.1002 ( 67) -0.1504 ( 69) -0.1474 ( 70)
          -0.1304 ( 71) -0.1363 ( 80) -0.1631 ( 81) -0.1222 ( 84) -0.1144 ( 85)
 CRD  5=   0.1716 (  3)  0.1736 (  5) -0.1179 ( 10) -0.1786 ( 14)  0.2231 ( 22)
          -0.1408 ( 24) -0.1138 ( 25)  0.3531 ( 28)  0.1348 ( 32) -0.1882 ( 33)
          -0.1747 ( 34)  0.1287 ( 36) -0.3493 ( 38) -0.2028 ( 42) -0.1876 ( 47)
           0.1806 ( 51)  0.1119 ( 61)  0.1050 ( 62)  0.1210 ( 65)  0.1421 ( 66)
           0.1029 ( 67)  0.1364 ( 68)  0.1904 ( 69)  0.1080 ( 73)  0.1098 ( 83)
           0.1029 ( 85)
 CRD  6=   0.3162 (  2)  0.1347 (  3)  0.1698 (  5)  0.1820 ( 14)  0.2458 ( 22)
          -0.1295 ( 23) -0.3033 ( 25)  0.1666 ( 27)  0.2400 ( 28)  0.1599 ( 29)
          -0.1061 ( 30) -0.2885 ( 31) -0.1815 ( 35) -0.1680 ( 36)  0.2313 ( 38)
           0.1184 ( 39) -0.1601 ( 40) -0.1309 ( 41)  0.1252 ( 43)  0.1089 ( 47)
           0.1099 ( 49) -0.1475 ( 51) -0.1143 ( 70) -0.1038 ( 77)
 CRD  7=  -0.2495 (  2) -0.1001 (  5)  0.1260 ( 24) -0.1499 ( 26)  0.1691 ( 27)
           0.1862 ( 28) -0.1685 ( 29) -0.2324 ( 30)  0.1341 ( 36) -0.1728 ( 37)
          -0.1368 ( 41)  0.1918 ( 46) -0.1193 ( 47) -0.1317 ( 48)  0.1787 ( 49)
          -0.2250 ( 50)  0.1432 ( 51) -0.1579 ( 64) -0.2294 ( 66)  0.1397 ( 67)
           0.1363 ( 68)  0.2646 ( 69) -0.1480 ( 70) -0.1512 ( 71)  0.1254 ( 72)
           0.1029 ( 77) -0.1193 ( 83)  0.1506 ( 84)  0.1526 ( 85)
 CRD  8=  -0.1393 (  1) -0.1596 (  3)  0.4662 ( 10) -0.1801 ( 13)  0.2379 ( 14)
          -0.1240 ( 25)  0.1110 ( 26) -0.1097 ( 27)  0.1527 ( 34)  0.1530 ( 36)
          -0.1165 ( 38) -0.1880 ( 40)  0.2537 ( 45)  0.2046 ( 48) -0.1186 ( 58)
           0.1013 ( 64)  0.2084 ( 66)  0.1274 ( 70)  0.1169 ( 71) -0.2044 ( 73)
          -0.1593 ( 74) -0.1278 ( 75)  0.1015 ( 82)
 CRD  9=  -0.4035 (  5) -0.1277 (  7) -0.1509 ( 10)  0.2661 ( 13)  0.4228 ( 14)
          -0.1149 ( 33) -0.1006 ( 34) -0.1841 ( 37)  0.1234 ( 41) -0.1301 ( 42)
           0.1595 ( 43)  0.1551 ( 46)  0.1409 ( 47)  0.1549 ( 51) -0.1335 ( 52)
          -0.1050 ( 58) -0.1155 ( 59) -0.1509 ( 60) -0.1383 ( 61)  0.1433 ( 73)
           0.1765 ( 78) -0.1269 ( 80)
 CRD 10=  -0.2278 (  2)  0.3032 (  3)  0.2489 (  5)  0.2902 ( 10)  0.3920 ( 13)
           0.1093 ( 14) -0.1070 ( 22) -0.1113 ( 28)  0.1327 ( 34)  0.1099 ( 35)
           0.1317 ( 37)  0.1713 ( 39)  0.2005 ( 41)  0.1007 ( 44)  0.1617 ( 45)
           0.1319 ( 46) -0.2052 ( 47) -0.2022 ( 52) -0.1264 ( 58) -0.1123 ( 72)
          -0.1363 ( 76)  0.1280 ( 79)  0.1024 ( 95)
 CRD 11=  -0.2850 (  3) -0.2105 ( 13)  0.3609 ( 14) -0.1359 ( 18) -0.1492 ( 24)
          -0.1261 ( 26)  0.1241 ( 27) -0.1254 ( 34)  0.1311 ( 35) -0.1627 ( 36)
          -0.3150 ( 39)  0.2165 ( 40) -0.1025 ( 42)  0.3109 ( 45) -0.1506 ( 48)
           0.1757 ( 50) -0.1817 ( 58) -0.1148 ( 59) -0.1126 ( 72)  0.1233 ( 73)
           0.1451 ( 75) -0.1000 ( 76)
 CRD 12=  -0.3173 (  2) -0.1107 ( 20)  0.1340 ( 22) -0.1614 ( 26)  0.1173 ( 27)
          -0.1056 ( 29)  0.1043 ( 32)  0.1008 ( 44)  0.1503 ( 45) -0.5239 ( 46)
           0.4038 ( 47)  0.1235 ( 49)  0.1023 ( 50)  0.1401 ( 58) -0.2165 ( 59)
          -0.1116 ( 63) -0.1157 ( 64)  0.1168 ( 76) -0.1064 ( 84) -0.1166 ( 85)
 CRD 13=  -0.4671 (  3)  0.1714 ( 10)  0.2646 ( 13) -0.2157 ( 14)  0.1295 ( 17)
           0.1088 ( 22) -0.1259 ( 23) -0.2203 ( 26)  0.1594 ( 30) -0.1086 ( 35)
           0.1170 ( 37)  0.1803 ( 40) -0.2547 ( 42)  0.1023 ( 43) -0.1874 ( 45)
           0.1404 ( 49) -0.1194 ( 51) -0.1469 ( 52)  0.1162 ( 59)  0.1074 ( 87)
 CRD 14=  -0.1046 (  1) -0.2978 (  2) -0.1550 (  3)  0.3521 (  5) -0.3355 ( 10)
           0.1867 ( 14) -0.1027 ( 23) -0.1365 ( 24) -0.1116 ( 26)  0.1600 ( 29)
           0.1308 ( 34)  0.1438 ( 39) -0.1361 ( 40) -0.1039 ( 43) -0.1972 ( 44)
          -0.1975 ( 45)  0.2293 ( 46)  0.1427 ( 47) -0.1771 ( 60) -0.1107 ( 78)
          -0.1164 ( 81) -0.1624 ( 97)  0.1265 ( 99) -0.1095 (100)  0.1219 (103)
 CRD 15=   0.2949 (  2) -0.1717 (  3)  0.1013 (  7) -0.1152 ( 10)  0.3324 ( 13)
           0.1193 ( 18)  0.1264 ( 23) -0.1442 ( 26) -0.1801 ( 27)  0.1872 ( 33)
           0.2956 ( 39) -0.1162 ( 40) -0.2179 ( 41) -0.1214 ( 43)  0.2568 ( 45)
          -0.1203 ( 47)  0.1338 ( 48)  0.1669 ( 49) -0.1785 ( 52)  0.1115 ( 61)
          -0.1292 ( 71) -0.1023 ( 73) -0.1084 ( 78) -0.1388 ( 79)  0.1085 ( 81)
          -0.1007 ( 82) -0.1163 ( 86)  0.1119 ( 91) -0.1452 ( 93)  0.1021 (104)
 CRD 16=   0.1922 (  2)  0.3192 (  5)  0.1068 (  6)  0.1168 (  7)  0.1145 ( 11)
           0.1279 ( 13)  0.1660 ( 17) -0.1575 ( 18) -0.1226 ( 22)  0.1180 ( 24)
          -0.1293 ( 25)  0.1258 ( 26)  0.1745 ( 32)  0.1876 ( 34)  0.1258 ( 36)
          -0.1930 ( 37) -0.2487 ( 39)  0.3412 ( 40) -0.1196 ( 43) -0.1984 ( 46)
           0.1442 ( 47) -0.1133 ( 50)  0.1427 ( 51) -0.1154 ( 59)  0.1135 ( 72)
           0.1211 ( 76)  0.1184 ( 77)  0.1154 ( 79)  0.1339 ( 85)
 CRD 17=   0.1961 (  2)  0.1258 (  7)  0.2566 ( 10)  0.1197 ( 15)  0.1103 ( 16)
          -0.1076 ( 21)  0.2441 ( 23) -0.1593 ( 24) -0.1135 ( 26) -0.1118 ( 32)
          -0.1427 ( 34)  0.1755 ( 35)  0.2044 ( 36) -0.1692 ( 38)  0.1452 ( 43)
          -0.3270 ( 45)  0.1138 ( 46)  0.3173 ( 47) -0.1152 ( 48)  0.1572 ( 49)
          -0.1981 ( 60)  0.1947 ( 62)  0.1174 ( 65) -0.1328 ( 82)
 CRD 18=   0.1320 (  4) -0.1183 ( 14) -0.1486 ( 15) -0.2225 ( 26)  0.2488 ( 27)
           0.2396 ( 29)  0.2249 ( 30) -0.1241 ( 32) -0.1150 ( 33) -0.1888 ( 37)
           0.1140 ( 38)  0.1302 ( 41) -0.1113 ( 42)  0.1242 ( 43) -0.2048 ( 44)
           0.1832 ( 45) -0.2576 ( 47) -0.2350 ( 48)  0.1671 ( 49) -0.1451 ( 50)
           0.1512 ( 60) -0.1230 ( 63) -0.1584 ( 64)  0.1119 ( 65) -0.1360 ( 67)
          -0.1042 ( 68)  0.1120 ( 70)  0.1384 ( 71)  0.1096 ( 77) -0.1103 ( 82)
 CRD 19=   0.1504 (  2)  0.1658 (  4) -0.1305 (  5)  0.1080 (  7) -0.1339 (  8)
          -0.1816 (  9)  0.2163 ( 24)  0.1494 ( 27) -0.2024 ( 29)  0.2022 ( 30)
           0.1677 ( 31) -0.1230 ( 33)  0.1667 ( 34) -0.2305 ( 35) -0.1271 ( 36)
           0.1423 ( 37) -0.1197 ( 38)  0.1405 ( 41) -0.1032 ( 42) -0.2348 ( 43)
          -0.1154 ( 45)  0.1552 ( 46) -0.1334 ( 48)  0.1327 ( 49)  0.2186 ( 50)
           0.1129 ( 55) -0.1025 ( 60)  0.1012 ( 67)  0.1072 ( 70)  0.1147 ( 71)
          -0.1345 ( 73) -0.1672 ( 74) -0.1843 ( 75)  0.1285 ( 81) -0.1112 ( 82)
          -0.1033 ( 85)
 CRD 20=   0.1530 (  1)  0.1641 (  2)  0.1487 (  5)  0.2379 (  6) -0.2001 ( 11)
          -0.1697 ( 12) -0.1543 ( 13) -0.1843 ( 17)  0.1926 ( 18)  0.1703 ( 24)
           0.2416 ( 25) -0.1284 ( 26) -0.1141 ( 28)  0.1159 ( 30)  0.1049 ( 32)
           0.1972 ( 39) -0.3212 ( 40) -0.1153 ( 42)  0.1213 ( 44)  0.1049 ( 47)
          -0.1340 ( 48) -0.1087 ( 49)  0.1234 ( 52)  0.1451 ( 56) -0.1057 ( 62)
          -0.1357 ( 65)  0.1847 ( 73)  0.1258 ( 78)  0.1663 ( 79)
 CRD 21=   0.1109 (  1)  0.1024 (  3)  0.1946 (  4)  0.1048 (  8) -0.1077 (  9)
          -0.3032 ( 11)  0.4528 ( 12)  0.1785 ( 27) -0.1187 ( 28)  0.2570 ( 33)
          -0.1414 ( 41)  0.1597 ( 42) -0.3216 ( 63) -0.1474 ( 64)  0.1372 ( 66)
           0.1919 ( 82)  0.2867 ( 83)  0.1129 ( 86) -0.1142 (104)
 CRD 22=   0.1902 (  4)  0.2320 (  6) -0.4037 (  8)  0.3409 (  9)  0.1369 ( 12)
          -0.3006 ( 16) -0.1176 ( 22)  0.1742 ( 23)  0.1049 ( 35) -0.1408 ( 36)
           0.1090 ( 37) -0.1017 ( 44) -0.1498 ( 51) -0.1551 ( 61)  0.1539 ( 67)
           0.2193 ( 68)  0.1696 ( 69) -0.2391 ( 80) -0.1548 ( 81)
 CRD 23=   0.1051 (  6)  0.2436 (  9) -0.4163 ( 15)  0.4057 ( 16) -0.1443 ( 19)
           0.1526 ( 20)  0.1054 ( 23)  0.2455 ( 32)  0.1112 ( 44)  0.1384 ( 46)
          -0.1260 ( 47)  0.1085 ( 50) -0.1579 ( 51) -0.1041 ( 58)  0.1049 ( 59)
           0.1050 ( 67)  0.1250 ( 68)  0.1697 ( 72)  0.2125 ( 76)  0.1708 ( 77)
          -0.2733 ( 84) -0.1993 ( 85)
 CRD 24=   0.3873 (  1) -0.3346 (  4) -0.3381 (  6)  0.3924 (  7) -0.1907 (  8)
          -0.1716 ( 11) -0.1511 ( 44) -0.1465 ( 49)  0.1345 ( 62)  0.1785 ( 65)
          -0.1751 ( 70) -0.1366 ( 71) -0.1290 ( 74) -0.1224 ( 75)  0.1255 ( 78)
           0.1147 ( 79)
 CRD 25=   0.1536 ( 13)  0.6049 ( 17)  0.5132 ( 18) -0.2667 ( 39) -0.2001 ( 40)
           0.4668 ( 52)
 CRD 26=  -0.1761 ( 14) -0.5003 ( 19) -0.5033 ( 20) -0.4858 ( 21)  0.1953 ( 45)
           0.1784 ( 46)  0.1718 ( 47) -0.2045 ( 58) -0.1944 ( 59) -0.1813 ( 60)
 CRD 27=  -0.1054 ( 11)  0.1141 ( 12)  0.1189 ( 15) -0.1097 ( 16)  0.1229 ( 23)
          -0.1394 ( 24) -0.1156 ( 29)  0.1394 ( 30)  0.1009 ( 32) -0.1170 ( 33)
          -0.1288 ( 34)  0.1429 ( 35)  0.1303 ( 41) -0.1495 ( 42) -0.1288 ( 43)
           0.1379 ( 44)  0.1269 ( 48) -0.1264 ( 49) -0.1149 ( 50)  0.1193 ( 51)
          -0.1296 ( 63) -0.1004 ( 64) -0.1196 ( 86) -0.1234 ( 87) -0.1635 ( 88)
          -0.1690 ( 89) -0.1536 ( 90) -0.1532 ( 91) -0.1782 ( 92) -0.1654 ( 93)
          -0.1650 ( 94) -0.1726 ( 95) -0.1724 ( 96) -0.1662 ( 97) -0.1545 ( 98)
          -0.1607 ( 99) -0.1337 (100) -0.1311 (101) -0.1429 (102) -0.1403 (103)
          -0.1525 (104) -0.1488 (105)
 CRD 28=  -0.1237 (  1)  0.2431 (  4)  0.2002 (  6) -0.2002 (  7)  0.1998 (  8)
           0.1189 ( 16) -0.1252 ( 27)  0.1083 ( 29) -0.1245 ( 32) -0.1109 ( 36)
           0.1065 ( 48)  0.1206 ( 50) -0.1148 ( 51) -0.1324 ( 63) -0.1277 ( 64)
          -0.1033 ( 82) -0.1074 ( 83)  0.1041 ( 84) -0.2015 ( 86) -0.1783 ( 87)
          -0.1545 ( 90) -0.1585 ( 91) -0.1504 ( 93) -0.1544 ( 94)  0.1140 ( 96)
           0.1013 ( 97)  0.1115 ( 99)  0.1832 (100)  0.1836 (101)  0.1705 (102)
           0.1709 (103) -0.1829 (104) -0.2062 (105)  0.1205 (106)  0.1055 (107)
           0.1097 (108)  0.1060 (109)
 CRD 29=  -0.1565 ( 15) -0.1293 ( 16) -0.1598 ( 19) -0.4229 ( 20)  0.6113 ( 21)
           0.2280 ( 59) -0.3233 ( 60) -0.1902 ( 72)  0.1489 ( 77) -0.2047 (106)
           0.1344 (107) -0.1818 (109)  0.1574 (110)
 CRD 30=  -0.6088 ( 19)  0.4581 ( 20)  0.1471 ( 21)  0.3208 ( 58) -0.2455 ( 59)
          -0.2163 ( 76)  0.1281 ( 77)  0.1328 (107) -0.2115 (108)  0.1413 (110)
          -0.2030 (111)
 CRD 31=   0.1711 (  4) -0.5891 ( 11) -0.5834 ( 12)  0.1065 ( 26) -0.2749 ( 56)
           0.1243 ( 70)  0.1080 ( 86) -0.1483 ( 87) -0.1359 ( 90) -0.1033 ( 93)
           0.1207 ( 94) -0.1431 (104)  0.1131 (105)
 CRD 32=   0.2203 (  1)  0.1855 (  4) -0.4453 (  6) -0.3466 (  7)  0.3011 (  8)
           0.3585 (  9) -0.2110 ( 15) -0.3135 ( 16) -0.1494 ( 54)  0.1289 ( 55)
          -0.1041 ( 57)  0.1049 ( 88)  0.1174 ( 96) -0.1299 ( 98) -0.1138 (102)
 CRD 33=  -0.4075 (  1) -0.3501 (  4)  0.1876 (  6)  0.2412 (  7)  0.2359 (  8)
          -0.1061 ( 11) -0.3717 ( 15) -0.3828 ( 16) -0.1479 ( 53) -0.1533 ( 57)
          -0.1078 ( 88)  0.1013 ( 92)  0.1175 (101)
 CRD 34=   0.3962 (  1)  0.4092 (  4)  0.2928 (  6)  0.3220 (  7) -0.1407 (  9)
           0.1081 ( 11) -0.2983 ( 15) -0.2328 ( 16)  0.1830 ( 53)  0.1482 ( 54)
          -0.1097 ( 57)  0.1365 ( 89)  0.1006 ( 93)
 CRD 35=   0.1770 (  6)  0.3263 (  7)  0.4333 (  8)  0.4654 (  9)  0.3256 ( 15)
           0.1710 ( 16)  0.1228 ( 54)  0.2024 ( 55)  0.1085 ( 57) -0.1523 ( 97)
           0.1175 ( 99) -0.1630 (103)
 CRD 36=   0.2529 (  1) -0.1506 (  4)  0.1028 (  6)  0.2713 (  8) -0.2717 (  9)
          -0.1288 ( 11)  0.1081 ( 12) -0.1021 ( 62)  0.1435 ( 63)  0.1269 ( 64)
          -0.1019 ( 74)  0.1934 ( 86)  0.1932 ( 87) -0.1665 ( 88) -0.1547 ( 89)
          -0.1663 ( 92) -0.1781 ( 95) -0.1022 ( 96) -0.1134 ( 97) -0.1119 ( 98)
          -0.1007 ( 99)  0.1112 (100)  0.1098 (101)  0.1266 (102)  0.1252 (103)
           0.2099 (104)  0.2101 (105)  0.1429 (106)  0.1400 (107)  0.1172 (108)
           0.1475 (109)  0.1446 (110)  0.1218 (111)
 CRD 37=  -0.1190 (  1)  0.1065 (  4) -0.2335 (  6)  0.2318 (  7)  0.1595 (  8)
          -0.1758 (  9)  0.2127 ( 11) -0.1883 ( 12)  0.1807 ( 15) -0.1573 ( 16)
          -0.1422 ( 63) -0.1139 ( 65)  0.1032 ( 72)  0.1009 ( 77) -0.1190 ( 80)
          -0.1190 ( 81) -0.1275 ( 86) -0.1246 ( 87)  0.1219 ( 88)  0.1124 ( 89)
           0.1175 ( 90)  0.1171 ( 92)  0.1266 ( 95) -0.1846 ( 96) -0.1628 ( 97)
          -0.1629 ( 98) -0.1846 ( 99) -0.1814 (104) -0.1843 (105)  0.1646 (106)
           0.1623 (107)  0.1582 (108)  0.1542 (109)  0.1520 (110)  0.1478 (111)
 CRD 38=   0.2849 (  1) -0.2882 (  4)  0.2286 (  6) -0.2215 (  7)  0.2663 ( 11)
          -0.2522 ( 12) -0.2073 ( 63) -0.1051 ( 64)  0.1436 ( 70)  0.1036 ( 71)
          -0.1155 ( 75) -0.1040 ( 78) -0.1023 ( 79)  0.1054 ( 82)  0.1540 ( 83)
          -0.1194 ( 86) -0.1496 ( 87) -0.1394 ( 88) -0.1411 ( 89)  0.1931 ( 90)
           0.2330 ( 91) -0.1237 ( 92)  0.1445 ( 93)  0.1844 ( 94) -0.1220 ( 95)
          -0.2518 (104) -0.2216 (105)
 CRD 39=  -0.1342 (  6)  0.1276 (  7)  0.1860 (  8) -0.1773 (  9) -0.2890 ( 15)
           0.2909 ( 16)  0.1199 ( 67)  0.1632 ( 68)  0.1098 ( 69) -0.1492 ( 72)
          -0.1878 ( 76) -0.1571 ( 77) -0.1355 ( 80)  0.1747 ( 84)  0.1242 ( 85)
          -0.1047 ( 97) -0.1549 ( 98) -0.1421 ( 99)  0.2280 (100)  0.1848 (101)
           0.1776 (102)  0.1343 (103) -0.1693 (106) -0.1772 (107) -0.2079 (108)
          -0.1942 (109) -0.2022 (110) -0.2328 (111)
 CRD 40=  -0.1009 (  3)  0.1670 ( 11)  0.5024 ( 18)  0.1892 ( 26)  0.2052 ( 27)
           0.1360 ( 33)  0.1159 ( 35)  0.1151 ( 39)  0.1896 ( 40) -0.1407 ( 41)
          -0.1450 ( 42) -0.1313 ( 48) -0.1815 ( 49) -0.3063 ( 52) -0.1062 ( 70)
          -0.1454 ( 74) -0.1027 ( 78)  0.2191 ( 86)  0.1167 ( 90) -0.2179 ( 92)
          -0.1246 ( 94) -0.1061 ( 95) -0.1183 (104)  0.1132 (105)
 CRD 41=   0.1694 (  3) -0.1328 (  8)  0.1583 (  9)  0.1021 ( 13) -0.3034 ( 18)
          -0.1784 ( 20) -0.2284 ( 21) -0.1252 ( 23) -0.1163 ( 32) -0.1423 ( 36)
          -0.1308 ( 37) -0.1396 ( 40)  0.1211 ( 44) -0.1749 ( 45) -0.1566 ( 46)
          -0.1313 ( 47)  0.1306 ( 50)  0.1692 ( 51)  0.1996 ( 52)  0.2238 ( 58)
           0.1548 ( 59)  0.1127 ( 60) -0.1335 ( 65) -0.1105 ( 68)  0.1015 ( 84)
          -0.1150 ( 92) -0.1186 ( 93) -0.1563 ( 96)  0.1660 (101) -0.1061 (102)
           0.1013 (106)  0.1483 (107)
 CRD 42=   0.1649 (  3) -0.1553 ( 10)  0.1594 ( 11) -0.1053 ( 12)  0.1335 ( 13)
          -0.1792 ( 14) -0.2221 ( 18)  0.1726 ( 19)  0.1491 ( 20)  0.2333 ( 21)
          -0.1145 ( 23)  0.1187 ( 30)  0.1241 ( 34)  0.1320 ( 35)  0.1022 ( 37)
          -0.1221 ( 40) -0.1137 ( 42)  0.1906 ( 45)  0.1672 ( 46)  0.1750 ( 47)
          -0.1293 ( 50) -0.1008 ( 51)  0.1802 ( 52) -0.1974 ( 58) -0.2185 ( 59)
          -0.1508 ( 60)  0.1491 ( 86)  0.1191 ( 88) -0.1311 ( 92) -0.1722 ( 93)
           0.1305 (100) -0.1527 (103)
 CRD 43=   0.2064 ( 12)  0.2403 ( 13) -0.6835 ( 17)  0.3106 ( 18) -0.3233 ( 39)
           0.2604 ( 52) -0.1602 ( 56)  0.1266 ( 70) -0.1391 ( 87)  0.1139 ( 94)
 CRD 44=  -0.1720 (  2)  0.1112 (  4)  0.2726 ( 11) -0.2117 ( 12)  0.1421 ( 13)
           0.1253 ( 14)  0.1528 ( 15) -0.1098 ( 17) -0.1350 ( 19)  0.1082 ( 23)
           0.1182 ( 27)  0.1277 ( 29)  0.1406 ( 32) -0.1115 ( 34) -0.1289 ( 44)
           0.1026 ( 59) -0.2179 ( 63)  0.1659 ( 64) -0.1217 ( 70) -0.1446 ( 71)
          -0.1220 ( 84)  0.3429 ( 86)  0.2718 ( 87) -0.1457 ( 93) -0.1228 ( 94)
           0.1170 ( 96)  0.1219 (103) -0.1121 (104) -0.1163 (106) -0.1387 (107)
 CRD 45=   0.1415 (  3) -0.1170 (  4) -0.2638 (  5)  0.1487 (  6) -0.1442 (  7)
           0.1003 ( 12)  0.2290 ( 14)  0.1161 ( 15)  0.1104 ( 17) -0.1201 ( 18)
          -0.1635 ( 19) -0.1180 ( 24)  0.1114 ( 32)  0.1177 ( 34)  0.1127 ( 36)
          -0.1801 ( 41) -0.1487 ( 43) -0.1169 ( 44) -0.1008 ( 57)  0.1568 ( 60)
           0.1586 ( 63)  0.1151 ( 65)  0.1276 ( 75) -0.1112 ( 81) -0.1241 ( 86)
          -0.1880 ( 87)  0.2351 ( 88)  0.1530 ( 89) -0.2199 ( 97) -0.1185 ( 98)
           0.1252 (105) -0.1830 (107) -0.1082 (108)
 CRD 46=  -0.1472 (  2)  0.2242 (  8) -0.1033 (  9)  0.1030 ( 13)  0.1125 ( 15)
          -0.2796 ( 16) -0.1398 ( 18)  0.2478 ( 20) -0.1388 ( 21) -0.1800 ( 37)
          -0.1134 ( 40) -0.1029 ( 41)  0.1320 ( 43) -0.1369 ( 54) -0.1012 ( 55)
           0.1392 ( 57)  0.1533 ( 59) -0.1371 ( 60)  0.1386 ( 62)  0.1235 ( 68)
           0.1306 ( 76) -0.1423 ( 87)  0.1304 ( 88) -0.1301 ( 92)  0.2110 ( 97)
           0.1030 (105) -0.1094 (106)  0.1181 (108) -0.3167 (109) -0.1661 (110)
 CRD 47=   0.1799 (  5)  0.1063 (  6)  0.1264 (  8) -0.2426 (  9) -0.2823 ( 10)
           0.3855 ( 14) -0.1307 ( 19) -0.1489 ( 20) -0.2034 ( 29)  0.1541 ( 43)
          -0.1093 ( 45) -0.1464 ( 50) -0.1535 ( 54)  0.1765 ( 60) -0.1880 ( 85)
           0.1242 ( 96)  0.1746 ( 97) -0.1416 (102) -0.3065 (103)  0.1152 (109)
 CRD 48=   0.2363 (  1)  0.1890 (  3) -0.1183 (  4)  0.1068 (  6) -0.1196 (  7)
          -0.4109 ( 13)  0.2231 ( 18)  0.1018 ( 20) -0.1409 ( 26)  0.1095 ( 34)
           0.1813 ( 40)  0.2196 ( 48)  0.1611 ( 49) -0.1640 ( 52) -0.1006 ( 53)
          -0.1107 ( 71) -0.1177 ( 82)  0.1541 ( 87)  0.1130 ( 88) -0.1622 ( 90)
           0.1569 ( 92) -0.2699 ( 93)  0.2048 ( 95) -0.1454 (109)
 CRD 49=   0.1591 (  3)  0.1474 (  4) -0.1674 (  6)  0.1608 (  7) -0.1923 ( 10)
          -0.1126 ( 13)  0.1991 ( 15)  0.1285 ( 18) -0.2363 ( 19)  0.1036 ( 21)
          -0.1167 ( 23) -0.1357 ( 27)  0.1195 ( 35)  0.1326 ( 36)  0.1300 ( 40)
           0.1200 ( 48)  0.1050 ( 56) -0.1559 ( 58)  0.1000 ( 60)  0.1523 ( 76)
           0.1288 ( 80)  0.1106 ( 83) -0.1508 ( 86) -0.1173 ( 88) -0.1939 ( 89)
           0.1032 ( 91) -0.1366 ( 92)  0.1662 ( 98)  0.1169 (103)  0.1512 (104)
          -0.1287 (106) -0.2505 (107) -0.1229 (110)  0.1156 (111)
 CRD 50=  -0.3965 (  2)  0.1600 (  3)  0.1007 (  4)  0.1456 (  5) -0.1112 ( 13)
          -0.1338 ( 20)  0.1541 ( 24)  0.1933 ( 30)  0.1618 ( 33) -0.1346 ( 34)
          -0.1404 ( 42)  0.1112 ( 48) -0.1338 ( 53)  0.1785 ( 63) -0.1302 ( 64)
          -0.1282 ( 76) -0.1095 ( 79)  0.2113 ( 83) -0.1238 ( 86) -0.1404 ( 87)
          -0.1112 ( 88)  0.1083 ( 90)  0.1967 ( 91) -0.1796 ( 93) -0.1535 ( 95)
           0.1307 ( 97) -0.1292 (101)  0.1683 (104)  0.1849 (105)
 CRD 51=   0.1115 (  1) -0.1001 (  3) -0.1716 (  4)  0.1512 (  9) -0.1744 ( 10)
           0.1769 ( 12) -0.1162 ( 13) -0.1575 ( 14)  0.1183 ( 15) -0.1372 ( 19)
           0.2410 ( 21)  0.1031 ( 24)  0.1218 ( 39) -0.1205 ( 55) -0.2036 ( 56)
          -0.1480 ( 57) -0.1446 ( 58)  0.1380 ( 60) -0.1816 ( 65) -0.1097 ( 68)
           0.1655 ( 70)  0.1150 ( 72) -0.1377 ( 77) -0.1170 ( 83)  0.1492 ( 86)
           0.1107 ( 89) -0.1661 ( 90) -0.1080 ( 93) -0.1117 ( 96) -0.1654 ( 99)
           0.1056 (101)  0.1537 (103) -0.1829 (104) -0.2005 (107)  0.1411 (109)
          -0.1115 (110)
 CRD 52=  -0.1639 (  1)  0.2943 (  3) -0.2201 (  5)  0.1117 (  6)  0.1701 (  7)
           0.1076 ( 10) -0.1456 ( 14)  0.1061 ( 19) -0.1289 ( 20) -0.1079 ( 26)
           0.1056 ( 29) -0.1102 ( 44)  0.1091 ( 49)  0.2027 ( 53) -0.2158 ( 54)
          -0.1319 ( 59) -0.1095 ( 68) -0.1064 ( 74)  0.1255 ( 75) -0.1323 ( 76)
           0.1066 ( 79) -0.1382 ( 80) -0.1089 ( 84)  0.1389 ( 87)  0.1882 ( 88)
          -0.2372 ( 92)  0.1190 ( 94)  0.1589 ( 96)  0.1219 ( 97) -0.1077 ( 98)
          -0.1767 (100) -0.1597 (105)
 CRD 53=  -0.1601 (  2)  0.1602 (  5)  0.1705 (  6) -0.1114 (  9)  0.1035 ( 10)
          -0.1654 ( 12)  0.1355 ( 13) -0.2184 ( 14) -0.1534 ( 19)  0.1818 ( 21)
           0.1178 ( 23) -0.1036 ( 32) -0.1317 ( 37)  0.1218 ( 47)  0.1652 ( 51)
           0.1394 ( 55)  0.1462 ( 56) -0.1608 ( 58)  0.1070 ( 65) -0.1118 ( 68)
          -0.1616 ( 70)  0.1130 ( 76) -0.1206 ( 77) -0.1564 ( 80)  0.1149 ( 84)
          -0.1004 ( 86)  0.1145 ( 90) -0.1722 ( 94) -0.1506 ( 98)  0.1890 (101)
          -0.2217 (102)  0.1609 (104)  0.1095 (106)  0.1361 (108) -0.1655 (110)
 CRD 54=  -0.1326 (  2)  0.1850 (  3)  0.2039 (  5) -0.1917 (  8)  0.1220 ( 16)
           0.2226 ( 20) -0.1608 ( 21)  0.1057 ( 23)  0.1160 ( 24) -0.1420 ( 34)
           0.1139 ( 45) -0.1491 ( 46) -0.1434 ( 50)  0.1167 ( 53)  0.1245 ( 55)
           0.1695 ( 59) -0.1161 ( 60) -0.1371 ( 62) -0.1180 ( 68) -0.1760 ( 72)
           0.1324 ( 75)  0.1322 ( 76)  0.1250 ( 81)  0.1999 ( 84)  0.1520 ( 89)
          -0.1843 ( 95) -0.1686 ( 98)  0.1137 (101) -0.2130 (106)  0.1780 (110)
           0.2618 (111)
 CRD 55=   0.2292 (  3) -0.1233 (  4)  0.1318 (  5) -0.1701 (  7) -0.1901 ( 11)
           0.1070 ( 13) -0.1415 ( 22) -0.1274 ( 25) -0.1028 ( 35) -0.1512 ( 41)
           0.1091 ( 53)  0.1734 ( 54)  0.1688 ( 56)  0.1064 ( 57)  0.1574 ( 64)
           0.1504 ( 71) -0.1226 ( 73) -0.1532 ( 74) -0.1680 ( 79) -0.1154 ( 83)
           0.1736 ( 87)  0.2809 ( 89) -0.1164 ( 91)  0.1120 ( 93) -0.1986 ( 95)
          -0.1850 ( 96)  0.1198 ( 98)  0.1268 (102) -0.2301 (105)  0.1003 (106)
          -0.1164 (110)
 CRD 56=   0.1045 (  1)  0.1118 (  6)  0.1157 (  9) -0.3063 ( 10) -0.1231 ( 12)
           0.1340 ( 13)  0.1564 ( 15)  0.1382 ( 19) -0.1366 ( 21) -0.1032 ( 25)
           0.1282 ( 38)  0.1373 ( 45) -0.1144 ( 47) -0.1265 ( 55)  0.1144 ( 56)
          -0.1787 ( 57) -0.1084 ( 60)  0.1133 ( 62)  0.1087 ( 71) -0.1663 ( 73)
           0.1590 ( 77) -0.1011 ( 78) -0.1404 ( 91) -0.1791 ( 94)  0.1278 ( 95)
          -0.1250 ( 96) -0.2062 ( 99)  0.1213 (103) -0.2406 (106) -0.2278 (108)
           0.2670 (110)
 CRD 57=  -0.1360 (  5)  0.1778 (  9)  0.1216 ( 11) -0.1506 ( 12)  0.1275 ( 14)
          -0.1730 ( 15) -0.1026 ( 19)  0.1100 ( 27)  0.1134 ( 29)  0.1106 ( 31)
          -0.1458 ( 38) -0.1249 ( 43) -0.1090 ( 49) -0.1048 ( 55)  0.1345 ( 57)
          -0.2526 ( 64)  0.1657 ( 66) -0.2445 ( 67) -0.1489 ( 77)  0.1466 ( 81)
           0.1755 ( 82)  0.2249 ( 85) -0.1382 ( 90) -0.1798 ( 91) -0.1664 ( 99)
          -0.1795 (101)  0.2057 (102)  0.1677 (104)  0.1591 (105)  0.1039 (106)
           0.1871 (108)
 CRD 58=  -0.1533 (  1)  0.1671 (  2)  0.1445 (  5) -0.1030 (  7)  0.1741 ( 11)
          -0.1033 ( 12)  0.1273 ( 15) -0.1429 ( 26) -0.1779 ( 28)  0.1160 ( 48)
           0.1586 ( 53) -0.2808 ( 64)  0.1011 ( 66)  0.1013 ( 67) -0.1669 ( 71)
           0.1378 ( 72) -0.1303 ( 74)  0.1439 ( 77)  0.1295 ( 78)  0.2887 ( 82)
          -0.1692 ( 85)  0.1495 ( 89) -0.2172 ( 90) -0.1162 ( 91)  0.1216 ( 94)
          -0.1566 ( 95)  0.1408 (101)  0.1483 (104)  0.1911 (105) -0.1562 (108)
          -0.1247 (111)
 CRD 59=   0.1504 (  2)  0.2047 (  8) -0.1043 (  9)  0.1988 ( 16) -0.1369 ( 22)
           0.1317 ( 32) -0.1505 ( 36) -0.1515 ( 44) -0.1011 ( 46)  0.1228 ( 51)
           0.1036 ( 54) -0.1680 ( 61)  0.1114 ( 62)  0.1536 ( 67)  0.2908 ( 69)
          -0.2159 ( 72) -0.1638 ( 77) -0.2561 ( 81)  0.1116 ( 85)  0.2099 ( 98)
           0.1393 ( 99) -0.2853 (100) -0.1435 (101) -0.1673 (102)  0.1201 (108)
           0.1975 (111)
 CRD 60=  -0.1547 (  1)  0.1726 (  4)  0.1750 (  6) -0.1544 (  7)  0.1406 ( 23)
          -0.1429 ( 24)  0.1093 ( 25) -0.1381 ( 30)  0.1350 ( 31)  0.1445 ( 33)
           0.1171 ( 34) -0.1156 ( 35)  0.1079 ( 41) -0.1200 ( 42)  0.1988 ( 61)
           0.2571 ( 62) -0.2213 ( 66) -0.2312 ( 71) -0.2442 ( 74) -0.2548 ( 75)
           0.2350 ( 78)  0.2534 ( 79)  0.1870 ( 91)  0.1666 ( 94) -0.1685 ( 96)
          -0.1870 ( 99)

 THE DETERMINANT OF THE G MATRIX IS 10**(   -23)


                     --------------------
                     INTERNAL COORDINATES
                     --------------------

                 - - ATOMS - -         COORDINATE      COORDINATE
 NO.   TYPE    I  J  K  L  M  N        (BOHR,RAD)       (ANG,DEG)
 ----------------------------------------------------------------
   1 STRETCH   1  9                     2.0956164       1.1089525
   2 STRETCH   1  2                     2.8744782       1.5211085
   3 STRETCH   1  4                     2.8690046       1.5182119
   4 STRETCH   1 10                     2.0949679       1.1086093
   5 STRETCH   2  3                     2.8769121       1.5223964
   6 STRETCH   2 11                     2.1067279       1.1148325
   7 STRETCH   2 12                     2.0924384       1.1072708
   8 STRETCH   3 14                     2.0942435       1.1082260
   9 STRETCH   3 13                     2.0940887       1.1081441
  10 STRETCH   3  5                     2.8765397       1.5221994
  11 STRETCH   4 15                     2.0956804       1.1089864
  12 STRETCH   4 16                     2.0958012       1.1090503
  13 STRETCH   4  6                     2.8481923       1.5071986
  14 STRETCH   5  7                     2.8586482       1.5127316
  15 STRETCH   5 18                     2.0926868       1.1074022
  16 STRETCH   5 17                     2.0952011       1.1087328
  17 STRETCH   6  8                     2.2850705       1.2092073
  18 STRETCH   6 19                     2.0855208       1.1036102
  19 STRETCH   7 22                     2.0845548       1.1030990
  20 STRETCH   7 21                     2.0743800       1.0977147
  21 STRETCH   7 20                     2.0718620       1.0963823
  22 BEND      1  2  3                  1.9606675     112.3379720
  23 BEND      1  2 12                  1.9107318     109.4768689
  24 BEND      1  2 11                  1.9261943     110.3628046
  25 BEND      1  4  6                  2.0220838     115.8568700
  26 BEND      1  4 15                  1.9165280     109.8089640
  27 BEND      1  4 16                  1.9210276     110.0667740
  28 BEND      2  1  4                  1.9557838     112.0581561
  29 BEND      2  3 14                  1.9072867     109.2794771
  30 BEND      2  1 10                  1.9213367     110.0844845
  31 BEND      2  3  5                  1.9641819     112.5393320
  32 BEND      2  3 13                  1.9227406     110.1649209
  33 BEND      2  1  9                  1.9124379     109.5746204
  34 BEND      3  2 12                  1.9132012     109.6183533
  35 BEND      3  2 11                  1.8999420     108.8586561
  36 BEND      3  5 17                  1.9174045     109.8591863
  37 BEND      3  5 18                  1.9125173     109.5791709
  38 BEND      3  5  7                  1.9504810     111.7543292
  39 BEND      4  6 19                  2.0171455     115.5739266
  40 BEND      4  6  8                  2.1830149     125.0775390
  41 BEND      4  1  9                  1.9031604     109.0430579
  42 BEND      4  1 10                  1.9232052     110.1915432
  43 BEND      5  3 13                  1.9148379     109.7121276
  44 BEND      5  3 14                  1.9068160     109.2525118
  45 BEND      5  7 20                  1.9495676     111.7019951
  46 BEND      5  7 21                  1.9491719     111.6793210
  47 BEND      5  7 22                  1.9265826     110.3850495
  48 BEND      6  4 16                  1.8898152     108.2784362
  49 BEND      6  4 15                  1.8610497     106.6302912
  50 BEND      7  5 17                  1.9175448     109.8672228
  51 BEND      7  5 18                  1.9201788     110.0181412
  52 BEND      8  6 19                  2.0828726     119.3398099
  53 BEND      9  1 10                  1.8445149     105.6829163
  54 BEND     11  2 12                  1.8497881     105.9850490
  55 BEND     13  3 14                  1.8440365     105.6555114
  56 BEND     15  4 16                  1.8442916     105.6701259
  57 BEND     17  5 18                  1.8426842     105.5780294
  58 BEND     20  7 21                  1.8778008     107.5900595
  59 BEND     20  7 22                  1.8855838     108.0359960
  60 BEND     21  7 22                  1.8720043     107.2579465
  61 TORSION   1  2  3  5              -1.4234692     -81.5587788
  62 TORSION   1  2  3 13               0.7194803      41.2231844
  63 TORSION   1  4  6 19              -2.9187161    -167.2301134
  64 TORSION   1  4  6  8               0.2418404      13.8564356
  65 TORSION   1  2  3 14               2.7381049     156.8818556
  66 TORSION   2  1  4  6               1.3243730      75.8809844
  67 TORSION   2  3  5 17               1.0299941      59.0143161
  68 TORSION   2  3  5 18               3.0469669     174.5783465
  69 TORSION   2  3  5  7              -1.1031429     -63.2054335
  70 TORSION   2  1  4 15              -2.8497997    -163.2814970
  71 TORSION   2  1  4 16              -0.8265008     -47.3550066
  72 TORSION   3  5  7 22               0.9308853      53.3357965
  73 TORSION   3  2  1  4              -3.1383314    -179.8131424
  74 TORSION   3  2  1 10              -0.9915104     -56.8093618
  75 TORSION   3  2  1  9               1.0298652      59.0069312
  76 TORSION   3  5  7 20               3.0291997     173.5603604
  77 TORSION   3  5  7 21              -1.1500613     -65.8936600
  78 TORSION   4  1  2 11               1.0210333      58.5008991
  79 TORSION   4  1  2 12              -1.0085242     -57.7841815
  80 TORSION   5  3  2 12               2.7313127     156.4926877
  81 TORSION   5  3  2 11               0.7152554      40.9811157
  82 TORSION   6  4  1 10              -0.8213918     -47.0622822
  83 TORSION   6  4  1  9              -2.8384843    -162.6331682
  84 TORSION   7  5  3 13               3.0326630     173.7587916
  85 TORSION   7  5  3 14               1.0187360      58.3692723
  86 TORSION   8  6  4 16               2.4089866     138.0247650
  87 TORSION   8  6  4 15              -1.8967624    -108.6764784
  88 TORSION   9  1  2 12              -3.1235129    -178.9641079
  89 TORSION   9  1  2 11              -1.0939554     -62.6790274
  90 TORSION   9  1  4 16               1.2938273      74.1308409
  91 TORSION   9  1  4 15              -0.7294717     -41.7956495
  92 TORSION  10  1  2 11              -3.1153310    -178.4953204
  93 TORSION  10  1  4 16              -2.9722656    -170.2982732
  94 TORSION  10  1  4 15               1.2876208      73.7752364
  95 TORSION  10  1  2 12               1.1382967      65.2195991
  96 TORSION  11  2  3 14              -1.4063558     -80.5782500
  97 TORSION  11  2  3 13               2.8582049     163.7630789
  98 TORSION  12  2  3 13              -1.4089231     -80.7253491
  99 TORSION  12  2  3 14               0.6097015      34.9333220
 100 TORSION  13  3  5 18               0.8995876      51.5425716
 101 TORSION  13  3  5 17              -1.1173852     -64.0214588
 102 TORSION  14  3  5 18              -1.1143395     -63.8469477
 103 TORSION  14  3  5 17              -3.1313123    -179.4109781
 104 TORSION  15  4  6 19               1.2258664      70.2369726
 105 TORSION  16  4  6 19              -0.7515699     -43.0617839
 106 TORSION  17  5  7 22              -1.2021714     -68.8793459
 107 TORSION  17  5  7 21               3.0000674     171.8911977
 108 TORSION  17  5  7 20               0.8961431      51.3452180
 109 TORSION  18  5  7 22               3.0595622     175.3000028
 110 TORSION  18  5  7 21               0.9786156      56.0705463
 111 TORSION  18  5  7 20              -1.1253086     -64.4754333

     ------------------------------------------
     THE POINT GROUP IS C1 , NAXIS= 1, ORDER= 1
     ------------------------------------------

     DIMENSIONS OF THE SYMMETRY SUBSPACES ARE
 A   =  236

 ..... DONE SETTING UP THE RUN .....
 STEP CPU TIME =     0.01 TOTAL CPU TIME =        0.0 (    0.0 MIN)
 TOTAL WALL CLOCK TIME=        0.0 SECONDS, CPU UTILIZATION IS  50.00%


          -----------------------------
          STATIONARY POINT LOCATION RUN
          -----------------------------

 OBTAINING INITIAL HESSIAN, HESS=GUESS   
 DIAGONAL GUESS HESSIAN IN INTERNAL COORDS IS
     1  0.3338     2  0.3736     3  0.3757     4  0.3341     5  0.3726
     6  0.3300     7  0.3349     8  0.3343     9  0.3344    10  0.3728
    11  0.3338    12  0.3338    13  0.3838    14  0.3797    15  0.3348
    16  0.3340    17  0.5531    18  0.3373    19  0.3377    20  0.3412
    21  0.3421    22  0.2497    23  0.2236    24  0.2231    25  0.2509
    26  0.2236    27  0.2236    28  0.2499    29  0.2234    30  0.2235
    31  0.2496    32  0.2235    33  0.2235    34  0.2235    35  0.2231
    36  0.2234    37  0.2235    38  0.2503    39  0.2246    40  0.2603
    41  0.2237    42  0.2237    43  0.2235    44  0.2235    45  0.2247
    46  0.2246    47  0.2243    48  0.2243    49  0.2243    50  0.2240
    51  0.2241    52  0.2318    53  0.2015    54  0.2013    55  0.2016
    56  0.2015    57  0.2016    58  0.2027    59  0.2024    60  0.2024
    61  0.2500    62  0.2500    63  0.2500    64  0.2500    65  0.2500
    66  0.2500    67  0.2500    68  0.2500    69  0.2500    70  0.2500
    71  0.2500    72  0.2500    73  0.2500    74  0.2500    75  0.2500
    76  0.2500    77  0.2500    78  0.2500    79  0.2500    80  0.2500
    81  0.2500    82  0.2500    83  0.2500    84  0.2500    85  0.2500
    86  0.2500    87  0.2500    88  0.2500    89  0.2500    90  0.2500
    91  0.2500    92  0.2500    93  0.2500    94  0.2500    95  0.2500
    96  0.2500    97  0.2500    98  0.2500    99  0.2500   100  0.2500
   101  0.2500   102  0.2500   103  0.2500   104  0.2500   105  0.2500
   106  0.2500   107  0.2500   108  0.2500   109  0.2500   110  0.2500
   111  0.2500
 TRANSFORMING HESSIAN TO SYMMETRY COORDINATES

          PARAMETERS CONTROLLING GEOMETRY SEARCH ARE
          METHOD =QA                  UPHESS =BFGS    
          NNEG   =         0          NFRZ   =         3
          NSTEP  =        50          IFOLOW =         1
          HESS   =GUESS               RESTAR =         F
          IHREP  =         0          HSSEND =         F
          NPRT   =         0          NPUN   =         0
          OPTTOL = 5.000E-04          RMIN   = 1.500E-03
          RMAX   = 1.000E-01          RLIM   = 7.000E-02
          DXMAX  = 3.000E-01          PURIFY =         F
          MOVIE  =         F          TRUPD  =         T
          TRMAX  = 5.000E-01          TRMIN  = 5.000E-02
          ITBMAT =         5          STPT   =         F
          STSTEP = 1.000E-02          PROJCT=          F
          FROZEN COORD(S)=   1   2   3


      ***** EQUILIBRIUM GEOMETRY LOCATED *****
            (SUBJECT TO   3 CONSTRAINT(S))
 COORDINATES OF ALL ATOMS ARE (ANGS)
   ATOM   CHARGE       X              Y              Z
 ------------------------------------------------------------
 C           6.0   3.1255972495   1.2379862985   4.4463838810
 C           6.0   2.7894981455   2.6403313300   3.9317001868
 C           6.0   1.3707543724   2.7999851423   3.3739013618
 C           6.0   4.5856950228   1.1013312957   4.8725101962
 C           6.0   1.0647581624   2.0114965344   2.0935261825
 C           6.0   4.9776737248   1.8447011352   6.1172541638
 C           6.0   1.9493600058   2.3807515596   0.9012511040
 O           8.0   4.2215734075   2.3622841460   6.8791729409
 H           1.0   2.9378242087   0.5000073716   3.6724589756
 H           1.0   2.4765662587   0.9865164923   5.2813019578
 H           1.0   3.5136883968   2.9184269688   3.1695771650
 H           1.0   2.9174821321   3.3515447946   4.7421176821
 H           1.0   0.6513305209   2.5146563587   4.1403556581
 H           1.0   1.2021875083   3.8579034113   3.1772181948
 H           1.0   4.8415512753   0.0598531110   5.0688086020
 H           1.0   5.2588940542   1.4191360479   4.0785921274
 H           1.0   1.1487562470   0.9439922751   2.2831283144
 H           1.0   0.0241773402   2.1876698949   1.8294920624
 H           1.0   6.0534776373   1.8716713324   6.3159133036
 H           1.0   1.6817888926   1.7944905643   0.0267237266
 H           1.0   1.8423880725   3.4324751087   0.6452708020
 H           1.0   2.9993503335   2.1957015221   1.1060638147


                     --------------------
                     INTERNAL COORDINATES
                     --------------------

                 - - ATOMS - -         COORDINATE      COORDINATE
 NO.   TYPE    I  J  K  L  M  N        (BOHR,RAD)       (ANG,DEG)
 ----------------------------------------------------------------
   1 STRETCH   1  9                     2.0517511       1.0857400
   2 STRETCH   1  2                     2.8934621       1.5311543
   3 STRETCH   1  4                     2.8858682       1.5271358
   4 STRETCH   1 10                     2.0541300       1.0869988
   5 STRETCH   2  3                     2.8965639       1.5327957
   6 STRETCH   2 11                     2.0550457       1.0874834
   7 STRETCH   2 12                     2.0518813       1.0858089
   8 STRETCH   3 14                     2.0582318       1.0891695
   9 STRETCH   3 13                     2.0583579       1.0892361
  10 STRETCH   3  5                     2.8997958       1.5345060
  11 STRETCH   4 15                     2.0602974       1.0902625
  12 STRETCH   4 16                     2.0566807       1.0883486
  13 STRETCH   4  6                     2.8381354       1.5018767
  14 STRETCH   5  7                     2.8909655       1.5298332
  15 STRETCH   5 18                     2.0558617       1.0879152
  16 STRETCH   5 17                     2.0550021       1.0874603
  17 STRETCH   6  8                     2.2519478       1.1916795
  18 STRETCH   6 19                     2.0679741       1.0943249
  19 STRETCH   7 22                     2.0516119       1.0856664
  20 STRETCH   7 21                     2.0554550       1.0877000
  21 STRETCH   7 20                     2.0528500       1.0863215
  22 BEND      1  2  3                  2.0052281     114.8911064
  23 BEND      1  2 12                  1.8998478     108.8532604
  24 BEND      1  2 11                  1.9003348     108.8811664
  25 BEND      1  4  6                  2.0225094     115.8812527
  26 BEND      1  4 15                  1.9391633     111.1058717
  27 BEND      1  4 16                  1.9409075     111.2058084
  28 BEND      2  1  4                  1.9666795     112.6824363
  29 BEND      2  3 14                  1.8861320     108.0674061
  30 BEND      2  1 10                  1.9166554     109.8162669
  31 BEND      2  3  5                  2.0204947     115.7658211
  32 BEND      2  3 13                  1.9049667     109.1465522
  33 BEND      2  1  9                  1.9229864     110.1790036
  34 BEND      3  2 12                  1.8886058     108.2091394
  35 BEND      3  2 11                  1.9120972     109.5550981
  36 BEND      3  5 17                  1.9214672     110.0919607
  37 BEND      3  5 18                  1.8860196     108.0609630
  38 BEND      3  5  7                  1.9942924     114.2645377
  39 BEND      4  6 19                  2.0033928     114.7859502
  40 BEND      4  6  8                  2.1886445     125.4000946
  41 BEND      4  1  9                  1.8790862     107.6637098
  42 BEND      4  1 10                  1.9133002     109.6240242
  43 BEND      5  3 13                  1.8973904     108.7124648
  44 BEND      5  3 14                  1.8939500     108.5153429
  45 BEND      5  7 20                  1.9334094     110.7761971
  46 BEND      5  7 21                  1.9389906     111.0959784
  47 BEND      5  7 22                  1.9509533     111.7813905
  48 BEND      6  4 16                  1.8740328     107.3741725
  49 BEND      6  4 15                  1.8362465     105.2091744
  50 BEND      7  5 17                  1.9051492     109.1570080
  51 BEND      7  5 18                  1.9016420     108.9560618
  52 BEND      8  6 19                  2.0909028     119.7999079
  53 BEND      9  1 10                  1.8618874     106.6782878
  54 BEND     11  2 12                  1.8515429     106.0855964
  55 BEND     13  3 14                  1.8538447     106.2174780
  56 BEND     15  4 16                  1.8391263     105.3741732
  57 BEND     17  5 18                  1.8495542     105.9716487
  58 BEND     20  7 21                  1.8840375     107.9473973
  59 BEND     20  7 22                  1.8734977     107.3435102
  60 BEND     21  7 22                  1.8800242     107.7174518
  61 TORSION   1  2  3  5              -1.1558594     -66.2258675
  62 TORSION   1  2  3 13               0.9909444      56.7769341
  63 TORSION   1  4  6 19              -2.9739798    -170.3964912
  64 TORSION   1  4  6  8               0.1915912      10.9773696
  65 TORSION   1  2  3 14               2.9998546     171.8790076
  66 TORSION   2  1  4  6               1.2193546      69.8638720
  67 TORSION   2  3  5 17               1.0961730      62.8060844
  68 TORSION   2  3  5 18               3.1086502     178.1125382
  69 TORSION   2  3  5  7              -1.0547987     -60.4355134
  70 TORSION   2  1  4 15              -2.9696366    -170.1476467
  71 TORSION   2  1  4 16              -0.9269338     -53.1093930
  72 TORSION   3  5  7 22               1.0582280      60.6319961
  73 TORSION   3  2  1  4               3.0510023     174.8095570
  74 TORSION   3  2  1 10              -1.0938985     -62.6757672
  75 TORSION   3  2  1  9               0.9520140      54.5463825
  76 TORSION   3  5  7 20              -3.1363871    -179.7017458
  77 TORSION   3  5  7 21              -1.0424381     -59.7273033
  78 TORSION   4  1  2 11               0.8994413      51.5341891
  79 TORSION   4  1  2 12              -1.1116599     -63.6934233
  80 TORSION   5  3  2 12               3.0006947     171.9271399
  81 TORSION   5  3  2 11               0.9894106      56.6890533
  82 TORSION   6  4  1 10              -0.9208127     -52.7586842
  83 TORSION   6  4  1  9              -2.9397759    -168.4367516
  84 TORSION   7  5  3 13               3.0775995     176.3334636
  85 TORSION   7  5  3 14               1.0685006      61.2205772
  86 TORSION   8  6  4 16               2.3726308     135.9417285
  87 TORSION   8  6  4 15              -1.9575803    -112.1610921
  88 TORSION   9  1  2 12               3.0725370     176.0434022
  89 TORSION   9  1  2 11              -1.1995471     -68.7289854
  90 TORSION   9  1  4 16               1.1971210      68.5899833
  91 TORSION   9  1  4 15              -0.8455818     -48.4482703
  92 TORSION  10  1  2 11               3.0377258     174.0488649
  93 TORSION  10  1  4 16              -3.0671011    -175.7319493
  94 TORSION  10  1  4 15               1.1733813      67.2297971
  95 TORSION  10  1  2 12               1.0266245      58.8212525
  96 TORSION  11  2  3 14              -1.1380606     -65.2060715
  97 TORSION  11  2  3 13               3.1362145     179.6918550
  98 TORSION  12  2  3 13              -1.1356868     -65.0700585
  99 TORSION  12  2  3 14               0.8732234      50.0320150
 100 TORSION  13  3  5 18               0.9578631      54.8815152
 101 TORSION  13  3  5 17              -1.0546141     -60.4249386
 102 TORSION  14  3  5 18              -1.0512357     -60.2313712
 103 TORSION  14  3  5 17              -3.0637130    -175.5378250
 104 TORSION  15  4  6 19               1.1600339      66.4650471
 105 TORSION  16  4  6 19              -0.7929403     -45.4321323
 106 TORSION  17  5  7 22              -1.1015367     -63.1134039
 107 TORSION  17  5  7 21               3.0809825     176.5272967
 108 TORSION  17  5  7 20               0.9870335      56.5528542
 109 TORSION  18  5  7 22              -3.1138549    -178.4107434
 110 TORSION  18  5  7 21               1.0686644      61.2299571
 111 TORSION  18  5  7 20              -1.0252847     -58.7444854

          INTERNUCLEAR DISTANCES (ANGS.)


 =====================================================
   GAMESS/COSab RESULTS
 =====================================================

   Dielectric Constant                  = INFTY
   Basic Grid Size                      =                 1082
   Number of Segments                   =                   92
   Number of Segments located on spheres=                  284
   Number of Segments of the cavity     =                  726
   Solvent Radius (rsolv)               = 1.40
   Outlying Charge Error Method         = double cavity

 =====================================================

  Total solvated Energy (a.u.)          =  -348.1856639741
  Total Energy corrected (a.u.)         =  -348.1853433857

  Outlying charge effect (a.u.)         =     0.0003205883
  Outlying charge effect (kcal/mol)     =     0.2011723925

  Dielectric Energy (a.u.)              =    -0.0126121012
  Dielectric energy corr. (a.u.)        =    -0.0122915129

  Sum of polarization charges           =     0.0261454567
  Sum of polarization charges(cor.)     =    -0.0261454567

  Total surface area of cavity (A**2)   =  172.76
  Total volume of cavity (A**3)         =  172.72

 =====================================================
 NPS=                   726
NR.  ATOM  (X, Y, Z)(a.u.)                  CHARGE(e)  AREA(A**2) SIGMA(e/A**2)
   1   1   5.561763  -1.319143   9.285670   0.000864   0.325193   0.002657
   2   1   2.810214   0.183604   8.624756   0.000985   0.232280   0.004242
   3   1   3.326361  -0.408557   8.127750   0.000414   0.092912   0.004453
   4   1   5.648465  -1.430767   8.346499   0.000542   0.278737   0.001943
   5   1   4.577073  -1.068504   9.352523   0.001116   0.278737   0.004005
   6   1   3.521745  -0.562729   8.820089   0.001402   0.278737   0.005029
   7   1   5.283349  -0.853427  10.326354   0.000519   0.278737   0.001861
   8   1   4.257216  -1.054020   8.622427   0.001160   0.278737   0.004162
   9   2   5.822217   8.567545   6.344293   0.000658   0.232280   0.002833
  10   2   3.467692   5.545161  10.704304   0.000052   0.046456   0.001122
  11   2   3.427808   5.943897  10.588088   0.000046   0.046456   0.000986
  12   2   8.199678   7.378923   7.428805   0.000849   0.185824   0.004570
  13   2   6.259781   8.242407   5.778804   0.000705   0.278737   0.002530
  14   2   6.429419   8.579665   7.197695   0.001455   0.325193   0.004473
  15   2   7.623532   7.929015   7.762831   0.001766   0.325193   0.005432
  16   2   5.477126   8.763326   7.419044   0.000771   0.278737   0.002768
  17   2   7.164531   8.222838   6.934094   0.001363   0.278737   0.004890
  18   3   1.848464   7.399422   9.423582   0.000598   0.185824   0.003218
  19   3  -0.510238   7.409314   6.804973   0.001771   0.371649   0.004766
  20   3  -0.588031   6.864123   7.682693   0.001424   0.278737   0.005108
  21   3   1.518569   6.773009   9.683288   0.000819   0.278737   0.002939
  22   3   1.308319   7.910870   8.779497   0.001499   0.325193   0.004609
  23   3   0.127344   7.703474   7.924561   0.001877   0.325193   0.005773
  24   3  -0.932976   6.658798   6.363867   0.001155   0.325193   0.003552
  25   3   2.248706   8.230932   8.726391   0.000790   0.278737   0.002834
  26   3  -0.515423   7.225829   5.429359   0.000692   0.232280   0.002979
  27   3  -1.144242   5.748598   6.733402   0.000673   0.232280   0.002899
  28   3   0.592032   7.437859   8.759626   0.001417   0.278737   0.005082
  29   4   9.152553  -0.208538   6.240522   0.000153   0.232280   0.000660
  30   4  11.977130   0.680646   8.042783   0.000467   0.325193   0.001437
  31   4  11.621705  -0.062094   8.231759   0.000320   0.232280   0.001376
  32   4   9.197846  -0.919925   6.972942   0.000024   0.325193   0.000073
  33   4   7.610792  -0.479440  11.779581  -0.000303   0.139368  -0.002175
  34   4  10.121164   0.009677   6.401547   0.000875   0.418105   0.002094
  35   4  11.283532   0.172402   7.261536   0.000673   0.278737   0.002414
  36   4  12.195402   0.730942   9.160820  -0.000158   0.232280  -0.000679
  37   4   9.233242   0.642808   5.759077  -0.000262   0.325193  -0.000805
  38   4  12.347541   1.411496   8.678795  -0.000103   0.185824  -0.000554
  39   4  11.930010   0.219980   9.613086  -0.000394   0.232280  -0.001697
  40   4  10.593503  -0.391881   7.097834   0.000537   0.278737   0.001928
  41   4   7.233705  -0.645513  11.398292  -0.000047   0.046456  -0.001004
  42   5  -0.511665   1.888253   6.019092   0.000730   0.232280   0.003143
  43   5  -0.579788   1.450831   2.527137   0.001541   0.325193   0.004738
  44   5   0.173591   6.973857   3.040603   0.000161   0.092912   0.001732
  45   5  -0.244080   6.794575   3.472936   0.000057   0.046456   0.001232
  46   5  -0.155652   0.824088   3.106493   0.001338   0.278737   0.004801
  47   5   0.011450   1.304538   5.968257   0.000792   0.278737   0.002840
  48   5  -1.031380   1.880023   5.109716   0.001461   0.325193   0.004492
  49   5  -0.902407   1.406459   3.721288   0.001792   0.325193   0.005510
  50   5   0.369911   1.101322   1.882983   0.001447   0.418105   0.003460
  51   5  -1.200376   2.714345   5.624435   0.000836   0.278737   0.003000
  52   5  -0.270055   2.123918   1.453635   0.001032   0.325193   0.003175
  53   5   0.041298   6.780074   2.720705   0.000104   0.046456   0.002241
  54   5   1.387824   0.659147   1.950670   0.000414   0.185824   0.002227
  55   5  -0.670493   1.236503   4.670577   0.001366   0.278737   0.004901
  56   6  11.631346   5.443820   9.214511  -0.001167   0.232280  -0.005025
  57   6  10.860838   6.896976  12.290767  -0.000318   0.278737  -0.001139
  58   6  11.018442   3.761669  14.967230  -0.000070   0.185824  -0.000376
  59   6  10.917327   0.634379  13.527121  -0.002480   0.371649  -0.006674
  60   6  11.763308   0.955497  13.085086  -0.001553   0.278737  -0.005571
  61   6  11.454800   4.091667  14.677882  -0.000463   0.232280  -0.001992
  62   6  11.718314   6.328860  12.485983  -0.001401   0.418105  -0.003352
  63   6  12.413627   4.743564   9.646910  -0.001417   0.185824  -0.007624
  64   6   7.619649   0.707954  13.396813  -0.000764   0.325193  -0.002348
  65   6  11.669195   5.985783   9.852519  -0.001997   0.325193  -0.006141
  66   6  11.331806   6.716419  11.183707  -0.001848   0.418105  -0.004420
  67   6  11.147380   6.325088  13.346793   0.000255   0.232280   0.001098
  68   6  11.324828   5.110910  14.381925  -0.000074   0.185824  -0.000400
  69   6  10.854930   2.734701  14.968992  -0.000392   0.418105  -0.000939
  70   6  10.993045   1.488254  14.348481  -0.002037   0.464561  -0.004384
  71   6  11.493348   0.447938  12.396222  -0.001443   0.278737  -0.005178
  72   6  10.736878   6.176225   9.262794  -0.002511   0.278737  -0.009007
  73   6   9.750392   7.135672  10.640291  -0.001096   0.232280  -0.004717
  74   6  10.237540   7.166398  11.340637  -0.000895   0.371649  -0.002408
  75   6   8.595391   0.909868  14.203800  -0.000736   0.371649  -0.001981
  76   6   9.761254   0.766273  14.160222  -0.001983   0.371649  -0.005337
  77   6   9.966335   0.215293  13.369172  -0.002230   0.278737  -0.008000
  78   6  11.573412   2.254639  14.401108  -0.000984   0.232280  -0.004237
  79   6  11.593878   5.621469  13.782336  -0.000279   0.139368  -0.002005
  80   6  12.040681   6.050777  10.684191  -0.001998   0.371649  -0.005377
  81   6  12.216992   0.959380  11.597138  -0.001362   0.185824  -0.007332
  82   6   8.646119   0.253438  13.364588  -0.002402   0.371649  -0.006464
  83   6  10.527051   6.750558  10.020101  -0.002839   0.418105  -0.006791
  84   6   9.803199   1.657948  14.843997  -0.000696   0.418105  -0.001665
  85   7   6.516545   6.838901   0.817534   0.001751   0.325193   0.005386
  86   7   4.811121   0.909266   1.346157   0.001001   0.325193   0.003079
  87   7   0.517061   5.409450  -0.148177   0.000766   0.232280   0.003297
  88   7   3.692682   6.161064  -1.691231   0.001920   0.418105   0.004593
  89   7   6.436042   3.560052  -0.710938   0.001562   0.371649   0.004202
  90   7   5.760553   7.600125   2.298053   0.000395   0.092912   0.004252
  91   7   5.721389   2.917408  -1.059315   0.001370   0.325193   0.004212
  92   7   3.327372   5.311438  -1.970728   0.001208   0.278737   0.004333
  93   7   0.929517   4.991207  -0.837771   0.001255   0.325193   0.003860
  94   7   4.458326   0.990727   0.529823   0.000574   0.185824   0.003087
  95   7   6.112214   7.393621   1.614837   0.000886   0.185824   0.004769
  96   7   6.610665   6.888254   1.609565   0.000920   0.185824   0.004954
  97   7   0.435094   4.129140  -0.192582   0.000631   0.232280   0.002716
  98   7   1.285611   6.109314  -0.734076   0.001443   0.325193   0.004436
  99   7   2.411145   6.092204  -1.479067   0.001812   0.325193   0.005572
 100   7   4.750502   5.333583  -1.825301   0.001545   0.464561   0.003327
 101   7   5.945003   4.441950  -1.324720   0.001416   0.464561   0.003047
 102   7   6.162534   2.316886  -0.134954   0.001883   0.371649   0.005068
 103   7   5.721962   1.463933   0.744677   0.001294   0.278737   0.004644
 104   7   5.636934   1.263448   1.731984   0.000830   0.278737   0.002976
 105   7   0.689866   6.266493   0.220995   0.000825   0.278737   0.002960
 106   7   4.987566   6.479918  -1.239698   0.001314   0.418105   0.003143
 107   7   6.023872   6.728759  -0.255486   0.001530   0.418105   0.003660
 108   7   6.805482   5.973225   0.165050   0.001506   0.418105   0.003601
 109   7   6.783077   4.780105  -0.441517   0.000957   0.325193   0.002942
 110   7   5.094530   4.283888  -1.796561   0.000816   0.278737   0.002929
 111   7   1.742605   5.482532  -1.386992   0.001366   0.278737   0.004902
 112   7   3.741021   0.777059   1.048559   0.000602   0.232280   0.002593
 113   7   5.341520   1.577441  -0.029174   0.001438   0.325193   0.004421
 114   7   0.727354   6.723682   0.932059   0.000355   0.139368   0.002550
 115   7   5.981542   5.683714  -1.053842   0.001204   0.464561   0.002592
 116   8   5.845145   5.862633  15.015017   0.005004   0.377948   0.013240
 117   8   5.501317   2.812073  14.304958   0.003784   0.240512   0.015733
 118   8   7.379941   7.655492  12.850627   0.002951   0.240512   0.012270
 119   8   9.147761   6.570644  15.180980   0.005898   0.343589   0.017166
 120   8   8.092530   3.373970  16.059683   0.003980   0.309230   0.012870
 121   8   5.437449   4.727500  15.010442   0.005458   0.412307   0.013238
 122   8   5.219836   3.691476  14.536783   0.005122   0.343589   0.014906
 123   8   5.218502   5.759576  14.128315   0.004906   0.343589   0.014278
 124   8   4.991728   5.687061  13.391483   0.004145   0.206154   0.020108
 125   8   6.134842   6.801179  14.306193   0.005399   0.412307   0.013095
 126   8   6.809292   7.439337  13.589211   0.004956   0.377948   0.013114
 127   8   6.852985   6.392780  15.361949   0.005300   0.377948   0.014024
 128   8   7.973521   6.553004  15.489935   0.005436   0.343589   0.015821
 129   8   6.526634   5.202136  15.813046   0.006440   0.481025   0.013389
 130   8   7.250081   4.295721  16.163146   0.005496   0.412307   0.013331
 131   8   8.142619   7.666063  13.533274   0.004772   0.377948   0.012627
 132   8   8.689958   7.276167  14.465808   0.006279   0.412307   0.015229
 133   8   9.022714   5.693106  15.821437   0.006509   0.377948   0.017223
 134   8   8.591066   4.478768  16.191640   0.006435   0.412307   0.015607
 135   8   7.145019   2.999295  15.779307   0.005125   0.446666   0.011473
 136   8   6.104323   2.829667  15.093604   0.004003   0.343589   0.011649
 137   8   8.478248   7.625301  12.433546   0.003789   0.343589   0.011028
 138   8   9.853313   6.802387  14.256195   0.004580   0.343589   0.013328
 139   8  10.052284   5.753742  15.143845   0.006126   0.377948   0.016209
 140   8   9.154031   3.415383  15.842459   0.004447   0.377948   0.011767
 141   8   8.271458   2.472759  15.551815   0.002905   0.274871   0.010569
 142   8   6.281266   2.022865  14.314141   0.003011   0.274871   0.010954
 143   8   4.846061   4.590767  13.861158   0.006828   0.377948   0.018067
 144   8   5.694620   6.731974  13.457149   0.003629   0.240512   0.015088
 145   8   7.457631   7.224254  14.635497   0.005691   0.412307   0.013803
 146   8   7.841768   5.523036  16.069740   0.007024   0.446666   0.015726
 147   8   6.119063   3.828099  15.589355   0.005057   0.412307   0.012266
 148   8   9.315318   7.399946  13.394462   0.004423   0.343589   0.012874
 149   8   9.697510   4.632744  15.752600   0.006006   0.377948   0.015890
 150   8   7.147414   1.996473  14.945627   0.004088   0.412307   0.009916
 151   9   5.557390  -0.922755   5.344015  -0.002437   0.392554  -0.006207
 152   9   6.667548  -0.762558   5.570790  -0.000828   0.274788  -0.003015
 153   9   4.326383  -1.183783   6.989980  -0.000637   0.314043  -0.002027
 154   9   5.606273  -1.510900   6.974975  -0.000858   0.314043  -0.002733
 155   9   6.658000  -0.093920   5.008092  -0.001765   0.333671  -0.005290
 156   9   4.874688  -1.305795   6.224954  -0.001534   0.314043  -0.004886
 157   9   6.224300  -1.312407   6.241866  -0.001151   0.294415  -0.003909
 158  10   3.384942   1.019705  11.889280  -0.001707   0.333671  -0.005116
 159  10   3.087887   2.804209  11.597797  -0.001372   0.235532  -0.005825
 160  10   4.727297   0.115977  11.705437  -0.001051   0.294415  -0.003569
 161  10   3.231837  -0.032439  10.563640  -0.000654   0.314043  -0.002081
 162  10   2.542832   0.661534  10.124849  -0.000843   0.314043  -0.002684
 163  10   3.376649   1.992097  12.058646  -0.001272   0.255160  -0.004986
 164  10   4.235491   0.850849  12.173490  -0.001519   0.294415  -0.005161
 165  10   3.910277  -0.104738  11.231472  -0.001134   0.392554  -0.002890
 166  10   2.692666   0.876133  11.033331  -0.001472   0.333671  -0.004412
 167  10   2.634444   1.791450  11.338634  -0.001569   0.294415  -0.005328
 168  11   8.621222   5.992260   4.617882  -0.001356   0.274788  -0.004933
 169  11   8.600069   6.994161   6.060277  -0.000421   0.255160  -0.001649
 170  11   7.184137   7.648184   4.899448  -0.000720   0.274788  -0.002621
 171  11   8.783123   6.555898   5.391075  -0.001100   0.274788  -0.004003
 172  11   7.938250   7.550172   5.534066  -0.000382   0.294415  -0.001299
 173  11   8.060162   6.963150   4.603679  -0.001535   0.333671  -0.004602
 174  12   5.608795   8.407468  10.274572  -0.001905   0.372926  -0.005108
 175  12   3.990458   6.936149  10.792448  -0.000452   0.176649  -0.002561
 176  12   4.750478   8.600038   9.523580  -0.000863   0.274788  -0.003141
 177  12   6.643946   8.512979   9.041964  -0.000260   0.235532  -0.001104
 178  12   4.379741   7.546007  10.772423  -0.000657   0.176649  -0.003717
 179  12   4.483098   8.081386  10.346531  -0.001270   0.333671  -0.003807
 180  12   5.707978   8.773009   9.175818  -0.000837   0.333671  -0.002509
 181  12   6.815733   8.276073   9.713006  -0.001099   0.294415  -0.003732
 182  13  -0.456180   4.239526   9.534800  -0.001526   0.353299  -0.004319
 183  13   0.137430   2.674276   8.547005  -0.000710   0.274788  -0.002582
 184  13  -1.133623   4.087078   7.871518  -0.000816   0.314043  -0.002600
 185  13  -0.669125   5.894631   8.882254  -0.000414   0.333671  -0.001241
 186  13   0.804912   5.596738  10.091310  -0.000620   0.372926  -0.001663
 187  13   0.084571   3.364434   9.496185  -0.001656   0.353299  -0.004688
 188  13  -0.663960   3.327598   8.468995  -0.001166   0.392554  -0.002969
 189  13  -0.993389   4.618778   8.858597  -0.001192   0.314043  -0.003795
 190  13  -0.180461   5.636758   9.629823  -0.001076   0.431809  -0.002492
 191  13   0.533961   4.508566  10.167242  -0.001885   0.431809  -0.004364
 192  13  -1.171222   5.200801   8.076625  -0.000367   0.314043  -0.001169
 193  14   1.768959   9.670754   5.663453  -0.001590   0.372926  -0.004263
 194  14   3.520151   9.229549   5.157725  -0.000835   0.294415  -0.002837
 195  14   2.943720   9.445535   6.973042  -0.000799   0.274788  -0.002907
 196  14   0.876732   9.014797   7.060124  -0.000398   0.333671  -0.001194
 197  14   0.285664   8.544411   5.284534  -0.000614   0.372926  -0.001646
 198  14   2.386104   9.453075   4.844444  -0.001646   0.353299  -0.004659
 199  14   3.147298   9.585701   5.995900  -0.001225   0.392554  -0.003121
 200  14   1.939707   9.647892   6.609808  -0.001163   0.314043  -0.003705
 201  14   0.603291   9.085403   6.174464  -0.001080   0.431809  -0.002501
 202  14   1.110272   9.058130   4.754686  -0.001807   0.451437  -0.004003
 203  14   1.949218   9.212328   7.499779  -0.000395   0.314043  -0.001257
 204  15   9.498679  -2.295901   9.909732  -0.003579   0.451437  -0.007927
 205  15   8.037025  -2.062800   9.830778  -0.001819   0.294415  -0.006178
 206  15   8.655986  -1.466557  11.394282  -0.002040   0.333671  -0.006114
 207  15  10.877305  -1.177398  10.754813  -0.001873   0.274788  -0.006815
 208  15  10.912395  -1.427471   8.835133  -0.001809   0.372926  -0.004851
 209  15   9.112595  -1.858967   8.114200  -0.001654   0.333671  -0.004956
 210  15   8.405195  -1.950921  10.683793  -0.002721   0.431809  -0.006301
 211  15   9.883492  -1.649657  11.124156  -0.002714   0.451437  -0.006012
 212  15  10.552943  -1.858999   9.997437  -0.002786   0.372926  -0.007472
 213  15  10.099668  -1.890516   8.521700  -0.002610   0.451437  -0.005781
 214  15   8.659486  -2.212206   8.955636  -0.002976   0.451437  -0.006591
 215  15  11.315517  -1.016554   9.835599  -0.001248   0.294415  -0.004239
 216  16  11.790045   3.249696   6.196768  -0.002215   0.314043  -0.007052
 217  16  11.274062   4.643833   7.074921  -0.002221   0.372926  -0.005956
 218  16  10.497592   1.924900   5.438280  -0.002504   0.392554  -0.006379
 219  16  11.491082   1.455652   6.251638  -0.001393   0.353299  -0.003942
 220  16  12.382518   2.593311   7.481554  -0.001692   0.294415  -0.005746
 221  16  11.200330   4.156833   6.202246  -0.002823   0.372926  -0.007570
 222  16  10.801039   3.248027   5.478194  -0.003092   0.353299  -0.008752
 223  16  11.428277   2.356210   5.781842  -0.002034   0.314043  -0.006476
 224  16  12.132318   2.138020   6.746233  -0.001784   0.353299  -0.005050
 225  16  12.145732   3.656130   7.247939  -0.002352   0.431809  -0.005447
 226  17   2.067379  -0.670371   4.346822  -0.001994   0.412182  -0.004839
 227  17   2.230748  -0.201377   2.868722  -0.000626   0.294415  -0.002125
 228  17   0.726843  -0.140733   3.818645  -0.000395   0.294415  -0.001340
 229  17   0.939934   0.299200   5.836246  -0.000581   0.314043  -0.001849
 230  17   3.007826  -0.376402   3.497359  -0.001600   0.372926  -0.004290
 231  17   1.481212  -0.364773   3.343508  -0.000753   0.333671  -0.002257
 232  17   0.627171  -0.072168   4.769804  -0.000565   0.353299  -0.001600
 233  17   1.535281  -0.388937   5.268457  -0.001613   0.353299  -0.004567
 234  18  -2.314892   4.457059   2.858520  -0.002598   0.549575  -0.004728
 235  18  -1.379849   5.295201   1.827880  -0.000913   0.333671  -0.002735
 236  18  -1.372524   6.138291   3.373454  -0.000578   0.353299  -0.001636
 237  18  -2.074928   4.387289   4.671314  -0.000943   0.372926  -0.002529
 238  18  -1.979405   2.746455   3.549531  -0.000468   0.372926  -0.001255
 239  18  -1.350784   3.240265   1.644500  -0.000594   0.372926  -0.001592
 240  18  -1.483206   5.816654   2.526314  -0.001204   0.412182  -0.002921
 241  18  -2.085841   5.272592   3.899430  -0.001517   0.471065  -0.003220
 242  18  -2.265956   3.611025   4.103601  -0.001174   0.431809  -0.002719
 243  18  -1.976175   3.070267   2.554234  -0.001272   0.471065  -0.002700
 244  18  -1.639636   4.297623   1.677336  -0.001232   0.431809  -0.002853
 245  19  13.893638   3.621883  12.003941  -0.004672   0.529948  -0.008815
 246  19  13.416787   4.175880  10.625044  -0.002973   0.392554  -0.007574
 247  19  13.296558   2.057495  11.304950  -0.002406   0.314043  -0.007661
 248  19  12.985367   2.151001  13.248477  -0.002458   0.372926  -0.006590
 249  19  12.824616   4.281643  13.822601  -0.002425   0.353299  -0.006865
 250  19  13.052697   5.368305  12.215588  -0.002592   0.412182  -0.006289
 251  19  13.586848   3.035159  10.852809  -0.003700   0.451437  -0.008197
 252  19  13.393622   2.084118  12.260165  -0.003417   0.471065  -0.007254
 253  19  13.592397   3.347349  13.103182  -0.003700   0.431809  -0.008569
 254  19  13.225243   4.774175  13.082157  -0.003760   0.471065  -0.007983
 255  19  13.465234   4.829867  11.425912  -0.003086   0.431809  -0.007147
 256  19  12.804327   3.095706  13.929694  -0.002323   0.353299  -0.006574
 257  20   2.652639   2.067231  -1.951078  -0.003391   0.608459  -0.005573
 258  20   1.825349   1.460644  -0.641217  -0.001184   0.353299  -0.003353
 259  20   3.817252   1.139172  -0.694760  -0.000643   0.333671  -0.001927
[...]
 467   4   7.619410  -0.805399  11.337806  -0.000852   0.149123  -0.005714
 468  15   8.672563  -1.558571   7.846140  -0.000397   0.073053  -0.005431
 469  15   9.805607  -1.296985   7.757174  -0.000871   0.163748  -0.005320
 470  15  10.983805  -0.885209   8.406208  -0.000856   0.163748  -0.005228
 471  15  11.454399  -0.528925   9.683142  -0.001120   0.163748  -0.006842
 472   4   8.993994  -1.197126   7.467753  -0.000794   0.158742  -0.004999
 473   4  10.502304  -0.784360   7.691759  -0.000536   0.158742  -0.003374
 474   4  11.485521  -0.326346   8.840263  -0.000699   0.158742  -0.004403
 475   4  11.662684  -0.048338  10.084357  -0.000525   0.089251  -0.005879
 476   4  12.409725   2.664817   8.900673  -0.000505   0.044157  -0.011431
 477  16  12.364361   2.764318   8.616977  -0.000453   0.044157  -0.010251
 478  19  12.651900   2.955919   9.569374  -0.000662   0.044157  -0.014983
 479   4   8.792541   1.930453   5.277299  -0.000439   0.172618  -0.002544
 480  16   9.033743   2.124710   5.243303  -0.000774   0.172618  -0.004484
 481  22   7.904569   2.646730   4.121655  -0.000077   0.172618  -0.000446
 482  16  12.357801   2.427790   8.043475  -0.000464   0.069789  -0.006648
 483  16  12.038281   1.551832   7.421900  -0.000795   0.155060  -0.005130
 484  16  11.195541   1.030414   6.498582  -0.000802   0.155060  -0.005174
 485  16  10.131273   1.344061   5.721688  -0.000946   0.155060  -0.006101
 486   4  12.246261   1.853371   8.180326  -0.000904   0.152897  -0.005912
 487   4  11.586657   0.868229   7.226672  -0.000522   0.152897  -0.003417
 488   4  10.454700   0.744901   6.217465  -0.000607   0.152897  -0.003969
 489   4   9.502732   1.254208   5.614118  -0.000433   0.085262  -0.005082
 490  19  12.833367   1.814970  10.785062  -0.001867   0.204489  -0.009132
 491  19  12.981833   2.724964  10.148425  -0.001991   0.204489  -0.009738
 492   4  12.426945   1.740600   9.597986  -0.003628   0.560148  -0.006476
 493  22   7.532927   2.352092   3.005037  -0.000352   0.171787  -0.002047
 494   4   8.597892   1.411618   5.033218   0.000394   0.271701   0.001451
 495   5   2.241586   0.631788   1.895208   0.000026   0.028316   0.000903
 496   7   2.535010   0.790221   1.524212   0.000091   0.028316   0.003205
 497  17   2.271418   0.458981   2.142911   0.000004   0.028316   0.000124
 498   5  -0.195176   3.313830   0.916999   0.000035   0.028588   0.001214
 499   7   0.123233   3.444661   0.555967   0.000066   0.028588   0.002296
 500  18  -0.434345   3.439554   1.055694   0.000014   0.028588   0.000475
 501   5   0.041797   6.417702   2.054079   0.000049   0.028588   0.001714
 502   7   0.357141   6.508395   1.678343   0.000097   0.028588   0.003379
 503  18  -0.218571   6.265761   2.091054   0.000012   0.028588   0.000409
 504   5   2.245728   0.883586   1.396426   0.000083   0.026167   0.003174
 505   7   2.528036   0.963594   0.993095   0.000034   0.026167   0.001295
 506  20   2.501829   1.021345   0.696952  -0.000003   0.026167  -0.000117
 507   5   0.254707   3.012437   0.578497   0.000056   0.026167   0.002147
 508   7   0.510139   3.121182   0.164125   0.000028   0.026167   0.001068
 509  20   0.665258   2.985054  -0.057527   0.000002   0.026167   0.000067
 510   5   0.638737   6.911891   2.069428   0.000049   0.025836   0.001887
 511   7   0.898214   7.063549   1.671388   0.000022   0.025836   0.000844
 512  21   1.088290   7.282777   1.582352  -0.000019   0.025836  -0.000733
 513   7   2.595144   0.858136   1.163876   0.000084   0.023361   0.003605
 514   5   2.159113   0.694493   1.707129   0.000070   0.023361   0.002986
 515   7   0.354333   3.267825   0.247591   0.000105   0.044128   0.002375
 516   5  -0.077693   3.144795   0.806394   0.000108   0.044128   0.002441
 517   7   0.636935   6.819274   1.557139   0.000171   0.074380   0.002298
 518   5   0.267237   6.705617   2.165088   0.000172   0.074380   0.002307
 519   5  -1.266970   3.929393   5.867178   0.000095   0.035103   0.002708
 520  13  -1.097238   4.148540   6.562121   0.000072   0.035103   0.002065
 521  18  -1.402664   4.006162   5.606881  -0.000045   0.035103  -0.001292
 522  13  -1.005800   3.862164   7.196466  -0.000235   0.204369  -0.001149
 523  13  -0.102559   2.779115   7.645142  -0.001013   0.419249  -0.002417
 524   5  -0.791850   2.977836   6.358685   0.000893   0.558977   0.001598
 525   5   0.353718   1.854565   6.866195   0.000714   0.287959   0.002478
 526   5   0.940910   7.387341   3.050164   0.000149   0.167572   0.000889
 527  14   1.149171   7.855662   3.601323   0.000008   0.167572   0.000048
 528  21   1.421157   7.674585   2.530571  -0.000058   0.167572  -0.000349
 529  14   0.634367   7.999400   4.264571  -0.000283   0.193038  -0.001467
 530   5   0.170377   7.197098   3.621409   0.000514   0.272050   0.001890
 531  17   0.911416   0.816362   6.190804  -0.000105   0.066876  -0.001574
 532  17   0.318186   0.613900   5.313706  -0.000163   0.147386  -0.001106
 533  17   0.234814   0.379714   4.032134  -0.000074   0.147386  -0.000502
 534  17   0.935165   0.240707   2.939246  -0.000180   0.147386  -0.001221
 535  17   1.887518   0.225947   2.434251  -0.000074   0.066876  -0.001105
 536   5   0.431504   1.082611   5.975975  -0.000037   0.147658  -0.000248
 537   5  -0.111284   0.803004   4.642194   0.000231   0.147658   0.001562
 538   5   0.253427   0.582402   3.238596   0.000177   0.147658   0.001197
 539   5   1.384633   0.506092   2.307833  -0.000036   0.147658  -0.000241
 540  18  -0.810260   3.199372   1.350739  -0.000047   0.066684  -0.000706
 541  18  -1.120686   2.509953   2.114141  -0.000132   0.146842  -0.000901
 542  18  -1.473461   2.268259   3.343175  -0.000078   0.146842  -0.000530
 543  18  -1.675878   2.815753   4.506218  -0.000150   0.146842  -0.001019
 544  18  -1.689592   3.683709   5.139393  -0.000072   0.066684  -0.001077
 545   5  -0.588884   2.679880   1.517000  -0.000102   0.147356  -0.000691
 546   5  -1.014653   1.982714   2.729804   0.000179   0.147356   0.001216
 547   5  -1.342717   2.163411   4.143287   0.000198   0.147356   0.001343
 548   5  -1.447193   3.152637   5.215075  -0.000021   0.147356  -0.000140
 549  18  -0.753320   6.453258   3.297429  -0.000067   0.067071  -0.000993
 550  18  -0.573281   6.307935   2.490923  -0.000060   0.067071  -0.000896
 551   5  -0.293582   6.562652   2.943905  -0.000120   0.148048  -0.000812
 552  20   2.165016   1.141933   0.400459  -0.000215   0.203472  -0.001056
 553  20   1.153283   2.113387  -0.003587  -0.001080   0.416791  -0.002592
 554   5   1.241442   1.295944   1.219053   0.000865   0.556968   0.001552
 555   5   0.199118   2.510921   0.780305   0.000688   0.286553   0.002401
 556  21   1.257546   7.567426   1.689040  -0.000183   0.131590  -0.001392
 557   5   0.615015   7.151385   2.528867   0.000356   0.185429   0.001919
 558   6   6.611997   1.240951  12.993172   0.000222   0.116432   0.001903
 559   8   6.408502   1.498907  13.217506   0.001105   0.116432   0.009494
 560  10   5.774088   1.133968  12.453260   0.000249   0.116432   0.002139
 561   6   8.507473   7.208584  10.950923   0.000432   0.119867   0.003601
 562   8   8.245982   7.297963  11.237484   0.000947   0.119867   0.007900
 563  12   7.640062   7.467187  10.410466   0.000420   0.119867   0.003504
 564   8   6.924634   1.535157  13.935297   0.001179   0.134793   0.008745
 565   8   8.158360   1.935407  14.887711   0.002169   0.283919   0.007638
 566   8   9.561713   3.196564  15.423640   0.002718   0.283919   0.009575
 567   8  10.356526   4.944801  15.024802   0.003512   0.283919   0.012369
 568   8  10.236752   6.506951  13.844769   0.003224   0.283919   0.011356
 569   8   9.248510   7.281499  12.337922   0.002413   0.283919   0.008498
 570   6   7.719406   1.305642  14.020873   0.000871   0.280411   0.003105
 571   6   9.289797   2.152113  15.004260   0.001200   0.280411   0.004279
 572   6  10.490537   3.795984  15.079146   0.001723   0.280411   0.006145
 573   6  10.859274   5.604270  14.216693   0.001728   0.280411   0.006161
 574   6  10.254024   6.880683  12.748995   0.001422   0.280411   0.005070
 575   6   9.243340   7.262555  11.486622   0.000612   0.143829   0.004253
 576  10   5.485664   0.571562  12.088555  -0.000144   0.125770  -0.001141
 577   6   6.718516   0.828079  12.866485   0.000141   0.178678   0.000792
 578   6   9.994410   5.579636   8.190787  -0.001963   0.234247  -0.008379
 579  11   9.247389   5.809279   7.159055  -0.000339   0.234247  -0.001448
 580  16  10.054461   5.259258   7.527315  -0.001388   0.234247  -0.005925
 581  11   8.984163   6.450382   6.920775   0.000133   0.076260   0.001740
 582   6  10.091626   6.077245   8.426350  -0.000144   0.112988  -0.001278
 583  12   7.553012   7.751662   9.708856  -0.000105   0.242546  -0.000434
 584   6   8.907556   7.250146  10.299834  -0.000142   0.346422  -0.000410
 585  15  11.232431  -0.428312  10.819237  -0.001417   0.182107  -0.007779
 586  15  10.127844  -0.787322  11.573829  -0.003818   0.372733  -0.010244
 587  15   8.769846  -0.840708  11.841037  -0.001339   0.182107  -0.007353
 588   6  11.147808   0.132651  11.858089  -0.004174   0.499957  -0.008350
 589   6   9.387986  -0.162057  12.588291  -0.004373   0.499957  -0.008747
 590   6  12.517219   3.718128   9.400573  -0.000318   0.025818  -0.012316
 591  16  12.309432   3.498049   8.736945  -0.000388   0.025818  -0.015015
 592  19  12.680491   3.695839   9.658574  -0.000374   0.025818  -0.014493
 593  16  10.837074   5.002796   7.683958  -0.001337   0.181446  -0.007370
 594  16  11.833901   4.133157   8.003000  -0.003354   0.370737  -0.009046
 595   6  11.317202   5.198173   8.759347  -0.003900   0.498472  -0.007823
 596   6  12.357194   4.113590   9.129212  -0.001544   0.256110  -0.006028
 597  19  12.953906   4.064881  10.072159  -0.000728   0.068046  -0.010702
 598  19  12.829976   4.994970  10.617026  -0.001386   0.149862  -0.009247
 599  19  12.606088   5.634368  11.742649  -0.001326   0.149862  -0.008846
 600  19  12.373368   5.470190  13.025174  -0.001322   0.149862  -0.008821
 601  19  12.222211   4.566208  13.966424  -0.001340   0.149862  -0.008944
 602  19  12.211333   3.273560  14.200785  -0.001315   0.149862  -0.008777
 603  19  12.344958   2.094354  13.637225  -0.001432   0.149862  -0.009555
 604  19  12.571183   1.486634  12.494648  -0.001419   0.149862  -0.009467
 605  19  12.766982   1.530856  11.428341  -0.000596   0.068046  -0.008753
 606   6  12.615506   4.541133   9.961690  -0.001628   0.150393  -0.010826
 607   6  12.407395   5.625513  10.941479  -0.001440   0.150393  -0.009575
 608   6  12.137420   5.906493  12.365327  -0.001253   0.150393  -0.008332
 609   6  11.910448   5.274930  13.680161  -0.001160   0.150393  -0.007714
 610   6  11.814642   3.976146  14.375256  -0.001187   0.150393  -0.007894
 611   6  11.887218   2.514631  14.180613  -0.001255   0.150393  -0.008346
 612   6  12.099984   1.458089  13.171838  -0.001460   0.150393  -0.009711
 613   6  12.370294   1.216917  11.740773  -0.001520   0.150393  -0.010106
 614   7   4.613473   0.819784   3.058107   0.000279   0.219716   0.001268
 615   9   4.939188   0.330220   4.224929  -0.000509   0.219716  -0.002318
 616  17   4.223079   0.434662   3.579124  -0.000484   0.219716  -0.002205
 617   7   6.017314   1.566374   2.773582  -0.000009   0.123107  -0.000076
 618   9   6.167241   1.121773   3.985421   0.000012   0.123107   0.000099
 619  22   6.278092   1.722411   2.823330  -0.000241   0.123107  -0.001960
 620   9   5.794715   0.176188   4.422352  -0.000956   0.368084  -0.002597
 621   7   5.583766   1.023548   2.695648   0.001076   0.546089   0.001970
 622   7   7.003492   6.328058   2.495114   0.000088   0.082317   0.001065
 623  11   7.357844   6.350459   3.446955  -0.000175   0.082317  -0.002131
 624  22   7.204301   6.105864   2.554819  -0.000169   0.082317  -0.002058
 625  11   7.382814   6.872313   3.929226  -0.000665   0.256648  -0.002591
 626  11   6.589616   7.486074   4.330761  -0.000258   0.256648  -0.001003
 627   7   6.307086   7.164204   2.811344   0.002212   0.718917   0.003077
 628  17   2.623406   0.258169   2.405297  -0.000212   0.209435  -0.001014
 629  17   3.637290   0.266432   3.001293  -0.000389   0.209435  -0.001856
 630   7   3.630118   0.725179   1.846688   0.000800   0.572174   0.001399
 631  18  -0.497767   5.934677   1.839888  -0.000158   0.219439  -0.000722
 632  18  -0.649708   4.489798   1.224232  -0.001239   0.452429  -0.002737
 633   7   0.213037   5.671996   0.842375   0.000940   0.598109   0.001572
 634   7   0.120696   3.965917   0.295999   0.000732   0.309148   0.002367
 635  20   0.804871   3.171358  -0.544725  -0.000078   0.068945  -0.001135
 636  20   1.210968   3.968739  -1.203522  -0.000269   0.152995  -0.001761
 637  20   2.250855   4.493306  -1.873352  -0.000119   0.152995  -0.000779
 638  20   3.552999   4.300286  -2.142376  -0.000246   0.152995  -0.001606
 639  20   4.580476   3.469269  -1.899662  -0.000284   0.152995  -0.001859
 640  20   4.909618   2.342914  -1.245292  -0.000185   0.152995  -0.001211
 641  20   4.404707   1.385661  -0.449088  -0.000222   0.152995  -0.001453
 642  20   3.273937   0.992223   0.160645  -0.000335   0.152995  -0.002189
 643   7   0.774542   3.767474  -0.518901  -0.000122   0.151209  -0.000804
 644   7   1.598197   4.687027  -1.387359   0.000116   0.151209   0.000767
 645   7   2.987252   4.883668  -1.944192   0.000103   0.151209   0.000678
 646   7   4.368947   4.276312  -1.959797  -0.000039   0.151209  -0.000260
 647   7   5.173556   3.115398  -1.427738  -0.000019   0.151209  -0.000126
 648   7   5.069307   1.879613  -0.567405   0.000089   0.151209   0.000587
 649   7   4.099187   1.078520   0.266455  -0.000118   0.151209  -0.000784
 650   7   2.970843   0.917857   0.719400   0.000038   0.084232   0.000455
 651  21   4.985757   8.116536   2.278186  -0.000041   0.067529  -0.000610
 652  21   5.412576   7.921163   1.297124  -0.000104   0.149090  -0.000700
 653  21   5.255655   7.597011   0.030889  -0.000207   0.149090  -0.001387
 654  21   4.354798   7.284472  -0.876759  -0.000244   0.149090  -0.001634
 655  21   3.064599   7.106567  -1.068553  -0.000124   0.149090  -0.000832
 656  21   1.892904   7.133323  -0.469001  -0.000185   0.149090  -0.001240
 657  21   1.300913   7.354208   0.685904  -0.000308   0.149090  -0.002064
 658   7   5.437005   7.773395   2.107784   0.000095   0.148846   0.000639
 659   7   5.728019   7.458440   0.692156   0.000050   0.148846   0.000339
 660   7   5.102175   7.081736  -0.594041  -0.000000   0.148846  -0.000002
 661   7   3.805817   6.791560  -1.244536   0.000028   0.148846   0.000185
 662   7   2.349215   6.702131  -1.003283   0.000060   0.148846   0.000406
 663   7   1.305714   6.848650   0.034758   0.000050   0.148846   0.000337
 664   7   0.981763   7.090798   1.165012   0.000010   0.082502   0.000119
 665  22   6.504784   1.843258   1.991991  -0.000147   0.070868  -0.002080
 666  22   6.784290   2.328739   0.997745  -0.000176   0.158266  -0.001112
 667  22   7.120742   3.471810   0.305687  -0.000295   0.158266  -0.001864
 668  22   7.322902   4.822394   0.489558  -0.000350   0.158266  -0.002208
 669  22   7.302575   5.791288   1.469143  -0.000250   0.158266  -0.001579
 670   7   6.262563   1.818425   1.438012   0.000028   0.154481   0.000179
 671   7   6.655480   2.758425   0.273016   0.000094   0.154481   0.000609
 672   7   6.975929   4.242034  -0.029332  -0.000063   0.154481  -0.000407
 673   7   7.084112   5.622017   0.662870  -0.000130   0.154481  -0.000839
 674   7   7.000858   6.312102   1.713150   0.000169   0.086581   0.001952
 675  10   5.031983   1.090400  12.465792  -0.000028   0.279810  -0.000100
 676  10   4.187403   2.170577  12.458104  -0.000147   0.563402  -0.000260
 677  10   3.739256   3.353526  11.928999   0.000429   0.279810   0.001535
 678   8   5.566911   2.149002  13.557604   0.007642   0.693572   0.011018
 679   8   4.682450   3.697394  13.190340   0.010715   0.693572   0.015448
 680  12   4.365913   6.497898  11.315736   0.000476   0.262395   0.001814
 681  12   5.244765   7.468288  11.228640  -0.000398   0.528083  -0.000754
 682  12   6.626840   7.936294  10.601907  -0.000614   0.528083  -0.001162
 683   8   5.256339   6.451540  12.618366   0.008654   0.649296   0.013328
 684   8   6.621126   7.483749  12.263357   0.007082   0.649296   0.010907
 685   8   7.864702   7.613826  11.564708   0.002622   0.327181   0.008014
 686  15   7.856589  -1.686049   8.106775  -0.000210   0.229166  -0.000916
 687   9   6.801889  -1.391818   7.165941   0.000013   0.229166   0.000058
 688  17   3.947611  -0.120888   3.897092  -0.000311   0.251564  -0.001235
 689  17   3.173026  -0.541124   4.760254  -0.001690   0.503486  -0.003356
 690  17   2.439707  -0.416716   5.744324  -0.000471   0.251564  -0.001871
 691   9   4.720826  -0.579002   5.043580  -0.002101   0.503486  -0.004172
 692   9   3.780933  -0.763395   6.194979  -0.001355   0.503486  -0.002690
 693  22   6.893462   1.814948   2.922745  -0.000030   0.300273  -0.000101
 694   9   6.744627   0.695543   4.458243   0.000040   0.300273   0.000134
 695  13   0.937547   2.325357   8.971175   0.000200   0.240577   0.000829
 696  13   0.981665   2.989909   9.790673  -0.000205   0.480906  -0.000425
 697  13   1.494274   4.028947  10.362273  -0.000128   0.480906  -0.000267
 698  10   2.037065   1.642739   9.983633  -0.000008   0.480906  -0.000016
 699  10   2.275972   2.573130  10.847572  -0.000321   0.480906  -0.000667
 700  10   2.813813   3.433668  11.139729   0.000079   0.240577   0.000328
 701  11   8.513219   4.588670   4.546022  -0.001427   0.280300  -0.005092
 702  16   9.122588   3.925205   5.068720  -0.000677   0.280300  -0.002416
 703  22   8.140568   4.273038   3.740163  -0.000894   0.280300  -0.003189
 704  16  10.074834   4.116672   5.468675  -0.001056   0.278250  -0.003794
 705  16  10.258007   4.918938   6.440233  -0.001932   0.556749  -0.003470
 706  11   9.124843   5.342450   5.276608  -0.001324   0.556749  -0.002377
 707  11   9.221943   6.081365   6.308928  -0.000042   0.278250  -0.000150
 708  22   7.630773   5.803238   2.603356  -0.000224   0.286156  -0.000782
 709  22   8.084052   4.831796   2.830613  -0.000996   0.286156  -0.003480
 710  11   8.128272   5.734690   3.960000  -0.002422   0.573632  -0.004221
 711  14   3.275282   8.979534   7.781738   0.000319   0.255979   0.001245
 712  12   4.408837   8.716473   8.611869   0.000297   0.255979   0.001159
 713  18  -1.637707   4.160659   5.541866   0.000295   0.109595   0.002690
 714  13  -1.269091   4.421652   6.917827   0.000284   0.109595   0.002591
 715  21   1.660562   8.193462   2.250354   0.000103   0.244143   0.000422
 716  21   2.595566   8.687062   2.403835  -0.000252   0.488035  -0.000516
 717  21   3.858506   8.630938   2.732600   0.000024   0.488035   0.000049
 718  14   1.619130   8.661503   3.830422  -0.000052   0.488035  -0.000107
 719  14   2.849386   9.022022   4.080919  -0.000029   0.488035  -0.000059
 720  14   3.843357   8.763931   4.375609   0.000329   0.244143   0.001348
 721  19  12.955982   3.335506   9.751925  -0.000813   0.210001  -0.003871
 722  16  12.463894   3.188211   8.393422  -0.000640   0.210001  -0.003047
 723  22   8.375143   3.946201   2.976105  -0.000119   0.274663  -0.000432
 724  22   8.117139   3.043362   2.936362  -0.000744   0.547421  -0.001358
 725  16   9.797316   3.083619   4.922384  -0.000768   0.547421  -0.001403
 726  16   9.482912   2.197980   4.930006   0.000001   0.274663   0.000004
 =====================================================

              4977688  WORDS OF DYNAMIC MEMORY USED
 EXECUTION OF GAMESS TERMINATED NORMALLY Tue Nov 22 23:32:55 2016
 DDI: 263640 bytes (0.3 MB / 0 MWords) used by master data server.

 ----------------------------------------
 CPU timing information for all processes
 ========================================
 0: 3204.936 + 1.256 = 3206.192
 ----------------------------------------
 ddikick.x: exited gracefully.
