----- GAMESS execution script -----

          ******************************************************
          *         GAMESS VERSION =  5 DEC 2014 (R1)          *
          *             FROM IOWA STATE UNIVERSITY             *
          * M.W.SCHMIDT, K.K.BALDRIDGE, J.A.BOATZ, S.T.ELBERT, *
          *   M.S.GORDON, J.H.JENSEN, S.KOSEKI, N.MATSUNAGA,   *
          *          K.A.NGUYEN, S.J.SU, T.L.WINDUS,           *
          *       TOGETHER WITH M.DUPUIS, J.A.MONTGOMERY       *
          *         J.COMPUT.CHEM.  14, 1347-1363(1993)        *
          **************** 64 BIT LINUX VERSION ****************

 EXECUTION OF GAMESS BEGUN Tue Nov 22 23:42:34 2016

            ECHO OF THE FIRST FEW INPUT CARDS -
 INPUT CARD>! SELECT RESTRICTED HARTREE-FOCK AS DEFAULT                                     
 INPUT CARD>$contrl scftyp=rhf $end                                                         
 INPUT CARD>                                                                                
 INPUT CARD>! THEORY: HF OR DFT                                                             
 INPUT CARD> $contrl mplevl=0 $end                                                          
 INPUT CARD>                                                                                
 INPUT CARD> $system timlim=10000 mwords=20 $end                                            
 INPUT CARD> $SCF DIRSCF=.TRUE. $end                                                        
 INPUT CARD>                                                                                
 INPUT CARD>                                                                                
 INPUT CARD>! BASIS SETS                                                                    
 INPUT CARD>! 6-311G(d,p)                                                                   
 INPUT CARD> $BASIS GBASIS=N311 NGAUSS=6 NDFUNC=1 NPFUNC=1 $END                             
 INPUT CARD>                                                                                
 INPUT CARD>! One of the following                                                          
 INPUT CARD> $guess guess=HUCKEL $end                                                       
 INPUT CARD>                                                                                
 INPUT CARD> $statpt projct=.FALSE. $end                                                    
 INPUT CARD> $STATPT IFREEZ(1)=1,2,3 $END                                                   
 INPUT CARD>                                                                                
 INPUT CARD>! Optimize the geometry with COSMO effects                                      
 INPUT CARD> $statpt opttol=0.0005 nstep=50 $end                                            
 INPUT CARD> $contrl nzvar=1 $end                                                           
 INPUT CARD> $zmat dlc=.t. auto=.t. $end                                                    
 INPUT CARD> $contrl runtyp=OPTIMIZE maxit=200 $end                                         
 INPUT CARD>                                                                                
 INPUT CARD>! Run COSMO on perfect conductor                                                
 INPUT CARD> $COSGMS PRFCND=.TRUE. $end                                                     
 INPUT CARD>                                                                                
 INPUT CARD>! Specifying RSOLV                                                              
 INPUT CARD> $COSGMS COSRAD = 1.4 $end                                                      
 INPUT CARD>                                                                                
 INPUT CARD>! available memory                                                              
 INPUT CARD> $SYSTEM MWORDS=40 $END                                                         
 INPUT CARD>                                                                                
 INPUT CARD> $DATA                                                                          
 INPUT CARD>Naphthalene, 1-methyl-, ID: C90120                                              
 INPUT CARD>C1                                                                              
 INPUT CARD>C      6.0      2.0690000000    1.2169000000    3.7075000000                    
 INPUT CARD>C      6.0      0.6494000000    0.8447000000    3.4674000000                    
 INPUT CARD>C      6.0      2.7477000000    2.1158000000    2.8272000000                    
 INPUT CARD>C      6.0      2.7367000000    0.6907000000    4.7878000000                    
 INPUT CARD>C      6.0      4.0956000000    2.4447000000    3.0896000000                    
 INPUT CARD>C      6.0      2.1159000000    2.6950000000    1.6923000000                    
 INPUT CARD>C      6.0      4.0851000000    1.0240000000    5.0438000000                    
 INPUT CARD>C      6.0      4.7542000000    1.8818000000    4.2157000000                    
 INPUT CARD>C      6.0      4.7836000000    3.3371000000    2.2233000000                    
 INPUT CARD>C      6.0      2.7989000000    3.5519000000    0.8723000000                    
 INPUT CARD>C      6.0      4.1481000000    3.8777000000    1.1393000000                    
 INPUT CARD>H      1.0      0.0000000000    1.7310000000    3.4874000000                    
   40000000 WORDS OF MEMORY AVAILABLE

     BASIS OPTIONS
     -------------
     GBASIS=N311         IGAUSS=       6      POLAR=POPN311 
     NDFUNC=       1     NFFUNC=       0     DIFFSP=       F
     NPFUNC=       1      DIFFS=       F     BASNAM=        


     RUN TITLE
     ---------
 Naphthalene, 1-methyl-, ID: C90120                                              

 THE POINT GROUP OF THE MOLECULE IS C1      
 THE ORDER OF THE PRINCIPAL AXIS IS     0

 ATOM      ATOMIC                      COORDINATES (BOHR)
           CHARGE         X                   Y                   Z
 C           6.0     3.9098430686        2.2996075545        7.0061590995
 C           6.0     1.2271880564        1.5962515418        6.5524358898
 C           6.0     5.1924000965        3.9982822448        5.3426333125
 C           6.0     5.1716131106        1.3052337397        9.0476300840
 C           6.0     7.7395617553        4.6198131222        5.8384974117
 C           6.0     3.9984712174        5.0928115369        3.1979832890
 C           6.0     7.7197196324        1.9350794114        9.5313999369
 C           6.0     8.9841352908        3.5560863637        7.9665178464
 C           6.0     9.0396932349        6.3062045936        4.2014277885
 C           6.0     5.2891540670        6.7121177358        1.6484079791
 C           6.0     7.8387723697        7.3277904626        2.1529648178
 H           1.0     0.0000000000        3.2711156847        6.5902304096
 H           1.0     0.9956966229        0.6844587528        4.7008823671
 H           1.0     0.5140054687        0.2745771860        7.9857930515
 H           1.0     4.2089866925        0.0000000000       10.3371790980
 H           1.0     2.0212509165        4.6254823001        2.7930150099
 H           1.0     8.6615590647        1.1051117576       11.1760284640
 H           1.0    10.9609776466        4.0568637504        8.3257547567
 H           1.0    11.0159686728        6.7699433510        4.6116873004
 H           1.0     4.3595978537        7.5486994306        0.0000000000
 H           1.0     8.8331461844        8.6267881065        0.8866594334

          INTERNUCLEAR DISTANCES (ANGS.)




     $CONTRL OPTIONS
     ---------------
 SCFTYP=RHF          RUNTYP=OPTIMIZE     EXETYP=RUN     
 MPLEVL=       0     CITYP =NONE         CCTYP =NONE         VBTYP =NONE    
 DFTTYP=NONE         TDDFT =NONE    
 MULT  =       1     ICHARG=       0     NZVAR =       1     COORD =UNIQUE  
 PP    =NONE         RELWFN=NONE         LOCAL =NONE         NUMGRD=       F
 ISPHER=      -1     NOSYM =       0     MAXIT =     200     UNITS =ANGS    
 PLTORB=       F     MOLPLT=       F     AIMPAC=       F     FRIEND=        
 NPRINT=       7     IREST =       0     GEOM  =INPUT   
 NORMF =       0     NORMP =       0     ITOL  =      20     ICUT  =       9
 INTTYP=BEST         GRDTYP=BEST         QMTTOL= 1.0E-06

     $SYSTEM OPTIONS
     ---------------
  REPLICATED MEMORY=    40000000 WORDS (ON EVERY NODE).
 DISTRIBUTED MEMDDI=           0 MILLION WORDS IN AGGREGATE,
 MEMDDI DISTRIBUTED OVER   1 PROCESSORS IS           0 WORDS/PROCESSOR.
 TOTAL MEMORY REQUESTED ON EACH PROCESSOR=    40000000 WORDS.
 TIMLIM=       10000.00 MINUTES, OR       6.9 DAYS.
 PARALL= F  BALTYP=  DLB     KDIAG=    0  COREFL= F
 MXSEQ2=     300 MXSEQ3=     150  mem10=         0

     $COSGMS OPTIONS
     ---------------
     EPSI  =   INFTY     NSPA  =      92     COSRAD=    1.40
     DISEX =   10.00     OUTCHG=DBLCAV       COSBUG=       F
     COSWRT=       F     DCOSMO=       F

     SYMMETRY COORDINATES WILL NOT BE USED FOR 
     THE COSMO CALCULATION, EVEN IF SPECIFIED:
         -- SWITCHING TO C1 POINT GROUP --


     DEFINITION OF CAVITY
     ---------------------------
     ATOM         COORDINATES           RADIUS 
     1    3.9098    2.2996    7.0062    2.0000
     2    1.2272    1.5963    6.5524    2.0000
     3    5.1924    3.9983    5.3426    2.0000
     4    5.1716    1.3052    9.0476    2.0000
     5    7.7396    4.6198    5.8385    2.0000
     6    3.9985    5.0928    3.1980    2.0000
     7    7.7197    1.9351    9.5314    2.0000
     8    8.9841    3.5561    7.9665    2.0000
     9    9.0397    6.3062    4.2014    2.0000
    10    5.2892    6.7121    1.6484    2.0000
    11    7.8388    7.3278    2.1530    2.0000
    12    0.0000    3.2711    6.5902    1.3000
    13    0.9957    0.6845    4.7009    1.3000
    14    0.5140    0.2746    7.9858    1.3000
    15    4.2090    0.0000   10.3372    1.3000
    16    2.0213    4.6255    2.7930    1.3000
    17    8.6616    1.1051   11.1760    1.3000
    18   10.9610    4.0569    8.3258    1.3000
    19   11.0160    6.7699    4.6117    1.3000
    20    4.3596    7.5487    0.0000    1.3000
    21    8.8331    8.6268    0.8867    1.3000

          ----------------
          PROPERTIES INPUT
          ----------------

     MOMENTS            FIELD           POTENTIAL          DENSITY
 IEMOM =       1   IEFLD =       0   IEPOT =       0   IEDEN =       0
 WHERE =COMASS     WHERE =NUCLEI     WHERE =NUCLEI     WHERE =NUCLEI  
 OUTPUT=BOTH       OUTPUT=BOTH       OUTPUT=BOTH       OUTPUT=BOTH    
 IEMINT=       0   IEFINT=       0                     IEDINT=       0
                                                       MORB  =       0
          EXTRAPOLATION IN EFFECT
          SOSCF IN EFFECT
 ORBITAL PRINTING OPTION: NPREO=     1   269     2     1

     -------------------------------
     INTEGRAL TRANSFORMATION OPTIONS
     -------------------------------
     NWORD  =            0
     CUTOFF = 1.0E-09     MPTRAN =       0
     DIRTRF =       T     AOINTS =DUP     

          ----------------------
          INTEGRAL INPUT OPTIONS
          ----------------------
 NOPK  =       1 NORDER=       0 SCHWRZ=       T


 -----------------------------------------------
  STATISTICS ON AUTOMATIC COORDINATE GENERATION 
 -----------------------------------------------
  NUMBER OF USER SPECIFIED BONDS                             0
  NUMBER OF BONDS                                           22
  NUMBER OF ANGLES                                          36
  NUMBER OF TORSIONS                                        50
  NUMBER OF EXTRA COORD.                                     0
  NUMBER OF EXTRA COORD. FOR CONSTRAINTS                     0
  NUMBER OF CONSTRAINED COORD.                               0

  TOTAL NUMBER OF PRIMITIVES                               108
 -----------------------------------------------

   --- ENCODED Z MATRIX ---
 COORD  TYPE   I   J   K   L   M   N
    1      1    1   4
    2      1    1   3
    3      1    1   2
    4      1    2  13
    5      1    2  12
    6      1    2  14
    7      1    3   6
    8      1    3   5
    9      1    4   7
   10      1    4  15
   11      1    5   8
   12      1    5   9
   13      1    6  10
   14      1    6  16
   15      1    7  17
   16      1    7   8
   17      1    8  18
   18      1    9  11
   19      1    9  19
   20      1   10  11
   21      1   10  20
   22      1   11  21
   23      2    1   4   7
   24      2    1   2  12
   25      2    1   3   5
   26      2    1   2  14
   27      2    1   2  13
   28      2    1   4  15
   29      2    1   3   6
   30      2    2   1   4
   31      2    2   1   3
   32      2    3   6  10
   33      2    3   5   8
   34      2    3   1   4
   35      2    3   5   9
   36      2    3   6  16
   37      2    4   7   8
   38      2    4   7  17
   39      2    5   9  19
   40      2    5   9  11
   41      2    5   8  18
   42      2    5   8   7
   43      2    5   3   6
   44      2    6  10  11
   45      2    6  10  20
   46      2    7   8  18
   47      2    7   4  15
   48      2    8   7  17
   49      2    8   5   9
   50      2    9  11  21
   51      2    9  11  10
   52      2   10   6  16
   53      2   10  11  21
   54      2   11  10  20
   55      2   11   9  19
   56      2   12   2  14
   57      2   12   2  13
   58      2   13   2  14
   59      3    1   4   7  17
   60      3    1   3   5   8
   61      3    1   3   6  16
   62      3    1   3   5   9
   63      3    1   3   6  10
   64      3    1   4   7   8
   65      3    2   1   4   7
   66      3    2   1   3   6
   67      3    2   1   4  15
   68      3    2   1   3   5
   69      3    3   1   4  15
   70      3    3   1   2  13
   71      3    3   1   2  12
   72      3    3   1   2  14
   73      3    3   1   4   7
   74      3    3   5   9  19
   75      3    3   5   9  11
   76      3    3   5   8  18
   77      3    3   5   8   7
   78      3    3   6  10  20
   79      3    3   6  10  11
   80      3    4   1   3   5
   81      3    4   1   2  13
   82      3    4   7   8  18
   83      3    4   7   8   5
   84      3    4   1   2  14
   85      3    4   1   2  12
   86      3    4   1   3   6
   87      3    5   9  11  21
   88      3    5   9  11  10
   89      3    5   3   6  16
   90      3    5   8   7  17
   91      3    5   3   6  10
   92      3    6   3   5   9
   93      3    6  10  11  21
   94      3    6  10  11   9
   95      3    6   3   5   8
   96      3    7   8   5   9
   97      3    8   5   9  11
   98      3    8   5   9  19
   99      3    8   7   4  15
  100      3    9   5   8  18
  101      3    9  11  10  20
  102      3   10  11   9  19
  103      3   11  10   6  16
  104      3   15   4   7  17
  105      3   16   6  10  20
  106      3   17   7   8  18
  107      3   19   9  11  21
  108      3   20  10  11  21

          INDEP./SYM. INTERNAL COORDINATES
          --------------------------------
 CRD  1=  -0.3190 (  2) -0.1678 (  7) -0.1061 (  8) -0.1581 ( 13)  0.1089 ( 16)
           0.1647 ( 25)  0.1218 ( 26) -0.3474 ( 29)  0.4477 ( 30) -0.4957 ( 31)
          -0.1389 ( 35)  0.1827 ( 43)  0.2291 ( 49)
 CRD  2=   0.2933 (  1)  0.1882 (  3)  0.1576 (  9) -0.3012 ( 11) -0.2772 ( 12)
          -0.1626 ( 16) -0.1783 ( 18)  0.1713 ( 26)  0.1128 ( 28)  0.1414 ( 29)
           0.3773 ( 30) -0.2321 ( 31)  0.1940 ( 33) -0.1452 ( 34)  0.1634 ( 35)
           0.1368 ( 38) -0.1008 ( 39) -0.1146 ( 41) -0.1101 ( 43)  0.1162 ( 46)
          -0.1066 ( 47) -0.1271 ( 48) -0.3574 ( 49)
 CRD  3=  -0.2651 ( 24)  0.2623 ( 27)  0.1756 ( 60) -0.1505 ( 61)  0.1978 ( 62)
           0.2455 ( 65) -0.3338 ( 66)  0.1920 ( 67) -0.3658 ( 68)  0.1526 ( 72)
           0.1319 ( 73) -0.1257 ( 74) -0.1270 ( 75) -0.2509 ( 80) -0.1191 ( 81)
          -0.1023 ( 82) -0.1451 ( 83) -0.1183 ( 85) -0.2189 ( 86) -0.1186 ( 89)
           0.1670 ( 92)  0.1224 ( 94)  0.1448 ( 95) -0.1047 ( 97) -0.1033 ( 98)
           0.1210 ( 99)
 CRD  4=  -0.1078 (  1) -0.2336 (  2) -0.5345 (  3)  0.1442 (  7) -0.2206 (  8)
          -0.1727 (  9) -0.2777 ( 12) -0.1267 ( 24) -0.2468 ( 25) -0.1373 ( 26)
          -0.1302 ( 27)  0.1483 ( 29) -0.1076 ( 30) -0.1541 ( 31) -0.1023 ( 32)
           0.1126 ( 33)  0.2617 ( 34)  0.1045 ( 36) -0.1298 ( 37) -0.1369 ( 39)
          -0.1037 ( 49)  0.1433 ( 56)  0.1344 ( 57)  0.1436 ( 58)
 CRD  5=   0.3036 (  1)  0.2711 (  2)  0.4227 (  7)  0.1106 ( 10)  0.2955 ( 11)
           0.2298 ( 12)  0.1366 ( 13)  0.1143 ( 15)  0.1045 ( 16)  0.1063 ( 18)
          -0.1311 ( 25)  0.1564 ( 26)  0.1570 ( 28)  0.2103 ( 29) -0.2316 ( 31)
           0.1354 ( 34) -0.1034 ( 35)  0.1044 ( 36)  0.1451 ( 40)  0.1340 ( 42)
           0.1076 ( 45) -0.1507 ( 46)  0.1274 ( 49) -0.1893 ( 52) -0.1457 ( 55)
 CRD  6=   0.1052 ( 60) -0.1833 ( 61)  0.2348 ( 62) -0.3554 ( 63)  0.1305 ( 66)
          -0.1695 ( 69)  0.1766 ( 70)  0.1767 ( 71)  0.1915 ( 72) -0.1642 ( 73)
           0.1058 ( 75) -0.1947 ( 77)  0.2039 ( 78)  0.1243 ( 79)  0.1055 ( 83)
           0.2463 ( 86) -0.2140 ( 87) -0.1675 ( 88)  0.1707 ( 90) -0.1820 ( 91)
          -0.3255 ( 96)  0.2363 ( 97) -0.1803 (100)
 CRD  7=  -0.1087 (  1)  0.1907 (  2) -0.1732 (  3) -0.1850 (  7) -0.2009 (  8)
           0.1511 ( 10) -0.2914 ( 11)  0.2049 ( 12)  0.1353 ( 13)  0.1350 ( 16)
          -0.1638 ( 17)  0.1149 ( 22) -0.2679 ( 23) -0.1327 ( 24)  0.1357 ( 25)
           0.1273 ( 26) -0.1338 ( 27)  0.1247 ( 28) -0.2283 ( 33)  0.2160 ( 35)
          -0.1558 ( 36) -0.2603 ( 41)  0.1803 ( 42) -0.2019 ( 43)  0.1037 ( 44)
           0.1432 ( 47) -0.1841 ( 51)  0.1020 ( 53)  0.1119 ( 57)
 CRD  8=  -0.4480 ( 24)  0.4464 ( 27)  0.1480 ( 56) -0.1485 ( 58) -0.1686 ( 59)
          -0.1763 ( 60) -0.1273 ( 62) -0.1570 ( 64)  0.1890 ( 65)  0.1072 ( 72)
           0.1077 ( 74)  0.1211 ( 75)  0.1723 ( 76)  0.1127 ( 77) -0.1134 ( 81)
          -0.1128 ( 85)  0.1306 ( 86)  0.1282 ( 89) -0.1801 ( 92) -0.1339 ( 94)
          -0.2290 ( 95)  0.1704 ( 97)  0.1570 ( 98)  0.1230 (100) -0.1163 (101)
 CRD  9=  -0.1265 (  9)  0.2624 ( 13) -0.1126 ( 16)  0.3361 ( 18)  0.4555 ( 20)
           0.2185 ( 21)  0.2211 ( 22)  0.1096 ( 28)  0.1071 ( 32) -0.2715 ( 36)
          -0.2871 ( 39) -0.1469 ( 44) -0.1265 ( 46) -0.1124 ( 47) -0.1452 ( 51)
           0.1645 ( 52)  0.1954 ( 53)  0.2403 ( 54)  0.1999 ( 55)
 CRD 10=  -0.4298 (  9) -0.1008 ( 10) -0.1249 ( 13) -0.2424 ( 15) -0.3929 ( 16)
          -0.1271 ( 17)  0.3115 ( 28) -0.1158 ( 33)  0.1294 ( 36)  0.1948 ( 37)
          -0.1196 ( 38)  0.1061 ( 39) -0.1275 ( 40)  0.2601 ( 41)  0.1094 ( 44)
          -0.2759 ( 46) -0.3061 ( 47)
 CRD 11=  -0.3734 ( 13) -0.1589 ( 14)  0.3354 ( 18)  0.1305 ( 32)  0.1963 ( 36)
          -0.2313 ( 39) -0.2728 ( 45)  0.3501 ( 50) -0.1274 ( 51) -0.3269 ( 52)
          -0.2227 ( 53)  0.1777 ( 54)  0.2926 ( 55)
 CRD 12=  -0.2123 (  1)  0.1318 (  6)  0.1502 (  7)  0.2399 (  8)  0.1523 ( 14)
           0.1413 ( 16)  0.1365 ( 17)  0.1659 ( 19)  0.3111 ( 20) -0.2222 ( 24)
           0.4228 ( 26) -0.2244 ( 27) -0.1435 ( 28) -0.1030 ( 32)  0.2129 ( 36)
          -0.1368 ( 38) -0.1161 ( 40) -0.1136 ( 42) -0.2376 ( 45)  0.1310 ( 46)
          -0.1260 ( 50) -0.1098 ( 52)  0.1697 ( 54)  0.1777 ( 57)
 CRD 13=   0.2898 (  9)  0.1218 ( 10)  0.1002 ( 14) -0.2491 ( 16)  0.1692 ( 20)
          -0.1376 ( 23) -0.1503 ( 28)  0.4334 ( 38)  0.1500 ( 39)  0.1469 ( 41)
           0.1381 ( 42) -0.1064 ( 45) -0.2850 ( 46)  0.2879 ( 47) -0.4421 ( 48)
          -0.1348 ( 50)
 CRD 14=  -0.2239 (  1)  0.1104 (  6)  0.1660 ( 13) -0.1735 ( 16)  0.1806 ( 18)
          -0.2288 ( 20) -0.1585 ( 24)  0.3374 ( 26) -0.1606 ( 27) -0.1840 ( 28)
          -0.1684 ( 36)  0.1223 ( 38) -0.2088 ( 39)  0.1789 ( 41)  0.2886 ( 45)
          -0.1079 ( 46)  0.1543 ( 47) -0.1722 ( 48)  0.2574 ( 50)  0.1283 ( 52)
          -0.2564 ( 53) -0.2350 ( 54)  0.1592 ( 55)  0.1294 ( 57)
 CRD 15=  -0.1142 (  1) -0.2036 (  8) -0.1043 ( 12) -0.2089 ( 13) -0.2850 ( 14)
          -0.1165 ( 16) -0.2101 ( 18) -0.2958 ( 19)  0.1801 ( 26)  0.2552 ( 32)
          -0.1443 ( 35)  0.2611 ( 40)  0.1293 ( 41) -0.1114 ( 43) -0.1553 ( 44)
          -0.1351 ( 45)  0.1042 ( 49) -0.1748 ( 50) -0.1054 ( 51) -0.2261 ( 52)
           0.2802 ( 53)  0.2904 ( 54) -0.2287 ( 55)
 CRD 16=   0.1518 (  2)  0.1235 (  7)  0.3440 ( 10) -0.1538 ( 12) -0.3146 ( 15)
           0.1030 ( 16)  0.2759 ( 17)  0.1970 ( 21) -0.1663 ( 22) -0.2649 ( 23)
          -0.1588 ( 26)  0.1837 ( 28)  0.3524 ( 37) -0.1777 ( 38)  0.1100 ( 41)
          -0.2161 ( 42) -0.1838 ( 44)  0.1061 ( 46) -0.1747 ( 48)  0.1544 ( 51)
 CRD 17=   0.1606 (  4) -0.1613 (  5) -0.3036 ( 24)  0.3021 ( 27)  0.1748 ( 56)
          -0.1754 ( 58)  0.2134 ( 59)  0.1003 ( 61)  0.1712 ( 63)  0.1486 ( 64)
          -0.2533 ( 65) -0.1144 ( 67)  0.1421 ( 68) -0.2006 ( 73) -0.1529 ( 75)
          -0.1947 ( 76) -0.1272 ( 77) -0.1702 ( 78) -0.1543 ( 79)  0.1407 ( 81)
           0.1269 ( 84)  0.1409 ( 85)  0.1576 ( 87)  0.1255 ( 88)  0.1237 ( 91)
           0.1193 ( 95) -0.2441 ( 97) -0.1677 ( 98) -0.1033 (100)
 CRD 18=  -0.1111 (  3)  0.1680 ( 11)  0.1143 ( 13)  0.1878 ( 14)  0.2614 ( 17)
          -0.2521 ( 19) -0.2978 ( 21)  0.3416 ( 22) -0.1339 ( 26) -0.1149 ( 32)
           0.1033 ( 36)  0.1352 ( 37) -0.1705 ( 39)  0.2047 ( 40)  0.2028 ( 41)
          -0.1899 ( 42)  0.2889 ( 44) -0.1283 ( 45)  0.1432 ( 50) -0.3180 ( 51)
           0.1748 ( 53) -0.1606 ( 54)
 CRD 19=  -0.1000 ( 24) -0.1682 ( 67) -0.1774 ( 69) -0.3243 ( 70) -0.3245 ( 71)
          -0.3336 ( 72) -0.1205 ( 77)  0.1024 ( 80) -0.3336 ( 81)  0.1123 ( 82)
           0.1414 ( 83) -0.3429 ( 84) -0.3338 ( 85) -0.1258 ( 89)  0.1428 ( 90)
          -0.1060 ( 91)  0.1055 ( 92)  0.1094 ( 95) -0.1166 ( 96)  0.1137 (106)
 CRD 20=  -0.3916 (  4) -0.3912 (  5) -0.3829 (  6)  0.1388 ( 10) -0.1400 ( 12)
           0.1113 ( 14) -0.1129 ( 23)  0.2199 ( 24)  0.2476 ( 26)  0.2198 ( 27)
           0.1322 ( 34) -0.2543 ( 56) -0.2257 ( 57) -0.2546 ( 58)
 CRD 21=  -0.1059 ( 24)  0.1113 ( 27)  0.1023 ( 56) -0.1021 ( 58)  0.2333 ( 59)
          -0.1402 ( 61) -0.1382 ( 62)  0.1373 ( 64) -0.1563 ( 65)  0.2997 ( 74)
           0.2040 ( 75)  0.2116 ( 79) -0.1178 ( 83) -0.1319 ( 86) -0.1849 ( 88)
          -0.2641 ( 89) -0.2155 ( 90) -0.1877 ( 91) -0.1538 ( 93)  0.1449 ( 95)
           0.2026 ( 96)  0.1351 ( 98)  0.1071 (100)  0.1063 (101) -0.2825 (102)
           0.2886 (103)  0.1058 (104)  0.1575 (105) -0.1181 (106) -0.1499 (107)
 CRD 22=   0.2162 (  1)  0.2087 (  2)  0.1506 (  4)  0.1491 (  5)  0.1686 (  6)
          -0.2289 (  7)  0.2501 ( 10)  0.2223 ( 11) -0.2610 ( 12) -0.1763 ( 13)
           0.2085 ( 15)  0.1634 ( 16) -0.1584 ( 18) -0.2336 ( 21) -0.1949 ( 22)
          -0.1222 ( 24)  0.1038 ( 26) -0.1179 ( 27)  0.1198 ( 28) -0.1660 ( 30)
          -0.1167 ( 32)  0.1009 ( 34) -0.1039 ( 36) -0.1286 ( 39)  0.1006 ( 42)
          -0.1986 ( 46)  0.2206 ( 52)  0.2041 ( 55)  0.1747 ( 57)
 CRD 23=  -0.2210 (  4) -0.2160 (  5)  0.6393 (  6)  0.1940 ( 56) -0.4021 ( 57)
           0.1904 ( 58) -0.2203 ( 70)  0.2215 ( 71) -0.2203 ( 81)  0.2215 ( 85)
 CRD 24=   0.5167 (  4) -0.5201 (  5) -0.3403 ( 56)  0.3422 ( 58) -0.1300 ( 70)
          -0.1277 ( 71)  0.2626 ( 72) -0.1403 ( 81)  0.2524 ( 84) -0.1380 ( 85)
 CRD 25=   0.1116 (  1) -0.3344 (  3) -0.3256 (  4) -0.3244 (  5) -0.1091 (  6)
          -0.2396 (  7)  0.1249 (  8)  0.1398 (  9)  0.1676 ( 11)  0.1211 ( 12)
          -0.3066 ( 14)  0.2021 ( 15)  0.2726 ( 17)  0.2270 ( 19)  0.1030 ( 23)
           0.1224 ( 29)  0.1028 ( 32) -0.1885 ( 36)  0.1135 ( 41) -0.1872 ( 47)
          -0.1649 ( 49)
 CRD 26=  -0.1367 ( 59)  0.1115 ( 63) -0.2152 ( 64)  0.1599 ( 67)  0.1903 ( 69)
           0.1106 ( 72) -0.1814 ( 78) -0.1116 ( 79)  0.2403 ( 82)  0.1963 ( 83)
           0.1415 ( 84) -0.1164 ( 87) -0.1902 ( 88)  0.1163 ( 90)  0.1500 ( 93)
           0.2227 ( 94) -0.3192 ( 99)  0.2916 (101) -0.2356 (102) -0.2407 (104)
          -0.1128 (105)  0.1604 (106) -0.1619 (107)  0.2189 (108)
 CRD 27=   0.1345 ( 61)  0.1245 ( 64) -0.1277 ( 67)  0.2380 ( 76)  0.1449 ( 77)
          -0.1218 ( 78) -0.1857 ( 79) -0.2756 ( 82) -0.1807 ( 83) -0.2105 ( 87)
          -0.1452 ( 88)  0.1736 ( 89) -0.1205 ( 90)  0.2853 ( 93)  0.2209 ( 94)
           0.1249 ( 97)  0.1140 ( 98)  0.1899 ( 99)  0.1508 (100)  0.1579 (101)
          -0.1341 (102) -0.2831 (103)  0.1307 (104) -0.2193 (105) -0.2154 (106)
          -0.1994 (107)  0.2223 (108)
 CRD 28=  -0.1950 (  1)  0.1190 (  4)  0.1180 (  5) -0.1214 (  6) -0.1813 ( 10)
           0.1277 ( 11)  0.1370 ( 13) -0.1589 ( 14)  0.1061 ( 15)  0.1523 ( 16)
          -0.1731 ( 18)  0.1564 ( 19)  0.1116 ( 21) -0.2161 ( 22)  0.1273 ( 25)
          -0.1071 ( 26) -0.1823 ( 28)  0.1047 ( 29)  0.1553 ( 30) -0.1896 ( 31)
          -0.1944 ( 33)  0.2467 ( 35)  0.1230 ( 36) -0.1278 ( 38) -0.1660 ( 39)
           0.2191 ( 41) -0.2320 ( 43) -0.2563 ( 46)  0.1929 ( 47)  0.1216 ( 48)
          -0.1041 ( 50) -0.1678 ( 52)  0.1164 ( 53)  0.2372 ( 55)
 CRD 29=  -0.1018 (  1)  0.1036 (  2) -0.1621 (  3) -0.1130 (  4) -0.1128 (  5)
          -0.1076 (  6)  0.1562 (  8)  0.1680 (  9) -0.1231 ( 10) -0.1754 ( 11)
           0.2513 ( 14)  0.3841 ( 15)  0.1154 ( 16) -0.1760 ( 17) -0.3715 ( 19)
           0.2544 ( 21) -0.1321 ( 22)  0.2232 ( 25)  0.1594 ( 28) -0.1591 ( 29)
           0.1389 ( 31) -0.1367 ( 33) -0.1728 ( 34) -0.1831 ( 47)  0.1070 ( 49)
 CRD 30=   0.1654 (  2) -0.1320 (  8) -0.1304 (  9) -0.3910 ( 10)  0.1446 ( 12)
           0.3150 ( 14) -0.1833 ( 15)  0.3189 ( 17) -0.1076 ( 20) -0.1400 ( 21)
          -0.4200 ( 22) -0.1738 ( 36)  0.1818 ( 38) -0.1378 ( 41) -0.2316 ( 45)
           0.1062 ( 46) -0.1773 ( 48)  0.1475 ( 52)  0.2294 ( 54)
 CRD 31=  -0.1492 (  2) -0.2007 (  7)  0.2579 ( 10)  0.1154 ( 13) -0.1056 ( 16)
          -0.1815 ( 18) -0.2371 ( 19)  0.4285 ( 21) -0.1227 ( 22) -0.1439 ( 28)
           0.1414 ( 29)  0.1014 ( 35) -0.1305 ( 38)  0.1751 ( 39) -0.2326 ( 45)
           0.1161 ( 47)  0.1768 ( 48) -0.1698 ( 49)  0.3172 ( 50) -0.2747 ( 53)
           0.1752 ( 54) -0.1322 ( 55)
 CRD 32=   0.1104 (  6) -0.1245 (  7) -0.1413 (  8) -0.2107 (  9) -0.1917 ( 10)
          -0.1135 ( 12) -0.1037 ( 14)  0.1244 ( 15)  0.1586 ( 16)  0.4672 ( 17)
          -0.1000 ( 18)  0.1334 ( 20)  0.3197 ( 21)  0.3013 ( 22)  0.1680 ( 28)
          -0.1247 ( 30)  0.1410 ( 34)  0.1786 ( 36)  0.2259 ( 38)  0.1295 ( 39)
           0.1067 ( 45) -0.2091 ( 48) -0.1220 ( 54)
 CRD 33=  -0.1912 ( 59) -0.1480 ( 61) -0.1624 ( 67) -0.2944 ( 69)  0.1075 ( 70)
           0.1077 ( 71)  0.1431 ( 72)  0.1999 ( 74)  0.1234 ( 76) -0.3256 ( 78)
          -0.1477 ( 82)  0.3162 ( 87) -0.1243 ( 89)  0.2727 ( 90) -0.2636 ( 93)
           0.1795 ( 98)  0.2352 ( 99)  0.1437 (100)  0.2612 (101) -0.1925 (102)
           0.1364 (103) -0.1283 (105)
 CRD 34=   0.3032 (  2) -0.1447 (  6)  0.3124 (  8) -0.3034 ( 10) -0.1270 ( 12)
          -0.1501 ( 13) -0.3594 ( 14) -0.2756 ( 15) -0.1663 ( 17) -0.3757 ( 19)
           0.2234 ( 20)  0.1470 ( 22) -0.1455 ( 28) -0.1183 ( 31) -0.1012 ( 41)
           0.1212 ( 47)  0.1550 ( 52) -0.1194 ( 53)
 CRD 35=  -0.1851 (  1)  0.2072 (  2)  0.1921 (  7) -0.2646 ( 11) -0.2235 ( 12)
           0.3654 ( 15)  0.1117 ( 18) -0.1836 ( 21)  0.2451 ( 22) -0.1994 ( 36)
          -0.1469 ( 38)  0.2348 ( 39)  0.2287 ( 41) -0.1915 ( 46)  0.1071 ( 47)
           0.1704 ( 52) -0.1543 ( 53)  0.1790 ( 54) -0.2306 ( 55)
 CRD 36=  -0.2301 (  1) -0.2169 (  2)  0.1166 (  4)  0.1165 (  5)  0.1004 (  6)
           0.1875 (  7)  0.1807 (  8)  0.1845 ( 10) -0.1379 ( 11)  0.2047 ( 12)
           0.1470 ( 13) -0.3644 ( 14)  0.2696 ( 15)  0.1114 ( 18) -0.3124 ( 19)
           0.2186 ( 20) -0.2715 ( 21) -0.2956 ( 22)  0.1033 ( 24)  0.1013 ( 26)
           0.1033 ( 27) -0.1054 ( 56) -0.1182 ( 57) -0.1055 ( 58)
 CRD 37=   0.1538 (  1)  0.2682 (  3) -0.1685 (  4) -0.1686 (  5) -0.1607 (  6)
          -0.1371 (  8) -0.2338 (  9)  0.1850 ( 10) -0.1819 ( 11)  0.1152 ( 12)
          -0.1549 ( 16)  0.3812 ( 17)  0.1248 ( 18) -0.2059 ( 19)  0.1415 ( 20)
          -0.1265 ( 21) -0.1002 ( 22) -0.1663 ( 24) -0.1568 ( 26) -0.1664 ( 27)
          -0.2144 ( 28) -0.1470 ( 34)  0.1436 ( 42)  0.1165 ( 45) -0.1007 ( 46)
           0.1426 ( 47)  0.1083 ( 48)  0.1722 ( 56)  0.1790 ( 57)  0.1721 ( 58)
 CRD 38=  -0.3825 (  1)  0.2945 (  2) -0.1614 (  6) -0.1349 (  8)  0.2434 ( 10)
           0.2309 ( 11)  0.1654 ( 12) -0.2948 ( 13)  0.1473 ( 15) -0.3639 ( 16)
          -0.2306 ( 18)  0.1691 ( 21)  0.1114 ( 22)  0.1004 ( 23)  0.1084 ( 30)
          -0.1113 ( 39) -0.1847 ( 41)  0.1944 ( 46)  0.1456 ( 55) -0.1049 ( 57)
 CRD 39=  -0.2506 (  4)  0.2521 (  5) -0.1734 ( 56)  0.1746 ( 58)  0.2361 ( 59)
           0.1522 ( 61) -0.1250 ( 68)  0.2073 ( 72)  0.2209 ( 74)  0.1145 ( 75)
          -0.3086 ( 76) -0.1810 ( 81)  0.2755 ( 82) -0.1796 ( 85)  0.1019 ( 86)
           0.2279 ( 89) -0.1702 ( 90) -0.1488 ( 92)  0.1025 ( 98) -0.1900 (100)
          -0.1342 (102) -0.1413 (103)  0.2666 (104) -0.1228 (105) -0.1230 (107)
 CRD 40=   0.3212 (  7) -0.4261 (  8)  0.2959 (  9) -0.1405 ( 10)  0.1085 ( 11)
           0.1162 ( 12) -0.1477 ( 14) -0.1355 ( 15) -0.2539 ( 18)  0.3762 ( 20)
          -0.1421 ( 21)  0.1333 ( 25)  0.1584 ( 28) -0.1651 ( 29)  0.1152 ( 41)
          -0.1276 ( 49)  0.2117 ( 50) -0.1812 ( 53)
 CRD 41=  -0.1454 (  1) -0.1183 (  2)  0.3102 (  3) -0.1288 (  6)  0.1537 (  7)
           0.1075 (  8) -0.2376 (  9)  0.2220 ( 10)  0.1232 ( 11) -0.2431 ( 12)
           0.2407 ( 13) -0.2419 ( 14)  0.1298 ( 16) -0.1898 ( 18)  0.2562 ( 19)
          -0.1047 ( 20) -0.1071 ( 24) -0.1071 ( 27) -0.1272 ( 32) -0.1092 ( 33)
           0.1879 ( 38)  0.1277 ( 40) -0.1976 ( 45)  0.1099 ( 46) -0.1794 ( 48)
           0.1090 ( 49)  0.1158 ( 50) -0.1317 ( 53)  0.1831 ( 54)  0.1207 ( 56)
           0.1207 ( 58)
 CRD 42=   0.1816 (  1) -0.3034 (  2)  0.1335 (  6)  0.3286 (  7)  0.1255 (  8)
          -0.1556 (  9) -0.1711 ( 11)  0.2267 ( 12) -0.2842 ( 13)  0.1294 ( 16)
          -0.3009 ( 18)  0.2505 ( 22)  0.1067 ( 25) -0.2684 ( 36) -0.1867 ( 39)
          -0.1883 ( 43)  0.1520 ( 51)  0.1693 ( 52)  0.2319 ( 55)
 CRD 43=   0.1518 (  1)  0.1429 (  3) -0.1093 (  9) -0.1999 ( 10) -0.2341 ( 11)
           0.2085 ( 12) -0.1226 ( 13) -0.1491 ( 14)  0.2426 ( 15)  0.1708 ( 19)
           0.2658 ( 21) -0.1699 ( 22) -0.1774 ( 23) -0.1651 ( 25) -0.1567 ( 32)
           0.1905 ( 33) -0.2444 ( 35)  0.1930 ( 37) -0.1254 ( 38) -0.1710 ( 39)
           0.1778 ( 40) -0.1277 ( 42)  0.1817 ( 43)  0.2155 ( 44)  0.1851 ( 47)
          -0.1739 ( 51)  0.1431 ( 52)  0.1071 ( 53) -0.1267 ( 54)
 CRD 44=   0.2490 ( 59) -0.2078 ( 61)  0.1451 ( 66)  0.1807 ( 67)  0.1572 ( 69)
          -0.1520 ( 74) -0.2773 ( 78)  0.1689 ( 86)  0.1276 ( 87) -0.1159 ( 89)
          -0.2757 ( 90) -0.1407 ( 93) -0.1865 ( 95) -0.1234 ( 96)  0.1939 ( 97)
          -0.1975 ( 99) -0.1300 (100)  0.2796 (101)  0.1640 (102)  0.1256 (103)
          -0.1669 (105) -0.2690 (106)  0.2975 (107)  0.1481 (108)
 CRD 45=   0.1567 (  1)  0.1048 (  2) -0.2932 (  3)  0.1233 (  6)  0.1393 (  9)
          -0.1198 ( 12)  0.2296 ( 13) -0.2161 ( 14) -0.3321 ( 16)  0.2913 ( 17)
          -0.1418 ( 18)  0.1533 ( 19) -0.1132 ( 20) -0.1734 ( 29) -0.1633 ( 32)
          -0.1463 ( 33) -0.1225 ( 34)  0.1132 ( 36) -0.1630 ( 38) -0.1007 ( 39)
           0.1014 ( 40) -0.1782 ( 41)  0.2245 ( 42) -0.1526 ( 45)  0.1955 ( 48)
           0.2138 ( 49)  0.1259 ( 54)
 CRD 46=   0.1376 (  4) -0.1388 (  5)  0.1485 ( 60)  0.1143 ( 61)  0.1933 ( 62)
          -0.1767 ( 63)  0.1421 ( 67)  0.2055 ( 69) -0.1923 ( 72)  0.1978 ( 74)
          -0.1263 ( 80) -0.1281 ( 84)  0.2757 ( 87)  0.2271 ( 89) -0.2498 ( 93)
          -0.1320 ( 96)  0.2429 ( 98) -0.1390 ( 99) -0.2628 (102) -0.2886 (103)
          -0.1372 (104) -0.2236 (105) -0.3140 (108)
 CRD 47=  -0.1318 (  2)  0.2271 (  3) -0.1145 (  4) -0.1129 (  5) -0.2210 ( 10)
           0.2375 ( 11)  0.1808 ( 13)  0.2288 ( 15) -0.2882 ( 16) -0.1448 ( 19)
          -0.1524 ( 20) -0.1172 ( 21)  0.2127 ( 22) -0.2385 ( 23)  0.1011 ( 28)
           0.1583 ( 34)  0.2182 ( 37) -0.1909 ( 38) -0.1658 ( 40) -0.1266 ( 44)
           0.1756 ( 46)  0.1374 ( 47) -0.1276 ( 50)  0.2045 ( 51)  0.1539 ( 54)
           0.1433 ( 55)  0.1471 ( 57)
 CRD 48=  -0.2209 (  1)  0.2171 (  3)  0.1609 (  7)  0.3169 (  9) -0.1354 ( 11)
          -0.1503 ( 14) -0.2006 ( 15)  0.1119 ( 17)  0.2137 ( 18) -0.1528 ( 19)
          -0.3539 ( 20)  0.2180 ( 21)  0.1824 ( 28) -0.1528 ( 32)  0.1156 ( 34)
          -0.1736 ( 37) -0.1228 ( 40)  0.1169 ( 42)  0.1912 ( 44) -0.1971 ( 45)
          -0.1660 ( 46) -0.1617 ( 47)  0.1662 ( 48) -0.1909 ( 50)  0.1843 ( 52)
           0.1661 ( 53)
 CRD 49=   0.1063 (  4)  0.1047 (  5) -0.2238 (  6) -0.2270 (  7) -0.2584 ( 11)
           0.3106 ( 12)  0.2566 ( 13)  0.1396 ( 16) -0.2655 ( 18) -0.1610 ( 21)
           0.1828 ( 22) -0.1356 ( 25)  0.1030 ( 26)  0.1655 ( 33) -0.1688 ( 35)
           0.1305 ( 36) -0.1527 ( 39)  0.1211 ( 41)  0.1625 ( 43) -0.1673 ( 44)
          -0.1144 ( 46)  0.1881 ( 51) -0.1330 ( 52) -0.1519 ( 53)  0.1609 ( 54)
           0.1697 ( 55) -0.1483 ( 57) -0.1324 ( 70)  0.1331 ( 71) -0.1325 ( 81)
           0.1330 ( 85)
 CRD 50=  -0.1308 (  1) -0.1717 (  2)  0.2217 (  3) -0.1404 (  7)  0.3555 (  8)
           0.2383 (  9) -0.1469 ( 11) -0.1576 ( 12) -0.1274 ( 13)  0.1626 ( 14)
          -0.1269 ( 16)  0.1626 ( 17) -0.1120 ( 18)  0.1593 ( 19)  0.2243 ( 20)
          -0.1001 ( 25)  0.1517 ( 28)  0.2071 ( 29) -0.1042 ( 31)  0.1829 ( 32)
          -0.1037 ( 33)  0.1953 ( 34) -0.1063 ( 36)  0.1782 ( 40) -0.1005 ( 41)
           0.1817 ( 42) -0.1069 ( 43)  0.1371 ( 45)  0.1411 ( 48)  0.1961 ( 49)
           0.1368 ( 50)
 CRD 51=  -0.2312 (  1)  0.2579 (  2) -0.2444 (  4)  0.3245 (  6) -0.1634 (  7)
           0.1166 ( 10) -0.1232 ( 11)  0.1015 ( 12)  0.1084 ( 16)  0.1231 ( 23)
          -0.1287 ( 25) -0.2172 ( 26)  0.1553 ( 27)  0.2259 ( 30) -0.2196 ( 31)
          -0.1722 ( 56)  0.2246 ( 57)  0.1649 ( 70) -0.2671 ( 71)  0.1861 ( 81)
          -0.2459 ( 85)
 CRD 52=  -0.2228 (  4)  0.3219 (  5) -0.1004 (  6) -0.1757 ( 24)  0.1069 ( 27)
          -0.1531 ( 56)  0.2235 ( 58) -0.2176 ( 65)  0.1762 ( 68)  0.1055 ( 69)
          -0.2330 ( 70)  0.1718 ( 72) -0.1492 ( 73)  0.1853 ( 76)  0.1036 ( 78)
           0.1070 ( 80) -0.1638 ( 81) -0.2300 ( 82)  0.2409 ( 84)  0.1116 ( 92)
           0.1057 ( 95) -0.1768 ( 99)  0.1793 (100) -0.2245 (104) -0.1814 (106)
          -0.1013 (108)
 CRD 53=  -0.1519 ( 59)  0.1738 ( 61) -0.1461 ( 63)  0.1122 ( 64) -0.1252 ( 65)
          -0.1360 ( 67) -0.1031 ( 70) -0.1025 ( 71) -0.1132 ( 74)  0.2027 ( 75)
           0.1296 ( 77)  0.2125 ( 79) -0.1878 ( 83)  0.1638 ( 84) -0.1310 ( 86)
          -0.1922 ( 88)  0.1228 ( 89) -0.1971 ( 91) -0.1893 ( 93)  0.1931 ( 96)
           0.1393 ( 97) -0.1766 ( 98)  0.1229 ( 99)  0.1942 (101)  0.1301 (102)
          -0.1100 (103) -0.1413 (104) -0.3226 (105)  0.2889 (106)  0.3064 (107)
 CRD 54=   0.1968 ( 60) -0.1072 ( 61) -0.1126 ( 63)  0.2307 ( 64)  0.1999 ( 67)
          -0.1183 ( 68)  0.1560 ( 69) -0.1384 ( 73)  0.1405 ( 74) -0.1088 ( 77)
          -0.1609 ( 78)  0.1383 ( 79) -0.1129 ( 82) -0.1036 ( 83) -0.1069 ( 84)
           0.1353 ( 86) -0.1492 ( 87)  0.2052 ( 88)  0.1010 ( 89)  0.1301 ( 90)
          -0.1796 ( 92) -0.2921 ( 94) -0.1465 ( 97)  0.1329 (103) -0.2886 (104)
          -0.1664 (105)  0.1207 (106) -0.2617 (107)  0.3525 (108)
 CRD 55=  -0.2405 ( 61)  0.1185 ( 62)  0.2046 ( 64) -0.1145 ( 65)  0.1901 ( 66)
          -0.1012 ( 76)  0.2522 ( 77) -0.2482 ( 79) -0.3191 ( 83) -0.1018 ( 89)
           0.1775 ( 91)  0.1541 ( 94) -0.2013 ( 95)  0.1114 ( 97)  0.2109 ( 98)
          -0.2888 (100) -0.1913 (104)  0.2572 (105)  0.3367 (106) -0.1454 (108)
 CRD 56=  -0.1564 ( 62)  0.1224 ( 63)  0.1918 ( 64) -0.1243 ( 66)  0.2742 ( 67)
          -0.1298 ( 68)  0.1343 ( 70)  0.1339 ( 71) -0.2422 ( 73)  0.2451 ( 75)
          -0.1696 ( 79)  0.1264 ( 80) -0.1220 ( 81) -0.2217 ( 84) -0.1225 ( 85)
           0.1319 ( 86) -0.2855 ( 88)  0.1278 ( 91) -0.1617 ( 92)  0.2498 ( 94)
           0.1061 ( 96) -0.2349 ( 98)  0.1723 (100) -0.1710 (104)  0.1516 (105)
           0.2639 (107) -0.2090 (108)
 CRD 57=  -0.2870 ( 60)  0.2475 ( 61)  0.1771 ( 64) -0.2737 ( 66)  0.1866 ( 67)
           0.1667 ( 70)  0.1664 ( 71)  0.1025 ( 72) -0.2420 ( 73) -0.2119 ( 75)
           0.2244 ( 77)  0.1610 ( 79)  0.2971 ( 80) -0.1646 ( 83) -0.1556 ( 84)
           0.1322 ( 88) -0.2372 ( 91)  0.2590 ( 92) -0.1074 ( 94)  0.1696 ( 98)
          -0.1745 (100) -0.1123 (104) -0.1054 (105)  0.1105 (106)

 THE DETERMINANT OF THE G MATRIX IS 10**(   -26)


                     --------------------
                     INTERNAL COORDINATES
                     --------------------

                 - - ATOMS - -         COORDINATE      COORDINATE
 NO.   TYPE    I  J  K  L  M  N        (BOHR,RAD)       (ANG,DEG)
 ----------------------------------------------------------------
   1 STRETCH   1  4                     2.5977773       1.3746846
   2 STRETCH   1  3                     2.7014378       1.4295394
   3 STRETCH   1  2                     2.8101979       1.4870928
   4 STRETCH   2 13                     2.0768257       1.0990089
   5 STRETCH   2 12                     2.0766774       1.0989304
   6 STRETCH   2 14                     2.0760456       1.0985961
   7 STRETCH   3  6                     2.6875610       1.4221962
   8 STRETCH   3  5                     2.6683730       1.4120423
   9 STRETCH   4  7                     2.6690046       1.4123765
  10 STRETCH   4 15                     2.0720090       1.0964600
  11 STRETCH   5  8                     2.6849486       1.4208137
  12 STRETCH   5  9                     2.6859365       1.4213365
  13 STRETCH   6 10                     2.5863485       1.3686368
  14 STRETCH   6 16                     2.0716650       1.0962780
  15 STRETCH   7 17                     2.0689879       1.0948613
  16 STRETCH   7  8                     2.5836537       1.3672108
  17 STRETCH   8 18                     2.0706846       1.0957592
  18 STRETCH   9 11                     2.5849660       1.3679052
  19 STRETCH   9 19                     2.0709976       1.0959248
  20 STRETCH  10 11                     2.6709893       1.4134268
  21 STRETCH  10 20                     2.0691043       1.0949229
  22 STRETCH  11 21                     2.0687444       1.0947325
  23 BEND      1  4  7                  2.1127604     121.0522531
  24 BEND      1  2 12                  1.9383358     111.0584596
  25 BEND      1  3  5                  2.0774262     119.0277517
  26 BEND      1  2 14                  1.9560615     112.0740699
  27 BEND      1  2 13                  1.9393130     111.1144506
  28 BEND      1  4 15                  2.0996686     120.3021519
  29 BEND      1  3  6                  2.1371635     122.4504482
  30 BEND      2  1  4                  2.0883356     119.6528146
  31 BEND      2  1  3                  2.1073519     120.7423693
  32 BEND      3  6 10                  2.1076037     120.7567975
  33 BEND      3  5  8                  2.0914929     119.8337144
  34 BEND      3  1  4                  2.0874978     119.6048145
  35 BEND      3  5  9                  2.0886826     119.6726997
  36 BEND      3  6 16                  2.0807208     119.2165185
  37 BEND      4  7  8                  2.1007558     120.3644390
  38 BEND      4  7 17                  2.0760293     118.9477167
  39 BEND      5  9 19                  2.0734618     118.8006110
  40 BEND      5  9 11                  2.1016261     120.4143061
  41 BEND      5  8 18                  2.0762657     118.9612609
  42 BEND      5  8  7                  2.0964375     120.1170202
  43 BEND      5  3  6                  2.0685956     118.5217980
  44 BEND      6 10 11                  2.1030767     120.4974206
  45 BEND      6 10 20                  2.1016473     120.4155225
  46 BEND      7  8 18                  2.1104821     120.9217179
  47 BEND      7  4 15                  2.0707563     118.6455950
  48 BEND      8  7 17                  2.1064002     120.6878442
  49 BEND      8  5  9                  2.1030097     120.4935799
  50 BEND      9 11 21                  2.1058854     120.6583461
  51 BEND      9 11 10                  2.0967858     120.1369761
  52 BEND     10  6 16                  2.0948608     120.0266839
  53 BEND     10 11 21                  2.0805141     119.2046746
  54 BEND     11 10 20                  2.0784612     119.0870568
  55 BEND     11  9 19                  2.1080974     120.7850829
  56 BEND     12  2 14                  1.8732673     107.3303104
  57 BEND     12  2 13                  1.8801482     107.7245569
  58 BEND     13  2 14                  1.8731250     107.3221557
  59 TORSION   1  4  7 17              -3.1415232    -179.9960229
  60 TORSION   1  3  5  8               0.0005283       0.0302685
  61 TORSION   1  3  6 16              -0.0000342      -0.0019592
  62 TORSION   1  3  5  9              -3.1415554    -179.9978657
  63 TORSION   1  3  6 10               3.1415700     179.9987032
  64 TORSION   1  4  7  8               0.0000060       0.0003417
  65 TORSION   2  1  4  7              -3.1415777    -179.9991426
  66 TORSION   2  1  3  6               0.0000136       0.0007796
  67 TORSION   2  1  4 15               0.0000033       0.0001872
  68 TORSION   2  1  3  5               3.1413163     179.9841646
  69 TORSION   3  1  4 15              -3.1413392    -179.9854787
  70 TORSION   3  1  2 13               1.0424809      59.7297586
  71 TORSION   3  1  2 12              -1.0500577     -60.1638763
  72 TORSION   3  1  2 14               3.1380514     179.7971025
  73 TORSION   3  1  4  7               0.0002651       0.0151915
  74 TORSION   3  5  9 19               3.1415913     179.9999204
  75 TORSION   3  5  9 11               0.0000550       0.0031540
  76 TORSION   3  5  8 18               3.1415266     179.9962175
  77 TORSION   3  5  8  7              -0.0002644      -0.0151515
  78 TORSION   3  6 10 20               3.1415425     179.9971236
  79 TORSION   3  6 10 11              -0.0001013      -0.0058012
  80 TORSION   4  1  3  5              -0.0005293      -0.0303290
  81 TORSION   4  1  2 13              -2.0988586    -120.2557410
  82 TORSION   4  7  8 18               3.1413821     179.9879352
  83 TORSION   4  7  8  5              -0.0000082      -0.0004695
  84 TORSION   4  1  2 14              -0.0032881      -0.1883970
  85 TORSION   4  1  2 12               2.0917880     119.8506241
  86 TORSION   4  1  3  6               3.1413533     179.9862860
  87 TORSION   5  9 11 21              -3.1411114    -179.9724251
  88 TORSION   5  9 11 10               0.0001144       0.0065549
  89 TORSION   5  3  6 16              -3.1413383    -179.9854245
  90 TORSION   5  8  7 17               3.1415199     179.9958313
  91 TORSION   5  3  6 10               0.0002660       0.0152379
  92 TORSION   6  3  5  9              -0.0002413      -0.0138231
  93 TORSION   6 10 11 21               3.1411388     179.9739939
  94 TORSION   6 10 11  9              -0.0000923      -0.0052909
  95 TORSION   6  3  5  8              -3.1413429    -179.9856889
  96 TORSION   7  8  5  9              -3.1413620    -179.9867829
  97 TORSION   8  5  9 11               3.1411534     179.9748309
  98 TORSION   8  5  9 19              -0.0004957      -0.0284027
  99 TORSION   8  7  4 15              -3.1415752    -179.9989989
 100 TORSION   9  5  8 18               0.0004291       0.0245862
 101 TORSION   9 11 10 20               3.1414499     179.9918227
 102 TORSION  10 11  9 19              -3.1414207    -179.9901467
 103 TORSION  11 10  6 16               3.1415031     179.9948665
 104 TORSION  15  4  7 17               0.0000809       0.0046365
 105 TORSION  16  6 10 20              -0.0000385      -0.0022086
 106 TORSION  17  7  8 18              -0.0002751      -0.0157640
 107 TORSION  19  9 11 21               0.0005388       0.0308733
 108 TORSION  20 10 11 21              -0.0005043      -0.0288925

     ------------------------------------------
     THE POINT GROUP IS C1 , NAXIS= 1, ORDER= 1
     ------------------------------------------

     DIMENSIONS OF THE SYMMETRY SUBSPACES ARE
 A   =  269

 ..... DONE SETTING UP THE RUN .....
 STEP CPU TIME =     0.02 TOTAL CPU TIME =        0.0 (    0.0 MIN)
 TOTAL WALL CLOCK TIME=        0.0 SECONDS, CPU UTILIZATION IS  66.67%


          -----------------------------
          STATIONARY POINT LOCATION RUN
          -----------------------------

 OBTAINING INITIAL HESSIAN, HESS=GUESS   
 DIAGONAL GUESS HESSIAN IN INTERNAL COORDS IS
     1  0.4966     2  0.4464     3  0.3991     4  0.3404     5  0.3404
     6  0.3406     7  0.4528     8  0.4618     9  0.4615    10  0.3420
    11  0.4540    12  0.4535    13  0.5025    14  0.3422    15  0.3431
    16  0.5039    17  0.3425    18  0.5032    19  0.3424    20  0.4606
    21  0.3431    22  0.3432    23  0.2688    24  0.2261    25  0.2646
    26  0.2261    27  0.2261    28  0.2332    29  0.2638    30  0.2630
    31  0.2589    32  0.2685    33  0.2653    34  0.2675    35  0.2652
    36  0.2302    37  0.2694    38  0.2309    39  0.2303    40  0.2687
    41  0.2304    42  0.2688    43  0.2651    44  0.2692    45  0.2337
    46  0.2337    47  0.2308    48  0.2338    49  0.2645    50  0.2338
    51  0.2693    52  0.2336    53  0.2309    54  0.2309    55  0.2337
    56  0.2025    57  0.2025    58  0.2025    59  0.2500    60  0.2500
    61  0.2500    62  0.2500    63  0.2500    64  0.2500    65  0.2500
    66  0.2500    67  0.2500    68  0.2500    69  0.2500    70  0.2500
    71  0.2500    72  0.2500    73  0.2500    74  0.2500    75  0.2500
    76  0.2500    77  0.2500    78  0.2500    79  0.2500    80  0.2500
    81  0.2500    82  0.2500    83  0.2500    84  0.2500    85  0.2500
    86  0.2500    87  0.2500    88  0.2500    89  0.2500    90  0.2500
    91  0.2500    92  0.2500    93  0.2500    94  0.2500    95  0.2500
    96  0.2500    97  0.2500    98  0.2500    99  0.2500   100  0.2500
   101  0.2500   102  0.2500   103  0.2500   104  0.2500   105  0.2500
   106  0.2500   107  0.2500   108  0.2500
 TRANSFORMING HESSIAN TO SYMMETRY COORDINATES

          PARAMETERS CONTROLLING GEOMETRY SEARCH ARE
          METHOD =QA                  UPHESS =BFGS    
          NNEG   =         0          NFRZ   =         3
          NSTEP  =        50          IFOLOW =         1
          HESS   =GUESS               RESTAR =         F
          IHREP  =         0          HSSEND =         F
          NPRT   =         0          NPUN   =         0
          OPTTOL = 5.000E-04          RMIN   = 1.500E-03
          RMAX   = 1.000E-01          RLIM   = 7.000E-02
          DXMAX  = 3.000E-01          PURIFY =         F
          MOVIE  =         F          TRUPD  =         T
          TRMAX  = 5.000E-01          TRMIN  = 5.000E-02
          ITBMAT =         5          STPT   =         F
          STSTEP = 1.000E-02          PROJCT=          F
          FROZEN COORD(S)=   1   2   3


      ***** EQUILIBRIUM GEOMETRY LOCATED *****
            (SUBJECT TO   3 CONSTRAINT(S))
 COORDINATES OF ALL ATOMS ARE (ANGS)
   ATOM   CHARGE       X              Y              Z
 ------------------------------------------------------------
 C           6.0   2.0676741747   1.2134312480   3.7114417491
 C           6.0   0.6256450282   0.8410954228   3.4600583823
 C           6.0   2.7557716517   2.1148477450   2.8326936436
 C           6.0   2.7380926008   0.6979626319   4.7784678960
 C           6.0   4.1025067287   2.4457491361   3.0916884457
 C           6.0   2.1243141744   2.6945924007   1.6971685855
 C           6.0   4.0919494861   1.0300246430   5.0391033076
 C           6.0   4.7587441209   1.8801257205   4.2204510726
 C           6.0   4.7796358045   3.3393782433   2.2181416345
 C           6.0   2.7965801157   3.5469911705   0.8777542038
 C           6.0   4.1474344405   3.8762296381   1.1411544062
 H           1.0  -0.0176351364   1.7161081415   3.4780331591
 H           1.0   0.5028810714   0.3650126663   2.4915870705
 H           1.0   0.2776422196   0.1524405001   4.2197197588
 H           1.0   2.2338068781   0.0206381161   5.4451722948
 H           1.0   1.1000906843   2.4567090327   1.4814683834
 H           1.0   4.5823595714   0.5989821689   5.8939503679
 H           1.0   5.7858244215   2.1366362054   4.4121649957
 H           1.0   5.8066686683   3.5857156095   2.4241022071
 H           1.0   2.3016049292   3.9748737320   0.0242040335
 H           1.0   4.6676632811   4.5513597529   0.4852970036


                     --------------------
                     INTERNAL COORDINATES
                     --------------------

                 - - ATOMS - -         COORDINATE      COORDINATE
 NO.   TYPE    I  J  K  L  M  N        (BOHR,RAD)       (ANG,DEG)
 ----------------------------------------------------------------
   1 STRETCH   1  4                     2.5728837       1.3615115
   2 STRETCH   1  3                     2.7111003       1.4346526
   3 STRETCH   1  2                     2.8542218       1.5103892
   4 STRETCH   2 13                     2.0524742       1.0861227
   5 STRETCH   2 12                     2.0525762       1.0861767
   6 STRETCH   2 14                     2.0461788       1.0827913
   7 STRETCH   3  6                     2.6886355       1.4227648
   8 STRETCH   3  5                     2.6659670       1.4107691
   9 STRETCH   4  7                     2.6798983       1.4181412
  10 STRETCH   4 15                     2.0331619       1.0759030
  11 STRETCH   5  8                     2.6889164       1.4229134
  12 STRETCH   5  9                     2.6859122       1.4213236
  13 STRETCH   6 10                     2.5702810       1.3601342
  14 STRETCH   6 16                     2.0283978       1.0733820
  15 STRETCH   7 17                     2.0327191       1.0756687
  16 STRETCH   7  8                     2.5615920       1.3555362
  17 STRETCH   8 18                     2.0330552       1.0758466
  18 STRETCH   9 11                     2.5687692       1.3593342
  19 STRETCH   9 19                     2.0334526       1.0760569
  20 STRETCH  10 11                     2.6742027       1.4151272
  21 STRETCH  10 20                     2.0323402       1.0754682
  22 STRETCH  11 21                     2.0323014       1.0754477
  23 BEND      1  4  7                  2.1240651     121.6999659
  24 BEND      1  2 12                  1.9434545     111.3517379
  25 BEND      1  3  5                  2.0860809     119.5236313
  26 BEND      1  2 14                  1.9250223     110.2956558
  27 BEND      1  2 13                  1.9437605     111.3692714
  28 BEND      1  4 15                  2.0865466     119.5503145
  29 BEND      1  3  6                  2.1317707     122.1414647
  30 BEND      2  1  4                  2.1027606     120.4793059
  31 BEND      2  1  3                  2.1069862     120.7214183
  32 BEND      3  6 10                  2.1139328     121.1194290
  33 BEND      3  5  8                  2.0859340     119.5152131
  34 BEND      3  1  4                  2.0734385     118.7992758
  35 BEND      3  5  9                  2.0822251     119.3027093
  36 BEND      3  6 16                  2.0869934     119.5759146
  37 BEND      4  7  8                  2.1007078     120.3616913
  38 BEND      4  7 17                  2.0799895     119.1746204
  39 BEND      5  9 19                  2.0725901     118.7506665
  40 BEND      5  9 11                  2.1102681     120.9094543
  41 BEND      5  8 18                  2.0793001     119.1351199
  42 BEND      5  8  7                  2.0961442     120.1002175
  43 BEND      5  3  6                  2.0653337     118.3349026
  44 BEND      6 10 11                  2.1007422     120.3636602
  45 BEND      6 10 20                  2.0943891     119.9996543
  46 BEND      7  8 18                  2.1077410     120.7646623
  47 BEND      7  4 15                  2.0725736     118.7497196
  48 BEND      8  7 17                  2.1024880     120.4636883
  49 BEND      8  5  9                  2.1150262     121.1820753
  50 BEND      9 11 21                  2.1014860     120.4062756
  51 BEND      9 11 10                  2.0938688     119.9698438
  52 BEND     10  6 16                  2.0822591     119.3046563
  53 BEND     10 11 21                  2.0878306     119.6238790
  54 BEND     11 10 20                  2.0880541     119.6366853
  55 BEND     11  9 19                  2.1003271     120.3398791
  56 BEND     12  2 14                  1.8864115     108.0834158
  57 BEND     12  2 13                  1.8764653     107.5135428
  58 BEND     13  2 14                  1.8864881     108.0878074
  59 TORSION   1  4  7 17              -3.1415053    -179.9949960
  60 TORSION   1  3  5  8               0.0004301       0.0246434
  61 TORSION   1  3  6 16              -0.0000681      -0.0039011
  62 TORSION   1  3  5  9              -3.1414661    -179.9927486
  63 TORSION   1  3  6 10               3.1415517     179.9976532
  64 TORSION   1  4  7  8               0.0000577       0.0033050
  65 TORSION   2  1  4  7              -3.1413770    -179.9876460
  66 TORSION   2  1  3  6              -0.0002184      -0.0125123
  67 TORSION   2  1  4 15               0.0002074       0.0118829
  68 TORSION   2  1  3  5               3.1411358     179.9738250
  69 TORSION   3  1  4 15              -3.1413814    -179.9878981
  70 TORSION   3  1  2 13               1.0437173      59.8005956
  71 TORSION   3  1  2 12              -1.0505870     -60.1942022
  72 TORSION   3  1  2 14               3.1383058     179.8116797
  73 TORSION   3  1  4  7               0.0002194       0.0125731
  74 TORSION   3  5  9 19               3.1415024     179.9948291
  75 TORSION   3  5  9 11              -0.0000187      -0.0010696
  76 TORSION   3  5  8 18               3.1415434     179.9971784
  77 TORSION   3  5  8  7              -0.0001553      -0.0088953
  78 TORSION   3  6 10 20               3.1415270     179.9962393
  79 TORSION   3  6 10 11              -0.0001625      -0.0093122
  80 TORSION   4  1  3  5              -0.0004607      -0.0263946
  81 TORSION   4  1  2 13              -2.0978715    -120.1991812
  82 TORSION   4  7  8 18               3.1413933     179.9885803
  83 TORSION   4  7  8  5              -0.0000916      -0.0052456
  84 TORSION   4  1  2 14              -0.0032829      -0.1880970
  85 TORSION   4  1  2 12               2.0910095     119.8060211
  86 TORSION   4  1  3  6               3.1413704     179.9872681
  87 TORSION   5  9 11 21              -3.1412886    -179.9825811
  88 TORSION   5  9 11 10               0.0000549       0.0031449
  89 TORSION   5  3  6 16              -3.1414250    -179.9903942
  90 TORSION   5  8  7 17               3.1414711     179.9930333
  91 TORSION   5  3  6 10               0.0001948       0.0111601
  92 TORSION   6  3  5  9              -0.0001028      -0.0058920
  93 TORSION   6 10 11 21               3.1413813     179.9878899
  94 TORSION   6 10 11  9               0.0000358       0.0020517
  95 TORSION   6  3  5  8              -3.1413919    -179.9885001
  96 TORSION   7  8  5  9              -3.1414385    -179.9911675
  97 TORSION   8  5  9 11               3.1412652     179.9812396
  98 TORSION   8  5  9 19              -0.0003990      -0.0228617
  99 TORSION   8  7  4 15              -3.1415268    -179.9962276
 100 TORSION   9  5  8 18               0.0002602       0.0149061
 101 TORSION   9 11 10 20               3.1415319     179.9965203
 102 TORSION  10 11  9 19              -3.1414650    -179.9926888
 103 TORSION  11 10  6 16               3.1414572     179.9922379
 104 TORSION  15  4  7 17               0.0000955       0.0054715
 105 TORSION  16  6 10 20              -0.0000386      -0.0022106
 106 TORSION  17  7  8 18              -0.0002293      -0.0131408
 107 TORSION  19  9 11 21               0.0003767       0.0215852
 108 TORSION  20 10 11 21              -0.0003079      -0.0176415

          INTERNUCLEAR DISTANCES (ANGS.)


 =====================================================
   GAMESS/COSab RESULTS
 =====================================================

   Dielectric Constant                  = INFTY
   Basic Grid Size                      =                 1082
   Number of Segments                   =                   92
   Number of Segments located on spheres=                  330
   Number of Segments of the cavity     =                  806
   Solvent Radius (rsolv)               = 1.40
   Outlying Charge Error Method         = double cavity

 =====================================================

  Total solvated Energy (a.u.)          =  -422.4871910071
  Total Energy corrected (a.u.)         =  -422.4873138872

  Outlying charge effect (a.u.)         =    -0.0001228801
  Outlying charge effect (kcal/mol)     =    -0.0771084727

  Dielectric Energy (a.u.)              =    -0.0097824507
  Dielectric energy corr. (a.u.)        =    -0.0099053308

  Sum of polarization charges           =     0.0270830646
  Sum of polarization charges(cor.)     =    -0.0270830646

  Total surface area of cavity (A**2)   =  183.31
  Total volume of cavity (A**3)         =  186.42

 =====================================================
 NPS=                   806
NR.  ATOM  (X, Y, Z)(a.u.)                  CHARGE(e)  AREA(A**2) SIGMA(e/A**2)
   1   1   4.589178  -0.101776   4.170328   0.000284   0.092912   0.003052
   2   1   4.538036  -1.068705   5.405770   0.001134   0.232280   0.004881
   3   1   4.602487  -0.611023   4.696831   0.000642   0.185824   0.003457
   4   1   5.199518  -0.148216   4.433913   0.000435   0.139368   0.003120
   5   1   3.473334   5.318760   9.236424   0.002422   0.371649   0.006516
   6   1   2.327932   4.529804   9.618715   0.001262   0.232280   0.005434
   7   1   2.475111   5.359237   8.696288   0.001126   0.371649   0.003031
   8   1   5.529981  -0.562401   5.143379   0.001573   0.278737   0.005644
   9   2  -0.723528  -1.589344   5.798643   0.001492   0.418105   0.003568
  10   2   0.130204   2.974903   9.893825   0.000588   0.278737   0.002110
  11   2  -1.767955   1.655616   4.177228   0.000931   0.371649   0.002506
  12   2  -2.297868   1.038245   7.905630   0.000748   0.371649   0.002014
  13   2   2.773837  -1.586081   5.247283   0.000384   0.185824   0.002069
  14   2   2.187436  -2.031390   6.134065   0.000592   0.371649   0.001593
  15   2   1.006253  -2.159452   6.092297   0.001299   0.371649   0.003495
  16   2  -2.322393   2.132427   7.844905   0.000844   0.371649   0.002272
  17   2  -1.809283   2.717286   4.522959   0.000442   0.232280   0.001901
  18   2  -0.272859   3.719176   9.300976   0.000343   0.232280   0.001476
  19   2   0.396829  -1.950848   5.473794   0.000628   0.232280   0.002706
  20   2   0.042998  -2.013794   6.483553   0.000757   0.278737   0.002716
  21   2   0.537545   3.618926   9.661008   0.000280   0.185824   0.001508
  22   2  -1.291931   2.384627   3.794454   0.000572   0.232280   0.002463
  23   2  -2.356306   1.655912   5.212619   0.000654   0.464561   0.001408
  24   2  -2.573281   1.197665   6.701026   0.000529   0.464561   0.001139
  25   2  -1.757971   1.920214   8.890078   0.001253   0.371649   0.003370
  26   2  -0.796133   2.698851   9.561677   0.000719   0.232280   0.003096
  27   2   0.088325   2.161735  10.110664   0.000320   0.185824   0.001720
  28   2  -1.988400   0.464338   4.816614   0.000429   0.371649   0.001155
  29   2  -1.588410  -0.674509   5.321179   0.000643   0.418105   0.001537
  30   2  -1.612120  -0.953553   6.445216   0.000753   0.464561   0.001621
  31   2  -2.223571   0.079647   7.174844   0.000245   0.325193   0.000754
  32   2   2.084084  -1.836457   5.221616   0.000396   0.232280   0.001707
  33   2   1.759057  -2.119146   6.983603   0.000398   0.232280   0.001713
  34   2  -2.554547   2.058715   6.222317   0.000253   0.278737   0.000908
  35   2   0.461448   4.260944   9.112979   0.000226   0.139368   0.001620
  36   2  -1.345520   2.881452   9.033566   0.000859   0.278737   0.003082
  37   2  -2.310795   0.290932   5.908911   0.000301   0.418105   0.000721
  38   2  -0.725664   1.991484   9.776194   0.000431   0.185824   0.002321
  39   3   3.132701   6.571954   7.182162   0.000706   0.139368   0.005068
  40   3   4.469713   7.352014   6.927842   0.001289   0.185824   0.006939
  41   3   3.737512   6.977694   7.151711   0.000765   0.185824   0.004118
  42   3   3.892077   6.594617   7.762000   0.000888   0.139368   0.006370
  43   3   6.672317   0.868162   3.819181   0.002002   0.371649   0.005387
  44   3   6.740183   1.725017   2.749930   0.001326   0.185824   0.007136
  45   3   5.743724   1.021606   3.084312   0.002004   0.418105   0.004794
  46   3   4.575746   6.756430   7.856537   0.001077   0.232280   0.004635
  47   4   4.596203   4.781374  10.430655   0.001100   0.139368   0.007894
  48   4   4.754038   2.250437  12.668692   0.000780   0.278737   0.002797
  49   4   5.491560  -2.377349   8.308293   0.001579   0.371649   0.004249
  50   4   5.085352  -2.450747   9.286271   0.000796   0.325193   0.002448
  51   4   2.334249   1.727408  11.490067   0.000223   0.139368   0.001602
  52   4   4.528413   1.432692  12.752133   0.000243   0.232280   0.001046
  53   4   6.135495  -1.598311  11.232224  -0.000181   0.092912  -0.001943
  54   4   3.814052   2.509143  12.349285   0.001381   0.371649   0.003716
  55   4   2.597067   2.674306  11.439465   0.001306   0.325193   0.004016
  56   4   4.509846  -2.209913   7.851064   0.001735   0.371649   0.004667
  57   4   6.209508  -2.309390   9.248059   0.001040   0.325193   0.003198
  58   4   6.491919  -2.064543  10.078756   0.000358   0.139368   0.002571
  59   4   4.372074   3.454765  12.043164   0.001877   0.325193   0.005771
  60   4   4.488434   4.372254  11.149280   0.001359   0.232280   0.005852
  61   4   3.715696   4.312354  10.817884   0.001710   0.185824   0.009201
  62   4   2.947499   3.527038  11.139577   0.001447   0.232280   0.006230
  63   4   5.470346  -1.887421   7.051192   0.003585   0.511017   0.007016
  64   4   6.569877  -2.028268   7.965811   0.001996   0.418105   0.004773
  65   4   4.014505  -2.266922   8.745854   0.000445   0.232280   0.001916
  66   4   3.126554   1.976620  12.137856   0.001070   0.325193   0.003292
  67   4   5.355343   0.492230  12.713478  -0.000083   0.139368  -0.000592
  68   4   5.892778  -2.178977  10.267904   0.000231   0.185824   0.001244
  69   4   6.617714  -1.261772   6.676188   0.003474   0.418105   0.008308
  70   4   3.627003   3.646855  11.573867   0.001856   0.325193   0.005708
  71   5   9.827951   2.068348   3.983123   0.000859   0.139368   0.006162
  72   5   8.505226   2.089025   3.140067   0.001168   0.185824   0.006284
  73   5   9.228822   1.981015   3.577211   0.000716   0.185824   0.003854
  74   5   9.059173   1.518717   4.125473   0.000521   0.139368   0.003738
  75   5   6.275544   7.055223   8.328609   0.002037   0.371649   0.005481
  76   5   6.236482   7.812716   7.185464   0.001211   0.185824   0.006517
  77   5   7.218319   7.696633   7.974164   0.001905   0.418105   0.004555
  78   5   8.376055   1.387790   3.988607   0.001437   0.232280   0.006186
  79   6   3.926009   8.121038   5.465855   0.000574   0.139368   0.004122
  80   6   1.243775   7.659300   3.076045   0.001272   0.278737   0.004563
  81   6   3.578248   2.144277   0.882371   0.001258   0.325193   0.003868
  82   6   2.472236   2.638172   0.781363   0.000558   0.278737   0.002001
  83   6   1.874350   4.694450   0.117442   0.000010   0.046456   0.000221
  84   6   0.952775   7.126405   2.328426   0.000319   0.278737   0.001144
  85   6   1.321135   7.286625   4.695294   0.000821   0.232280   0.003534
  86   6   1.283101   7.614839   3.885314   0.000739   0.185824   0.003975
  87   6   2.322682   4.081855  -0.018028   0.000324   0.185824   0.001743
  88   6   3.264519   3.007024   0.145368   0.001675   0.371649   0.004506
  89   6   2.206713   7.360824   5.629824   0.001216   0.278737   0.004363
  90   6   3.161353   7.845187   5.651925   0.001668   0.232280   0.007182
  91   6   3.001960   8.287836   4.952504   0.001717   0.185824   0.009242
  92   6   2.050014   8.220430   4.006377   0.001078   0.232280   0.004642
  93   6   4.553254   2.484698   0.524709   0.003242   0.464561   0.006980
  94   6   4.429827   1.689299   1.615638   0.001391   0.325193   0.004277
  95   6   2.421736   3.414042   0.218521   0.000307   0.185824   0.001654
  96   6   0.825004   6.981852   3.942536   0.000380   0.232280   0.001636
  97   6   5.643222   2.286781   1.267681   0.003045   0.464561   0.006555
  98   6   2.084134   7.892156   4.855741   0.001695   0.325193   0.005213
  99   7   8.285729  -0.541076   6.731362   0.001255   0.185824   0.006752
 100   7   8.117759  -1.806029   9.756664   0.000655   0.278737   0.002350
 101   7  10.799958  -0.250370   9.299048   0.001300   0.278737   0.004665
 102   7   7.388004   3.873781  12.755303   0.001338   0.371649   0.003601
 103   7   7.951955   3.007147  13.143447   0.000798   0.371649   0.002147
 104   7  10.278598   3.164177  12.036411   0.000017   0.092912   0.000179
 105   7  11.058256   0.241357  10.085863   0.000510   0.278737   0.001831
 106   7   8.629299  -1.622580  10.384088   0.000320   0.278737   0.001148
 107   7   6.720333   0.753595  12.962946  -0.000163   0.092912  -0.001752
 108   7   7.719206  -1.562993  10.925323  -0.000002   0.185824  -0.000009
 109   7   9.090579  -1.575565   9.333562   0.001032   0.325193   0.003175
 110   7  10.189117  -0.886683   9.049832   0.000942   0.232280   0.004057
 111   7   9.726833   3.552723  12.302352   0.000324   0.185824   0.001743
 112   7   8.589584   4.158499  12.464767   0.002054   0.418105   0.004913
 113   7   6.663698   2.860787  13.030450   0.000864   0.325193   0.002657
 114   7   6.373591   1.997500  13.048789   0.000308   0.139368   0.002213
 115   7   8.517452  -1.583382   8.423148   0.001642   0.325193   0.005050
 116   7   8.538978  -1.108450   7.448473   0.001210   0.232280   0.005210
 117   7   9.181414  -0.763051   7.321620   0.002089   0.232280   0.008995
 118   7  10.135563  -0.611775   8.120449   0.001333   0.278737   0.004781
 119   7   7.432419   4.815860  11.963961   0.003420   0.511017   0.006693
 120   7   6.320967   3.998055  12.365460   0.001683   0.418105   0.004026
 121   7   9.000514   3.460477  12.745030   0.000533   0.232280   0.002294
 122   7   9.918370  -1.122200   9.823045   0.000853   0.325193   0.002624
 123   7   7.336320  -1.230701  11.530717  -0.000133   0.092912  -0.001436
 124   7   7.046265   1.957448  13.239105   0.000090   0.232280   0.000389
 125   7   6.294998   4.990765  11.239944   0.003081   0.418105   0.007368
 126   7   9.469278  -1.177313   8.293494   0.001342   0.278737   0.004815
 127   8   6.917737   6.123733   9.811168   0.000513   0.139368   0.003679
 128   8   9.415711   7.110925   9.177975   0.000490   0.139368   0.003519
 129   8  10.177937   5.260496  11.132036   0.001353   0.278737   0.004852
 130   8  11.571592   1.368546   6.283716   0.001419   0.371649   0.003818
 131   8  12.258678   2.091249   6.758441   0.000899   0.371649   0.002418
 132   8  12.007355   1.695456   9.296874  -0.000066   0.092912  -0.000706
 133   8  10.919548   4.653730  11.034882   0.000481   0.278737   0.001727
 134   8  10.521414   6.828141   9.080160   0.000268   0.232280   0.001155
 135   8   9.851563   6.775160   9.754214   0.000941   0.278737   0.003377
 136   8   9.835730   6.006457  10.723912   0.001005   0.232280   0.004328
 137   8  12.004313   1.370740   8.648269   0.000452   0.185824   0.002433
 138   8  11.670836   0.934170   7.471461   0.002183   0.418105   0.005222
 139   8  11.754127   2.325276   5.705762   0.000533   0.232280   0.002295
 140   8   8.648976   6.970186   9.552971   0.001458   0.325193   0.004484
 141   8   7.603109   6.593262   9.738906   0.001732   0.232280   0.007456
 142   8   7.869648   6.224958  10.401037   0.002155   0.232280   0.009276
 143   8   8.913835   5.843774  10.980506   0.001423   0.278737   0.005104
 144   8  10.708107   0.520702   6.510129   0.003598   0.511017   0.007041
 145   8  10.824981   1.452932   5.422645   0.001889   0.418105   0.004517
 146   8  12.179398   1.526405   7.825392   0.000467   0.232280   0.002011
 147   8  10.495544   6.197212  10.219048   0.000895   0.325193   0.002753
 148   8  12.288233   2.978789   6.216478  -0.000055   0.092912  -0.000592
 149   8   9.619920   0.601852   5.699091   0.002974   0.418105   0.007114
 150   8   8.932865   6.483779  10.361034   0.001465   0.278737   0.005255
 151   9   9.120161   3.252945   1.971825   0.000543   0.139368   0.003899
 152   9  11.391671   3.433498   3.528425   0.000322   0.139368   0.002308
 153   9  11.882599   5.590384   1.816624   0.001210   0.278737   0.004342
 154   9   9.581853   9.261091   6.488693   0.001278   0.371649   0.003440
 155   9  10.636885   8.964803   6.351317   0.000740   0.371649   0.001992
 156   9  11.149314   9.424086   3.863359  -0.000030   0.092912  -0.000326
 157   9  12.187595   6.453391   2.116268   0.000400   0.278737   0.001434
 158   9  12.140424   4.170297   3.985163   0.000248   0.232280   0.001067
 159   9  11.803694   3.976736   3.116254   0.000852   0.278737   0.003056
 160   9  11.789910   4.738024   2.140691   0.000906   0.232280   0.003899
 161   9  10.773088   9.656062   4.438493   0.000260   0.185824   0.001399
 162   9   9.888805   9.794708   5.379503   0.001958   0.418105   0.004683
 163   9   9.954857   8.440463   7.174347   0.000426   0.232280   0.001833
 164   9  10.830580   3.249102   2.896375   0.001308   0.325193   0.004021
 165   9   9.867831   3.134257   2.321564   0.001638   0.232280   0.007053
 166   9  10.156389   3.638344   1.766822   0.002017   0.232280   0.008684
 167   9  11.049634   4.493740   1.562320   0.001313   0.278737   0.004711
 168   9   8.573312   9.650598   5.899765   0.003335   0.511017   0.006525
 169   9   8.701589   8.778570   7.034861   0.001639   0.418105   0.003920
 170   9  10.696177   9.524572   5.280400   0.000463   0.232280   0.001992
 171   9  12.239548   4.818965   2.860347   0.000765   0.325193   0.002352
 172   9  10.865898   8.140656   6.943482  -0.000100   0.092912  -0.001077
 173   9   7.428318   9.022872   6.278535   0.002880   0.418105   0.006887
 174   9  11.132213   3.878716   2.201570   0.001338   0.278737   0.004801
 175  10   6.844181   3.534637   0.311479   0.000988   0.139368   0.007092
 176  10   6.657672   5.955343  -1.782323   0.000901   0.325193   0.002770
 177  10   3.839830   4.660831  -1.174416   0.001265   0.278737   0.004540
 178  10   3.596741  10.033787   2.241430   0.001352   0.371649   0.003638
 179  10   3.397691   9.939144   1.159223   0.000786   0.371649   0.002115
 180  10   1.784739   7.935540   0.941474   0.000093   0.092912   0.001006
 181  10   3.137029   5.317550  -1.125607   0.000350   0.278737   0.001257
 182  10   5.887162   6.335994  -2.054355   0.000352   0.278737   0.001262
 183  10   5.502048   9.913326  -0.323674  -0.000041   0.092912  -0.000446
 184  10   6.426270   7.236907  -1.904443  -0.000081   0.185824  -0.000435
 185  10   5.840558   5.223313  -1.774423   0.001032   0.325193   0.003172
 186  10   4.717423   4.603917  -1.432716   0.000943   0.232280   0.004058
 187  10   1.971521   8.496758   1.361336   0.000310   0.185824   0.001666
 188  10   2.575803   9.281909   2.201014   0.001878   0.418105   0.004492
 189  10   4.645255  10.422758   1.465145   0.000983   0.371649   0.002645
 190  10   5.237580  10.264156   0.394168   0.000352   0.185824   0.001896
 191  10   6.623020   4.699934  -1.253638   0.001624   0.325193   0.004993
 192  10   6.717171   3.939944  -0.485805   0.001207   0.232280   0.005196
 193  10   6.073426   3.600283  -0.350384   0.002035   0.232280   0.008761
 194  10   4.949489   3.878799  -0.830599   0.001379   0.278737   0.004946
 195  10   3.396707   9.512907   3.338871   0.003471   0.511017   0.006792
 196  10   4.549645  10.214942   2.845705   0.001769   0.418105   0.004231
 197  10   2.462035   9.197741   1.355664   0.000540   0.232280   0.002326
 198  10   4.786948   5.351824  -1.835744   0.000869   0.325193   0.002674
 199  10   6.385228   8.002466  -1.715349  -0.000029   0.092912  -0.000308
 200  10   4.472090  10.241887   0.610405   0.000130   0.185824   0.000699
 201  10   4.497164   9.447592   4.134639   0.003013   0.418105   0.007206
 202  10   5.697875   4.226467  -1.166395   0.001314   0.278737   0.004716
 203  11   6.257977   9.595939   4.731778   0.000940   0.139368   0.006746
 204  11   6.528510  10.852005   1.794480   0.000890   0.325193   0.002736
 205  11   9.311545  10.621085   3.273312   0.001198   0.278737   0.004299
 206  11   9.564923   5.730818  -0.803064   0.001312   0.371649   0.003530
 207  11   9.786061   6.787286  -1.036997   0.000802   0.371649   0.002157
 208  11  11.371469   7.577626   0.840583  -0.000044   0.092912  -0.000474
 209  11  10.023418  10.363799   2.677803   0.000511   0.278737   0.001834
 210  11   7.310713  10.983143   1.366058   0.000315   0.278737   0.001130
 211  11   7.714480   8.241440  -1.508121  -0.000215   0.092912  -0.002319
 212  11   6.782785  10.575251   0.541636  -0.000117   0.185824  -0.000629
 213  11   7.333566  11.053801   2.511955   0.000995   0.325193   0.003061
 214  11   8.439017  10.898492   3.230081   0.000904   0.232280   0.003891
 215  11  11.184460   7.010146   0.429325   0.000304   0.185824   0.001638
 216  11  10.574471   5.981404  -0.076917   0.001962   0.418105   0.004692
 217  11   8.539920   6.368918  -1.431947   0.000945   0.371649   0.002542
 218  11   7.968712   7.446799  -1.618735   0.000454   0.185824   0.002444
 219  11   6.531719  10.729260   3.151566   0.001602   0.325193   0.004926
 220  11   6.408786  10.230245   4.106495   0.001195   0.232280   0.005144
 221  11   7.043959  10.194130   4.485133   0.002042   0.232280   0.008789
 222  11   8.182394  10.548950   4.098505   0.001314   0.278737   0.004713
 223  11   9.732647   4.840459   0.030505   0.003344   0.511017   0.006544
 224  11   8.602024   5.115417  -0.812953   0.001747   0.418105   0.004178
 225  11  10.705345   6.810428  -0.250803   0.000453   0.232280   0.001950
 226  11   8.390168  11.056290   2.393813   0.000851   0.325193   0.002616
 227  11   6.831797  10.161864  -0.129356  -0.000028   0.092912  -0.000296
 228  11   8.728844   7.235316  -1.515273   0.000042   0.185824   0.000224
 229  11   8.614161   4.119893   0.310308   0.002990   0.418105   0.007151
 230  11   7.447125  10.775185   3.649160   0.001312   0.278737   0.004708
 231  12  -1.712042   4.976480   7.032985  -0.002976   0.451437  -0.006593
 232  12  -0.027700   5.557167   7.396922  -0.001789   0.294415  -0.006076
 233  12  -1.102540   4.477145   8.407946  -0.001078   0.333671  -0.003231
 234  12  -2.394664   3.608455   7.143182  -0.001297   0.353299  -0.003671
 235  12  -1.883380   4.024602   5.157793  -0.001220   0.294415  -0.004144
 236  12  -0.546667   5.182295   7.990510  -0.001858   0.392554  -0.004734
 237  12  -1.896939   4.161206   7.883614  -0.001625   0.392554  -0.004140
 238  12  -2.345711   3.940879   6.124269  -0.002199   0.471065  -0.004668
 239  12  -1.568474   4.952776   5.703602  -0.002548   0.372926  -0.006832
 240  12  -0.930608   5.529729   6.544547  -0.002434   0.353299  -0.006889
 241  13   0.500217  -0.857052   2.853727  -0.002519   0.392554  -0.006416
 242  13   0.541709  -1.617810   3.971394  -0.001374   0.392554  -0.003501
 243  13   2.268503  -0.929725   3.414303  -0.001516   0.333671  -0.004544
 244  13  -0.652888   0.914201   2.860580  -0.001694   0.392554  -0.004316
 245  13  -1.016869  -0.175652   3.518317  -0.001289   0.372926  -0.003456
 246  13   1.462327  -1.440498   3.597155  -0.001561   0.372926  -0.004185
 247  13   1.716441  -0.374259   2.630912  -0.002831   0.431809  -0.006557
 248  13   0.637608   0.279947   2.306459  -0.002892   0.392554  -0.007367
 249  13  -0.295198  -0.082596   2.736800  -0.001843   0.314043  -0.005869
 250  13  -0.432792  -1.110391   3.769519  -0.001600   0.392554  -0.004077
 251  14  -0.856232  -1.262388   9.287257  -0.002832   0.431809  -0.006557
 252  14   0.822962  -2.129736   8.290933  -0.001377   0.314043  -0.004385
 253  14  -1.185160  -1.471011   8.105511  -0.001544   0.372926  -0.004142
 254  14  -1.475169   0.228599   9.399683  -0.001075   0.294415  -0.003653
 255  14  -0.230591   0.570662  10.294642  -0.001403   0.314043  -0.004469
 256  14   0.245967  -1.760189   9.301560  -0.002830   0.392554  -0.007210
 257  14  -0.235828  -2.045411   8.082080  -0.001737   0.431809  -0.004022
 258  14  -1.655930  -0.592288   8.684818  -0.001565   0.372926  -0.004197
 259  14  -0.929755   0.103567   9.945344  -0.001482   0.314043  -0.004720
 260  14  -0.176869  -0.743217  10.090582  -0.002785   0.372926  -0.007468
 261  15   3.603464  -1.558875  12.050618  -0.003926   0.471065  -0.008335
 262  15   3.952946  -0.057804  12.729913  -0.001917   0.372926  -0.005139
 263  15   4.936318  -1.777334  11.781434  -0.001976   0.333671  -0.005922
 264  15   3.693092  -2.357654  10.179766  -0.001720   0.314043  -0.005477
 265  15   2.515374   0.305587  12.037437  -0.001878   0.314043  -0.005979
 266  15   4.616605  -0.988822  12.485878  -0.003033   0.412182  -0.007358
 267  15   4.398649  -2.300214  11.019047  -0.002515   0.431809  -0.005824
 268  15   3.077306  -2.034930  10.941963  -0.003176   0.372926  -0.008516
 269  15   2.530763  -1.101777  11.659510  -0.003611   0.392554  -0.009200
 270  15   3.052513  -0.298969  12.424099  -0.002568   0.372926  -0.006886
 271  16  -0.190050   4.355060   1.902660  -0.004878   0.471065  -0.010354
 272  16   0.998927   3.336770   1.020836  -0.001603   0.255160  -0.006281
 273  16   0.655265   4.936182   0.819112  -0.002217   0.294415  -0.007531
 274  16   0.132638   6.081802   2.380433  -0.001062   0.255160  -0.004161
 275  16   0.540053   4.006741   0.993206  -0.002859   0.372926  -0.007667
 276  16   0.210154   5.546614   1.485958  -0.002753   0.372926  -0.007383
 277  16  -0.217322   5.514028   2.744738  -0.003095   0.314043  -0.009855
 278  17   9.719926   0.166718  13.132650  -0.005563   0.608459  -0.009143
 279  17   8.944303  -1.138286  12.032475  -0.002393   0.412182  -0.005806
 280  17   7.843952   0.176660  13.249275  -0.002319   0.333671  -0.006951
 281  17   9.006670   1.872721  13.454356  -0.001765   0.353299  -0.004995
 282  17  10.777462   1.604447  12.289310  -0.002256   0.333671  -0.006760
 283  17  10.773523  -0.100142  11.356199  -0.001538   0.333671  -0.004608
 284  17   8.431358  -0.604215  12.861033  -0.003767   0.490692  -0.007677
 285  17   8.528218   0.942749  13.583795  -0.003289   0.490692  -0.006703
 286  17  10.038622   1.691876  13.092255  -0.003493   0.510320  -0.006845
 287  17  10.810061   0.568325  12.183006  -0.003725   0.490692  -0.007592
 288  17   9.998783  -0.780378  11.902363  -0.003786   0.549575  -0.006889
 289  18  13.324769   4.079845   8.899685  -0.003758   0.431809  -0.008704
 290  18  12.116491   6.032122   9.148994  -0.002650   0.412182  -0.006430
 291  18  13.098376   3.022776   7.773038  -0.001904   0.372926  -0.005106
 292  18  12.677643   3.074159   9.774840  -0.001827   0.294415  -0.006205
 293  18  12.079679   5.020213  10.275887  -0.002036   0.392554  -0.005187
 294  18  13.129490   5.137830   8.391653  -0.004192   0.431809  -0.009708
 295  18  13.233019   3.958684   7.476598  -0.003760   0.431809  -0.008709
 296  18  13.038513   2.883842   8.860485  -0.002436   0.372926  -0.006532
 297  18  12.612738   3.988928  10.130347  -0.003091   0.431809  -0.007158
 298  18  12.763726   5.198702   9.494420  -0.002964   0.372926  -0.007948
 299  19  13.156785   7.853742   4.904561  -0.003793   0.431809  -0.008784
 300  19  13.121898   5.597078   4.414943  -0.002716   0.412182  -0.006589
 301  19  12.101466   8.597222   5.782925  -0.002044   0.372926  -0.005481
 302  19  12.484694   8.536316   3.773871  -0.002184   0.294415  -0.007419
 303  19  13.037830   6.579202   3.264479  -0.002064   0.392554  -0.005257
[...]
 547   9   7.823485   3.371731   1.804993   0.000517   0.100825   0.005123
 548  10   7.185079   3.388310   1.335475   0.000734   0.100825   0.007279
 549   6   4.997055   8.211192   5.297129   0.000658   0.100825   0.006521
 550   9   5.889473   8.395633   5.444402   0.000524   0.100825   0.005197
 551  10   5.215269   8.505205   5.042249   0.000729   0.100825   0.007230
 552   6   1.637676   5.481940   0.291964  -0.000102   0.008613  -0.011884
 553  10   1.885450   5.760276   0.053040  -0.000102   0.008613  -0.011867
 554  16   1.418479   5.357418   0.447659  -0.000122   0.008613  -0.014186
 555   6   1.266152   6.447336   0.991409  -0.000100   0.008613  -0.011599
 556  10   1.518469   6.713863   0.743931  -0.000103   0.008613  -0.011985
 557  16   1.080371   6.235979   1.084191  -0.000105   0.008613  -0.012238
 558  10   6.547928   3.270596   0.730435   0.001671   0.193490   0.008637
 559  10   4.856690   3.637127  -0.275811   0.003139   0.395610   0.007934
 560  10   2.860031   5.012517  -0.483165  -0.000387   0.395610  -0.000977
 561   6   5.597070   2.970837   0.693256   0.003537   0.395610   0.008940
 562   6   3.481988   3.810195  -0.168863   0.001687   0.395610   0.004263
 563   6   2.005728   5.149806   0.013510  -0.000594   0.193490  -0.003071
 564  10   1.637489   7.320929   0.915160  -0.000516   0.193464  -0.002666
 565  10   2.175124   8.419791   2.499340   0.001725   0.395552   0.004362
 566  10   3.816563   8.810412   4.252356   0.003683   0.395552   0.009312
 567   6   1.483624   7.374471   1.899372  -0.000482   0.395552  -0.001219
 568   6   2.562840   8.382289   3.833169   0.003139   0.395552   0.007935
 569   6   4.121097   8.360732   5.089173   0.001687   0.193464   0.008718
 570   6   0.381927   6.058451   4.163161  -0.000384   0.087914  -0.004365
 571  12  -0.188067   5.472797   4.861685  -0.000487   0.087914  -0.005538
 572  16   0.210537   5.858016   4.020458  -0.000543   0.087914  -0.006175
 573  12   0.559000   5.766678   6.831270  -0.000754   0.229903  -0.003279
 574  12  -0.189013   5.686393   5.887480  -0.002389   0.462401  -0.005166
 575   6   1.295404   6.620653   5.638901   0.000907   0.651588   0.001393
 576   6   0.472446   6.426220   4.542252   0.000254   0.329294   0.000770
 577   6   1.787593   2.407315   1.511619  -0.000366   0.087592  -0.004181
 578  13   1.280846   1.657165   2.087689  -0.000477   0.087592  -0.005441
 579  16   1.506741   2.490964   1.575064  -0.000550   0.087592  -0.006276
 580  13   1.335319   0.947066   2.145390  -0.000967   0.229604  -0.004211
 581  13   2.322536   0.410619   2.587235  -0.002082   0.461820  -0.004508
 582   6   2.588878   1.805675   1.532875   0.000502   0.650540   0.000772
 583   6   3.699488   1.238118   2.135341   0.000656   0.328778   0.001995
 584  16   0.321157   6.249966   3.336866  -0.000553   0.084554  -0.006540
 585  16   0.593316   6.290639   1.999699  -0.001719   0.200363  -0.008579
 586   6   0.665883   6.622396   2.908224  -0.001023   0.174603  -0.005861
 587   6   1.000150   6.510466   1.444444  -0.000633   0.103301  -0.006127
 588  16   1.239671   4.852963   0.516115  -0.000602   0.084449  -0.007131
 589  16   1.484491   3.541763   0.799685  -0.001433   0.200030  -0.007164
 590   6   1.709781   4.397668   0.404965  -0.001252   0.174447  -0.007178
 591   6   1.939912   2.985812   0.869291  -0.000385   0.103173  -0.003730
 592   8  11.658269   2.013877  10.144881  -0.000654   0.205666  -0.003182
 593   8  11.236985   0.752057   8.491434   0.001664   0.423257   0.003932
 594   8   9.567170   0.245352   6.605190   0.004170   0.423257   0.009853
 595   7  11.237986   1.100119   9.902287  -0.000896   0.423257  -0.002117
 596   7  10.232350  -0.082833   7.854784   0.003458   0.423257   0.008169
 597   7   8.603870  -0.115522   6.494439   0.001771   0.205666   0.008609
 598   8   6.802952   5.769484  10.090148   0.001820   0.205691   0.008846
 599   8   8.611941   5.333668  11.111009   0.003528   0.423314   0.008334
 600   8  10.666491   3.791624  11.183140  -0.000883   0.423314  -0.002087
 601   7   7.175677   5.251938  10.904900   0.004131   0.423314   0.009758
 602   7   9.412089   4.287040  11.724482   0.001638   0.423314   0.003871
 603   7  10.890530   2.802214  11.386788  -0.000716   0.205691  -0.003480
 604   7   6.915082  -0.840325  11.964604  -0.000185   0.020189  -0.009188
 605  15   6.182376  -0.977913  11.882422  -0.000177   0.020189  -0.008751
 606  17   7.169204  -0.769414  12.101045  -0.000230   0.020189  -0.011384
 607   7   6.592402  -0.001728  12.572560  -0.000188   0.020189  -0.009315
 608  15   5.898674  -0.240613  12.416941  -0.000193   0.020189  -0.009539
 609  17   6.879652  -0.016910  12.646587  -0.000198   0.020189  -0.009800
 610  15   5.712210  -1.252857  11.877376  -0.000117   0.014956  -0.007823
 611   7   6.794843  -0.977919  11.947577  -0.000027   0.021097  -0.001274
 612  15   5.389311  -0.411606  12.490921  -0.000123   0.015031  -0.008198
 613   7   6.419141  -0.003472  12.650586  -0.000037   0.021203  -0.001749
 614  17  10.813958   2.039399  11.878987  -0.000502   0.072204  -0.006948
 615  17   9.988543   2.497774  12.583630  -0.000951   0.163127  -0.005828
 616  17   8.729884   2.317136  13.214603  -0.000942   0.163127  -0.005775
 617  17   7.698067   1.347756  13.317739  -0.000984   0.163127  -0.006031
 618  17   7.311342   0.280781  13.001594  -0.000504   0.072204  -0.006987
 619   7  10.524214   2.576102  11.904284  -0.000980   0.155569  -0.006300
 620   7   9.239308   2.882670  12.795978  -0.000621   0.155569  -0.003989
 621   7   7.870054   2.195185  13.234831  -0.000640   0.155569  -0.004113
 622   7   7.063494   0.838519  13.013463  -0.000985   0.155569  -0.006333
 623  17   7.779746  -0.936524  12.119085  -0.000528   0.072205  -0.007315
 624  17   8.694072  -1.240646  11.441215  -0.001037   0.163132  -0.006359
 625  17   9.954707  -0.865844  10.907011  -0.000839   0.163132  -0.005143
 626  17  10.863378   0.224367  10.935447  -0.001038   0.163132  -0.006363
 627  17  11.097043   1.303771  11.345665  -0.000485   0.072205  -0.006717
 628   7   7.836175  -1.169531  11.557683  -0.001029   0.155572  -0.006616
 629   7   9.197673  -1.254972  10.733549  -0.000606   0.155572  -0.003893
 630   7  10.494495  -0.379180  10.431198  -0.000615   0.155572  -0.003951
 631   7  11.113801   1.043972  10.793513  -0.001029   0.155572  -0.006617
 632   8  11.047839   6.979310   7.787624  -0.000328   0.064722  -0.005073
 633   9  11.096491   7.511923   7.170390  -0.000269   0.064722  -0.004154
 634  19  11.355562   7.485806   7.022250  -0.000462   0.064722  -0.007144
 635   8  12.197933   3.993488   5.623602  -0.000326   0.064722  -0.005040
 636   9  12.277205   4.446608   4.948753  -0.000276   0.064722  -0.004270
 637  19  12.428902   4.699251   5.002649  -0.000486   0.064722  -0.007509
 638   9   9.266577   8.065625   7.648927   0.000595   0.316848   0.001879
 639   9  10.606891   7.754032   7.435830  -0.000084   0.316848  -0.000264
 640   8   9.916027   7.192097   8.461618   0.000285   0.635714   0.000448
 641   9  12.074095   3.943847   4.674332  -0.000121   0.317169  -0.000382
 642   9  11.184697   3.080999   4.036218   0.000673   0.317169   0.002123
 643   8  11.588604   2.846750   5.312245   0.000223   0.636369   0.000350
 644  17  11.075141   1.777739  11.455688  -0.000502   0.079476  -0.006319
 645   8  11.504695   2.533554  10.782036  -0.000352   0.112226  -0.003137
 646   8  12.322198   3.809958   6.068899  -0.000378   0.084258  -0.004489
 647  18  12.482926   3.932959   6.291481  -0.000561   0.084258  -0.006658
 648  19  12.422928   4.574970   5.485153  -0.000553   0.084258  -0.006560
 649   8  11.214695   6.686243   8.153766  -0.000384   0.084258  -0.004560
 650  18  11.477778   6.543418   8.183665  -0.000591   0.084258  -0.007010
 651  19  11.454889   7.089056   7.307481  -0.000555   0.084258  -0.006587
 652  18  11.514126   6.357149   8.898276  -0.000384   0.067747  -0.005668
 653  18  11.469492   5.813461   9.864894  -0.000816   0.150814  -0.005411
 654  18  11.627218   4.670362  10.549409  -0.000902   0.150814  -0.005979
 655  18  11.976315   3.383405  10.401130  -0.001242   0.150814  -0.008238
 656  18  12.371168   2.489406   9.481908  -0.001083   0.150814  -0.007184
 657  18  12.647076   2.361269   8.175169  -0.000825   0.150814  -0.005468
 658  18  12.688952   3.052442   7.025978  -0.000868   0.150814  -0.005757
 659   8  11.100892   6.323651   9.320831  -0.000610   0.148033  -0.004121
 660   8  11.135485   5.335212  10.458092  -0.000542   0.148033  -0.003660
 661   8  11.436268   3.893052  10.776330  -0.000921   0.148033  -0.006221
 662   8  11.877778   2.598725  10.142803  -0.001142   0.148033  -0.007715
 663   8  12.275854   1.992119   8.821766  -0.000706   0.148033  -0.004769
 664   8  12.464448   2.326263   7.364251  -0.000596   0.148033  -0.004026
 665   8  12.429800   3.145303   6.453952  -0.000300   0.082767  -0.003628
 666   9   6.191483   8.656351   5.407615   0.000462   0.047967   0.009629
 667  10   5.538483   8.723881   4.964732   0.000431   0.047967   0.008977
 668  11   5.966353   8.852688   5.080217   0.000501   0.047967   0.010447
 669   9   8.179825   3.491717   1.666030   0.000447   0.047967   0.009319
 670  10   7.525940   3.561546   1.224812   0.000433   0.047967   0.009017
 671  11   7.975783   3.633278   1.298948   0.000487   0.047967   0.010156
 672  11  11.490137   8.059909   1.598984  -0.000701   0.203832  -0.003441
 673  11  11.030854   6.131276   0.907228   0.001462   0.418883   0.003491
 674  11   9.331007   4.238742   0.961693   0.003866   0.418883   0.009229
 675   9  11.661663   7.066936   1.804879  -0.000982   0.418883  -0.002344
 676   9  10.615357   4.805092   1.291619   0.003189   0.418883   0.007613
 677   9   8.968494   3.547549   1.631504   0.001737   0.203832   0.008524
 678  11   6.559185   9.289077   5.106217   0.001727   0.203808   0.008472
 679  11   8.379457  10.095635   4.439737   0.003186   0.418827   0.007607
 680  11  10.452367   9.691036   3.021232  -0.000983   0.418827  -0.002348
 681   9   7.542868   9.399307   5.385277   0.003861   0.418827   0.009218
 682   9   9.794137   9.859123   4.292956   0.001453   0.418827   0.003470
 683   9  11.290305   9.094914   3.033753  -0.000760   0.203808  -0.003728
 684  19  12.009371   8.683927   3.435214  -0.000541   0.069036  -0.007831
 685  19  11.714789   9.055056   4.460313  -0.000999   0.154298  -0.006475
 686  19  11.515377   8.781741   5.781592  -0.000920   0.154298  -0.005964
 687  19  11.528730   8.025156   6.619891  -0.000356   0.069036  -0.005159
 688   9  11.548715   9.006883   3.635791  -0.000998   0.150274  -0.006643
 689   9  11.206185   9.196719   5.116813  -0.000641   0.150274  -0.004265
 690   9  11.125662   8.427042   6.438897  -0.000703   0.150274  -0.004676
 691  19  12.685394   5.022255   4.443534  -0.000404   0.069027  -0.005853
 692  19  12.743012   5.594495   3.471810  -0.000898   0.154273  -0.005821
 693  19  12.592157   6.777113   2.809643  -0.001006   0.154273  -0.006519
 694  19  12.321780   7.872783   2.847479  -0.000539   0.069027  -0.007814
 695   9  12.478396   4.915064   3.893668  -0.000677   0.150258  -0.004503
 696   9  12.457910   5.946874   2.761769  -0.000624   0.150258  -0.004154
 697   9  12.158351   7.424042   2.488852  -0.001059   0.150258  -0.007046
 698  10   6.741710   8.853064  -1.227281  -0.000096   0.005656  -0.017041
 699  11   7.181680   8.980976  -1.179270  -0.000053   0.005656  -0.009419
 700  21   7.444848   9.118515  -1.165930  -0.000092   0.005656  -0.016195
 701  10   6.511458   9.451255  -0.794151  -0.000098   0.005656  -0.017274
 702  11   6.948355   9.587149  -0.740360  -0.000057   0.005656  -0.010028
 703  21   7.232652   9.669798  -0.766765  -0.000114   0.005656  -0.020199
 704  11   6.648631   9.882616  -0.350554  -0.000784   0.207843  -0.003774
 705  11   6.130920  10.485681   1.550666  -0.000028   0.425409  -0.000065
 706  11   5.834635   9.793959   3.934700   0.002762   0.425409   0.006494
 707  10   5.809292  10.015023   0.236152  -0.001508   0.425409  -0.003544
 708  10   5.288524  10.201139   2.674193   0.001471   0.425409   0.003457
 709  10   5.178572   9.209666   4.477312   0.001434   0.207843   0.006899
 710  11   7.922025   3.876845   0.625692   0.001409   0.207787   0.006779
 711  11   7.867705   5.294718  -0.867941   0.001460   0.425283   0.003433
 712  11   7.397947   7.681490  -1.442103  -0.001543   0.425283  -0.003628
 713  10   7.287521   4.226658  -0.109803   0.002771   0.425283   0.006517
 714  10   7.054978   6.291764  -1.498427  -0.000018   0.425283  -0.000043
 715  10   6.569775   8.293921  -1.512649  -0.000768   0.207787  -0.003696
 716  10   1.704056   6.831467   0.414299  -0.000163   0.016859  -0.009649
 717  16   1.343711   6.333993   0.810036  -0.000174   0.016859  -0.010319
 718  20   1.810205   6.980052   0.180209  -0.000203   0.016859  -0.012056
 719  10   1.982456   6.108074  -0.109792  -0.000165   0.016859  -0.009777
 720  16   1.588944   5.696777   0.348380  -0.000187   0.016859  -0.011102
 721  20   2.060143   6.330613  -0.290303  -0.000179   0.016859  -0.010593
 722  16   0.939500   6.103279   1.082696  -0.000182   0.023257  -0.007827
 723  10   1.549402   6.814170   0.521404  -0.000060   0.032858  -0.001821
 724  16   1.231464   5.339994   0.524682  -0.000200   0.023236  -0.008621
 725  10   1.891604   5.929198  -0.115200  -0.000072   0.032829  -0.002181
 726  10   6.171634   9.364345  -0.895255  -0.000173   0.013587  -0.012711
 727  20   5.908486   9.303800  -1.018388  -0.000174   0.013587  -0.012795
 728  21   6.901921   9.513437  -0.791951  -0.000145   0.013587  -0.010666
 729  10   6.387831   8.802543  -1.302267  -0.000155   0.013587  -0.011405
 730  20   6.102378   8.799962  -1.383407  -0.000180   0.013587  -0.013276
 731  21   7.091848   9.019900  -1.149507  -0.000144   0.013587  -0.010576
 732  20   5.686883   8.521681  -1.745559  -0.000511   0.071226  -0.007169
 733  20   5.392308   7.456178  -2.108871  -0.001051   0.160413  -0.006549
 734  20   4.448807   6.418080  -2.082120  -0.000787   0.160413  -0.004906
 735  20   3.203416   6.104970  -1.516857  -0.000963   0.160413  -0.006005
 736  20   2.323404   6.445396  -0.835862  -0.000484   0.071226  -0.006791
 737  10   5.976076   7.989229  -1.768287  -0.001063   0.153913  -0.006905
 738  10   5.289372   6.602705  -2.065126  -0.000642   0.153913  -0.004168
 739  10   3.982908   5.796221  -1.711775  -0.000590   0.153913  -0.003834
 740  10   2.658455   5.941252  -0.870993  -0.001031   0.153913  -0.006699
 741  20   1.897817   7.551247  -0.034685  -0.000526   0.071227  -0.007382
 742  20   2.238413   8.612479   0.299798  -0.000929   0.160416  -0.005788
 743  20   3.218955   9.613826   0.233143  -0.000920   0.160416  -0.005737
 744  20   4.464098   9.868145  -0.361450  -0.001023   0.160416  -0.006379
 745  20   5.317819   9.480711  -1.050763  -0.000493   0.071227  -0.006927
 746  10   1.929894   7.834369   0.500546  -0.000966   0.153915  -0.006276
 747  10   2.672881   9.200275   0.754409  -0.000623   0.153915  -0.004046
 748  10   4.001309   9.949735   0.359735  -0.000643   0.153915  -0.004177
 749  10   5.303272   9.737529  -0.501681  -0.001052   0.153915  -0.006834
 750  11  11.403979   8.586892   1.891416  -0.000111   0.008505  -0.013023
 751  19  11.747946   8.324720   2.486411  -0.000152   0.008505  -0.017850
 752  21  11.308071   8.747758   1.661252  -0.000130   0.008505  -0.015230
 753  11  11.264767   8.948648   2.153378  -0.000112   0.008505  -0.013129
 754  19  11.625448   8.643043   2.716922  -0.000142   0.008505  -0.016639
 755  21  11.183171   9.072320   1.896281  -0.000112   0.008505  -0.013138
 756  19  12.134339   8.181188   2.829582  -0.000091   0.006774  -0.013366
 757  11  11.548198   8.538364   1.971567  -0.000048   0.009567  -0.005033
 758  19  11.993951   8.547223   3.094032  -0.000098   0.007100  -0.013783
 759  11  11.385221   8.960424   2.277919  -0.000051   0.010027  -0.005127
 760  21  11.264068   8.801807   1.081228  -0.000504   0.065734  -0.007665
 761  21  11.086297   8.133453   0.252226  -0.000824   0.145451  -0.005665
 762  21  10.336501   7.743120  -0.744317  -0.000800   0.145451  -0.005499
 763  21   9.219709   7.989478  -1.376565  -0.000740   0.145451  -0.005086
 764  21   8.175909   8.775467  -1.395428  -0.001010   0.145451  -0.006941
 765  11  11.288186   8.220154   1.037652  -0.000890   0.144479  -0.006163
 766  11  10.792828   7.472515  -0.124876  -0.000562   0.144479  -0.003893
 767  11   9.688393   7.387327  -1.088609  -0.000585   0.144479  -0.004048
 768  11   8.410000   7.998152  -1.473863  -0.000777   0.144479  -0.005376
 769  11   7.558416   8.815107  -1.308384  -0.000525   0.080309  -0.006541
 770  21   7.535710  10.009688  -0.632751  -0.000480   0.065738  -0.007300
 771  21   7.768839  10.646318   0.207505  -0.000943   0.145462  -0.006480
 772  21   8.569161  10.979591   1.185389  -0.000700   0.145462  -0.004815
 773  21   9.698813  10.674392   1.767266  -0.000778   0.145462  -0.005347
 774  21  10.712688   9.850975   1.723866  -0.001026   0.145462  -0.007050
 775  11   7.218577  10.179861  -0.173091  -0.000968   0.144486  -0.006700
 776  11   7.784214  10.874328   0.990448  -0.000614   0.144486  -0.004246
 777  11   8.926159  10.890939   1.913343  -0.000528   0.144486  -0.003652
 778  11  10.194463  10.223148   2.231954  -0.000753   0.144486  -0.005212
 779  11  11.008364   9.381218   2.010875  -0.000551   0.080314  -0.006855
 780  16  -0.524953   4.747536   3.251307  -0.001621   0.298594  -0.005429
 781  16  -0.178832   5.621143   3.769124  -0.001017   0.298594  -0.003406
 782  12  -0.987989   4.721601   4.716079  -0.002370   0.598026  -0.003963
 783  16   0.990756   2.578213   1.558695  -0.001186   0.301009  -0.003940
 784  16   0.125280   3.045194   2.014000  -0.001538   0.301009  -0.005110
 785  13   0.222921   1.569655   2.423273  -0.002419   0.602945  -0.004011
 786  15   1.824293   0.432726  11.338511  -0.000592   0.219077  -0.002702
 787  15   1.868961  -0.635217  11.152356  -0.002341   0.438209  -0.005343
 788  15   2.265132  -1.661282  10.409606  -0.002416   0.438209  -0.005512
 789  15   2.783532  -2.051656   9.540112  -0.000582   0.219077  -0.002657
 790  14   0.659680   0.100009  10.558347  -0.001751   0.438209  -0.003996
 791  14   0.852546  -1.136865  10.117458  -0.002107   0.438209  -0.004809
 792  14   1.412237  -1.849077   9.147439  -0.001689   0.438209  -0.003855
 793  17   7.095738  -0.413127  12.612634  -0.001011   0.331062  -0.003054
 794  15   5.745695  -0.910064  12.234683  -0.000974   0.331062  -0.002943
 795  20   1.852192   6.678168  -0.280269  -0.000762   0.280533  -0.002717
 796  16   1.082920   5.898754   0.686146  -0.000828   0.280533  -0.002951
 797  19  11.965086   7.360970   6.981752  -0.000896   0.265983  -0.003368
 798  19  12.774707   6.610387   6.443154  -0.003224   0.532117  -0.006060
 799  19  12.948175   5.413171   5.572340  -0.002977   0.532117  -0.005595
 800  18  12.289334   6.223118   7.980842  -0.002915   0.532117  -0.005478
 801  18  12.987901   5.155583   7.210058  -0.003203   0.532117  -0.006019
 802  18  12.846714   4.170184   6.490335  -0.000823   0.265983  -0.003096
 803  21  11.349179   9.085586   1.666179  -0.000191   0.140903  -0.001357
 804  19  12.056605   8.442187   2.781020  -0.000277   0.140903  -0.001967
 805  21   7.343017   9.443507  -1.147122  -0.000492   0.222214  -0.002215
 806  20   5.885067   9.198321  -1.350804  -0.000471   0.222214  -0.002119
 =====================================================

              6102287  WORDS OF DYNAMIC MEMORY USED
 EXECUTION OF GAMESS TERMINATED NORMALLY Wed Nov 23 00:01:47 2016
 DDI: 263640 bytes (0.3 MB / 0 MWords) used by master data server.

 ----------------------------------------
 CPU timing information for all processes
 ========================================
 0: 1152.216 + 0.280 = 1152.496
 ----------------------------------------
 ddikick.x: exited gracefully.
