----- GAMESS execution script -----

          ******************************************************
          *         GAMESS VERSION =  5 DEC 2014 (R1)          *
          *             FROM IOWA STATE UNIVERSITY             *
          * M.W.SCHMIDT, K.K.BALDRIDGE, J.A.BOATZ, S.T.ELBERT, *
          *   M.S.GORDON, J.H.JENSEN, S.KOSEKI, N.MATSUNAGA,   *
          *          K.A.NGUYEN, S.J.SU, T.L.WINDUS,           *
          *       TOGETHER WITH M.DUPUIS, J.A.MONTGOMERY       *
          *         J.COMPUT.CHEM.  14, 1347-1363(1993)        *
          **************** 64 BIT LINUX VERSION ****************

 EXECUTION OF GAMESS BEGUN Wed Nov 23 00:01:09 2016

            ECHO OF THE FIRST FEW INPUT CARDS -
 INPUT CARD>! SELECT RESTRICTED HARTREE-FOCK AS DEFAULT                                     
 INPUT CARD>$contrl scftyp=rhf $end                                                         
 INPUT CARD>                                                                                
 INPUT CARD>! THEORY: HF OR DFT                                                             
 INPUT CARD> $contrl mplevl=0 $end                                                          
 INPUT CARD>                                                                                
 INPUT CARD> $system timlim=10000 mwords=20 $end                                            
 INPUT CARD> $SCF DIRSCF=.TRUE. $end                                                        
 INPUT CARD>                                                                                
 INPUT CARD>                                                                                
 INPUT CARD>! BASIS SETS                                                                    
 INPUT CARD>! 6-311G(d,p)                                                                   
 INPUT CARD> $BASIS GBASIS=N311 NGAUSS=6 NDFUNC=1 NPFUNC=1 $END                             
 INPUT CARD>                                                                                
 INPUT CARD>! One of the following                                                          
 INPUT CARD> $guess guess=HUCKEL $end                                                       
 INPUT CARD>                                                                                
 INPUT CARD> $statpt projct=.FALSE. $end                                                    
 INPUT CARD> $STATPT IFREEZ(1)=1,2,3 $END                                                   
 INPUT CARD>                                                                                
 INPUT CARD>! Optimize the geometry with COSMO effects                                      
 INPUT CARD> $statpt opttol=0.0005 nstep=50 $end                                            
 INPUT CARD> $contrl nzvar=1 $end                                                           
 INPUT CARD> $zmat dlc=.t. auto=.t. $end                                                    
 INPUT CARD> $contrl runtyp=OPTIMIZE maxit=200 $end                                         
 INPUT CARD>                                                                                
 INPUT CARD>! Run COSMO on perfect conductor                                                
 INPUT CARD> $COSGMS PRFCND=.TRUE. $end                                                     
 INPUT CARD>                                                                                
 INPUT CARD>! Specifying RSOLV                                                              
 INPUT CARD> $COSGMS COSRAD = 1.4 $end                                                      
 INPUT CARD>                                                                                
 INPUT CARD>! available memory                                                              
 INPUT CARD> $SYSTEM MWORDS=40 $END                                                         
 INPUT CARD>                                                                                
 INPUT CARD> $DATA                                                                          
 INPUT CARD>                                                                                
 INPUT CARD>C1                                                                              
 INPUT CARD>C      6.0      4.7026000000    0.6230000000   -1.2042000000                    
 INPUT CARD>C      6.0      3.8581000000    0.5701000000   -0.1667000000                    
 INPUT CARD>C      6.0      2.4483000000    1.0875000000   -0.2024000000                    
 INPUT CARD>C      6.0      1.4381000000   -0.0350000000    0.0432000000                    
 INPUT CARD>C      6.0      0.0029000000    0.4947000000    0.0159000000                    
 INPUT CARD>C      6.0     -1.0088000000   -0.6251000000    0.2657000000                    
 INPUT CARD>C      6.0     -2.4435000000   -0.0957000000    0.2341000000                    
 INPUT CARD>C      6.0     -3.4545000000   -1.2138000000    0.4869000000                    
 INPUT CARD>C      6.0     -4.8821000000   -0.6920000000    0.4534000000                    
 INPUT CARD>H      1.0      5.7139000000    0.2363000000   -1.1167000000                    
 INPUT CARD>H      1.0      4.4099000000    1.0483000000   -2.1586000000                    
 INPUT CARD>H      1.0      4.2007000000    0.1381000000    0.7712000000                    
   40000000 WORDS OF MEMORY AVAILABLE

     BASIS OPTIONS
     -------------
     GBASIS=N311         IGAUSS=       6      POLAR=POPN311 
     NDFUNC=       1     NFFUNC=       0     DIFFSP=       F
     NPFUNC=       1      DIFFS=       F     BASNAM=        


     RUN TITLE
     ---------
                                                                                 

 THE POINT GROUP OF THE MOLECULE IS C1      
 THE ORDER OF THE PRINCIPAL AXIS IS     0

 ATOM      ATOMIC                      COORDINATES (BOHR)
           CHARGE         X                   Y                   Z
 C           6.0     8.8866254299        1.1772992904       -2.2756080344
 C           6.0     7.2907518332        1.0773327856       -0.3150173222
 C           6.0     4.6266161357        2.0550770116       -0.3824805399
 C           6.0     2.7176149429       -0.0661404096        0.0816361627
 C           6.0     0.0054802054        0.9348474461        0.0300466432
 C           6.0    -1.9063555764       -1.1812677149        0.5021001949
 C           6.0    -4.6175454510       -0.1808467770        0.4423848537
 C           6.0    -6.5280584246       -2.2937494039        0.9201075834
 C           6.0    -9.2258312447       -1.3076903835        0.8568017628
 H           1.0    10.7977053212        0.4465422509       -2.1102570105
 H           1.0     8.3335026333        1.9809997529       -4.0791625171
 H           1.0     7.9381719566        0.2609711589        1.4573566817
 H           1.0     4.4268720988        3.5114888304        1.0782776486
 H           1.0     4.2284508701        2.9670587733       -2.2000189949
 H           1.0     2.9396577465       -1.5367251732       -1.3641931905
 H           1.0     3.0904578803       -0.9588469662        1.9156152338
 H           1.0    -0.2184523242        2.4067550180        1.4722855170
 H           1.0    -0.3741657456        1.8160266742       -1.8069559895
 H           1.0    -1.6788325675       -2.6561988483       -0.9359812817
 H           1.0    -1.5304890775       -2.0582895458        2.3421263892
 H           1.0    -4.8445015421        1.2978638084        1.8764979058
 H           1.0    -4.9945457855        0.6923956019       -1.3997200391
 H           1.0    -6.3122517168       -3.7754835509       -0.5107929345
 H           1.0    -6.1665538431       -3.1651020568        2.7648580926
 H           1.0    -9.6687830162       -0.4794234831       -0.9866259382
 H           1.0   -10.5601667646       -2.8491398717        1.2048892898
 H           1.0    -9.5215733617        0.1373830793        2.3065995406

          INTERNUCLEAR DISTANCES (ANGS.)




     $CONTRL OPTIONS
     ---------------
 SCFTYP=RHF          RUNTYP=OPTIMIZE     EXETYP=RUN     
 MPLEVL=       0     CITYP =NONE         CCTYP =NONE         VBTYP =NONE    
 DFTTYP=NONE         TDDFT =NONE    
 MULT  =       1     ICHARG=       0     NZVAR =       1     COORD =UNIQUE  
 PP    =NONE         RELWFN=NONE         LOCAL =NONE         NUMGRD=       F
 ISPHER=      -1     NOSYM =       0     MAXIT =     200     UNITS =ANGS    
 PLTORB=       F     MOLPLT=       F     AIMPAC=       F     FRIEND=        
 NPRINT=       7     IREST =       0     GEOM  =INPUT   
 NORMF =       0     NORMP =       0     ITOL  =      20     ICUT  =       9
 INTTYP=BEST         GRDTYP=BEST         QMTTOL= 1.0E-06

     $SYSTEM OPTIONS
     ---------------
  REPLICATED MEMORY=    40000000 WORDS (ON EVERY NODE).
 DISTRIBUTED MEMDDI=           0 MILLION WORDS IN AGGREGATE,
 MEMDDI DISTRIBUTED OVER   1 PROCESSORS IS           0 WORDS/PROCESSOR.
 TOTAL MEMORY REQUESTED ON EACH PROCESSOR=    40000000 WORDS.
 TIMLIM=       10000.00 MINUTES, OR       6.9 DAYS.
 PARALL= F  BALTYP=  DLB     KDIAG=    0  COREFL= F
 MXSEQ2=     300 MXSEQ3=     150  mem10=         0

     $COSGMS OPTIONS
     ---------------
     EPSI  =   INFTY     NSPA  =      92     COSRAD=    1.40
     DISEX =   10.00     OUTCHG=DBLCAV       COSBUG=       F
     COSWRT=       F     DCOSMO=       F

     SYMMETRY COORDINATES WILL NOT BE USED FOR 
     THE COSMO CALCULATION, EVEN IF SPECIFIED:
         -- SWITCHING TO C1 POINT GROUP --


     DEFINITION OF CAVITY
     ---------------------------
     ATOM         COORDINATES           RADIUS 
     1    8.8866    1.1773   -2.2756    2.0000
     2    7.2908    1.0773   -0.3150    2.0000
     3    4.6266    2.0551   -0.3825    2.0000
     4    2.7176   -0.0661    0.0816    2.0000
     5    0.0055    0.9348    0.0300    2.0000
     6   -1.9064   -1.1813    0.5021    2.0000
     7   -4.6175   -0.1808    0.4424    2.0000
     8   -6.5281   -2.2937    0.9201    2.0000
     9   -9.2258   -1.3077    0.8568    2.0000
    10   10.7977    0.4465   -2.1103    1.3000
    11    8.3335    1.9810   -4.0792    1.3000
    12    7.9382    0.2610    1.4574    1.3000
    13    4.4269    3.5115    1.0783    1.3000
    14    4.2285    2.9671   -2.2000    1.3000
    15    2.9397   -1.5367   -1.3642    1.3000
    16    3.0905   -0.9588    1.9156    1.3000
    17   -0.2185    2.4068    1.4723    1.3000
    18   -0.3742    1.8160   -1.8070    1.3000
    19   -1.6788   -2.6562   -0.9360    1.3000
    20   -1.5305   -2.0583    2.3421    1.3000
    21   -4.8445    1.2979    1.8765    1.3000
    22   -4.9945    0.6924   -1.3997    1.3000
    23   -6.3123   -3.7755   -0.5108    1.3000
    24   -6.1666   -3.1651    2.7649    1.3000
    25   -9.6688   -0.4794   -0.9866    1.3000
    26  -10.5602   -2.8491    1.2049    1.3000
    27   -9.5216    0.1374    2.3066    1.3000

          ----------------
          PROPERTIES INPUT
          ----------------

     MOMENTS            FIELD           POTENTIAL          DENSITY
 IEMOM =       1   IEFLD =       0   IEPOT =       0   IEDEN =       0
 WHERE =COMASS     WHERE =NUCLEI     WHERE =NUCLEI     WHERE =NUCLEI  
 OUTPUT=BOTH       OUTPUT=BOTH       OUTPUT=BOTH       OUTPUT=BOTH    
 IEMINT=       0   IEFINT=       0                     IEDINT=       0
                                                       MORB  =       0
          EXTRAPOLATION IN EFFECT
          SOSCF IN EFFECT
 ORBITAL PRINTING OPTION: NPREO=     1   279     2     1

     -------------------------------
     INTEGRAL TRANSFORMATION OPTIONS
     -------------------------------
     NWORD  =            0
     CUTOFF = 1.0E-09     MPTRAN =       0
     DIRTRF =       T     AOINTS =DUP     

          ----------------------
          INTEGRAL INPUT OPTIONS
          ----------------------
 NOPK  =       1 NORDER=       0 SCHWRZ=       T


 -----------------------------------------------
  STATISTICS ON AUTOMATIC COORDINATE GENERATION 
 -----------------------------------------------
  NUMBER OF USER SPECIFIED BONDS                             0
  NUMBER OF BONDS                                           26
  NUMBER OF ANGLES                                          48
  NUMBER OF TORSIONS                                        64
  NUMBER OF EXTRA COORD.                                     0
  NUMBER OF EXTRA COORD. FOR CONSTRAINTS                     0
  NUMBER OF CONSTRAINED COORD.                               0

  TOTAL NUMBER OF PRIMITIVES                               138
 -----------------------------------------------

   --- ENCODED Z MATRIX ---
 COORD  TYPE   I   J   K   L   M   N
    1      1    1   2
    2      1    1  11
    3      1    1  10
    4      1    2  12
    5      1    2   3
    6      1    3  13
    7      1    3   4
    8      1    3  14
    9      1    4  16
   10      1    4  15
   11      1    4   5
   12      1    5   6
   13      1    5  18
   14      1    5  17
   15      1    6   7
   16      1    6  20
   17      1    6  19
   18      1    7   8
   19      1    7  22
   20      1    7  21
   21      1    8  24
   22      1    8  23
   23      1    8   9
   24      1    9  27
   25      1    9  26
   26      1    9  25
   27      2    1   2   3
   28      2    1   2  12
   29      2    2   3  14
   30      2    2   1  10
   31      2    2   1  11
   32      2    2   3   4
   33      2    2   3  13
   34      2    3   4  15
   35      2    3   4   5
   36      2    3   2  12
   37      2    3   4  16
   38      2    4   5   6
   39      2    4   5  17
   40      2    4   3  13
   41      2    4   5  18
   42      2    4   3  14
   43      2    5   6  19
   44      2    5   6  20
   45      2    5   6   7
   46      2    5   4  16
   47      2    5   4  15
   48      2    6   7   8
   49      2    6   5  17
   50      2    6   5  18
   51      2    6   7  21
   52      2    6   7  22
   53      2    7   6  19
   54      2    7   6  20
   55      2    7   8   9
   56      2    7   8  23
   57      2    7   8  24
   58      2    8   9  27
   59      2    8   9  26
   60      2    8   7  21
   61      2    8   7  22
   62      2    8   9  25
   63      2    9   8  23
   64      2    9   8  24
   65      2   10   1  11
   66      2   13   3  14
   67      2   15   4  16
   68      2   17   5  18
   69      2   19   6  20
   70      2   21   7  22
   71      2   23   8  24
   72      2   25   9  26
   73      2   25   9  27
   74      2   26   9  27
   75      3    1   2   3  13
   76      3    1   2   3  14
   77      3    1   2   3   4
   78      3    2   3   4   5
   79      3    2   3   4  15
   80      3    2   3   4  16
   81      3    3   2   1  11
   82      3    3   4   5  17
   83      3    3   4   5  18
   84      3    3   4   5   6
   85      3    3   2   1  10
   86      3    4   3   2  12
   87      3    4   5   6  19
   88      3    4   5   6  20
   89      3    4   5   6   7
   90      3    5   6   7   8
   91      3    5   4   3  14
   92      3    5   4   3  13
   93      3    5   6   7  21
   94      3    5   6   7  22
   95      3    6   7   8   9
   96      3    6   7   8  23
   97      3    6   5   4  15
   98      3    6   7   8  24
   99      3    6   5   4  16
  100      3    7   6   5  17
  101      3    7   6   5  18
  102      3    7   8   9  25
  103      3    7   8   9  26
  104      3    7   8   9  27
  105      3    8   7   6  19
  106      3    8   7   6  20
  107      3    9   8   7  21
  108      3    9   8   7  22
  109      3   10   1   2  12
  110      3   11   1   2  12
  111      3   12   2   3  13
  112      3   12   2   3  14
  113      3   13   3   4  15
  114      3   13   3   4  16
  115      3   14   3   4  15
  116      3   14   3   4  16
  117      3   15   4   5  18
  118      3   15   4   5  17
  119      3   16   4   5  18
  120      3   16   4   5  17
  121      3   17   5   6  20
  122      3   17   5   6  19
  123      3   18   5   6  20
  124      3   18   5   6  19
  125      3   19   6   7  22
  126      3   19   6   7  21
  127      3   20   6   7  22
  128      3   20   6   7  21
  129      3   21   7   8  24
  130      3   21   7   8  23
  131      3   22   7   8  24
  132      3   22   7   8  23
  133      3   23   8   9  25
  134      3   23   8   9  26
  135      3   23   8   9  27
  136      3   24   8   9  25
  137      3   24   8   9  26
  138      3   24   8   9  27

          INDEP./SYM. INTERNAL COORDINATES
          --------------------------------
 CRD  1=  -0.2478 ( 32) -0.1149 ( 34)  0.3634 ( 35) -0.4293 ( 38)  0.1197 ( 39)
           0.1366 ( 41) -0.1308 ( 43) -0.1194 ( 44)  0.4081 ( 45) -0.1223 ( 46)
          -0.1028 ( 47) -0.3098 ( 48)  0.1367 ( 49)  0.1240 ( 50)  0.1012 ( 52)
          -0.1144 ( 53) -0.1269 ( 54)  0.1744 ( 55)
 CRD  2=  -0.3124 ( 27)  0.1376 ( 28)  0.1019 ( 33)  0.1752 ( 36)  0.1282 ( 39)
           0.1177 ( 46) -0.1011 ( 53)  0.1078 ( 54) -0.1419 ( 77)  0.2959 ( 78)
           0.1235 ( 79)  0.1321 ( 80) -0.1032 ( 82) -0.2514 ( 84)  0.1575 ( 87)
           0.1567 ( 88)  0.3220 ( 89) -0.2041 ( 90)  0.1416 ( 91)  0.1480 ( 92)
          -0.1010 ( 93)  0.1815 ( 95)  0.1093 ( 96) -0.1070 ( 97)  0.1042 ( 98)
          -0.1135 ( 99)  0.1485 (100)  0.1353 (101)
 CRD  3=   0.1022 (  7)  0.1763 ( 11)  0.1609 ( 15)  0.1054 ( 18) -0.1579 ( 29)
           0.4289 ( 32) -0.1142 ( 33) -0.2168 ( 35)  0.1727 ( 38) -0.1494 ( 40)
           0.3004 ( 45) -0.2770 ( 48)  0.1033 ( 51) -0.1171 ( 53)  0.3773 ( 55)
          -0.1078 ( 56) -0.1248 ( 57) -0.1193 ( 63) -0.1057 ( 64)
 CRD  4=  -0.1090 (  1) -0.1711 (  5) -0.2357 (  7) -0.2695 ( 11) -0.3216 ( 12)
          -0.2628 ( 15) -0.2091 ( 18) -0.1383 ( 23) -0.1477 ( 27)  0.1079 ( 28)
           0.1550 ( 34) -0.3508 ( 35) -0.1738 ( 38) -0.1065 ( 45)  0.1018 ( 47)
          -0.3570 ( 48)  0.1185 ( 52)  0.1534 ( 61)  0.1051 ( 84) -0.1082 ( 89)
           0.1138 ( 90)
 CRD  5=  -0.2413 ( 27) -0.1215 ( 29)  0.1533 ( 35)  0.1505 ( 36) -0.1707 ( 37)
          -0.1395 ( 38)  0.1356 ( 39) -0.1080 ( 40)  0.1116 ( 42)  0.1191 ( 43)
          -0.1821 ( 44) -0.1568 ( 47)  0.1551 ( 48) -0.1077 ( 49)  0.1924 ( 50)
          -0.1079 ( 52) -0.1714 ( 55)  0.1416 ( 56) -0.1727 ( 60)  0.1249 ( 77)
           0.1127 ( 78)  0.1231 ( 82)  0.1378 ( 83)  0.2583 ( 84)  0.1200 ( 86)
           0.2584 ( 90)  0.1655 ( 93)  0.1608 ( 94)  0.1481 ( 97)  0.1752 ( 99)
           0.1225 (105)  0.1210 (106)
 CRD  6=  -0.1260 (  1) -0.1798 (  5)  0.1537 ( 15)  0.1482 ( 18)  0.1680 ( 23)
          -0.2251 ( 27)  0.1460 ( 28) -0.1017 ( 31) -0.3981 ( 32)  0.1398 ( 33)
           0.2147 ( 38)  0.1546 ( 40)  0.1103 ( 42) -0.1235 ( 45)  0.4121 ( 55)
          -0.1397 ( 57)  0.1358 ( 62) -0.1066 ( 63) -0.1616 ( 64) -0.1070 ( 77)
           0.1204 ( 90) -0.1038 ( 95)
 CRD  7=   0.3668 ( 27) -0.1565 ( 28) -0.1307 ( 30)  0.1560 ( 31) -0.1938 ( 32)
          -0.2102 ( 36)  0.1427 ( 38) -0.1243 ( 41)  0.1210 ( 42)  0.1286 ( 43)
          -0.2011 ( 45) -0.1657 ( 48) -0.1364 ( 49)  0.1555 ( 51)  0.1646 ( 54)
           0.1924 ( 55) -0.1094 ( 57)  0.1338 ( 58)  0.1127 ( 61) -0.1332 ( 63)
           0.1287 ( 77)  0.1034 ( 84)  0.1328 ( 86)  0.1069 ( 88)  0.1996 ( 89)
           0.2307 ( 95)  0.1630 ( 96)  0.1263 ( 98)  0.1220 (100)  0.1483 (101)
           0.1226 (107)
 CRD  8=  -0.1529 (  5) -0.2461 (  7) -0.1902 ( 11)  0.1818 ( 15)  0.2408 ( 18)
           0.1680 ( 23)  0.1193 ( 34) -0.3629 ( 35) -0.1048 ( 36)  0.1056 ( 37)
          -0.2392 ( 38) -0.1511 ( 43) -0.1311 ( 44)  0.2505 ( 45)  0.1367 ( 47)
           0.3293 ( 48)  0.1312 ( 49)  0.1476 ( 50) -0.1449 ( 52) -0.1096 ( 61)
           0.1110 ( 95)
 CRD  9=  -0.1162 (  5)  0.1883 ( 12) -0.1533 ( 23)  0.1018 ( 29) -0.2833 ( 32)
          -0.1678 ( 35)  0.3555 ( 38) -0.1472 ( 39) -0.1620 ( 41)  0.3563 ( 45)
           0.1199 ( 46)  0.1064 ( 47) -0.1764 ( 48)  0.1326 ( 51)  0.1044 ( 52)
          -0.1739 ( 53) -0.1443 ( 54) -0.3331 ( 55)  0.1192 ( 56) -0.1026 ( 62)
           0.1155 ( 64)
 CRD 10=  -0.2181 (  1) -0.1723 (  5) -0.2488 ( 27)  0.1701 ( 28) -0.1875 ( 31)
           0.1375 ( 35) -0.1175 ( 37)  0.1664 ( 42)  0.1143 ( 44) -0.1072 ( 46)
           0.1576 ( 58)  0.1128 ( 60) -0.1708 ( 62)  0.1952 ( 77) -0.2016 ( 78)
           0.1175 ( 82)  0.1225 ( 83)  0.1510 ( 84)  0.1497 ( 86) -0.2356 ( 90)
          -0.1587 ( 91)  0.1913 ( 95) -0.1205 (102) -0.1782 (103) -0.1195 (104)
          -0.1616 (105) -0.1425 (106)
 CRD 11=   0.1147 (  1)  0.1839 ( 33)  0.1430 ( 34) -0.1104 ( 37) -0.1873 ( 40)
           0.2077 ( 42)  0.1422 ( 46) -0.1016 ( 47) -0.1295 ( 51)  0.1297 ( 52)
          -0.1305 ( 56)  0.1375 ( 57) -0.1879 ( 58)  0.1398 ( 60) -0.1466 ( 61)
           0.1851 ( 62)  0.1499 ( 63) -0.1473 ( 64)  0.2271 ( 77)  0.1514 ( 78)
           0.1339 ( 81)  0.1060 ( 82)  0.2392 ( 86) -0.1620 ( 90)  0.1164 ( 91)
           0.1063 ( 92) -0.2023 ( 95) -0.1063 ( 96) -0.1051 ( 98) -0.1055 (102)
          -0.1042 (104) -0.1196 (105) -0.1203 (106) -0.1375 (107) -0.1343 (108)
           0.1216 (110)  0.1033 (112)
 CRD 12=  -0.3490 (  1) -0.1166 (  3) -0.3465 (  5)  0.1150 (  7)  0.1154 ( 12)
          -0.1148 ( 23) -0.1988 ( 30)  0.1057 ( 32) -0.2459 ( 33)  0.1305 ( 40)
          -0.1234 ( 53) -0.3123 ( 58)  0.2776 ( 62) -0.1210 ( 64)  0.1657 ( 65)
           0.1403 ( 74)  0.1028 ( 75) -0.1087 ( 78) -0.1300 ( 79) -0.1070 ( 80)
           0.1826 ( 89)  0.1246 (100)  0.1045 (101) -0.1106 (108)
 CRD 13=   0.1121 (  1) -0.1294 ( 11)  0.1793 ( 12)  0.1367 ( 18) -0.5730 ( 23)
           0.1277 ( 48)  0.1106 ( 55)  0.1147 ( 56) -0.3906 ( 59) -0.1394 ( 62)
          -0.2116 ( 63) -0.1496 ( 64)  0.2396 ( 72)  0.1032 ( 73)  0.1821 ( 74)
          -0.1015 ( 96)  0.1062 (129) -0.1010 (132)  0.1053 (136)
 CRD 14=  -0.1203 (  1) -0.2548 (  7)  0.2970 ( 11) -0.2300 ( 12)  0.2978 ( 15)
          -0.3103 ( 18) -0.1874 ( 23) -0.1004 ( 28) -0.1047 ( 37)  0.1160 ( 39)
          -0.1128 ( 44)  0.1063 ( 48) -0.1115 ( 49)  0.1050 ( 54) -0.3434 ( 59)
          -0.1016 ( 60) -0.1555 ( 61)  0.1420 ( 62)  0.1352 ( 74)  0.1003 (124)
 CRD 15=  -0.1924 (  1)  0.1847 (  5) -0.1234 (  7) -0.1621 ( 15)  0.2729 ( 18)
          -0.2457 ( 28)  0.1206 ( 29) -0.1157 ( 30)  0.2234 ( 36) -0.1841 ( 42)
           0.1007 ( 43)  0.1018 ( 46) -0.1350 ( 49)  0.1234 ( 50) -0.1127 ( 51)
          -0.1229 ( 56)  0.1886 ( 57)  0.1599 ( 59)  0.1881 ( 60) -0.2092 ( 62)
          -0.1228 ( 64) -0.1054 ( 75) -0.1769 ( 77)  0.1453 ( 84) -0.1553 ( 86)
           0.1121 ( 93)  0.1425 ( 97)  0.1026 ( 99) -0.1486 (102) -0.1514 (103)
          -0.1294 (104) -0.1066 (105) -0.1110 (110)
 CRD 16=  -0.2656 (  1) -0.1666 (  3) -0.1054 (  4) -0.1543 (  5)  0.1969 (  7)
          -0.1104 ( 11) -0.2051 ( 18) -0.2315 ( 28) -0.1267 ( 29) -0.3804 ( 30)
           0.2489 ( 31)  0.1941 ( 36) -0.1282 ( 47)  0.1003 ( 52)  0.3229 ( 58)
          -0.1159 ( 59) -0.1452 ( 62)  0.1314 ( 65)  0.1510 ( 78)  0.1021 ( 80)
           0.1081 ( 92) -0.1144 (101)
 CRD 17=   0.1986 (  1)  0.2478 (  7) -0.2371 ( 11)  0.1263 ( 12) -0.2614 ( 18)
           0.1059 ( 23)  0.1759 ( 28)  0.1723 ( 30) -0.1143 ( 33) -0.1838 ( 36)
           0.1578 ( 40) -0.1466 ( 41)  0.1954 ( 50) -0.1910 ( 56)  0.1152 ( 57)
           0.1699 ( 58) -0.1590 ( 59) -0.1462 ( 61)  0.1480 ( 63) -0.1190 ( 73)
          -0.1063 ( 76) -0.1430 ( 77)  0.1160 ( 84) -0.1325 ( 86)  0.1148 ( 94)
           0.1636 ( 99) -0.1186 (102) -0.1286 (103) -0.1386 (104)
 CRD 18=  -0.1474 (  1)  0.3401 (  5) -0.1430 (  7) -0.1623 ( 11)  0.3355 ( 12)
          -0.2033 ( 15) -0.1730 ( 18) -0.1057 ( 19)  0.1407 ( 23) -0.2360 ( 28)
          -0.1112 ( 31)  0.1198 ( 33)  0.2715 ( 36) -0.1300 ( 39) -0.1096 ( 40)
           0.1307 ( 49) -0.1104 ( 53) -0.1657 ( 59)  0.2946 ( 62) -0.1395 ( 73)
          -0.1052 ( 92)
 CRD 19=  -0.1163 (  1)  0.2595 (  5)  0.3368 (  7)  0.1285 (  8) -0.2706 ( 11)
          -0.2233 ( 12) -0.1116 ( 14)  0.3312 ( 15)  0.1034 ( 20) -0.1204 ( 23)
          -0.1830 ( 28)  0.2209 ( 36)  0.1228 ( 37) -0.1221 ( 46)  0.1238 ( 51)
           0.1264 ( 54) -0.2488 ( 58)  0.1473 ( 59)  0.1226 ( 73) -0.1018 ( 88)
 CRD 20=  -0.1022 (  7) -0.1003 (  9) -0.1436 ( 11)  0.1059 ( 12)  0.1653 ( 15)
           0.1166 ( 16)  0.1592 ( 29)  0.1268 ( 30) -0.1425 ( 31) -0.1567 ( 33)
           0.1648 ( 34) -0.1988 ( 37) -0.1091 ( 41) -0.1443 ( 42) -0.1084 ( 43)
           0.1423 ( 44)  0.1619 ( 46) -0.2311 ( 47)  0.1729 ( 52)  0.1541 ( 53)
           0.1876 ( 56) -0.2319 ( 57) -0.1929 ( 63)  0.1838 ( 64) -0.1452 ( 79)
          -0.1122 ( 80)  0.1217 ( 82)  0.1016 ( 87)  0.1290 ( 91)  0.1133 ( 92)
          -0.1086 ( 96) -0.1051 ( 98)  0.1365 (102)  0.1284 (103)  0.1485 (104)
           0.1184 (108)
 CRD 21=   0.3294 (  7)  0.1618 ( 10)  0.2115 ( 11) -0.2848 ( 12) -0.3037 ( 15)
          -0.1145 ( 16) -0.1555 ( 17)  0.1347 ( 18) -0.1159 ( 32)  0.1688 ( 34)
          -0.1359 ( 35)  0.1414 ( 40) -0.1171 ( 43)  0.1278 ( 45)  0.1320 ( 46)
          -0.1114 ( 51) -0.1074 ( 54)  0.1404 ( 56) -0.1921 ( 59)  0.2244 ( 62)
          -0.1349 ( 73)  0.1120 ( 83)
 CRD 22=   0.1211 (  8) -0.1509 ( 13)  0.1176 ( 14)  0.1097 ( 22) -0.1340 ( 31)
          -0.1129 ( 34)  0.1305 ( 37)  0.1861 ( 43) -0.2127 ( 44) -0.1084 ( 46)
           0.1016 ( 47) -0.2699 ( 51)  0.2568 ( 52) -0.1803 ( 53)  0.1707 ( 54)
           0.1123 ( 56)  0.1726 ( 58)  0.2306 ( 60) -0.2203 ( 61) -0.1331 ( 62)
           0.1026 ( 77) -0.1004 ( 82)  0.1262 ( 89)  0.1388 ( 93)  0.1310 ( 94)
          -0.1407 ( 95) -0.1928 ( 96) -0.1916 ( 98)  0.1019 (100) -0.1092 (106)
 CRD 23=  -0.2187 ( 34)  0.2247 ( 37)  0.2954 ( 39) -0.3016 ( 41) -0.1941 ( 43)
           0.1818 ( 44) -0.1937 ( 46)  0.1883 ( 47) -0.2953 ( 49)  0.2844 ( 50)
           0.2148 ( 53) -0.2179 ( 54) -0.1508 ( 82) -0.1462 ( 83)  0.1849 ( 87)
           0.1848 ( 88)  0.1631 ( 97)  0.1663 ( 99) -0.1394 (100) -0.1412 (101)
 CRD 24=  -0.1376 (  1) -0.1489 (  2)  0.1081 (  3)  0.1138 (  8) -0.1104 ( 13)
           0.1318 ( 19) -0.1186 ( 20)  0.1387 ( 24) -0.1274 ( 26)  0.1360 ( 29)
           0.1627 ( 30) -0.2385 ( 31) -0.1043 ( 33) -0.1091 ( 43) -0.1044 ( 47)
           0.1191 ( 51) -0.1249 ( 52) -0.1026 ( 56)  0.1317 ( 57)  0.2490 ( 58)
          -0.1805 ( 60)  0.1941 ( 61) -0.2035 ( 62)  0.1760 ( 63) -0.1703 ( 64)
           0.1299 ( 72) -0.1224 ( 74)  0.1024 ( 75)  0.1029 ( 76)  0.1022 ( 77)
          -0.1187 ( 79) -0.1071 ( 80) -0.1123 ( 84) -0.1268 ( 95) -0.1129 ( 97)
          -0.1075 ( 99)  0.1708 (105)  0.1594 (106) -0.1524 (107) -0.1554 (108)
           0.1053 (110)
 CRD 25=   0.1969 (  7)  0.1494 (  9)  0.1537 ( 10)  0.3358 ( 11)  0.2259 ( 12)
           0.1462 ( 13)  0.1651 ( 14) -0.2928 ( 18) -0.1074 ( 20) -0.1419 ( 21)
          -0.1297 ( 22) -0.1045 ( 32) -0.2153 ( 35) -0.2050 ( 38)  0.1045 ( 39)
           0.1077 ( 47)  0.1052 ( 48)  0.1866 ( 55) -0.1223 ( 56) -0.1194 ( 57)
          -0.1474 ( 58)  0.2337 ( 59) -0.1781 ( 62) -0.1229 ( 67) -0.1229 ( 68)
           0.1095 ( 71)  0.1577 ( 73)
 CRD 26=  -0.1797 ( 11) -0.2458 ( 12) -0.1430 ( 13) -0.1394 ( 14) -0.2822 ( 15)
          -0.1709 ( 16) -0.1733 ( 17) -0.2582 ( 18) -0.1760 ( 19) -0.1798 ( 20)
          -0.1323 ( 21) -0.1282 ( 22)  0.1301 ( 35)  0.2030 ( 38)  0.2459 ( 45)
           0.2400 ( 48) -0.1013 ( 53) -0.1007 ( 54)  0.1899 ( 55) -0.1074 ( 56)
          -0.1075 ( 57) -0.1118 ( 58)  0.1672 ( 59) -0.1177 ( 62)  0.1127 ( 68)
           0.1371 ( 69)  0.1384 ( 70)  0.1050 ( 71)  0.1160 ( 73)
 CRD 27=  -0.1294 (  9)  0.1723 ( 10)  0.1651 ( 16) -0.1586 ( 17) -0.1601 ( 21)
           0.1620 ( 22) -0.1571 ( 29)  0.1474 ( 33) -0.1965 ( 40)  0.2578 ( 42)
           0.1168 ( 58) -0.1159 ( 62) -0.2081 ( 75) -0.2483 ( 76) -0.2482 ( 81)
           0.1142 ( 82)  0.1128 ( 83) -0.1068 ( 85)  0.1146 ( 89) -0.1144 ( 91)
          -0.1170 ( 92) -0.1221 ( 95)  0.1005 (100)  0.1027 (101) -0.1083 (107)
          -0.1079 (108) -0.1253 (109) -0.2667 (110) -0.1903 (111) -0.2304 (112)
 CRD 28=   0.1709 (  1)  0.2284 (  2) -0.2087 (  3)  0.5214 (  4)  0.1174 (  5)
           0.1133 ( 10) -0.2270 ( 27)  0.1053 ( 28)  0.2113 ( 29) -0.1905 ( 30)
           0.3115 ( 31) -0.1287 ( 33)  0.1214 ( 36)  0.1814 ( 40) -0.1612 ( 42)
          -0.1209 ( 65)  0.1239 ( 75)  0.1285 ( 76) -0.1144 ( 78)  0.1270 ( 81)
           0.1492 (110)  0.1021 (111)  0.1067 (112)
 CRD 29=   0.2466 (  4) -0.1101 (  6)  0.2957 (  8)  0.1041 (  9) -0.1859 ( 13)
           0.1999 ( 14) -0.2035 ( 16)  0.2072 ( 17)  0.2371 ( 21) -0.2366 ( 22)
           0.1604 ( 42) -0.1173 ( 79) -0.1266 ( 80) -0.1648 ( 81) -0.2166 ( 85)
           0.1003 ( 90)  0.1040 ( 93)  0.1037 ( 94) -0.1034 ( 97) -0.1028 ( 99)
          -0.1128 (103)  0.1174 (107)  0.1173 (108) -0.1676 (109) -0.1158 (110)
          -0.1138 (112)
 CRD 30=   0.2232 (  8)  0.2969 (  9) -0.2662 ( 10)  0.1891 ( 13) -0.1788 ( 14)
          -0.2619 ( 19)  0.2628 ( 20) -0.2554 ( 21)  0.2553 ( 22) -0.1349 ( 81)
          -0.1088 ( 82) -0.1127 ( 83) -0.2433 ( 85) -0.1103 (105) -0.1107 (106)
          -0.1874 (109)
 CRD 31=   0.1762 ( 23)  0.5069 ( 24)  0.4816 ( 25)  0.5069 ( 26) -0.1755 ( 58)
          -0.1907 ( 59) -0.1752 ( 62)  0.1917 ( 72)  0.1828 ( 73)  0.1919 ( 74)
 CRD 32=  -0.5825 (  2) -0.5219 (  3)  0.2570 ( 30)  0.2203 ( 31) -0.4773 ( 65)
 CRD 33=   0.1813 (  9) -0.1545 ( 10)  0.2624 ( 13) -0.2535 ( 14)  0.2975 ( 16)
          -0.2948 ( 17)  0.2820 ( 19) -0.2811 ( 20)  0.1932 ( 21) -0.1927 ( 22)
           0.1130 ( 75) -0.1242 ( 81) -0.2616 ( 85) -0.2049 (109)
 CRD 34=   0.3665 (  6) -0.1173 (  8) -0.1362 (  9)  0.1712 ( 10) -0.1363 ( 13)
           0.1495 ( 14) -0.1301 ( 16)  0.1337 ( 17) -0.1204 ( 19)  0.1213 ( 20)
           0.1664 ( 40)  0.1247 ( 47)  0.2122 ( 75)  0.1325 ( 76)  0.1285 ( 79)
           0.1082 ( 80) -0.1390 ( 81) -0.3684 ( 85) -0.2884 (109)  0.1332 (111)
           0.1076 (113)  0.1032 (118)
 CRD 35=  -0.2652 (  6)  0.1524 (  8)  0.1634 (  9) -0.1745 ( 10)  0.1215 ( 13)
          -0.1272 ( 14) -0.1109 ( 39)  0.1144 ( 41) -0.1305 ( 43)  0.1314 ( 44)
          -0.1203 ( 51)  0.1206 ( 52)  0.1168 ( 53) -0.1181 ( 54)  0.1313 ( 60)
          -0.1317 ( 61)  0.1197 ( 63) -0.1199 ( 64) -0.1127 ( 75)  0.1428 ( 85)
           0.1069 (109)  0.1027 (119)  0.1002 (120)  0.1508 (121)  0.1501 (122)
           0.1533 (123)  0.1526 (124)  0.1728 (125)  0.1725 (126)  0.1735 (127)
           0.1732 (128)  0.1570 (129)  0.1568 (130)  0.1572 (131)  0.1570 (132)
 CRD 36=  -0.1842 ( 21) -0.1839 ( 22) -0.2914 ( 24)  0.6338 ( 25) -0.2879 ( 26)
           0.1590 ( 72) -0.3271 ( 73)  0.1568 ( 74) -0.1700 (102)  0.1685 (104)
          -0.1884 (133)  0.1501 (135) -0.1521 (136)  0.1863 (138)
 CRD 37=   0.1356 (  6) -0.5289 ( 24)  0.5303 ( 26)  0.2849 ( 72) -0.2855 ( 74)
           0.2355 (103)  0.2361 (134)  0.2360 (137)
 CRD 38=   0.5975 (  6)  0.5533 (  8)  0.1038 ( 24) -0.1044 ( 26) -0.1235 ( 40)
          -0.1095 ( 42)  0.2707 ( 66) -0.1496 ( 75)  0.1224 ( 76) -0.1127 ( 91)
          -0.1334 (111)  0.1387 (112) -0.1155 (115) -0.1270 (116)
 CRD 39=   0.1098 (  6) -0.2886 (  8)  0.1630 ( 16) -0.1620 ( 17)  0.1044 ( 19)
          -0.1054 ( 20) -0.1004 ( 37)  0.1006 ( 50)  0.1067 ( 63) -0.1064 ( 64)
           0.1147 ( 75) -0.1062 ( 82) -0.1067 ( 83) -0.1084 ( 92) -0.1040 ( 99)
           0.1024 (107)  0.1024 (108) -0.1385 (113) -0.1410 (114) -0.1050 (115)
          -0.1075 (116) -0.1751 (117) -0.1747 (118) -0.1817 (119) -0.1813 (120)
           0.1743 (129)  0.1744 (130)  0.1744 (131)  0.1745 (132)  0.1390 (133)
           0.1409 (135)  0.1390 (136)  0.1409 (138)
 CRD 40=   0.1969 (  9)  0.1974 ( 10) -0.3355 ( 13) -0.3362 ( 14)  0.3744 ( 16)
           0.3727 ( 17) -0.3067 ( 19) -0.3085 ( 20)  0.1571 ( 21)  0.1577 ( 22)
          -0.1094 ( 68)  0.1215 ( 69) -0.1101 (122)  0.1087 (123)  0.1049 (126)
          -0.1044 (127)
 CRD 41=  -0.3151 (  9) -0.3157 ( 10)  0.3031 ( 13)  0.3044 ( 14) -0.3319 ( 19)
          -0.3305 ( 20)  0.2929 ( 21)  0.2931 ( 22) -0.1132 ( 67)  0.1085 ( 68)
          -0.1180 ( 70)  0.1010 ( 71) -0.1062 (118)  0.1089 (119) -0.1056 (130)
           0.1032 (131)
 CRD 42=   0.3457 (  9)  0.3458 ( 10) -0.3572 ( 16) -0.3572 ( 17)  0.3445 ( 21)
           0.3448 ( 22)  0.1392 ( 67) -0.1433 ( 69)  0.1352 ( 71)
 CRD 43=   0.2968 (  9)  0.2964 ( 10)  0.2988 ( 13)  0.2991 ( 14) -0.2920 ( 19)
          -0.2910 ( 20) -0.2945 ( 21) -0.2948 ( 22)  0.1340 ( 67)  0.1345 ( 68)
          -0.1308 ( 70) -0.1310 ( 71)
 CRD 44=  -0.1706 (  9) -0.1702 ( 10) -0.2871 ( 13) -0.2870 ( 14) -0.3295 ( 16)
          -0.3308 ( 17) -0.2928 ( 19) -0.2941 ( 20) -0.1731 ( 21) -0.1729 ( 22)
          -0.1408 ( 68) -0.1620 ( 69) -0.1436 ( 70) -0.1151 (121)  0.1134 (124)
          -0.1153 (125)  0.1152 (128)
 CRD 45=  -0.2226 (  6)  0.2233 (  8) -0.1209 (  9)  0.1193 ( 10) -0.1392 ( 13)
           0.1398 ( 14)  0.1625 ( 19) -0.1613 ( 20)  0.1067 ( 79)  0.1067 ( 80)
           0.1311 ( 91)  0.1383 ( 92) -0.1001 ( 93) -0.1126 (100) -0.1123 (101)
           0.1022 (102)  0.1024 (104)  0.2050 (113)  0.2049 (114)  0.1977 (115)
           0.1977 (116) -0.1536 (121) -0.1538 (122) -0.1533 (123) -0.1535 (124)
          -0.1289 (125) -0.1292 (126) -0.1288 (127) -0.1291 (128)  0.1113 (129)
           0.1112 (130)  0.1112 (131)  0.1111 (132)  0.1450 (133)  0.1277 (134)
           0.1452 (135)  0.1449 (136)  0.1276 (137)  0.1451 (138)
 CRD 46=  -0.1922 (  6)  0.2043 (  8) -0.3461 (  9)  0.3470 ( 10)  0.3156 ( 13)
          -0.3157 ( 14) -0.1428 ( 16)  0.1428 ( 17) -0.1159 ( 82) -0.1181 ( 83)
          -0.1193 ( 97) -0.1244 ( 99)  0.1379 (113)  0.1319 (114)  0.1242 (115)
           0.1182 (116) -0.1933 (117) -0.1912 (118) -0.1985 (119) -0.1963 (120)
 CRD 47=   0.1119 (  6) -0.1169 (  8)  0.1194 ( 13) -0.1195 ( 14) -0.3330 ( 16)
           0.3327 ( 17)  0.3133 ( 19) -0.3126 ( 20) -0.1263 ( 21)  0.1263 ( 22)
           0.1044 ( 87)  0.1047 ( 88) -0.1287 ( 93) -0.1285 ( 94) -0.1315 (105)
          -0.1312 (106)  0.1294 (121)  0.1292 (122)  0.1300 (123)  0.1298 (124)
          -0.2040 (125) -0.2042 (126) -0.2037 (127) -0.2039 (128)
 CRD 48=  -0.1252 ( 13)  0.1252 ( 14)  0.1618 ( 19) -0.1616 ( 20) -0.3428 ( 21)
           0.3419 ( 22)  0.1207 ( 96)  0.1207 ( 98) -0.1521 (102) -0.1686 (103)
          -0.1522 (104)  0.1018 (107)  0.1017 (108)  0.1411 (129)  0.1412 (130)
           0.1410 (131)  0.1411 (132) -0.2339 (133) -0.2503 (134) -0.2340 (135)
          -0.2338 (136) -0.2503 (137) -0.2339 (138)
 CRD 49=   0.1976 (  1)  0.4467 (  3) -0.2410 (  5)  0.1083 (  8) -0.3477 ( 28)
          -0.1337 ( 29)  0.1494 ( 30)  0.1335 ( 31) -0.1692 ( 33)  0.3494 ( 36)
           0.1641 ( 40)  0.1118 ( 42)  0.1099 ( 46) -0.2828 ( 65) -0.1114 ( 80)
          -0.1455 ( 91)  0.1021 (110) -0.1057 (112) -0.1139 (115) -0.2090 (116)
 CRD 50=   0.1101 (  3) -0.1108 (  5)  0.1821 ( 25)  0.1035 ( 34)  0.1352 ( 39)
           0.1395 ( 41)  0.1592 ( 43)  0.1604 ( 44) -0.1266 ( 49) -0.1238 ( 50)
           0.1598 ( 51)  0.1579 ( 52) -0.1532 ( 53) -0.1570 ( 54)  0.1275 ( 56)
           0.1278 ( 57)  0.1349 ( 59) -0.1599 ( 60) -0.1589 ( 61) -0.1612 ( 63)
          -0.1606 ( 64) -0.1026 ( 65) -0.1414 ( 72) -0.1409 ( 74) -0.1282 (118)
           0.1283 (119) -0.1643 (122)  0.1735 (123) -0.1857 (126)  0.1817 (127)
          -0.1922 (130)  0.1914 (131)
 CRD 51=   0.5252 (  2) -0.2406 (  3) -0.6540 (  4)  0.1644 (  5)  0.1407 (  8)
          -0.1235 ( 27)  0.1060 ( 29)  0.1298 ( 30) -0.1898 ( 65) -0.1116 (113)
          -0.1015 (114)
 CRD 52=   0.1967 (  3) -0.2047 (  5)  0.1059 ( 12)  0.1446 ( 15)  0.1289 ( 23)
          -0.1442 ( 24) -0.2203 ( 25) -0.1435 ( 26)  0.1510 ( 34)  0.1353 ( 37)
           0.1133 ( 39)  0.1139 ( 41) -0.1303 ( 46) -0.1286 ( 47) -0.1333 ( 49)
          -0.1253 ( 50) -0.1158 ( 56) -0.1155 ( 57) -0.1560 ( 58) -0.1811 ( 59)
          -0.1556 ( 62)  0.1352 ( 63)  0.1361 ( 64) -0.1281 ( 65)  0.1920 ( 72)
           0.1313 ( 73)  0.1926 ( 74) -0.1431 (110)  0.1471 (112) -0.1118 (113)
          -0.1641 (118)  0.1470 (119)  0.1062 (123)  0.1229 (130) -0.1252 (131)
 CRD 53=   0.1085 ( 23)  0.1027 ( 65) -0.1113 ( 76)  0.3286 ( 81) -0.2836 ( 85)
          -0.2695 ( 86)  0.5480 (110) -0.2398 (111) -0.3260 (112)
 CRD 54=   0.1080 (  1) -0.1982 (  3)  0.1700 (  5) -0.1545 ( 11) -0.1694 ( 12)
           0.1299 ( 18)  0.2745 ( 23) -0.1502 ( 24) -0.1096 ( 25) -0.1487 ( 26)
          -0.1106 ( 29) -0.1121 ( 31) -0.1454 ( 33) -0.1126 ( 37)  0.1091 ( 40)
           0.1105 ( 43)  0.1167 ( 44)  0.1109 ( 46)  0.1249 ( 47)  0.1052 ( 51)
           0.1021 ( 52) -0.1421 ( 58) -0.1371 ( 59) -0.1282 ( 60) -0.1297 ( 61)
          -0.1414 ( 62)  0.1186 ( 65)  0.1355 ( 72)  0.1676 ( 73)  0.1367 ( 74)
           0.1043 ( 75) -0.1415 ( 81)  0.1946 ( 85)  0.1351 (109) -0.2010 (110)
           0.1627 (111)  0.1299 (113) -0.1113 (116) -0.1348 (126)  0.1364 (127)
 CRD 55=  -0.4443 (  1)  0.1694 (  2)  0.2393 (  3)  0.1264 (  4)  0.1792 (  7)
          -0.1036 (  8)  0.1063 ( 11) -0.1058 ( 12) -0.1642 ( 15)  0.2484 ( 23)
          -0.1135 ( 24) -0.1202 ( 26)  0.1328 ( 30)  0.1629 ( 31) -0.1310 ( 40)
          -0.1138 ( 41) -0.2956 ( 65)  0.1481 ( 73) -0.1058 ( 75) -0.1159 (111)
          -0.1056 (135)  0.1025 (136)
 CRD 56=   0.2975 (  1) -0.3985 (  2)  0.1598 (  3) -0.2611 (  4) -0.1589 (  6)
           0.1814 (  8)  0.1216 ( 11) -0.1258 ( 15)  0.1678 ( 23) -0.1799 ( 27)
           0.1410 ( 28) -0.3147 ( 30)  0.1412 ( 31)  0.1146 ( 33) -0.1246 ( 42)
           0.1735 ( 65)  0.1058 ( 73) -0.1118 ( 92) -0.1037 (109)  0.1269 (112)
          -0.1715 (113) -0.1432 (114)
 CRD 57=   0.2607 (  1)  0.1863 (  2) -0.3641 (  3)  0.1452 (  4) -0.2449 (  5)
           0.1180 ( 11) -0.1181 ( 15) -0.1178 ( 18)  0.1557 ( 23)  0.1588 ( 27)
          -0.3054 ( 28)  0.1859 ( 30) -0.3163 ( 31)  0.1468 ( 36)  0.1306 ( 65)
           0.1166 ( 66)  0.1206 ( 73) -0.1032 (109) -0.1226 (135)  0.1170 (136)
 CRD 58=  -0.1129 (  9)  0.1228 ( 10)  0.1072 ( 13) -0.1038 ( 14) -0.1754 ( 19)
           0.1761 ( 20)  0.2579 ( 21) -0.2752 ( 22)  0.2249 ( 24) -0.1891 ( 26)
          -0.1008 ( 57)  0.1601 ( 72) -0.1549 ( 74)  0.1589 (103) -0.1027 (116)
           0.1002 (117)  0.1023 (118) -0.1009 (125)  0.1953 (129)  0.1991 (130)
           0.2003 (131)  0.2042 (132) -0.1958 (133) -0.1715 (135) -0.2252 (136)
          -0.2009 (138)
 CRD 59=   0.1763 (  6) -0.1579 (  7)  0.1387 (  9) -0.1809 ( 10)  0.1143 ( 12)
          -0.1634 ( 13)  0.1668 ( 14)  0.1312 ( 16) -0.1454 ( 17) -0.1414 ( 18)
          -0.1104 ( 19)  0.1053 ( 20)  0.1223 ( 21) -0.1175 ( 26) -0.1067 ( 66)
          -0.1088 ( 76)  0.1003 (101)  0.1427 (109) -0.1710 (112)  0.1435 (114)
           0.1046 (115)  0.1896 (116) -0.1383 (117) -0.1733 (118) -0.1348 (119)
          -0.1698 (120)  0.1444 (122)  0.1493 (123)  0.2002 (124) -0.1013 (125)
          -0.1617 (127) -0.1415 (128)  0.1153 (129)  0.1162 (130) -0.1725 (135)
 CRD 60=   0.1105 (  6) -0.2150 (  7)  0.1590 ( 12)  0.1609 ( 13) -0.1522 ( 14)
          -0.1779 ( 16)  0.1549 ( 17) -0.2015 ( 18)  0.1370 ( 25) -0.1377 ( 26)
           0.1233 ( 39)  0.1335 ( 42) -0.1090 ( 43)  0.1126 ( 54)  0.1221 ( 56)
           0.1030 ( 60) -0.1325 ( 66)  0.1358 ( 73)  0.1425 ( 75)  0.1154 ( 85)
           0.1658 (109) -0.1306 (112)  0.1326 (117)  0.1293 (119) -0.2209 (121)
          -0.1591 (122) -0.1329 (123)  0.1372 (125)  0.1703 (126) -0.1734 (135)
           0.1442 (136)  0.1187 (137)
 CRD 61=  -0.1698 (  1)  0.1621 (  5) -0.1639 (  6)  0.1804 ( 10) -0.1472 ( 11)
           0.1319 ( 15)  0.1673 ( 16) -0.1161 ( 18) -0.1408 ( 19)  0.1489 ( 22)
          -0.1762 ( 24)  0.1619 ( 25) -0.1352 ( 29) -0.1137 ( 36)  0.1380 ( 46)
          -0.1067 ( 50)  0.1047 ( 57) -0.1085 ( 67)  0.1141 ( 70) -0.1426 ( 71)
          -0.1604 ( 72)  0.1079 ( 78) -0.1036 ( 82) -0.1289 (103)  0.1228 (107)
           0.1036 (112) -0.2240 (116)  0.1349 (119) -0.1135 (125) -0.1445 (126)
           0.1536 (130) -0.1387 (131) -0.1380 (134)  0.2115 (136)
 CRD 62=  -0.1269 (  4) -0.1509 (  8)  0.2135 (  9) -0.1024 ( 13)  0.2180 ( 17)
          -0.1674 ( 20)  0.1059 ( 21) -0.1144 ( 23)  0.1275 ( 24) -0.1181 ( 26)
          -0.1277 ( 27)  0.1281 ( 44)  0.1193 ( 47) -0.1453 ( 67)  0.1605 ( 68)
          -0.1651 ( 69)  0.1420 ( 70) -0.1255 ( 74) -0.1157 ( 75) -0.1081 ( 78)
           0.1054 ( 83)  0.1180 (100)  0.1370 (103) -0.1039 (108) -0.1226 (111)
           0.2018 (113)  0.1419 (115) -0.1804 (118) -0.1855 (123)  0.2319 (127)
           0.1142 (128)  0.1070 (130) -0.1300 (131) -0.1001 (135)  0.1001 (137)
 CRD 63=  -0.2883 (  7)  0.1059 ( 10)  0.1808 ( 11)  0.1043 ( 12) -0.1438 ( 14)
          -0.2657 ( 15)  0.1373 ( 16)  0.1490 ( 18) -0.1780 ( 25)  0.1240 ( 26)
           0.1193 ( 37)  0.1105 ( 53)  0.1960 ( 68) -0.1578 ( 69)  0.1116 ( 71)
          -0.1104 ( 73)  0.1199 ( 74)  0.1145 ( 75)  0.1271 ( 87) -0.1116 (101)
           0.1168 (109) -0.1370 (118)  0.1961 (119)  0.2110 (122) -0.1976 (123)
          -0.1102 (126)  0.1611 (135) -0.1119 (136)
 CRD 64=   0.2196 (  5) -0.1083 (  6) -0.1161 (  8)  0.1423 (  9) -0.2049 ( 11)
           0.2383 ( 12) -0.1070 ( 16) -0.1579 ( 18)  0.1491 ( 19)  0.2070 ( 23)
           0.1746 ( 66) -0.1813 ( 67)  0.1375 ( 69) -0.2021 ( 70)  0.1176 ( 71)
           0.1017 ( 79) -0.1099 ( 91)  0.1049 ( 93) -0.1120 ( 94)  0.2121 (113)
          -0.1843 (116) -0.1383 (118)  0.1034 (119)  0.2086 (126) -0.1724 (127)
          -0.1745 (130)  0.1611 (131)
 CRD 65=  -0.1358 (  6)  0.1475 (  8) -0.1068 ( 13)  0.1596 ( 14) -0.1857 ( 20)
           0.2007 ( 24) -0.1143 ( 25) -0.1138 ( 26)  0.1057 ( 27) -0.1141 ( 29)
          -0.1016 ( 36)  0.1493 ( 41) -0.1332 ( 49)  0.1169 ( 53) -0.1205 ( 58)
          -0.1240 ( 63)  0.1700 ( 72) -0.1221 ( 77)  0.1279 ( 78)  0.1335 ( 80)
          -0.1454 ( 88) -0.1089 ( 89)  0.1259 ( 95)  0.1431 ( 97)  0.1027 ( 98)
          -0.1184 (102)  0.1526 (103) -0.1175 (109)  0.1250 (111) -0.1400 (120)
           0.1974 (124) -0.1516 (132) -0.1365 (133)  0.1345 (134)  0.1853 (137)
 CRD 66=   0.1958 (  5) -0.1065 (  6) -0.2288 (  7)  0.1500 ( 11)  0.1950 ( 18)
          -0.2238 ( 23)  0.1219 ( 25) -0.1323 ( 29)  0.1434 ( 34)  0.1086 ( 37)
          -0.1057 ( 39)  0.1057 ( 40) -0.1295 ( 47)  0.1019 ( 50)  0.1333 ( 51)
          -0.1106 ( 57) -0.1339 ( 61)  0.1487 ( 64)  0.1055 ( 69) -0.1183 ( 74)
          -0.1019 ( 91)  0.1382 ( 96)  0.1300 ( 99) -0.1090 (106)  0.1094 (114)
          -0.1565 (115) -0.1988 (117)  0.1593 (120)  0.1485 (125) -0.1124 (128)
          -0.2062 (129)  0.1517 (132) -0.1007 (138)
 CRD 67=   0.1507 (  8)  0.1836 ( 11) -0.1613 ( 12) -0.1617 ( 13)  0.1390 ( 15)
          -0.1400 ( 18)  0.1597 ( 19)  0.1014 ( 25) -0.1416 ( 26) -0.1342 ( 39)
           0.1203 ( 43)  0.1447 ( 44) -0.1093 ( 52) -0.1595 ( 54)  0.1207 ( 60)
          -0.1158 ( 66)  0.1519 ( 68) -0.1487 ( 70)  0.1019 ( 75) -0.1011 ( 87)
           0.1546 ( 93) -0.1067 ( 94)  0.1304 (100) -0.1310 (101) -0.1041 (104)
          -0.1284 (105) -0.1195 (114)  0.2282 (121) -0.1636 (124) -0.1995 (125)
           0.2343 (128) -0.1068 (130)  0.1327 (134) -0.1368 (138)
 CRD 68=  -0.1634 (  5)  0.1427 (  7) -0.1722 ( 11)  0.2638 ( 12) -0.2712 ( 15)
           0.1860 ( 18) -0.1486 ( 23)  0.1546 ( 25) -0.1062 ( 34) -0.1061 ( 37)
           0.1145 ( 46)  0.1039 ( 47) -0.1090 ( 49) -0.1050 ( 50)  0.1121 ( 51)
           0.1019 ( 52) -0.1142 ( 56) -0.1151 ( 57)  0.1056 ( 63)  0.1153 ( 64)
          -0.1133 ( 82)  0.1053 ( 83) -0.1037 (104) -0.1083 (107)  0.1114 (108)
          -0.1560 (114)  0.1435 (115)  0.1770 (117) -0.1777 (120) -0.1793 (129)
           0.1708 (132)  0.1632 (133) -0.1668 (138)
 CRD 69=   0.1533 (  5) -0.1350 ( 10) -0.1118 ( 12) -0.1150 ( 15)  0.1448 ( 17)
          -0.1203 ( 22) -0.1102 ( 24)  0.1350 ( 25) -0.1202 ( 35)  0.1257 ( 45)
          -0.1114 ( 55) -0.1214 ( 59)  0.1213 ( 66)  0.1620 ( 67) -0.1835 ( 69)
           0.1541 ( 71)  0.1119 ( 73) -0.1135 ( 79)  0.1208 ( 80)  0.1070 ( 87)
          -0.1274 ( 91)  0.1305 (102)  0.1248 (106) -0.1189 (109)  0.2391 (114)
          -0.2096 (115) -0.1607 (121)  0.1319 (124) -0.1536 (125)  0.1592 (128)
           0.2191 (133) -0.1563 (137) -0.2121 (138)
 CRD 70=  -0.1028 (  8)  0.1553 ( 10) -0.1155 ( 11)  0.1080 ( 13)  0.1449 ( 16)
          -0.1777 ( 21) -0.1496 ( 26) -0.1168 ( 40) -0.1045 ( 55)  0.1152 ( 62)
          -0.1166 ( 68)  0.1203 ( 71) -0.1025 ( 74)  0.1752 ( 77) -0.1634 ( 80)
          -0.1448 ( 81) -0.1473 ( 83) -0.1351 ( 84)  0.1137 ( 91)  0.1273 ( 94)
           0.1415 ( 95) -0.1682 (100) -0.1674 (104)  0.1357 (107)  0.1726 (109)
          -0.1448 (111)  0.1742 (120)  0.1383 (124) -0.1626 (132)  0.1309 (133)
           0.2339 (134) -0.1305 (138)
 CRD 71=   0.1144 (  7) -0.1526 (  8) -0.1547 (  9)  0.1303 ( 11) -0.1077 ( 14)
          -0.1396 ( 18)  0.1747 ( 22)  0.1229 ( 24) -0.1025 ( 32) -0.1371 ( 35)
           0.1061 ( 48)  0.1340 ( 55)  0.1472 ( 67) -0.1159 ( 70) -0.1445 ( 71)
          -0.1936 ( 79) -0.1155 ( 82) -0.1113 ( 84)  0.1409 ( 92)  0.1377 ( 93)
           0.1030 ( 95) -0.1141 ( 99) -0.1320 (101) -0.1525 (102)  0.1546 (108)
           0.1729 (114) -0.1501 (115)  0.1938 (117) -0.1183 (120) -0.1122 (125)
          -0.1979 (129)  0.1311 (132) -0.1448 (133)  0.2079 (137)  0.1509 (138)
 CRD 72=  -0.1403 ( 11) -0.1746 ( 12)  0.1174 ( 14) -0.1814 ( 15)  0.1310 ( 17)
          -0.1567 ( 18)  0.1117 ( 19)  0.1023 ( 20)  0.1004 ( 21)  0.1087 ( 35)
           0.1600 ( 38)  0.1844 ( 45)  0.1723 ( 48)  0.1287 ( 55) -0.1018 ( 67)
          -0.1526 ( 68) -0.1750 ( 69) -0.1644 ( 70) -0.1225 ( 71) -0.1289 ( 88)
          -0.1212 ( 94)  0.1189 (101) -0.1116 (105)  0.1084 (106) -0.1220 (107)
          -0.1671 (117)  0.1520 (120) -0.2084 (121)  0.2089 (124) -0.2079 (125)
           0.2239 (128) -0.1755 (129)  0.1876 (132) -0.1170 (133)  0.1130 (138)
 CRD 73=  -0.1213 (  7)  0.1127 (  9)  0.1137 ( 13) -0.1007 ( 21)  0.1039 ( 22)
           0.1293 ( 32) -0.1002 ( 66) -0.1298 ( 75) -0.3015 ( 76) -0.2163 ( 77)
          -0.1103 ( 78)  0.3353 ( 81)  0.1204 ( 82)  0.1640 ( 86)  0.1190 ( 87)
           0.1009 ( 88)  0.1217 ( 90) -0.1300 ( 92) -0.1497 ( 97) -0.1299 (102)
          -0.1286 (104)  0.1276 (107)  0.1344 (108) -0.3272 (109)  0.2506 (111)
           0.1132 (115)  0.1154 (134)  0.1181 (137)
 CRD 74=   0.1542 (  6)  0.1217 ( 10)  0.1082 ( 19) -0.1069 ( 20)  0.1031 ( 21)
          -0.1023 ( 22) -0.1153 ( 33)  0.1110 ( 42) -0.1600 ( 75) -0.2630 ( 76)
          -0.1592 ( 79) -0.1863 ( 80)  0.2517 ( 81) -0.1397 ( 82) -0.1514 ( 83)
           0.2602 ( 86) -0.1279 ( 89)  0.1824 ( 91)  0.1327 ( 92)  0.1482 ( 96)
           0.1471 ( 98)  0.1404 (102)  0.1409 (104) -0.1380 (105) -0.1355 (106)
          -0.1512 (107) -0.1501 (108) -0.2274 (109)  0.1305 (111) -0.1071 (134)
          -0.1064 (137)
 CRD 75=   0.1264 ( 13) -0.1272 ( 14)  0.1333 ( 16) -0.1334 ( 17)  0.1141 ( 19)
          -0.1138 ( 20)  0.1126 ( 43) -0.1127 ( 44)  0.1115 ( 49) -0.1114 ( 50)
           0.1046 ( 51) -0.1048 ( 52)  0.1085 ( 53) -0.1084 ( 54)  0.1025 ( 80)
           0.1589 ( 82)  0.1600 ( 83) -0.1043 ( 86)  0.2017 ( 87)  0.2016 ( 88)
          -0.1511 ( 91) -0.1429 ( 92)  0.2079 ( 93)  0.2074 ( 94)  0.1734 ( 96)
          -0.1937 ( 97)  0.1729 ( 98) -0.1969 ( 99) -0.2094 (100) -0.2102 (101)
           0.1112 (102)  0.1114 (104) -0.1834 (105) -0.1835 (106) -0.1267 (107)
          -0.1264 (108)

 THE DETERMINANT OF THE G MATRIX IS 10**(   -27)


                     --------------------
                     INTERNAL COORDINATES
                     --------------------

                 - - ATOMS - -         COORDINATE      COORDINATE
 NO.   TYPE    I  J  K  L  M  N        (BOHR,RAD)       (ANG,DEG)
 ----------------------------------------------------------------
   1 STRETCH   1  2                     2.5299648       1.3387998
   2 STRETCH   1 11                     2.0505336       1.0850957
   3 STRETCH   1 10                     2.0526990       1.0862416
   4 STRETCH   2 12                     2.0559447       1.0879592
   5 STRETCH   2  3                     2.8386888       1.5021695
   6 STRETCH   3 13                     2.0724014       1.0966677
   7 STRETCH   3  4                     2.8912373       1.5299770
   8 STRETCH   3 14                     2.0721227       1.0965202
   9 STRETCH   4 16                     2.0735033       1.0972508
  10 STRETCH   4 15                     2.0742095       1.0976245
  11 STRETCH   4  5                     2.8914206       1.5300740
  12 STRETCH   5  6                     2.8906563       1.5296696
  13 STRETCH   5 18                     2.0724832       1.0967110
  14 STRETCH   5 17                     2.0728509       1.0969055
  15 STRETCH   6  7                     2.8904945       1.5295839
  16 STRETCH   6 20                     2.0727130       1.0968326
  17 STRETCH   6 19                     2.0725026       1.0967212
  18 STRETCH   7  8                     2.8883622       1.5284556
  19 STRETCH   7 22                     2.0731695       1.0970742
  20 STRETCH   7 21                     2.0723837       1.0966583
  21 STRETCH   8 24                     2.0719666       1.0964376
  22 STRETCH   8 23                     2.0711313       1.0959956
  23 STRETCH   8  9                     2.8730294       1.5203418
  24 STRETCH   9 27                     2.0682394       1.0944652
  25 STRETCH   9 26                     2.0682560       1.0944740
  26 STRETCH   9 25                     2.0689268       1.0948290
  27 BEND      1  2  3                  2.1651512     124.0540268
  28 BEND      1  2 12                  2.0772906     119.0199835
  29 BEND      2  3 14                  1.9313326     110.6572068
  30 BEND      2  1 10                  2.1068867     120.7157176
  31 BEND      2  1 11                  2.1257955     121.7991119
  32 BEND      2  3  4                  1.9424467     111.2939996
  33 BEND      2  3 13                  1.8920558     108.4068101
  34 BEND      3  4 15                  1.9151479     109.7298933
  35 BEND      3  4  5                  1.9417184     111.2522696
  36 BEND      3  2 12                  2.0406904     116.9229472
  37 BEND      3  4 16                  1.9167823     109.8235362
  38 BEND      4  5  6                  1.9433871     111.3478798
  39 BEND      4  5 17                  1.9121316     109.5570699
  40 BEND      4  3 13                  1.9164497     109.8044814
  41 BEND      4  5 18                  1.9122262     109.5624908
  42 BEND      4  3 14                  1.9143472     109.6840163
  43 BEND      5  6 19                  1.9124613     109.5759586
  44 BEND      5  6 20                  1.9121752     109.5595700
  45 BEND      5  6  7                  1.9429415     111.3223483
  46 BEND      5  4 16                  1.9108006     109.4808105
  47 BEND      5  4 15                  1.9107253     109.4764949
  48 BEND      6  7  8                  1.9431601     111.3348738
  49 BEND      6  5 17                  1.9121365     109.5573504
  50 BEND      6  5 18                  1.9122402     109.5632948
  51 BEND      6  7 21                  1.9128080     109.5958263
  52 BEND      6  7 22                  1.9120914     109.5547688
  53 BEND      7  6 19                  1.9123480     109.5694708
  54 BEND      7  6 20                  1.9122729     109.5651668
  55 BEND      7  8  9                  1.9459236     111.4932123
  56 BEND      7  8 23                  1.9178811     109.8864928
  57 BEND      7  8 24                  1.9171701     109.8457535
  58 BEND      8  9 27                  1.9375912     111.0157966
  59 BEND      8  9 26                  1.9244147     110.2608424
  60 BEND      8  7 21                  1.9124759     109.5767970
  61 BEND      8  7 22                  1.9121935     109.5606145
  62 BEND      8  9 25                  1.9369970     110.9817522
  63 BEND      9  8 23                  1.9051514     109.1571353
  64 BEND      9  8 24                  1.9047545     109.1343931
  65 BEND     10  1 11                  2.0505026     117.4851469
  66 BEND     13  3 14                  1.8654840     106.8843596
  67 BEND     15  4 16                  1.8671564     106.9801821
  68 BEND     17  5 18                  1.8702670     107.1584075
  69 BEND     19  6 20                  1.8702056     107.1548865
  70 BEND     21  7 22                  1.8696460     107.1228238
  71 BEND     23  8 24                  1.8713711     107.2216654
  72 BEND     25  9 26                  1.8861977     108.0711703
  73 BEND     25  9 27                  1.8904639     108.3156040
  74 BEND     26  9 27                  1.8865208     108.0896775
  75 TORSION   1  2  3 13              -2.1082302    -120.7926919
  76 TORSION   1  2  3 14              -0.0677551      -3.8820834
  77 TORSION   1  2  3  4               2.0655374     118.3465768
  78 TORSION   2  3  4  5               3.1349854     179.6214315
  79 TORSION   2  3  4 15              -1.0310851     -59.0768255
  80 TORSION   2  3  4 16               1.0166738      58.2511163
  81 TORSION   3  2  1 11              -0.0064244      -0.3680930
  82 TORSION   3  4  5 17              -1.0204601     -58.4680592
  83 TORSION   3  4  5 18               1.0266297      58.8215515
  84 TORSION   3  4  5  6              -3.1384107    -179.8176897
  85 TORSION   3  2  1 10               3.1361654     179.6890441
  86 TORSION   4  3  2 12              -1.0872675     -62.2958411
  87 TORSION   4  5  6 19              -1.0204578     -58.4679249
  88 TORSION   4  5  6 20               1.0267202      58.8267346
  89 TORSION   4  5  6  7              -3.1386050    -179.8288203
  90 TORSION   5  6  7  8              -3.1392860    -179.8678365
  91 TORSION   5  4  3 14              -1.0051166     -57.5889379
  92 TORSION   5  4  3 13               1.0399425      59.5843136
  93 TORSION   5  6  7 21              -1.0206010     -58.4761287
  94 TORSION   5  6  7 22               1.0260526      58.7884854
  95 TORSION   6  7  8  9              -3.1395266    -179.8816233
  96 TORSION   6  7  8 23              -1.0248159     -58.7176285
  97 TORSION   6  5  4 15               1.0250769      58.7325779
  98 TORSION   6  7  8 24               1.0299310      59.0106991
  99 TORSION   6  5  4 16              -1.0166092     -58.2474176
 100 TORSION   7  6  5 17               1.0266326      58.8217128
 101 TORSION   7  6  5 18              -1.0204684     -58.4685303
 102 TORSION   7  8  9 25               1.0532750      60.3482115
 103 TORSION   7  8  9 26              -3.1404720    -179.9357912
 104 TORSION   7  8  9 27              -1.0502470     -60.1747208
 105 TORSION   8  7  6 19               1.0256861      58.7674835
 106 TORSION   8  7  6 20              -1.0214829     -58.5266569
 107 TORSION   9  8  7 21               1.0247801      58.7155752
 108 TORSION   9  8  7 22              -1.0217394     -58.5413552
 109 TORSION  10  1  2 12               0.0060052       0.3440733
 110 TORSION  11  1  2 12              -3.1365847    -179.7130638
 111 TORSION  12  2  3 13               1.0221502      58.5648903
 112 TORSION  12  2  3 14               3.0626252     175.4754988
 113 TORSION  13  3  4 15              -3.1261280    -179.1139434
 114 TORSION  13  3  4 16              -1.0783692     -61.7860016
 115 TORSION  14  3  4 15               1.1119982      63.7128051
 116 TORSION  14  3  4 16              -3.1234282    -178.9592532
 117 TORSION  15  4  5 18              -1.0930680     -62.6281809
 118 TORSION  15  4  5 17              -3.1401578    -179.9177916
 119 TORSION  16  4  5 18              -3.1347540    -179.6081764
 120 TORSION  16  4  5 17               1.1013414      63.1022128
 121 TORSION  17  5  6 20              -1.0912275     -62.5227323
 122 TORSION  17  5  6 19              -3.1384055    -179.8173917
 123 TORSION  18  5  6 20              -3.1383285    -179.8129754
 124 TORSION  18  5  6 19               1.0976788      62.8923651
 125 TORSION  19  6  7 22              -1.0921606     -62.5761946
 126 TORSION  19  6  7 21              -3.1388142    -179.8408086
 127 TORSION  20  6  7 22              -3.1393296    -179.8703350
 128 TORSION  20  6  7 21               1.0972021      62.8650509
 129 TORSION  21  7  8 24              -1.0889476     -62.3921024
 130 TORSION  21  7  8 23               3.1394908     179.8795700
 131 TORSION  22  7  8 24              -3.1354671    -179.6490328
 132 TORSION  22  7  8 23               1.0929712      62.6226396
 133 TORSION  23  8  9 25              -1.0688366     -61.2398271
 134 TORSION  23  8  9 26               1.0206017      58.4761701
 135 TORSION  23  8  9 27               3.1108267     178.2372405
 136 TORSION  24  8  9 25              -3.1089595    -178.1302607
 137 TORSION  24  8  9 26              -1.0195212     -58.4142634
 138 TORSION  24  8  9 27               1.0707038      61.3468069

     ------------------------------------------
     THE POINT GROUP IS C1 , NAXIS= 1, ORDER= 1
     ------------------------------------------

     DIMENSIONS OF THE SYMMETRY SUBSPACES ARE
 A   =  279

 ..... DONE SETTING UP THE RUN .....
 STEP CPU TIME =     0.02 TOTAL CPU TIME =        0.0 (    0.0 MIN)
 TOTAL WALL CLOCK TIME=        0.0 SECONDS, CPU UTILIZATION IS  66.67%


          -----------------------------
          STATIONARY POINT LOCATION RUN
          -----------------------------

 OBTAINING INITIAL HESSIAN, HESS=GUESS   
 DIAGONAL GUESS HESSIAN IN INTERNAL COORDS IS
     1  0.5325     2  0.3497     3  0.3489     4  0.3477     5  0.3876
     6  0.3419     7  0.3672     8  0.3420     9  0.3415    10  0.3413
    11  0.3671    12  0.3674    13  0.3419    14  0.3417    15  0.3675
    16  0.3418    17  0.3419    18  0.3683    19  0.3416    20  0.3419
    21  0.3421    22  0.3424    23  0.3741    24  0.3434    25  0.3434
    26  0.3431    27  0.2646    28  0.2361    29  0.2253    30  0.2362
    31  0.2362    32  0.2505    33  0.2253    34  0.2236    35  0.2485
    36  0.2259    37  0.2236    38  0.2485    39  0.2237    40  0.2237
    41  0.2237    42  0.2237    43  0.2237    44  0.2237    45  0.2485
    46  0.2236    47  0.2236    48  0.2486    49  0.2237    50  0.2237
    51  0.2237    52  0.2237    53  0.2237    54  0.2237    55  0.2493
    56  0.2238    57  0.2238    58  0.2244    59  0.2244    60  0.2238
    61  0.2237    62  0.2244    63  0.2243    64  0.2243    65  0.2038
    66  0.2027    67  0.2027    68  0.2027    69  0.2027    70  0.2027
    71  0.2028    72  0.2029    73  0.2029    74  0.2030    75  0.2500
    76  0.2500    77  0.2500    78  0.2500    79  0.2500    80  0.2500
    81  0.2500    82  0.2500    83  0.2500    84  0.2500    85  0.2500
    86  0.2500    87  0.2500    88  0.2500    89  0.2500    90  0.2500
    91  0.2500    92  0.2500    93  0.2500    94  0.2500    95  0.2500
    96  0.2500    97  0.2500    98  0.2500    99  0.2500   100  0.2500
   101  0.2500   102  0.2500   103  0.2500   104  0.2500   105  0.2500
   106  0.2500   107  0.2500   108  0.2500   109  0.2500   110  0.2500
   111  0.2500   112  0.2500   113  0.2500   114  0.2500   115  0.2500
   116  0.2500   117  0.2500   118  0.2500   119  0.2500   120  0.2500
   121  0.2500   122  0.2500   123  0.2500   124  0.2500   125  0.2500
   126  0.2500   127  0.2500   128  0.2500   129  0.2500   130  0.2500
   131  0.2500   132  0.2500   133  0.2500   134  0.2500   135  0.2500
   136  0.2500   137  0.2500   138  0.2500
 TRANSFORMING HESSIAN TO SYMMETRY COORDINATES

          PARAMETERS CONTROLLING GEOMETRY SEARCH ARE
          METHOD =QA                  UPHESS =BFGS    
          NNEG   =         0          NFRZ   =         3
          NSTEP  =        50          IFOLOW =         1
          HESS   =GUESS               RESTAR =         F
          IHREP  =         0          HSSEND =         F
          NPRT   =         0          NPUN   =         0
          OPTTOL = 5.000E-04          RMIN   = 1.500E-03
          RMAX   = 1.000E-01          RLIM   = 7.000E-02
          DXMAX  = 3.000E-01          PURIFY =         F
          MOVIE  =         F          TRUPD  =         T
          TRMAX  = 5.000E-01          TRMIN  = 5.000E-02
          ITBMAT =         5          STPT   =         F
          STSTEP = 1.000E-02          PROJCT=          F
          FROZEN COORD(S)=   1   2   3


      ***** EQUILIBRIUM GEOMETRY LOCATED *****
            (SUBJECT TO   3 CONSTRAINT(S))
 COORDINATES OF ALL ATOMS ARE (ANGS)
   ATOM   CHARGE       X              Y              Z
 ------------------------------------------------------------
 C           6.0   4.7300615831   0.6111937953  -1.2079271054
 C           6.0   3.8908972943   0.5848188457  -0.1892592296
 C           6.0   2.4782209974   1.1021807015  -0.2090534506
 C           6.0   1.4521244592  -0.0086703052   0.0458699561
 C           6.0   0.0080345168   0.4888246705   0.0337168037
 C           6.0  -1.0129178190  -0.6232849822   0.2767546063
 C           6.0  -2.4568130163  -0.1241300541   0.2505975523
 C           6.0  -3.4950860699  -1.2219647584   0.4826014967
 C           6.0  -4.9286387082  -0.6940938969   0.4434510522
 H           1.0   5.7262475933   0.2099540054  -1.1260056123
 H           1.0   4.4508363693   1.0303188336  -2.1616367322
 H           1.0   4.2182461513   0.1508711904   0.7451678876
 H           1.0   2.3711588540   1.8664864182   0.5597606515
 H           1.0   2.2758623817   1.5794083139  -1.1645799275
 H           1.0   1.5763233336  -0.7804775347  -0.7118015247
 H           1.0   1.6652612221  -0.4790045529   1.0047753293
 H           1.0  -0.1136613251   1.2630707587   0.7906151240
 H           1.0  -0.2008926638   0.9603807460  -0.9259589253
 H           1.0  -0.8850311938  -1.3962953682  -0.4805424356
 H           1.0  -0.8101435948  -1.0967704886   1.2370061298
 H           1.0  -2.5818192245   0.6508856149   1.0064165991
 H           1.0  -2.6526169905   0.3507028326  -0.7104936599
 H           1.0  -3.3737581870  -1.9967136497  -0.2729310220
 H           1.0  -3.3097691605  -1.6978843389   1.4442778400
 H           1.0  -5.1486413072  -0.2397595660  -0.5198163094
 H           1.0  -5.6493317418  -1.4898997144   0.6092027331
 H           1.0  -5.0848237058   0.0626476888   1.2087030256


                     --------------------
                     INTERNAL COORDINATES
                     --------------------

                 - - ATOMS - -         COORDINATE      COORDINATE
 NO.   TYPE    I  J  K  L  M  N        (BOHR,RAD)       (ANG,DEG)
 ----------------------------------------------------------------
   1 STRETCH   1  2                     2.4945647       1.3200669
   2 STRETCH   1 11                     2.0380978       1.0785150
   3 STRETCH   1 10                     2.0353771       1.0770752
   4 STRETCH   2 12                     2.0428470       1.0810282
   5 STRETCH   2  3                     2.8432116       1.5045629
   6 STRETCH   3 13                     2.0585880       1.0893579
   7 STRETCH   3  4                     2.8980351       1.5335743
   8 STRETCH   3 14                     2.0542687       1.0870722
   9 STRETCH   4 16                     2.0581026       1.0891011
  10 STRETCH   4 15                     2.0572667       1.0886587
  11 STRETCH   4  5                     2.8864256       1.5274308
  12 STRETCH   5  6                     2.8896122       1.5291170
  13 STRETCH   5 18                     2.0588417       1.0894922
  14 STRETCH   5 17                     2.0589880       1.0895696
  15 STRETCH   6  7                     2.8874328       1.5279637
  16 STRETCH   6 20                     2.0591848       1.0896738
  17 STRETCH   6 19                     2.0591935       1.0896783
  18 STRETCH   7  8                     2.8889194       1.5287504
  19 STRETCH   7 22                     2.0592827       1.0897256
  20 STRETCH   7 21                     2.0593143       1.0897423
  21 STRETCH   8 24                     2.0576879       1.0888816
  22 STRETCH   8 23                     2.0577942       1.0889379
  23 STRETCH   8  9                     2.8877917       1.5281536
  24 STRETCH   9 27                     2.0550821       1.0875027
  25 STRETCH   9 26                     2.0529235       1.0863604
  26 STRETCH   9 25                     2.0551192       1.0875223
  27 BEND      1  2  3                  2.1893437     125.4401557
  28 BEND      1  2 12                  2.0743631     118.8522486
  29 BEND      2  3 14                  1.9148458     109.7125805
  30 BEND      2  1 10                  2.1197799     121.4544436
  31 BEND      2  1 11                  2.1241744     121.7062289
  32 BEND      2  3  4                  1.9573094     112.1455665
  33 BEND      2  3 13                  1.9010155     108.9201623
  34 BEND      3  4 15                  1.8981208     108.7543085
  35 BEND      3  4  5                  1.9772246     113.2866240
  36 BEND      3  2 12                  2.0194187     115.7041679
  37 BEND      3  4 16                  1.9052282     109.1615374
  38 BEND      4  5  6                  1.9747932     113.1473146
  39 BEND      4  5 17                  1.9087074     109.3608777
  40 BEND      4  3 13                  1.9019576     108.9741451
  41 BEND      4  5 18                  1.9063416     109.2253282
  42 BEND      4  3 14                  1.9172408     109.8498079
  43 BEND      5  6 19                  1.9040456     109.0937753
  44 BEND      5  6 20                  1.9090483     109.3804121
  45 BEND      5  6  7                  1.9721095     112.9935524
  46 BEND      5  4 16                  1.9099463     109.4318622
  47 BEND      5  4 15                  1.9105266     109.4651123
  48 BEND      6  7  8                  1.9873397     113.8661771
  49 BEND      6  5 17                  1.9090333     109.3795528
  50 BEND      6  5 18                  1.9036604     109.0717075
  51 BEND      6  7 21                  1.9058914     109.1995362
  52 BEND      6  7 22                  1.9041778     109.1013512
  53 BEND      7  6 19                  1.9078965     109.3144156
  54 BEND      7  6 20                  1.9101559     109.4438740
  55 BEND      7  8  9                  1.9661884     112.6542997
  56 BEND      7  8 23                  1.9070570     109.2663157
  57 BEND      7  8 24                  1.9095554     109.4094657
  58 BEND      8  9 27                  1.9359236     110.9202499
  59 BEND      8  9 26                  1.9448391     111.4310719
  60 BEND      8  7 21                  1.9045156     109.1207045
  61 BEND      8  7 22                  1.9015183     108.9489745
  62 BEND      8  9 25                  1.9356115     110.9023688
  63 BEND      9  8 23                  1.9097600     109.4211856
  64 BEND      9  8 24                  1.9105543     109.4666994
  65 BEND     10  1 11                  2.0392208     116.8387441
  66 BEND     13  3 14                  1.8692510     107.1001913
  67 BEND     15  4 16                  1.8590493     106.5156790
  68 BEND     17  5 18                  1.8576360     106.4347052
  69 BEND     19  6 20                  1.8570337     106.4001909
  70 BEND     21  7 22                  1.8558413     106.3318763
  71 BEND     23  8 24                  1.8575546     106.4300388
  72 BEND     25  9 26                  1.8828073     107.8769134
  73 BEND     25  9 27                  1.8791805     107.6691135
  74 BEND     26  9 27                  1.8829424     107.8846546
  75 TORSION   1  2  3 13              -2.1241732    -121.7061614
  76 TORSION   1  2  3 14              -0.0832470      -4.7697037
  77 TORSION   1  2  3  4               2.0523459     117.5907565
  78 TORSION   2  3  4  5               3.1399128     179.9037517
  79 TORSION   2  3  4 15              -1.0147458     -58.1406519
  80 TORSION   2  3  4 16               1.0069888      57.6962065
  81 TORSION   3  2  1 11               0.0090943       0.5210677
  82 TORSION   3  4  5 17              -1.0172471     -58.2839633
  83 TORSION   3  4  5 18               1.0092965      57.8284290
  84 TORSION   3  4  5  6               3.1333188     179.5259409
  85 TORSION   3  2  1 10              -3.1274946    -179.1922389
  86 TORSION   4  3  2 12              -1.0772984     -61.7246516
  87 TORSION   4  5  6 19              -1.0060111     -57.6401880
  88 TORSION   4  5  6 20               1.0187124      58.3679237
  89 TORSION   4  5  6  7              -3.1319992    -179.4503359
  90 TORSION   5  6  7  8               3.1350917     179.6275206
  91 TORSION   5  4  3 14              -1.0090411     -57.8137937
  92 TORSION   5  4  3 13               1.0337916      59.2318969
  93 TORSION   5  6  7 21              -1.0147409     -58.1403732
  94 TORSION   5  6  7 22               1.0068779      57.6898570
  95 TORSION   6  7  8  9              -3.1362713    -179.6951104
  96 TORSION   6  7  8 23              -1.0097353     -57.8535704
  97 TORSION   6  5  4 15               1.0117362      57.9682171
  98 TORSION   6  7  8 24               1.0175897      58.3035936
  99 TORSION   6  5  4 16              -1.0195726     -58.4172092
 100 TORSION   7  6  5 17               1.0187487      58.3700004
 101 TORSION   7  6  5 18              -1.0064719     -57.6665932
 102 TORSION   7  8  9 25               1.0426340      59.7385260
 103 TORSION   7  8  9 26               3.1403970     179.9314940
 104 TORSION   7  8  9 27              -1.0446430     -59.8536363
 105 TORSION   8  7  6 19               1.0112713      57.9415750
 106 TORSION   8  7  6 20              -1.0162407     -58.2263013
 107 TORSION   9  8  7 21               1.0128037      58.0293783
 108 TORSION   9  8  7 22              -1.0065889     -57.6732952
 109 TORSION  10  1  2 12               0.0018062       0.1034884
 110 TORSION  11  1  2 12               3.1383951     179.8167949
 111 TORSION  12  2  3 13               1.0293678      58.9784304
 112 TORSION  12  2  3 14               3.0702940     175.9148881
 113 TORSION  13  3  4 15              -3.1208670    -178.8125068
 114 TORSION  13  3  4 16              -1.0991324     -62.9756484
 115 TORSION  14  3  4 15               1.1194856      64.1418027
 116 TORSION  14  3  4 16               3.1412202     179.9786611
 117 TORSION  15  4  5 18              -1.1122860     -63.7292949
 118 TORSION  15  4  5 17              -3.1388296    -179.8416871
 119 TORSION  16  4  5 18               3.1395904     179.8852789
 120 TORSION  16  4  5 17               1.1130468      63.7728866
 121 TORSION  17  5  6 20              -1.1137250     -63.8117400
 122 TORSION  17  5  6 19              -3.1384485    -179.8198517
 123 TORSION  18  5  6 20              -3.1389456    -179.8483336
 124 TORSION  18  5  6 19               1.1195162      64.1435546
 125 TORSION  19  6  7 22              -1.1169425     -63.9960886
 126 TORSION  19  6  7 21              -3.1385613    -179.8263188
 127 TORSION  20  6  7 22               3.1387309     179.8360350
 128 TORSION  20  6  7 21               1.1171120      64.0058049
 129 TORSION  21  7  8 24              -1.1165206     -63.9719177
 130 TORSION  21  7  8 23               3.1393398     179.8709183
 131 TORSION  22  7  8 24              -3.1359132    -179.6745913
 132 TORSION  22  7  8 23               1.1199471      64.1682448
 133 TORSION  23  8  9 25              -1.0823715     -62.0153203
 134 TORSION  23  8  9 26               1.0153915      58.1776476
 135 TORSION  23  8  9 27               3.1135368     178.3925174
 136 TORSION  24  8  9 25              -3.1117915    -178.2925201
 137 TORSION  24  8  9 26              -1.0140285     -58.0995521
 138 TORSION  24  8  9 27               1.0841168      62.1153176

          INTERNUCLEAR DISTANCES (ANGS.)


 =====================================================
   GAMESS/COSab RESULTS
 =====================================================

   Dielectric Constant                  = INFTY
   Basic Grid Size                      =                 1082
   Number of Segments                   =                   92
   Number of Segments located on spheres=                  322
   Number of Segments of the cavity     =                  955
   Solvent Radius (rsolv)               = 1.40
   Outlying Charge Error Method         = double cavity

 =====================================================

  Total solvated Energy (a.u.)          =  -351.3708612604
  Total Energy corrected (a.u.)         =  -351.3707693568

  Outlying charge effect (a.u.)         =     0.0000919036
  Outlying charge effect (kcal/mol)     =     0.0576704151

  Dielectric Energy (a.u.)              =    -0.0036891705
  Dielectric energy corr. (a.u.)        =    -0.0035972669

  Sum of polarization charges           =     0.0337299058
  Sum of polarization charges(cor.)     =    -0.0337299058

  Total surface area of cavity (A**2)   =  210.92
  Total volume of cavity (A**3)         =  206.09

 =====================================================
 NPS=                   955
NR.  ATOM  (X, Y, Z)(a.u.)                  CHARGE(e)  AREA(A**2) SIGMA(e/A**2)
   1   1   8.914057   4.750420  -3.447346   0.001841   0.371649   0.004953
   2   1   9.341836  -2.517032  -1.483969   0.001963   0.325193   0.006037
   3   1   9.847010  -1.275292  -5.030874   0.001053   0.418105   0.002519
   4   1  11.421490   2.612979  -4.730802   0.000406   0.278737   0.001457
   5   1  11.582103   3.565615  -1.064214   0.002304   0.371649   0.006199
   6   1   8.101583   4.668914  -3.394448   0.000613   0.139368   0.004400
   7   1  12.183696   2.700767  -1.114893   0.001485   0.325193   0.004568
   8   1  12.030905   1.674760  -4.392466   0.000231   0.371649   0.000621
   9   1  10.873784  -1.230075  -4.485054   0.000796   0.418105   0.001905
  10   1  10.204015  -2.357142  -1.692933   0.001500   0.278737   0.005383
  11   1  11.367872   0.306621   0.485520  -0.000065   0.092912  -0.000698
  12   1   6.534017  -0.242608  -4.841826   0.001430   0.232280   0.006157
  13   1   7.125691  -0.468339  -5.174496   0.001137   0.232280   0.004895
  14   1   8.692809   4.926387  -2.262920   0.003114   0.371649   0.008379
  15   1  10.251386  -2.011766  -0.691321   0.000791   0.185824   0.004259
  16   1   9.493677  -2.572486  -2.569084   0.002061   0.325193   0.006338
  17   1   9.763653  -2.086555  -4.042165   0.001957   0.464561   0.004212
  18   1  10.682373  -0.203108  -5.348415   0.000605   0.371649   0.001629
  19   1  11.222545   1.169170  -5.293859   0.000437   0.371649   0.001175
  20   1  11.913216   2.964244  -3.753052   0.001332   0.603929   0.002205
  21   1  11.932008   3.462056  -2.255507   0.001829   0.464561   0.003937
  22   1  11.475907   2.749539   0.020239   0.003154   0.371649   0.008487
  23   1  11.546363   1.318951   0.448010   0.000437   0.185824   0.002349
  24   1   8.421104  -2.583342  -2.486274   0.003454   0.325193   0.010622
  25   1   7.788446  -2.317292  -3.233912   0.002720   0.232280   0.011709
  26   1   7.381494  -1.550601  -4.413323   0.004020   0.511017   0.007867
  27   1   8.658252  -1.613538  -4.840198   0.001865   0.464561   0.004014
  28   1   9.603691  -0.346075  -5.686869   0.000708   0.371649   0.001906
  29   1   8.560840  -0.509332  -5.654851   0.001034   0.325193   0.003178
  30   1  11.001670   2.049360  -5.320387   0.000143   0.278737   0.000514
  31   1  10.759534   3.504900  -4.616344   0.000706   0.418105   0.001688
  32   1   9.984789   4.400459  -3.912530   0.001354   0.371649   0.003643
  33   1   9.888413   4.804233  -2.537504   0.003079   0.511017   0.006025
  34   1  10.883107   4.345134  -1.711873   0.003075   0.511017   0.006017
  35   1  10.732952   3.871671  -0.363311   0.003618   0.418105   0.008654
  36   1  12.378008   2.677596  -2.651268   0.000581   0.278737   0.002083
  37   1  11.434167   0.230096  -4.966057   0.000218   0.325193   0.000669
  38   1  10.304531  -2.253291  -3.178182   0.001423   0.325193   0.004377
  39   1  10.597210  -1.515081  -0.184141   0.000048   0.092912   0.000521
  40   1  11.848900   2.005569  -0.026450   0.001079   0.232280   0.004643
  41   1   7.868564  -0.797083  -5.336982   0.001209   0.278737   0.004339
  42   1   9.741645   4.680558  -1.182851   0.004804   0.418105   0.011489
  43   1   8.615965  -2.352249  -3.653622   0.002650   0.418105   0.006339
  44   1  10.196928   0.688305  -5.815774   0.000092   0.232280   0.000396
  45   1  11.050983   4.137924  -3.243830   0.001996   0.603929   0.003305
  46   2   8.454096  -2.490779   0.017358   0.001861   0.278737   0.006676
  47   2   8.901159   3.509439   2.113373   0.001335   0.371649   0.003593
  48   2   8.647500   2.714685   2.807341   0.000640   0.278737   0.002296
  49   2  10.610992   1.031169   1.556119   0.000175   0.092912   0.001881
  50   2   9.040926  -2.121662   0.653296   0.000672   0.232280   0.002892
  51   2   7.073223  -2.589172   0.389478   0.000491   0.139368   0.003522
  52   2   7.693953  -2.650817  -0.111418   0.001622   0.232280   0.006984
  53   2  10.363291   1.841077   1.805488   0.001300   0.278737   0.004665
  54   2  10.001666   2.923204   1.632834   0.002148   0.371649   0.005780
  55   2   7.876695   3.227912   2.725130   0.000440   0.278737   0.001580
  56   2   7.275969  -2.564100  -1.260459   0.000745   0.092912   0.008021
  57   2   9.213029   4.074358   1.059133   0.004456   0.511017   0.008719
  58   2   8.173734   4.183872   1.674984   0.000829   0.325193   0.002550
  59   2   9.580846   2.413223   2.400730   0.001097   0.278737   0.003936
  60   2   7.503999  -2.452650   0.908651   0.000711   0.232280   0.003061
  61   2   7.337045   2.324580   3.219633   0.000011   0.278737   0.000038
  62   2   8.258758   4.727668   0.225998   0.002762   0.418105   0.006607
  63   2   7.200545  -2.654001  -0.718173   0.001207   0.139368   0.008661
  64   3   6.300235   5.459866  -0.909638   0.000389   0.185824   0.002094
  65   3   2.822527   5.287086  -1.140003   0.001159   0.325193   0.003565
  66   3   3.059391   5.494840  -0.319425   0.000951   0.278737   0.003412
  67   3   6.089689   5.574364  -0.055976   0.000786   0.371649   0.002115
  68   3   4.727145   2.081018   3.384146   0.000034   0.139368   0.000241
  69   3   5.332017   5.709411  -1.238261   0.001356   0.371649   0.003650
  70   3   3.906681   5.704586  -1.146112   0.001322   0.278737   0.004745
  71   3   5.941424   5.366099  -1.781062   0.000469   0.232280   0.002018
  72   3   4.098671   0.892982  -3.934392  -0.000004   0.092912  -0.000043
  73   3   4.676956   5.850617  -0.691463   0.001088   0.278737   0.003905
  74   3   5.271939   2.207722   3.336168   0.000015   0.046456   0.000328
  75   4   2.730573  -3.666875   1.065457   0.001441   0.325193   0.004430
  76   4   2.746678   1.339136   3.614696   0.000145   0.092912   0.001562
  77   4   3.315540   1.078438   3.658678   0.000036   0.046456   0.000786
  78   4   2.888833  -3.791056   0.209801   0.001336   0.278737   0.004794
  79   4   2.120498  -0.216862  -3.635563   0.000252   0.139368   0.001806
  80   4   4.790785  -3.108204   0.818819   0.000961   0.232280   0.004139
  81   4   3.920634  -3.534329   0.810639   0.001824   0.325193   0.005609
  82   4   2.513842   1.032508   3.710372   0.000081   0.046456   0.001750
  83   4   4.485489  -3.370485   0.043696   0.000587   0.139368   0.004212
  84   4   2.661354  -0.077159  -3.691365   0.000082   0.046456   0.001770
  85   5  -1.892182   4.087071  -0.736066   0.001476   0.325193   0.004538
  86   5   0.027725  -0.433212  -3.463710   0.000179   0.092912   0.001931
  87   5   0.388271   0.062427  -3.597317   0.000060   0.046456   0.001286
  88   5  -1.661542   4.310865   0.082064   0.001398   0.278737   0.005017
  89   5   0.008277   0.918802   3.843160   0.000339   0.185824   0.001826
  90   5   0.194526   4.577341  -0.886757   0.001105   0.232280   0.004757
  91   5  -0.756455   4.542994  -0.704359   0.001939   0.325193   0.005962
  92   5  -0.334997  -0.277317  -3.502662   0.000095   0.046456   0.002047
  93   5  -0.054661   4.700575  -0.058788   0.000656   0.139368   0.004704
  94   5   0.588434   1.114199   3.794585   0.000107   0.046456   0.002301
  95   6  -1.952670  -4.828297   1.501193   0.001563   0.325193   0.004807
  96   6  -1.938008   0.177428   4.051004   0.000205   0.092912   0.002204
  97   6  -1.370723  -0.085767   4.100180   0.000076   0.046456   0.001643
  98   6  -1.787105  -4.953115   0.647013   0.001459   0.278737   0.005236
[...]
 696   8  -6.021589  -1.686886  -2.879707   0.000053   0.028718   0.001849
 697  22  -5.694463  -1.049791  -3.098630  -0.000005   0.028718  -0.000170
 698   7  -5.497564  -2.100363  -2.827169   0.000053   0.028284   0.001889
 699   8  -5.835609  -2.465132  -2.793282   0.000032   0.028284   0.001120
 700  23  -5.835488  -2.769324  -2.792417  -0.000007   0.028284  -0.000237
 701   7  -5.217581  -0.866998   4.265321   0.000040   0.028106   0.001410
 702   8  -5.552309  -1.217280   4.382511   0.000019   0.028106   0.000683
 703  24  -5.549857  -1.503818   4.484499  -0.000014   0.028106  -0.000491
 704   8  -5.685611  -0.934176   4.367804   0.000159   0.081442   0.001955
 705   7  -5.271966  -0.355147   4.250804   0.000137   0.081442   0.001685
 706   8  -6.038976  -2.130281  -2.873296   0.000172   0.079689   0.002160
 707   7  -5.483614  -1.681647  -2.973095   0.000174   0.079689   0.002179
 708   7  -7.036252   2.670240   1.122902   0.000218   0.067747   0.003224
 709   9  -7.829102   2.401136   1.181329   0.000245   0.067747   0.003620
 710  21  -6.912515   2.731700   1.396185  -0.000017   0.067747  -0.000255
 711   7  -7.115987   2.315956  -0.929574   0.000163   0.068016   0.002392
 712   9  -7.907633   2.053314  -0.835823   0.000255   0.068016   0.003744
 713  22  -7.016015   2.279374  -1.216712  -0.000002   0.068016  -0.000033
 714   9  -8.339978   2.357550   0.356029   0.001307   0.517772   0.002524
 715   7  -7.189899   2.563349  -0.098181   0.001361   0.517772   0.002629
 716   7  -3.784749   3.046482  -1.346807   0.000206   0.089388   0.002310
 717  18  -2.853240   3.142824  -1.693098   0.000224   0.089388   0.002508
 718  22  -3.902699   2.970146  -1.620614  -0.000069   0.089388  -0.000776
 719   7  -4.369465  -2.451209  -2.668395   0.000160   0.166143   0.000965
 720  19  -3.717416  -2.831158  -2.661896   0.000030   0.166143   0.000182
 721  23  -4.768350  -3.084700  -2.574254  -0.000029   0.166143  -0.000177
 722  19  -3.086897  -2.555301  -2.980703  -0.000142   0.142460  -0.000997
 723   7  -3.951488  -1.836413  -3.007899   0.000424   0.200849   0.002113
 724   7  -4.087592  -1.276062   4.142828   0.000168   0.166467   0.001010
 725  20  -3.431347  -1.643852   4.210851  -0.000016   0.166467  -0.000093
 726  24  -4.487152  -1.897752   4.298415   0.000030   0.166467   0.000179
 727  20  -2.701209  -1.159394   4.362192  -0.000110   0.143884  -0.000763
 728   7  -3.719629  -0.698686   4.227998   0.000421   0.202844   0.002075
 729  21  -4.570606   3.568658   1.247865   0.000041   0.081119   0.000501
 730  21  -5.830669   3.319685   1.294764  -0.000228   0.186829  -0.001220
 731   7  -5.037756   3.436307   0.819585   0.000244   0.171984   0.001420
 732   7  -6.398824   3.068884   0.971239   0.000245   0.099104   0.002473
 733  21  -4.983403   0.562609   4.262035  -0.000072   0.071972  -0.000996
 734  21  -4.115234   0.773064   4.189817  -0.000064   0.071972  -0.000888
 735   7  -4.458022   0.269531   4.162720  -0.000169   0.156830  -0.001080
 736  22  -6.409549   2.672608  -1.396582   0.000033   0.080714   0.000408
 737  22  -5.183022   3.029325  -1.470229  -0.000222   0.185639  -0.001198
 738   7  -5.967219   2.906489  -0.988401   0.000174   0.171334   0.001018
 739   7  -4.590117   3.180153  -1.133759   0.000223   0.098610   0.002264
 740  22  -4.431821  -0.555541  -3.394410  -0.000076   0.070677  -0.001079
 741  22  -5.284531  -0.763472  -3.323413  -0.000069   0.070677  -0.000979
 742   7  -4.755938  -1.015209  -3.172731  -0.000145   0.154587  -0.000940
 743  23  -5.619295  -3.069742  -2.804394  -0.000113   0.141373  -0.000800
 744   7  -4.951809  -2.169198  -2.892080   0.000386   0.199320   0.001938
 745  24  -5.200405  -1.865092   4.569086  -0.000151   0.144635  -0.001047
 746   7  -4.774287  -0.854518   4.315390   0.000400   0.203903   0.001959
 747   8  -7.766525  -2.914608  -2.641607   0.000029   0.028089   0.001025
 748   9  -8.230276  -2.734650  -2.612871   0.000063   0.028089   0.002225
 749  23  -7.632632  -3.187572  -2.651173   0.000008   0.028089   0.000276
 750   8  -8.659359  -5.177759  -0.464310   0.000038   0.028089   0.001344
 751   9  -9.111493  -4.968355  -0.463904   0.000099   0.028089   0.003513
 752  23  -8.445495  -5.248015  -0.668895   0.000010   0.028089   0.000360
 753   8  -8.519333  -4.517188   3.320988   0.000036   0.028028   0.001302
 754   9  -8.972906  -4.314614   3.282128   0.000065   0.028028   0.002306
 755  24  -8.290279  -4.517165   3.521097   0.000017   0.028028   0.000602
 756   8  -7.503558  -1.668615   4.534971   0.000052   0.028028   0.001854
 757   9  -7.970357  -1.503134   4.480304   0.000098   0.028028   0.003503
 758  24  -7.365496  -1.923765   4.626333   0.000013   0.028028   0.000465
 759   8  -7.952600  -2.114651  -2.730084   0.000032   0.026074   0.001219
 760   9  -8.419221  -1.949160  -2.785729   0.000012   0.026074   0.000455
 761  25  -8.572098  -1.703388  -2.876794  -0.000025   0.026074  -0.000967
 762   8  -9.135665  -5.119233   0.005727   0.000088   0.025249   0.003476
 763   9  -9.615328  -4.987084  -0.019904   0.000035   0.025249   0.001396
 764  26  -9.877628  -5.009681   0.129772  -0.000003   0.025249  -0.000138
 765   8  -9.028653  -4.614268   2.895554   0.000053   0.025249   0.002109
 766   9  -9.506859  -4.475244   2.909271   0.000028   0.025249   0.001100
 767  26  -9.778921  -4.543904   2.795329   0.000000   0.025249   0.000016
 768   8  -7.689172  -0.873248   4.358954   0.000047   0.026049   0.001807
 769   9  -8.152620  -0.692819   4.388605   0.000013   0.026049   0.000484
 770  27  -8.301809  -0.428935   4.401675  -0.000021   0.026049  -0.000821
 771   9  -8.176409  -1.098206   4.489147   0.000169   0.086721   0.001948
 772   8  -7.470555  -1.248926   4.489185   0.000196   0.086721   0.002255
 773   9  -8.407722  -2.264081  -2.759888   0.000161   0.084792   0.001904
 774   8  -7.772783  -2.604730  -2.724113   0.000148   0.084792   0.001742
 775   9  -9.473932  -4.975926  -0.284079   0.000149   0.052023   0.002862
 776   8  -8.811934  -5.239977  -0.206293   0.000140   0.052023   0.002684
 777   9  -9.359171  -4.413744   3.093396   0.000130   0.051792   0.002505
 778   8  -8.677184  -4.624279   3.160846   0.000128   0.051792   0.002473
 779   8  -4.053936  -4.732900   2.471531   0.000212   0.090137   0.002356
 780  20  -3.129429  -4.372508   2.654003   0.000239   0.090137   0.002652
 781  24  -4.155820  -4.709580   2.760571  -0.000075   0.090137  -0.000827
 782   8  -6.899203  -0.083202   4.046345   0.000116   0.167865   0.000689
 783  21  -6.500094   0.549760   3.952857  -0.000007   0.167865  -0.000039
 784  27  -7.557454   0.301135   4.037105  -0.000103   0.167865  -0.000614
 785  21  -5.764115   0.597152   4.162962  -0.000156   0.145891  -0.001067
 786   8  -6.188702  -0.434851   4.298544   0.000414   0.205689   0.002015
 787   8  -7.156035  -1.280113  -2.762959   0.000110   0.167627   0.000657
 788  22  -6.762097  -0.657528  -2.919615  -0.000065   0.167627  -0.000387
 789  25  -7.816230  -0.906597  -2.837788  -0.000054   0.167627  -0.000324
 790  22  -5.921675  -0.766239  -3.194614  -0.000119   0.143995  -0.000830
 791   8  -6.580058  -1.633813  -2.921989   0.000387   0.203032   0.001904
 792  23  -7.120698  -3.307141  -2.808588  -0.000061   0.071011  -0.000864
 793  23  -6.260714  -3.106475  -2.876251  -0.000071   0.071011  -0.000996
 794   8  -6.778936  -2.807694  -2.780163  -0.000177   0.155084  -0.001142
 795  23  -4.872188  -5.657653  -0.037244   0.000018   0.068036   0.000259
 796  23  -5.879961  -6.023788   0.176360  -0.000041   0.150319  -0.000270
 797  23  -7.181011  -5.994746  -0.062356  -0.000203   0.150319  -0.001351
 798  23  -8.030601  -5.587150  -0.616747  -0.000068   0.068036  -0.001003
 799   8  -5.166058  -5.728710   0.474111   0.000249   0.149864   0.001662
 800   8  -6.620634  -6.026806   0.546195   0.000192   0.149864   0.001278
 801   8  -7.940662  -5.666775  -0.034970  -0.000028   0.149864  -0.000186
 802  24  -5.967292  -1.786533   4.709603  -0.000071   0.071936  -0.000989
 803  24  -6.838631  -1.988239   4.777698  -0.000064   0.071936  -0.000887
 804   8  -6.499768  -1.532385   4.556485  -0.000165   0.156672  -0.001052
 805  24  -7.875945  -4.859659   3.556558  -0.000046   0.068150  -0.000680
 806  24  -7.062477  -5.442258   3.111469  -0.000144   0.150627  -0.000957
 807  24  -5.779642  -5.565939   2.803041  -0.000050   0.150627  -0.000330
 808  24  -4.762636  -5.159821   2.808035  -0.000045   0.068150  -0.000664
 809   8  -7.826949  -5.132429   3.030616  -0.000090   0.150061  -0.000597
 810   8  -6.545918  -5.684784   2.510389   0.000212   0.150061   0.001409
 811   8  -5.091758  -5.396136   2.373003   0.000209   0.150061   0.001392
 812  25  -8.459288  -1.252800  -3.000386  -0.000185   0.136555  -0.001353
 813   8  -7.576859  -1.949015  -2.846194   0.000350   0.192438   0.001820
 814  26 -10.014654  -5.142351   0.539074  -0.000210   0.197320  -0.001066
 815  26  -9.953786  -4.968819   1.942169  -0.000988   0.403347  -0.002450
 816   8  -8.888742  -5.342840   1.018554   0.000906   0.540976   0.001674
 817   8  -8.838640  -5.002841   2.590778   0.000687   0.277865   0.002473
 818  27  -8.256568  -0.073718   4.395655  -0.000174   0.137647  -0.001261
 819   8  -7.241801  -0.579222   4.346850   0.000352   0.193973   0.001817
 820   9  -8.329223   2.349737   1.480896   0.000091   0.088252   0.001032
 821  21  -7.369405   2.523851   1.687398   0.000206   0.088252   0.002334
 822  27  -8.439917   2.362119   1.766491  -0.000013   0.088252  -0.000144
 823  21  -6.871434   2.882702   1.581049   0.000037   0.030145   0.001240
 824   9  -8.271111   2.528885   1.295151   0.000190   0.042816   0.004429
 825   9  -8.431054   1.905110  -1.075370   0.000111   0.088073   0.001265
 826  22  -7.493543   1.987231  -1.398106   0.000221   0.088073   0.002512
 827  25  -8.561506   1.821347  -1.339829  -0.000091   0.088073  -0.001038
 828  22  -7.000032   2.346240  -1.471200   0.000070   0.033632   0.002086
 829   9  -8.354063   2.146594  -0.938839   0.000228   0.047758   0.004764
 830  23  -8.343613  -5.151429  -1.141894  -0.000168   0.216330  -0.000777
 831  23  -7.974602  -4.109873  -2.234865  -0.001091   0.445379  -0.002449
 832   9  -9.230747  -4.318524  -1.432858   0.000928   0.590150   0.001572
 833   9  -8.697622  -3.063879  -2.557088   0.000719   0.304739   0.002358
 834  24  -7.486290  -2.391009   4.724489  -0.000147   0.215934  -0.000679
 835  24  -8.019467  -3.756629   4.217245  -0.001075   0.444487  -0.002418
 836   9  -8.690235  -2.421264   4.386248   0.000968   0.589132   0.001643
 837   9  -9.193513  -3.950655   3.666383   0.000797   0.304178   0.002619
 838  25  -9.081653  -1.652325  -3.027579  -0.000099   0.067376  -0.001473
 839  25 -10.136621  -1.866627  -2.887703  -0.000258   0.148702  -0.001733
 840  25 -11.321697  -1.507602  -2.447697  -0.000096   0.148702  -0.000648
 841  25 -11.975913  -0.541731  -1.842715  -0.000223   0.148702  -0.001496
 842  25 -11.842685   0.652173  -1.310029  -0.000231   0.148702  -0.001552
 843  25 -10.974265   1.605861  -1.058559  -0.000158   0.148702  -0.001060
 844  25  -9.711248   1.945297  -1.186932  -0.000134   0.148702  -0.000902
 845   9  -9.359391  -2.126118  -2.808356  -0.000131   0.148556  -0.000883
 846   9 -10.800542  -2.143632  -2.487461   0.000095   0.148556   0.000636
 847   9 -11.888576  -1.359889  -1.869297   0.000134   0.148556   0.000901
 848   9 -12.196767  -0.082274  -1.196309  -0.000018   0.148556  -0.000124
 849   9 -11.604242   1.188135  -0.732442  -0.000063   0.148556  -0.000426
 850   9 -10.343389   1.953083  -0.659624   0.000093   0.148556   0.000627
 851   9  -9.169946   2.055681  -0.879245   0.000091   0.082315   0.001106
 852  26 -10.273462  -4.414469   2.971655  -0.000076   0.069639  -0.001085
 853  26 -11.006997  -3.666689   3.372520  -0.000226   0.154858  -0.001461
 854  26 -12.020612  -2.796974   3.141015  -0.000217   0.154858  -0.001403
 855  26 -12.798542  -2.299119   2.148857  -0.000221   0.154858  -0.001425
 856  26 -13.013760  -2.382414   0.813134  -0.000297   0.154858  -0.001917
 857  26 -12.575790  -3.011843  -0.304638  -0.000168   0.154858  -0.001086
 858  26 -11.668749  -3.922804  -0.734567  -0.000228   0.154858  -0.001475
 859  26 -10.673941  -4.732344  -0.295916  -0.000338   0.154858  -0.002180
 860   9 -10.211068  -3.938532   3.332008  -0.000151   0.152427  -0.000988
 861   9 -11.301618  -2.902089   3.566505   0.000059   0.152427   0.000384
 862   9 -12.365295  -2.090135   2.839990   0.000043   0.152427   0.000281
 863   9 -12.954947  -1.844002   1.457880  -0.000036   0.152427  -0.000237
 864   9 -12.822694  -2.267160   0.001189  -0.000005   0.152427  -0.000031
 865   9 -12.024134  -3.181722  -0.917713   0.000039   0.152427   0.000254
 866   9 -10.894967  -4.203219  -0.912534   0.000026   0.152427   0.000173
 867   9 -10.040866  -4.846871  -0.289206   0.000027   0.085080   0.000318
 868  27  -9.183167   2.472296   1.719588  -0.000038   0.067435  -0.000560
 869  27 -10.257989   2.341807   1.629252  -0.000141   0.148859  -0.000948
 870  27 -11.366302   1.738417   1.999716  -0.000227   0.148859  -0.001524
 871  27 -11.850714   0.821008   2.808039  -0.000249   0.148859  -0.001670
 872  27 -11.520902  -0.049975   3.736636  -0.000135   0.148859  -0.000908
 873  27 -10.506447  -0.532329   4.420666  -0.000190   0.148859  -0.001278
 874  27  -9.205924  -0.436539   4.591378  -0.000321   0.148859  -0.002156
 875   9  -9.530450   2.395980   1.246812   0.000128   0.148658   0.000860
 876   9 -10.953302   2.008070   1.339998   0.000094   0.148658   0.000629
 877   9 -11.895564   1.108360   2.037373  -0.000044   0.148658  -0.000299
 878   9 -11.987026   0.050340   3.064941  -0.000020   0.148658  -0.000132
 879   9 -11.191753  -0.750299   4.018977   0.000100   0.148658   0.000674
 880   9  -9.822203  -0.978991   4.524646  -0.000028   0.148658  -0.000188
 881   9  -8.649562  -0.728044   4.515828  -0.000001   0.082387  -0.000013
 882  12  10.450561  -0.699437   1.381075  -0.000078   0.186656  -0.000416
 883  10  11.390779  -0.563269   0.295051  -0.000048   0.186656  -0.000255
 884  14   5.763775   4.557945  -3.775187  -0.000197   0.257737  -0.000765
 885  14   5.232428   3.767976  -4.499220  -0.001345   0.515564  -0.002608
 886  14   4.800597   2.391820  -4.683352  -0.000921   0.515564  -0.001786
 887  11   6.859554   3.950190  -4.672619  -0.001289   0.515564  -0.002501
 888  11   6.272969   2.781611  -5.308645  -0.001684   0.515564  -0.003266
 889  11   6.021679   1.615992  -5.214889  -0.000114   0.257737  -0.000441
 890  16   5.329824  -2.366877   2.523698   0.000106   0.241164   0.000439
 891  16   5.242780  -1.683413   3.326016  -0.000594   0.482077  -0.001233
 892  16   4.992294  -0.490037   3.758212  -0.000561   0.482077  -0.001164
 893  12   6.843825  -1.745385   2.689299  -0.000819   0.482077  -0.001698
 894  12   6.676268  -0.738610   3.484293  -0.001308   0.482077  -0.002714
 895  12   6.439628   0.281462   3.632166  -0.000400   0.241164  -0.001660
 896  17   1.503872   3.086979   3.434519   0.000097   0.252552   0.000382
 897  17   1.221159   4.057961   2.929536  -0.000445   0.504971  -0.000881
 898  17   0.949031   4.730188   1.757606  -0.000026   0.504971  -0.000052
 899  13   2.890307   3.834358   3.129251  -0.000632   0.504971  -0.001252
 900  13   2.561647   4.857730   2.266664  -0.000686   0.504971  -0.001358
 901  13   2.381074   5.194276   1.202770   0.000165   0.252552   0.000654
 902  18   0.669074   4.163430  -2.516577   0.000288   0.255156   0.001128
 903  18   0.750028   3.486278  -3.432967  -0.000355   0.510194  -0.000695
 904  18   1.018614   2.217165  -3.937464  -0.000305   0.510194  -0.000599
 905  14   2.182598   4.300531  -3.028146  -0.000388   0.510194  -0.000761
 906  14   2.353426   3.264734  -3.942062  -0.000764   0.510194  -0.001497
 907  14   2.611044   2.165943  -4.118565  -0.000038   0.255156  -0.000150
 908  19  -0.207833  -2.544787  -3.151678   0.000127   0.255231   0.000499
 909  19   0.086747  -3.529535  -2.638691  -0.000329   0.510369  -0.000645
 910  19   0.366900  -4.200198  -1.442869   0.000103   0.510369   0.000202
 911  15   1.385646  -2.564740  -3.122042  -0.000250   0.510369  -0.000489
 912  15   1.726919  -3.598610  -2.242889  -0.000275   0.510369  -0.000538
 913  15   1.911023  -3.926863  -1.157524   0.000387   0.255231   0.001518
 914  20   0.607829  -3.625525   2.802341   0.000353   0.254545   0.001387
 915  20   0.525143  -2.950071   3.717724  -0.000218   0.508972  -0.000428
 916  20   0.256494  -1.683511   4.223310  -0.000179   0.508972  -0.000352
 917  16   2.072964  -3.019144   3.030154   0.000014   0.508972   0.000027
 918  16   1.900787  -1.985796   3.943669  -0.000459   0.508972  -0.000902
 919  16   1.643765  -0.888898   4.121872   0.000088   0.254545   0.000347
 920  21  -3.183199   1.935565   3.856064   0.000165   0.254750   0.000646
 921  21  -3.471554   2.916035   3.339457  -0.000278   0.509398  -0.000545
 922  21  -3.741540   3.583241   2.144243   0.000170   0.509398   0.000334
 923  17  -1.810141   2.692282   3.556026  -0.000193   0.509398  -0.000379
 924  17  -2.142460   3.721356   2.674456  -0.000227   0.509398  -0.000445
 925  17  -2.318157   4.047803   1.590983   0.000389   0.254750   0.001528
 926  22  -3.973798   3.018664  -2.080792   0.000418   0.256280   0.001631
 927  22  -3.886472   2.337975  -3.013207  -0.000184   0.512494  -0.000358
 928  22  -3.611515   1.052416  -3.522193  -0.000213   0.512494  -0.000416
 929  18  -2.474463   3.148987  -2.584996   0.000087   0.512494   0.000169
 930  18  -2.295997   2.103229  -3.513365  -0.000361   0.512494  -0.000705
 931  18  -2.034227   0.989010  -3.687586   0.000114   0.256280   0.000446
 932  23  -4.871281  -3.700605  -2.738368   0.000174   0.255091   0.000680
 933  23  -4.592340  -4.678126  -2.221564  -0.000276   0.510057  -0.000542
 934  23  -4.332209  -5.344413  -1.030161   0.000174   0.510057   0.000340
 935  19  -3.265997  -3.726612  -2.692782  -0.000111   0.510057  -0.000218
 936  19  -2.944964  -4.752997  -1.812715  -0.000162   0.510057  -0.000318
 937  19  -2.776077  -5.079798  -0.733307   0.000414   0.255091   0.001622
 938  24  -4.124560  -4.771338   3.219105   0.000411   0.254192   0.001618
 939  24  -4.210885  -4.099370   4.126907  -0.000161   0.508240  -0.000317
 940  24  -4.472067  -2.840044   4.629403  -0.000117   0.508240  -0.000229
 941  20  -2.645733  -4.175893   3.458725   0.000187   0.508240   0.000368
 942  20  -2.817672  -3.148435   4.365029  -0.000221   0.508240  -0.000435
 943  20  -3.065236  -2.057543   4.543257   0.000174   0.254192   0.000683
 944  27  -7.901227   0.806295   4.242056   0.000075   0.250291   0.000301
 945  27  -8.167898   1.769822   3.744305  -0.000382   0.500424  -0.000763
 946  27  -8.420707   2.448686   2.590320   0.000032   0.500424   0.000064
 947  21  -6.497161   1.541228   3.956201  -0.000133   0.500424  -0.000265
 948  21  -6.805489   2.561137   3.106984  -0.000171   0.500424  -0.000341
 949  21  -6.971880   2.908653   2.058748   0.000335   0.250291   0.001338
 950  25  -8.632246   1.861556  -1.791210   0.000322   0.250468   0.001287
 951  25  -8.537187   1.175435  -2.671508  -0.000290   0.500789  -0.000578
 952  25  -8.276452  -0.079596  -3.144760  -0.000308   0.500789  -0.000615
 953  22  -7.100348   1.977116  -2.259876   0.000112   0.500789   0.000224
 954  22  -6.921951   0.941100  -3.132744  -0.000274   0.500789  -0.000548
 955  22  -6.678157  -0.140652  -3.291171   0.000154   0.250468   0.000617
 =====================================================

              6994344  WORDS OF DYNAMIC MEMORY USED
 EXECUTION OF GAMESS TERMINATED NORMALLY Wed Nov 23 00:29:25 2016
 DDI: 263640 bytes (0.3 MB / 0 MWords) used by master data server.

 ----------------------------------------
 CPU timing information for all processes
 ========================================
 0: 1695.364 + 0.488 = 1695.852
 ----------------------------------------
 ddikick.x: exited gracefully.
