----- GAMESS execution script -----

          ******************************************************
          *         GAMESS VERSION =  5 DEC 2014 (R1)          *
          *             FROM IOWA STATE UNIVERSITY             *
          * M.W.SCHMIDT, K.K.BALDRIDGE, J.A.BOATZ, S.T.ELBERT, *
          *   M.S.GORDON, J.H.JENSEN, S.KOSEKI, N.MATSUNAGA,   *
          *          K.A.NGUYEN, S.J.SU, T.L.WINDUS,           *
          *       TOGETHER WITH M.DUPUIS, J.A.MONTGOMERY       *
          *         J.COMPUT.CHEM.  14, 1347-1363(1993)        *
          **************** 64 BIT LINUX VERSION ****************

 EXECUTION OF GAMESS BEGUN Tue Nov 22 23:53:42 2016

            ECHO OF THE FIRST FEW INPUT CARDS -
 INPUT CARD>! SELECT RESTRICTED HARTREE-FOCK AS DEFAULT                                     
 INPUT CARD>$contrl scftyp=rhf $end                                                         
 INPUT CARD>                                                                                
 INPUT CARD>! THEORY: HF OR DFT                                                             
 INPUT CARD> $contrl mplevl=0 $end                                                          
 INPUT CARD>                                                                                
 INPUT CARD> $system timlim=10000 mwords=20 $end                                            
 INPUT CARD> $SCF DIRSCF=.TRUE. $end                                                        
 INPUT CARD>                                                                                
 INPUT CARD>                                                                                
 INPUT CARD>! BASIS SETS                                                                    
 INPUT CARD>! 6-311G(d,p)                                                                   
 INPUT CARD> $BASIS GBASIS=N311 NGAUSS=6 NDFUNC=1 NPFUNC=1 $END                             
 INPUT CARD>                                                                                
 INPUT CARD>! One of the following                                                          
 INPUT CARD> $guess guess=HUCKEL $end                                                       
 INPUT CARD>                                                                                
 INPUT CARD> $statpt projct=.FALSE. $end                                                    
 INPUT CARD> $STATPT IFREEZ(1)=1,2,3 $END                                                   
 INPUT CARD>                                                                                
 INPUT CARD>! Optimize the geometry with COSMO effects                                      
 INPUT CARD> $statpt opttol=0.0005 nstep=50 $end                                            
 INPUT CARD> $contrl nzvar=1 $end                                                           
 INPUT CARD> $zmat dlc=.t. auto=.t. $end                                                    
 INPUT CARD> $contrl runtyp=OPTIMIZE maxit=200 $end                                         
 INPUT CARD>                                                                                
 INPUT CARD>! Run COSMO on perfect conductor                                                
 INPUT CARD> $COSGMS PRFCND=.TRUE. $end                                                     
 INPUT CARD>                                                                                
 INPUT CARD>! Specifying RSOLV                                                              
 INPUT CARD> $COSGMS COSRAD = 1.4 $end                                                      
 INPUT CARD>                                                                                
 INPUT CARD>! available memory                                                              
 INPUT CARD> $SYSTEM MWORDS=40 $END                                                         
 INPUT CARD>                                                                                
 INPUT CARD> $DATA                                                                          
 INPUT CARD>Nonanal, ID: C124196                                                            
 INPUT CARD>C1                                                                              
 INPUT CARD>C      6.0      4.0316000000    1.7678000000    2.5733000000                    
 INPUT CARD>C      6.0      3.0214000000    2.4161000000    3.5079000000                    
 INPUT CARD>C      6.0      2.8905000000    1.6388000000    4.8090000000                    
 INPUT CARD>C      6.0      5.4406000000    1.8443000000    3.1429000000                    
 INPUT CARD>C      6.0      2.0142000000    2.3687000000    5.8118000000                    
 INPUT CARD>C      6.0      6.4390000000    1.0423000000    2.3284000000                    
 INPUT CARD>C      6.0      1.8976000000    1.5928000000    7.1141000000                    
 INPUT CARD>C      6.0      6.7289000000    1.6931000000    0.9971000000                    
 INPUT CARD>C      6.0      1.0200000000    2.3138000000    8.1119000000                    
 INPUT CARD>O      8.0      6.9947000000    1.0619000000    0.0000000000                    
 INPUT CARD>H      1.0      3.9989000000    2.2613000000    1.5820000000                    
 INPUT CARD>H      1.0      3.7520000000    0.7106000000    2.3906000000                    
   40000000 WORDS OF MEMORY AVAILABLE

     BASIS OPTIONS
     -------------
     GBASIS=N311         IGAUSS=       6      POLAR=POPN311 
     NDFUNC=       1     NFFUNC=       0     DIFFSP=       F
     NPFUNC=       1      DIFFS=       F     BASNAM=        


     RUN TITLE
     ---------
 Nonanal, ID: C124196                                                            

 THE POINT GROUP OF THE MOLECULE IS C1      
 THE ORDER OF THE PRINCIPAL AXIS IS     0

 ATOM      ATOMIC                      COORDINATES (BOHR)
           CHARGE         X                   Y                   Z
 C           6.0     7.6186192921        3.3406576011        4.8628318842
 C           6.0     5.7096180993        4.5657669589        6.6289697923
 C           6.0     5.4622529675        3.0968829487        9.0876922750
 C           6.0    10.2812432088        3.4852216392        5.9392198068
 C           6.0     3.8062860845        4.4761939471       10.9827094954
 C           6.0    12.1679456349        1.9696613970        4.4000379898
 C           6.0     3.5859440343        3.0099555532       13.4436996493
 C           6.0    12.7157771988        3.1994950698        1.8842457824
 C           6.0     1.9275205075        4.3724479904       15.3292682398
 O           8.0    13.2180663663        2.0067000264        0.0000000000
 H           1.0     7.5568252523        4.2732373760        2.9895465126
 H           1.0     7.0902519059        1.3428392869        4.5175789462
 H           1.0     3.8472931384        4.6899219563        5.6816501547
 H           1.0     6.2737013066        6.5443100681        7.0265681401
 H           1.0     7.3859940230        2.7714721336        9.8819441076
 H           1.0     4.6861425044        1.1890155915        8.7080463240
 H           1.0    10.2353228673        2.7778972020        7.9224872309
 H           1.0    10.8923805932        5.4854965972        6.0747131601
 H           1.0     1.9027650970        4.7938568857       10.1665368413
 H           1.0     4.5795619586        6.3872738385       11.3583870218
 H           1.0    11.4980377723        0.0000000000        4.1538066936
 H           1.0    13.9811377202        1.8250973589        5.4382534475
 H           1.0     5.4913547477        2.7006074091       14.2572266870
 H           1.0     2.8204160367        1.0971749085       13.0680221229
 H           1.0    12.6626758985        5.2823510535        1.8186722906
 H           1.0     2.6724504918        6.2555599372       15.7837473398
 H           1.0     0.0000000000        4.6319073685       14.6064480495
 H           1.0     1.7856020858        3.3166580811       17.1088232024

          INTERNUCLEAR DISTANCES (ANGS.)




     $CONTRL OPTIONS
     ---------------
 SCFTYP=RHF          RUNTYP=OPTIMIZE     EXETYP=RUN     
 MPLEVL=       0     CITYP =NONE         CCTYP =NONE         VBTYP =NONE    
 DFTTYP=NONE         TDDFT =NONE    
 MULT  =       1     ICHARG=       0     NZVAR =       1     COORD =UNIQUE  
 PP    =NONE         RELWFN=NONE         LOCAL =NONE         NUMGRD=       F
 ISPHER=      -1     NOSYM =       0     MAXIT =     200     UNITS =ANGS    
 PLTORB=       F     MOLPLT=       F     AIMPAC=       F     FRIEND=        
 NPRINT=       7     IREST =       0     GEOM  =INPUT   
 NORMF =       0     NORMP =       0     ITOL  =      20     ICUT  =       9
 INTTYP=BEST         GRDTYP=BEST         QMTTOL= 1.0E-06

     $SYSTEM OPTIONS
     ---------------
  REPLICATED MEMORY=    40000000 WORDS (ON EVERY NODE).
 DISTRIBUTED MEMDDI=           0 MILLION WORDS IN AGGREGATE,
 MEMDDI DISTRIBUTED OVER   1 PROCESSORS IS           0 WORDS/PROCESSOR.
 TOTAL MEMORY REQUESTED ON EACH PROCESSOR=    40000000 WORDS.
 TIMLIM=       10000.00 MINUTES, OR       6.9 DAYS.
 PARALL= F  BALTYP=  DLB     KDIAG=    0  COREFL= F
 MXSEQ2=     300 MXSEQ3=     150  mem10=         0

     $COSGMS OPTIONS
     ---------------
     EPSI  =   INFTY     NSPA  =      92     COSRAD=    1.40
     DISEX =   10.00     OUTCHG=DBLCAV       COSBUG=       F
     COSWRT=       F     DCOSMO=       F

     SYMMETRY COORDINATES WILL NOT BE USED FOR 
     THE COSMO CALCULATION, EVEN IF SPECIFIED:
         -- SWITCHING TO C1 POINT GROUP --


     DEFINITION OF CAVITY
     ---------------------------
     ATOM         COORDINATES           RADIUS 
     1    7.6186    3.3407    4.8628    2.0000
     2    5.7096    4.5658    6.6290    2.0000
     3    5.4623    3.0969    9.0877    2.0000
     4   10.2812    3.4852    5.9392    2.0000
     5    3.8063    4.4762   10.9827    2.0000
     6   12.1679    1.9697    4.4000    2.0000
     7    3.5859    3.0100   13.4437    2.0000
     8   12.7158    3.1995    1.8842    2.0000
     9    1.9275    4.3724   15.3293    2.0000
    10   13.2181    2.0067    0.0000    1.7200
    11    7.5568    4.2732    2.9895    1.3000
    12    7.0903    1.3428    4.5176    1.3000
    13    3.8473    4.6899    5.6817    1.3000
    14    6.2737    6.5443    7.0266    1.3000
    15    7.3860    2.7715    9.8819    1.3000
    16    4.6861    1.1890    8.7080    1.3000
    17   10.2353    2.7779    7.9225    1.3000
    18   10.8924    5.4855    6.0747    1.3000
    19    1.9028    4.7939   10.1665    1.3000
    20    4.5796    6.3873   11.3584    1.3000
    21   11.4980    0.0000    4.1538    1.3000
    22   13.9811    1.8251    5.4383    1.3000
    23    5.4914    2.7006   14.2572    1.3000
    24    2.8204    1.0972   13.0680    1.3000
    25   12.6627    5.2824    1.8187    1.3000
    26    2.6725    6.2556   15.7837    1.3000
    27    0.0000    4.6319   14.6064    1.3000
    28    1.7856    3.3167   17.1088    1.3000

          ----------------
          PROPERTIES INPUT
          ----------------

     MOMENTS            FIELD           POTENTIAL          DENSITY
 IEMOM =       1   IEFLD =       0   IEPOT =       0   IEDEN =       0
 WHERE =COMASS     WHERE =NUCLEI     WHERE =NUCLEI     WHERE =NUCLEI  
 OUTPUT=BOTH       OUTPUT=BOTH       OUTPUT=BOTH       OUTPUT=BOTH    
 IEMINT=       0   IEFINT=       0                     IEDINT=       0
                                                       MORB  =       0
          EXTRAPOLATION IN EFFECT
          SOSCF IN EFFECT
 ORBITAL PRINTING OPTION: NPREO=     1   298     2     1

     -------------------------------
     INTEGRAL TRANSFORMATION OPTIONS
     -------------------------------
     NWORD  =            0
     CUTOFF = 1.0E-09     MPTRAN =       0
     DIRTRF =       T     AOINTS =DUP     

          ----------------------
          INTEGRAL INPUT OPTIONS
          ----------------------
 NOPK  =       1 NORDER=       0 SCHWRZ=       T


 -----------------------------------------------
  STATISTICS ON AUTOMATIC COORDINATE GENERATION 
 -----------------------------------------------
  NUMBER OF USER SPECIFIED BONDS                             0
  NUMBER OF BONDS                                           27
  NUMBER OF ANGLES                                          51
  NUMBER OF TORSIONS                                        69
  NUMBER OF EXTRA COORD.                                     0
  NUMBER OF EXTRA COORD. FOR CONSTRAINTS                     0
  NUMBER OF CONSTRAINED COORD.                               0

  TOTAL NUMBER OF PRIMITIVES                               147
 -----------------------------------------------

   --- ENCODED Z MATRIX ---
 COORD  TYPE   I   J   K   L   M   N
    1      1    1  12
    2      1    1   4
    3      1    1  11
    4      1    1   2
    5      1    2  13
    6      1    2  14
    7      1    2   3
    8      1    3  15
    9      1    3  16
   10      1    3   5
   11      1    4   6
   12      1    4  17
   13      1    4  18
   14      1    5   7
   15      1    5  20
   16      1    5  19
   17      1    6   8
   18      1    6  22
   19      1    6  21
   20      1    7  24
   21      1    7  23
   22      1    7   9
   23      1    8  25
   24      1    8  10
   25      1    9  28
   26      1    9  27
   27      1    9  26
   28      2    1   4  17
   29      2    1   2  14
   30      2    1   2  13
   31      2    1   2   3
   32      2    1   4  18
   33      2    1   4   6
   34      2    2   1  11
   35      2    2   3  15
   36      2    2   3   5
   37      2    2   1  12
   38      2    2   3  16
   39      2    2   1   4
   40      2    3   2  14
   41      2    3   5  19
   42      2    3   5   7
   43      2    3   5  20
   44      2    3   2  13
   45      2    4   6  21
   46      2    4   6  22
   47      2    4   6   8
   48      2    4   1  12
   49      2    4   1  11
   50      2    5   3  16
   51      2    5   3  15
   52      2    5   7   9
   53      2    5   7  23
   54      2    5   7  24
   55      2    6   4  18
   56      2    6   4  17
   57      2    6   8  10
   58      2    6   8  25
   59      2    7   5  20
   60      2    7   9  27
   61      2    7   9  28
   62      2    7   9  26
   63      2    7   5  19
   64      2    8   6  21
   65      2    8   6  22
   66      2    9   7  23
   67      2    9   7  24
   68      2   10   8  25
   69      2   11   1  12
   70      2   13   2  14
   71      2   15   3  16
   72      2   17   4  18
   73      2   19   5  20
   74      2   21   6  22
   75      2   23   7  24
   76      2   26   9  27
   77      2   26   9  28
   78      2   27   9  28
   79      3    1   2   3   5
   80      3    1   2   3  15
   81      3    1   4   6  21
   82      3    1   4   6  22
   83      3    1   2   3  16
   84      3    1   4   6   8
   85      3    2   1   4  17
   86      3    2   1   4   6
   87      3    2   3   5  19
   88      3    2   1   4  18
   89      3    2   3   5  20
   90      3    2   3   5   7
   91      3    3   5   7   9
   92      3    3   5   7  23
   93      3    3   5   7  24
   94      3    3   2   1  11
   95      3    3   2   1   4
   96      3    3   2   1  12
   97      3    4   1   2  14
   98      3    4   6   8  10
   99      3    4   6   8  25
  100      3    4   1   2  13
  101      3    5   7   9  26
  102      3    5   7   9  27
  103      3    5   7   9  28
  104      3    5   3   2  14
  105      3    5   3   2  13
  106      3    6   4   1  11
  107      3    6   4   1  12
  108      3    7   5   3  16
  109      3    7   5   3  15
  110      3    8   6   4  18
  111      3    8   6   4  17
  112      3    9   7   5  19
  113      3    9   7   5  20
  114      3   10   8   6  21
  115      3   10   8   6  22
  116      3   11   1   2  14
  117      3   11   1   2  13
  118      3   11   1   4  17
  119      3   11   1   4  18
  120      3   12   1   4  17
  121      3   12   1   2  13
  122      3   12   1   2  14
  123      3   12   1   4  18
  124      3   13   2   3  15
  125      3   13   2   3  16
  126      3   14   2   3  15
  127      3   14   2   3  16
  128      3   15   3   5  20
  129      3   15   3   5  19
  130      3   16   3   5  20
  131      3   16   3   5  19
  132      3   17   4   6  22
  133      3   17   4   6  21
  134      3   18   4   6  22
  135      3   18   4   6  21
  136      3   19   5   7  24
  137      3   19   5   7  23
  138      3   20   5   7  24
  139      3   20   5   7  23
  140      3   21   6   8  25
  141      3   22   6   8  25
  142      3   23   7   9  26
  143      3   23   7   9  28
  144      3   23   7   9  27
  145      3   24   7   9  26
  146      3   24   7   9  28
  147      3   24   7   9  27

          INDEP./SYM. INTERNAL COORDINATES
          --------------------------------
 CRD  1=  -0.1253 ( 29) -0.1660 ( 30)  0.4873 ( 31) -0.1587 ( 33) -0.1394 ( 34)
           0.1355 ( 35) -0.3706 ( 36)  0.1043 ( 38)  0.2971 ( 39) -0.1400 ( 40)
          -0.1068 ( 41)  0.3164 ( 42) -0.1643 ( 44) -0.1115 ( 47) -0.1049 ( 49)
           0.1256 ( 51) -0.1486 ( 52) -0.1094 ( 63)  0.1241 ( 86)
 CRD  2=  -0.1458 ( 28) -0.1096 ( 29)  0.2833 ( 33) -0.2434 ( 36)  0.2133 ( 37)
          -0.4904 ( 39)  0.1741 ( 42) -0.1114 ( 43) -0.1178 ( 47)  0.1164 ( 48)
           0.1924 ( 49)  0.1563 ( 50) -0.1497 ( 52) -0.1335 ( 55) -0.2351 ( 79)
          -0.1089 ( 80) -0.1385 ( 83)  0.1125 ( 86)  0.1019 ( 88)  0.1124 ( 90)
          -0.1223 ( 91)  0.1296 ( 94) -0.1059 (104)
 CRD  3=  -0.1308 (  2) -0.2713 (  4) -0.2019 (  7) -0.2203 ( 10) -0.2094 ( 11)
          -0.1472 ( 14) -0.1016 ( 22)  0.1443 ( 28)  0.1064 ( 29) -0.2750 ( 31)
           0.1253 ( 32) -0.4294 ( 33) -0.1468 ( 36)  0.1210 ( 44)  0.1183 ( 46)
          -0.3697 ( 47) -0.1784 ( 52)  0.1237 ( 55)  0.1388 ( 56)  0.1192 ( 64)
           0.1430 ( 65)
 CRD  4=   0.1028 ( 10)  0.2313 ( 31) -0.1071 ( 34)  0.1533 ( 36)  0.1082 ( 41)
          -0.3197 ( 42)  0.1371 ( 45)  0.1140 ( 46) -0.3853 ( 47)  0.3823 ( 52)
          -0.1429 ( 53) -0.1200 ( 54) -0.1021 ( 55)  0.1013 ( 56)  0.1201 ( 57)
          -0.1135 ( 58)  0.1285 ( 63)  0.1393 ( 64) -0.1172 ( 66)  0.1239 ( 85)
           0.2121 ( 86)  0.1033 ( 88)  0.1317 (106)  0.1039 (107)
 CRD  5=   0.1361 ( 28) -0.1485 ( 29) -0.1116 ( 32)  0.1561 ( 35) -0.1441 ( 38)
          -0.1060 ( 39)  0.1595 ( 40)  0.1304 ( 41) -0.1128 ( 42) -0.1914 ( 44)
          -0.1019 ( 47)  0.1765 ( 48) -0.1309 ( 49) -0.1092 ( 51) -0.1021 ( 54)
           0.1515 ( 59) -0.1193 ( 79) -0.1401 ( 81) -0.1532 ( 82) -0.2052 ( 84)
          -0.1506 ( 87) -0.1594 ( 89) -0.2260 ( 90) -0.1022 ( 91) -0.1514 ( 94)
          -0.3290 ( 95) -0.1788 ( 96) -0.1861 ( 97) -0.1948 (100) -0.1114 (108)
          -0.1010 (109)
 CRD  6=  -0.2636 (  7) -0.3015 ( 10)  0.1036 ( 11) -0.3151 ( 14) -0.1974 ( 22)
           0.1309 ( 31)  0.1789 ( 33)  0.1373 ( 35) -0.3021 ( 36)  0.1307 ( 38)
          -0.4453 ( 42)  0.1540 ( 43)  0.2071 ( 47)  0.1576 ( 59)  0.1489 ( 63)
 CRD  7=  -0.1310 (  2) -0.1031 ( 28) -0.1085 ( 32)  0.2643 ( 33) -0.1950 ( 39)
          -0.1400 ( 41)  0.1119 ( 43)  0.1390 ( 45) -0.2390 ( 47) -0.1136 ( 50)
          -0.1036 ( 55) -0.1418 ( 60)  0.1439 ( 62) -0.1009 ( 67)  0.2474 ( 79)
          -0.1158 ( 87) -0.1123 ( 89) -0.2647 ( 90)  0.3300 ( 91)  0.1874 ( 92)
           0.1813 ( 93) -0.1304 (103)  0.1668 (104)  0.1571 (105) -0.1182 (108)
          -0.1167 (109)  0.1405 (112)  0.1310 (113)
 CRD  8=   0.2011 (  2)  0.1886 (  4)  0.1240 ( 11) -0.1156 ( 14) -0.1801 ( 22)
           0.1893 ( 33)  0.3082 ( 36)  0.2211 ( 39)  0.1071 ( 41)  0.1212 ( 45)
          -0.2025 ( 47) -0.1269 ( 51) -0.4889 ( 52)  0.1543 ( 53)  0.1551 ( 54)
          -0.1305 ( 55) -0.1481 ( 62)  0.1319 ( 66)  0.1758 ( 67) -0.1016 ( 75)
 CRD  9=  -0.2583 (  2)  0.1982 (  7) -0.1247 ( 11) -0.1155 ( 22) -0.1546 ( 29)
          -0.1205 ( 30)  0.2868 ( 31)  0.1398 ( 32) -0.2875 ( 33)  0.2469 ( 36)
           0.1818 ( 37) -0.2339 ( 39) -0.1573 ( 42)  0.1012 ( 43) -0.1644 ( 45)
           0.2065 ( 47) -0.1067 ( 50) -0.1442 ( 51) -0.2108 ( 52)  0.1496 ( 56)
          -0.1061 ( 60)  0.1147 ( 82)  0.1051 ( 84)
 CRD 10=   0.1225 (  2) -0.1404 ( 28) -0.1684 ( 31)  0.1833 ( 32)  0.1038 ( 35)
          -0.1198 ( 38)  0.1106 ( 39) -0.1341 ( 43) -0.1200 ( 45)  0.1124 ( 46)
          -0.1175 ( 48)  0.1183 ( 50)  0.1247 ( 53) -0.1566 ( 54)  0.1590 ( 57)
          -0.1196 ( 58)  0.1556 ( 59) -0.1672 ( 63)  0.1499 ( 64) -0.1624 ( 65)
           0.1641 ( 81)  0.1641 ( 82)  0.2823 ( 84) -0.1270 ( 87) -0.1045 ( 89)
          -0.2543 ( 90)  0.1023 ( 97)  0.1119 ( 99)  0.1339 (100) -0.1387 (101)
          -0.1303 (102) -0.1208 (103) -0.1483 (108) -0.1844 (109)  0.1372 (110)
           0.1445 (111)
 CRD 11=  -0.1559 (  2)  0.1052 (  3)  0.2854 (  7) -0.1665 ( 11) -0.1476 ( 12)
          -0.2713 ( 17) -0.1500 ( 30)  0.1301 ( 31)  0.1048 ( 33)  0.1262 ( 34)
          -0.1072 ( 37)  0.1134 ( 38) -0.1068 ( 40) -0.1305 ( 47) -0.1225 ( 56)
          -0.1884 ( 58)  0.2106 ( 60) -0.2438 ( 62) -0.1212 ( 66)  0.1046 ( 67)
           0.1277 ( 68)  0.1480 ( 79)  0.1582 ( 80) -0.1406 ( 85) -0.2523 ( 86)
          -0.1643 ( 88) -0.1580 ( 91) -0.1127 (106) -0.1249 (107) -0.1335 (112)
          -0.1170 (113)
 CRD 12=  -0.3135 (  2) -0.1050 (  4) -0.1754 (  7)  0.1144 ( 17)  0.1306 ( 29)
          -0.1370 ( 30) -0.1318 ( 34)  0.1084 ( 37)  0.1518 ( 44)  0.1839 ( 45)
          -0.1993 ( 46) -0.1287 ( 48)  0.1089 ( 53) -0.1070 ( 54) -0.1052 ( 57)
           0.1544 ( 58)  0.2000 ( 60) -0.1837 ( 62) -0.1002 ( 63) -0.2045 ( 64)
           0.1279 ( 65) -0.1215 ( 66)  0.1440 ( 67)  0.1038 ( 79)  0.1316 ( 83)
          -0.1321 ( 84)  0.1555 ( 86)  0.1225 ( 88) -0.1345 ( 91)  0.1165 ( 95)
          -0.1236 ( 98) -0.1704 ( 99) -0.1043 (111) -0.1065 (112) -0.1256 (113)
 CRD 13=  -0.2251 (  2) -0.1713 (  4) -0.1046 ( 10)  0.1255 ( 11)  0.4231 ( 17)
           0.1266 ( 24) -0.1137 ( 28) -0.1014 ( 37)  0.1208 ( 40)  0.1262 ( 48)
          -0.1168 ( 49)  0.1130 ( 54)  0.1579 ( 56)  0.3240 ( 57)  0.1599 ( 60)
          -0.1791 ( 62)  0.1138 ( 63)  0.1079 ( 64) -0.2329 ( 68) -0.1774 ( 95)
          -0.1135 (100)  0.1081 (101)  0.1115 (102)  0.1473 (103)  0.1072 (107)
           0.1041 (109)  0.1103 (110)
 CRD 14=   0.6043 ( 22) -0.1415 ( 42) -0.1093 ( 52) -0.1247 ( 53)  0.1067 ( 60)
           0.4361 ( 61)  0.1867 ( 66)  0.1827 ( 67) -0.2042 ( 77) -0.2560 ( 78)
           0.1025 ( 93) -0.1046 (144)
 CRD 15=  -0.1781 (  2)  0.3297 (  4)  0.1632 ( 10)  0.3630 ( 11) -0.3033 ( 14)
           0.1325 ( 17)  0.1014 ( 22)  0.1191 ( 24)  0.1180 ( 29) -0.1237 ( 32)
           0.1736 ( 34) -0.1168 ( 40)  0.1948 ( 55)  0.2390 ( 57) -0.1568 ( 58)
           0.1689 ( 62) -0.1173 ( 85) -0.1026 ( 86) -0.1069 (107) -0.1217 (120)
 CRD 16=   0.1878 (  7) -0.3252 ( 10)  0.2517 ( 11)  0.4054 ( 14)  0.1028 ( 25)
           0.1082 ( 35)  0.1034 ( 38) -0.1333 ( 43) -0.1166 ( 51)  0.1986 ( 59)
          -0.2859 ( 60)  0.3211 ( 61)  0.1038 ( 63)  0.1147 ( 76) -0.1442 ( 77)
           0.1042 (128) -0.1137 (131)
 CRD 17=  -0.1536 (  2) -0.4318 ( 11)  0.1940 ( 17)  0.1052 ( 32)  0.1694 ( 39)
          -0.3178 ( 46) -0.1229 ( 49) -0.1028 ( 51) -0.1578 ( 55)  0.1420 ( 57)
          -0.2082 ( 60)  0.2711 ( 62)  0.1761 ( 65) -0.1140 ( 68) -0.1009 ( 77)
          -0.1136 ( 88) -0.1620 ( 98) -0.1590 ( 99) -0.1106 (104) -0.1040 (114)
          -0.1057 (135) -0.1009 (140)
 CRD 18=  -0.1385 (  2)  0.4366 (  4) -0.3121 (  7) -0.1520 ( 11)  0.2460 ( 14)
          -0.1288 ( 22)  0.2048 ( 30)  0.1233 ( 34)  0.1282 ( 37) -0.1886 ( 44)
          -0.1081 ( 48)  0.1927 ( 61) -0.2781 ( 62)  0.1473 ( 76) -0.1090 ( 96)
           0.1108 (105)  0.1235 (117) -0.1376 (122) -0.1015 (126)
 CRD 19=   0.3500 (  2)  0.1126 (  3)  0.1230 (  4) -0.1487 ( 11)  0.3780 ( 17)
           0.1240 ( 18)  0.1317 ( 28) -0.1291 ( 35)  0.1594 ( 38) -0.1158 ( 39)
          -0.1524 ( 45)  0.1037 ( 48) -0.1405 ( 50)  0.1598 ( 51)  0.1689 ( 53)
          -0.1643 ( 54) -0.1046 ( 56)  0.1392 ( 58) -0.1179 ( 62)  0.1280 ( 64)
           0.1286 ( 65) -0.1362 ( 66)  0.1278 ( 67) -0.2155 ( 68) -0.1090 ( 81)
           0.1007 ( 96)  0.1141 ( 98) -0.1238 (101) -0.1307 (102) -0.1083 (103)
           0.1105 (105) -0.1027 (110) -0.1189 (135)
 CRD 20=   0.2856 (  4)  0.1020 (  6)  0.2584 (  7) -0.2759 ( 10) -0.1238 ( 14)
           0.1273 ( 22)  0.1476 ( 23) -0.1185 ( 24) -0.1550 ( 28)  0.1138 ( 30)
          -0.1126 ( 31)  0.1777 ( 32)  0.1337 ( 34)  0.1078 ( 38)  0.1292 ( 45)
          -0.1040 ( 50) -0.1854 ( 55)  0.2022 ( 56) -0.3013 ( 57)  0.3033 ( 58)
           0.1961 ( 60) -0.1242 ( 61) -0.1157 ( 76)  0.1025 ( 81)  0.1735 (106)
 CRD 21=   0.1070 (  2) -0.3068 ( 10) -0.1395 ( 16)  0.1095 ( 22) -0.1031 ( 23)
           0.1101 ( 26)  0.1667 ( 28) -0.1607 ( 34)  0.1057 ( 35)  0.2036 ( 37)
          -0.1359 ( 41) -0.1149 ( 46) -0.1813 ( 48)  0.1701 ( 49) -0.1470 ( 51)
           0.1052 ( 54)  0.1283 ( 55) -0.1757 ( 56)  0.1871 ( 57) -0.1637 ( 58)
           0.3241 ( 60) -0.1831 ( 61) -0.1365 ( 76)  0.1005 ( 77)  0.1274 ( 85)
          -0.1037 ( 87)  0.1123 ( 97) -0.1286 (107)
 CRD 22=  -0.1605 (  2) -0.1073 (  3) -0.1350 (  7) -0.1399 (  8) -0.2051 ( 10)
          -0.1106 ( 15) -0.1893 ( 17) -0.1264 ( 18)  0.1021 ( 30) -0.2069 ( 35)
           0.1435 ( 38) -0.1286 ( 41)  0.1114 ( 47) -0.1300 ( 49) -0.2073 ( 50)
           0.1222 ( 51)  0.2332 ( 53) -0.1797 ( 54) -0.1839 ( 58) -0.1252 ( 61)
           0.1953 ( 62) -0.1409 ( 65) -0.1761 ( 66)  0.1894 ( 67)  0.1072 ( 68)
          -0.1028 ( 83)  0.1061 ( 87)  0.1355 ( 89)  0.1150 ( 90) -0.1479 (101)
          -0.1317 (102) -0.1329 (103)  0.1018 (110) -0.1205 (112)
 CRD 23=  -0.1015 (  5) -0.1791 (  7) -0.1566 (  9) -0.1561 ( 10)  0.1000 ( 14)
           0.1283 ( 20) -0.1148 ( 32) -0.1504 ( 35) -0.1307 ( 40)  0.2102 ( 41)
          -0.2985 ( 43) -0.1533 ( 45)  0.1551 ( 46) -0.1189 ( 50) -0.1107 ( 53)
           0.1970 ( 54)  0.2458 ( 59) -0.1304 ( 61)  0.1617 ( 62) -0.2010 ( 63)
           0.1417 ( 64)  0.1639 ( 66) -0.1479 ( 67) -0.1760 ( 92) -0.1752 ( 93)
           0.1127 ( 98)  0.1221 ( 99) -0.1279 (109)  0.1046 (113)
 CRD 24=   0.1209 (  7) -0.1095 ( 23) -0.1785 ( 29)  0.1553 ( 30)  0.1194 ( 32)
          -0.1859 ( 35)  0.2390 ( 38)  0.1729 ( 40)  0.1933 ( 41) -0.1455 ( 43)
           0.1596 ( 45) -0.1809 ( 46) -0.1917 ( 50)  0.2337 ( 51) -0.1185 ( 53)
           0.1058 ( 57) -0.1545 ( 58)  0.1863 ( 59) -0.1260 ( 62) -0.2200 ( 63)
          -0.1667 ( 64)  0.1067 ( 66) -0.1195 ( 67) -0.1325 ( 80) -0.1125 ( 83)
           0.1311 ( 87)  0.1069 ( 89) -0.1302 ( 98) -0.1354 ( 99)  0.1350 (104)
           0.1100 (105) -0.1558 (108) -0.1321 (109)
 CRD 25=   0.1287 (  2) -0.1109 (  5) -0.1099 (  6) -0.1770 (  7)  0.1119 ( 10)
           0.1623 ( 13)  0.3005 ( 14)  0.1489 ( 16)  0.1621 ( 20)  0.1295 ( 21)
          -0.1004 ( 28)  0.1152 ( 31)  0.1922 ( 32) -0.1074 ( 37) -0.1407 ( 42)
          -0.1222 ( 44)  0.1672 ( 45) -0.1278 ( 46) -0.1999 ( 52)  0.1360 ( 53)
           0.1199 ( 54)  0.1131 ( 56)  0.1202 ( 60) -0.2319 ( 61)  0.2078 ( 62)
          -0.1410 ( 64)  0.1462 ( 65) -0.1156 ( 75) -0.1635 ( 76)  0.1105 ( 81)
           0.1126 ( 82) -0.1366 ( 85) -0.1111 ( 86) -0.1185 ( 88) -0.1104 (110)
 CRD 26=   0.1320 (  1)  0.1033 (  2)  0.1366 (  5)  0.1184 ( 12)  0.1583 ( 15)
          -0.1140 ( 17) -0.1327 ( 18)  0.1280 ( 21)  0.1049 ( 26)  0.1713 ( 29)
          -0.1279 ( 30)  0.1452 ( 34) -0.1222 ( 37) -0.1894 ( 40)  0.2438 ( 44)
           0.1368 ( 47)  0.2159 ( 48) -0.1999 ( 49) -0.1530 ( 58)  0.2016 ( 60)
          -0.1260 ( 62) -0.1314 ( 65)  0.1032 ( 77) -0.1179 ( 82)  0.1055 ( 86)
           0.1257 ( 91)  0.1698 ( 94)  0.1853 ( 96) -0.1582 ( 97) -0.1724 (100)
           0.1420 (106)  0.1219 (107)  0.1052 (112)
 CRD 27=   0.1160 (  1)  0.1808 (  2) -0.1179 (  5) -0.2031 (  7) -0.1153 (  8)
          -0.1869 (  9) -0.2475 ( 10)  0.1189 ( 13) -0.2068 ( 14) -0.1772 ( 15)
          -0.1231 ( 16) -0.1408 ( 21) -0.1126 ( 30)  0.1435 ( 31)  0.1574 ( 32)
          -0.1054 ( 33)  0.1050 ( 34)  0.1936 ( 36) -0.1119 ( 38) -0.1287 ( 39)
          -0.1677 ( 40)  0.1990 ( 42)  0.1655 ( 48) -0.1151 ( 51)  0.1565 ( 52)
          -0.1448 ( 60)  0.1376 ( 61) -0.1191 ( 64)  0.1153 ( 71)  0.1157 ( 73)
           0.1117 ( 80)
 CRD 28=  -0.2254 (  1) -0.1506 (  2) -0.1531 (  4) -0.2653 (  6) -0.1610 (  7)
          -0.2244 (  8) -0.1642 ( 12) -0.1535 ( 16) -0.1798 ( 20)  0.1285 ( 21)
           0.1007 ( 26) -0.1103 ( 27) -0.1099 ( 28) -0.1109 ( 29)  0.1158 ( 31)
          -0.1215 ( 35)  0.1088 ( 36) -0.1344 ( 37)  0.1249 ( 39) -0.1032 ( 47)
          -0.1168 ( 49)  0.1009 ( 58)  0.1479 ( 60) -0.1817 ( 62) -0.1057 ( 78)
          -0.1799 ( 79) -0.1199 ( 80) -0.1334 ( 83) -0.1086 ( 85) -0.1519 ( 86)
           0.1599 ( 91)  0.1099 (112)  0.1271 (113)
 CRD 29=   0.1919 ( 13) -0.2785 ( 18)  0.4796 ( 19)  0.1840 ( 23) -0.1694 ( 24)
           0.2429 ( 28) -0.1136 ( 33)  0.1656 ( 45)  0.1692 ( 55) -0.1395 ( 56)
          -0.1168 ( 57)  0.1697 ( 58)  0.1092 ( 64)  0.1431 ( 84) -0.2956 ( 98)
          -0.1606 ( 99)  0.1995 (110)  0.2786 (111) -0.1240 (115)
 CRD 30=  -0.1794 (  1)  0.2793 (  5) -0.3439 (  6)  0.1825 (  8) -0.2140 (  9)
           0.1621 ( 15) -0.1687 ( 16)  0.3050 ( 20) -0.3077 ( 21) -0.1174 ( 49)
          -0.1038 ( 50) -0.1388 ( 80) -0.1459 ( 83) -0.1047 ( 87) -0.1061 ( 89)
          -0.1164 ( 90)  0.1597 ( 94)  0.1060 ( 95)  0.1141 ( 96)  0.1102 (101)
           0.1106 (102)  0.1354 (103) -0.1418 (112) -0.1422 (113)
 CRD 31=  -0.3489 (  1)  0.3525 (  3)  0.3469 ( 12) -0.3653 ( 13) -0.1199 ( 15)
           0.1132 ( 16) -0.1035 ( 18) -0.1140 ( 20)  0.1122 ( 21)  0.1050 ( 30)
           0.1003 ( 34) -0.1517 ( 44) -0.1347 ( 65) -0.1308 ( 81) -0.1701 ( 82)
          -0.1111 ( 85) -0.1268 ( 88)  0.1336 ( 97)  0.1725 (100)  0.1307 (106)
           0.1281 (107)
 CRD 32=   0.1545 ( 17)  0.5574 ( 23)  0.5732 ( 24) -0.2169 ( 57) -0.2443 ( 58)
           0.4613 ( 68)
 CRD 33=   0.1737 ( 22)  0.4803 ( 25)  0.5028 ( 26)  0.5030 ( 27) -0.1769 ( 60)
          -0.1942 ( 61) -0.1766 ( 62)  0.1876 ( 76)  0.2000 ( 77)  0.2002 ( 78)
 CRD 34=   0.1571 (  3) -0.2337 (  5)  0.1778 (  6) -0.3257 (  8)  0.3307 (  9)
           0.1370 ( 12) -0.1085 ( 13)  0.3357 ( 15) -0.3356 ( 16)  0.2369 ( 20)
          -0.2376 ( 21)  0.1016 ( 49)  0.1060 ( 92)  0.1059 ( 93) -0.1017 ( 94)
          -0.1078 (104) -0.1055 (105)
 CRD 35=  -0.1291 ( 15)  0.1286 ( 16) -0.1269 ( 20)  0.1271 ( 21)  0.1172 ( 29)
          -0.1122 ( 30)  0.1002 ( 32) -0.1083 ( 34)  0.1169 ( 37)  0.1015 ( 38)
          -0.1242 ( 40)  0.1171 ( 44) -0.1238 ( 48)  0.1153 ( 49) -0.1214 ( 50)
           0.1208 ( 51) -0.1178 ( 55)  0.1061 ( 56) -0.1157 ( 59)  0.1157 ( 63)
          -0.1003 ( 65) -0.1025 (115) -0.1431 (116) -0.1393 (117) -0.1346 (118)
          -0.1385 (119) -0.1389 (120) -0.1446 (121) -0.1485 (122) -0.1428 (123)
          -0.1421 (124) -0.1405 (125) -0.1448 (126) -0.1432 (127) -0.1293 (128)
          -0.1296 (129) -0.1317 (130) -0.1320 (131) -0.1129 (132) -0.1115 (133)
          -0.1232 (134) -0.1218 (135) -0.1105 (136) -0.1107 (137) -0.1108 (138)
          -0.1110 (139)
 CRD 36=   0.1097 (  1) -0.1654 (  3)  0.1919 (  5) -0.1484 (  6)  0.1291 (  8)
          -0.1428 (  9)  0.1507 ( 13)  0.1084 ( 32)  0.1093 ( 41) -0.1089 ( 43)
          -0.1004 ( 45)  0.1009 ( 59) -0.1015 ( 63)  0.1130 ( 64) -0.1058 ( 65)
          -0.1117 ( 66)  0.1115 ( 67) -0.1096 ( 99) -0.1449 (114) -0.1414 (115)
          -0.1065 (118) -0.1155 (119) -0.1166 (120) -0.1256 (123)  0.1404 (128)
           0.1411 (129)  0.1392 (130)  0.1400 (131) -0.1509 (132) -0.1523 (133)
          -0.1541 (134) -0.1556 (135)  0.1568 (136)  0.1571 (137)  0.1567 (138)
           0.1570 (139) -0.1550 (140) -0.1516 (141)
 CRD 37=  -0.1690 ( 20) -0.1684 ( 21)  0.6348 ( 25) -0.2911 ( 26) -0.2992 ( 27)
          -0.3280 ( 76)  0.1568 ( 77)  0.1609 ( 78)  0.1711 (101) -0.1723 (102)
           0.1866 (142) -0.1568 (144)  0.1560 (145) -0.1874 (147)
 CRD 38=   0.5462 ( 26) -0.5415 ( 27) -0.2911 ( 77)  0.2885 ( 78)  0.2348 (103)
           0.2302 (143)  0.2302 (146)
 CRD 39=   0.6062 ( 18)  0.5507 ( 19) -0.1042 ( 45)  0.2642 ( 74) -0.1311 ( 82)
          -0.1572 (114) -0.1169 (132) -0.1436 (134) -0.1550 (140)
 CRD 40=  -0.1190 (  1) -0.1357 (  6)  0.1406 (  8) -0.1144 (  9) -0.3737 ( 13)
          -0.1103 ( 15)  0.1671 ( 19) -0.1128 ( 46)  0.1162 ( 99)  0.1085 (111)
           0.1453 (114)  0.1923 (115) -0.1333 (116) -0.1552 (117) -0.1504 (121)
          -0.1285 (122) -0.1171 (126) -0.1189 (127)  0.1011 (132)  0.1548 (133)
           0.1389 (136)  0.1401 (137)  0.1374 (138)  0.1386 (139)  0.1711 (140)
           0.2180 (141)  0.1114 (142)  0.1106 (144)  0.1125 (145)  0.1116 (147)
 CRD 41=   0.4050 (  1)  0.3018 (  3) -0.3360 (  5) -0.4015 (  6)  0.2874 (  8)
           0.2902 (  9) -0.1689 ( 12) -0.1350 ( 15) -0.1653 ( 16)  0.1344 ( 69)
          -0.1351 ( 70)  0.1417 (116) -0.1072 (121)  0.1230 (124)
 CRD 42=  -0.2489 (  1) -0.2091 (  3)  0.1284 (  6)  0.2397 (  8)  0.2363 (  9)
           0.1523 ( 12)  0.1046 ( 13) -0.4231 ( 15) -0.4080 ( 16)  0.2751 ( 20)
           0.2725 ( 21) -0.1483 ( 73) -0.1096 (129)  0.1112 (130)  0.1244 (137)
          -0.1089 (138)
 CRD 43=   0.1811 (  1)  0.1679 (  3)  0.1028 (  5) -0.3729 (  8) -0.3548 (  9)
          -0.2417 ( 12) -0.1891 ( 13) -0.1083 ( 16)  0.3658 ( 20)  0.3684 ( 21)
          -0.1522 ( 71)  0.1452 ( 75)  0.1029 (127) -0.1006 (138) -0.1047 (144)
 CRD 44=   0.2768 (  5)  0.2635 (  6)  0.1399 (  9) -0.4577 ( 12) -0.3703 ( 13)
          -0.1448 ( 15) -0.1830 ( 16) -0.1120 ( 18) -0.2373 ( 20) -0.2325 ( 21)
           0.1191 ( 70) -0.1754 ( 72) -0.1037 ( 75) -0.1237 (135)
 CRD 45=  -0.1093 (  3)  0.2549 (  8)  0.2807 (  9) -0.1891 ( 12) -0.1520 ( 13)
           0.3802 ( 15)  0.3618 ( 16)  0.2757 ( 20)  0.2777 ( 21)  0.1348 ( 71)
           0.1810 ( 73)  0.1319 ( 75) -0.1180 (128)  0.1172 (131) -0.1273 (136)
           0.1040 (139)
 CRD 46=   0.2962 (  1)  0.4619 (  3)  0.4101 (  5)  0.2921 (  6)  0.1378 (  8)
           0.2313 ( 12)  0.1628 ( 13)  0.1764 ( 69)  0.1590 ( 70)  0.1010 ( 72)
           0.1051 (117) -0.1013 (119)  0.1036 (120) -0.1803 (122) -0.1096 (125)
 CRD 47=   0.1630 (  1) -0.1732 (  3)  0.1878 (  5) -0.1740 (  6)  0.2099 ( 12)
          -0.1489 ( 13)  0.1168 ( 15) -0.1186 ( 16) -0.2121 ( 18)  0.1814 ( 19)
           0.1385 ( 98)  0.1375 ( 99)  0.1982 (114)  0.2133 (115) -0.1655 (118)
          -0.1662 (119) -0.1615 (120) -0.1623 (123)  0.1477 (124)  0.1413 (125)
           0.1487 (126)  0.1424 (127)  0.1972 (140)  0.2123 (141) -0.1067 (142)
          -0.1066 (144) -0.1072 (145) -0.1071 (147)
 CRD 48=   0.1539 (  1) -0.1604 (  3) -0.1892 (  8)  0.1855 (  9) -0.2411 ( 15)
           0.2410 ( 16) -0.1861 ( 18)  0.1664 ( 19) -0.1391 ( 87) -0.1409 ( 89)
           0.1097 ( 94)  0.1171 ( 96) -0.1327 (108) -0.1274 (109)  0.1100 (114)
           0.1226 (115)  0.1455 (116)  0.1486 (117)  0.1561 (121)  0.1529 (122)
          -0.2095 (128) -0.2077 (129) -0.2148 (130) -0.2130 (131) -0.1070 (133)
           0.1196 (142)  0.1060 (143)  0.1198 (144)  0.1193 (145)  0.1056 (146)
           0.1194 (147)
 CRD 49=   0.2619 (  5) -0.2596 (  6) -0.2922 (  8)  0.2841 (  9) -0.2239 ( 15)
           0.2235 ( 16)  0.2132 ( 18) -0.1928 ( 19)  0.1425 ( 20) -0.1426 ( 21)
          -0.1217 ( 98) -0.1327 (114) -0.1501 (115) -0.1176 (116) -0.1133 (117)
           0.1333 (124)  0.1344 (125)  0.1270 (126)  0.1281 (127)  0.1405 (132)
           0.1363 (133)  0.1197 (134)  0.1154 (135) -0.1121 (141)
 CRD 50=  -0.2496 (  1)  0.2432 (  3) -0.2627 ( 12)  0.2594 ( 13) -0.1309 ( 15)
           0.1314 ( 16) -0.1843 ( 18)  0.1677 ( 19)  0.1971 ( 20) -0.1973 ( 21)
          -0.1045 ( 82)  0.1111 ( 85)  0.1023 ( 88)  0.1180 ( 98)  0.1105 (106)
           0.1012 (107) -0.1130 (111)  0.1129 (114)  0.1438 (115) -0.1055 (117)
           0.1427 (118)  0.1340 (119)  0.1334 (120)  0.1246 (123) -0.1713 (132)
          -0.1310 (133) -0.1429 (134) -0.1026 (135)  0.1074 (141) -0.1326 (142)
          -0.1377 (143) -0.1332 (144) -0.1311 (145) -0.1362 (146) -0.1317 (147)
 CRD 51=   0.1530 (  1) -0.1488 (  3) -0.1775 (  5)  0.1794 (  6)  0.1168 (  8)
          -0.1134 (  9)  0.1329 ( 12) -0.1332 ( 13) -0.1203 ( 15)  0.1199 ( 16)
           0.2843 ( 20) -0.2853 ( 21)  0.1056 ( 92)  0.1040 ( 93) -0.1300 (101)
          -0.1299 (102) -0.1444 (103)  0.1052 (116)  0.1305 (117) -0.1143 (124)
          -0.1231 (125) -0.1034 (126) -0.1122 (127)  0.1189 (136)  0.1204 (137)
           0.1168 (138)  0.1184 (139) -0.1930 (142) -0.2074 (143) -0.1929 (144)
          -0.1942 (145) -0.2086 (146) -0.1941 (147)
 CRD 52=   0.2090 ( 25)  0.1146 ( 29)  0.1240 ( 30)  0.1571 ( 35)  0.1659 ( 38)
           0.1790 ( 41)  0.1735 ( 43) -0.1561 ( 50) -0.1421 ( 51)  0.1443 ( 53)
           0.1464 ( 54) -0.1710 ( 59)  0.1061 ( 60)  0.1465 ( 61)  0.1066 ( 62)
          -0.1748 ( 63) -0.1821 ( 66) -0.1803 ( 67) -0.1588 ( 77) -0.1574 ( 78)
          -0.1002 ( 83)  0.1068 ( 87)  0.1074 ( 92) -0.1100 ( 93)  0.1013 (112)
          -0.1030 (113)  0.1068 (123)  0.1473 (124) -0.1663 (127)  0.1967 (129)
          -0.1824 (130)  0.2119 (137) -0.2098 (138)  0.1060 (144) -0.1109 (145)
 CRD 53=  -0.1076 (  4) -0.1084 ( 11) -0.1173 ( 12)  0.1693 ( 18)  0.4256 ( 24)
           0.1347 ( 28)  0.1031 ( 37)  0.2192 ( 45)  0.1903 ( 46) -0.1381 ( 55)
          -0.1397 ( 56)  0.1191 ( 57)  0.1832 ( 58) -0.1449 ( 64) -0.1890 ( 65)
          -0.3043 ( 68) -0.1247 ( 82) -0.1400 ( 88)  0.1264 ( 99) -0.1706 (115)
          -0.1026 (119) -0.1986 (123)  0.1106 (133) -0.1347 (134)  0.2932 (140)
 CRD 54=   0.1106 ( 10) -0.1889 ( 11) -0.1780 ( 17) -0.1554 ( 18)  0.1057 ( 22)
           0.3175 ( 24) -0.1537 ( 25) -0.1096 ( 26) -0.1011 ( 27)  0.1099 ( 29)
           0.1204 ( 30) -0.1232 ( 32) -0.1396 ( 34) -0.1371 ( 37) -0.1131 ( 44)
           0.1342 ( 49)  0.1198 ( 55)  0.1013 ( 57)  0.1657 ( 58) -0.1117 ( 60)
          -0.1243 ( 61) -0.1092 ( 62) -0.2660 ( 68)  0.1329 ( 77)  0.1395 ( 78)
           0.1045 ( 81) -0.1031 (104) -0.1056 (118)  0.1576 (123) -0.1545 (127)
           0.1809 (135) -0.1265 (140)
 CRD 55=   0.2485 ( 17)  0.1957 ( 19) -0.6800 ( 23)  0.2652 ( 24)  0.1095 ( 46)
          -0.2942 ( 57)  0.2628 ( 68) -0.1579 ( 74) -0.1176 (115)
 CRD 56=   0.1870 (  4) -0.1042 ( 10) -0.1197 ( 11) -0.1487 ( 14) -0.1718 ( 18)
           0.1586 ( 19) -0.2017 ( 22) -0.1620 ( 23)  0.2975 ( 24)  0.1781 ( 25)
           0.1482 ( 26)  0.1519 ( 27) -0.1247 ( 35) -0.1119 ( 38)  0.1144 ( 50)
           0.1277 ( 51)  0.1267 ( 58)  0.1506 ( 60)  0.1597 ( 61)  0.1519 ( 62)
          -0.1504 ( 76) -0.1741 ( 77) -0.1715 ( 78)  0.1047 ( 81)  0.1206 (122)
          -0.1332 (124) -0.1081 (129)  0.1108 (130)  0.1087 (134)  0.1498 (135)
          -0.1650 (140) -0.1421 (141)
 CRD 57=   0.1207 (  2) -0.1240 (  4)  0.2122 ( 11) -0.1165 ( 13) -0.1472 ( 17)
          -0.2171 ( 18)  0.1449 ( 19)  0.1313 ( 22)  0.1775 ( 34)  0.1203 ( 37)
          -0.1243 ( 45) -0.1327 ( 48) -0.1372 ( 49) -0.1231 ( 56)  0.1085 ( 81)
           0.2606 ( 98) -0.1796 ( 99)  0.1048 (106)  0.1042 (114)  0.1853 (115)
           0.1955 (118) -0.1235 (121) -0.1333 (122) -0.1023 (123)  0.1031 (126)
           0.1001 (127)  0.1023 (133) -0.3359 (140) -0.2549 (141)
 CRD 58=  -0.1018 (  1)  0.1566 (  3)  0.2057 (  4) -0.1634 (  7) -0.2168 ( 10)
          -0.1006 ( 11)  0.3466 ( 22) -0.1666 ( 26) -0.1785 ( 27) -0.1248 ( 29)
          -0.1031 ( 30)  0.1456 ( 40)  0.1181 ( 41)  0.1240 ( 43)  0.1307 ( 44)
           0.1043 ( 53)  0.1123 ( 56) -0.1181 ( 59) -0.1222 ( 60) -0.1145 ( 61)
          -0.1195 ( 62)  0.2126 ( 76) -0.1021 (100) -0.1257 (118) -0.1481 (120)
           0.1884 (122) -0.1169 (128)  0.1444 (144) -0.1410 (145)
 CRD 59=   0.2426 (  1) -0.1513 (  2) -0.1214 (  3)  0.1868 (  5) -0.2564 (  6)
          -0.1106 (  8)  0.1638 (  9) -0.1032 ( 10)  0.1174 ( 12) -0.1692 ( 13)
           0.1155 ( 21)  0.1224 ( 22) -0.1507 ( 26) -0.1009 ( 30)  0.1425 ( 51)
           0.1067 ( 54) -0.1208 ( 56) -0.1566 ( 94)  0.1135 (100)  0.2145 (118)
           0.1198 (119)  0.1676 (120) -0.2302 (124) -0.1383 (125) -0.1739 (126)
          -0.1094 (133) -0.1237 (135) -0.1568 (145)
 CRD 60=   0.1939 ( 15) -0.1869 ( 16)  0.1036 ( 17) -0.2751 ( 20)  0.2410 ( 21)
          -0.1724 ( 26)  0.2310 ( 27) -0.1034 ( 53) -0.1446 ( 77)  0.1566 ( 78)
           0.1475 (103) -0.1226 (128) -0.1243 (129) -0.1436 (130) -0.1453 (131)
           0.2185 (136)  0.2176 (137)  0.2016 (138)  0.2008 (139) -0.2011 (142)
          -0.2434 (144) -0.1506 (145) -0.1930 (147)
 CRD 61=   0.1014 (  3) -0.1175 ( 11) -0.1933 ( 12)  0.3639 ( 17) -0.2588 ( 24)
           0.1058 ( 45)  0.1499 ( 46) -0.2157 ( 58) -0.2379 ( 64) -0.1412 ( 65)
           0.1404 ( 68) -0.1007 ( 69)  0.1617 ( 72)  0.1135 ( 81) -0.1290 ( 88)
           0.1028 ( 98)  0.1320 (114) -0.1351 (119)  0.1060 (121)  0.1402 (122)
          -0.1804 (123)  0.1040 (133)  0.2386 (135) -0.2186 (141)  0.1100 (145)
 CRD 62=   0.2306 (  7) -0.3006 ( 14)  0.1609 ( 17)  0.1096 ( 20)  0.2249 ( 25)
          -0.1111 ( 26) -0.1565 ( 27)  0.1240 ( 30) -0.1313 ( 40)  0.1418 ( 53)
           0.1135 ( 54)  0.1072 ( 63) -0.1652 ( 75)  0.1951 ( 76) -0.1320 (101)
           0.1198 (102) -0.1376 (122)  0.1619 (125) -0.1116 (129)  0.1206 (138)
           0.2518 (144) -0.2372 (145) -0.1391 (146)
 CRD 63=   0.1152 (  1)  0.1923 (  2) -0.1533 (  5)  0.2278 (  8) -0.1588 ( 11)
          -0.1218 ( 13)  0.1302 ( 14) -0.1522 ( 16) -0.1004 ( 22)  0.1116 ( 26)
          -0.1211 ( 28) -0.1041 ( 29) -0.1066 ( 32)  0.1029 ( 38)  0.1160 ( 55)
           0.1775 ( 70) -0.1777 ( 71)  0.1264 ( 73)  0.1047 ( 83) -0.1249 ( 98)
          -0.1033 (105) -0.1130 (108) -0.1771 (111) -0.1630 (115) -0.1520 (116)
           0.1290 (119) -0.1373 (122)  0.1030 (126)  0.2465 (127) -0.2424 (130)
          -0.1072 (131) -0.1310 (132) -0.1226 (133)  0.1056 (140)
 CRD 64=  -0.1035 (  2)  0.1152 (  6) -0.2270 (  9)  0.1129 ( 12) -0.1541 ( 13)
           0.1897 ( 15)  0.1441 ( 19) -0.1143 ( 21)  0.1471 ( 22)  0.1079 ( 26)
          -0.1159 ( 35) -0.1152 ( 37)  0.1377 ( 71) -0.1589 ( 73) -0.1463 ( 74)
           0.1146 ( 75)  0.1291 ( 77)  0.1038 ( 82) -0.1135 (100) -0.1192 (103)
          -0.1073 (109)  0.1277 (112) -0.1076 (115) -0.1514 (117)  0.1667 (120)
           0.1757 (124)  0.1025 (126) -0.1260 (128) -0.2426 (129) -0.1006 (135)
           0.1779 (137) -0.1279 (138) -0.1197 (141) -0.1087 (143)  0.1230 (145)
 CRD 65=  -0.2777 (  2)  0.1248 (  3)  0.1012 (  5) -0.2462 (  7)  0.1711 ( 10)
           0.1270 ( 11) -0.1619 ( 16) -0.1379 ( 17)  0.1190 ( 20) -0.2163 ( 22)
           0.1198 ( 25)  0.1363 ( 32)  0.1084 ( 38)  0.1051 ( 40)  0.1552 ( 48)
          -0.1163 ( 70)  0.1592 ( 73) -0.1448 ( 75) -0.1284 ( 78) -0.1204 ( 92)
          -0.1165 (100) -0.1360 (117)  0.1934 (122) -0.1674 (130)  0.1082 (132)
          -0.1211 (135) -0.1589 (137)  0.1884 (138)  0.1222 (144)
 CRD 66=   0.2528 (  2) -0.1257 (  4)  0.1256 (  6) -0.1198 (  7) -0.1427 (  8)
           0.2016 ( 10) -0.1024 ( 11) -0.1567 ( 13)  0.1665 ( 19)  0.1241 ( 25)
          -0.1337 ( 26) -0.1601 ( 28)  0.1104 ( 44) -0.1212 ( 49)  0.1031 ( 65)
          -0.1068 ( 70)  0.1321 ( 71)  0.1071 ( 72) -0.1112 ( 74) -0.1229 ( 77)
           0.1389 ( 82) -0.1388 ( 83) -0.1135 ( 98) -0.1321 (100)  0.1005 (103)
          -0.1976 (111) -0.1034 (114) -0.2113 (115) -0.1172 (121)  0.1247 (124)
          -0.1306 (127)  0.1147 (130) -0.1604 (133)  0.1569 (134)  0.1055 (140)
          -0.1213 (145)
 CRD 67=  -0.1771 (  1)  0.1806 (  4)  0.1056 (  6)  0.1075 (  9) -0.1082 ( 10)
          -0.1959 ( 11)  0.1345 ( 12)  0.1239 ( 14) -0.1642 ( 15)  0.1232 ( 19)
           0.1587 ( 27)  0.1185 ( 46) -0.1143 ( 63)  0.2104 ( 69) -0.1101 ( 72)
          -0.1341 ( 74)  0.1098 ( 78) -0.1066 ( 80) -0.1007 ( 90)  0.1521 ( 94)
           0.1034 ( 98)  0.1344 (103) -0.1630 (106) -0.1051 (110)  0.1752 (114)
          -0.1572 (118)  0.1001 (120) -0.1274 (121)  0.1719 (123)  0.1460 (129)
           0.1161 (131) -0.1039 (135) -0.1856 (141)  0.1086 (143)  0.1026 (146)
 CRD 68=  -0.1308 (  3)  0.1774 (  4) -0.1818 ( 11)  0.1199 ( 12)  0.1093 ( 15)
           0.1377 ( 17) -0.1511 ( 22)  0.1759 ( 25) -0.1288 ( 30)  0.1115 ( 40)
          -0.1194 ( 65)  0.1179 ( 67) -0.1565 ( 72) -0.1256 ( 73) -0.1045 ( 78)
           0.1128 ( 80) -0.1340 ( 85) -0.1075 ( 96)  0.1184 (102) -0.1061 (105)
           0.1255 (114)  0.1186 (119)  0.1580 (123) -0.2063 (125)  0.1705 (126)
          -0.1695 (134)  0.1752 (136) -0.1472 (139) -0.1427 (142)  0.1595 (147)
 CRD 69=   0.1387 (  4) -0.2419 (  7)  0.2717 ( 10) -0.2790 ( 14)  0.2406 ( 22)
           0.1425 ( 35)  0.1389 ( 38) -0.1654 ( 41) -0.1564 ( 43) -0.1281 ( 50)
          -0.1334 ( 51)  0.1035 ( 53)  0.1066 ( 54)  0.1698 ( 59)  0.1629 ( 63)
          -0.1100 ( 66) -0.1191 ( 67) -0.1096 ( 87)  0.1163 ( 89)  0.1235 ( 92)
          -0.1169 ( 93) -0.1338 (108)  0.1272 (109) -0.1012 (125)  0.2476 (128)
          -0.2393 (131) -0.2013 (136)  0.1915 (139)
 CRD 70=   0.1461 (  2) -0.1613 (  4)  0.1615 (  5) -0.1060 (  8) -0.2033 ( 11)
          -0.1698 ( 16) -0.1341 ( 25)  0.1875 ( 26)  0.1119 ( 34) -0.1103 ( 48)
          -0.1132 ( 49) -0.1269 ( 60) -0.1250 ( 66) -0.1128 ( 70) -0.1152 ( 72)
           0.1114 ( 73)  0.1460 ( 77)  0.1320 ( 79) -0.1026 ( 85) -0.1161 ( 89)
          -0.1320 ( 91) -0.1174 ( 96)  0.1151 ( 97)  0.1559 (101) -0.1090 (103)
           0.1229 (108)  0.1892 (116)  0.1470 (119) -0.1338 (120) -0.1410 (127)
          -0.1263 (128)  0.1207 (138)  0.1246 (139)  0.1855 (142) -0.2182 (146)
          -0.1418 (147)
 CRD 71=   0.1110 (  1) -0.1178 (  3)  0.1056 (  4) -0.1445 (  9)  0.1665 ( 10)
           0.1064 ( 11) -0.1086 ( 15)  0.1441 ( 17) -0.1479 ( 19)  0.1072 ( 20)
          -0.1331 ( 25)  0.1467 ( 27) -0.1197 ( 29) -0.1183 ( 37) -0.1195 ( 47)
           0.1048 ( 61) -0.1045 ( 62)  0.1354 ( 71)  0.1617 ( 74) -0.1005 ( 75)
           0.1088 ( 78) -0.1256 ( 82) -0.1142 ( 83) -0.1521 ( 86) -0.1477 (102)
          -0.1148 (109) -0.1631 (117)  0.1171 (120) -0.1294 (121)  0.1594 (126)
          -0.1179 (128)  0.1146 (131) -0.1586 (132) -0.1604 (134) -0.1100 (137)
           0.1166 (141)  0.1787 (142)  0.1902 (143) -0.2009 (147)
 CRD 72=   0.1275 (  1)  0.1284 (  3) -0.1461 (  4)  0.1305 (  7) -0.1085 (  9)
          -0.1985 ( 11)  0.1914 ( 18)  0.1109 ( 27)  0.1556 ( 39)  0.1002 ( 47)
           0.1136 ( 56) -0.1926 ( 69) -0.1340 ( 74) -0.1003 ( 79) -0.1298 ( 81)
           0.1093 ( 91) -0.1066 ( 94) -0.1797 ( 99) -0.1002 (102)  0.1604 (106)
           0.1075 (110)  0.1000 (111)  0.2718 (114) -0.1702 (116)  0.2084 (119)
          -0.2175 (120)  0.1479 (121) -0.1060 (133) -0.1504 (141)  0.1560 (143)
 CRD 73=   0.1785 (  4) -0.1069 (  5) -0.1324 (  6)  0.1155 (  7) -0.1499 ( 14)
          -0.1040 ( 17)  0.1027 ( 19)  0.1519 ( 21) -0.1051 ( 25)  0.1022 ( 26)
          -0.1391 ( 31) -0.1090 ( 34)  0.1588 ( 52)  0.1182 ( 61)  0.1779 ( 70)
          -0.1771 ( 75)  0.1398 ( 86) -0.1035 ( 92) -0.1090 ( 97)  0.1284 (101)
           0.1332 (104)  0.1100 (107)  0.1542 (117) -0.1464 (119)  0.1304 (121)
          -0.1982 (125)  0.1487 (126)  0.1240 (132)  0.1410 (134)  0.1805 (136)
          -0.1453 (139)  0.2067 (142) -0.1711 (146) -0.2063 (147)
 CRD 74=  -0.1207 (  4) -0.1268 (  7)  0.1361 (  8) -0.1779 ( 10) -0.1761 ( 14)
           0.1196 ( 15)  0.1141 ( 16)  0.1276 ( 20)  0.1698 ( 36)  0.1810 ( 42)
           0.1485 ( 52) -0.1026 ( 70) -0.1563 ( 71) -0.1722 ( 73) -0.1398 ( 75)
           0.1141 ( 81)  0.1178 ( 83)  0.1388 ( 89) -0.1007 ( 92) -0.1062 (104)
          -0.1062 (108)  0.1014 (109) -0.1257 (110)  0.1407 (112)  0.1831 (125)
          -0.1639 (126)  0.2025 (128) -0.2255 (131)  0.1065 (133) -0.1043 (134)
           0.1868 (136) -0.2095 (139)  0.1426 (142)  0.1318 (143) -0.1380 (147)
 CRD 75=   0.1573 (  2) -0.1442 ( 13)  0.1908 ( 18) -0.1654 ( 19) -0.1711 ( 33)
           0.1355 ( 45) -0.1463 ( 46)  0.1204 ( 64) -0.1264 ( 65)  0.1598 ( 72)
           0.1802 ( 84) -0.2925 ( 99)  0.2734 (110) -0.1019 (113)  0.2312 (114)
           0.1992 (115)  0.1294 (120)  0.1087 (128) -0.2260 (132) -0.2566 (133)
          -0.1127 (146)
 CRD 76=  -0.1638 (  2)  0.1144 (  3) -0.1607 (  5)  0.1092 (  6)  0.1140 ( 12)
          -0.1364 ( 20)  0.1332 ( 21)  0.1260 ( 30)  0.1520 ( 39) -0.1069 ( 40)
           0.1003 ( 67) -0.1321 ( 69) -0.1652 ( 80)  0.1198 ( 81) -0.1715 ( 83)
          -0.1694 ( 90)  0.2329 ( 96) -0.1398 ( 97)  0.1682 (101)  0.1688 (102)
           0.1129 (104) -0.1401 (107) -0.1123 (110) -0.1680 (112) -0.1627 (113)
          -0.2005 (116) -0.1273 (117)  0.1292 (119) -0.1189 (134) -0.1695 (143)
          -0.1665 (146)
 CRD 77=  -0.1603 (  1)  0.1544 (  3)  0.1439 ( 12) -0.1675 ( 13) -0.1305 ( 28)
          -0.1110 ( 31)  0.1354 ( 32) -0.1070 ( 34)  0.1144 ( 37) -0.1002 ( 47)
           0.1298 ( 48) -0.1419 ( 49)  0.1110 ( 55) -0.1084 ( 56)  0.2165 ( 81)
           0.2106 ( 84)  0.2416 ( 85)  0.2225 ( 88) -0.1906 ( 95) -0.2230 ( 97)
          -0.2346 (106) -0.2370 (107)  0.1762 (117)  0.1670 (121) -0.1810 (132)
          -0.1604 (134)
 CRD 78=  -0.1099 (  6)  0.1371 (  8) -0.1453 (  9) -0.1387 ( 15)  0.1373 ( 16)
          -0.1049 ( 35)  0.1121 ( 38) -0.1203 ( 41)  0.1215 ( 43) -0.1129 ( 44)
           0.1207 ( 50) -0.1235 ( 51)  0.1046 ( 59) -0.1047 ( 63)  0.1816 ( 80)
           0.1730 ( 83)  0.2232 ( 87)  0.2216 ( 89)  0.2092 ( 92)  0.2095 ( 93)
          -0.1778 ( 95) -0.1443 ( 96)  0.1450 (101)  0.1444 (102) -0.2177 (104)
          -0.2161 (105) -0.2148 (108) -0.2203 (109) -0.1637 (112) -0.1624 (113)
           0.1036 (116)  0.1262 (117)

 THE DETERMINANT OF THE G MATRIX IS 10**(   -31)


                     --------------------
                     INTERNAL COORDINATES
                     --------------------

                 - - ATOMS - -         COORDINATE      COORDINATE
 NO.   TYPE    I  J  K  L  M  N        (BOHR,RAD)       (ANG,DEG)
 ----------------------------------------------------------------
   1 STRETCH   1 12                     2.0951491       1.1087052
   2 STRETCH   1  4                     2.8756001       1.5217021
   3 STRETCH   1 11                     2.0934951       1.1078300
   4 STRETCH   1  2                     2.8747907       1.5212738
   5 STRETCH   2 13                     2.0931037       1.1076229
   6 STRETCH   2 14                     2.0954492       1.1088640
   7 STRETCH   2  3                     2.8747393       1.5212466
   8 STRETCH   3 15                     2.1065393       1.1147327
   9 STRETCH   3 16                     2.0943821       1.1082994
  10 STRETCH   3  5                     2.8698110       1.5186387
  11 STRETCH   4  6                     2.8680393       1.5177012
  12 STRETCH   4 17                     2.1061259       1.1145139
  13 STRETCH   4 18                     2.0959359       1.1091216
  14 STRETCH   5  7                     2.8731304       1.5203952
  15 STRETCH   5 20                     2.0955466       1.1089156
  16 STRETCH   5 19                     2.0953376       1.1088050
  17 STRETCH   6  8                     2.8533876       1.5099478
  18 STRETCH   6 22                     2.0943867       1.1083018
  19 STRETCH   6 21                     2.0949874       1.1086197
  20 STRETCH   7 24                     2.0942532       1.1082312
  21 STRETCH   7 23                     2.0947822       1.1085111
  22 STRETCH   7  9                     2.8569430       1.5118292
  23 STRETCH   8 25                     2.0845644       1.1031040
  24 STRETCH   8 10                     2.2859214       1.2096576
  25 STRETCH   9 28                     2.0740417       1.0975357
  26 STRETCH   9 27                     2.0748792       1.0979788
  27 STRETCH   9 26                     2.0754716       1.0982924
  28 BEND      1  4 17                  1.8916852     108.3855804
  29 BEND      1  2 14                  1.9179175     109.8885786
  30 BEND      1  2 13                  1.9156512     109.7587267
  31 BEND      1  2  3                  1.9442550     111.3976032
  32 BEND      1  4 18                  1.9200140     110.0086977
  33 BEND      1  4  6                  1.9623944     112.4369149
  34 BEND      2  1 11                  1.9180243     109.8946995
  35 BEND      2  3 15                  1.8995128     108.8340673
  36 BEND      2  3  5                  1.9485554     111.6440002
  37 BEND      2  1 12                  1.9178540     109.8849372
  38 BEND      2  3 16                  1.9201695     110.0176094
  39 BEND      2  1  4                  1.9427968     111.3140562
  40 BEND      3  2 14                  1.9212610     110.0801450
  41 BEND      3  5 19                  1.9175659     109.8684308
  42 BEND      3  5  7                  1.9439797     111.3818314
  43 BEND      3  5 20                  1.9217246     110.1067078
  44 BEND      3  2 13                  1.9186089     109.9281951
  45 BEND      4  6 21                  1.9278773     110.4592342
  46 BEND      4  6 22                  1.9176673     109.8742441
  47 BEND      4  6  8                  1.9516511     111.8213684
  48 BEND      4  1 12                  1.9210416     110.0675749
  49 BEND      4  1 11                  1.9175860     109.8695873
  50 BEND      5  3 16                  1.9216438     110.1020790
  51 BEND      5  3 15                  1.9307513     110.6239014
  52 BEND      5  7  9                  1.9459989     111.4975236
  53 BEND      5  7 23                  1.9158587     109.7706198
  54 BEND      5  7 24                  1.9182312     109.9065492
  55 BEND      6  4 18                  1.9253718     110.3156810
  56 BEND      6  4 17                  1.9200909     110.0131045
  57 BEND      6  8 10                  2.1460473     122.9594533
  58 BEND      6  8 25                  2.0414839     116.9684125
  59 BEND      7  5 20                  1.9178687     109.8857842
  60 BEND      7  9 27                  1.9487051     111.6525783
  61 BEND      7  9 28                  1.9425356     111.2990900
  62 BEND      7  9 26                  1.9485987     111.6464816
  63 BEND      7  5 19                  1.9191401     109.9586277
  64 BEND      8  6 21                  1.9422711     111.2839374
  65 BEND      8  6 22                  1.8761155     107.4934980
  66 BEND      9  7 23                  1.9199729     110.0063434
  67 BEND      9  7 24                  1.9196102     109.9855639
  68 BEND     10  8 25                  2.0955976     120.0688994
  69 BEND     11  1 12                  1.8440586     105.6567777
  70 BEND     13  2 14                  1.8435489     105.6275706
  71 BEND     15  3 16                  1.8400761     105.4285971
  72 BEND     17  4 18                  1.8400333     105.4261439
  73 BEND     19  5 20                  1.8408673     105.4739255
  74 BEND     21  6 22                  1.8443995     105.6763079
  75 BEND     23  7 24                  1.8413645     105.5024126
  76 BEND     26  9 27                  1.8715667     107.2328758
  77 BEND     26  9 28                  1.8739636     107.3702073
  78 BEND     27  9 28                  1.8744335     107.3971292
  79 TORSION   1  2  3  5               3.0206913     173.0728629
  80 TORSION   1  2  3 15               0.8845121      50.6788128
  81 TORSION   1  4  6 21              -0.9256283     -53.0345950
  82 TORSION   1  4  6 22              -2.9537160    -169.2354586
  83 TORSION   1  2  3 16              -1.1235082     -64.3722809
  84 TORSION   1  4  6  8               1.2476775      71.4866568
  85 TORSION   2  1  4 17               0.8781700      50.3154326
  86 TORSION   2  1  4  6               3.0045352     172.1471845
  87 TORSION   2  3  5 19               1.0196128      58.4195105
  88 TORSION   2  1  4 18              -1.1253467     -64.4776179
  89 TORSION   2  3  5 20              -1.0005434     -57.3269126
  90 TORSION   2  3  5  7              -3.1326878    -179.4897876
  91 TORSION   3  5  7  9              -3.1365705    -179.7122544
  92 TORSION   3  5  7 23               1.0144953      58.1263015
  93 TORSION   3  5  7 24              -1.0032682     -57.4830329
  94 TORSION   3  2  1 11               2.9960236     171.6595057
  95 TORSION   3  2  1  4              -1.1587232     -66.3899473
  96 TORSION   3  2  1 12               0.9739735      55.8045686
  97 TORSION   4  1  2 14               0.9752785      55.8793437
  98 TORSION   4  6  8 10              -2.5827109    -147.9784335
  99 TORSION   4  6  8 25               0.5703130      32.6765298
 100 TORSION   4  1  2 13               2.9953818     171.6227325
 101 TORSION   5  7  9 26              -1.0394875     -59.5582492
 102 TORSION   5  7  9 27               1.0554665      60.4737771
 103 TORSION   5  7  9 28              -3.1332681    -179.5230393
 104 TORSION   5  3  2 14               0.8886194      50.9141385
 105 TORSION   5  3  2 13              -1.1351259     -65.0379247
 106 TORSION   6  4  1 11              -1.1499575     -65.8877111
 107 TORSION   6  4  1 12               0.8736827      50.0583309
 108 TORSION   7  5  3 16               1.0123558      58.0037149
 109 TORSION   7  5  3 15              -1.0145231     -58.1278933
 110 TORSION   8  6  4 18              -0.9026297     -51.7168746
 111 TORSION   8  6  4 17              -2.9253693    -167.6113151
 112 TORSION   9  7  5 19              -1.0065962     -57.6737123
 113 TORSION   9  7  5 20               1.0122445      57.9973397
 114 TORSION  10  8  6 21              -0.4174535     -23.9183221
 115 TORSION  10  8  6 22               1.5943187      91.3477332
 116 TORSION  11  1  2 14              -1.1531600     -66.0712032
 117 TORSION  11  1  2 13               0.8669432      49.6721855
 118 TORSION  11  1  4 17               3.0068626     172.2805370
 119 TORSION  11  1  4 18               1.0033459      57.4874866
 120 TORSION  12  1  4 17              -1.2526825     -71.7734210
 121 TORSION  12  1  2 13              -1.1551069     -66.1827516
 122 TORSION  12  1  2 14               3.1079752     178.0738596
 123 TORSION  12  1  4 18               3.0269861     173.4335285
 124 TORSION  13  2  3 15               3.0118802     172.5680252
 125 TORSION  13  2  3 16               1.0038598      57.5169315
 126 TORSION  14  2  3 15              -1.2475598     -71.4799116
 127 TORSION  14  2  3 16               3.0276051     173.4689947
 128 TORSION  15  3  5 20               1.1176213      64.0349817
 129 TORSION  15  3  5 19               3.1377774     179.7814048
 130 TORSION  16  3  5 20              -3.1386851    -179.8334100
 131 TORSION  16  3  5 19              -1.1185289     -64.0869869
 132 TORSION  17  4  6 22              -0.8435775     -48.3334304
 133 TORSION  17  4  6 21               1.1845102      67.8674332
 134 TORSION  18  4  6 22               1.1791621      67.5610101
 135 TORSION  18  4  6 21              -3.0759356    -176.2381263
 136 TORSION  19  5  7 24               1.1267062      64.5555092
 137 TORSION  19  5  7 23              -3.1387156    -179.8351564
 138 TORSION  20  5  7 24              -3.1376384    -179.7734388
 139 TORSION  20  5  7 23              -1.1198749     -64.1641044
 140 TORSION  21  6  8 25               2.7355704     156.7366412
 141 TORSION  22  6  8 25              -1.5358427     -87.9973034
 142 TORSION  23  7  9 26               1.0902586      62.4672168
 143 TORSION  23  7  9 28              -1.0035220     -57.4975733
 144 TORSION  23  7  9 27              -3.0979726    -177.5007569
 145 TORSION  24  7  9 26               3.1111899     178.2580527
 146 TORSION  24  7  9 28               1.0174094      58.2932625
 147 TORSION  24  7  9 27              -1.0770413     -61.7099210

     ------------------------------------------
     THE POINT GROUP IS C1 , NAXIS= 1, ORDER= 1
     ------------------------------------------

     DIMENSIONS OF THE SYMMETRY SUBSPACES ARE
 A   =  298

 ..... DONE SETTING UP THE RUN .....
 STEP CPU TIME =     0.03 TOTAL CPU TIME =        0.0 (    0.0 MIN)
 TOTAL WALL CLOCK TIME=        0.0 SECONDS, CPU UTILIZATION IS  75.00%


          -----------------------------
          STATIONARY POINT LOCATION RUN
          -----------------------------

 OBTAINING INITIAL HESSIAN, HESS=GUESS   
 DIAGONAL GUESS HESSIAN IN INTERNAL COORDS IS
     1  0.3340     2  0.3731     3  0.3346     4  0.3735     5  0.3347
     6  0.3339     7  0.3735     8  0.3301     9  0.3343    10  0.3754
    11  0.3761    12  0.3302    13  0.3337    14  0.3741    15  0.3339
    16  0.3339    17  0.3818    18  0.3343    19  0.3341    20  0.3343
    21  0.3341    22  0.3804    23  0.3377    24  0.5527    25  0.3413
    26  0.3410    27  0.3408    28  0.2231    29  0.2235    30  0.2235
    31  0.2497    32  0.2234    33  0.2499    34  0.2235    35  0.2231
    36  0.2499    37  0.2235    38  0.2235    39  0.2497    40  0.2235
    41  0.2236    42  0.2500    43  0.2236    44  0.2236    45  0.2237
    46  0.2237    47  0.2508    48  0.2235    49  0.2235    50  0.2237
    51  0.2233    52  0.2505    53  0.2235    54  0.2236    55  0.2237
    56  0.2234    57  0.2601    58  0.2245    59  0.2235    60  0.2247
    61  0.2247    62  0.2247    63  0.2235    64  0.2242    65  0.2242
    66  0.2241    67  0.2241    68  0.2318    69  0.2016    70  0.2016
    71  0.2013    72  0.2012    73  0.2015    74  0.2016    75  0.2016
    76  0.2026    77  0.2026    78  0.2026    79  0.2500    80  0.2500
    81  0.2500    82  0.2500    83  0.2500    84  0.2500    85  0.2500
    86  0.2500    87  0.2500    88  0.2500    89  0.2500    90  0.2500
    91  0.2500    92  0.2500    93  0.2500    94  0.2500    95  0.2500
    96  0.2500    97  0.2500    98  0.2500    99  0.2500   100  0.2500
   101  0.2500   102  0.2500   103  0.2500   104  0.2500   105  0.2500
   106  0.2500   107  0.2500   108  0.2500   109  0.2500   110  0.2500
   111  0.2500   112  0.2500   113  0.2500   114  0.2500   115  0.2500
   116  0.2500   117  0.2500   118  0.2500   119  0.2500   120  0.2500
   121  0.2500   122  0.2500   123  0.2500   124  0.2500   125  0.2500
   126  0.2500   127  0.2500   128  0.2500   129  0.2500   130  0.2500
   131  0.2500   132  0.2500   133  0.2500   134  0.2500   135  0.2500
   136  0.2500   137  0.2500   138  0.2500   139  0.2500   140  0.2500
   141  0.2500   142  0.2500   143  0.2500   144  0.2500   145  0.2500
   146  0.2500   147  0.2500
 TRANSFORMING HESSIAN TO SYMMETRY COORDINATES

          PARAMETERS CONTROLLING GEOMETRY SEARCH ARE
          METHOD =QA                  UPHESS =BFGS    
          NNEG   =         0          NFRZ   =         3
          NSTEP  =        50          IFOLOW =         1
          HESS   =GUESS               RESTAR =         F
          IHREP  =         0          HSSEND =         F
          NPRT   =         0          NPUN   =         0
          OPTTOL = 5.000E-04          RMIN   = 1.500E-03
          RMAX   = 1.000E-01          RLIM   = 7.000E-02
          DXMAX  = 3.000E-01          PURIFY =         F
          MOVIE  =         F          TRUPD  =         T
          TRMAX  = 5.000E-01          TRMIN  = 5.000E-02
          ITBMAT =         5          STPT   =         F
          STSTEP = 1.000E-02          PROJCT=          F
          FROZEN COORD(S)=   1   2   3


      ***** EQUILIBRIUM GEOMETRY LOCATED *****
            (SUBJECT TO   3 CONSTRAINT(S))
 COORDINATES OF ALL ATOMS ARE (ANGS)
   ATOM   CHARGE       X              Y              Z
 ------------------------------------------------------------
 C           6.0   4.0794140530   1.7365181223   2.5657443566
 C           6.0   3.0226185928   2.3982971902   3.4545819916
 C           6.0   2.8193693891   1.6549097970   4.7738857296
 C           6.0   5.4793495107   1.7156759328   3.1878185862
 C           6.0   1.8865443084   2.3427970844   5.7650260489
 C           6.0   6.5054789834   0.9828078292   2.3222891091
 C           6.0   1.9319642116   1.6660966241   7.1343946388
 C           6.0   6.7910739783   1.7045632636   1.0386251399
 C           6.0   1.0542096813   2.3448672922   8.1807809679
 O           8.0   6.9030670352   1.1825354554  -0.0266489466
 H           1.0   4.1153907998   2.2545475587   1.6086546329
 H           1.0   3.7731068228   0.7136586782   2.3493136177
 H           1.0   2.0806160190   2.4465698892   2.9112031531
 H           1.0   3.3156635794   3.4282226226   3.6563165515
 H           1.0   3.7788126548   1.5280404599   5.2634917982
 H           1.0   2.4495237560   0.6516703955   4.5631219439
 H           1.0   5.4566970290   1.2227955234   4.1510026850
 H           1.0   5.8149135762   2.7351624672   3.3715389160
 H           1.0   0.8659837948   2.3465882752   5.3834725863
 H           1.0   2.1814491621   3.3862970515   5.8729339822
 H           1.0   6.1842425656  -0.0291309083   2.0983440423
 H           1.0   7.4528174650   0.9211630919   2.8562961416
 H           1.0   2.9637251568   1.6584439698   7.4823300889
 H           1.0   1.6376089138   0.6229655862   7.0289541432
 H           1.0   6.9095420990   2.7896390462   1.1313921270
 H           1.0   1.3434407901   3.3851046555   8.3101949859
 H           1.0   0.0077702107   2.3235206879   7.8874654307
 H           1.0   1.1432378264   1.8514506508   9.1444443645


                     --------------------
                     INTERNAL COORDINATES
                     --------------------

                 - - ATOMS - -         COORDINATE      COORDINATE
 NO.   TYPE    I  J  K  L  M  N        (BOHR,RAD)       (ANG,DEG)
 ----------------------------------------------------------------
   1 STRETCH   1 12                     2.0587676       1.0894530
   2 STRETCH   1  4                     2.8951873       1.5320672
   3 STRETCH   1 11                     2.0576934       1.0888845
   4 STRETCH   1  2                     2.8936886       1.5312741
   5 STRETCH   2 13                     2.0570773       1.0885585
   6 STRETCH   2 14                     2.0591239       1.0896415
   7 STRETCH   2  3                     2.8873241       1.5279062
   8 STRETCH   3 15                     2.0495830       1.0845927
   9 STRETCH   3 16                     2.0594515       1.0898149
  10 STRETCH   3  5                     2.8818852       1.5250281
  11 STRETCH   4  6                     2.8902175       1.5294374
  12 STRETCH   4 17                     2.0450711       1.0822051
  13 STRETCH   4 18                     2.0577278       1.0889027
  14 STRETCH   5  7                     2.8877318       1.5281220
  15 STRETCH   5 20                     2.0592856       1.0897271
  16 STRETCH   5 19                     2.0589700       1.0895601
  17 STRETCH   6  8                     2.8347708       1.5000962
  18 STRETCH   6 22                     2.0583391       1.0892262
  19 STRETCH   6 21                     2.0504739       1.0850642
  20 STRETCH   7 24                     2.0578805       1.0889835
  21 STRETCH   7 23                     2.0576750       1.0888748
  22 STRETCH   7  9                     2.8821307       1.5251580
  23 STRETCH   8 25                     2.0701169       1.0954587
  24 STRETCH   8 10                     2.2517609       1.1915806
  25 STRETCH   9 28                     2.0527967       1.0862933
  26 STRETCH   9 27                     2.0540941       1.0869799
  27 STRETCH   9 26                     2.0549381       1.0874265
  28 BEND      1  4 17                  1.9267125     110.3924946
  29 BEND      1  2 14                  1.9074717     109.2900790
  30 BEND      1  2 13                  1.9035454     109.0651148
  31 BEND      1  2  3                  1.9635596     112.5036768
  32 BEND      1  4 18                  1.9149068     109.7160783
  33 BEND      1  4  6                  1.9712044     112.9416923
  34 BEND      2  1 11                  1.9043443     109.1108938
  35 BEND      2  3 15                  1.9060675     109.2096214
  36 BEND      2  3  5                  2.0076503     115.0298909
  37 BEND      2  1 12                  1.9039595     109.0888426
  38 BEND      2  3 16                  1.9029107     109.0287520
  39 BEND      2  1  4                  1.9832014     113.6290683
  40 BEND      3  2 14                  1.9132394     109.6205437
  41 BEND      3  5 19                  1.9250774     110.2988116
  42 BEND      3  5  7                  1.9438611     111.3750355
  43 BEND      3  5 20                  1.9078983     109.3145212
  44 BEND      3  2 13                  1.9150373     109.7235576
  45 BEND      4  6 21                  1.9444856     111.4108193
  46 BEND      4  6 22                  1.9104865     109.4628114
  47 BEND      4  6  8                  1.9621574     112.4233380
  48 BEND      4  1 12                  1.9015960     108.9534250
  49 BEND      4  1 11                  1.9104623     109.4614271
  50 BEND      5  3 16                  1.9106405     109.4716375
  51 BEND      5  3 15                  1.8759871     107.4861446
  52 BEND      5  7  9                  1.9829900     113.6169603
  53 BEND      5  7 23                  1.8940112     108.5188485
  54 BEND      5  7 24                  1.9064493     109.2314990
  55 BEND      6  4 18                  1.9149011     109.7157514
  56 BEND      6  4 17                  1.8749461     107.4265004
  57 BEND      6  8 10                  2.1798888     124.8984263
  58 BEND      6  8 25                  2.0094301     115.1318630
  59 BEND      7  5 20                  1.9042061     109.1029716
  60 BEND      7  9 27                  1.9392533     111.1110277
  61 BEND      7  9 28                  1.9383305     111.0581587
  62 BEND      7  9 26                  1.9329747     110.7512946
  63 BEND      7  5 19                  1.9211086     110.0714136
  64 BEND      8  6 21                  1.9054762     109.1757417
  65 BEND      8  6 22                  1.8558137     106.3302953
  66 BEND      9  7 23                  1.9062831     109.2219759
  67 BEND      9  7 24                  1.9147122     109.7049281
  68 BEND     10  8 25                  2.0938031     119.9660824
  69 BEND     11  1 12                  1.8559841     106.3400548
  70 BEND     13  2 14                  1.8579568     106.4530824
  71 BEND     15  3 16                  1.8544101     106.2498712
  72 BEND     17  4 18                  1.8573966     106.4209882
  73 BEND     19  5 20                  1.8596250     106.5486635
  74 BEND     21  6 22                  1.8816710     107.8118073
  75 BEND     23  7 24                  1.8549360     106.2800063
  76 BEND     26  9 27                  1.8827913     107.8759946
  77 BEND     26  9 28                  1.8829788     107.8867388
  78 BEND     27  9 28                  1.8853176     108.0207401
  79 TORSION   1  2  3  5               3.0356060     173.9274120
  80 TORSION   1  2  3 15               0.9251246      53.0057348
  81 TORSION   1  4  6 21              -0.9710300     -55.6359216
  82 TORSION   1  4  6 22              -3.0505330    -174.7826686
  83 TORSION   1  2  3 16              -1.0941809     -62.6919492
  84 TORSION   1  4  6  8               1.1743414      67.2848078
  85 TORSION   2  1  4 17               0.9862155      56.5059842
  86 TORSION   2  1  4  6               3.0855835     176.7909144
  87 TORSION   2  3  5 19               1.1767739      67.4241794
  88 TORSION   2  1  4 18              -1.0553802     -60.4688339
  89 TORSION   2  3  5 20              -0.8624008     -49.4119255
  90 TORSION   2  3  5  7              -2.9678890    -170.0475134
  91 TORSION   3  5  7  9               3.1053440     177.9231052
  92 TORSION   3  5  7 23               0.9813560      56.2275590
  93 TORSION   3  5  7 24              -1.0338951     -59.2378269
  94 TORSION   3  2  1 11               3.0529925     174.9235835
  95 TORSION   3  2  1  4              -1.0931570     -62.6332808
  96 TORSION   3  2  1 12               1.0321787      59.1394836
  97 TORSION   4  1  2 14               1.0363415      59.3779918
  98 TORSION   4  6  8 10              -2.4031618    -137.6910315
  99 TORSION   4  6  8 25               0.7505867      43.0054516
 100 TORSION   4  1  2 13               3.0610134     175.3831488
 101 TORSION   5  7  9 26              -1.0164549     -58.2385744
 102 TORSION   5  7  9 27               1.0758105      61.6394037
 103 TORSION   5  7  9 28              -3.1083487    -178.0952609
 104 TORSION   5  3  2 14               0.9093785      52.1035521
 105 TORSION   5  3  2 13              -1.1250903     -64.4629268
 106 TORSION   6  4  1 11              -1.0639463     -60.9596326
 107 TORSION   6  4  1 12               0.9589343      54.9428870
 108 TORSION   7  5  3 16               1.1660132      66.8076364
 109 TORSION   7  5  3 15              -0.8410570     -48.1890175
 110 TORSION   8  6  4 18              -0.9678833     -55.4556261
 111 TORSION   8  6  4 17              -2.9801053    -170.7474537
 112 TORSION   9  7  5 19              -1.0370369     -59.4178354
 113 TORSION   9  7  5 20               0.9976890      57.1633714
 114 TORSION  10  8  6 21              -0.2360313     -13.5235993
 115 TORSION  10  8  6 22               1.7896600     102.5399665
 116 TORSION  11  1  2 14              -1.1006944     -63.0651438
 117 TORSION  11  1  2 13               0.9239775      52.9400132
 118 TORSION  11  1  4 17               3.1198709     178.7554372
 119 TORSION  11  1  4 18               1.0782752      61.7806191
 120 TORSION  12  1  4 17              -1.1404338     -65.3420432
 121 TORSION  12  1  2 13              -1.0968362     -62.8440867
 122 TORSION  12  1  2 14              -3.1215082    -178.8492438
 123 TORSION  12  1  4 18               3.1011558     177.6831387
 124 TORSION  13  2  3 15               3.0476136     174.6153961
 125 TORSION  13  2  3 16               1.0283081      58.9177121
 126 TORSION  14  2  3 15              -1.2011029     -68.8181250
 127 TORSION  14  2  3 16               3.0627769     175.4841910
 128 TORSION  15  3  5 20               1.2644312      72.4465705
 129 TORSION  15  3  5 19              -2.9795794    -170.7173247
 130 TORSION  16  3  5 20              -3.0116839    -172.5567757
 131 TORSION  16  3  5 19              -0.9725092     -55.7206708
 132 TORSION  17  4  6 22              -0.9217944     -52.8149302
 133 TORSION  17  4  6 21               1.1577086      66.3318168
 134 TORSION  18  4  6 22               1.0904276      62.4768975
 135 TORSION  18  4  6 21              -3.1132547    -178.3763556
 136 TORSION  19  5  7 24               1.1069093      63.4212325
 137 TORSION  19  5  7 23               3.1221605     178.8866184
 138 TORSION  20  5  7 24              -3.1415501    -179.9975608
 139 TORSION  20  5  7 23              -1.1262989     -64.5321749
 140 TORSION  21  6  8 25               2.9177172     167.1728837
 141 TORSION  22  6  8 25              -1.3397767     -76.7635505
 142 TORSION  23  7  9 26               1.1006880      63.0647792
 143 TORSION  23  7  9 28              -0.9912058     -56.7919073
 144 TORSION  23  7  9 27              -3.0902318    -177.0572427
 145 TORSION  24  7  9 26               3.1273325     179.1829525
 146 TORSION  24  7  9 28               1.0354387      59.3262659
 147 TORSION  24  7  9 27              -1.0635874     -60.9390694

          INTERNUCLEAR DISTANCES (ANGS.)


 =====================================================
   GAMESS/COSab RESULTS
 =====================================================

   Dielectric Constant                  = INFTY
   Basic Grid Size                      =                 1082
   Number of Segments                   =                   92
   Number of Segments located on spheres=                  353
   Number of Segments of the cavity     =                  965
   Solvent Radius (rsolv)               = 1.40
   Outlying Charge Error Method         = double cavity

 =====================================================

  Total solvated Energy (a.u.)          =  -426.2713429156
  Total Energy corrected (a.u.)         =  -426.2708802632

  Outlying charge effect (a.u.)         =     0.0004626525
  Outlying charge effect (kcal/mol)     =     0.2903190454

  Dielectric Energy (a.u.)              =    -0.0134850942
  Dielectric energy corr. (a.u.)        =    -0.0130224418

  Sum of polarization charges           =     0.0301138625
  Sum of polarization charges(cor.)     =    -0.0301138625

  Total surface area of cavity (A**2)   =  215.47
  Total volume of cavity (A**3)         =  214.20

 =====================================================
 NPS=                   965
NR.  ATOM  (X, Y, Z)(a.u.)                  CHARGE(e)  AREA(A**2) SIGMA(e/A**2)
   1   1   5.700356   1.877968   1.971102   0.001506   0.371649   0.004052
   2   1   6.283744   2.539755   1.427621   0.001103   0.278737   0.003956
   3   1   8.261274   6.864660   3.780620   0.000151   0.139368   0.001084
   4   1   6.992957   1.637324   1.521665   0.001767   0.371649   0.004754
   5   1   5.124776   2.630477   2.168571   0.000916   0.325193   0.002818
   6   1   4.743012   1.874327   2.975834   0.000604   0.232280   0.002600
   7   1   5.206980   3.573167   2.030886   0.000631   0.278737   0.002263
   8   1   8.800321   6.719748   3.720739  -0.000053   0.046456  -0.001131
   9   2   4.892451   7.681717   4.606562   0.001429   0.325193   0.004396
  10   2   3.923287   7.281796   4.650898   0.001322   0.278737   0.004742
  11   2   2.834852   6.982574   6.572674   0.000401   0.139368   0.002875
  12   2   3.494377   1.995867   4.815260   0.000254   0.139368   0.001824
  13   2   3.598309   7.664020   6.618038   0.001421   0.278737   0.005099
  14   2   4.178837   7.842993   5.542313   0.001478   0.278737   0.005304
  15   2   5.088073   7.194045   3.918765   0.001078   0.325193   0.003314
  16   2   6.159793   7.519755   4.257157   0.000661   0.232280   0.002844
  17   2   4.652178   6.474514   3.464178   0.000768   0.278737   0.002756
  18   2   3.350317   7.405064   5.854976   0.000946   0.185824   0.005090
  19   2   3.212013   1.977413   5.300118   0.000096   0.046456   0.002058
  20   3   6.962601  -0.280242   9.003571   0.000702   0.139368   0.005039
  21   3   2.147710   1.921171   7.373218   0.000204   0.092912   0.002196
  22   3   2.089937   1.550066   7.875658   0.000090   0.046456   0.001930
  23   3   7.441178   0.056480   9.644214   0.000361   0.092912   0.003886
  24   3   7.796020   5.699074  10.277669   0.000056   0.046456   0.001199
  25   3   6.326320  -0.111348  10.694157   0.000860   0.185824   0.004627
  26   3   6.818005  -0.222456   9.939300   0.001923   0.325193   0.005912
  27   3   2.378141   1.698629   7.139201   0.000112   0.046456   0.002405
  28   3   6.994360   0.225137  10.777553   0.000534   0.139368   0.003832
  29   3   7.821249   5.461672  10.639334   0.000053   0.046456   0.001143
  30   4  13.121189   3.902997   8.512639   0.000419   0.232280   0.001803
  31   4  10.512857   5.408279   9.117185   0.000552   0.185824   0.002971
  32   4  10.850194   4.561529   9.530931   0.000256   0.092912   0.002760
  33   4  12.825718   3.013395   8.874518   0.000404   0.325193   0.001241
  34   4   9.313810  -0.212841   7.148518  -0.000079   0.092912  -0.000851
  35   4  12.577019   4.489710   8.814831   0.000943   0.278737   0.003384
  36   4  11.436531   4.900362   9.243390   0.001188   0.278737   0.004263
  37   4  13.311744   4.710244   7.863530   0.000392   0.278737   0.001406
  38   4  12.005644   4.196408   9.287127   0.000950   0.278737   0.003409
  39   4   9.702155  -0.292609   7.192092  -0.000013   0.046456  -0.000290
  40   5   2.144928   7.537075   9.282947   0.001658   0.325193   0.005099
  41   5   6.768514   6.032349  12.096714   0.000191   0.092912   0.002053
  42   5   1.415116   7.050429   9.226691   0.001464   0.278737   0.005251
  43   5   0.510466   6.608209  11.338398   0.000131   0.046456   0.002830
  44   5   1.167726   1.769763   9.679894   0.000321   0.139368   0.002301
  45   5   1.382516   7.487185  11.291345   0.001181   0.232280   0.005086
  46   5   1.517957   7.554561  10.334303   0.001962   0.325193   0.006034
[...]
 706  23   5.732095   2.664940  16.638319   0.000016   0.028293   0.000575
 707   7   5.973914   5.517671  15.308334   0.000050   0.028293   0.001762
 708   9   5.656283   5.714049  15.636739   0.000095   0.028293   0.003352
 709  23   6.198941   5.313063  15.312120   0.000011   0.028293   0.000384
 710   7   0.418550   1.174986  13.462749   0.000039   0.027713   0.001394
 711   9   0.165294   1.421686  13.812443   0.000066   0.027713   0.002382
 712  24   0.566785   0.910766  13.435403   0.000017   0.027713   0.000608
 713   7   2.527658   0.346686  15.769272   0.000050   0.027713   0.001791
 714   9   2.246928   0.604176  16.088921   0.000098   0.027713   0.003548
 715  24   2.486892   0.156692  15.535234   0.000012   0.027713   0.000448
 716   7   5.464329   6.177378  15.110600   0.000041   0.026248   0.001554
 717   9   5.211488   6.424782  15.460039   0.000019   0.026248   0.000728
 718  26   5.061612   6.685618  15.499382  -0.000023   0.026248  -0.000882
 719   7  -0.007141   1.838566  13.337302   0.000040   0.025724   0.001549
 720   9  -0.325572   2.033966  13.665405   0.000016   0.025724   0.000610
 721  27  -0.556669   2.229401  13.682885  -0.000020   0.025724  -0.000792
 722   7   2.718053   0.704551  16.358574   0.000090   0.025744   0.003488
 723   9   2.429548   0.887541  16.719837   0.000028   0.025744   0.001092
 724  28   2.442821   0.981404  17.007449  -0.000006   0.025744  -0.000243
 725   7   4.984638   2.523014  17.080267   0.000049   0.025744   0.001896
 726   9   4.726694   2.730524  17.451261   0.000021   0.025744   0.000824
 727  28   4.533491   2.658732  17.673130  -0.000005   0.025744  -0.000211
 728   9   2.244981   0.744593  16.481996   0.000146   0.061666   0.002374
 729   7   2.715500   0.443373  16.033117   0.000192   0.061666   0.003117
 730   9   4.894018   2.801480  17.369845   0.000068   0.028739   0.002372
 731   7   5.322651   2.513326  16.877354   0.000073   0.028739   0.002531
 732   9   5.426292   6.111889  15.668913   0.000213   0.090697   0.002345
 733   7   5.803817   5.867239  15.105328   0.000195   0.090697   0.002152
 734   9  -0.193476   1.779496  13.765179   0.000176   0.079203   0.002225
 735   7   0.245320   1.398833  13.341223   0.000177   0.079203   0.002229
 736   7   6.872061   1.107861  12.980780   0.000114   0.083779   0.001356
 737  15   7.361576   1.292653  12.194310   0.000126   0.083779   0.001501
 738  23   7.064106   1.286883  13.140046  -0.000063   0.083779  -0.000755
 739  15   7.564084   1.021706  11.684580   0.000068   0.108883   0.000622
 740   7   6.730783   0.734060  12.768503   0.000507   0.153904   0.003292
 741   7   0.057742   2.501906  12.254780   0.000152   0.168628   0.000900
 742  19  -0.070975   2.904285  11.624800   0.000000   0.168628   0.000003
 743  27  -0.433721   2.894839  12.684397  -0.000022   0.168628  -0.000132
 744  19   0.142234   2.524677  10.820121  -0.000113   0.150484  -0.000752
 745   7   0.319494   2.016459  11.814784   0.000419   0.212090   0.001977
 746   7   5.334048   6.564482  14.082757   0.000111   0.167313   0.000663
 747  20   5.241235   7.007897  13.480337  -0.000002   0.167313  -0.000011
 748  26   4.886507   7.006861  14.509522  -0.000107   0.167313  -0.000640
 749  20   5.742698   7.024450  12.911258  -0.000150   0.140994  -0.001062
 750   7   5.984450   6.258536  13.696428   0.000387   0.198798   0.001946
 751  23   6.075873   2.291611  16.393149  -0.000049   0.075235  -0.000657
 752  23   6.329523   1.407094  15.621557  -0.000185   0.169990  -0.001088
 753  23   6.775670   1.058866  14.290921  -0.000154   0.169990  -0.000904
 754   7   5.778673   1.776096  16.208693  -0.000066   0.162261  -0.000409
 755   7   6.201239   0.861872  14.935552   0.000255   0.162261   0.001573
 756   7   6.624280   0.826168  13.680299   0.000195   0.091916   0.002123
 757  23   6.860032   5.243972  14.132683  -0.000066   0.068565  -0.000956
 758  23   6.586455   5.236263  14.943768  -0.000065   0.068565  -0.000950
 759   7   6.404897   5.484643  14.433172  -0.000164   0.150796  -0.001087
 760  24   0.719807   0.651842  12.963630  -0.000059   0.074313  -0.000793
 761  24   1.016947   0.656604  12.087023  -0.000073   0.074313  -0.000982
 762   7   0.745351   1.044769  12.485746  -0.000170   0.160728  -0.001055
 763  24   4.840965  -0.512116  12.973922   0.000034   0.079229   0.000435
 764  24   4.483728  -0.533345  14.181222  -0.000185   0.181406  -0.001018
 765  24   3.329900  -0.303717  15.130563  -0.000403   0.181406  -0.002219
 766   7   5.071570  -0.280944  13.523828   0.000125   0.168839   0.000743
 767   7   4.230084  -0.192102  14.994026   0.000067   0.168839   0.000395
 768   7   3.012906   0.089960  15.601493   0.000106   0.096796   0.001096
 769  26   4.962655   6.975234  15.348178  -0.000161   0.126313  -0.001276
 770   7   5.573865   6.337308  14.642007   0.000332   0.178039   0.001862
 771  27  -0.764354   2.591345  13.341238  -0.000255   0.159136  -0.001605
 772   7   0.012773   1.903239  12.878138   0.000450   0.224217   0.002008
 773  28   2.769300   1.082039  17.315112  -0.000212   0.200878  -0.001056
 774  28   3.900762   1.898799  17.683768  -0.001080   0.411189  -0.002627
 775   7   3.754988   0.952718  16.572712   0.000827   0.550176   0.001504
 776   7   4.959707   2.002157  16.948657   0.000698   0.282912   0.002466
 777   8   9.760441   3.902525  -0.186131  -0.000239   0.063446  -0.003762
 778  10   9.927581   3.675168  -0.459419   0.000157   0.063446   0.002470
 779  11   8.936518   4.043652   0.372760  -0.000584   0.063446  -0.009203
 780  10  10.480583   3.900425  -1.129874   0.001119   0.146662   0.007628
 781  10  11.926238   4.821401  -1.429190   0.003534   0.312553   0.011308
 782  10  14.028597   4.951926  -1.272111   0.003902   0.312553   0.012485
 783  10  15.684864   3.852003  -0.558970   0.003116   0.312553   0.009968
 784  10  16.144347   2.020167   0.387006   0.002231   0.312553   0.007138
 785  10  15.565826   0.523330   1.059685   0.001169   0.146662   0.007974
 786   8  10.880031   4.609681  -0.821133   0.001250   0.304785   0.004101
 787   8  12.918918   5.399413  -0.993763   0.001910   0.304785   0.006267
 788   8  14.991272   4.864927  -0.513959   0.001828   0.304785   0.005998
 789   8  16.157812   3.248474   0.400811   0.001278   0.304785   0.004194
 790   8  15.889810   1.282701   1.335933   0.000786   0.304785   0.002578
 791   8  10.529703   6.230529   1.443015  -0.000704   0.070060  -0.010052
 792  11   9.595398   6.100396   1.794810  -0.000704   0.070060  -0.010042
 793  25  10.755883   6.407720   1.554875  -0.000697   0.070060  -0.009948
 794  11   8.842485   6.057310   1.526935  -0.001290   0.238411  -0.005409
 795  11   8.474082   5.051090   0.768502  -0.003322   0.481040  -0.006906
 796   8  10.073929   5.665414   0.654141  -0.003286   0.668297  -0.004916
 797   8   9.659420   4.439808  -0.109041  -0.000844   0.338785  -0.002492
 798   8  14.061330   5.772219   4.569205  -0.001010   0.088792  -0.011378
 799  18  13.456211   5.963016   5.321763  -0.000752   0.088792  -0.008464
 800  25  13.978856   6.029589   4.416434  -0.001047   0.088792  -0.011787
 801  18  13.438301   5.946410   5.968842  -0.000235   0.076050  -0.003084
 802   8  14.255360   5.646880   4.804487  -0.000168   0.107871  -0.001559
 803  22  16.183303   1.367603   4.114936  -0.001340   0.177242  -0.007562
 804  22  16.200704   2.602375   4.640780  -0.003610   0.362001  -0.009973
 805  22  15.671712   3.653487   5.286389  -0.001350   0.177242  -0.007616
 806   8  16.246290   2.225820   3.302542  -0.004098   0.487324  -0.008410
 807   8  15.880566   3.859940   4.139984  -0.004234   0.487324  -0.008688
 808  25  14.529953   6.132005   3.903540  -0.000941   0.073338  -0.012831
 809  25  15.146045   6.148949   2.918568  -0.001582   0.163945  -0.009650
 810  25  15.147420   6.268229   1.521603  -0.001561   0.163945  -0.009520
 811  25  14.269946   6.456128   0.444349  -0.001479   0.163945  -0.009021
 812  25  12.906128   6.628597   0.168675  -0.001585   0.163945  -0.009669
 813  25  11.666017   6.708488   0.817893  -0.001606   0.163945  -0.009794
 814   8  14.961240   5.759702   3.670871  -0.001871   0.159818  -0.011709
 815   8  15.486144   5.829166   2.188022  -0.001530   0.159818  -0.009575
 816   8  14.964149   6.012188   0.713840  -0.001328   0.159818  -0.008307
 817   8  13.628749   6.226902  -0.092258  -0.001315   0.159818  -0.008228
 818   8  12.077283   6.377262   0.130306  -0.001343   0.159818  -0.008404
 819   8  11.087467   6.415717   0.944548  -0.000717   0.089598  -0.008000
 820   9  -0.261860   6.129495  12.847925   0.000117   0.089070   0.001312
 821  19  -0.086293   5.900204  11.876420   0.000236   0.089070   0.002652
 822  27  -0.507111   5.956365  12.908592  -0.000092   0.089070  -0.001032
 823  19  -0.040999   6.107043  11.277114   0.000068   0.035694   0.001901
 824   9  -0.204425   6.394928  12.735970   0.000231   0.050784   0.004554
 825   9   1.728845   7.740022  13.515525   0.000097   0.088794   0.001092
 826  20   2.300290   7.829347  12.698970   0.000203   0.088794   0.002288
 827  26   1.904466   7.903743  13.706133  -0.000020   0.088794  -0.000229
 828  20   2.347109   8.019296  12.115885   0.000025   0.019172   0.001313
 829   9   1.556962   7.807720  13.345424   0.000137   0.027240   0.005039
 830  23   6.380395   4.966615  15.619575  -0.000162   0.217813  -0.000743
 831  23   6.174809   3.614740  16.386115  -0.001209   0.448828  -0.002694
 832   9   5.552378   4.977871  16.557100   0.000936   0.593894   0.001576
 833   9   5.240458   3.377695  17.276955   0.000734   0.306865   0.002391
 834  24   2.120911   0.009057  15.247038  -0.000153   0.214049  -0.000717
 835  24   1.058196   0.356394  14.189524  -0.001027   0.440320  -0.002333
 836   9   1.190510   0.749095  15.630096   0.000974   0.584245   0.001668
 837   9   0.105340   1.239043  14.348014   0.000789   0.301526   0.002615
 838  26   1.472962   8.102299  14.291017  -0.000042   0.067482  -0.000620
 839  26   0.938481   8.133180  15.237382  -0.000113   0.148989  -0.000756
 840  26   0.926161   7.974083  16.543797  -0.000217   0.148989  -0.001456
 841  26   1.671978   7.638429  17.574952  -0.000249   0.148989  -0.001672
 842  26   2.882411   7.258317  17.925027  -0.000160   0.148989  -0.001072
 843  26   4.081086   6.983343  17.456250  -0.000195   0.148989  -0.001311
 844  26   4.796258   6.921725  16.353110  -0.000342   0.148989  -0.002293
 845   9   0.951262   7.875926  14.454538   0.000160   0.148734   0.001074
 846   9   0.490997   7.829171  15.859092   0.000118   0.148734   0.000791
 847   9   0.924974   7.536449  17.242126  -0.000016   0.148734  -0.000106
 848   9   2.082398   7.112963  18.059336   0.000048   0.148734   0.000320
 849   9   3.507757   6.725379  17.989106   0.000116   0.148734   0.000778
 850   9   4.640093   6.526233  17.059075  -0.000095   0.148734  -0.000637
 851   9   5.095529   6.537725  15.948771   0.000015   0.082444   0.000182
 852  27  -0.931959   2.286483  14.059831  -0.000078   0.067910  -0.001142
 853  27  -1.228017   2.341210  15.112090  -0.000222   0.150166  -0.001476
 854  27  -1.540849   3.066124  16.175401  -0.000179   0.150166  -0.001194
 855  27  -1.686500   4.310596  16.604435  -0.000179   0.150166  -0.001194
 856  27  -1.606825   5.577830  16.227919  -0.000248   0.150166  -0.001651
 857  27  -1.333632   6.361943  15.196161  -0.000109   0.150166  -0.000728
 858  27  -0.975979   6.349916  13.921039  -0.000222   0.150166  -0.001480
 859   9  -0.714253   2.024344  14.545627  -0.000140   0.149452  -0.000935
 860   9  -1.109744   2.403802  15.928994   0.000081   0.149452   0.000543
 861   9  -1.381206   3.569850  16.812592   0.000095   0.149452   0.000636
 862   9  -1.420270   5.056999  16.843687   0.000004   0.149452   0.000027
 863   9  -1.211342   6.271576  16.009866   0.000025   0.149452   0.000164
 864   9  -0.837826   6.728718  14.643992   0.000152   0.149452   0.001016
 865   9  -0.513951   6.483124  13.506385   0.000155   0.082967   0.001869
 866  28   4.399798   2.934278  18.117440  -0.000088   0.069194  -0.001274
 867  28   4.111567   3.881965  18.629308  -0.000278   0.153667  -0.001810
 868  28   3.145382   4.679378  19.126867  -0.000149   0.153667  -0.000972
 869  28   1.810393   4.763444  19.293248  -0.000265   0.153667  -0.001725
 870  28   0.661008   4.099252  19.059355  -0.000283   0.153667  -0.001842
 871  28   0.174553   2.962634  18.522321  -0.000195   0.153667  -0.001267
 872  28   0.553050   1.825615  17.905170  -0.000230   0.153667  -0.001494
 873  28   1.639312   1.160389  17.464200  -0.000319   0.153667  -0.002076
 874   9   4.546582   3.506019  18.018985  -0.000137   0.151643  -0.000905
 875   9   3.856949   4.679035  18.683312   0.000124   0.151643   0.000820
 876   9   2.491601   5.202040  19.077245   0.000110   0.151643   0.000723
 877   9   1.017556   4.857836  19.037188  -0.000059   0.151643  -0.000389
 878   9   0.046968   3.789368  18.579776  -0.000049   0.151643  -0.000321
 879   9  -0.017086   2.440359  17.894968   0.000079   0.151643   0.000519
 880   9   0.851994   1.371039  17.267157  -0.000048   0.151643  -0.000317
 881   9   1.967174   0.956911  16.952084   0.000007   0.084536   0.000083
 882  11   8.220186   3.940408   0.369545  -0.000619   0.261266  -0.002369
 883  11   8.030325   3.152383   0.562473  -0.000230   0.261266  -0.000879
 884  10   9.619565   2.915072  -0.642110   0.002401   0.673034   0.003568
 885  10  10.160746   0.346793   1.266685   0.000292   0.332601   0.000879
 886  12   8.937888   0.266194   2.313619  -0.000631   0.332601  -0.001896
 887  21   9.906581  -0.140038   2.088520  -0.001662   0.332601  -0.004997
 888  12   8.072332   0.302825   2.028797   0.000264   0.150075   0.001762
 889  10   9.914093   0.378203   0.489765   0.000996   0.200975   0.004957
 890  21  10.439389  -0.733335   1.783547  -0.000493   0.257426  -0.001916
 891  21  11.625850  -1.377887   1.817373  -0.001328   0.519080  -0.002559
 892  21  12.919640  -1.499791   2.185516  -0.000318   0.257426  -0.001237
 893  10  11.163223  -0.497740   0.489012   0.007132   0.632465   0.011277
 894  10  12.856805  -1.021097   0.763488   0.007862   0.632465   0.012431
 895  13   4.183593   5.204797   2.898186   0.000284   0.125195   0.002266
 896  11   5.384628   5.018540   2.101774   0.000241   0.125195   0.001928
 897  25  10.820050   6.796119   1.901434  -0.001440   0.374963  -0.003839
 898  11   9.135510   6.517401   2.372777  -0.000611   0.374963  -0.001630
 899  16   3.950762   0.161064   6.251626   0.000098   0.244731   0.000399
 900  16   4.680919  -0.538254   6.668585  -0.000225   0.489287  -0.000460
 901  16   5.816286  -0.744057   7.341629   0.000196   0.489287   0.000400
 902  12   5.010988  -0.089595   5.068282  -0.000335   0.489287  -0.000685
 903  12   6.031981  -0.714425   5.661210  -0.000324   0.489287  -0.000663
 904  12   6.968646  -0.657170   6.222822   0.000159   0.244731   0.000650
 905  21   9.683213  -1.382450   5.151891  -0.000358   0.247819  -0.001446
 906  21   9.521037  -1.537164   4.051755  -0.001532   0.495531  -0.003091
 907  21   9.548790  -1.018827   2.784309  -0.001275   0.495531  -0.002572
 908  12   8.164170  -1.022721   4.887884  -0.000660   0.495531  -0.001333
 909  12   8.049525  -0.934676   3.525911  -0.000759   0.495531  -0.001531
 910  12   8.144635  -0.311934   2.596566  -0.000118   0.247819  -0.000476
 911  19   0.973029   5.810795   7.931409   0.000508   0.283653   0.001791
 912  19   0.647129   4.690003   7.725965   0.000115   0.566972   0.000203
 913  19   0.809068   3.516402   7.758062   0.000313   0.283653   0.001102
 914  13   1.556378   5.453090   6.339457   0.000135   0.566972   0.000238
 915  13   1.454106   4.021947   6.231330  -0.000048   0.566972  -0.000085
 916  18   9.784632   7.457236   5.618916  -0.000065   0.249205  -0.000260
 917  18   9.939291   7.569138   6.703874  -0.000715   0.498210  -0.001435
 918  18   9.925781   7.016626   7.929915  -0.000359   0.498210  -0.000720
 919  14   8.344386   7.944746   6.200564  -0.000247   0.498210  -0.000495
 920  14   8.458963   7.810112   7.533745  -0.000261   0.498210  -0.000524
 921  14   8.382359   7.167531   8.425259   0.000209   0.249205   0.000838
 922  20   6.494659   7.480901  10.528505   0.000151   0.263618   0.000573
 923  20   5.665773   8.255377  10.119021  -0.000475   0.527300  -0.000901
 924  20   4.367486   8.407835   9.457586  -0.000147   0.527300  -0.000278
 925  14   6.876944   7.828613   9.051836  -0.000319   0.527300  -0.000606
 926  14   5.708736   8.491253   8.466610  -0.000350   0.527300  -0.000663
 927  14   4.644435   8.342415   7.919205   0.000363   0.263618   0.001376
 928  17  10.480724   3.282979  10.248560  -0.000451   0.209974  -0.002148
 929  17  10.355037   2.128640  10.375732  -0.002301   0.420396  -0.005473
 930  17   9.813519   0.901289   9.895769  -0.002330   0.420396  -0.005542
 931  15   9.454365   3.023986  10.982276  -0.001964   0.420396  -0.004672
 932  15   9.139599   1.637616  10.887941  -0.001875   0.420396  -0.004460
 933  15   8.603280   0.771248  10.316770  -0.000270   0.209974  -0.001286
 934  23   7.475164   1.464210  13.294572   0.000283   0.252051   0.001122
 935  23   8.013118   2.538581  13.429047  -0.000620   0.504324  -0.001229
 936  23   7.886523   3.996576  13.296854  -0.000624   0.504324  -0.001238
 937  15   8.196165   1.782366  12.030887  -0.000583   0.504324  -0.001156
 938  15   8.562166   3.204584  12.081751  -0.000929   0.504324  -0.001842
 939  15   8.208202   4.343733  11.884774  -0.000013   0.252051  -0.000050
 940  24   1.967603  -0.000354  11.138534   0.000168   0.234256   0.000717
 941  24   2.753699  -0.640880  11.389911  -0.000158   0.468302  -0.000338
 942  24   3.956332  -0.826537  11.783736   0.000090   0.468302   0.000192
 943  16   2.741205  -0.246798   9.743717   0.000017   0.468302   0.000036
 944  16   3.830376  -0.817504  10.095700   0.000038   0.468302   0.000082
 945  16   4.821156  -0.763400  10.422560   0.000438   0.234256   0.001870
 946  22  13.881506   1.386398   8.036931  -0.000159   0.160351  -0.000994
 947  17  12.662788   1.474150   8.795429   0.000001   0.160351   0.000006
 948  25  11.579486   7.203164   3.253126  -0.001261   0.233776  -0.005393
 949  25  12.544306   7.297417   3.726868  -0.002788   0.467449  -0.005964
 950  25  13.623212   6.738089   4.240464  -0.002814   0.467449  -0.006019
 951  18  11.287818   7.233061   4.777529  -0.001277   0.467449  -0.002732
 952  18  12.466912   7.082536   5.350021  -0.001603   0.467449  -0.003429
 953  18  13.250803   6.438535   5.717403  -0.000495   0.233776  -0.002115
 954  27  -0.916045   5.803090  12.799708   0.000362   0.244537   0.001480
 955  27  -1.317015   4.822342  12.653245  -0.000114   0.488821  -0.000232
 956  27  -1.164043   3.524278  12.693718  -0.000152   0.488821  -0.000311
 957  19  -0.573922   5.454058  11.224547   0.000183   0.488821   0.000375
 958  19  -0.823860   4.174198  11.127093  -0.000106   0.488821  -0.000217
 959  19  -0.497906   3.160607  11.229474   0.000194   0.244537   0.000792
 960  26   4.720148   7.601584  14.699776   0.000066   0.253281   0.000262
 961  26   3.856420   8.266603  14.403127  -0.000476   0.506416  -0.000939
 962  26   2.557154   8.364151  13.956449  -0.000028   0.506416  -0.000056
 963  20   4.911339   7.880261  13.125079  -0.000180   0.506416  -0.000356
 964  20   3.719223   8.435422  12.715466  -0.000207   0.506416  -0.000409
 965  20   2.661912   8.273690  12.351853   0.000322   0.253281   0.001272
 =====================================================

              7886127  WORDS OF DYNAMIC MEMORY USED
 EXECUTION OF GAMESS TERMINATED NORMALLY Wed Nov 23 01:35:44 2016
 DDI: 263640 bytes (0.3 MB / 0 MWords) used by master data server.

 ----------------------------------------
 CPU timing information for all processes
 ========================================
 0: 6118.276 + 1.772 = 6120.48
 ----------------------------------------
 ddikick.x: exited gracefully.
