----- GAMESS execution script -----

          ******************************************************
          *         GAMESS VERSION =  5 DEC 2014 (R1)          *
          *             FROM IOWA STATE UNIVERSITY             *
          * M.W.SCHMIDT, K.K.BALDRIDGE, J.A.BOATZ, S.T.ELBERT, *
          *   M.S.GORDON, J.H.JENSEN, S.KOSEKI, N.MATSUNAGA,   *
          *          K.A.NGUYEN, S.J.SU, T.L.WINDUS,           *
          *       TOGETHER WITH M.DUPUIS, J.A.MONTGOMERY       *
          *         J.COMPUT.CHEM.  14, 1347-1363(1993)        *
          **************** 64 BIT LINUX VERSION ****************

 EXECUTION OF GAMESS BEGUN Wed Nov 23 00:35:40 2016

            ECHO OF THE FIRST FEW INPUT CARDS -
 INPUT CARD>! SELECT RESTRICTED HARTREE-FOCK AS DEFAULT                                     
 INPUT CARD>$contrl scftyp=rhf $end                                                         
 INPUT CARD>                                                                                
 INPUT CARD>! THEORY: HF OR DFT                                                             
 INPUT CARD> $contrl mplevl=0 $end                                                          
 INPUT CARD>                                                                                
 INPUT CARD> $system timlim=10000 mwords=20 $end                                            
 INPUT CARD> $SCF DIRSCF=.TRUE. $end                                                        
 INPUT CARD>                                                                                
 INPUT CARD>                                                                                
 INPUT CARD>! BASIS SETS                                                                    
 INPUT CARD>! 6-311G(d,p)                                                                   
 INPUT CARD> $BASIS GBASIS=N311 NGAUSS=6 NDFUNC=1 NPFUNC=1 $END                             
 INPUT CARD>                                                                                
 INPUT CARD>! One of the following                                                          
 INPUT CARD> $guess guess=HUCKEL $end                                                       
 INPUT CARD>                                                                                
 INPUT CARD> $statpt projct=.FALSE. $end                                                    
 INPUT CARD> $STATPT IFREEZ(1)=1,2,3 $END                                                   
 INPUT CARD>                                                                                
 INPUT CARD>! Optimize the geometry with COSMO effects                                      
 INPUT CARD> $statpt opttol=0.0005 nstep=50 $end                                            
 INPUT CARD> $contrl nzvar=1 $end                                                           
 INPUT CARD> $zmat dlc=.t. auto=.t. $end                                                    
 INPUT CARD> $contrl runtyp=OPTIMIZE maxit=200 $end                                         
 INPUT CARD>                                                                                
 INPUT CARD>! Run COSMO on perfect conductor                                                
 INPUT CARD> $COSGMS PRFCND=.TRUE. $end                                                     
 INPUT CARD>                                                                                
 INPUT CARD>! Specifying RSOLV                                                              
 INPUT CARD> $COSGMS COSRAD = 1.4 $end                                                      
 INPUT CARD>                                                                                
 INPUT CARD>! available memory                                                              
 INPUT CARD> $SYSTEM MWORDS=40 $END                                                         
 INPUT CARD>                                                                                
 INPUT CARD> $DATA                                                                          
 INPUT CARD>1-Octene, ID: C111660                                                           
 INPUT CARD>C1                                                                              
 INPUT CARD>C      6.0      2.9062000000    2.1930000000    2.5034000000                    
 INPUT CARD>C      6.0      2.7538000000    2.2350000000    0.9812000000                    
 INPUT CARD>C      6.0      3.6833000000    3.2741000000    0.3515000000                    
 INPUT CARD>C      6.0      1.9723000000    1.1506000000    3.1238000000                    
 INPUT CARD>C      6.0      3.5269000000    3.3073000000   -1.1691000000                    
 INPUT CARD>C      6.0      2.1167000000    1.1013000000    4.6180000000                    
 INPUT CARD>C      6.0      4.4513000000    4.3330000000   -1.8056000000                    
 INPUT CARD>C      6.0      1.1144000000    1.3296000000    5.4764000000                    
 INPUT CARD>H      1.0      2.6873000000    3.1834000000    2.9219000000                    
 INPUT CARD>H      1.0      3.9471000000    1.9589000000    2.7606000000                    
 INPUT CARD>H      1.0      1.7140000000    2.4700000000    0.7233000000                    
 INPUT CARD>H      1.0      2.9744000000    1.2451000000    0.5636000000                    
   40000000 WORDS OF MEMORY AVAILABLE

     BASIS OPTIONS
     -------------
     GBASIS=N311         IGAUSS=       6      POLAR=POPN311 
     NDFUNC=       1     NFFUNC=       0     DIFFSP=       F
     NPFUNC=       1      DIFFS=       F     BASNAM=        


     RUN TITLE
     ---------
 1-Octene, ID: C111660                                                           

 THE POINT GROUP OF THE MOLECULE IS C1      
 THE ORDER OF THE PRINCIPAL AXIS IS     0

 ATOM      ATOMIC                      COORDINATES (BOHR)
           CHARGE         X                   Y                   Z
 C           6.0     5.4919216655        4.1441690911        4.7307400377
 C           6.0     5.2039274250        4.2235375826        1.8541991392
 C           6.0     6.9604277306        6.1871518564        0.6642386847
 C           6.0     3.7271065656        2.1743187215        5.9031260404
 C           6.0     6.6648745861        6.2498907592       -2.2092786522
 C           6.0     3.9999829982        2.0811552303        8.7267546113
 C           6.0     8.4117372891        8.1881827048       -3.4120892434
 C           6.0     2.1059106407        2.5125796733       10.3488953992
 H           1.0     5.0782606468        6.0157537093        5.5215903635
 H           1.0     7.4589374461        3.7017842373        5.2167775617
 H           1.0     3.2389903430        4.6676231897        1.3668388069
 H           1.0     5.6208009779        2.3528978273        1.0650495667
 H           1.0     8.9264986482        5.7462787835        1.1506541539
 H           1.0     6.5427982873        8.0604372280        1.4471521614
 H           1.0     1.7672717437        2.5928930278        5.3723020105
 H           1.0     4.1696803919        0.2985767061        5.1413774948
 H           1.0     4.7052287368        6.7024801333       -2.7057096692
 H           1.0     7.0809922486        4.3805738121       -2.9989951425
 H           1.0     5.8566387811        1.6060781170        9.4686610341
 H           1.0     7.9808797639       10.0951051990       -2.7359452850
 H           1.0     8.1900724308        8.1717420887       -5.4686780359
 H           1.0    10.3914142339        7.7752775765       -2.9770743211
 H           1.0     2.4141249493        2.4041094016       12.3744926854
 H           1.0     0.2146728722        2.9782081566        9.7035539744

          INTERNUCLEAR DISTANCES (ANGS.)




     $CONTRL OPTIONS
     ---------------
 SCFTYP=RHF          RUNTYP=OPTIMIZE     EXETYP=RUN     
 MPLEVL=       0     CITYP =NONE         CCTYP =NONE         VBTYP =NONE    
 DFTTYP=NONE         TDDFT =NONE    
 MULT  =       1     ICHARG=       0     NZVAR =       1     COORD =UNIQUE  
 PP    =NONE         RELWFN=NONE         LOCAL =NONE         NUMGRD=       F
 ISPHER=      -1     NOSYM =       0     MAXIT =     200     UNITS =ANGS    
 PLTORB=       F     MOLPLT=       F     AIMPAC=       F     FRIEND=        
 NPRINT=       7     IREST =       0     GEOM  =INPUT   
 NORMF =       0     NORMP =       0     ITOL  =      20     ICUT  =       9
 INTTYP=BEST         GRDTYP=BEST         QMTTOL= 1.0E-06

     $SYSTEM OPTIONS
     ---------------
  REPLICATED MEMORY=    40000000 WORDS (ON EVERY NODE).
 DISTRIBUTED MEMDDI=           0 MILLION WORDS IN AGGREGATE,
 MEMDDI DISTRIBUTED OVER   1 PROCESSORS IS           0 WORDS/PROCESSOR.
 TOTAL MEMORY REQUESTED ON EACH PROCESSOR=    40000000 WORDS.
 TIMLIM=       10000.00 MINUTES, OR       6.9 DAYS.
 PARALL= F  BALTYP=  DLB     KDIAG=    0  COREFL= F
 MXSEQ2=     300 MXSEQ3=     150  mem10=         0

     $COSGMS OPTIONS
     ---------------
     EPSI  =   INFTY     NSPA  =      92     COSRAD=    1.40
     DISEX =   10.00     OUTCHG=DBLCAV       COSBUG=       F
     COSWRT=       F     DCOSMO=       F

     SYMMETRY COORDINATES WILL NOT BE USED FOR 
     THE COSMO CALCULATION, EVEN IF SPECIFIED:
         -- SWITCHING TO C1 POINT GROUP --


     DEFINITION OF CAVITY
     ---------------------------
     ATOM         COORDINATES           RADIUS 
     1    5.4919    4.1442    4.7307    2.0000
     2    5.2039    4.2235    1.8542    2.0000
     3    6.9604    6.1872    0.6642    2.0000
     4    3.7271    2.1743    5.9031    2.0000
     5    6.6649    6.2499   -2.2093    2.0000
     6    4.0000    2.0812    8.7268    2.0000
     7    8.4117    8.1882   -3.4121    2.0000
     8    2.1059    2.5126   10.3489    2.0000
     9    5.0783    6.0158    5.5216    1.3000
    10    7.4589    3.7018    5.2168    1.3000
    11    3.2390    4.6676    1.3668    1.3000
    12    5.6208    2.3529    1.0650    1.3000
    13    8.9265    5.7463    1.1507    1.3000
    14    6.5428    8.0604    1.4472    1.3000
    15    1.7673    2.5929    5.3723    1.3000
    16    4.1697    0.2986    5.1414    1.3000
    17    4.7052    6.7025   -2.7057    1.3000
    18    7.0810    4.3806   -2.9990    1.3000
    19    5.8566    1.6061    9.4687    1.3000
    20    7.9809   10.0951   -2.7359    1.3000
    21    8.1901    8.1717   -5.4687    1.3000
    22   10.3914    7.7753   -2.9771    1.3000
    23    2.4141    2.4041   12.3745    1.3000
    24    0.2147    2.9782    9.7036    1.3000

          ----------------
          PROPERTIES INPUT
          ----------------

     MOMENTS            FIELD           POTENTIAL          DENSITY
 IEMOM =       1   IEFLD =       0   IEPOT =       0   IEDEN =       0
 WHERE =COMASS     WHERE =NUCLEI     WHERE =NUCLEI     WHERE =NUCLEI  
 OUTPUT=BOTH       OUTPUT=BOTH       OUTPUT=BOTH       OUTPUT=BOTH    
 IEMINT=       0   IEFINT=       0                     IEDINT=       0
                                                       MORB  =       0
          EXTRAPOLATION IN EFFECT
          SOSCF IN EFFECT
 ORBITAL PRINTING OPTION: NPREO=     1   248     2     1

     -------------------------------
     INTEGRAL TRANSFORMATION OPTIONS
     -------------------------------
     NWORD  =            0
     CUTOFF = 1.0E-09     MPTRAN =       0
     DIRTRF =       T     AOINTS =DUP     

          ----------------------
          INTEGRAL INPUT OPTIONS
          ----------------------
 NOPK  =       1 NORDER=       0 SCHWRZ=       T


 -----------------------------------------------
  STATISTICS ON AUTOMATIC COORDINATE GENERATION 
 -----------------------------------------------
  NUMBER OF USER SPECIFIED BONDS                             0
  NUMBER OF BONDS                                           23
  NUMBER OF ANGLES                                          42
  NUMBER OF TORSIONS                                        55
  NUMBER OF EXTRA COORD.                                     0
  NUMBER OF EXTRA COORD. FOR CONSTRAINTS                     0
  NUMBER OF CONSTRAINED COORD.                               0

  TOTAL NUMBER OF PRIMITIVES                               120
 -----------------------------------------------

   --- ENCODED Z MATRIX ---
 COORD  TYPE   I   J   K   L   M   N
    1      1    1   9
    2      1    1  10
    3      1    1   2
    4      1    1   4
    5      1    2   3
    6      1    2  12
    7      1    2  11
    8      1    3  14
    9      1    3  13
   10      1    3   5
   11      1    4  15
   12      1    4  16
   13      1    4   6
   14      1    5   7
   15      1    5  18
   16      1    5  17
   17      1    6   8
   18      1    6  19
   19      1    7  22
   20      1    7  21
   21      1    7  20
   22      1    8  24
   23      1    8  23
   24      2    1   2  12
   25      2    1   2  11
   26      2    1   4   6
   27      2    1   4  16
   28      2    1   4  15
   29      2    1   2   3
   30      2    2   1  10
   31      2    2   3   5
   32      2    2   1   4
   33      2    2   1   9
   34      2    2   3  14
   35      2    2   3  13
   36      2    3   2  12
   37      2    3   5  17
   38      2    3   2  11
   39      2    3   5   7
   40      2    3   5  18
   41      2    4   6  19
   42      2    4   6   8
   43      2    4   1   9
   44      2    4   1  10
   45      2    5   3  13
   46      2    5   3  14
   47      2    5   7  20
   48      2    5   7  21
   49      2    5   7  22
   50      2    6   4  16
   51      2    6   4  15
   52      2    6   8  23
   53      2    6   8  24
   54      2    7   5  17
   55      2    7   5  18
   56      2    8   6  19
   57      2    9   1  10
   58      2   11   2  12
   59      2   13   3  14
   60      2   15   4  16
   61      2   17   5  18
   62      2   20   7  21
   63      2   20   7  22
   64      2   21   7  22
   65      2   23   8  24
   66      3    1   2   3   5
   67      3    1   2   3  13
   68      3    1   4   6  19
   69      3    1   2   3  14
   70      3    1   4   6   8
   71      3    2   3   5  18
   72      3    2   3   5   7
   73      3    2   1   4  16
   74      3    2   1   4   6
   75      3    2   1   4  15
   76      3    2   3   5  17
   77      3    3   5   7  20
   78      3    3   5   7  21
   79      3    3   5   7  22
   80      3    3   2   1   4
   81      3    3   2   1  10
   82      3    3   2   1   9
   83      3    4   1   2  11
   84      3    4   1   2  12
   85      3    4   6   8  23
   86      3    4   6   8  24
   87      3    5   3   2  11
   88      3    5   3   2  12
   89      3    6   4   1   9
   90      3    6   4   1  10
   91      3    7   5   3  13
   92      3    7   5   3  14
   93      3    8   6   4  16
   94      3    8   6   4  15
   95      3    9   1   4  15
   96      3    9   1   2  12
   97      3    9   1   4  16
   98      3    9   1   2  11
   99      3   10   1   4  16
  100      3   10   1   2  12
  101      3   10   1   2  11
  102      3   10   1   4  15
  103      3   11   2   3  13
  104      3   11   2   3  14
  105      3   12   2   3  13
  106      3   12   2   3  14
  107      3   13   3   5  17
  108      3   13   3   5  18
  109      3   14   3   5  17
  110      3   14   3   5  18
  111      3   15   4   6  19
  112      3   16   4   6  19
  113      3   17   5   7  22
  114      3   17   5   7  21
  115      3   17   5   7  20
  116      3   18   5   7  22
  117      3   18   5   7  21
  118      3   18   5   7  20
  119      3   19   6   8  24
  120      3   19   6   8  23

          INDEP./SYM. INTERNAL COORDINATES
          --------------------------------
 CRD  1=  -0.1314 ( 24) -0.1489 ( 25)  0.3102 ( 26) -0.1038 ( 27)  0.4613 ( 29)
           0.1390 ( 30) -0.3630 ( 31) -0.4139 ( 32)  0.1183 ( 33)  0.1206 ( 34)
           0.1071 ( 35) -0.1464 ( 36) -0.1303 ( 38)  0.2253 ( 39) -0.1023 ( 42)
           0.1329 ( 43)  0.1105 ( 44)  0.1103 ( 45) -0.1046 ( 51)
 CRD  2=   0.1090 (  3)  0.1219 (  4)  0.1118 (  5)  0.1144 ( 13) -0.1148 ( 24)
           0.1062 ( 29) -0.1307 ( 30)  0.1094 ( 32) -0.1049 ( 36)  0.1156 ( 39)
          -0.2094 ( 41)  0.3889 ( 42) -0.1082 ( 50) -0.1036 ( 52)  0.1126 ( 53)
          -0.1801 ( 56) -0.2544 ( 66) -0.1327 ( 67)  0.1168 ( 68) -0.1360 ( 69)
           0.1718 ( 70)  0.1550 ( 72) -0.1439 ( 73) -0.3061 ( 74) -0.1378 ( 75)
           0.2529 ( 80)  0.1163 ( 81)  0.1029 ( 82)  0.1029 ( 83)  0.1126 ( 84)
          -0.1084 ( 88) -0.1312 ( 89) -0.1492 ( 90)
 CRD  3=   0.1138 (  3)  0.4631 ( 26) -0.1866 ( 27)  0.4060 ( 31) -0.2104 ( 32)
          -0.1548 ( 35)  0.1239 ( 37) -0.3686 ( 39)  0.1403 ( 40)  0.1004 ( 41)
          -0.1290 ( 42)  0.1325 ( 43) -0.1329 ( 45) -0.1408 ( 46) -0.1225 ( 50)
          -0.1640 ( 51)  0.1215 ( 54)  0.1130 ( 70)  0.1122 ( 80)
 CRD  4=  -0.3204 (  3) -0.2646 (  4) -0.3282 (  5) -0.2544 ( 10) -0.1922 ( 13)
          -0.1815 ( 14) -0.1322 ( 17) -0.1697 ( 26) -0.1800 ( 29) -0.2194 ( 31)
          -0.2911 ( 32)  0.1142 ( 33) -0.2405 ( 39)  0.1367 ( 43)  0.1105 ( 46)
           0.1114 ( 51)  0.1293 ( 54) -0.1402 ( 66)  0.1126 ( 72) -0.1126 ( 74)
           0.1436 ( 80)
 CRD  5=   0.1144 ( 24)  0.1535 ( 28)  0.1818 ( 32) -0.1584 ( 33)  0.1472 ( 34)
          -0.1427 ( 35) -0.1232 ( 36) -0.1254 ( 37)  0.1711 ( 38)  0.2288 ( 39)
           0.1659 ( 41) -0.2979 ( 42) -0.1912 ( 44)  0.1500 ( 47) -0.1196 ( 53)
          -0.1643 ( 55)  0.1322 ( 56)  0.1142 ( 68)  0.1769 ( 71)  0.2470 ( 72)
           0.1018 ( 73)  0.1248 ( 74)  0.1464 ( 76)  0.2594 ( 80)  0.1702 ( 81)
           0.1531 ( 82)  0.1367 ( 83)  0.1250 ( 84)  0.1161 ( 92)
 CRD  6=  -0.1152 (  4)  0.1440 ( 10) -0.1517 ( 13)  0.1657 ( 14) -0.1650 ( 17)
          -0.1297 ( 24)  0.1454 ( 25) -0.1306 ( 29)  0.1874 ( 31)  0.1332 ( 33)
          -0.1417 ( 34)  0.1427 ( 36)  0.2853 ( 39) -0.1693 ( 40)  0.1377 ( 41)
          -0.3141 ( 42) -0.1472 ( 45) -0.1669 ( 53) -0.1257 ( 54)  0.1763 ( 56)
          -0.2697 ( 66) -0.1799 ( 67) -0.1194 ( 68) -0.1211 ( 69) -0.1171 ( 70)
          -0.1000 ( 73) -0.1171 ( 75) -0.1178 ( 77) -0.1028 ( 78) -0.1662 ( 87)
          -0.1176 ( 88)
 CRD  7=  -0.1801 (  5) -0.1539 ( 10)  0.1607 ( 13)  0.1074 ( 17)  0.1828 ( 24)
           0.1696 ( 25)  0.4089 ( 26) -0.1525 ( 27) -0.1174 ( 28) -0.4679 ( 29)
          -0.1061 ( 30) -0.1997 ( 31)  0.1369 ( 36) -0.1076 ( 37)  0.2519 ( 39)
          -0.1008 ( 40)  0.1084 ( 45) -0.1116 ( 48) -0.1230 ( 50) -0.1158 ( 51)
          -0.1047 ( 58)
 CRD  8=  -0.1541 (  3) -0.2051 (  4)  0.1657 ( 10)  0.1919 ( 14) -0.1095 ( 25)
          -0.1242 ( 26) -0.1201 ( 29)  0.1703 ( 30)  0.2808 ( 31) -0.3756 ( 32)
          -0.1140 ( 34) -0.1503 ( 35) -0.1279 ( 37)  0.1388 ( 38)  0.2569 ( 39)
          -0.1695 ( 41)  0.2457 ( 42)  0.1377 ( 43) -0.1237 ( 46)  0.1115 ( 49)
          -0.1289 ( 52)  0.1317 ( 53) -0.1000 ( 55)  0.1760 ( 66)  0.1278 ( 69)
           0.1434 ( 88)
 CRD  9=   0.1525 ( 13)  0.1323 ( 17)  0.1381 ( 27) -0.2413 ( 28)  0.1054 ( 34)
          -0.1273 ( 35)  0.1337 ( 42)  0.1388 ( 44)  0.2923 ( 47) -0.2728 ( 49)
           0.1422 ( 54) -0.1559 ( 55) -0.1151 ( 56) -0.2544 ( 68) -0.2957 ( 70)
           0.1372 ( 71)  0.2974 ( 72)  0.1041 ( 74)  0.1348 ( 76) -0.1223 ( 80)
          -0.1400 ( 83) -0.1421 ( 84) -0.1011 ( 86)  0.1775 ( 91)  0.1886 ( 92)
          -0.1136 ( 93) -0.1440 (119)
 CRD 10=  -0.2227 ( 13) -0.3179 ( 17)  0.1648 ( 27) -0.1025 ( 28) -0.1230 ( 30)
          -0.1847 ( 37)  0.1918 ( 40) -0.1031 ( 43)  0.1683 ( 45) -0.1685 ( 46)
          -0.2760 ( 50) -0.1049 ( 53)  0.1461 ( 65)  0.1787 ( 66) -0.1129 ( 68)
          -0.2482 ( 74) -0.1439 ( 75)  0.1801 ( 77)  0.1873 ( 78)  0.1781 ( 79)
          -0.1181 ( 85) -0.1100 ( 86)  0.1853 ( 87)  0.1695 ( 88) -0.1671 ( 89)
          -0.1797 ( 90) -0.1103 (111)
 CRD 11=  -0.2029 (  3)  0.1341 (  4)  0.1022 (  5) -0.1392 ( 10)  0.5857 ( 14)
          -0.1268 ( 31) -0.1134 ( 39)  0.1056 ( 47)  0.3976 ( 48)  0.1957 ( 54)
           0.1738 ( 55) -0.2316 ( 62) -0.1061 ( 63) -0.1987 ( 64)  0.1067 (108)
          -0.1061 (109)  0.1039 (118)
 CRD 12=   0.2387 (  3) -0.2917 (  4) -0.2975 (  5)  0.3114 ( 10)  0.2386 ( 13)
           0.1810 ( 14)  0.1082 ( 24) -0.1251 ( 28) -0.1077 ( 31) -0.1254 ( 36)
           0.1477 ( 45)  0.1098 ( 46) -0.2256 ( 47)  0.3428 ( 48)  0.1157 ( 51)
          -0.1641 ( 64) -0.1054 ( 93)  0.1010 ( 98)  0.1025 (104)
 CRD 13=   0.1632 (  5) -0.2813 ( 10)  0.2607 ( 13)  0.2405 ( 17)  0.1021 ( 18)
           0.1307 ( 23) -0.1099 ( 28)  0.1299 ( 34)  0.1386 ( 38) -0.1316 ( 46)
          -0.1941 ( 47) -0.1660 ( 48)  0.4020 ( 49)  0.1240 ( 51)  0.2611 ( 52)
          -0.1435 ( 53)  0.1370 ( 62) -0.1175 ( 65) -0.1137 ( 68) -0.1485 ( 70)
           0.1262 ( 80)  0.1155 ( 81)  0.1191 ( 82) -0.1005 ( 92) -0.1106 ( 93)
 CRD 14=  -0.1135 ( 10) -0.3904 ( 17) -0.1471 ( 23) -0.1098 ( 28)  0.1196 ( 30)
          -0.1231 ( 33) -0.1315 ( 40)  0.3098 ( 41) -0.1112 ( 47)  0.1916 ( 49)
          -0.3751 ( 52)  0.1842 ( 53)  0.1261 ( 55) -0.3575 ( 56)  0.1910 ( 65)
          -0.1172 ( 68) -0.1310 ( 70)  0.1168 ( 74)  0.1017 ( 75)
 CRD 15=   0.2604 (  3) -0.3551 (  4) -0.3362 ( 10)  0.1604 ( 13)  0.1517 ( 14)
          -0.1151 ( 17) -0.1609 ( 27)  0.1259 ( 33) -0.1113 ( 37) -0.1292 ( 38)
           0.1464 ( 41) -0.1169 ( 43)  0.3400 ( 47) -0.2070 ( 48)  0.1121 ( 50)
           0.1314 ( 54) -0.1257 ( 56) -0.1621 ( 63)  0.1111 ( 70) -0.1394 ( 81)
           0.1121 ( 94)  0.1009 (111)
 CRD 16=  -0.3232 (  3)  0.2267 (  5)  0.1212 ( 10)  0.1179 ( 11)  0.3634 ( 13)
          -0.1233 ( 14) -0.1655 ( 17) -0.1769 ( 24) -0.1274 ( 30)  0.1651 ( 36)
          -0.1007 ( 37)  0.1388 ( 40)  0.3274 ( 41) -0.1174 ( 47)  0.1426 ( 48)
          -0.1403 ( 49)  0.1519 ( 50) -0.1279 ( 55) -0.2791 ( 56)  0.1218 ( 63)
          -0.1247 ( 73)  0.1023 ( 77) -0.1015 ( 97)
 CRD 17=  -0.1263 (  2) -0.3114 (  4)  0.3655 (  5)  0.1478 (  9) -0.1171 ( 14)
          -0.1100 ( 19) -0.1564 ( 25) -0.1616 ( 28)  0.1013 ( 30)  0.1218 ( 35)
           0.1296 ( 37)  0.1478 ( 38) -0.1473 ( 40) -0.1161 ( 41) -0.1456 ( 44)
           0.1585 ( 48) -0.3139 ( 49) -0.1196 ( 50)  0.1368 ( 51)  0.1194 ( 52)
          -0.1114 ( 53) -0.1293 ( 54)  0.1259 ( 63)  0.1230 ( 67) -0.1095 ( 78)
          -0.1134 ( 79) -0.1019 ( 85) -0.1118 ( 89) -0.1153 ( 90) -0.1029 ( 92)
 CRD 18=   0.1127 (  1) -0.1084 (  3)  0.2887 (  4) -0.2796 (  5) -0.1316 (  8)
           0.1508 ( 11)  0.2205 ( 13) -0.1425 ( 17)  0.1091 ( 21) -0.1627 ( 22)
           0.1178 ( 23)  0.1411 ( 27) -0.1147 ( 33) -0.1300 ( 34)  0.1061 ( 37)
           0.1642 ( 43)  0.3045 ( 47) -0.1377 ( 48)  0.1674 ( 51)  0.1891 ( 52)
          -0.2636 ( 53) -0.1010 ( 63)  0.1030 ( 64) -0.1026 ( 72) -0.1424 ( 89)
 CRD 19=   0.1201 (  7)  0.2320 ( 30) -0.2212 ( 33) -0.2200 ( 34)  0.2293 ( 35)
          -0.2308 ( 37)  0.2182 ( 40)  0.2344 ( 43) -0.2290 ( 44) -0.1893 ( 45)
           0.1838 ( 46) -0.1042 ( 50)  0.2211 ( 54) -0.2232 ( 55) -0.1024 ( 66)
          -0.1558 ( 71)  0.1350 ( 73)  0.1277 ( 75) -0.1560 ( 76)  0.1379 ( 77)
           0.1192 ( 78)  0.1364 ( 79)  0.1482 ( 83)  0.1491 ( 84)  0.1305 ( 91)
           0.1263 ( 92)
 CRD 20=   0.2752 ( 24) -0.2882 ( 25) -0.1780 ( 30)  0.1652 ( 33) -0.2220 ( 34)
           0.2176 ( 35) -0.2832 ( 36)  0.2790 ( 38) -0.2002 ( 43)  0.1920 ( 44)
          -0.2390 ( 45)  0.2446 ( 46)  0.1032 ( 54) -0.1015 ( 55)  0.1632 ( 67)
           0.1670 ( 69) -0.1199 ( 71) -0.1190 ( 76)  0.1664 ( 81)  0.1684 ( 82)
          -0.1262 ( 83) -0.1265 ( 84) -0.1577 ( 87) -0.1523 ( 88)
 CRD 21=  -0.1893 (  1) -0.1589 (  2) -0.3790 (  3) -0.2739 (  4) -0.1226 (  6)
          -0.1193 (  7)  0.2842 ( 10)  0.1018 ( 14)  0.1243 ( 15)  0.1391 ( 16)
          -0.1207 ( 24)  0.1323 ( 26)  0.1520 ( 29)  0.2313 ( 32) -0.1327 ( 33)
           0.1100 ( 37) -0.1693 ( 39)  0.1229 ( 40)  0.1545 ( 47) -0.2562 ( 48)
           0.2070 ( 49)  0.1390 ( 57) -0.1046 ( 61) -0.1727 ( 63)
 CRD 22=   0.1182 (  2)  0.2200 (  3)  0.3027 (  5)  0.1763 (  6)  0.1581 (  7)
           0.2046 (  8)  0.1821 (  9)  0.2978 ( 10)  0.1364 ( 15)  0.1601 ( 16)
          -0.2376 ( 29) -0.2580 ( 31) -0.1578 ( 32)  0.1051 ( 34)  0.1053 ( 35)
           0.1247 ( 37)  0.1047 ( 38) -0.2158 ( 39)  0.1232 ( 40)  0.1083 ( 46)
           0.1123 ( 47) -0.1961 ( 48)  0.1568 ( 49) -0.1329 ( 58) -0.1504 ( 59)
          -0.1196 ( 61) -0.1355 ( 63)
 CRD 23=   0.1682 (  1) -0.1182 (  2)  0.1305 (  7) -0.1063 (  8)  0.1517 (  9)
           0.1234 ( 12)  0.1585 ( 15) -0.1261 ( 16)  0.1328 ( 17)  0.1515 ( 18)
          -0.1154 ( 19)  0.1255 ( 21)  0.1441 ( 22) -0.1106 ( 23)  0.1258 ( 28)
           0.2173 ( 47) -0.1856 ( 49)  0.1183 ( 50) -0.1198 ( 51) -0.1394 ( 52)
           0.2192 ( 53) -0.1117 ( 62)  0.1202 ( 64) -0.1300 ( 70) -0.1783 ( 72)
          -0.1143 ( 73) -0.1134 ( 75)  0.1713 ( 80)  0.1255 ( 83)  0.1324 ( 84)
          -0.1470 ( 86) -0.1232 ( 91) -0.1307 ( 92) -0.1782 ( 93) -0.1956 ( 94)
          -0.1487 (111) -0.1312 (112) -0.1952 (119)
 CRD 24=   0.1464 ( 17)  0.4142 ( 18)  0.1890 ( 22) -0.1703 ( 23)  0.2553 ( 27)
          -0.2648 ( 28) -0.1794 ( 42) -0.1745 ( 50)  0.2508 ( 51) -0.1570 ( 52)
           0.2594 ( 53) -0.1026 ( 65)  0.1026 ( 85)  0.2292 ( 86)  0.1995 ( 93)
           0.2222 ( 94)  0.1999 (111)  0.1772 (112)  0.2520 (119)  0.1254 (120)
 CRD 25=   0.2276 (  6) -0.2095 (  7)  0.2594 ( 11)  0.1223 ( 13) -0.2113 ( 15)
           0.2136 ( 16)  0.3702 ( 18)  0.1219 ( 22) -0.1226 ( 23)  0.1647 ( 28)
          -0.1509 ( 42)  0.1602 ( 53)  0.1174 ( 67)  0.1191 ( 69) -0.1152 ( 74)
          -0.1121 ( 78) -0.1159 ( 81) -0.1209 ( 82) -0.1751 ( 85) -0.1648 ( 86)
          -0.1223 ( 89) -0.1309 ( 90)  0.1189 ( 91)  0.1190 ( 92) -0.1345 (111)
          -0.1277 (119) -0.1380 (120)
 CRD 26=  -0.2576 (  1)  0.2943 (  2)  0.2259 (  8) -0.2222 (  9)  0.2717 ( 11)
           0.2831 ( 15) -0.2825 ( 16)  0.1184 ( 18)  0.1137 ( 28)  0.1041 ( 30)
           0.1060 ( 70)  0.1148 ( 78) -0.1240 ( 83) -0.1200 ( 84) -0.2576 ( 85)
          -0.1546 ( 86) -0.1064 ( 87) -0.1044 ( 88) -0.1176 ( 91) -0.1173 ( 92)
          -0.1975 (120)
 CRD 27=   0.1761 ( 14)  0.5074 ( 19)  0.4813 ( 20)  0.5066 ( 21) -0.1756 ( 47)
          -0.1906 ( 48) -0.1753 ( 49)  0.1918 ( 62)  0.1832 ( 63)  0.1918 ( 64)
 CRD 28=  -0.5730 ( 22) -0.5109 ( 23)  0.2536 ( 52)  0.2161 ( 53) -0.4698 ( 65)
 CRD 29=  -0.2046 (  1)  0.2317 (  2) -0.3040 (  6)  0.3132 (  7) -0.3132 (  8)
           0.3153 (  9)  0.1087 ( 11) -0.2199 ( 15)  0.2208 ( 16)  0.1315 ( 22)
           0.1389 ( 23)  0.1046 ( 65)  0.1079 ( 82) -0.2625 ( 85) -0.1299 ( 86)
           0.1041 ( 93) -0.2062 (120)
 CRD 30=  -0.1683 (  1)  0.1343 (  2) -0.1481 (  6)  0.1346 (  7) -0.1343 (  8)
           0.1303 (  9)  0.1257 ( 11) -0.3806 ( 12) -0.1004 ( 15) -0.1669 ( 27)
          -0.1288 ( 33) -0.1019 ( 36)  0.3801 ( 85)  0.1460 ( 86) -0.1345 ( 89)
          -0.1141 ( 90) -0.2150 ( 93) -0.1355 ( 94) -0.1088 ( 96) -0.1120 ( 97)
          -0.1028 ( 98) -0.1352 (112)  0.2995 (120)
 CRD 31=   0.1760 (  1) -0.1657 (  2)  0.1012 (  6) -0.1719 ( 11)  0.2934 ( 12)
           0.1286 ( 24) -0.1323 ( 25)  0.1327 ( 34) -0.1338 ( 35)  0.1044 ( 38)
           0.1366 ( 45) -0.1352 ( 46)  0.1333 ( 54) -0.1330 ( 55) -0.1043 ( 71)
          -0.1044 ( 76) -0.1428 ( 85) -0.1030 ( 87) -0.1003 ( 88)  0.1175 ( 93)
          -0.1252 ( 96) -0.1275 ( 98) -0.1348 (100) -0.1371 (101) -0.1846 (103)
          -0.1838 (104) -0.1819 (105) -0.1811 (106) -0.1809 (107) -0.1809 (108)
          -0.1801 (109) -0.1801 (110) -0.1060 (120)
 CRD 32=   0.1835 ( 15)  0.1832 ( 16)  0.2971 ( 19) -0.6343 ( 20)  0.2823 ( 21)
          -0.1619 ( 62)  0.3270 ( 63) -0.1539 ( 64) -0.1707 ( 77)  0.1677 ( 79)
           0.1497 (113) -0.1888 (115)  0.1857 (116) -0.1527 (118)
 CRD 33=  -0.5417 ( 19)  0.5509 ( 21)  0.2934 ( 62) -0.2981 ( 64) -0.2309 ( 78)
          -0.2243 (114) -0.2244 (117)
 CRD 34=   0.5968 ( 11)  0.5810 ( 12) -0.1288 ( 27) -0.1143 ( 28)  0.2800 ( 60)
          -0.1035 ( 75) -0.1657 ( 93)  0.1155 ( 94) -0.1027 ( 95) -0.1139 (102)
           0.1358 (111) -0.1454 (112)
 CRD 35=   0.2528 (  1)  0.2522 (  2) -0.3923 (  6) -0.3923 (  7)  0.3803 (  8)
           0.3804 (  9) -0.2079 ( 15) -0.2075 ( 16) -0.1292 ( 58)  0.1260 ( 59)
           0.1009 ( 96) -0.1007 (101)  0.1218 (103) -0.1219 (106)
 CRD 36=  -0.3789 (  1) -0.3780 (  2)  0.2123 (  6)  0.2124 (  7)  0.2588 (  8)
           0.2591 (  9) -0.3491 ( 15) -0.3489 ( 16) -0.1014 ( 20) -0.1425 ( 57)
          -0.1262 ( 61) -0.1087 ( 96)  0.1087 (101) -0.1073 (107)  0.1075 (110)
 CRD 37=  -0.3482 (  1) -0.3477 (  2) -0.2325 (  6) -0.2332 (  7)  0.2116 (  8)
           0.2110 (  9)  0.3654 ( 15)  0.3657 ( 16) -0.1510 ( 57)  0.1547 ( 61)
          -0.1015 (113)  0.1015 (118)
 CRD 38=  -0.2167 (  1) -0.2164 (  2)  0.1014 (  5) -0.3502 (  6) -0.3533 (  7)
          -0.3445 (  8) -0.3469 (  9) -0.2185 ( 15) -0.2186 ( 16) -0.1056 ( 57)
          -0.1695 ( 58) -0.1678 ( 59) -0.1047 ( 61) -0.1014 ( 98)  0.1045 (100)
           0.1263 (104) -0.1268 (105) -0.1018 (109)
 CRD 39=   0.1483 (  6) -0.1430 (  7)  0.1509 (  8) -0.1472 (  9)  0.2278 ( 11)
          -0.2166 ( 12)  0.1073 ( 54) -0.1079 ( 55)  0.1231 ( 73)  0.1171 ( 75)
          -0.1052 ( 77) -0.1061 ( 79)  0.1249 ( 83)  0.1219 ( 84) -0.1098 ( 91)
          -0.1093 ( 92)  0.1652 ( 95)  0.1758 ( 96)  0.1712 ( 97)  0.1789 ( 98)
           0.1753 ( 99)  0.1808 (100)  0.1838 (101)  0.1692 (102) -0.1792 (107)
          -0.1798 (108) -0.1786 (109) -0.1793 (110) -0.1554 (113) -0.1265 (114)
          -0.1546 (115) -0.1550 (116) -0.1260 (117) -0.1541 (118)
 CRD 40=  -0.2640 (  1)  0.2660 (  2)  0.1448 (  8) -0.1449 (  9) -0.2675 ( 11)
           0.2588 ( 12)  0.1242 ( 67)  0.1237 ( 69) -0.1469 ( 73) -0.1333 ( 75)
          -0.1362 ( 89) -0.1318 ( 90) -0.2172 ( 95) -0.2308 ( 97) -0.2264 ( 99)
          -0.2127 (102)  0.1585 (103)  0.1580 (104)  0.1577 (105)  0.1573 (106)
          -0.1317 (113) -0.1189 (114) -0.1314 (115) -0.1318 (116) -0.1190 (117)
          -0.1315 (118)
 CRD 41=   0.2474 (  1) -0.2474 (  2) -0.3618 (  6)  0.3620 (  7)  0.3052 (  8)
          -0.3053 (  9) -0.1392 ( 15)  0.1391 ( 16)  0.1028 ( 67)  0.1035 ( 69)
          -0.1041 ( 83) -0.1026 ( 84)  0.1157 ( 87)  0.1169 ( 88) -0.1479 ( 96)
          -0.1494 ( 98) -0.1517 (100) -0.1532 (101)  0.1795 (103)  0.1802 (104)
           0.1807 (105)  0.1814 (106)
 CRD 42=  -0.1209 (  1)  0.1208 (  2)  0.1682 (  8) -0.1683 (  9) -0.3454 ( 15)
           0.3451 ( 16) -0.1211 ( 71) -0.1207 ( 76)  0.1522 ( 77)  0.1686 ( 78)
           0.1520 ( 79) -0.1019 ( 91) -0.1027 ( 92) -0.1414 (107) -0.1418 (108)
          -0.1422 (109) -0.1426 (110)  0.2346 (113)  0.2512 (114)  0.2348 (115)
           0.2343 (116)  0.2509 (117)  0.2345 (118)
 CRD 43=   0.1084 ( 11) -0.2377 ( 13)  0.2005 ( 17)  0.4451 ( 23)  0.1665 ( 27)
           0.1148 ( 28)  0.1100 ( 30)  0.3502 ( 41) -0.1695 ( 50) -0.1337 ( 51)
           0.1494 ( 52)  0.1334 ( 53) -0.3484 ( 56) -0.2828 ( 65) -0.1442 ( 75)
          -0.1111 ( 90) -0.1123 ( 95) -0.2077 (102) -0.1071 (111)
 CRD 44=  -0.1212 ( 13)  0.1050 ( 19)  0.2090 ( 20)  0.1091 ( 21)  0.1150 ( 23)
           0.1509 ( 24)  0.1567 ( 25)  0.1671 ( 34)  0.1687 ( 35) -0.1448 ( 36)
           0.1424 ( 37) -0.1412 ( 38)  0.1442 ( 40)  0.1215 ( 43)  0.1029 ( 44)
          -0.1656 ( 45) -0.1611 ( 46)  0.1175 ( 47)  0.1563 ( 48)  0.1165 ( 49)
          -0.1787 ( 54) -0.1793 ( 55) -0.1658 ( 62) -0.1623 ( 64) -0.1237 ( 65)
          -0.1118 ( 71)  0.1081 ( 76) -0.1010 ( 92) -0.1475 ( 96)  0.1468 (101)
           0.1876 (103) -0.1759 (106)  0.2062 (107) -0.2107 (110)  0.1038 (113)
          -0.1050 (118)
 CRD 45=  -0.1381 ( 11) -0.1803 ( 13)  0.6529 ( 18) -0.5226 ( 22)  0.2564 ( 23)
           0.1218 ( 42) -0.1005 ( 51) -0.1249 ( 52)  0.1775 ( 65)  0.1021 ( 97)
           0.1031 ( 99)
 CRD 46=  -0.1450 (  5) -0.1244 ( 10)  0.2151 ( 13) -0.1643 ( 14)  0.1504 ( 19)
           0.2070 ( 20)  0.1475 ( 21) -0.2064 ( 23)  0.1159 ( 28)  0.1354 ( 30)
           0.1303 ( 33)  0.1112 ( 36) -0.1522 ( 43) -0.1276 ( 44)  0.1589 ( 47)
           0.1777 ( 48)  0.1591 ( 49) -0.1198 ( 51) -0.1036 ( 53) -0.1093 ( 54)
          -0.1103 ( 55) -0.1871 ( 62) -0.1424 ( 63) -0.1895 ( 64)  0.1545 ( 65)
          -0.1180 ( 68)  0.1306 ( 86) -0.1084 ( 94)  0.1538 ( 96)  0.1179 ( 97)
          -0.1243 (101) -0.1039 (102) -0.2071 (111)  0.2322 (119)
 CRD 47=   0.1043 (  4) -0.1289 ( 14)  0.2628 ( 68)  0.3097 ( 85) -0.3297 ( 86)
          -0.1064 (101)  0.2896 (111)  0.2595 (112) -0.5402 (119)
 CRD 48=  -0.2070 (  3) -0.1007 (  5)  0.1613 ( 13)  0.3106 ( 14)  0.2016 ( 17)
          -0.1573 ( 19) -0.1510 ( 21) -0.2432 ( 23)  0.1367 ( 27)  0.1181 ( 28)
           0.1229 ( 34)  0.1273 ( 35) -0.1402 ( 45) -0.1360 ( 46) -0.1348 ( 47)
          -0.1256 ( 48) -0.1350 ( 49) -0.1532 ( 50) -0.1281 ( 51) -0.1514 ( 53)
           0.1133 ( 62)  0.1816 ( 63)  0.1183 ( 64)  0.1798 ( 65)  0.1627 ( 85)
          -0.1037 ( 86)  0.1182 ( 93)  0.1102 ( 97) -0.1039 (102)  0.1294 (103)
          -0.1178 (106)  0.1434 (112) -0.1297 (119)  0.1367 (120)
 CRD 49=  -0.1012 (  5) -0.1877 ( 11)  0.1430 ( 12)  0.1420 ( 14) -0.5213 ( 17)
           0.2438 ( 18)  0.3643 ( 22) -0.1021 ( 41)  0.1094 ( 42)  0.2809 ( 52)
          -0.3217 ( 65)  0.1222 ( 95)  0.1435 ( 97) -0.1005 (112)
 CRD 50=   0.1565 (  4) -0.1653 (  5)  0.1089 ( 11)  0.2109 ( 14) -0.1151 ( 17)
          -0.1883 ( 18) -0.1232 ( 21) -0.2764 ( 22)  0.3644 ( 23)  0.1027 ( 37)
          -0.1882 ( 42) -0.2404 ( 52)  0.3045 ( 53)  0.2758 ( 56)  0.1434 ( 63)
           0.1230 ( 96) -0.1418 ( 99)  0.1495 (113) -0.1089 (118)
 CRD 51=   0.1151 (  1)  0.1435 (  4)  0.1104 (  9) -0.1257 ( 10) -0.1687 ( 12)
          -0.1817 ( 13)  0.1232 ( 14)  0.2072 ( 15) -0.1431 ( 16)  0.1306 ( 18)
          -0.2144 ( 21)  0.1373 ( 22) -0.1978 ( 23) -0.1029 ( 28)  0.1017 ( 36)
           0.1311 ( 37)  0.1218 ( 42)  0.1397 ( 52) -0.1844 ( 53) -0.1840 ( 56)
           0.1415 ( 60)  0.1070 ( 63) -0.1139 ( 64) -0.1103 ( 78) -0.1159 ( 85)
          -0.1042 ( 93)  0.1191 ( 94)  0.1018 (100) -0.1228 (102) -0.1177 (107)
          -0.1388 (108) -0.1113 (109) -0.1324 (110)  0.1760 (111)  0.2394 (113)
           0.1383 (115)  0.1221 (116) -0.1760 (120)
 CRD 52=   0.1010 (  3)  0.1038 (  4)  0.1479 (  8) -0.1414 (  9) -0.1387 ( 10)
          -0.1626 ( 13)  0.1124 ( 14) -0.1855 ( 15)  0.2587 ( 16)  0.1970 ( 17)
          -0.2540 ( 19)  0.1062 ( 21) -0.1200 ( 23)  0.1451 ( 40)  0.1072 ( 41)
          -0.1036 ( 53) -0.1052 ( 54) -0.1138 ( 56) -0.1497 ( 62)  0.1046 ( 63)
           0.1239 ( 64)  0.1386 ( 78) -0.1385 (103) -0.1304 (104)  0.1644 (107)
           0.1492 (108)  0.1854 (109)  0.1703 (110) -0.1584 (115) -0.1769 (116)
          -0.2807 (118) -0.1114 (120)
 CRD 53=  -0.2383 (  1)  0.2202 (  2)  0.2350 (  6) -0.2346 (  7) -0.1304 (  8)
           0.1208 (  9)  0.1202 ( 12)  0.1349 ( 17)  0.1147 ( 38)  0.1095 ( 43)
           0.1217 ( 51)  0.1602 ( 95) -0.2033 ( 96)  0.1161 ( 97) -0.2409 ( 98)
           0.1544 ( 99) -0.1824 (100) -0.2201 (101)  0.1985 (102)  0.1485 (103)
           0.1592 (104)  0.1773 (105)  0.1880 (106) -0.1040 (112)
 CRD 54=  -0.1116 (  2)  0.1269 (  3) -0.1904 (  4)  0.1299 (  5)  0.1332 (  7)
          -0.1162 (  9) -0.1724 ( 10)  0.1557 ( 12)  0.1365 ( 15)  0.2010 ( 20)
          -0.1411 ( 21)  0.1176 ( 28) -0.1218 ( 30) -0.1020 ( 33) -0.1070 ( 34)
          -0.1158 ( 35)  0.1070 ( 37)  0.1393 ( 57)  0.1267 ( 59) -0.1783 ( 60)
          -0.1709 ( 61)  0.1333 ( 63) -0.1278 ( 64) -0.1038 ( 77)  0.1006 ( 79)
           0.1055 ( 85) -0.1394 ( 89)  0.1271 ( 92)  0.1379 ( 93)  0.1128 ( 96)
          -0.1691 ( 97)  0.1707 (102) -0.1140 (106) -0.1587 (107)  0.1705 (110)
          -0.1540 (111)  0.2245 (113) -0.1246 (117) -0.1630 (118)  0.1668 (120)
 CRD 55=   0.1297 (  2) -0.2510 (  4)  0.1448 (  5) -0.1990 (  6) -0.1119 (  7)
           0.1458 (  8) -0.2341 ( 10)  0.1602 ( 13)  0.1025 ( 14) -0.1191 ( 21)
           0.1032 ( 44)  0.1229 ( 45) -0.1841 ( 57)  0.2534 ( 58) -0.1728 ( 59)
          -0.1078 ( 67)  0.1215 ( 69) -0.1313 ( 82)  0.1375 ( 83) -0.1099 ( 84)
          -0.1061 ( 87)  0.1150 ( 88) -0.2266 ( 96)  0.1222 ( 97)  0.2482 (101)
          -0.2579 (103)  0.1925 (106)
 CRD 56=   0.1145 (  1) -0.2376 (  3)  0.2339 (  5) -0.1525 (  8) -0.1750 ( 12)
           0.2194 ( 13) -0.2153 ( 14)  0.1291 ( 16) -0.1172 ( 17) -0.1178 ( 19)
           0.1675 ( 20)  0.1147 ( 25)  0.1021 ( 30) -0.1157 ( 51)  0.1047 ( 54)
          -0.1369 ( 57)  0.1471 ( 59)  0.1602 ( 60) -0.1692 ( 61) -0.1510 ( 62)
           0.1296 ( 71) -0.1035 ( 75)  0.1114 ( 89) -0.1028 ( 91)  0.1413 ( 97)
          -0.2190 (102)  0.1417 (103) -0.2053 (107)  0.1739 (110)  0.1167 (111)
           0.1100 (114) -0.1637 (118) -0.1130 (120)
 CRD 57=  -0.1546 (  2)  0.1369 (  3) -0.1543 (  4) -0.1199 (  7)  0.2081 (  9)
          -0.1006 ( 10)  0.2178 ( 11)  0.1066 ( 14) -0.1487 ( 17)  0.1444 ( 18)
          -0.1904 ( 19)  0.1682 ( 21) -0.1011 ( 24)  0.1070 ( 27) -0.1391 ( 33)
          -0.1438 ( 41)  0.1590 ( 42)  0.1336 ( 46) -0.1563 ( 51) -0.1089 ( 60)
          -0.1175 ( 62)  0.1555 ( 64) -0.1447 ( 66)  0.1738 ( 74)  0.1088 ( 76)
           0.1944 ( 78)  0.1185 ( 90)  0.1600 ( 93) -0.1361 ( 95) -0.1822 ( 97)
           0.1323 (104)  0.1751 (106) -0.1229 (110)  0.1754 (112)  0.1353 (114)
           0.1560 (117)
 CRD 58=   0.1073 (  3) -0.2070 (  4)  0.2256 ( 13)  0.1798 ( 14) -0.2054 ( 20)
          -0.1135 ( 30) -0.1086 ( 33)  0.1094 ( 37)  0.1079 ( 40)  0.1355 ( 43)
           0.1298 ( 44) -0.1264 ( 54) -0.1213 ( 55) -0.1112 ( 58)  0.1364 ( 59)
           0.1225 ( 60)  0.1009 ( 62) -0.1179 ( 63)  0.1144 ( 73) -0.1163 ( 75)
           0.1283 ( 77) -0.1217 ( 79)  0.1058 ( 81) -0.1076 ( 82) -0.1018 ( 83)
           0.1069 ( 84) -0.1044 ( 91)  0.1041 ( 92) -0.1470 ( 95) -0.2138 ( 98)
           0.1551 ( 99)  0.2084 (100) -0.1860 (108)  0.1911 (109)  0.1781 (115)
          -0.1730 (116)
 CRD 59=   0.2557 (  3) -0.1889 (  4) -0.2614 (  5)  0.2685 ( 10) -0.2115 ( 14)
          -0.1582 ( 24) -0.1508 ( 25)  0.1653 ( 34)  0.1360 ( 35)  0.1549 ( 36)
           0.1300 ( 38) -0.1708 ( 45) -0.1526 ( 46)  0.1093 ( 54)  0.1383 ( 67)
          -0.1197 ( 69)  0.1217 ( 71) -0.1483 ( 87)  0.1168 ( 88) -0.1238 ( 98)
           0.1484 (100) -0.2560 (104)  0.2671 (105)  0.1508 (108) -0.1758 (109)
 CRD 60=  -0.1116 (  1)  0.1204 (  3) -0.2079 (  5)  0.1118 (  6)  0.1300 (  8)
          -0.1273 ( 12)  0.1958 ( 13)  0.1665 ( 20) -0.1444 ( 21)  0.1138 ( 27)
          -0.1007 ( 30)  0.1144 ( 43)  0.1050 ( 47) -0.1147 ( 48) -0.1096 ( 51)
           0.1127 ( 55)  0.1071 ( 57) -0.1131 ( 58) -0.1275 ( 59)  0.1250 ( 60)
           0.1189 ( 63) -0.1173 ( 64) -0.1576 ( 75)  0.1543 ( 79)  0.1603 ( 90)
          -0.1035 ( 92) -0.2307 ( 95)  0.2308 ( 99) -0.1190 (101)  0.1049 (104)
          -0.1112 (105)  0.1182 (107)  0.1135 (108) -0.1763 (114) -0.2039 (115)
           0.2234 (116) -0.1326 (120)
 CRD 61=  -0.1814 (  7) -0.1225 (  9)  0.2066 ( 11)  0.1449 ( 16)  0.1988 ( 19)
          -0.1192 ( 21)  0.1116 ( 27) -0.1046 ( 41)  0.1176 ( 42) -0.1002 ( 44)
          -0.1357 ( 49) -0.1036 ( 51) -0.1182 ( 54)  0.1456 ( 62) -0.1314 ( 69)
          -0.1629 ( 70) -0.1840 ( 72) -0.1180 ( 73)  0.1624 ( 77) -0.1127 ( 78)
           0.1689 ( 80)  0.1441 ( 88)  0.1508 ( 89)  0.1363 ( 90) -0.1069 ( 96)
          -0.1375 (100)  0.1187 (110)  0.1707 (112) -0.1409 (114)  0.1342 (115)
          -0.2599 (117) -0.1111 (120)
 CRD 62=   0.1334 (  1)  0.1168 (  2) -0.1579 (  3) -0.1112 (  4)  0.1038 (  6)
           0.1475 ( 10)  0.1088 ( 11) -0.1124 ( 13)  0.1086 ( 14) -0.1575 ( 15)
           0.1077 ( 20) -0.1026 ( 21)  0.1013 ( 26)  0.1688 ( 32) -0.1646 ( 39)
          -0.1212 ( 48) -0.1945 ( 57) -0.1021 ( 60)  0.1924 ( 61) -0.1113 ( 71)
           0.1052 ( 76)  0.1296 ( 79)  0.1434 ( 81)  0.1588 ( 89)  0.1923 ( 95)
          -0.1955 ( 98) -0.2299 ( 99)  0.1723 (100) -0.1570 (108)  0.1919 (109)
          -0.1740 (114) -0.2132 (115)  0.2122 (116)
 CRD 63=   0.1013 (  1) -0.1608 (  3) -0.1901 (  5)  0.1402 (  6)  0.1167 (  8)
           0.1278 (  9) -0.1849 ( 10)  0.1279 ( 16)  0.1800 ( 29)  0.1932 ( 31)
           0.1220 ( 32)  0.1547 ( 39) -0.1161 ( 57) -0.1753 ( 58) -0.1882 ( 59)
          -0.1504 ( 61) -0.1425 ( 67)  0.1099 ( 71)  0.1073 ( 81) -0.1315 ( 83)
           0.1128 ( 87) -0.1147 ( 88) -0.1470 ( 92) -0.1826 ( 98) -0.1112 ( 99)
           0.1820 (100)  0.2445 (104) -0.2212 (105)  0.2230 (108) -0.2048 (109)
           0.1408 (115) -0.1449 (116) -0.1294 (117)  0.1050 (120)
 CRD 64=  -0.1726 (  2)  0.1153 (  4) -0.1025 (  7) -0.1174 ( 11) -0.1425 ( 15)
           0.1228 ( 16) -0.1167 ( 26) -0.1629 ( 66)  0.2216 ( 70)  0.1901 ( 73)
           0.1543 ( 77)  0.1675 ( 79)  0.1386 ( 82) -0.1164 ( 83) -0.1753 ( 84)
          -0.2422 ( 86) -0.1326 ( 89) -0.1720 ( 91) -0.1409 ( 92)  0.2010 ( 94)
          -0.1160 ( 95) -0.2192 (112) -0.1700 (114) -0.1528 (117)  0.2467 (120)
 CRD 65=   0.1691 ( 12)  0.1047 ( 26)  0.1003 ( 28) -0.1332 ( 50)  0.2922 ( 68)
          -0.1010 ( 70)  0.1203 ( 71)  0.1346 ( 75)  0.1175 ( 76)  0.1248 ( 77)
           0.1258 ( 79) -0.1175 ( 80)  0.3422 ( 86) -0.1114 ( 88) -0.1350 ( 89)
          -0.1755 ( 90) -0.1299 ( 91) -0.1347 ( 92) -0.1953 ( 93) -0.3398 ( 94)
           0.1979 (112) -0.1004 (117) -0.3166 (120)
 CRD 66=  -0.1180 (  1)  0.1140 (  2) -0.1427 (  6)  0.1418 (  7) -0.1322 (  8)
           0.1317 (  9)  0.1141 ( 24) -0.1128 ( 25) -0.1085 ( 30)  0.1088 ( 33)
           0.1171 ( 34) -0.1170 ( 35)  0.1186 ( 36) -0.1190 ( 38)  0.2201 ( 67)
          -0.1399 ( 68)  0.2197 ( 69)  0.1971 ( 71) -0.1701 ( 73) -0.1828 ( 75)
           0.1970 ( 76)  0.1324 ( 77)  0.1338 ( 79) -0.2193 ( 81) -0.2156 ( 82)
           0.1894 ( 83)  0.1878 ( 84) -0.2064 ( 87) -0.2059 ( 88)  0.1266 ( 89)
           0.1310 ( 90) -0.1505 ( 91) -0.1501 ( 92)

 THE DETERMINANT OF THE G MATRIX IS 10**(   -23)


                     --------------------
                     INTERNAL COORDINATES
                     --------------------

                 - - ATOMS - -         COORDINATE      COORDINATE
 NO.   TYPE    I  J  K  L  M  N        (BOHR,RAD)       (ANG,DEG)
 ----------------------------------------------------------------
   1 STRETCH   1  9                     2.0734967       1.0972473
   2 STRETCH   1 10                     2.0739064       1.0974641
   3 STRETCH   1  2                     2.8920110       1.5303864
   4 STRETCH   1  4                     2.8929866       1.5309027
   5 STRETCH   2  3                     2.8908615       1.5297781
   6 STRETCH   2 12                     2.0726393       1.0967936
   7 STRETCH   2 11                     2.0726094       1.0967778
   8 STRETCH   3 14                     2.0728159       1.0968870
   9 STRETCH   3 13                     2.0727769       1.0968664
  10 STRETCH   3  5                     2.8893580       1.5289825
  11 STRETCH   4 15                     2.0731452       1.0970613
  12 STRETCH   4 16                     2.0723273       1.0966285
  13 STRETCH   4  6                     2.8383128       1.5019705
  14 STRETCH   5  7                     2.8731965       1.5204302
  15 STRETCH   5 18                     2.0715096       1.0961957
  16 STRETCH   5 17                     2.0715918       1.0962393
  17 STRETCH   6  8                     2.5308058       1.3392448
  18 STRETCH   6 19                     2.0550655       1.0874939
  19 STRETCH   7 22                     2.0685380       1.0946232
  20 STRETCH   7 21                     2.0685655       1.0946378
  21 STRETCH   7 20                     2.0686136       1.0946633
  22 STRETCH   8 24                     2.0518420       1.0857881
  23 STRETCH   8 23                     2.0517812       1.0857559
  24 BEND      1  2 12                  1.9112459     109.5063250
  25 BEND      1  2 11                  1.9115263     109.5223866
  26 BEND      1  4  6                  1.9464229     111.5218187
  27 BEND      1  4 16                  1.9145993     109.6984586
  28 BEND      1  4 15                  1.9128788     109.5998840
  29 BEND      1  2  3                  1.9471813     111.5652679
  30 BEND      2  1 10                  1.9107135     109.4758212
  31 BEND      2  3  5                  1.9411752     111.2211470
  32 BEND      2  1  4                  1.9401593     111.1629403
  33 BEND      2  1  9                  1.9121155     109.5561487
  34 BEND      2  3 14                  1.9134313     109.6315353
  35 BEND      2  3 13                  1.9126721     109.5880372
  36 BEND      3  2 12                  1.9114622     109.5187140
  37 BEND      3  5 17                  1.9175327     109.8665290
  38 BEND      3  2 11                  1.9110318     109.4940564
  39 BEND      3  5  7                  1.9485073     111.6412439
  40 BEND      3  5 18                  1.9166452     109.8156800
  41 BEND      4  6 19                  2.0415881     116.9743823
  42 BEND      4  6  8                  2.1652964     124.0623457
  43 BEND      4  1  9                  1.9159413     109.7753522
  44 BEND      4  1 10                  1.9159835     109.7777673
  45 BEND      5  3 13                  1.9124279     109.5740456
  46 BEND      5  3 14                  1.9128278     109.5969578
  47 BEND      5  7 20                  1.9373657     111.0028765
  48 BEND      5  7 21                  1.9237757     110.2242272
  49 BEND      5  7 22                  1.9381732     111.0491460
  50 BEND      6  4 16                  1.8917140     108.3872310
  51 BEND      6  4 15                  1.9307553     110.6241321
  52 BEND      6  8 23                  2.1075424     120.7532868
  53 BEND      6  8 24                  2.1257672     121.7974916
  54 BEND      7  5 17                  1.9043745     109.1126209
  55 BEND      7  5 18                  1.9039673     109.0892935
  56 BEND      8  6 19                  2.0762039     118.9577196
  57 BEND      9  1 10                  1.8674993     106.9998263
  58 BEND     11  2 12                  1.8697650     107.1296443
  59 BEND     13  3 14                  1.8699318     107.1391979
  60 BEND     15  4 16                  1.8655695     106.8892608
  61 BEND     17  5 18                  1.8711047     107.2064003
  62 BEND     20  7 21                  1.8859613     108.0576203
  63 BEND     20  7 22                  1.8908387     108.3370746
  64 BEND     21  7 22                  1.8860440     108.0623610
  65 BEND     23  8 24                  2.0498745     117.4491554
  66 TORSION   1  2  3  5               3.1394148     179.8752161
  67 TORSION   1  2  3 13               1.0221798      58.5665872
  68 TORSION   1  4  6 19              -1.0481811     -60.0563526
  69 TORSION   1  2  3 14              -1.0255234     -58.7581620
  70 TORSION   1  4  6  8               2.1085671     120.8119973
  71 TORSION   2  3  5 18              -1.0230890     -58.6186796
  72 TORSION   2  3  5  7              -3.1371718    -179.7467061
  73 TORSION   2  1  4 16               1.0442958      59.8337394
  74 TORSION   2  1  4  6               3.1402402     179.9225118
  75 TORSION   2  1  4 15              -0.9989239     -57.2341230
  76 TORSION   2  3  5 17               1.0308113      59.0611345
  77 TORSION   3  5  7 20              -1.0709263     -61.3595571
  78 TORSION   3  5  7 21               3.1232957     178.9516614
  79 TORSION   3  5  7 22               1.0337093      59.2271827
  80 TORSION   3  2  1  4               3.1415857     179.9996022
  81 TORSION   3  2  1 10              -1.0218773     -58.5492579
  82 TORSION   3  2  1  9               1.0209757      58.4976005
  83 TORSION   4  1  2 11               1.0229488      58.6106490
  84 TORSION   4  1  2 12              -1.0226110     -58.5912922
  85 TORSION   4  6  8 23               3.1332896     179.5242702
  86 TORSION   4  6  8 24              -0.0066273      -0.3797167
  87 TORSION   5  3  2 11              -1.0248466     -58.7193859
  88 TORSION   5  3  2 12               1.0205516      58.4733013
  89 TORSION   6  4  1  9              -1.0245717     -58.7036347
  90 TORSION   6  4  1 10               1.0236013      58.6480337
  91 TORSION   7  5  3 13              -1.0197941     -58.4298956
  92 TORSION   7  5  3 14               1.0274137      58.8664665
  93 TORSION   8  6  4 16              -2.0652489    -118.3300473
  94 TORSION   8  6  4 15              -0.0251981      -1.4437454
  95 TORSION   9  1  4 15               1.1194495      64.1397305
  96 TORSION   9  1  2 12               3.1399644     179.9067061
  97 TORSION   9  1  4 16              -3.1205162    -178.7924071
  98 TORSION   9  1  2 11              -1.0976612     -62.8913527
  99 TORSION  10  1  4 16              -1.0723432     -61.4407387
 100 TORSION  10  1  2 12               1.0971113      62.8598477
 101 TORSION  10  1  2 11              -3.1405142    -179.9382112
 102 TORSION  10  1  4 15              -3.1155628    -178.5086011
 103 TORSION  11  2  3 13               3.1411037     179.9719851
 104 TORSION  11  2  3 14               1.0934005      62.6472360
 105 TORSION  12  2  3 13              -1.0966834     -62.8353277
 106 TORSION  12  2  3 14               3.1387988     179.8399231
 107 TORSION  13  3  5 17              -3.1349963    -179.6220550
 108 TORSION  13  3  5 18               1.0942888      62.6981309
 109 TORSION  14  3  5 17              -1.0877885     -62.3256928
 110 TORSION  14  3  5 18               3.1414965     179.9944930
 111 TORSION  15  4  6 19               3.1012390     177.6879047
 112 TORSION  16  4  6 19               1.0611882      60.8016027
 113 TORSION  17  5  7 22              -3.1266477    -179.1437171
 114 TORSION  17  5  7 21              -1.0370614     -59.4192385
 115 TORSION  17  5  7 20               1.0519020      60.2695430
 116 TORSION  18  5  7 22              -1.0877268     -62.3221559
 117 TORSION  18  5  7 21               1.0018595      57.4023228
 118 TORSION  18  5  7 20               3.0908228     177.0911043
 119 TORSION  19  6  8 24              -3.1327832    -179.4952562
 120 TORSION  19  6  8 23               0.0071337       0.4087307

     ------------------------------------------
     THE POINT GROUP IS C1 , NAXIS= 1, ORDER= 1
     ------------------------------------------

     DIMENSIONS OF THE SYMMETRY SUBSPACES ARE
 A   =  248

 ..... DONE SETTING UP THE RUN .....
 STEP CPU TIME =     0.02 TOTAL CPU TIME =        0.0 (    0.0 MIN)
 TOTAL WALL CLOCK TIME=        0.0 SECONDS, CPU UTILIZATION IS  66.67%


          -----------------------------
          STATIONARY POINT LOCATION RUN
          -----------------------------

 OBTAINING INITIAL HESSIAN, HESS=GUESS   
 DIAGONAL GUESS HESSIAN IN INTERNAL COORDS IS
     1  0.3415     2  0.3414     3  0.3669     4  0.3665     5  0.3673
     6  0.3418     7  0.3418     8  0.3418     9  0.3418    10  0.3679
    11  0.3416    12  0.3419    13  0.3877    14  0.3741    15  0.3422
    16  0.3422    17  0.5320    18  0.3481    19  0.3433    20  0.3433
    21  0.3432    22  0.3492    23  0.3492    24  0.2237    25  0.2237
    26  0.2504    27  0.2236    28  0.2236    29  0.2485    30  0.2236
    31  0.2486    32  0.2484    33  0.2236    34  0.2237    35  0.2237
    36  0.2237    37  0.2238    38  0.2237    39  0.2492    40  0.2238
    41  0.2259    42  0.2646    43  0.2236    44  0.2236    45  0.2237
    46  0.2237    47  0.2244    48  0.2244    49  0.2244    50  0.2254
    51  0.2253    52  0.2362    53  0.2362    54  0.2243    55  0.2243
    56  0.2361    57  0.2027    58  0.2027    59  0.2027    60  0.2027
    61  0.2028    62  0.2029    63  0.2029    64  0.2029    65  0.2038
    66  0.2500    67  0.2500    68  0.2500    69  0.2500    70  0.2500
    71  0.2500    72  0.2500    73  0.2500    74  0.2500    75  0.2500
    76  0.2500    77  0.2500    78  0.2500    79  0.2500    80  0.2500
    81  0.2500    82  0.2500    83  0.2500    84  0.2500    85  0.2500
    86  0.2500    87  0.2500    88  0.2500    89  0.2500    90  0.2500
    91  0.2500    92  0.2500    93  0.2500    94  0.2500    95  0.2500
    96  0.2500    97  0.2500    98  0.2500    99  0.2500   100  0.2500
   101  0.2500   102  0.2500   103  0.2500   104  0.2500   105  0.2500
   106  0.2500   107  0.2500   108  0.2500   109  0.2500   110  0.2500
   111  0.2500   112  0.2500   113  0.2500   114  0.2500   115  0.2500
   116  0.2500   117  0.2500   118  0.2500   119  0.2500   120  0.2500
 TRANSFORMING HESSIAN TO SYMMETRY COORDINATES

          PARAMETERS CONTROLLING GEOMETRY SEARCH ARE
          METHOD =QA                  UPHESS =BFGS    
          NNEG   =         0          NFRZ   =         3
          NSTEP  =        50          IFOLOW =         1
          HESS   =GUESS               RESTAR =         F
          IHREP  =         0          HSSEND =         F
          NPRT   =         0          NPUN   =         0
          OPTTOL = 5.000E-04          RMIN   = 1.500E-03
          RMAX   = 1.000E-01          RLIM   = 7.000E-02
          DXMAX  = 3.000E-01          PURIFY =         F
          MOVIE  =         F          TRUPD  =         T
          TRMAX  = 5.000E-01          TRMIN  = 5.000E-02
          ITBMAT =         5          STPT   =         F
          STSTEP = 1.000E-02          PROJCT=          F
          FROZEN COORD(S)=   1   2   3


      ***** EQUILIBRIUM GEOMETRY LOCATED *****
            (SUBJECT TO   3 CONSTRAINT(S))
 COORDINATES OF ALL ATOMS ARE (ANGS)
   ATOM   CHARGE       X              Y              Z
 ------------------------------------------------------------
 C           6.0   2.9041077426   2.1730086806   2.5059470646
 C           6.0   2.7693223325   2.2299505476   0.9842862404
 C           6.0   3.6871133819   3.2635068119   0.3310162110
 C           6.0   1.9676458557   1.1413946940   3.1471135669
 C           6.0   3.5408103145   3.3253196379  -1.1901590937
 C           6.0   2.0898923413   1.0938758845   4.6461471208
 C           6.0   4.4553386071   4.3626618728  -1.8403482572
 C           6.0   1.1092705414   1.3298257450   5.4981180749
 H           1.0   2.6905207149   3.1544563951   2.9261813263
 H           1.0   3.9336466040   1.9384510351   2.7729145298
 H           1.0   1.7354219981   2.4584528953   0.7278319142
 H           1.0   2.9799720708   1.2456756000   0.5672366425
 H           1.0   4.7230286957   3.0387880977   0.5837724430
 H           1.0   3.4744022848   4.2468857726   0.7496771176
 H           1.0   0.9384265810   1.3602253837   2.8743766179
 H           1.0   2.2018988344   0.1567287868   2.7441237025
 H           1.0   2.5054257364   3.5521137974  -1.4395436652
 H           1.0   3.7504967206   2.3434871790  -1.6115139596
 H           1.0   3.0685142567   0.8455338212   5.0326317802
 H           1.0   4.2337599902   5.3622801581  -1.4739463386
 H           1.0   4.3352966476   4.3704925632  -2.9202523492
 H           1.0   5.5001327250   4.1537127735  -1.6229817347
 H           1.0   1.2639970248   1.2807263762   6.5629236770
 H           1.0   0.1157153748   1.5814570088   5.1621520428


                     --------------------
                     INTERNAL COORDINATES
                     --------------------

                 - - ATOMS - -         COORDINATE      COORDINATE
 NO.   TYPE    I  J  K  L  M  N        (BOHR,RAD)       (ANG,DEG)
 ----------------------------------------------------------------
   1 STRETCH   1  9                     2.0575080       1.0887864
   2 STRETCH   1 10                     2.0581877       1.0891461
   3 STRETCH   1  2                     2.8887855       1.5286795
   4 STRETCH   1  4                     2.8983017       1.5337153
   5 STRETCH   2  3                     2.8890818       1.5288364
   6 STRETCH   2 12                     2.0589350       1.0895416
   7 STRETCH   2 11                     2.0587886       1.0894641
   8 STRETCH   3 14                     2.0593307       1.0897510
   9 STRETCH   3 13                     2.0592853       1.0897269
  10 STRETCH   3  5                     2.8902306       1.5294443
  11 STRETCH   4 15                     2.0541283       1.0869980
  12 STRETCH   4 16                     2.0587108       1.0894229
  13 STRETCH   4  6                     2.8435848       1.5047604
  14 STRETCH   5  7                     2.8877504       1.5281318
  15 STRETCH   5 18                     2.0575491       1.0888082
  16 STRETCH   5 17                     2.0576760       1.0888753
  17 STRETCH   6  8                     2.4949722       1.3202825
  18 STRETCH   6 19                     2.0429546       1.0810851
  19 STRETCH   7 22                     2.0549436       1.0874294
  20 STRETCH   7 21                     2.0533455       1.0865837
  21 STRETCH   7 20                     2.0550144       1.0874669
  22 STRETCH   8 24                     2.0382281       1.0785839
  23 STRETCH   8 23                     2.0354393       1.0771082
  24 BEND      1  2 12                  1.9074397     109.2882473
  25 BEND      1  2 11                  1.9026552     109.0141114
  26 BEND      1  4  6                  1.9693589     112.8359517
  27 BEND      1  4 16                  1.8986528     108.7847936
  28 BEND      1  4 15                  1.9154031     109.7445115
  29 BEND      1  2  3                  1.9796829     113.4274768
  30 BEND      2  1 10                  1.9127821     109.5943388
  31 BEND      2  3  5                  1.9767399     113.2588518
  32 BEND      2  1  4                  1.9685488     112.7895376
  33 BEND      2  1  9                  1.9106194     109.4704280
  34 BEND      2  3 14                  1.9057381     109.1907486
  35 BEND      2  3 13                  1.9093846     109.3996773
  36 BEND      3  2 12                  1.9082664     109.3356137
  37 BEND      3  5 17                  1.9041009     109.0969476
  38 BEND      3  2 11                  1.9042701     109.1066377
  39 BEND      3  5  7                  1.9750873     113.1641692
  40 BEND      3  5 18                  1.9071301     109.2705045
  41 BEND      4  6 19                  2.0229799     115.9082092
  42 BEND      4  6  8                  2.1856699     125.2296599
  43 BEND      4  1  9                  1.9020013     108.9766483
  44 BEND      4  1 10                  1.9069319     109.2591521
  45 BEND      5  3 13                  1.9070563     109.2662757
  46 BEND      5  3 14                  1.9038828     109.0844478
  47 BEND      5  7 20                  1.9376652     111.0200384
  48 BEND      5  7 21                  1.9408231     111.2009704
  49 BEND      5  7 22                  1.9385405     111.0701872
  50 BEND      6  4 16                  1.8991578     108.8137291
  51 BEND      6  4 15                  1.9105263     109.4650908
  52 BEND      6  8 23                  2.1212612     121.5393147
  53 BEND      6  8 24                  2.1233648     121.6598410
  54 BEND      7  5 17                  1.9073395     109.2825032
  55 BEND      7  5 18                  1.9094590     109.4039418
  56 BEND      8  6 19                  2.0745351     118.8621033
  57 BEND      9  1 10                  1.8597560     106.5561674
  58 BEND     11  2 12                  1.8575589     106.4302847
  59 BEND     13  3 14                  1.8572287     106.4113652
  60 BEND     15  4 16                  1.8678872     107.0220532
  61 BEND     17  5 18                  1.8569979     106.3981448
  62 BEND     20  7 21                  1.8814966     107.8018154
  63 BEND     20  7 22                  1.8807828     107.7609174
  64 BEND     21  7 22                  1.8819858     107.8298436
  65 BEND     23  8 24                  2.0385591     116.8008316
  66 TORSION   1  2  3  5              -3.1332925    -179.5244364
  67 TORSION   1  2  3 13               1.0179888      58.3264598
  68 TORSION   1  4  6 19              -1.0418619     -59.6942916
  69 TORSION   1  2  3 14              -1.0081063     -57.7602389
  70 TORSION   1  4  6  8               2.0986585     120.2442719
  71 TORSION   2  3  5 18              -1.0131098     -58.0469158
  72 TORSION   2  3  5  7               3.1378532     179.7857447
  73 TORSION   2  1  4 16               1.0420241      59.7035858
  74 TORSION   2  1  4  6              -3.1318800    -179.4435071
  75 TORSION   2  1  4 15              -0.9962177     -57.0790712
  76 TORSION   2  3  5 17               1.0105354      57.8994146
  77 TORSION   3  5  7 20              -1.0599778     -60.7322555
  78 TORSION   3  5  7 21               3.1284069     179.2445141
  79 TORSION   3  5  7 22               1.0324008      59.1522109
  80 TORSION   3  2  1  4               3.1319512     179.4475856
  81 TORSION   3  2  1 10              -1.0226345     -58.5926397
  82 TORSION   3  2  1  9               1.0111987      57.9374180
  83 TORSION   4  1  2 11               1.0065095      57.6687489
  84 TORSION   4  1  2 12              -1.0171726     -58.2796997
  85 TORSION   4  6  8 23              -3.1398436    -179.8997840
  86 TORSION   4  6  8 24               0.0010095       0.0578391
  87 TORSION   5  3  2 11              -1.0087524     -57.7972542
  88 TORSION   5  3  2 12               1.0162903      58.2291462
  89 TORSION   6  4  1  9              -1.0062523     -57.6540088
  90 TORSION   6  4  1 10               1.0194108      58.4079336
  91 TORSION   7  5  3 13              -1.0121302     -57.9907905
  92 TORSION   7  5  3 14               1.0116284      57.9620387
  93 TORSION   8  6  4 16              -2.0755336    -118.9193154
  94 TORSION   8  6  4 15              -0.0397364      -2.2767302
  95 TORSION   9  1  4 15               1.1294100      64.7104271
  96 TORSION   9  1  2 12              -3.1379251    -179.7898673
  97 TORSION   9  1  4 16              -3.1155334    -178.5069159
  98 TORSION   9  1  2 11              -1.1142430     -63.8414187
  99 TORSION  10  1  4 16              -1.0898704     -62.4449734
 100 TORSION  10  1  2 12               1.1114270      63.6800750
 101 TORSION  10  1  2 11               3.1351092     179.6285236
 102 TORSION  10  1  4 15              -3.1281123    -179.2276305
 103 TORSION  11  2  3 13              -3.1406564    -179.9463580
 104 TORSION  11  2  3 14               1.1164338      63.9669433
 105 TORSION  12  2  3 13              -1.1156137     -63.9199576
 106 TORSION  12  2  3 14               3.1414765     179.9933437
 107 TORSION  13  3  5 17              -3.1394480    -179.8771206
 108 TORSION  13  3  5 18               1.1200921      64.1765490
 109 TORSION  14  3  5 17              -1.1156894     -63.9242914
 110 TORSION  14  3  5 18              -3.1393346    -179.8706218
 111 TORSION  15  4  6 19               3.1029285     177.7847062
 112 TORSION  16  4  6 19               1.0671313      61.1421211
 113 TORSION  17  5  7 22              -3.1252821    -179.0654768
 114 TORSION  17  5  7 21              -1.0292761     -58.9731736
 115 TORSION  17  5  7 20               1.0655245      61.0500568
 116 TORSION  18  5  7 22              -1.0985201     -62.9405678
 117 TORSION  18  5  7 21               0.9974860      57.1517353
 118 TORSION  18  5  7 20               3.0922865     177.1749657
 119 TORSION  19  6  8 24               3.1415008     179.9947392
 120 TORSION  19  6  8 23               0.0006478       0.0371161

          INTERNUCLEAR DISTANCES (ANGS.)


 =====================================================
   GAMESS/COSab RESULTS
 =====================================================

   Dielectric Constant                  = INFTY
   Basic Grid Size                      =                 1082
   Number of Segments                   =                   92
   Number of Segments located on spheres=                  299
   Number of Segments of the cavity     =                  860
   Solvent Radius (rsolv)               = 1.40
   Outlying Charge Error Method         = double cavity

 =====================================================

  Total solvated Energy (a.u.)          =  -312.3268405659
  Total Energy corrected (a.u.)         =  -312.3267571347

  Outlying charge effect (a.u.)         =     0.0000834312
  Outlying charge effect (kcal/mol)     =     0.0523539132

  Dielectric Energy (a.u.)              =    -0.0035688659
  Dielectric energy corr. (a.u.)        =    -0.0034854347

  Sum of polarization charges           =     0.0318276741
  Sum of polarization charges(cor.)     =    -0.0318276741

  Total surface area of cavity (A**2)   =  190.88
  Total volume of cavity (A**3)         =  184.02

 =====================================================
 NPS=                   860
NR.  ATOM  (X, Y, Z)(a.u.)                  CHARGE(e)  AREA(A**2) SIGMA(e/A**2)
   1   1   8.314441   6.391442   5.771815   0.001457   0.325193   0.004482
   2   1   7.655906   1.093725   4.022655   0.000148   0.092912   0.001591
   3   1   7.658587   6.915726   6.031809   0.001337   0.278737   0.004795
   4   1   2.588432   6.520897   4.518644   0.000244   0.139368   0.001753
   5   1   7.580416   5.473286   7.570597   0.000996   0.232280   0.004289
   6   1   7.902565   6.070769   6.879187   0.001818   0.325193   0.005592
   7   1   7.929374   1.348232   3.889129   0.000082   0.046456   0.001759
   8   1   7.117267   6.199824   7.427602   0.000601   0.139368   0.004309
   9   1   2.406973   6.280270   4.992277   0.000082   0.046456   0.001767
  10   2   2.874974   1.452399   0.812948   0.001461   0.325193   0.004491
  11   2   8.350934   2.077919   1.899973   0.000193   0.092912   0.002076
  12   2   8.263132   2.030297   1.280678   0.000069   0.046456   0.001483
  13   2   2.380492   2.094414   0.574189   0.001206   0.232280   0.005194
  14   2   2.823435   6.989007   2.741077   0.000270   0.139368   0.001939
  15   2   3.525185   2.417982  -0.993235   0.001117   0.232280   0.004808
  16   2   3.033710   1.999134  -0.270856   0.001927   0.325193   0.005924
  17   2   8.121754   1.782752   2.033165   0.000099   0.046456   0.002137
  18   2   2.817542   2.837659  -0.700105   0.000650   0.139368   0.004667
  19   2   2.993718   7.231485   2.264249   0.000102   0.046456   0.002192
  20   3   8.713974   8.076613   3.380238   0.001538   0.325193   0.004731
  21   3   3.846267   8.297781   0.584606   0.000188   0.092912   0.002029
  22   3   4.224931   8.756337   0.384999   0.000068   0.046456   0.001459
  23   3   9.404198   7.587554   3.141436   0.001442   0.278737   0.005173
  24   3   9.147896   3.100377   0.270936   0.000349   0.185824   0.001879
  25   3   9.366000   8.945724   1.526343   0.001120   0.232280   0.004822
  26   3   9.285629   8.559286   2.411226   0.001970   0.325193   0.006058
  27   3   3.887838   8.329301   0.977882   0.000100   0.046456   0.002144
  28   3   9.901672   8.283477   1.719469   0.000662   0.139368   0.004752
  29   3   9.372507   3.379234  -0.227973   0.000116   0.046456   0.002498
  30   4   1.425641  -0.733247   5.125684   0.001443   0.371649   0.003882
  31   4   6.850164   0.043741   6.047939   0.000014   0.092912   0.000149
  32   4   0.900250   0.008361   4.633221   0.000953   0.232280   0.004104
  33   4   2.065922   0.329832   3.080900   0.000854   0.232280   0.003676
  34   4   1.542208  -0.136557   3.876246   0.001719   0.371649   0.004626
  35   4   1.087342  -0.555913   6.000322   0.000594   0.232280   0.002556
  36   4   2.083390  -1.233834   6.284945   0.000456   0.185824   0.002455
  37   4   6.621126  -0.252188   6.179677   0.000033   0.046456   0.000715
  38   4   0.574502   0.062103   5.835374   0.000650   0.232280   0.002797
  39   4   1.351002   0.746314   3.360625   0.000475   0.139368   0.003409
  40   4   1.451526   5.160773   6.297731  -0.000001   0.046456  -0.000028
  41   4   1.496309  -0.826794   6.613848   0.000429   0.185824   0.002310
  42   5   5.345583   5.545945  -5.702914   0.001071   0.325193   0.003292
  43   5   4.332995   3.520212  -3.290732   0.001452   0.325193   0.004466
  44   5   9.813929   4.155019  -2.234599   0.000198   0.092912   0.002128
  45   5   9.722519   4.109147  -2.853504   0.000077   0.046456   0.001665
  46   5   3.764975   4.183176  -3.392941   0.001391   0.278737   0.004989
  47   5   4.626255   6.091886  -5.408746   0.000815   0.278737   0.002923
  48   5   4.280282   9.050575  -1.344792   0.000281   0.139368   0.002019
  49   5   5.096652   4.660206  -5.266563   0.001314   0.278737   0.004715
  50   5   4.499716   4.013567  -4.329260   0.001634   0.278737   0.005861
  51   5   6.237218   4.782933  -5.687842   0.000818   0.278737   0.002936
  52   5   9.586233   3.858901  -2.100971   0.000104   0.046456   0.002248
  53   5   4.421320   4.749447  -4.852412   0.001381   0.278737   0.004955
  54   5   4.447138   9.294951  -1.821862   0.000109   0.046456   0.002340
  55   6   5.845021   4.359979  11.110914   0.001272   0.185824   0.006846
  56   6   4.642325  -1.619278   9.242997   0.001330   0.371649   0.003580
  57   6   5.669202  -1.268984   9.223403   0.000629   0.278737   0.002256
  58   6   5.230891   0.074800  11.724845   0.000176   0.092912   0.001896
  59   6   6.258160   3.545718  11.381348   0.000664   0.232280   0.002859
  60   6   6.582140   4.652781   9.596628   0.000408   0.139368   0.002927
  61   6   6.124179   4.614219  10.531117   0.001838   0.278737   0.006594
  62   6   5.058974  -0.614676  11.200861   0.001290   0.278737   0.004628
  63   6   4.402149  -1.263273  10.508414   0.002158   0.371649   0.005806
  64   6   5.428392  -1.382006   8.332595   0.000434   0.278737   0.001555
  65   6   5.267720   5.388933  10.009459   0.001655   0.185824   0.008908
  66   6   3.419131  -1.619663   9.420803   0.004400   0.511017   0.008611
  67   6   4.010740  -1.688876   8.364106   0.000775   0.325193   0.002383
  68   6   5.366350  -1.122289  10.230432   0.001089   0.278737   0.003908
  69   6   6.826684   4.173419  10.032395   0.000741   0.232280   0.003191
  70   6   6.374735  -0.749507   8.095649   0.000001   0.278737   0.000002
  71   6   2.489049  -1.393986   8.364592   0.002734   0.418105   0.006539
  72   6   5.996788   5.075165   9.801650   0.001151   0.185824   0.006193
  73   7  10.985631  10.106020  -1.420502   0.001154   0.232280   0.004968
  74   7  10.215842  11.013437  -5.318524   0.000956   0.371649   0.002572
  75   7   6.507813  10.639541  -5.689693   0.001815   0.371649   0.004883
  76   7  10.514209   5.458386  -4.938925   0.001466   0.418105   0.003505
  77   7  11.095825   6.331060  -5.338040   0.000750   0.185824   0.004034
  78   7   9.566199   5.403258  -5.690887   0.000609   0.232280   0.002623
  79   7   9.835876   5.919483  -6.099463   0.000845   0.232280   0.003637
  80   7   5.332209  10.334078  -2.856309   0.000113   0.092912   0.001220
  81   7   6.640387  11.230065  -4.962423   0.001264   0.278737   0.004535
  82   7   9.622909  11.650080  -4.589474   0.001318   0.418105   0.003152
  83   7  10.450285  10.718488  -1.468359   0.001157   0.232280   0.004981
  84   7  11.334312   7.729052  -5.827647   0.001907   0.371649   0.005131
  85   7  10.821525   7.630392  -6.330322   0.001104   0.232280   0.004753
  86   7  10.498241   9.792956  -0.727485   0.001091   0.232280   0.004695
  87   7  11.106497  10.728115  -2.532286   0.002574   0.511017   0.005038
  88   7  10.828804  11.084665  -4.118693   0.001292   0.418105   0.003090
  89   7   9.078667  11.107838  -5.854585   0.001658   0.418105   0.003966
  90   7   7.623537  11.113532  -5.805414   0.001757   0.325193   0.005403
  91   7   5.534747  10.363662  -4.690683   0.001636   0.464561   0.003521
  92   7   5.152801  10.141707  -3.593246   0.000252   0.092912   0.002708
  93   7  11.592443   9.175729  -5.307562   0.001384   0.371649   0.003724
  94   7  11.120849  10.248806  -5.200529   0.001292   0.464561   0.002781
  95   7  10.180579  10.281908  -6.129221   0.000974   0.325193   0.002996
  96   7   5.785207   9.796604  -5.699368   0.000989   0.278737   0.003549
  97   7   5.444683   8.592574  -5.782998   0.000245   0.139368   0.001761
  98   7  10.595626   5.198303  -3.997884   0.000381   0.185824   0.002048
  99   7  10.603296   6.457372  -5.992093   0.001774   0.371649   0.004774
 100   7   8.709159   5.626240  -6.188187   0.000379   0.139368   0.002717
 101   7   5.479847  10.598787  -3.793171   0.000379   0.139368   0.002723
 102   7   8.369899  11.550463  -5.308223   0.001420   0.325193   0.004367
 103   7  10.562473  11.347444  -3.229930   0.001047   0.278737   0.003755
 104   7   9.864044  10.287724  -0.645567   0.000683   0.185824   0.003676
 105   7  10.907197   9.166069  -6.169446   0.001694   0.418105   0.004052
 106   7  11.582219  10.256716  -3.957906   0.001135   0.371649   0.003054
 107   7   5.269343   9.328075  -5.262929   0.000676   0.232280   0.002911
 108   8  -0.719298   0.275081   9.228530   0.001826   0.371649   0.004914
 109   8   4.593060   4.877161  11.958623   0.002097   0.325193   0.006447
 110   8   0.875802   5.560917  12.262135   0.001054   0.418105   0.002520
 111   8  -1.028956   1.813736  12.397092   0.000401   0.278737   0.001440
 112   8   1.597520  -0.886544  11.964317   0.002307   0.371649   0.006208
 113   8  -0.535911   0.577002   8.490446   0.000588   0.139368   0.004219
 114   8   1.921397  -0.371453  12.825846   0.001482   0.325193   0.004557
 115   8  -0.336798   2.183487  13.263300   0.000222   0.371649   0.000596
 116   8   1.196217   4.908726  13.171096   0.000792   0.418105   0.001895
 117   8   4.230785   4.577569  12.727768   0.001480   0.278737   0.005311
 118   8   4.599361   0.963853  12.760308  -0.000062   0.092912  -0.000670
 119   8   0.971899   5.737917   8.771267   0.001750   0.278737   0.006277
 120   8   0.668257   5.882590   9.445962   0.001152   0.232280   0.004961
 121   8   0.228572  -0.403865   8.877310   0.003093   0.371649   0.008322
 122   8   4.904645   3.771360  12.583910   0.000784   0.185824   0.004218
 123   8   3.677065   5.431993  12.196781   0.002048   0.325193   0.006298
 124   8   2.141171   5.719949  12.389380   0.001960   0.464561   0.004220
 125   8  -0.038874   4.603651  12.704007   0.000603   0.371649   0.001623
 126   8  -0.753087   3.312737  12.740735   0.000434   0.371649   0.001167
 127   8  -0.431436   0.870423  12.669684   0.001319   0.603929   0.002185
 128   8   0.591705  -0.303309  12.412102   0.001822   0.464561   0.003921
 129   8   2.949762  -0.765704  12.064991   0.003148   0.371649   0.008470
 130   8   4.032363   0.123370  12.586582   0.000437   0.185824   0.002351
 131   8   3.881143   5.747251  11.188638   0.003344   0.325193   0.010284
 132   8   3.007786   6.180337  10.452799   0.003991   0.371649   0.010739
 133   8   1.820018   6.258494   9.966530   0.003855   0.511017   0.007544
 134   8   1.280394   6.103132  11.244164   0.001995   0.511017   0.003905
 135   8  -0.126532   5.243076  11.764861   0.000726   0.371649   0.001954
 136   8  -0.044761   5.603528  10.776172   0.000606   0.232280   0.002609
 137   8  -1.196036   2.701337  12.236543   0.000137   0.278737   0.000491
 138   8  -1.304944   1.263934  11.465236   0.000701   0.418105   0.001677
 139   8  -1.066377   0.443636  10.384585   0.001352   0.371649   0.003637
 140   8  -0.086341  -0.554832  10.059607   0.003081   0.511017   0.006030
 141   8   0.732601  -0.941686  11.089913   0.003088   0.511017   0.006043
 142   8   2.141616  -1.214246  11.014285   0.003577   0.418105   0.008556
 143   8   0.598853   0.377019  13.124860   0.000574   0.278737   0.002060
 144   8  -0.022049   3.818198  13.234892   0.000216   0.325193   0.000663
 145   8   2.898599   5.229601  12.892051   0.001421   0.325193   0.004370
 146   8   5.044190   3.003431  12.703631   0.000064   0.092912   0.000693
 147   8   3.242965  -0.273928  12.670783   0.001078   0.232280   0.004641
 148   8   0.581164   5.975184  10.342941   0.001380   0.325193   0.004243
 149   8   1.149970  -1.108652   9.867934   0.004778   0.418105   0.011428
 150   8   2.775106   6.075989  11.452253   0.002271   0.371649   0.006110
 151   8  -0.832172   4.297213  11.979113   0.000087   0.232280   0.000374
 152   8  -0.489630  -0.041135  11.426321   0.001991   0.603929   0.003297
 153   9   4.804758   8.236959   6.411299  -0.001582   0.372926  -0.004241
 154   9   3.298705   7.609147   5.168542  -0.000868   0.353299  -0.002456
 155   9   6.496701   7.669344   6.588995  -0.000348   0.353299  -0.000984
 156   9   3.249374   7.440139   6.222735  -0.001617   0.451437  -0.003582
 157   9   4.194975   8.250797   5.565214  -0.001826   0.392554  -0.004651
 158   9   5.811694   8.240192   6.087944  -0.001557   0.372926  -0.004176
 159   9   5.711570   7.424920   7.400196  -0.001327   0.471065  -0.002817
 160   9   4.359537   7.678751   7.129467  -0.002055   0.431809  -0.004759
 161  10   9.703831   3.231779   6.073546  -0.001560   0.353299  -0.004415
 162  10   8.755575   1.592643   5.258082  -0.000965   0.372926  -0.002588
 163  10   9.053827   4.684040   6.778700  -0.000533   0.392554  -0.001357
 164  10   9.347016   2.276422   4.568726  -0.001739   0.490692  -0.003544
 165  10   9.281983   2.262268   6.049891  -0.002003   0.412182  -0.004860
 166  10   9.314488   3.692072   6.819987  -0.001549   0.333671  -0.004642
 167  10   9.585395   4.722584   5.771196  -0.001434   0.451437  -0.003176
 168  10   9.876298   3.434128   5.115500  -0.002012   0.392554  -0.005126
 169  11   0.895303   4.889847   0.835690  -0.001351   0.333671  -0.004050
 170  11   1.667057   6.323322   2.163528  -0.000795   0.353299  -0.002249
 171  11   1.447272   3.323809   0.410778  -0.000373   0.372926  -0.001001
 172  11   1.710232   6.515880   1.100858  -0.001535   0.471065  -0.003259
 173  11   0.986903   5.466057   1.701623  -0.001773   0.392554  -0.004518
 174  11   0.936846   3.979522   1.053998  -0.001378   0.333671  -0.004130
 175  11   1.528563   4.161562  -0.278360  -0.001249   0.431809  -0.002894
 176  11   1.301827   5.529832   0.216739  -0.001816   0.372926  -0.004869
 177  12   5.976852   0.210016  -0.076580  -0.001448   0.353299  -0.004098
 178  12   7.698718   1.107495   0.616708  -0.000836   0.372926  -0.002241
 179  12   4.415521   0.919248  -0.508714  -0.000372   0.372926  -0.000999
 180  12   7.125345   0.419308   1.316858  -0.001599   0.490692  -0.003259
 181  12   6.937351   0.640776  -0.108870  -0.001744   0.392554  -0.004443
 182  12   5.412310   0.668865  -0.702185  -0.001366   0.333671  -0.004095
 183  12   4.564915   0.250021   0.385509  -0.001318   0.451437  -0.002919
 184  12   5.925705  -0.075159   0.853621  -0.001831   0.372926  -0.004911
 185  13  11.211441   5.334643   1.904443  -0.001409   0.353299  -0.003988
 186  13  10.264154   3.682795   1.113884  -0.000807   0.372926  -0.002164
 187  13  10.560537   6.786120   2.610380  -0.000366   0.392554  -0.000931
 188  13  10.839429   4.366878   0.411276  -0.001534   0.490692  -0.003126
 189  13  10.808878   4.362215   1.865971  -0.001708   0.392554  -0.004352
 190  13  10.829832   5.796556   2.653871  -0.001334   0.333671  -0.003999
 191  13  11.076317   6.822492   1.594623  -0.001252   0.451437  -0.002772
 192  13  11.367601   5.532252   0.942618  -0.001854   0.392554  -0.004724
 193  14   6.318765  10.312624   2.278628  -0.001404   0.353299  -0.003974
 194  14   4.788907   9.681623   1.048868  -0.000813   0.372926  -0.002180
 195  14   7.973844   9.786558   2.391678  -0.000372   0.392554  -0.000947
 196  14   4.716855   9.461293   2.161896  -0.001530   0.490692  -0.003117
 197  14   5.663370  10.310075   1.454246  -0.001717   0.392554  -0.004373
 198  14   7.221596  10.331050   1.954299  -0.001344   0.333671  -0.004028
 199  14   7.236039   9.545575   3.226356  -0.001214   0.451437  -0.002689
 200  14   5.806523   9.803412   2.932481  -0.001761   0.372926  -0.004722
 201  15  -0.550761   2.463040   4.643115  -0.001867   0.372926  -0.005006
 202  15  -0.050484   1.274902   4.416798  -0.000686   0.372926  -0.001839
 203  15   0.187163   4.434208   5.218437  -0.002598   0.549575  -0.004727
 204  15  -0.577313   3.279695   5.351725  -0.001805   0.294415  -0.006131
 205  15  -0.458209   1.543292   5.421459  -0.001838   0.412182  -0.004459
 206  15   0.142284   2.014961   3.680760  -0.001522   0.392554  -0.003877
 207  15  -0.210133   3.421042   4.258180  -0.002312   0.392554  -0.005890
[...]
 601   5   5.294036   9.671999  -1.055834   0.000114   0.167951   0.000676
 602  14   5.441842   9.765848  -0.322331  -0.000012   0.167951  -0.000073
 603  20   5.763724  10.236404  -1.262192  -0.000101   0.167951  -0.000599
 604  14   4.952857   9.535295   0.226812  -0.000167   0.146033  -0.001141
 605   5   4.620943   9.249413  -0.808565   0.000396   0.205888   0.001924
 606  17   3.651340   8.623103  -1.621751  -0.000079   0.070722  -0.001119
 607  17   3.915340   9.001478  -2.373742  -0.000070   0.070722  -0.000983
 608   5   4.122747   8.952965  -1.807809  -0.000185   0.154576  -0.001198
 609  17   4.153022   7.116949  -5.074337  -0.000051   0.067080  -0.000760
 610  17   3.882427   6.089797  -4.884957  -0.000154   0.147798  -0.001039
 611  17   3.480231   5.156507  -4.063835  -0.000020   0.147798  -0.000138
 612  17   3.174536   4.846387  -3.076665  -0.000049   0.067080  -0.000737
 613   5   4.428230   6.611461  -5.205473  -0.000037   0.148154  -0.000248
 614   5   4.013617   5.309801  -4.667793   0.000236   0.148154   0.001593
 615   5   3.569152   4.617984  -3.451584   0.000170   0.148154   0.001146
 616  18   5.221921   2.857828  -3.353723   0.000012   0.067283   0.000176
 617  18   5.382352   3.308620  -4.324307  -0.000066   0.148339  -0.000447
 618  18   6.184641   3.857069  -5.203029  -0.000182   0.148339  -0.001226
 619  18   7.172832   4.191480  -5.490492  -0.000069   0.067283  -0.001028
 620   5   4.934627   3.290906  -3.635305   0.000170   0.148511   0.001147
 621   5   5.439139   3.925927  -4.863940   0.000199   0.148511   0.001340
 622   5   6.647685   4.461961  -5.511561  -0.000045   0.148511  -0.000300
 623  18   9.417463   3.662158  -3.140052  -0.000065   0.072144  -0.000905
 624  18   9.147853   3.275714  -2.373744  -0.000076   0.072144  -0.001054
 625   5   9.440431   3.784177  -2.542414  -0.000168   0.157022  -0.001070
 626  20   5.640436  10.610389  -2.069662  -0.000212   0.147673  -0.001435
 627   5   5.005801   9.750572  -1.683146   0.000386   0.208079   0.001857
 628  21   7.431636   6.161302  -6.631781  -0.000201   0.199655  -0.001004
 629  21   6.358314   7.106233  -6.553827  -0.001042   0.408439  -0.002550
 630   5   6.444295   5.754004  -5.999140   0.000904   0.547050   0.001652
 631   5   5.311303   6.910324  -5.820886   0.000690   0.281163   0.002455
 632  22  11.060256   5.466527  -2.604304  -0.000188   0.130005  -0.001449
 633   5  10.244410   4.689823  -2.464823   0.000365   0.183207   0.001993
 634   6   4.399905   5.831415   9.223040   0.001284   0.092718   0.013848
 635   8   4.059100   5.846126   9.486250   0.001662   0.092718   0.017929
 636   9   4.588350   6.286864   8.364060   0.000652   0.092718   0.007035
 637   6   5.394490   0.795266  12.034779  -0.000049   0.011484  -0.004232
 638   8   5.056076   0.887341  12.282901  -0.000021   0.011484  -0.001855
 639  19   5.673118   0.805484  11.923861  -0.000073   0.011484  -0.006332
 640   6   5.806730   2.446480  12.051982  -0.000045   0.011484  -0.003942
 641   8   5.463535   2.519407  12.299904  -0.000020   0.011484  -0.001732
 642  19   6.048407   2.308692  11.939522  -0.000056   0.011484  -0.004853
 643   8   1.294378  -0.879191   8.951153   0.002322   0.187158   0.012407
 644   8   2.563480  -1.104662  10.474334   0.005275   0.383050   0.013772
 645   8   4.136104  -0.052511  11.993046   0.001661   0.383050   0.004337
 646   6   2.227227  -1.129561   9.138394   0.005039   0.383050   0.013154
 647   6   3.844056  -0.878934  10.929959   0.003724   0.383050   0.009722
 648   6   5.032917   0.350527  11.957855   0.000157   0.187158   0.000838
 649   8   5.223225   3.201742  12.343094   0.000310   0.220222   0.001410
 650   8   4.562594   5.017952  11.079725   0.005567   0.459950   0.012104
 651   6   5.471466   3.837684  11.496895   0.002080   0.459950   0.004522
 652   6   4.666898   5.499600  10.110584   0.003045   0.220222   0.013825
 653   9   5.342215   6.657095   7.961157  -0.000116   0.330045  -0.000350
 654   6   5.355742   5.738358   9.122852   0.002599   0.467911   0.005554
 655   6   7.427869   3.687357   8.908707  -0.000129   0.084616  -0.001520
 656  10   7.861115   3.855370   8.027873  -0.000007   0.084616  -0.000084
 657  19   7.559687   3.439389   9.022715  -0.000267   0.084616  -0.003150
 658  10   8.193819   4.263799   7.661474   0.000013   0.034342   0.000379
 659   6   7.482860   3.948400   8.909477   0.000166   0.048773   0.003411
 660  16   5.875413  -1.090847   6.360881  -0.000418   0.165595  -0.002523
 661  16   4.773408  -1.616869   6.555163  -0.001262   0.336636  -0.003748
 662  16   3.541146  -1.716002   6.531441  -0.000321   0.165595  -0.001941
 663   6   5.613448  -1.132608   7.517849  -0.000101   0.456865  -0.000221
 664   6   3.943369  -1.579882   7.639879   0.000537   0.456865   0.001176
 665  19   5.974879   0.494245  11.696700  -0.000289   0.069393  -0.004164
 666  19   6.072235  -0.321495  10.926011  -0.000546   0.154735  -0.003526
 667  19   6.467711  -0.701368   9.680532  -0.000653   0.154735  -0.004217
 668  19   7.039334  -0.216391   8.544765  -0.000871   0.154735  -0.005628
 669   6   5.590274   0.087778  11.483162  -0.000442   0.151438  -0.002921
 670   6   5.855236  -0.781208  10.253863  -0.000360   0.151438  -0.002380
 671   6   6.429929  -0.718751   8.838821  -0.000506   0.151438  -0.003342
 672   6   6.957541  -0.058095   7.927381  -0.000349   0.084778  -0.004113
 673  19   7.455704   3.381293   9.802268  -0.000240   0.074166  -0.003233
 674  19   6.975513   3.163747  10.878364  -0.000628   0.167973  -0.003742
 675  19   6.470078   2.459275  11.705494  -0.000289   0.074166  -0.003894
 676   6   7.022838   3.655878  10.148558  -0.000347   0.159503  -0.002175
 677   6   6.338680   3.015872  11.469655  -0.000546   0.159503  -0.003424
 678   7  10.811184   8.456682  -0.473461   0.000124   0.088716   0.001400
 679  13  10.659077   7.802309   0.269971   0.000221   0.088716   0.002494
 680  22  11.046283   8.316279  -0.611226  -0.000099   0.088716  -0.001121
 681  13  10.646685   7.691354   0.874346   0.000055   0.020992   0.002627
 682   7  10.788545   8.620965  -0.267001   0.000162   0.029830   0.005426
 683   7   8.924168  10.275691  -0.252497   0.000083   0.088317   0.000943
 684  14   8.390437   9.989786   0.544298   0.000200   0.088317   0.002268
 685  20   8.757481  10.516362  -0.343276  -0.000014   0.088317  -0.000163
 686  14   8.411508   9.852632   1.168925   0.000045   0.044311   0.001024
 687   7   9.131969  10.221843  -0.066799   0.000254   0.062958   0.004042
 688  17   4.087390   9.076345  -3.113351  -0.000160   0.217381  -0.000736
 689  17   4.161289   8.245391  -4.434245  -0.001183   0.447760  -0.002642
 690   7   4.896316   9.480212  -3.978888   0.000937   0.592842   0.001581
 691   7   5.055291   8.403655  -5.382573   0.000720   0.306230   0.002351
 692  18   7.907962   4.280951  -5.384005  -0.000174   0.216406  -0.000804
 693  18   9.028665   4.007918  -4.341233  -0.001129   0.445557  -0.002535
 694   7   8.894680   5.049336  -5.419489   0.000931   0.590339   0.001578
 695   7  10.053237   4.793433  -4.108967   0.000703   0.304848   0.002307
 696  20   9.185803  10.948868  -0.792762  -0.000037   0.067618  -0.000540
 697  20   9.714695  11.377751  -1.642980  -0.000099   0.149345  -0.000665
 698  20   9.705032  11.829587  -2.881510  -0.000211   0.149345  -0.001416
 699  20   8.927154  12.039662  -3.925051  -0.000250   0.149345  -0.001677
 700  20   7.688337  11.924992  -4.361386  -0.000125   0.149345  -0.000837
 701  20   6.477938  11.530873  -4.018154  -0.000206   0.149345  -0.001382
 702  20   5.774086  11.012991  -3.030938  -0.000308   0.149345  -0.002060
 703   7   9.690693  10.793566  -1.060648   0.000087   0.148981   0.000587
 704   7  10.136119  11.365775  -2.352358   0.000162   0.148981   0.001086
 705   7   9.670078  11.757471  -3.702811  -0.000043   0.148981  -0.000287
 706   7   8.476666  11.813929  -4.578552   0.000077   0.148981   0.000518
 707   7   7.027302  11.512845  -4.633647   0.000126   0.148981   0.000843
 708   7   5.894513  10.973154  -3.846333  -0.000024   0.148981  -0.000164
 709   7   5.455569  10.503441  -2.830330   0.000007   0.082610   0.000085
 710  21   5.921908   8.243595  -6.455214  -0.000089   0.069416  -0.001276
 711  21   6.259871   9.308721  -6.485050  -0.000296   0.154234  -0.001921
 712  21   7.269502  10.200533  -6.590804  -0.000151   0.154234  -0.000980
 713  21   8.609881  10.285606  -6.739180  -0.000252   0.154234  -0.001637
 714  21   9.721591   9.528434  -6.868250  -0.000299   0.154234  -0.001941
 715  21  10.140652   8.245027  -6.924147  -0.000164   0.154234  -0.001062
 716  21   9.692165   6.971026  -6.883541  -0.000191   0.154234  -0.001239
 717  21   8.563310   6.238143  -6.763380  -0.000322   0.154234  -0.002084
 718   7   5.807132   8.713801  -6.101740  -0.000110   0.152062  -0.000724
 719   7   6.559161  10.030249  -6.175778   0.000009   0.152062   0.000062
 720   7   7.953860  10.610018  -6.326601  -0.000013   0.152062  -0.000087
 721   7   9.409141  10.211136  -6.491261  -0.000003   0.152062  -0.000021
 722   7  10.317633   9.000080  -6.601036   0.000033   0.152062   0.000220
 723   7  10.300169   7.482293  -6.610111   0.000145   0.152062   0.000955
 724   7   9.364038   6.291235  -6.514699  -0.000010   0.152062  -0.000066
 725   7   8.221783   5.841644  -6.390992   0.000025   0.084807   0.000291
 726  22  11.210883   5.544232  -3.308636  -0.000081   0.067748  -0.001203
 727  22  11.504330   6.056895  -4.226285  -0.000226   0.149696  -0.001513
 728  22  11.856183   7.165849  -4.851477  -0.000156   0.149696  -0.001045
 729  22  12.077571   8.455980  -4.675429  -0.000173   0.149696  -0.001153
 730  22  12.080692   9.415634  -3.767961  -0.000251   0.149696  -0.001676
 731  22  11.864308   9.664219  -2.488966  -0.000123   0.149696  -0.000824
 732  22  11.514237   9.103149  -1.345683  -0.000230   0.149696  -0.001539
 733   7  10.974550   5.544853  -3.852278  -0.000104   0.149209  -0.000696
 734   7  11.385693   6.490054  -4.919851   0.000117   0.149209   0.000787
 735   7  11.724987   7.910041  -5.185694   0.000188   0.149209   0.001263
 736   7  11.857871   9.241659  -4.544375  -0.000018   0.149209  -0.000124
 737   7  11.731644   9.956800  -3.250235  -0.000024   0.149209  -0.000164
 738   7  11.396367   9.771845  -1.816521   0.000173   0.149209   0.001162
 739   7  11.064142   9.063334  -0.900748   0.000178   0.082770   0.002148
 740   9   2.781373   6.644716   6.711032   0.000222   0.242836   0.000913
 741   9   3.561987   6.965029   7.418204   0.000108   0.486127   0.000222
 742   9   4.515152   6.911969   7.966576   0.000263   0.242836   0.001084
 743   8   1.979516   6.079794   8.438185   0.004686   0.717798   0.006528
 744   8   3.245895   6.275000   9.355254   0.006561   0.717798   0.009140
 745   8  -0.481321   1.263445   7.831904  -0.000029   0.081792  -0.000359
 746  15  -0.272883   1.441605   6.929497  -0.000058   0.081792  -0.000714
 747  24  -0.677465   1.490004   7.869013  -0.000204   0.081792  -0.002495
 748   8   0.425442   4.819965   7.814076  -0.000010   0.081792  -0.000117
 749  15   0.520971   4.555271   6.913889  -0.000040   0.081792  -0.000491
 750  24   0.144858   4.715332   7.852845  -0.000244   0.081792  -0.002979
 751  15  -0.148275   1.120973   6.379731  -0.000049   0.089636  -0.000549
 752   8  -0.417392   0.939207   7.736070   0.000407   0.126693   0.003216
 753  15   0.648236   4.708156   6.369437  -0.000005   0.038415  -0.000140
 754   8   0.576830   5.047976   7.718948   0.000186   0.054302   0.003426
 755   8   5.106793   2.032173  12.643908  -0.000055   0.010019  -0.005517
 756  19   5.644847   1.867693  12.199318  -0.000074   0.010019  -0.007348
 757  23   4.915472   2.047772  12.871303  -0.000084   0.010019  -0.008421
 758   8   4.969357   1.481376  12.638484  -0.000052   0.010019  -0.005191
 759  19   5.523665   1.382036  12.194536  -0.000072   0.010019  -0.007195
 760  23   4.792082   1.553267  12.866434  -0.000075   0.010019  -0.007437
 761  19   6.179997   2.054839  11.949436  -0.000386   0.099437  -0.003878
 762   8   5.314818   2.243367  12.561908  -0.000001   0.140641  -0.000010
 763  19   5.938775   1.068401  11.960420  -0.000424   0.100013  -0.004240
 764   8   5.026490   1.106609  12.531013   0.000057   0.141454   0.000403
 765  23   4.681681   2.380111  13.285098  -0.000303   0.065609  -0.004616
 766  23   4.358596   3.401138  13.379122  -0.000531   0.144967  -0.003664
 767  23   3.406999   4.271049  13.557509  -0.000344   0.144967  -0.002372
 768  23   2.125977   4.398386  13.749530  -0.000519   0.144967  -0.003580
 769  23   1.014693   3.733529  13.880361  -0.000692   0.144967  -0.004774
 770  23   0.506169   2.535548  13.899023  -0.000789   0.144967  -0.005442
 771  23   0.798557   1.271248  13.798244  -0.000596   0.144967  -0.004109
 772  23   1.777925   0.433275  13.617294  -0.000507   0.144967  -0.003498
 773  23   3.062652   0.348153  13.426681  -0.000366   0.144967  -0.002527
 774  23   4.152132   1.049053  13.300680  -0.000666   0.144967  -0.004595
 775   8   4.788445   2.852244  12.959427  -0.000506   0.144418  -0.003501
 776   8   4.077062   4.119772  13.121240  -0.000091   0.144418  -0.000631
 777   8   2.756790   4.709500  13.340284  -0.000174   0.144418  -0.001205
 778   8   1.342085   4.391635  13.531204  -0.000454   0.144418  -0.003143
 779   8   0.384202   3.290035  13.619608  -0.000564   0.144418  -0.003907
 780   8   0.256388   1.833950  13.571048  -0.000517   0.144418  -0.003578
 781   8   1.008449   0.590758  13.404445  -0.000276   0.144418  -0.001913
 782   8   2.347335   0.044880  13.184719  -0.000117   0.144418  -0.000809
 783   8   3.751337   0.409024  12.997488  -0.000254   0.144418  -0.001759
 784   8   4.605803   1.227855  12.911074  -0.000229   0.080156  -0.002858
 785  24  -1.069769   1.337005   8.474009  -0.000161   0.069042  -0.002326
 786  24  -1.444429   1.271674   9.533028  -0.000535   0.154046  -0.003473
 787  24  -1.687809   1.892400  10.717649  -0.000684   0.154046  -0.004443
 788  24  -1.588870   3.101623  11.330717  -0.000740   0.154046  -0.004803
 789  24  -1.189921   4.382254  11.110071  -0.000783   0.154046  -0.005083
 790  24  -0.661560   5.186670  10.150065  -0.000597   0.154046  -0.003877
 791  24  -0.229726   5.170886   8.861216  -0.000444   0.154046  -0.002883
 792   8  -0.959982   0.956903   8.921623  -0.000235   0.150562  -0.001561
 793   8  -1.390838   1.187200  10.368240  -0.000324   0.150562  -0.002154
 794   8  -1.476677   2.274705  11.436573  -0.000573   0.150562  -0.003803
 795   8  -1.180791   3.754380  11.669782  -0.000622   0.150562  -0.004128
 796   8  -0.629708   4.993486  10.968143  -0.000406   0.150562  -0.002698
 797   8  -0.059082   5.462155   9.631689  -0.000165   0.150562  -0.001098
 798   8   0.271103   5.204784   8.462505   0.000021   0.084350   0.000246
 799  14   4.511925   8.756168   2.980669   0.000152   0.255223   0.000597
 800  14   5.447992   9.144748   3.512833  -0.000313   0.510337  -0.000613
 801  14   6.775089   8.918535   3.877255   0.000143   0.510337   0.000280
 802   9   4.383161   8.273077   4.500694  -0.000243   0.510337  -0.000477
 803   9   5.643252   8.483576   5.060177  -0.000279   0.510337  -0.000547
 804   9   6.700417   8.082891   5.239811   0.000382   0.255223   0.001496
 805  13   9.951208   6.033380   3.568379   0.000348   0.253853   0.001370
 806  13  10.338477   5.032340   3.204867  -0.000206   0.507568  -0.000406
 807  13  10.086381   3.857457   2.523427  -0.000165   0.507568  -0.000325
 808  10   9.650556   4.994570   4.759653   0.000023   0.507568   0.000045
 809  10   9.849724   3.745738   4.203764  -0.000404   0.507568  -0.000797
 810  10   9.421651   2.878309   3.613406   0.000090   0.253853   0.000355
 811  19   7.833990   0.825065   7.910096  -0.000401   0.245541  -0.001632
 812  19   8.235147   1.650133   8.462725  -0.001400   0.490822  -0.002852
 813  19   8.080292   2.842729   8.980242  -0.000831   0.490822  -0.001693
 814  10   8.532478   1.786293   6.758708  -0.000564   0.490822  -0.001149
 815  10   8.781822   2.903333   7.394428  -0.000583   0.490822  -0.001187
 816  10   8.453749   3.864716   7.733802   0.000138   0.245541   0.000562
 817  15   0.815729   4.789863   4.276003  -0.000078   0.256132  -0.000304
 818  15   0.378031   3.912361   3.664540  -0.000848   0.512190  -0.001657
 819  15   0.589967   2.643478   3.094043  -0.000444   0.512190  -0.000867
 820  11   1.100468   5.129723   2.749667  -0.000421   0.512190  -0.000822
 821  11   0.846198   3.938062   2.045578  -0.000390   0.512190  -0.000761
 822  11   1.251300   2.920960   1.675618   0.000319   0.256132   0.001246
 823  17   2.709389   4.989074  -2.381432   0.000382   0.255528   0.001493
 824  17   2.310646   6.002715  -2.011607  -0.000219   0.510966  -0.000428
 825  17   2.569597   7.192903  -1.319038  -0.000204   0.510966  -0.000400
 826  11   2.066693   4.712743  -0.949709   0.000081   0.510966   0.000159
 827  11   1.861530   5.978138  -0.384076  -0.000364   0.510966  -0.000712
 828  11   2.301700   6.855840   0.215193   0.000109   0.255528   0.000428
 829  16   3.584525  -0.450434   2.673903   0.000139   0.251799   0.000550
 830  16   4.634518  -0.829881   2.859381  -0.000689   0.503479  -0.001369
 831  16   5.878173  -0.608527   3.414620  -0.000663   0.503479  -0.001316
 832  12   4.447014   0.034619   1.420601  -0.000071   0.503479  -0.000141
 833  12   5.761209  -0.170817   1.787557  -0.000463   0.503479  -0.000919
 834  12   6.683744   0.220907   2.313245   0.000087   0.251799   0.000347
 835  18   8.136932   2.285515  -1.818841   0.000151   0.254852   0.000593
 836  18   7.198319   1.899778  -2.345148  -0.000317   0.509593  -0.000622
 837  18   5.870746   2.126837  -2.700243   0.000119   0.509593   0.000233
 838  12   7.329607   1.452292  -0.716941  -0.000205   0.509593  -0.000403
 839  12   6.067437   1.244329  -1.268100  -0.000245   0.509593  -0.000480
 840  12   5.010625   1.644779  -1.440072   0.000383   0.254852   0.001502
 841  22  11.452182   8.101940  -0.607380   0.000347   0.251551   0.001380
 842  22  11.820769   7.113851  -0.976798  -0.000311   0.502931  -0.000618
 843  22  11.562514   5.958008  -1.651711  -0.000268   0.502931  -0.000532
 844  13  11.150857   7.058618   0.592587   0.000142   0.502931   0.000282
 845  13  11.333185   5.828113   0.035102  -0.000247   0.502931  -0.000491
 846  13  10.906011   4.974875  -0.546409   0.000148   0.251551   0.000590
 847  20   5.966625  10.837350  -1.168628   0.000109   0.247488   0.000442
 848  20   6.862987  11.225174  -0.667988  -0.000379   0.494783  -0.000767
 849  20   8.144744  11.054976  -0.315649   0.000056   0.494783   0.000113
 850  14   5.836966  10.336517   0.368982  -0.000110   0.494783  -0.000223
 851  14   7.045871  10.569194   0.898530  -0.000176   0.494783  -0.000355
 852  14   8.073765  10.229641   1.079226   0.000304   0.247488   0.001230
 853  24  -0.299785   4.633360   7.728490  -0.000157   0.257864  -0.000611
 854  24  -1.004578   3.672655   7.567938  -0.001700   0.515846  -0.003296
 855  24  -1.121013   2.219477   7.666587  -0.001326   0.515846  -0.002571
 856  15  -0.101415   4.152863   6.285646  -0.000970   0.515846  -0.001880
 857  15  -0.695185   2.820467   6.200960  -0.001366   0.515846  -0.002648
 858  15  -0.536008   1.641149   6.372239  -0.000187   0.257864  -0.000726
 859  23   4.878165   1.739871  13.089483  -0.000016   0.168217  -0.000097
 860  19   5.982647   1.578067  12.174688  -0.000047   0.168217  -0.000278
 =====================================================

              5551361  WORDS OF DYNAMIC MEMORY USED
 EXECUTION OF GAMESS TERMINATED NORMALLY Wed Nov 23 00:53:18 2016
 DDI: 263640 bytes (0.3 MB / 0 MWords) used by master data server.

 ----------------------------------------
 CPU timing information for all processes
 ========================================
 0: 1057.192 + 0.360 = 1057.552
 ----------------------------------------
 ddikick.x: exited gracefully.
