----- GAMESS execution script -----

          ******************************************************
          *         GAMESS VERSION =  5 DEC 2014 (R1)          *
          *             FROM IOWA STATE UNIVERSITY             *
          * M.W.SCHMIDT, K.K.BALDRIDGE, J.A.BOATZ, S.T.ELBERT, *
          *   M.S.GORDON, J.H.JENSEN, S.KOSEKI, N.MATSUNAGA,   *
          *          K.A.NGUYEN, S.J.SU, T.L.WINDUS,           *
          *       TOGETHER WITH M.DUPUIS, J.A.MONTGOMERY       *
          *         J.COMPUT.CHEM.  14, 1347-1363(1993)        *
          **************** 64 BIT LINUX VERSION ****************

 EXECUTION OF GAMESS BEGUN Wed Nov 23 00:03:00 2016

            ECHO OF THE FIRST FEW INPUT CARDS -
 INPUT CARD>! SELECT RESTRICTED HARTREE-FOCK AS DEFAULT                                     
 INPUT CARD>$contrl scftyp=rhf $end                                                         
 INPUT CARD>                                                                                
 INPUT CARD>! THEORY: HF OR DFT                                                             
 INPUT CARD> $contrl mplevl=0 $end                                                          
 INPUT CARD>                                                                                
 INPUT CARD> $system timlim=10000 mwords=20 $end                                            
 INPUT CARD> $SCF DIRSCF=.TRUE. $end                                                        
 INPUT CARD>                                                                                
 INPUT CARD>                                                                                
 INPUT CARD>! BASIS SETS                                                                    
 INPUT CARD>! 6-311G(d,p)                                                                   
 INPUT CARD> $BASIS GBASIS=N311 NGAUSS=6 NDFUNC=1 NPFUNC=1 $END                             
 INPUT CARD>                                                                                
 INPUT CARD>! One of the following                                                          
 INPUT CARD> $guess guess=HUCKEL $end                                                       
 INPUT CARD>                                                                                
 INPUT CARD> $statpt projct=.FALSE. $end                                                    
 INPUT CARD> $STATPT IFREEZ(1)=1,2,3 $END                                                   
 INPUT CARD>                                                                                
 INPUT CARD>! Optimize the geometry with COSMO effects                                      
 INPUT CARD> $statpt opttol=0.0005 nstep=50 $end                                            
 INPUT CARD> $contrl nzvar=1 $end                                                           
 INPUT CARD> $zmat dlc=.t. auto=.t. $end                                                    
 INPUT CARD> $contrl runtyp=OPTIMIZE maxit=200 $end                                         
 INPUT CARD>                                                                                
 INPUT CARD>! Run COSMO on perfect conductor                                                
 INPUT CARD> $COSGMS PRFCND=.TRUE. $end                                                     
 INPUT CARD>                                                                                
 INPUT CARD>! Specifying RSOLV                                                              
 INPUT CARD> $COSGMS COSRAD = 1.4 $end                                                      
 INPUT CARD>                                                                                
 INPUT CARD>! available memory                                                              
 INPUT CARD> $SYSTEM MWORDS=40 $END                                                         
 INPUT CARD>                                                                                
 INPUT CARD> $DATA                                                                          
 INPUT CARD>Octanal, ID: C124130                                                            
 INPUT CARD>C1                                                                              
 INPUT CARD>C      6.0      4.4026000000    2.3616000000    2.0222000000                    
 INPUT CARD>C      6.0      3.5912000000    3.5873000000    1.6344000000                    
 INPUT CARD>C      6.0      2.5166000000    3.8841000000    2.6684000000                    
 INPUT CARD>C      6.0      5.4811000000    2.0652000000    0.9921000000                    
 INPUT CARD>C      6.0      1.6969000000    5.0977000000    2.2721000000                    
 INPUT CARD>C      6.0      6.3043000000    0.8371000000    1.3506000000                    
 INPUT CARD>C      6.0      0.6117000000    5.4731000000    3.2466000000                    
 INPUT CARD>C      6.0      7.2905000000    1.1008000000    2.4667000000                    
 INPUT CARD>O      8.0      0.3808000000    4.8941000000    4.2825000000                    
 INPUT CARD>H      1.0      4.8618000000    2.5129000000    3.0206000000                    
 INPUT CARD>H      1.0      3.7334000000    1.4846000000    2.1338000000                    
 INPUT CARD>H      1.0      3.1292000000    3.4361000000    0.6378000000                    
   40000000 WORDS OF MEMORY AVAILABLE

     BASIS OPTIONS
     -------------
     GBASIS=N311         IGAUSS=       6      POLAR=POPN311 
     NDFUNC=       1     NFFUNC=       0     DIFFSP=       F
     NPFUNC=       1      DIFFS=       F     BASNAM=        


     RUN TITLE
     ---------
 Octanal, ID: C124130                                                            

 THE POINT GROUP OF THE MOLECULE IS C1      
 THE ORDER OF THE PRINCIPAL AXIS IS     0

 ATOM      ATOMIC                      COORDINATES (BOHR)
           CHARGE         X                   Y                   Z
 C           6.0     8.3197076335        4.4627768926        3.8214038924
 C           6.0     6.7863839671        6.7790140358        3.0885681543
 C           6.0     4.7556844207        7.3398847089        5.0425448256
 C           6.0    10.3577771113        3.9026621098        1.8747971524
 C           6.0     3.2066760286        9.6332561676        4.2936464167
 C           6.0    11.9133995444        1.5818896243        2.5522639190
 C           6.0     1.1559453867       10.3426593034        6.1351843917
 C           6.0    13.7770473135        2.0802103673        4.6613870939
 O           8.0     0.7196076561        9.2485079565        8.0927515424
 H           1.0     9.1874698071        4.7486924345        5.7081063185
 H           1.0     7.0551030026        2.8054872014        4.0322973126
 H           1.0     5.9133305608        6.4932874664        1.2052672350
 H           1.0     8.0519334611        8.4351698914        2.8744621999
 H           1.0     5.6313834434        7.6484769627        6.9203655396
 H           1.0     3.5041188990        5.6765478945        5.2770598207
 H           1.0     9.4673382259        3.6197701295        0.0000000000
 H           1.0    11.6144448931        5.5648650886        1.6555889378
 H           1.0     2.3092451570        9.3212624070        2.4248963874
 H           1.0     4.4531392901       11.3007503792        4.0485489561
 H           1.0    10.6455823792        0.0000000000        3.0777967162
 H           1.0    12.9485914405        0.9305010764        0.8528333383
 H           1.0     0.0000000000       11.9939018715        5.6005809098
 H           1.0    14.9095600979        0.3928740328        5.0748591400
 H           1.0    15.0947532447        3.6072979380        4.1728929261
 H           1.0    12.8231136349        2.6304985749        6.4212889063

          INTERNUCLEAR DISTANCES (ANGS.)




     $CONTRL OPTIONS
     ---------------
 SCFTYP=RHF          RUNTYP=OPTIMIZE     EXETYP=RUN     
 MPLEVL=       0     CITYP =NONE         CCTYP =NONE         VBTYP =NONE    
 DFTTYP=NONE         TDDFT =NONE    
 MULT  =       1     ICHARG=       0     NZVAR =       1     COORD =UNIQUE  
 PP    =NONE         RELWFN=NONE         LOCAL =NONE         NUMGRD=       F
 ISPHER=      -1     NOSYM =       0     MAXIT =     200     UNITS =ANGS    
 PLTORB=       F     MOLPLT=       F     AIMPAC=       F     FRIEND=        
 NPRINT=       7     IREST =       0     GEOM  =INPUT   
 NORMF =       0     NORMP =       0     ITOL  =      20     ICUT  =       9
 INTTYP=BEST         GRDTYP=BEST         QMTTOL= 1.0E-06

     $SYSTEM OPTIONS
     ---------------
  REPLICATED MEMORY=    40000000 WORDS (ON EVERY NODE).
 DISTRIBUTED MEMDDI=           0 MILLION WORDS IN AGGREGATE,
 MEMDDI DISTRIBUTED OVER   1 PROCESSORS IS           0 WORDS/PROCESSOR.
 TOTAL MEMORY REQUESTED ON EACH PROCESSOR=    40000000 WORDS.
 TIMLIM=       10000.00 MINUTES, OR       6.9 DAYS.
 PARALL= F  BALTYP=  DLB     KDIAG=    0  COREFL= F
 MXSEQ2=     300 MXSEQ3=     150  mem10=         0

     $COSGMS OPTIONS
     ---------------
     EPSI  =   INFTY     NSPA  =      92     COSRAD=    1.40
     DISEX =   10.00     OUTCHG=DBLCAV       COSBUG=       F
     COSWRT=       F     DCOSMO=       F

     SYMMETRY COORDINATES WILL NOT BE USED FOR 
     THE COSMO CALCULATION, EVEN IF SPECIFIED:
         -- SWITCHING TO C1 POINT GROUP --


     DEFINITION OF CAVITY
     ---------------------------
     ATOM         COORDINATES           RADIUS 
     1    8.3197    4.4628    3.8214    2.0000
     2    6.7864    6.7790    3.0886    2.0000
     3    4.7557    7.3399    5.0425    2.0000
     4   10.3578    3.9027    1.8748    2.0000
     5    3.2067    9.6333    4.2936    2.0000
     6   11.9134    1.5819    2.5523    2.0000
     7    1.1559   10.3427    6.1352    2.0000
     8   13.7770    2.0802    4.6614    2.0000
     9    0.7196    9.2485    8.0928    1.7200
    10    9.1875    4.7487    5.7081    1.3000
    11    7.0551    2.8055    4.0323    1.3000
    12    5.9133    6.4933    1.2053    1.3000
    13    8.0519    8.4352    2.8745    1.3000
    14    5.6314    7.6485    6.9204    1.3000
    15    3.5041    5.6765    5.2771    1.3000
    16    9.4673    3.6198    0.0000    1.3000
    17   11.6144    5.5649    1.6556    1.3000
    18    2.3092    9.3213    2.4249    1.3000
    19    4.4531   11.3008    4.0485    1.3000
    20   10.6456    0.0000    3.0778    1.3000
    21   12.9486    0.9305    0.8528    1.3000
    22    0.0000   11.9939    5.6006    1.3000
    23   14.9096    0.3929    5.0749    1.3000
    24   15.0948    3.6073    4.1729    1.3000
    25   12.8231    2.6305    6.4213    1.3000

          ----------------
          PROPERTIES INPUT
          ----------------

     MOMENTS            FIELD           POTENTIAL          DENSITY
 IEMOM =       1   IEFLD =       0   IEPOT =       0   IEDEN =       0
 WHERE =COMASS     WHERE =NUCLEI     WHERE =NUCLEI     WHERE =NUCLEI  
 OUTPUT=BOTH       OUTPUT=BOTH       OUTPUT=BOTH       OUTPUT=BOTH    
 IEMINT=       0   IEFINT=       0                     IEDINT=       0
                                                       MORB  =       0
          EXTRAPOLATION IN EFFECT
          SOSCF IN EFFECT
 ORBITAL PRINTING OPTION: NPREO=     1   267     2     1

     -------------------------------
     INTEGRAL TRANSFORMATION OPTIONS
     -------------------------------
     NWORD  =            0
     CUTOFF = 1.0E-09     MPTRAN =       0
     DIRTRF =       T     AOINTS =DUP     

          ----------------------
          INTEGRAL INPUT OPTIONS
          ----------------------
 NOPK  =       1 NORDER=       0 SCHWRZ=       T


 -----------------------------------------------
  STATISTICS ON AUTOMATIC COORDINATE GENERATION 
 -----------------------------------------------
  NUMBER OF USER SPECIFIED BONDS                             0
  NUMBER OF BONDS                                           24
  NUMBER OF ANGLES                                          45
  NUMBER OF TORSIONS                                        60
  NUMBER OF EXTRA COORD.                                     0
  NUMBER OF EXTRA COORD. FOR CONSTRAINTS                     0
  NUMBER OF CONSTRAINED COORD.                               0

  TOTAL NUMBER OF PRIMITIVES                               129
 -----------------------------------------------

   --- ENCODED Z MATRIX ---
 COORD  TYPE   I   J   K   L   M   N
    1      1    1   2
    2      1    1  10
    3      1    1   4
    4      1    1  11
    5      1    2  13
    6      1    2  12
    7      1    2   3
    8      1    3  15
    9      1    3  14
   10      1    3   5
   11      1    4  16
   12      1    4   6
   13      1    4  17
   14      1    5   7
   15      1    5  19
   16      1    5  18
   17      1    6   8
   18      1    6  21
   19      1    6  20
   20      1    7  22
   21      1    7   9
   22      1    8  25
   23      1    8  24
   24      1    8  23
   25      2    1   4  17
   26      2    1   4  16
   27      2    1   4   6
   28      2    1   2  13
   29      2    1   2   3
   30      2    1   2  12
   31      2    2   1  10
   32      2    2   1  11
   33      2    2   3   5
   34      2    2   3  14
   35      2    2   3  15
   36      2    2   1   4
   37      2    3   5  18
   38      2    3   2  13
   39      2    3   5  19
   40      2    3   5   7
   41      2    3   2  12
   42      2    4   1  10
   43      2    4   6   8
   44      2    4   6  21
   45      2    4   6  20
   46      2    4   1  11
   47      2    5   3  14
   48      2    5   3  15
   49      2    5   7   9
   50      2    5   7  22
   51      2    6   8  24
   52      2    6   4  17
   53      2    6   4  16
   54      2    6   8  23
   55      2    6   8  25
   56      2    7   5  19
   57      2    7   5  18
   58      2    8   6  20
   59      2    8   6  21
   60      2    9   7  22
   61      2   10   1  11
   62      2   12   2  13
   63      2   14   3  15
   64      2   16   4  17
   65      2   18   5  19
   66      2   20   6  21
   67      2   23   8  24
   68      2   23   8  25
   69      2   24   8  25
   70      3    1   4   6  20
   71      3    1   4   6  21
   72      3    1   2   3   5
   73      3    1   4   6   8
   74      3    1   2   3  14
   75      3    1   2   3  15
   76      3    2   1   4   6
   77      3    2   1   4  17
   78      3    2   1   4  16
   79      3    2   3   5  18
   80      3    2   3   5  19
   81      3    2   3   5   7
   82      3    3   5   7   9
   83      3    3   5   7  22
   84      3    3   2   1  11
   85      3    3   2   1   4
   86      3    3   2   1  10
   87      3    4   1   2  13
   88      3    4   1   2  12
   89      3    4   6   8  23
   90      3    4   6   8  24
   91      3    4   6   8  25
   92      3    5   3   2  12
   93      3    5   3   2  13
   94      3    6   4   1  11
   95      3    6   4   1  10
   96      3    7   5   3  14
   97      3    7   5   3  15
   98      3    8   6   4  17
   99      3    8   6   4  16
  100      3    9   7   5  18
  101      3    9   7   5  19
  102      3   10   1   2  13
  103      3   10   1   4  16
  104      3   10   1   2  12
  105      3   10   1   4  17
  106      3   11   1   2  13
  107      3   11   1   4  17
  108      3   11   1   2  12
  109      3   11   1   4  16
  110      3   12   2   3  15
  111      3   12   2   3  14
  112      3   13   2   3  15
  113      3   13   2   3  14
  114      3   14   3   5  19
  115      3   14   3   5  18
  116      3   15   3   5  19
  117      3   15   3   5  18
  118      3   16   4   6  20
  119      3   16   4   6  21
  120      3   17   4   6  20
  121      3   17   4   6  21
  122      3   18   5   7  22
  123      3   19   5   7  22
  124      3   20   6   8  25
  125      3   20   6   8  23
  126      3   20   6   8  24
  127      3   21   6   8  25
  128      3   21   6   8  23
  129      3   21   6   8  24

          INDEP./SYM. INTERNAL COORDINATES
          --------------------------------
 CRD  1=  -0.1290 ( 26)  0.3438 ( 27) -0.1396 ( 28)  0.4572 ( 29) -0.1412 ( 30)
           0.1272 ( 31)  0.1202 ( 32) -0.3397 ( 33)  0.1178 ( 34)  0.1031 ( 35)
          -0.3976 ( 36) -0.1274 ( 38)  0.2220 ( 40) -0.1539 ( 41)  0.1362 ( 42)
           0.1056 ( 46)  0.1002 ( 47)
 CRD  2=   0.1625 (  1)  0.1097 (  3)  0.1900 ( 12) -0.1016 ( 26)  0.2499 ( 27)
          -0.1237 ( 32)  0.2455 ( 33)  0.1054 ( 36)  0.5030 ( 43) -0.1480 ( 44)
          -0.1597 ( 45) -0.1327 ( 48) -0.1626 ( 53) -0.1325 ( 58) -0.1718 ( 59)
          -0.1161 ( 71)  0.1686 ( 72) -0.1045 ( 73)  0.1071 ( 75)  0.2404 ( 76)
           0.1292 ( 78) -0.1522 ( 85)  0.1183 ( 94)  0.1132 ( 95)
 CRD  3=   0.1175 (  1) -0.1125 ( 25) -0.1490 ( 26)  0.4086 ( 27)  0.1317 ( 32)
           0.3524 ( 33) -0.1084 ( 34) -0.1854 ( 36)  0.1515 ( 37) -0.3143 ( 40)
          -0.1228 ( 43)  0.1031 ( 45) -0.1844 ( 47) -0.1036 ( 49) -0.2079 ( 52)
          -0.1975 ( 72) -0.1271 ( 74) -0.2040 ( 76) -0.1401 ( 77)  0.1101 ( 85)
          -0.1103 ( 94)
 CRD  4=   0.2787 (  1)  0.2484 (  3)  0.3136 (  7)  0.2200 ( 10)  0.1784 ( 12)
           0.1473 ( 14)  0.1791 ( 29) -0.1393 ( 31)  0.3820 ( 36) -0.1102 ( 38)
           0.3492 ( 40) -0.1741 ( 42)  0.1362 ( 49) -0.1621 ( 56) -0.1143 ( 57)
          -0.1374 ( 72) -0.1101 ( 76)  0.1057 ( 81)  0.1473 ( 85)
 CRD  5=   0.1695 ( 25) -0.1290 ( 26) -0.1140 ( 31)  0.1276 ( 34) -0.1521 ( 35)
           0.1051 ( 36)  0.1576 ( 38) -0.1679 ( 41)  0.1360 ( 42) -0.2340 ( 43)
           0.1296 ( 44) -0.2021 ( 46) -0.1288 ( 51) -0.1015 ( 52) -0.1080 ( 57)
           0.1558 ( 58) -0.1647 ( 70) -0.1292 ( 71) -0.2258 ( 73) -0.1658 ( 79)
          -0.1630 ( 80) -0.2373 ( 81) -0.1941 ( 84) -0.3437 ( 85) -0.1792 ( 86)
          -0.1823 ( 87) -0.1855 ( 88) -0.1052 ( 99)
 CRD  6=  -0.1427 (  1) -0.1870 (  7) -0.1814 ( 10)  0.1748 ( 17) -0.1130 ( 26)
          -0.2751 ( 29)  0.2320 ( 30) -0.1443 ( 31) -0.2651 ( 33) -0.1353 ( 39)
           0.3478 ( 43) -0.1315 ( 45)  0.1969 ( 48)  0.1604 ( 55) -0.1662 ( 59)
          -0.2513 ( 72) -0.1412 ( 73) -0.1368 ( 74) -0.1459 ( 75) -0.1130 ( 76)
          -0.1184 ( 77) -0.1045 ( 83) -0.1204 ( 92) -0.1201 ( 93)
 CRD  7=  -0.1072 ( 14)  0.1489 ( 25) -0.3244 ( 27) -0.1690 ( 28)  0.4288 ( 29)
           0.1548 ( 37) -0.1401 ( 38) -0.4124 ( 40) -0.1694 ( 41)  0.1629 ( 43)
          -0.1380 ( 45) -0.2022 ( 49)  0.1424 ( 50)  0.1025 ( 53)  0.1402 ( 56)
           0.1399 ( 57)  0.1004 ( 62) -0.1063 ( 72)
 CRD  8=  -0.1099 (  1) -0.2371 (  3)  0.1120 (  7)  0.2299 ( 10) -0.1873 ( 12)
           0.1730 ( 14) -0.2814 ( 27) -0.1359 ( 28)  0.1274 ( 31)  0.1690 ( 32)
           0.3397 ( 33) -0.1355 ( 34) -0.1404 ( 35) -0.3401 ( 36)  0.2080 ( 40)
           0.1882 ( 43) -0.1458 ( 45) -0.1226 ( 47)  0.1188 ( 49)  0.1253 ( 52)
           0.1110 ( 53) -0.1025 ( 56) -0.1045 ( 57) -0.1123 ( 72) -0.1037 ( 92)
 CRD  9=  -0.1505 ( 25)  0.1294 ( 26)  0.1814 ( 34) -0.1785 ( 35)  0.1170 ( 37)
           0.1064 ( 38) -0.1097 ( 39) -0.1265 ( 41)  0.1064 ( 43) -0.1480 ( 44)
          -0.1289 ( 47)  0.1305 ( 48)  0.2386 ( 51) -0.1859 ( 55)  0.1361 ( 56)
          -0.1351 ( 57) -0.2262 ( 58)  0.1464 ( 59)  0.1448 ( 70)  0.1379 ( 71)
           0.2905 ( 73) -0.1779 ( 79) -0.1791 ( 80) -0.2694 ( 81) -0.1224 ( 82)
          -0.1196 ( 86) -0.1307 ( 96) -0.1302 ( 97)  0.1710 ( 98)  0.1755 ( 99)
 CRD 10=  -0.1413 (  3)  0.1181 ( 11)  0.2079 ( 12)  0.5656 ( 17) -0.1274 ( 37)
           0.1367 ( 39)  0.1199 ( 47) -0.1118 ( 48)  0.1266 ( 51)  0.2053 ( 53)
           0.1979 ( 54)  0.1282 ( 55) -0.1677 ( 67) -0.1735 ( 68) -0.1448 ( 69)
           0.1871 ( 72) -0.1814 ( 76) -0.1193 ( 81)  0.1196 ( 82)  0.1764 ( 83)
           0.1522 ( 92)  0.1460 ( 93) -0.1316 ( 94) -0.1518 ( 95)
 CRD 11=   0.2599 (  1) -0.3873 (  3) -0.1405 (  7)  0.2027 ( 10) -0.2098 ( 12)
          -0.1519 ( 17) -0.1093 ( 18)  0.1428 ( 36) -0.1339 ( 42) -0.1734 ( 44)
           0.1547 ( 45) -0.1736 ( 46) -0.1698 ( 51) -0.2487 ( 54)  0.2896 ( 55)
          -0.1100 ( 58)  0.1800 ( 67)  0.1896 ( 89)  0.1344 ( 90)  0.1692 ( 91)
 CRD 12=   0.2118 (  1) -0.1589 (  3) -0.2893 (  7)  0.2556 ( 10)  0.3094 ( 12)
           0.1526 ( 31)  0.1684 ( 37)  0.1653 ( 48) -0.1791 ( 51)  0.1566 ( 52)
           0.3439 ( 54) -0.1121 ( 55) -0.1005 ( 68)  0.1161 ( 69)  0.1613 ( 76)
           0.1500 ( 78) -0.1340 ( 83) -0.1321 ( 93)  0.1062 ( 94)
 CRD 13=   0.1203 (  7) -0.1198 ( 10)  0.1297 ( 17) -0.1095 ( 30)  0.1286 ( 31)
          -0.1598 ( 32)  0.1142 ( 34)  0.1393 ( 37) -0.1837 ( 39) -0.1735 ( 42)
           0.1698 ( 46) -0.1295 ( 47) -0.3405 ( 51)  0.3729 ( 55)  0.1997 ( 56)
          -0.1488 ( 57)  0.1669 ( 58) -0.1782 ( 68)  0.1003 ( 70) -0.1707 ( 81)
          -0.1406 ( 82)  0.1607 ( 85)  0.1598 ( 87)  0.1232 ( 88) -0.1085 ( 96)
          -0.1533 ( 97) -0.1228 ( 99)
 CRD 14=  -0.1208 (  1)  0.2059 ( 10)  0.5452 ( 14)  0.2197 ( 20) -0.1501 ( 33)
          -0.1161 ( 39)  0.1052 ( 48) -0.2349 ( 49)  0.5127 ( 50)  0.1391 ( 56)
           0.1333 ( 57) -0.2777 ( 60)
 CRD 15=   0.2863 (  3)  0.1472 (  4) -0.2418 (  7)  0.3262 ( 10) -0.1316 ( 14)
          -0.1392 ( 17) -0.1153 ( 35)  0.2098 ( 44) -0.1094 ( 45)  0.1526 ( 46)
           0.1203 ( 47) -0.1224 ( 49) -0.2412 ( 54) -0.1442 ( 57) -0.2108 ( 59)
           0.1037 ( 68) -0.1153 ( 76) -0.1624 ( 81)  0.1043 ( 83)  0.1397 ( 85)
           0.1344 ( 88) -0.1101 ( 89) -0.1373 ( 90) -0.1582 ( 96) -0.1132 (101)
 CRD 16=   0.1504 (  3)  0.2090 ( 10) -0.4701 ( 12) -0.1860 ( 14)  0.2999 ( 17)
           0.1405 ( 25) -0.1115 ( 32)  0.1335 ( 37) -0.1686 ( 44)  0.2345 ( 51)
          -0.1708 ( 52) -0.1315 ( 53)  0.1220 ( 58)  0.1974 ( 59)  0.1028 ( 60)
          -0.1362 ( 67) -0.1219 ( 69) -0.1299 ( 71)  0.1470 ( 77) -0.1285 (119)
           0.1477 (120)
 CRD 17=   0.3721 (  1) -0.1987 (  7) -0.1211 (  8) -0.2458 ( 10)  0.2206 ( 14)
           0.1092 ( 21)  0.1030 ( 23) -0.1205 ( 26)  0.1807 ( 28)  0.1552 ( 31)
          -0.1629 ( 38) -0.1977 ( 39)  0.1851 ( 49)  0.3056 ( 51) -0.1087 ( 52)
          -0.1769 ( 54) -0.1257 ( 55)  0.1931 ( 56) -0.1316 ( 60)  0.1375 ( 68)
          -0.1139 ( 95)
 CRD 18=   0.2026 (  1)  0.1857 (  3) -0.2669 (  7) -0.1060 (  9) -0.1226 ( 10)
          -0.1595 ( 12)  0.1566 ( 14) -0.1025 ( 25)  0.2137 ( 26)  0.2041 ( 30)
          -0.1105 ( 35) -0.2402 ( 37)  0.1658 ( 39) -0.2032 ( 41) -0.1622 ( 45)
           0.1632 ( 49) -0.1577 ( 51)  0.1150 ( 52) -0.1952 ( 53)  0.1383 ( 54)
          -0.1171 ( 56)  0.2100 ( 57)  0.1302 ( 58)  0.1308 ( 70) -0.1007 ( 75)
           0.1527 ( 82)  0.1226 ( 83)  0.1096 ( 94)
 CRD 19=   0.1306 (  7)  0.1035 ( 12)  0.2550 ( 31) -0.2142 ( 32)  0.1837 ( 34)
          -0.1192 ( 35) -0.1611 ( 37)  0.1827 ( 38)  0.1423 ( 39) -0.1133 ( 41)
          -0.2229 ( 42) -0.1315 ( 43)  0.1213 ( 44)  0.2072 ( 46) -0.1335 ( 47)
           0.1260 ( 48)  0.1715 ( 51)  0.1049 ( 53) -0.2488 ( 54)  0.1318 ( 55)
          -0.2013 ( 56)  0.1752 ( 57) -0.1448 ( 69)  0.1324 ( 77)  0.1749 ( 78)
          -0.1012 ( 80) -0.1201 ( 84) -0.1416 ( 86)  0.1268 ( 87)  0.1539 ( 96)
           0.1227 ( 97)
 CRD 20=   0.2091 (  1) -0.2193 (  3)  0.1813 (  6)  0.3017 (  7)  0.1000 (  9)
          -0.1238 ( 11) -0.1940 ( 12) -0.1381 ( 14) -0.1353 ( 16) -0.1121 ( 21)
          -0.1087 ( 22) -0.1248 ( 29)  0.1012 ( 32)  0.1055 ( 34) -0.1062 ( 37)
          -0.2111 ( 45) -0.2249 ( 49)  0.1296 ( 50)  0.2096 ( 54) -0.2874 ( 55)
           0.1239 ( 58) -0.1132 ( 59) -0.1043 ( 67)  0.1346 ( 69)  0.1067 ( 83)
          -0.1052 ( 98)
 CRD 21=  -0.2664 ( 28)  0.2827 ( 30)  0.1058 ( 31) -0.2556 ( 34)  0.2729 ( 35)
           0.1217 ( 37)  0.2621 ( 38) -0.1335 ( 39) -0.2462 ( 41) -0.1342 ( 42)
           0.1312 ( 46)  0.2823 ( 47) -0.2860 ( 48)  0.1564 ( 56) -0.1605 ( 57)
          -0.1707 ( 74) -0.1752 ( 75)  0.1445 ( 79)  0.1429 ( 80) -0.1351 ( 84)
          -0.1403 ( 86)  0.1010 ( 87)  0.1822 ( 92)  0.1761 ( 93) -0.1022 ( 96)
          -0.1099 ( 97)
 CRD 22=   0.2318 (  1)  0.1507 (  2)  0.1002 (  3)  0.1761 (  5)  0.1412 (  7)
          -0.1230 ( 15)  0.1458 ( 17)  0.1617 ( 18) -0.1553 ( 25)  0.1436 ( 26)
           0.1146 ( 28) -0.1286 ( 29)  0.2105 ( 32) -0.1323 ( 36) -0.1347 ( 39)
           0.2021 ( 42) -0.1270 ( 43)  0.1047 ( 44) -0.1251 ( 46) -0.1933 ( 49)
           0.1210 ( 50)  0.1921 ( 52) -0.1330 ( 53) -0.2109 ( 54)  0.2790 ( 55)
          -0.1806 ( 69)  0.1119 ( 70) -0.1066 ( 87) -0.1302 ( 88)  0.1243 ( 94)
 CRD 23=   0.1706 (  1)  0.1124 (  2)  0.2800 (  3)  0.1526 (  4) -0.1861 ( 10)
           0.1185 ( 11)  0.1269 ( 13) -0.1041 ( 14) -0.1160 ( 15) -0.1166 ( 16)
           0.1336 ( 20) -0.1308 ( 21)  0.2632 ( 25) -0.1578 ( 27)  0.1192 ( 31)
          -0.1531 ( 36) -0.1103 ( 37) -0.1022 ( 39)  0.1705 ( 40)  0.1027 ( 43)
          -0.1716 ( 44)  0.1314 ( 45)  0.1241 ( 46) -0.2469 ( 49)  0.1648 ( 50)
          -0.1743 ( 51) -0.1453 ( 52)  0.1517 ( 53)  0.1085 ( 54) -0.2084 ( 58)
           0.1107 ( 65) -0.1056 ( 95)  0.1353 ( 98)
 CRD 24=  -0.2148 (  1) -0.1194 (  2) -0.1473 (  3) -0.1292 (  4) -0.1613 (  5)
          -0.1555 (  6) -0.2537 (  7) -0.1742 (  8) -0.1709 (  9) -0.2335 ( 10)
          -0.1411 ( 15) -0.1519 ( 16)  0.1500 ( 20) -0.1378 ( 21) -0.1098 ( 25)
           0.2197 ( 29)  0.2351 ( 33) -0.1038 ( 34)  0.1687 ( 36) -0.1308 ( 37)
          -0.1274 ( 39)  0.2205 ( 40) -0.2448 ( 49)  0.1685 ( 50)  0.1243 ( 62)
           0.1344 ( 63)  0.1374 ( 65)
 CRD 25=  -0.2607 (  5)  0.2658 (  6) -0.2004 ( 11)  0.2778 ( 13)  0.2467 ( 15)
          -0.2468 ( 16)  0.1412 ( 19) -0.1090 ( 37)  0.1088 ( 39) -0.1105 ( 43)
           0.1130 ( 45)  0.1565 ( 59) -0.1104 ( 70) -0.1685 ( 71) -0.1425 ( 72)
          -0.1546 ( 74) -0.1532 ( 75)  0.1586 ( 76) -0.1052 ( 81)  0.2136 ( 83)
           0.1456 ( 84)  0.1526 ( 86)  0.1532 ( 94)  0.1563 ( 95) -0.1554 ( 96)
          -0.1560 ( 97)
 CRD 26=   0.2301 ( 13) -0.3851 ( 18)  0.4765 ( 19) -0.1561 ( 22)  0.1418 ( 23)
           0.2172 ( 26) -0.1092 ( 27)  0.1180 ( 45)  0.1518 ( 51)  0.1342 ( 52)
          -0.1213 ( 53) -0.1285 ( 55) -0.1145 ( 67)  0.1041 ( 68) -0.1505 ( 73)
           0.2258 ( 89)  0.1812 ( 90)  0.1822 ( 91) -0.1793 ( 98) -0.2686 ( 99)
 CRD 27=   0.2572 (  2) -0.2473 (  4)  0.2864 (  8) -0.2848 (  9)  0.2888 ( 11)
          -0.2641 ( 13)  0.2508 ( 15) -0.2526 ( 16) -0.1381 ( 18)  0.1035 ( 31)
          -0.1139 ( 59)  0.1055 ( 70)  0.1401 ( 71)  0.1420 ( 83) -0.1188 ( 87)
          -0.1196 ( 88) -0.1305 ( 92) -0.1307 ( 93) -0.1145 ( 94) -0.1180 ( 95)
          -0.1047 ( 96) -0.1049 ( 97)
 CRD 28=  -0.1530 ( 14) -0.5118 ( 20) -0.6076 ( 21)  0.1983 ( 49)  0.2676 ( 50)
          -0.4659 ( 60)
 CRD 29=  -0.1732 ( 17) -0.5029 ( 22) -0.5032 ( 23) -0.4798 ( 24)  0.1766 ( 51)
           0.1940 ( 54)  0.1781 ( 55) -0.1988 ( 67) -0.2011 ( 68) -0.1891 ( 69)
 CRD 30=  -0.3012 (  2)  0.2949 (  4)  0.3229 (  5) -0.3230 (  6)  0.2935 (  8)
          -0.2949 (  9) -0.2104 ( 11)  0.1722 ( 13)  0.1876 ( 15) -0.1894 ( 16)
           0.1124 ( 18) -0.1070 ( 77) -0.1015 ( 78)  0.1008 ( 79)  0.1005 ( 80)
           0.1073 ( 83)
 CRD 31=   0.1143 ( 15) -0.1143 ( 16) -0.1020 ( 18)  0.1086 ( 25) -0.1207 ( 28)
           0.1202 ( 30) -0.1185 ( 31)  0.1228 ( 32)  0.1079 ( 34) -0.1079 ( 35)
           0.1287 ( 38) -0.1277 ( 41)  0.1256 ( 42) -0.1273 ( 46) -0.1280 ( 47)
           0.1281 ( 48) -0.1263 ( 52)  0.1150 ( 53)  0.1105 ( 56) -0.1106 ( 57)
           0.1060 ( 58) -0.1100 ( 59)  0.1149 ( 83)  0.1027 (100)  0.1027 (101)
           0.1535 (102)  0.1446 (103)  0.1529 (104)  0.1499 (105)  0.1549 (106)
           0.1519 (107)  0.1544 (108)  0.1467 (109)  0.1494 (110)  0.1494 (111)
           0.1499 (112)  0.1499 (113)  0.1366 (114)  0.1366 (115)  0.1367 (116)
           0.1367 (117)  0.1227 (118)  0.1257 (119)  0.1316 (120)  0.1346 (121)
           0.1300 (122)  0.1299 (123)
 CRD 32=  -0.1677 (  2)  0.1706 (  4)  0.1888 (  5) -0.1881 (  6) -0.1009 (  9)
           0.1376 ( 13)  0.1111 ( 19)  0.1130 ( 25) -0.1056 ( 26) -0.1073 ( 34)
           0.1073 ( 35) -0.1009 ( 45) -0.1101 ( 56)  0.1102 ( 57)  0.1187 ( 58)
          -0.1134 ( 59) -0.1245 ( 82) -0.1371 ( 83) -0.1691 (100) -0.1691 (101)
           0.1143 (103)  0.1240 (105)  0.1257 (107)  0.1160 (109) -0.1629 (114)
          -0.1630 (115) -0.1629 (116) -0.1630 (117)  0.1663 (118)  0.1656 (119)
           0.1684 (120)  0.1677 (121) -0.1818 (122) -0.1818 (123)  0.1006 (124)
           0.1026 (125)  0.1003 (126)
 CRD 33=   0.1549 ( 18)  0.1531 ( 19)  0.2853 ( 22)  0.3102 ( 23) -0.6366 ( 24)
          -0.1544 ( 67) -0.1663 ( 68)  0.3293 ( 69) -0.1701 ( 90)  0.1756 ( 91)
           0.1866 (124) -0.1590 (126)  0.1621 (127) -0.1836 (129)
 CRD 34=   0.5527 ( 22) -0.5384 ( 23) -0.2954 ( 67)  0.2874 ( 68)  0.2261 ( 89)
           0.2220 (125)  0.2225 (128)
 CRD 35=  -0.6025 ( 15) -0.6014 ( 16)  0.1094 ( 37)  0.1093 ( 39) -0.2774 ( 65)
          -0.1045 ( 79)  0.1043 ( 80)  0.1366 (100) -0.1363 (101)  0.1010 (114)
          -0.1078 (115)  0.1080 (116) -0.1009 (117)  0.1367 (122) -0.1362 (123)
 CRD 36=  -0.3814 (  2) -0.3723 (  4)  0.3290 (  5)  0.3377 (  6) -0.2091 (  8)
          -0.2016 (  9)  0.2532 ( 11)  0.2923 ( 13) -0.1422 ( 18) -0.2069 ( 19)
          -0.1278 ( 61)  0.1126 ( 62) -0.1067 (103)  0.1132 (104) -0.1208 (106)
 CRD 37=   0.3082 (  5)  0.3020 (  6) -0.3295 (  8) -0.3324 (  9) -0.2777 ( 11)
          -0.3379 ( 13)  0.2368 ( 18)  0.3100 ( 19)  0.1135 ( 62) -0.1230 ( 63)
          -0.1211 ( 64)  0.1084 ( 66) -0.1148 (111)  0.1170 (112) -0.1073 (118)
           0.1085 (121)
 CRD 38=   0.3456 (  2)  0.3470 (  4) -0.1065 (  5) -0.1071 (  6) -0.3775 (  8)
          -0.3886 (  9)  0.1036 ( 11)  0.1524 ( 13) -0.2433 ( 18) -0.2713 ( 19)
           0.1459 ( 61) -0.1627 ( 63) -0.1054 ( 66)
 CRD 39=   0.2757 (  2)  0.2627 (  4)  0.3928 (  5)  0.3776 (  6)  0.2844 (  8)
           0.2521 (  9) -0.2193 ( 18) -0.1996 ( 19)  0.1298 ( 61)  0.1864 ( 62)
           0.1304 ( 63)  0.1362 (108) -0.1089 (110)  0.1267 (113)
 CRD 40=  -0.1390 (  2) -0.2127 (  4) -0.1201 (  6) -0.1057 (  9) -0.3395 ( 11)
          -0.3979 ( 13) -0.4013 ( 18) -0.2479 ( 19)  0.1105 ( 22)  0.1111 ( 45)
          -0.1671 ( 64) -0.1400 ( 66) -0.1091 ( 99)  0.1364 (102)  0.1055 (104)
           0.1251 (109) -0.1654 (119) -0.1042 (124) -0.1548 (126)
 CRD 41=  -0.1219 (  2) -0.1399 (  8)  0.1371 (  9) -0.3808 ( 11) -0.1650 ( 18)
          -0.1255 ( 19)  0.1323 ( 82)  0.1404 ( 83) -0.1105 ( 84)  0.1319 ( 98)
           0.1831 (100)  0.1827 (101) -0.1468 (102) -0.1491 (104) -0.1674 (106)
          -0.1697 (108) -0.1012 (112) -0.1020 (113)  0.1250 (118)  0.2067 (120)
           0.1510 (121)  0.1912 (122)  0.1908 (123)  0.1019 (124)  0.1643 (127)
           0.1285 (128)  0.1439 (129)
 CRD 42=   0.1691 (  2) -0.1677 (  4) -0.2498 ( 11)  0.2232 ( 13)  0.1265 ( 15)
          -0.1274 ( 16)  0.1416 ( 18) -0.1238 ( 19)  0.1019 ( 74)  0.1030 ( 75)
          -0.1229 ( 77) -0.1230 ( 78) -0.1206 ( 82) -0.1526 ( 83)  0.1018 ( 93)
          -0.1122 ( 94) -0.1187 ( 95) -0.1755 (100) -0.1753 (101) -0.1911 (103)
          -0.1910 (105) -0.1845 (107) -0.1846 (109)  0.1512 (110)  0.1501 (111)
           0.1530 (112)  0.1519 (113) -0.2075 (122) -0.2074 (123)  0.1503 (124)
           0.1351 (125)  0.1463 (126)  0.1485 (127)  0.1333 (128)  0.1445 (129)
 CRD 43=  -0.2085 (  2)  0.2083 (  4) -0.3370 (  5)  0.3365 (  6)  0.3408 (  8)
          -0.3409 (  9) -0.2223 ( 15)  0.2225 ( 16)  0.1018 ( 92)  0.1021 ( 93)
          -0.1224 (102) -0.1224 (104) -0.1224 (106) -0.1224 (108)  0.1682 (110)
           0.1682 (111)  0.1685 (112)  0.1684 (113) -0.1148 (114) -0.1149 (115)
          -0.1145 (116) -0.1147 (117)
 CRD 44=   0.2526 (  2) -0.2513 (  4)  0.1485 (  5) -0.1479 (  6)  0.1368 (  8)
          -0.1369 (  9) -0.1464 ( 11)  0.1456 ( 13) -0.2746 ( 15)  0.2748 ( 16)
          -0.1281 ( 79) -0.1278 ( 80)  0.1724 ( 83)  0.1200 ( 84)  0.1162 ( 86)
           0.1476 (100)  0.1481 (101)  0.1571 (102) -0.1028 (103)  0.1554 (104)
           0.1609 (106)  0.1592 (108) -0.1592 (114) -0.1594 (115) -0.1589 (116)
          -0.1592 (117)  0.2297 (122)  0.2302 (123)
 CRD 45=  -0.1061 (  2)  0.1105 (  4)  0.1860 ( 11) -0.1874 ( 13)  0.3199 ( 18)
          -0.3143 ( 19)  0.1049 ( 26) -0.1073 ( 70) -0.1369 ( 71)  0.1933 ( 89)
           0.1620 ( 90)  0.1598 ( 91) -0.1075 ( 98) -0.1827 ( 99)  0.1001 (109)
          -0.1987 (118) -0.2283 (119) -0.1235 (120) -0.1531 (121)  0.1899 (124)
           0.2235 (125)  0.1921 (126)  0.2152 (127)  0.2487 (128)  0.2174 (129)
 CRD 46=  -0.4511 ( 20) -0.1347 ( 28) -0.1367 ( 30) -0.1616 ( 34) -0.1625 ( 35)
          -0.1747 ( 37)  0.1229 ( 38) -0.1754 ( 39)  0.1243 ( 41) -0.1002 ( 42)
          -0.1028 ( 46)  0.1608 ( 47)  0.1595 ( 48) -0.1520 ( 49) -0.1082 ( 50)
           0.1823 ( 56)  0.1812 ( 57)  0.2602 ( 60) -0.1330 (104)  0.1267 (106)
          -0.1733 (111)  0.1720 (112) -0.1889 (115)  0.1917 (116)
 CRD 47=   0.1355 (  7)  0.1497 ( 10) -0.3408 ( 20) -0.1001 ( 23) -0.1658 ( 24)
          -0.1030 ( 25) -0.1409 ( 26) -0.1408 ( 31) -0.1677 ( 32) -0.1147 ( 38)
          -0.1158 ( 41)  0.1347 ( 42) -0.1239 ( 44) -0.1222 ( 45)  0.1554 ( 46)
          -0.1476 ( 49)  0.1543 ( 52)  0.1623 ( 53) -0.1188 ( 54)  0.1353 ( 59)
           0.2161 ( 60)  0.1452 ( 67)  0.1129 ( 68) -0.1200 ( 77) -0.1144 ( 94)
           0.1513 (103)  0.1541 (104) -0.1374 (106) -0.2186 (107)  0.1087 (118)
          -0.1302 (121)  0.1043 (124)  0.1124 (125)  0.1497 (126)
 CRD 48=   0.1108 ( 10) -0.1951 ( 12) -0.1852 ( 17) -0.2005 ( 20)  0.1929 ( 22)
           0.1983 ( 23)  0.2821 ( 24)  0.1096 ( 42)  0.1251 ( 44)  0.1345 ( 45)
           0.2017 ( 51)  0.2283 ( 54)  0.2056 ( 55) -0.1631 ( 58) -0.1487 ( 59)
           0.1383 ( 60) -0.2537 ( 67) -0.2473 ( 68) -0.1817 ( 69) -0.1112 ( 70)
           0.1153 ( 71)  0.1014 (104) -0.1070 (106) -0.1213 (118)  0.1053 (119)
          -0.1751 (120)
 CRD 49=  -0.2950 ( 14) -0.1018 ( 16) -0.2610 ( 20)  0.7019 ( 21)  0.3425 ( 50)
          -0.3060 ( 60)  0.1691 ( 65)
 CRD 50=  -0.2315 (  1) -0.1263 (  3)  0.1552 ( 10)  0.1296 ( 12)  0.2227 ( 14)
           0.1696 ( 17)  0.1488 ( 18) -0.3205 ( 20) -0.1558 ( 22)  0.1410 ( 25)
           0.1425 ( 26)  0.1110 ( 28)  0.1026 ( 30)  0.1407 ( 34)  0.1270 ( 35)
          -0.1473 ( 47) -0.1415 ( 48) -0.1846 ( 49) -0.1494 ( 52) -0.1289 ( 53)
           0.1599 ( 60)  0.1057 ( 68)  0.1237 ( 69) -0.1009 (103)  0.1379 (107)
           0.1367 (111) -0.1380 (112)  0.1189 (115)  0.1390 (120) -0.1134 (124)
          -0.1543 (126)
 CRD 51=   0.3092 ( 15) -0.3068 ( 16)  0.1262 ( 37) -0.1153 ( 39) -0.1258 ( 79)
          -0.1303 ( 80)  0.2193 ( 82) -0.3016 ( 83)  0.4131 (100)  0.4018 (101)
          -0.1868 (114) -0.1822 (115) -0.1994 (116) -0.1948 (117) -0.1078 (122)
          -0.1191 (123)
 CRD 52=   0.1923 (  3) -0.2091 (  7)  0.1176 ( 11)  0.1334 ( 12) -0.1393 ( 13)
           0.2328 ( 14) -0.3016 ( 17) -0.1481 ( 18) -0.1891 ( 20)  0.2429 ( 22)
           0.1263 ( 31) -0.1079 ( 42) -0.1372 ( 45) -0.1079 ( 46) -0.1432 ( 49)
          -0.1176 ( 56) -0.1128 ( 57)  0.1136 ( 59)  0.1073 ( 60) -0.1201 ( 68)
          -0.1851 ( 69)  0.1032 ( 84) -0.1207 (103) -0.1598 (105)  0.1499 (106)
           0.1040 (124)  0.2247 (126)
 CRD 53=  -0.1245 (  4)  0.1442 ( 12)  0.1924 ( 13) -0.2115 ( 17)  0.1524 ( 18)
          -0.3002 ( 19)  0.3177 ( 23) -0.1060 ( 24) -0.2118 ( 44)  0.1310 ( 58)
          -0.1681 ( 64)  0.1231 ( 66) -0.1393 ( 67)  0.1378 ( 68) -0.1806 ( 69)
           0.1059 ( 70)  0.1466 ( 89) -0.1129 ( 91) -0.1263 ( 99)  0.1796 (103)
          -0.1016 (104)  0.1339 (109)  0.1373 (120)  0.1269 (121) -0.1267 (124)
           0.1327 (125) -0.3605 (127) -0.1011 (128) -0.2062 (129)
 CRD 54=  -0.1300 (  1) -0.1264 (  2) -0.1815 (  3)  0.1633 (  4)  0.1690 (  7)
           0.1423 ( 10)  0.1968 ( 11)  0.1884 ( 12) -0.1566 ( 13) -0.2118 ( 14)
          -0.2371 ( 17)  0.1441 ( 20)  0.1539 ( 25)  0.1062 ( 30) -0.1067 ( 37)
          -0.1421 ( 41)  0.1288 ( 49) -0.1512 ( 53)  0.1212 ( 56)  0.1226 ( 57)
           0.1464 ( 98) -0.1069 (100) -0.1903 (103)  0.1736 (104) -0.1086 (105)
          -0.1083 (107)  0.1570 (108) -0.1901 (109) -0.1120 (113)  0.2360 (120)
           0.1093 (121)
 CRD 55=  -0.1347 (  2) -0.2443 (  5)  0.2644 (  6)  0.2177 (  8) -0.2294 (  9)
           0.1144 ( 17) -0.1282 ( 30)  0.1102 ( 47) -0.1020 ( 48) -0.1025 ( 57)
           0.1234 ( 71)  0.1139 ( 72) -0.1412 ( 83)  0.1063 ( 87)  0.1882 (102)
           0.1361 (104)  0.2017 (106)  0.1496 (108) -0.2307 (110) -0.2191 (111)
          -0.2105 (112) -0.1988 (113)  0.1113 (114)  0.1292 (115)  0.1292 (116)
           0.1472 (117) -0.1028 (122) -0.1644 (123)
 CRD 56=  -0.1281 (  1)  0.1575 (  2) -0.1165 (  5)  0.1540 (  8)  0.1282 ( 10)
          -0.1757 ( 11)  0.1656 ( 12) -0.1020 ( 15) -0.1480 ( 18)  0.1325 ( 22)
          -0.1811 ( 24)  0.1381 ( 32) -0.1106 ( 39)  0.1015 ( 49) -0.1467 ( 61)
           0.1415 ( 62) -0.1410 ( 63)  0.1073 ( 64)  0.1271 ( 65)  0.1399 ( 66)
           0.1198 ( 67) -0.1143 ( 69)  0.1046 ( 88)  0.1036 ( 90)  0.1039 ( 94)
           0.1047 ( 96)  0.1490 (101)  0.1114 (104) -0.1469 (106)  0.2291 (107)
           0.1214 (109) -0.1321 (111)  0.1046 (114)  0.1461 (115) -0.1736 (120)
          -0.1657 (122)  0.2140 (126) -0.1137 (127)
 CRD 57=   0.2006 (  1) -0.1021 (  3)  0.1170 (  4) -0.1262 (  5) -0.1385 (  6)
           0.1076 (  8)  0.1768 (  9) -0.1678 ( 10)  0.2236 ( 14)  0.1263 ( 18)
          -0.1367 ( 22)  0.1015 ( 24) -0.1230 ( 28) -0.1033 ( 61)  0.2078 ( 62)
          -0.2219 ( 63)  0.1132 ( 65) -0.1246 ( 67) -0.1109 ( 74)  0.1043 ( 75)
           0.1000 ( 79)  0.1077 ( 89) -0.1416 ( 92)  0.1146 ( 93) -0.1000 ( 97)
           0.1642 (104) -0.1034 (105) -0.1202 (106) -0.2211 (111)  0.2501 (112)
           0.1666 (115) -0.2004 (116)  0.1320 (118)  0.1042 (120) -0.1549 (126)
 CRD 58=   0.1146 (  2) -0.2032 (  3)  0.1114 (  4)  0.2542 (  7) -0.2954 ( 10)
           0.1774 ( 12)  0.1421 ( 15)  0.1431 ( 16) -0.1146 ( 24)  0.1275 ( 37)
           0.1297 ( 39) -0.1395 ( 49)  0.1353 ( 50) -0.1747 ( 61)  0.1019 ( 63)
           0.1004 ( 64) -0.2040 ( 65) -0.1171 ( 84)  0.1170 ( 86) -0.1007 ( 96)
           0.1564 (100) -0.1637 (101) -0.1319 (103)  0.1597 (104) -0.1640 (106)
           0.1342 (107) -0.1487 (115)  0.1479 (116)  0.1630 (122) -0.1571 (123)
 CRD 59=  -0.1307 (  1)  0.2025 (  3)  0.1829 (  4) -0.1535 (  8)  0.1522 ( 10)
          -0.1070 ( 13) -0.1175 ( 14)  0.1483 ( 17) -0.1716 ( 22)  0.1810 ( 23)
          -0.1368 ( 25)  0.1184 ( 31)  0.1015 ( 35)  0.1064 ( 45) -0.1051 ( 47)
          -0.1020 ( 51)  0.1224 ( 52)  0.1107 ( 57) -0.1013 ( 58)  0.1182 ( 64)
           0.1720 ( 68)  0.1111 ( 71)  0.1087 ( 81) -0.1100 ( 82)  0.1987 ( 89)
          -0.1006 ( 95)  0.1640 ( 99) -0.1555 (103) -0.1463 (105)  0.1066 (113)
          -0.1142 (115) -0.1058 (117)  0.2339 (119) -0.1242 (120)  0.1226 (122)
           0.1288 (123)  0.1481 (125) -0.1149 (127)  0.1302 (128)
 CRD 60=  -0.1371 (  1)  0.1869 (  2)  0.1312 (  3) -0.1527 (  9) -0.1138 ( 14)
           0.1071 ( 16) -0.2312 ( 17) -0.1390 ( 22)  0.2176 ( 24) -0.1296 ( 26)
           0.1228 ( 32) -0.1021 ( 42)  0.1049 ( 53)  0.1091 ( 55)  0.1497 ( 59)
          -0.1189 ( 61) -0.1201 ( 66) -0.1620 ( 67)  0.1049 ( 69) -0.1342 ( 71)
          -0.1127 ( 81)  0.1145 ( 82) -0.1230 ( 90)  0.1124 ( 91)  0.1076 ( 94)
           0.1015 (100) -0.1028 (106)  0.1281 (107)  0.1501 (109) -0.1085 (110)
           0.1122 (114)  0.1336 (116)  0.1820 (118) -0.1913 (121) -0.1063 (122)
          -0.1551 (123) -0.1432 (126) -0.1369 (129)
 CRD 61=  -0.2529 (  1)  0.1939 (  3)  0.2936 (  7) -0.2244 ( 10) -0.1109 ( 12)
           0.1070 ( 13)  0.1405 ( 28)  0.1321 ( 30)  0.1500 ( 31)  0.1378 ( 32)
          -0.1109 ( 34) -0.1250 ( 38) -0.1790 ( 41) -0.1154 ( 42) -0.1717 ( 46)
          -0.1121 ( 64)  0.1089 ( 75)  0.1277 ( 78) -0.1196 ( 86) -0.1493 ( 87)
           0.1181 ( 88) -0.2162 (102) -0.1594 (105)  0.2648 (108)  0.1601 (109)
           0.1185 (110) -0.1170 (113)  0.1088 (122)  0.1086 (124)
 CRD 62=  -0.1830 (  1)  0.1353 (  3)  0.1340 (  5)  0.1186 (  7) -0.1423 ( 10)
          -0.1369 ( 13)  0.2140 ( 14) -0.1319 ( 15)  0.1415 ( 23)  0.1025 ( 29)
          -0.1004 ( 34) -0.1485 ( 35) -0.1163 ( 40)  0.1326 ( 47)  0.1233 ( 48)
          -0.1631 ( 62)  0.1512 ( 64)  0.1530 ( 65)  0.1003 ( 68) -0.1076 ( 74)
          -0.1048 ( 78)  0.1190 ( 79) -0.1420 ( 80)  0.1166 ( 89)  0.1597 ( 92)
          -0.1163 ( 93)  0.1454 ( 99) -0.1062 (109)  0.2217 (110) -0.2230 (113)
          -0.1707 (114)  0.2149 (117)  0.1081 (118) -0.1069 (122)  0.1084 (125)
           0.1516 (128)
 CRD 63=  -0.1091 (  3)  0.1502 (  6) -0.1328 ( 11)  0.2200 ( 12) -0.1541 ( 16)
          -0.1323 ( 23)  0.1842 ( 24) -0.1095 ( 44) -0.1074 ( 45)  0.1087 ( 51)
          -0.1285 ( 54)  0.1271 ( 58)  0.1027 ( 65) -0.1131 ( 68)  0.1229 ( 69)
           0.1256 ( 81) -0.1497 ( 82) -0.1389 ( 84) -0.1052 ( 85) -0.1010 ( 90)
           0.1623 ( 91) -0.1076 ( 95)  0.1171 ( 97) -0.1125 (100)  0.1864 (102)
          -0.1010 (108) -0.1763 (114)  0.1816 (123)  0.2560 (124) -0.1708 (128)
          -0.2321 (129)
 CRD 64=  -0.1183 (  1)  0.1028 (  2)  0.1185 (  4) -0.1126 (  9)  0.1099 ( 10)
           0.1299 ( 11) -0.2119 ( 12)  0.1245 ( 14) -0.1339 ( 15)  0.1031 ( 22)
           0.1047 ( 27) -0.1301 ( 33)  0.1445 ( 36) -0.1362 ( 40) -0.1095 ( 59)
          -0.1660 ( 61)  0.1572 ( 63) -0.1385 ( 64)  0.1382 ( 65) -0.1096 ( 75)
          -0.1169 ( 77)  0.1138 ( 78)  0.1069 ( 79) -0.1045 ( 80)  0.1136 ( 86)
           0.1118 ( 90)  0.1484 ( 94) -0.1454 ( 96) -0.2525 (105) -0.1123 (108)
           0.2167 (109) -0.1989 (114)  0.2327 (117) -0.1234 (122) -0.1046 (124)
          -0.1655 (125)  0.1040 (129)
 CRD 65=   0.1209 (  5) -0.1143 (  6)  0.1484 ( 12) -0.1239 ( 15)  0.1255 ( 16)
           0.1476 ( 17) -0.1465 ( 18) -0.1496 ( 19)  0.1063 ( 24) -0.1896 ( 43)
          -0.1219 ( 53) -0.1329 ( 54)  0.2195 ( 66)  0.1004 ( 69) -0.1651 ( 70)
          -0.1334 ( 72)  0.1721 ( 76) -0.1396 ( 81)  0.2233 ( 82)  0.1026 ( 84)
           0.1187 ( 86) -0.1040 ( 90) -0.1292 ( 96) -0.1324 ( 97) -0.1073 (118)
           0.1549 (119)  0.1970 (121) -0.1670 (122) -0.1676 (123)  0.2262 (124)
           0.1378 (125) -0.1257 (128) -0.2319 (129)
 CRD 66=   0.1834 (  1) -0.1021 (  4) -0.1411 (  5) -0.1213 (  6)  0.2051 (  7)
          -0.1195 (  8) -0.1296 (  9)  0.1402 ( 10) -0.1974 ( 29) -0.1905 ( 33)
          -0.1406 ( 36) -0.1150 ( 40)  0.1324 ( 61)  0.1938 ( 62)  0.1840 ( 63)
           0.1279 ( 74) -0.1111 ( 75) -0.1011 ( 86) -0.1039 ( 87)  0.1304 ( 88)
          -0.1215 ( 92)  0.1281 ( 93)  0.1282 ( 97) -0.2081 (102)  0.1173 (105)
           0.2064 (108) -0.1064 (109) -0.2498 (110)  0.2388 (113) -0.1932 (114)
           0.1866 (117)  0.1187 (125)
 CRD 67=   0.1081 (  2) -0.1834 (  3)  0.1418 ( 11) -0.1987 ( 18)  0.1401 ( 19)
          -0.1242 ( 22)  0.1048 ( 23)  0.1808 ( 27)  0.1569 ( 44) -0.1039 ( 45)
          -0.1122 ( 51)  0.1215 ( 55) -0.1419 ( 58)  0.1109 ( 59) -0.1565 ( 64)
          -0.1725 ( 70)  0.1259 ( 73) -0.1369 ( 77) -0.2459 ( 90) -0.2224 ( 91)
           0.1080 ( 94)  0.3097 ( 98) -0.1248 (105) -0.1001 (108)  0.1363 (109)
          -0.2394 (118) -0.1564 (119)  0.2283 (125)  0.1927 (128)
 CRD 68=   0.1001 (  4) -0.1232 (  8)  0.1259 (  9) -0.1053 ( 11)  0.1640 ( 13)
          -0.1245 ( 15)  0.1260 ( 16)  0.1331 ( 19)  0.1100 ( 26) -0.1068 ( 37)
           0.1054 ( 39)  0.1022 ( 43) -0.1030 ( 45) -0.1063 ( 47)  0.1069 ( 48)
          -0.1174 ( 52)  0.1607 ( 70) -0.1306 ( 72)  0.2067 ( 73)  0.1075 ( 77)
           0.1462 ( 78)  0.1654 ( 79)  0.1677 ( 80)  0.2413 ( 82) -0.1581 ( 85)
          -0.1021 ( 88) -0.1263 ( 91) -0.1475 ( 92) -0.1522 ( 93) -0.1718 ( 94)
          -0.1943 ( 95) -0.1916 ( 96) -0.1936 ( 97) -0.2119 (119) -0.1436 (121)
          -0.1378 (122) -0.1387 (123)  0.1236 (128)
 CRD 69=  -0.1294 (  2)  0.1311 (  4)  0.1394 (  5) -0.1382 (  6)  0.1154 (  8)
          -0.1159 (  9) -0.1176 ( 28)  0.1176 ( 30)  0.1156 ( 31) -0.1163 ( 32)
           0.1090 ( 34) -0.1082 ( 35) -0.1131 ( 38)  0.1125 ( 41)  0.1414 ( 70)
           0.1335 ( 73) -0.2175 ( 74) -0.2184 ( 75)  0.1983 ( 77)  0.2009 ( 78)
          -0.1765 ( 79) -0.1774 ( 80) -0.1448 ( 82)  0.2193 ( 84)  0.2210 ( 86)
          -0.2079 ( 87) -0.2089 ( 88)  0.1906 ( 92)  0.1891 ( 93) -0.1560 ( 94)
          -0.1577 ( 95)  0.1339 ( 96)  0.1339 ( 97)

 THE DETERMINANT OF THE G MATRIX IS 10**(   -26)


                     --------------------
                     INTERNAL COORDINATES
                     --------------------

                 - - ATOMS - -         COORDINATE      COORDINATE
 NO.   TYPE    I  J  K  L  M  N        (BOHR,RAD)       (ANG,DEG)
 ----------------------------------------------------------------
   1 STRETCH   1  2                     2.8728182       1.5202300
   2 STRETCH   1 10                     2.0962836       1.1093056
   3 STRETCH   1  4                     2.8734532       1.5205661
   4 STRETCH   1 11                     2.0953067       1.1087886
   5 STRETCH   2 13                     2.0953064       1.1087885
   6 STRETCH   2 12                     2.0953960       1.1088359
   7 STRETCH   2  3                     2.8733850       1.5205300
   8 STRETCH   3 15                     2.0947799       1.1085099
   9 STRETCH   3 14                     2.0948242       1.1085333
  10 STRETCH   3  5                     2.8670243       1.5171640
  11 STRETCH   4 16                     2.0947013       1.1084683
  12 STRETCH   4  6                     2.8748752       1.5213185
  13 STRETCH   4 17                     2.0952768       1.1087728
  14 STRETCH   5  7                     2.8460518       1.5060659
  15 STRETCH   5 19                     2.0962539       1.1092899
  16 STRETCH   5 18                     2.0964134       1.1093743
  17 STRETCH   6  8                     2.8583049       1.5125499
  18 STRETCH   6 21                     2.0937988       1.1079907
  19 STRETCH   6 20                     2.0942588       1.1082341
  20 STRETCH   7 22                     2.0853327       1.1035106
  21 STRETCH   7  9                     2.2846503       1.2089850
  22 STRETCH   8 25                     2.0760686       1.0986083
  23 STRETCH   8 24                     2.0753245       1.0982145
  24 STRETCH   8 23                     2.0738004       1.0974080
  25 BEND      1  4 17                  1.9194504     109.9764069
  26 BEND      1  4 16                  1.9083127     109.3382665
  27 BEND      1  4  6                  1.9622281     112.4273894
  28 BEND      1  2 13                  1.9187467     109.9360907
  29 BEND      1  2  3                  1.9402576     111.1685737
  30 BEND      1  2 12                  1.9195365     109.9813375
  31 BEND      2  1 10                  1.9183124     109.9112029
  32 BEND      2  1 11                  1.9190508     109.9535125
  33 BEND      2  3  5                  1.9394314     111.1212359
  34 BEND      2  3 14                  1.9208023     110.0538632
  35 BEND      2  3 15                  1.9213153     110.0832587
  36 BEND      2  1  4                  1.9421913     111.2793666
  37 BEND      3  5 18                  1.9231242     110.1869024
  38 BEND      3  2 13                  1.9199056     110.0024866
  39 BEND      3  5 19                  1.9236558     110.2173587
  40 BEND      3  5  7                  2.0038805     114.8138925
  41 BEND      3  2 12                  1.9212784     110.0811429
  42 BEND      4  1 10                  1.9205814     110.0412066
  43 BEND      4  6  8                  1.9670401     112.7030984
  44 BEND      4  6 21                  1.9043521     109.1113407
  45 BEND      4  6 20                  1.9191164     109.9572719
  46 BEND      4  1 11                  1.9199299     110.0038791
  47 BEND      5  3 14                  1.9200221     110.0091627
  48 BEND      5  3 15                  1.9194178     109.9745415
  49 BEND      5  7  9                  2.1805399     124.9357330
  50 BEND      5  7 22                  2.0162974     115.5253341
  51 BEND      6  8 24                  1.9482848     111.6284973
  52 BEND      6  4 17                  1.9182705     109.9088029
  53 BEND      6  4 16                  1.9091254     109.3848256
  54 BEND      6  8 23                  1.9404957     111.1822156
  55 BEND      6  8 25                  1.9521064     111.8474570
  56 BEND      7  5 19                  1.8816055     107.8080535
  57 BEND      7  5 18                  1.8811803     107.7836936
  58 BEND      8  6 20                  1.9190262     109.9521003
  59 BEND      8  6 21                  1.9079354     109.3166482
  60 BEND      9  7 22                  2.0863479     119.5389313
  61 BEND     10  1 11                  1.8412093     105.4935223
  62 BEND     12  2 13                  1.8416923     105.5211935
  63 BEND     14  3 15                  1.8404276     105.4487366
  64 BEND     16  4 17                  1.8425840     105.5722891
  65 BEND     18  5 19                  1.8428403     105.5869721
  66 BEND     20  6 21                  1.8421004     105.5445764
  67 BEND     23  8 24                  1.8743268     107.3910126
  68 BEND     23  8 25                  1.8729547     107.3124009
  69 BEND     24  8 25                  1.8715530     107.2320853
  70 TORSION   1  4  6 20               0.8362380      47.9129099
  71 TORSION   1  4  6 21               2.8488311     163.2259980
  72 TORSION   1  2  3  5              -3.1298515    -179.3272828
  73 TORSION   1  4  6  8              -1.3114832     -75.1424549
  74 TORSION   1  2  3 14               1.0221685      58.5659425
  75 TORSION   1  2  3 15              -0.9990998     -57.2442006
  76 TORSION   2  1  4  6              -3.1355048    -179.6511936
  77 TORSION   2  1  4 17               1.0040691      57.5289230
  78 TORSION   2  1  4 16              -1.0115404     -57.9569966
  79 TORSION   2  3  5 18               1.0215763      58.5320123
  80 TORSION   2  3  5 19              -1.0053598     -57.6028710
  81 TORSION   2  3  5  7              -3.1339701    -179.5632600
  82 TORSION   3  5  7  9               0.0129308       0.7408784
  83 TORSION   3  5  7 22              -3.1289168    -179.2737297
  84 TORSION   3  2  1 11               1.0131923      58.0516447
  85 TORSION   3  2  1  4              -3.1382885    -179.8106873
  86 TORSION   3  2  1 10              -1.0062668     -57.6548381
  87 TORSION   4  1  2 13              -1.0081227     -57.7611738
  88 TORSION   4  1  2 12               1.0124527      58.0092653
  89 TORSION   4  6  8 23              -3.1135416    -178.3927954
  90 TORSION   4  6  8 24              -1.0209022     -58.4933886
  91 TORSION   4  6  8 25               1.0761631      61.6596039
  92 TORSION   5  3  2 12              -0.9984178     -57.2051278
  93 TORSION   5  3  2 13               1.0238410      58.6617679
  94 TORSION   6  4  1 11              -1.0043094     -57.5426892
  95 TORSION   6  4  1 10               1.0169726      58.2682373
  96 TORSION   7  5  3 14              -1.0023517     -57.4305248
  97 TORSION   7  5  3 15               1.0173614      58.2905150
  98 TORSION   8  6  4 17               0.8327914      47.7154337
  99 TORSION   8  6  4 16               2.8482003     163.1898584
 100 TORSION   9  7  5 18               2.1631775     123.9409439
 101 TORSION   9  7  5 19              -2.1383305    -122.5173115
 102 TORSION  10  1  2 13               1.1238991      64.3946753
 103 TORSION  10  1  4 16               3.1409370     179.9624343
 104 TORSION  10  1  2 12              -3.1387109    -179.8348856
 105 TORSION  10  1  4 17              -1.1266388     -64.5516462
 106 TORSION  11  1  2 13              -3.1398271    -179.8988419
 107 TORSION  11  1  4 17               3.1352646     179.6374273
 108 TORSION  11  1  2 12              -1.1192518     -64.1284028
 109 TORSION  11  1  4 16               1.1196550      64.1515078
 110 TORSION  12  2  3 15               1.1323339      64.8779544
 111 TORSION  12  2  3 14              -3.1295831    -179.3119025
 112 TORSION  13  2  3 15              -3.1285926    -179.2551500
 113 TORSION  13  2  3 14              -1.1073243     -63.4450068
 114 TORSION  14  3  5 19               1.1262586      64.5298642
 115 TORSION  14  3  5 18              -3.1299906    -179.3352525
 116 TORSION  15  3  5 19              -3.1372136    -179.7490961
 117 TORSION  15  3  5 18              -1.1102775     -63.6142128
 118 TORSION  16  4  6 20              -1.2872637     -73.7547768
 119 TORSION  16  4  6 21               0.7253294      41.5583113
 120 TORSION  17  4  6 20               2.9805127     170.7707985
 121 TORSION  17  4  6 21              -1.2900795     -73.9161134
 122 TORSION  18  5  7 22              -0.9786701     -56.0736642
 123 TORSION  19  5  7 22               1.0030072      57.4680804
 124 TORSION  20  6  8 25              -1.0716085     -61.3986460
 125 TORSION  20  6  8 23               1.0218720      58.5489547
 126 TORSION  20  6  8 24               3.1145115     178.4483615
 127 TORSION  21  6  8 25              -3.0861833    -176.8252763
 128 TORSION  21  6  8 23              -0.9927027     -56.8776756
 129 TORSION  21  6  8 24               1.0999367      63.0217312

     ------------------------------------------
     THE POINT GROUP IS C1 , NAXIS= 1, ORDER= 1
     ------------------------------------------

     DIMENSIONS OF THE SYMMETRY SUBSPACES ARE
 A   =  267

 ..... DONE SETTING UP THE RUN .....
 STEP CPU TIME =     0.02 TOTAL CPU TIME =        0.0 (    0.0 MIN)
 TOTAL WALL CLOCK TIME=        0.0 SECONDS, CPU UTILIZATION IS  66.67%


          -----------------------------
          STATIONARY POINT LOCATION RUN
          -----------------------------

 OBTAINING INITIAL HESSIAN, HESS=GUESS   
 DIAGONAL GUESS HESSIAN IN INTERNAL COORDS IS
     1  0.3742     2  0.3336     3  0.3740     4  0.3339     5  0.3339
     6  0.3339     7  0.3740     8  0.3341     9  0.3341    10  0.3764
    11  0.3342    12  0.3734    13  0.3340    14  0.3847    15  0.3336
    16  0.3336    17  0.3798    18  0.3345    19  0.3343    20  0.3374
    21  0.5534    22  0.3406    23  0.3409    24  0.3414    25  0.2235
    26  0.2235    27  0.2498    28  0.2235    29  0.2498    30  0.2235
    31  0.2235    32  0.2235    33  0.2501    34  0.2235    35  0.2235
    36  0.2498    37  0.2237    38  0.2235    39  0.2237    40  0.2511
    41  0.2235    42  0.2235    43  0.2503    44  0.2235    45  0.2235
    46  0.2235    47  0.2237    48  0.2237    49  0.2604    50  0.2247
    51  0.2246    52  0.2235    53  0.2235    54  0.2247    55  0.2246
    56  0.2244    57  0.2243    58  0.2240    59  0.2240    60  0.2318
    61  0.2015    62  0.2015    63  0.2016    64  0.2015    65  0.2015
    66  0.2016    67  0.2026    68  0.2026    69  0.2026    70  0.2500
    71  0.2500    72  0.2500    73  0.2500    74  0.2500    75  0.2500
    76  0.2500    77  0.2500    78  0.2500    79  0.2500    80  0.2500
    81  0.2500    82  0.2500    83  0.2500    84  0.2500    85  0.2500
    86  0.2500    87  0.2500    88  0.2500    89  0.2500    90  0.2500
    91  0.2500    92  0.2500    93  0.2500    94  0.2500    95  0.2500
    96  0.2500    97  0.2500    98  0.2500    99  0.2500   100  0.2500
   101  0.2500   102  0.2500   103  0.2500   104  0.2500   105  0.2500
   106  0.2500   107  0.2500   108  0.2500   109  0.2500   110  0.2500
   111  0.2500   112  0.2500   113  0.2500   114  0.2500   115  0.2500
   116  0.2500   117  0.2500   118  0.2500   119  0.2500   120  0.2500
   121  0.2500   122  0.2500   123  0.2500   124  0.2500   125  0.2500
   126  0.2500   127  0.2500   128  0.2500   129  0.2500
 TRANSFORMING HESSIAN TO SYMMETRY COORDINATES

          PARAMETERS CONTROLLING GEOMETRY SEARCH ARE
          METHOD =QA                  UPHESS =BFGS    
          NNEG   =         0          NFRZ   =         3
          NSTEP  =        50          IFOLOW =         1
          HESS   =GUESS               RESTAR =         F
          IHREP  =         0          HSSEND =         F
          NPRT   =         0          NPUN   =         0
          OPTTOL = 5.000E-04          RMIN   = 1.500E-03
          RMAX   = 1.000E-01          RLIM   = 7.000E-02
          DXMAX  = 3.000E-01          PURIFY =         F
          MOVIE  =         F          TRUPD  =         T
          TRMAX  = 5.000E-01          TRMIN  = 5.000E-02
          ITBMAT =         5          STPT   =         F
          STSTEP = 1.000E-02          PROJCT=          F
          FROZEN COORD(S)=   1   2   3


      ***** EQUILIBRIUM GEOMETRY LOCATED *****
            (SUBJECT TO   3 CONSTRAINT(S))
 COORDINATES OF ALL ATOMS ARE (ANGS)
   ATOM   CHARGE       X              Y              Z
 ------------------------------------------------------------
 C           6.0   4.4160572878   2.3495759851   1.9859186520
 C           6.0   3.5576734533   3.5604215068   1.6261277618
 C           6.0   2.4963559058   3.8789242644   2.6792263643
 C           6.0   5.5100638515   2.0592755176   0.9565509966
 C           6.0   1.6525217991   5.0839440699   2.2805195327
 C           6.0   6.3880161689   0.8527623216   1.3041407684
 C           6.0   0.5959342674   5.4912692942   3.2622032604
 C           6.0   7.2794709280   1.0593075550   2.5303094046
 O           8.0   0.3839802309   4.9599588447   4.3079523211
 H           1.0   4.8613050793   2.5152146717   2.9636877904
 H           1.0   3.7772408797   1.4718496963   2.0795961804
 H           1.0   3.0717913757   3.3861965347   0.6670164612
 H           1.0   4.2009822711   4.4293597908   1.4938874041
 H           1.0   2.9761226810   4.0719753650   3.6356609572
 H           1.0   1.8512878189   3.0155286786   2.8243150227
 H           1.0   5.0432266036   1.8856875144  -0.0119183690
 H           1.0   6.1400770233   2.9408652928   0.8376747267
 H           1.0   1.1438726936   4.9098131543   1.3331837367
 H           1.0   2.2765968201   5.9623121694   2.1192476640
 H           1.0   5.7515941877  -0.0169450000   1.4615978922
 H           1.0   7.0173221208   0.6188801424   0.4481756023
 H           1.0  -0.0067340054   6.3515716599   2.9558171006
 H           1.0   7.8816153074   0.1760219099   2.7234350611
 H           1.0   7.9553204193   1.8980680110   2.3801730604
 H           1.0   6.6965934392   1.2584526244   3.4241237088


                     --------------------
                     INTERNAL COORDINATES
                     --------------------

                 - - ATOMS - -         COORDINATE      COORDINATE
 NO.   TYPE    I  J  K  L  M  N        (BOHR,RAD)       (ANG,DEG)
 ----------------------------------------------------------------
   1 STRETCH   1  2                     2.8860386       1.5272260
   2 STRETCH   1 10                     2.0542584       1.0870668
   3 STRETCH   1  4                     2.8911711       1.5299420
   4 STRETCH   1 11                     2.0590777       1.0896171
   5 STRETCH   2 13                     2.0583163       1.0892142
   6 STRETCH   2 12                     2.0582666       1.0891879
   7 STRETCH   2  3                     2.8887820       1.5286777
   8 STRETCH   3 15                     2.0550416       1.0874813
   9 STRETCH   3 14                     2.0546910       1.0872957
  10 STRETCH   3  5                     2.8802647       1.5241706
  11 STRETCH   4 16                     2.0579825       1.0890375
  12 STRETCH   4  6                     2.8952261       1.5320878
  13 STRETCH   4 17                     2.0599302       1.0900682
  14 STRETCH   5  7                     2.8320644       1.4986641
  15 STRETCH   5 19                     2.0588552       1.0894993
  16 STRETCH   5 18                     2.0584057       1.0892615
  17 STRETCH   6  8                     2.8912450       1.5299811
  18 STRETCH   6 21                     2.0557259       1.0878434
  19 STRETCH   6 20                     2.0581680       1.0891357
  20 STRETCH   7 22                     2.0676760       1.0941671
  21 STRETCH   7  9                     2.2525077       1.1919758
  22 STRETCH   8 25                     2.0512964       1.0854994
  23 STRETCH   8 24                     2.0552302       1.0875811
  24 STRETCH   8 23                     2.0528278       1.0863098
  25 BEND      1  4 17                  1.9104846     109.4627050
  26 BEND      1  4 16                  1.8986856     108.7866737
  27 BEND      1  4  6                  1.9894635     113.9878628
  28 BEND      1  2 13                  1.9061931     109.2168215
  29 BEND      1  2  3                  1.9748130     113.1484530
  30 BEND      1  2 12                  1.9085392     109.3512386
  31 BEND      2  1 10                  1.8978995     108.7416302
  32 BEND      2  1 11                  1.9064605     109.2321382
  33 BEND      2  3  5                  1.9486106     111.6471628
  34 BEND      2  3 14                  1.9141329     109.6717348
  35 BEND      2  3 15                  1.9159241     109.7743642
  36 BEND      2  1  4                  1.9755999     113.1935370
  37 BEND      3  5 18                  1.9386861     111.0785286
  38 BEND      3  2 13                  1.9044220     109.1153403
  39 BEND      3  5 19                  1.9379836     111.0382832
  40 BEND      3  5  7                  2.0195612     115.7123311
  41 BEND      3  2 12                  1.9073538     109.2833225
  42 BEND      4  1 10                  1.9189885     109.9499432
  43 BEND      4  6  8                  1.9925920     114.1671107
  44 BEND      4  6 21                  1.8989479     108.8016976
  45 BEND      4  6 20                  1.9036996     109.0739508
  46 BEND      4  1 11                  1.9009849     108.9184118
  47 BEND      5  3 14                  1.9113643     109.5131085
  48 BEND      5  3 15                  1.9115445     109.5234340
  49 BEND      5  7  9                  2.1881728     125.3730660
  50 BEND      5  7 22                  2.0027027     114.7464110
  51 BEND      6  8 24                  1.9343060     110.8275695
  52 BEND      6  4 17                  1.9075578     109.2950131
  53 BEND      6  4 16                  1.8985093     108.7765683
  54 BEND      6  8 23                  1.9344370     110.8350752
  55 BEND      6  8 25                  1.9517485     111.8269530
  56 BEND      7  5 19                  1.8563416     106.3605384
  57 BEND      7  5 18                  1.8586751     106.4942373
  58 BEND      8  6 20                  1.9096494     109.4148485
  59 BEND      8  6 21                  1.8992322     108.8179870
  60 BEND      9  7 22                  2.0923090     119.8804732
  61 BEND     10  1 11                  1.8603695     106.5913186
  62 BEND     12  2 13                  1.8589389     106.5093505
  63 BEND     14  3 15                  1.8601610     106.5793731
  64 BEND     16  4 17                  1.8542605     106.2412995
  65 BEND     18  5 19                  1.8417269     105.5231773
  66 BEND     20  6 21                  1.8547016     106.2665711
  67 BEND     23  8 24                  1.8830100     107.8885248
  68 BEND     23  8 25                  1.8759365     107.4832423
  69 BEND     24  8 25                  1.8816448     107.8103061
  70 TORSION   1  4  6 20               0.9582667      54.9046402
  71 TORSION   1  4  6 21               2.9744495     170.4234051
  72 TORSION   1  2  3  5              -3.1328322    -179.4980603
  73 TORSION   1  4  6  8              -1.1837516     -67.8239710
  74 TORSION   1  2  3 14               1.0285746      58.9329827
  75 TORSION   1  2  3 15              -1.0095956     -57.8455694
  76 TORSION   2  1  4  6               3.1353240     179.6408340
  77 TORSION   2  1  4 17               0.9930973      56.9002836
  78 TORSION   2  1  4 16              -1.0261129     -58.7919367
  79 TORSION   2  3  5 18               1.0374900      59.4437979
  80 TORSION   2  3  5 19              -1.0063025     -57.6568859
  81 TORSION   2  3  5  7              -3.1241578    -179.0010549
  82 TORSION   3  5  7  9               0.0114557       0.6563655
  83 TORSION   3  5  7 22              -3.1315631    -179.4253477
  84 TORSION   3  2  1 11               1.0553851      60.4691143
  85 TORSION   3  2  1  4              -3.1065720    -177.9934648
  86 TORSION   3  2  1 10              -0.9684736     -55.4894470
  87 TORSION   4  1  2 13              -0.9816685     -56.2454637
  88 TORSION   4  1  2 12               1.0462594      59.9462493
  89 TORSION   4  6  8 23              -3.1350892    -179.6273815
  90 TORSION   4  6  8 24              -1.0448369     -59.8647459
  91 TORSION   4  6  8 25               1.0552089      60.4590175
  92 TORSION   5  3  2 12              -1.0018154     -57.3997925
  93 TORSION   5  3  2 13               1.0244559      58.6969982
  94 TORSION   6  4  1 11              -1.0235584     -58.6455792
  95 TORSION   6  4  1 10               1.0089987      57.8113665
  96 TORSION   7  5  3 14              -1.0007783     -57.3403755
  97 TORSION   7  5  3 15               1.0332616      59.2015309
  98 TORSION   8  6  4 17               0.9600734      55.0081528
  99 TORSION   8  6  4 16               2.9775877     170.6032071
 100 TORSION   9  7  5 18               2.1752951     124.6352294
 101 TORSION   9  7  5 19              -2.1496537    -123.1660828
 102 TORSION  10  1  2 13               1.1564299      66.2585541
 103 TORSION  10  1  4 16               3.1307471     179.3785958
 104 TORSION  10  1  2 12              -3.0988274    -177.5497330
 105 TORSION  10  1  4 17              -1.1332280     -64.9291839
 106 TORSION  11  1  2 13              -3.1028967    -177.7828846
 107 TORSION  11  1  4 17               3.1174001     178.6138704
 108 TORSION  11  1  2 12              -1.0749687     -61.5911716
 109 TORSION  11  1  4 16               1.0981900      62.9216501
 110 TORSION  12  2  3 15               1.1214211      64.2526984
 111 TORSION  12  2  3 14              -3.1235939    -178.9687495
 112 TORSION  13  2  3 15              -3.1354929    -179.6505109
 113 TORSION  13  2  3 14              -1.0973227     -62.8719588
 114 TORSION  14  3  5 19               1.1170769      64.0037935
 115 TORSION  14  3  5 18              -3.1223159    -178.8955228
 116 TORSION  15  3  5 19              -3.1320684    -179.4543001
 117 TORSION  15  3  5 18              -1.0882759     -62.3536164
 118 TORSION  16  4  6 20              -1.1635793     -66.6681817
 119 TORSION  16  4  6 21               0.8526035      48.8505832
 120 TORSION  17  4  6 20               3.1020917     177.7367640
 121 TORSION  17  4  6 21              -1.1649108     -66.7444711
 122 TORSION  18  5  7 22              -0.9677237     -55.4464837
 123 TORSION  19  5  7 22               0.9905128      56.7522040
 124 TORSION  20  6  8 25              -1.0835660     -62.0837586
 125 TORSION  20  6  8 23               1.0093212      57.8298424
 126 TORSION  20  6  8 24               3.0995735     177.5924780
 127 TORSION  21  6  8 25              -3.1031487    -177.7973255
 128 TORSION  21  6  8 23              -1.0102616     -57.8837245
 129 TORSION  21  6  8 24               1.0799907      61.8789111

          INTERNUCLEAR DISTANCES (ANGS.)


 =====================================================
   GAMESS/COSab RESULTS
 =====================================================

   Dielectric Constant                  = INFTY
   Basic Grid Size                      =                 1082
   Number of Segments                   =                   92
   Number of Segments located on spheres=                  318
   Number of Segments of the cavity     =                  882
   Solvent Radius (rsolv)               = 1.40
   Outlying Charge Error Method         = double cavity

 =====================================================

  Total solvated Energy (a.u.)          =  -387.2327559203
  Total Energy corrected (a.u.)         =  -387.2323575123

  Outlying charge effect (a.u.)         =     0.0003984080
  Outlying charge effect (kcal/mol)     =     0.2500050309

  Dielectric Energy (a.u.)              =    -0.0134339141
  Dielectric energy corr. (a.u.)        =    -0.0130355061

  Sum of polarization charges           =     0.0288876750
  Sum of polarization charges(cor.)     =    -0.0288876750

  Total surface area of cavity (A**2)   =  197.53
  Total volume of cavity (A**3)         =  193.76

 =====================================================
 NPS=                   882
NR.  ATOM  (X, Y, Z)(a.u.)                  CHARGE(e)  AREA(A**2) SIGMA(e/A**2)
   1   1   8.152974   1.632764   6.276022   0.000938   0.185824   0.005046
   2   1   6.148105   2.638426   1.260559   0.000183   0.092912   0.001970
   3   1   8.272082   2.385925   6.924504   0.000486   0.092912   0.005230
   4   1  10.945024   6.877954   5.010410   0.000188   0.139368   0.001351
   5   1   6.756352   2.976817   6.854276   0.001122   0.232280   0.004829
   6   1   7.534523   2.400061   6.829455   0.001923   0.325193   0.005913
   7   1   6.331546   2.304678   1.371684   0.000093   0.046456   0.002003
   8   1   7.480987   3.272448   7.241987   0.000601   0.139368   0.004315
   9   1  10.544748   7.119692   5.257995   0.000085   0.046456   0.001829
  10   2   8.132520   8.257882  -0.082652   0.001438   0.325193   0.004422
  11   2   9.023344   8.548050   5.456416   0.000160   0.092912   0.001719
  12   2   8.727963   9.066567   5.263044   0.000040   0.046456   0.000854
  13   2   7.430723   7.882459  -0.455686   0.001356   0.278737   0.004866
  14   2   4.474441   4.028666   1.679892   0.000251   0.139368   0.001803
  15   2   6.484025   9.500038   0.514785   0.000970   0.232280   0.004174
  16   2   7.134789   8.955309   0.047250   0.001856   0.325193   0.005708
  17   2   9.304892   8.511917   5.179265   0.000081   0.046456   0.001737
  18   2   6.173650   8.863688   0.003375   0.000601   0.139368   0.004312
  19   2   4.049475   4.362046   1.832922   0.000089   0.046456   0.001924
  20   3   4.801668   4.650960   7.727477   0.001303   0.325193   0.004008
  21   3   2.415865   5.474324   2.708607   0.000062   0.092912   0.000663
  22   3   1.985503   5.541349   3.160048  -0.000008   0.046456  -0.000163
  23   3   5.197830   5.277447   8.199901   0.001039   0.278737   0.003728
  24   3   7.420400   9.686345   6.257268   0.000163   0.139368   0.001168
  25   3   3.937151   5.282968   8.142732   0.001110   0.232280   0.004779
  26   3   2.598669   5.142095   2.825198   0.000054   0.046456   0.001171
  27   3   4.152611   5.847055   8.493145   0.000487   0.139368   0.003492
  28   3   6.999744  10.029296   6.400760   0.000029   0.046456   0.000632
  29   4  12.070287   5.332057  -1.268197   0.001822   0.371649   0.004902
  30   4  11.159652   5.088610  -1.698490   0.001442   0.278737   0.005172
  31   4   8.272764   1.118967   0.386706   0.000356   0.185824   0.001916
  32   4  10.170240   6.681699  -0.730120   0.001127   0.232280   0.004852
  33   4  10.916734   6.104791  -1.214160   0.002180   0.371649   0.005866
  34   4  12.324303   4.409253  -1.411248   0.001140   0.325193   0.003505
  35   4  13.157007   4.726662  -0.652938   0.000750   0.232280   0.003229
  36   4  11.840564   3.630058  -1.681863   0.000766   0.278737   0.002748
  37   4   9.879016   6.044924  -1.252154   0.000651   0.139368   0.004670
  38   4   7.799555   1.492859   0.502466   0.000109   0.046456   0.002346
  39   5   1.831636  12.554619   2.327070   0.000156   0.232280   0.000670
  40   5   4.432869  11.171123   1.127991   0.000721   0.325193   0.002218
  41   5   5.362514  11.445530   6.736243  -0.000291   0.139368  -0.002089
  42   5   5.157629  11.955377   6.461344  -0.000151   0.046456  -0.003251
  43   5   3.725871  10.789962   0.770941   0.000433   0.278737   0.001555
  44   5   1.365433  11.855001   1.830933  -0.000271   0.232280  -0.001168
  45   5   0.910538   6.841587   2.990054  -0.000202   0.185824  -0.001090
  46   5   0.481530   6.992113   3.624846  -0.000133   0.092912  -0.001428
  47   5   2.556847  12.442041   1.874807   0.000454   0.325193   0.001397
  48   5   3.504897  11.850612   1.291995   0.000684   0.278737   0.002453
  49   5   2.540788  12.957451   2.659772  -0.000333   0.139368  -0.002390
  50   5   5.738345  11.407786   6.359288  -0.000065   0.046456  -0.001394
  51   5   2.643151  11.866200   1.317666   0.000380   0.232280   0.001636
  52   5   0.444581   7.218265   3.124661  -0.000114   0.046456  -0.002449
  53   6  10.453431  -0.136105  -0.470105   0.001044   0.325193   0.003210
  54   6  13.120385  -1.736899   1.059960   0.001580   0.325193   0.004857
  55   6  14.761101   3.603483   0.708652   0.000198   0.092912   0.002134
  56   6  14.449633   3.461821   0.182894   0.000076   0.046456   0.001636
  57   6  12.230628  -1.980423   1.299500   0.001362   0.278737   0.004886
  58   6   9.943074  -0.553452   0.213544   0.000831   0.278737   0.002983
  59   6  11.305247  -0.692734  -0.431658   0.001350   0.278737   0.004845
  60   6  12.186945  -1.477382   0.289643   0.001863   0.325193   0.005729
  61   6  13.222672  -1.980774   2.230038   0.001451   0.418105   0.003471
  62   6  11.350560   0.370759  -1.031958   0.000705   0.278737   0.002531
  63   6  14.218762  -1.397235   1.676064   0.001048   0.325193   0.003222
  64   6  14.993923   3.284743   0.748485   0.000105   0.046456   0.002257
  65   6  12.658591  -2.051805   3.185555   0.000439   0.185824   0.002364
  66   6  11.234394  -1.246524   0.137426   0.001388   0.278737   0.004980
  67   7  -0.590820   7.146809   5.214818  -0.001003   0.232280  -0.004320
  68   7  -2.620132   9.906119   6.331612  -0.000256   0.278737  -0.000918
  69   7  -0.615759  12.795276   8.488857  -0.000219   0.185824  -0.001177
  70   7   2.422383  13.796881   7.117747  -0.002632   0.418105  -0.006294
  71   7   1.757359  14.099463   6.334954  -0.001518   0.278737  -0.005448
  72   7  -1.052145  12.822707   8.050856  -0.000522   0.232280  -0.002248
  73   7  -2.612629  10.924953   6.090674  -0.001361   0.418105  -0.003255
  74   7  -0.965825  11.170009   3.118524  -0.001517   0.232280  -0.006530
  75   7   3.884889  11.381003   8.544918  -0.000564   0.232280  -0.002426
  76   7  -1.664946  10.018739   3.641640  -0.002886   0.418105  -0.006902
  77   7  -2.476211   9.904325   5.123606  -0.001836   0.418105  -0.004392
  78   7  -2.500772  10.852897   7.115013   0.000174   0.232280   0.000748
  79   7  -1.782623  12.057204   7.896755   0.000085   0.185824   0.000458
  80   7   0.328936  13.229313   8.512628  -0.000365   0.418105  -0.000874
  81   7   1.435200  13.753265   7.834841  -0.002079   0.464561  -0.004475
  82   7   2.442023  13.909464   5.892010  -0.001616   0.232280  -0.006956
  83   7  -1.446628   8.899294   3.823413  -0.002379   0.325193  -0.007316
  84   7  -1.033118   7.824122   4.402656  -0.002290   0.325193  -0.007042
  85   7  -1.436621   7.711859   5.381382  -0.001081   0.371649  -0.002909
  86   7  -2.278897   8.786220   5.765493  -0.001018   0.464561  -0.002192
  87   7   3.152724  12.235670   8.757458  -0.000786   0.371649  -0.002114
  88   7   2.808481  13.161512   8.088322  -0.002725   0.464561  -0.005865
  89   7   3.435098  13.259419   6.967544  -0.002369   0.325193  -0.007285
  90   7   0.489391  13.789742   7.658613  -0.000983   0.232280  -0.004234
  91   7  -2.222961  11.738307   7.266699  -0.000295   0.139368  -0.002116
  92   7  -2.169064  10.585403   4.325551  -0.001930   0.371649  -0.005194
  93   7   1.833442  13.831542   4.804508  -0.001207   0.185824  -0.006494
  94   7   3.870428  12.316293   7.894496  -0.002810   0.418105  -0.006722
  95   7  -1.926019   8.735024   4.657201  -0.002589   0.418105  -0.006192
  96   7   1.786737  12.982858   8.821228  -0.000594   0.418105  -0.001420
  97   8  14.456148   4.715608   7.317260   0.002236   0.418105   0.005348
  98   8  12.272546  -1.033800   6.475171   0.001071   0.325193   0.003292
  99   8  16.715352   1.473953   2.490525   0.000560   0.185824   0.003012
 100   8  17.341265   2.434880   5.896937   0.001925   0.418105   0.004604
 101   8  14.497164   1.285359   8.417799   0.001454   0.371649   0.003911
 102   8  13.601197   5.578177   5.993935   0.001074   0.232280   0.004624
 103   8  14.875462   0.349249   7.991053   0.001603   0.371649   0.004314
 104   8  17.356343   1.473397   5.803359   0.001209   0.278737   0.004336
 105   8  17.005045   0.853779   3.228769   0.001247   0.325193   0.003836
 106   8  13.118682  -1.319313   6.469217   0.000594   0.185824   0.003199
 107   8  14.229229   5.288450   6.586710   0.000884   0.185824   0.004757
 108   8  13.495080   5.062753   6.983109   0.000869   0.185824   0.004675
 109   8  16.403123   0.330539   2.663837   0.000738   0.232280   0.003178
 110   8  17.251713   1.999862   3.344377   0.001448   0.325193   0.004452
 111   8  17.533123   2.071933   4.662614   0.001813   0.325193   0.005576
 112   8  16.793484   1.947719   7.030203   0.001551   0.464561   0.003339
 113   8  15.630725   1.642305   8.043681   0.001428   0.464561   0.003073
 114   8  13.687292   0.158909   8.080581   0.001923   0.371649   0.005175
 115   8  12.576198  -0.447896   7.406645   0.001705   0.371649   0.004587
 116   8  11.378520  -0.229974   6.692127   0.001269   0.418105   0.003034
 117   8  16.679289   2.272859   2.401201   0.000835   0.278737   0.002997
 118   8  16.673899   3.237455   6.841800   0.001319   0.418105   0.003155
 119   8  15.601017   4.070842   7.350638   0.001552   0.418105   0.003712
 120   8  14.691212   3.744742   8.002184   0.001512   0.418105   0.003615
 121   8  14.742764   2.467665   8.400152   0.000940   0.325193   0.002890
 122   8  16.240517   1.106240   7.485372   0.000816   0.278737   0.002927
 123   8  17.419507   1.357854   4.110974   0.001366   0.278737   0.004900
 124   8  12.811584  -1.554444   5.644795   0.000644   0.232280   0.002774
 125   8  13.557757  -0.711947   7.404665   0.001470   0.325193   0.004521
 126   8  16.238383   2.921755   2.084068   0.000348   0.139368   0.002497
 127   8  15.883229   2.861354   7.785125   0.001206   0.464561   0.002597
 128   9   0.206837   7.854095  10.967245   0.004983   0.377948   0.013184
 129   9   2.979646   8.819506  10.416297   0.002419   0.137436   0.017600
 130   9  -1.484261   6.990540   8.212188   0.003839   0.343589   0.011172
 131   9  -2.079972   9.978642   9.666128   0.005933   0.343589   0.017267
 132   9   0.954507  11.279713  10.763175   0.003995   0.309230   0.012920
 133   9   1.366033   8.164154  11.089283   0.005495   0.412307   0.013328
 134   9   2.383560   8.461241  10.783690   0.003789   0.274871   0.013785
 135   9   0.790308   7.089467  10.453002   0.004816   0.343589   0.014017
 136   9   1.376528   6.586696   9.682800   0.006118   0.343589   0.017806
 137   9  -0.581288   7.275565  10.252132   0.005308   0.412307   0.012875
 138   9  -1.308532   7.140266   9.341638   0.004544   0.377948   0.012022
 139   9  -0.815793   8.452174  10.850245   0.005295   0.377948   0.014010
 140   9  -1.539215   9.245097  10.468686   0.005423   0.343589   0.015785
 141   9   0.255505   9.035935  11.339292   0.006439   0.481025   0.013386
 142   9   0.581803  10.201105  11.280619   0.005499   0.412307   0.013337
 143   9   2.651203   7.779952  10.219079   0.003070   0.171795   0.017870
 144   9   0.551026   6.246005   9.010461   0.004884   0.309230   0.015795
 145   9  -0.544161   6.395252   8.433212   0.004590   0.343589   0.013358
 146   9  -2.132851   7.932465   8.705420   0.005201   0.412307   0.012615
 147   9  -2.295792   8.971137   9.269678   0.006254   0.412307   0.015168
 148   9  -1.411694  10.618321  10.249320   0.006529   0.377948   0.017274
 149   9  -0.250999  11.104485  10.712371   0.006366   0.412307   0.015441
 150   9   1.802559  10.669052  10.920240   0.005134   0.446666   0.011495
 151   9   2.659128   9.693750  10.733777   0.004612   0.377948   0.012203
 152   9  -1.164497   6.907458   7.185160   0.002809   0.274871   0.010220
 153   9  -2.033590   7.769478   7.524230   0.003663   0.377948   0.009692
 154   9  -2.438684  10.002103   8.535858   0.004712   0.343589   0.013715
 155   9  -1.840148  11.073207   9.185211   0.005789   0.377948   0.015317
[...]
 623   5   0.982103   6.463397   3.546537  -0.000240   0.267383  -0.000897
 624  18   0.999101   7.142466   2.184577  -0.000370   0.072407  -0.005108
 625  18   0.314354   7.663090   2.456538  -0.000438   0.072407  -0.006053
 626   5   0.706155   7.265965   2.706913  -0.000967   0.157524  -0.006139
 627  18   0.811183  11.087826   1.560275  -0.000458   0.074253  -0.006174
 628  18   1.854967  11.098378   0.997902  -0.000872   0.167191  -0.005218
 629  18   2.974545  10.340201   0.536135  -0.000948   0.167191  -0.005671
 630   5   1.322549  11.433010   1.610008  -0.000958   0.160661  -0.005963
 631   5   2.728836  11.091278   0.917752  -0.000506   0.160661  -0.003152
 632   5   3.617394  10.182258   0.607751  -0.000264   0.090717  -0.002905
 633  19   5.354644  12.333726   5.949681  -0.000376   0.071602  -0.005246
 634  19   6.020868  11.809402   5.672100  -0.000393   0.071602  -0.005484
 635   5   5.575273  11.783367   6.085295  -0.000953   0.156166  -0.006102
 636  19   5.143792  11.711323   1.743949  -0.000379   0.074598  -0.005084
 637  19   4.197323  12.414128   1.909155  -0.000871   0.168124  -0.005183
 638  19   3.399240  13.152844   2.844137  -0.001121   0.168124  -0.006669
 639   5   4.549429  11.682904   1.568481  -0.000621   0.161269  -0.003852
 640   5   3.374515  12.622948   2.141765  -0.000736   0.161269  -0.004563
 641   5   2.828194  13.202872   3.186151  -0.000544   0.091137  -0.005971
 642  22   0.904078  13.429510   3.780712  -0.002305   0.246605  -0.009349
 643  22   0.032447  12.606425   3.184085  -0.002295   0.246605  -0.009308
 644   5   1.301291  12.557004   2.901330  -0.004964   0.669684  -0.007413
 645   6  12.422802  -1.831411   4.003150   0.000034   0.028133   0.001210
 646   8  12.712747  -1.722493   4.394234   0.000100   0.028133   0.003558
 647  20  12.129810  -1.896402   3.952947   0.000011   0.028133   0.000373
 648   6  15.162799  -0.469145   1.784483   0.000032   0.028745   0.001106
 649   8  15.424711  -0.374566   2.198434   0.000064   0.028745   0.002219
 650  21  15.172946  -0.381095   1.494014   0.000010   0.028745   0.000356
 651   6  15.395275   2.774673   1.069068   0.000049   0.028745   0.001721
 652   8  15.654188   2.827395   1.492251   0.000096   0.028745   0.003351
 653  21  15.384633   2.572644   0.842576   0.000013   0.028745   0.000446
 654   6  13.032214  -1.775146   4.116107   0.000090   0.026088   0.003435
 655   8  13.321220  -1.750769   4.521943   0.000036   0.026088   0.001384
 656  23  13.607028  -1.799571   4.609405  -0.000001   0.026088  -0.000048
 657   6  15.214610  -0.674791   2.344134   0.000053   0.026088   0.002032
 658   8  15.533109  -0.635543   2.726024   0.000029   0.026088   0.001126
 659  23  15.620127  -0.784574   2.974891   0.000003   0.026088   0.000113
 660   6  15.390067   3.409428   1.528705   0.000052   0.026197   0.001977
 661   8  15.710504   3.493452   1.901643   0.000022   0.026197   0.000858
 662  24  15.813489   3.719552   2.075893  -0.000017   0.026197  -0.000661
 663   8  13.061917  -1.765511   4.563257   0.000131   0.040137   0.003268
 664   6  12.684403  -1.867351   3.962615   0.000111   0.040137   0.002773
 665   8  15.558935  -0.539386   2.541365   0.000091   0.034183   0.002652
 666   6  15.161467  -0.605126   1.949150   0.000083   0.034183   0.002440
 667   8  15.794616   3.154041   1.747888   0.000169   0.076053   0.002222
 668   6  15.344072   3.141511   1.185296   0.000177   0.076053   0.002332
 669   6  11.537329   1.309685  -1.284689   0.000078   0.039773   0.001969
 670  16  11.009352   1.807205  -1.465910   0.000081   0.039773   0.002048
 671  21  11.835576   1.261911  -1.315464  -0.000051   0.039773  -0.001290
 672  16  10.356543   1.827838  -1.618074  -0.000195   0.177733  -0.001095
 673  16   9.340001   1.339210  -0.962845  -0.000681   0.361994  -0.001881
 674   6  10.650022   0.838330  -0.988868   0.000873   0.489133   0.001785
 675   6   9.499234   0.381486  -0.171517   0.000614   0.250517   0.002451
 676   6  14.584248   4.322244   1.370623   0.000127   0.168416   0.000753
 677  17  14.234677   4.990501   1.314723   0.000016   0.168416   0.000093
 678  24  15.001193   4.549476   1.967199  -0.000081   0.168416  -0.000481
 679  17  13.942591   5.244629   0.704493  -0.000109   0.115257  -0.000945
 680   6  14.371492   4.205773   0.675840   0.000340   0.162514   0.002091
 681  20   9.185557  -0.580959   1.058471  -0.000069   0.068885  -0.001008
 682  20  10.045364  -1.246549   0.857415  -0.000147   0.152559  -0.000965
 683  20  11.098515  -1.935146   1.310721  -0.000041   0.152559  -0.000272
 684  20  11.778911  -2.231593   2.423357  -0.000196   0.152559  -0.001285
 685  20  11.906914  -2.127301   3.516720  -0.000067   0.068885  -0.000977
 686   6   9.625810  -0.553878   0.655557  -0.000043   0.151388  -0.000286
 687   6  10.841223  -1.436536   0.692859   0.000245   0.151388   0.001618
 688   6  11.868630  -2.020333   1.620933   0.000195   0.151388   0.001287
 689   6  12.290215  -2.067858   3.062360  -0.000026   0.151388  -0.000174
 690  21  14.915897  -0.628040   1.056813  -0.000065   0.074919  -0.000873
 691  21  13.967714  -1.084515   0.484435  -0.000171   0.169230  -0.001012
 692  21  12.858177  -0.828389  -0.401279  -0.000153   0.169230  -0.000903
 693  21  12.270842   0.267696  -1.132578  -0.000292   0.169230  -0.001726
 694   6  14.435039  -0.983168   1.227552  -0.000143   0.161605  -0.000885
 695   6  13.114098  -1.253115   0.330157   0.000153   0.161605   0.000946
 696   6  12.098500  -0.443799  -0.637645   0.000117   0.161605   0.000722
 697   6  11.772916   0.710954  -1.192535   0.000031   0.091530   0.000333
 698  21  14.566581   2.976254  -0.184830  -0.000062   0.069580  -0.000894
 699  21  15.165383   2.638291   0.347752  -0.000058   0.069580  -0.000841
 700   6  14.776832   3.095278   0.364457  -0.000131   0.152477  -0.000862
 701  23  14.016493  -1.879421   4.407603  -0.000204   0.202927  -0.001005
 702  23  15.071484  -1.415970   3.518367  -0.001067   0.415589  -0.002567
 703   6  13.666979  -1.742548   3.222129   0.000876   0.555558   0.001577
 704   6  14.858682  -1.079319   2.284281   0.000673   0.285781   0.002356
 705  24  15.760868   4.088177   2.147472  -0.000208   0.150871  -0.001376
 706   6  15.063208   3.813714   1.293496   0.000383   0.212582   0.001803
 707   7   4.030500  10.440276   8.702551   0.000224   0.118100   0.001893
 708   9   3.870848  10.229986   9.000320   0.000986   0.118100   0.008351
 709  14   4.766350   9.755217   8.589356   0.000155   0.118100   0.001313
 710   7   0.011342   6.689755   5.971398   0.000230   0.118860   0.001937
 711   9  -0.014842   6.604407   6.359240   0.000997   0.118860   0.008389
 712  15   0.732153   5.987032   5.824614   0.000176   0.118860   0.001479
 713   9   3.337008  10.834360   9.405497   0.001055   0.137011   0.007697
 714   9   2.050972  11.813180   9.642134   0.002446   0.289169   0.008459
 715   9   0.107199  12.184267   9.436697   0.003067   0.289169   0.010607
 716   9  -1.590495  11.439792   8.714368   0.003630   0.289169   0.012555
 717   9  -2.367772   9.875465   7.762061   0.002885   0.289169   0.009977
 718   9  -1.915894   8.112649   6.958039   0.002306   0.289169   0.007973
 719   9  -0.812687   6.963275   6.597694   0.001035   0.137011   0.007554
 720   7   3.049263  11.555126   9.087161   0.000900   0.284951   0.003159
 721   7   1.210003  12.490932   9.189816   0.001290   0.284951   0.004528
 722   7  -0.782415  12.286634   8.682192   0.001854   0.284951   0.006506
 723   7  -2.136588  11.023380   7.765919   0.001757   0.284951   0.006166
 724   7  -2.314629   9.202944   6.804950   0.001354   0.284951   0.004751
 725   7  -1.245819   7.548416   6.180986   0.000979   0.284951   0.003435
 726  14   5.591825   9.917156   8.172125  -0.000546   0.254542  -0.002144
 727   7   4.412058  10.825495   8.362045  -0.000295   0.361764  -0.000814
 728  15   0.936815   5.558945   5.156265  -0.000590   0.274281  -0.002151
 729   7  -0.029729   6.719265   5.120318  -0.000485   0.390011  -0.001243
 730  18  -0.102052   8.243545   2.526332  -0.001175   0.176521  -0.006658
 731  18  -0.201659   9.511557   2.115834  -0.003376   0.360437  -0.009366
 732  18   0.256127  10.743808   1.874443  -0.001312   0.176521  -0.007430
 733   7  -0.784634   8.911355   3.224678  -0.004111   0.485438  -0.008468
 734   7  -0.528569  10.698809   2.758637  -0.003647   0.485438  -0.007512
 735  19   3.243357  13.518180   3.942719  -0.001307   0.177162  -0.007379
 736  19   4.014320  13.422975   5.037148  -0.003469   0.361842  -0.009586
 737  19   4.794545  12.778916   5.918998  -0.001208   0.177162  -0.006820
 738   7   2.643687  13.643102   4.954873  -0.003666   0.487108  -0.007526
 739   7   3.752592  13.114621   6.367665  -0.003972   0.487108  -0.008154
 740  22  -0.633953  12.204316   3.216852  -0.000634   0.069756  -0.009091
 741  22  -1.518415  11.766254   3.726589  -0.001466   0.154404  -0.009497
 742  22  -2.266896  11.636565   4.834739  -0.001388   0.154404  -0.008991
 743  22  -2.357299  12.029634   6.116286  -0.001382   0.154404  -0.008952
 744  22  -1.752744  12.785099   7.048393  -0.001382   0.154404  -0.008948
 745  22  -0.699872  13.594751   7.250786  -0.001410   0.154404  -0.009132
 746  22   0.371774  14.128273   6.640895  -0.001500   0.154404  -0.009717
 747  22   1.024991  14.168004   5.467537  -0.001474   0.154404  -0.009544
 748  22   1.105117  13.846528   4.407237  -0.000611   0.069756  -0.008760
 749   7  -0.838309  11.639957   3.251498  -0.001620   0.153427  -0.010562
 750   7  -1.934727  11.207701   4.194468  -0.001495   0.153427  -0.009742
 751   7  -2.431986  11.363823   5.610989  -0.001314   0.153427  -0.008564
 752   7  -2.127216  12.044630   6.923159  -0.001215   0.153427  -0.007921
 753   7  -1.144756  12.972371   7.595648  -0.001236   0.153427  -0.008053
 754   7   0.114577  13.768554   7.354098  -0.001305   0.153427  -0.008507
 755   7   1.137010  14.108356   6.297056  -0.001524   0.153427  -0.009931
 756   7   1.505417  13.853149   4.855766  -0.001551   0.153427  -0.010108
 757   8  12.523388   4.892773   7.050178   0.000062   0.083111   0.000752
 758  10  11.541750   5.219507   7.004440  -0.000131   0.083111  -0.001571
 759  25  12.335616   4.763447   7.253242  -0.000192   0.083111  -0.002316
 760  10  11.250059   5.865004   6.584932  -0.000778   0.376190  -0.002067
 761   8  12.724713   5.505872   6.290586   0.001559   0.535666   0.002910
 762   8  13.558425   5.840490   4.668906   0.000077   0.088575   0.000870
 763  17  13.077413   6.242547   3.887007   0.000172   0.088575   0.001941
 764  24  13.847843   5.882416   4.576856  -0.000011   0.088575  -0.000128
 765  17  12.587499   6.662860   3.729863   0.000004   0.070462   0.000052
 766   8  13.316720   5.983071   4.823508   0.000335   0.100127   0.003346
 767  20  11.705230  -1.880354   4.195806  -0.000152   0.214118  -0.000708
 768  20  10.623027  -1.041621   4.898321  -0.001047   0.440451  -0.002378
 769   8  12.049059  -1.327611   5.262154   0.001009   0.584435   0.001727
 770   8  10.832187  -0.261306   5.928021   0.000713   0.301617   0.002364
 771  21  15.553267   2.109336   0.742890  -0.000156   0.220438  -0.000710
 772  21  15.532939   0.558779   1.073430  -0.001286   0.454706  -0.002827
 773   8  16.072227   1.756839   1.827783   0.000914   0.600665   0.001522
 774   8  15.864387   0.010659   2.223309   0.000747   0.310566   0.002406
 775  23  16.069448  -0.730591   3.269661  -0.000075   0.069008  -0.001084
 776  23  16.827055  -0.101190   3.786156  -0.000271   0.153164  -0.001767
 777  23  17.283347   0.457944   4.920767  -0.000120   0.153164  -0.000781
 778  23  17.023405   0.568184   6.235473  -0.000243   0.153164  -0.001583
 779  23  16.154607   0.183991   7.187188  -0.000282   0.153164  -0.001839
 780  23  15.035842  -0.535929   7.382773  -0.000176   0.153164  -0.001149
 781  23  14.129255  -1.294189   6.741433  -0.000214   0.153164  -0.001396
 782  23  13.809343  -1.777562   5.528098  -0.000321   0.153164  -0.002094
 783   8  16.295690  -0.191412   3.145807  -0.000131   0.151318  -0.000867
 784   8  17.150031   0.601158   4.106979   0.000117   0.151318   0.000770
 785   8  17.266497   0.998202   5.559806   0.000103   0.151318   0.000678
 786   8  16.596978   0.835705   6.904148  -0.000035   0.151318  -0.000231
 787   8  15.418043   0.180794   7.584676  -0.000011   0.151318  -0.000072
 788   8  14.216692  -0.695998   7.320274   0.000101   0.151318   0.000671
 789   8  13.489187  -1.432481   6.220163  -0.000107   0.151318  -0.000707
 790   8  13.396669  -1.753781   5.039090   0.000047   0.084308   0.000557
 791  24  14.298714   5.830427   5.181588  -0.000034   0.067427  -0.000500
 792  24  14.925471   5.470552   5.992486  -0.000100   0.148831  -0.000673
 793  24  15.931225   4.735442   6.413207  -0.000200   0.148831  -0.001342
 794  24  16.872208   3.906451   6.017912  -0.000239   0.148831  -0.001603
 795  24  17.378929   3.309094   4.961819  -0.000118   0.148831  -0.000796
 796  24  17.252417   3.177931   3.659619  -0.000180   0.148831  -0.001209
 797  24  16.542348   3.564467   2.622639  -0.000300   0.148831  -0.002015
 798   8  14.162999   5.598470   5.708558   0.000078   0.148653   0.000522
 799   8  15.157665   4.955010   6.591356   0.000063   0.148653   0.000423
 800   8  16.309327   4.029710   6.606397   0.000007   0.148653   0.000045
 801   8  17.165769   3.185902   5.747776   0.000034   0.148653   0.000230
 802   8  17.390695   2.754920   4.352643   0.000068   0.148653   0.000458
 803   8  16.895786   2.905996   2.968817   0.000057   0.148653   0.000380
 804   8  16.129265   3.382354   2.179505   0.000010   0.082377   0.000127
 805  25  10.933968   0.759226   7.147460  -0.000142   0.067295  -0.002112
 806  25  11.802004   0.535797   7.763308  -0.000224   0.148671  -0.001506
 807  25  12.891046   0.937465   8.384005  -0.000174   0.148671  -0.001170
 808  25  13.635823   1.993506   8.634398  -0.000263   0.148671  -0.001769
 809  25  13.742377   3.287110   8.415660  -0.000274   0.148671  -0.001844
 810  25  13.168653   4.307703   7.814125  -0.000137   0.148671  -0.000923
 811   8  11.348000   0.339892   7.104755  -0.000099   0.148217  -0.000668
 812   8  12.586227   0.334226   7.913494   0.000118   0.148217   0.000796
 813   8  13.671373   1.196812   8.428954   0.000044   0.148217   0.000295
 814   8  14.175141   2.587195   8.447686  -0.000060   0.148217  -0.000406
 815   8  13.898697   3.956601   7.962297  -0.000044   0.148217  -0.000299
 816   8  13.217776   4.729536   7.346036   0.000137   0.082216   0.001666
 817  14   5.245923   9.322143   8.922213  -0.000101   0.255195  -0.000394
 818  14   4.960455   8.191695   9.314691   0.000135   0.512576   0.000263
 819  14   4.535473   7.043704   9.192413   0.000668   0.255195   0.002616
 820   9   3.788697   9.467695   9.672814   0.006304   0.636028   0.009912
 821   9   3.301508   7.905262   9.858102   0.008515   0.636028   0.013388
 822  15   2.429614   5.106211   7.691934   0.000626   0.244090   0.002565
 823  15   1.552960   5.033699   6.919960   0.000167   0.489890   0.000340
 824  15   0.948157   5.311787   5.957357  -0.000021   0.244090  -0.000087
 825   9   1.192894   5.972714   8.376610   0.007806   0.609628   0.012804
 826   9   0.176093   6.113811   7.186081   0.005846   0.609628   0.009590
 827  14   6.777315   5.788160   8.358454   0.000251   0.251190   0.000999
 828  14   7.505248   6.660964   8.378615  -0.000580   0.502289  -0.001156
 829  14   8.115931   7.697351   7.690872  -0.000522   0.502289  -0.001039
 830  10   8.194145   5.180358   7.991193  -0.000206   0.502289  -0.000410
 831  10   9.004220   6.273890   7.730447  -0.000545   0.502289  -0.001084
 832  10   9.371805   7.043421   6.978927   0.000052   0.251190   0.000208
 833  25  12.116349   4.677143   7.643875  -0.000020   0.228237  -0.000087
 834  25  11.455368   3.904305   8.169050  -0.001481   0.456658  -0.003243
 835  25  10.681210   2.744895   8.090203  -0.001579   0.456658  -0.003457
 836  10  10.773269   5.145773   7.595601  -0.001405   0.456658  -0.003076
 837  10   9.950532   4.081751   7.970740  -0.001320   0.456658  -0.002890
 838  10   9.377443   3.136333   7.674540  -0.000022   0.228237  -0.000095
 839  15   3.359901   3.487077   3.816166   0.000019   0.249072   0.000078
 840  15   3.459256   3.108773   4.857284  -0.000540   0.497983  -0.001085
 841  15   4.029311   3.228622   6.083102  -0.000250   0.497983  -0.000501
 842  11   4.538243   2.392600   3.759335  -0.000173   0.497983  -0.000348
 843  11   4.843970   2.147201   5.058668  -0.000212   0.497983  -0.000425
 844  11   5.420732   2.428578   5.967009   0.000368   0.249072   0.001476
 845  20   9.100780  -0.389500   4.746389   0.000226   0.252146   0.000898
 846  20   8.558370  -0.717702   3.804179  -0.000259   0.504184  -0.000514
 847  20   8.302610  -0.499441   2.461284  -0.000168   0.504184  -0.000333
 848  11   7.693994   0.357657   4.773239   0.000150   0.504184   0.000297
 849  11   7.170429   0.190763   3.502631  -0.000308   0.504184  -0.000612
 850  11   7.111967   0.558570   2.429792   0.000138   0.252146   0.000546
 851  16   6.926219   3.230164  -0.588264   0.000143   0.250848   0.000568
 852  16   7.279031   4.018409  -1.305885  -0.000317   0.501554  -0.000631
 853  16   8.047706   5.129572  -1.529639   0.000118   0.501554   0.000235
 854  12   5.858152   4.422063  -0.474809  -0.000273   0.501554  -0.000545
 855  12   6.440453   5.479661  -1.121356  -0.000284   0.501554  -0.000566
 856  12   7.129955   6.364672  -1.075193   0.000346   0.250848   0.001381
 857  18   3.441306   9.186052   0.164982  -0.000254   0.252062  -0.001008
 858  18   2.734172   8.296598   0.152812  -0.001708   0.504019  -0.003390
 859  18   2.149630   7.252108   0.850021  -0.001587   0.504019  -0.003148
 860  12   4.324456   7.935405  -0.269158  -0.000423   0.504019  -0.000838
 861  12   3.540971   6.825634   0.001603  -0.000772   0.504019  -0.001531
 862  12   3.193353   6.054150   0.760080  -0.000068   0.252062  -0.000270
 863  17  10.799761   7.812836   0.384219   0.000396   0.257337   0.001537
 864  17  11.382753   8.154581   1.331769  -0.000216   0.514621  -0.000419
 865  17  11.669430   7.924843   2.700030  -0.000226   0.514621  -0.000439
 866  13   9.870101   8.861724   1.124469  -0.000074   0.514621  -0.000144
 867  13  10.437927   9.034321   2.410891  -0.000434   0.514621  -0.000843
 868  13  10.512570   8.648600   3.506413   0.000090   0.257337   0.000351
 869  19   6.887095  11.537779   4.656224  -0.000533   0.254416  -0.002096
 870  19   6.811374  11.888032   3.564638  -0.001800   0.508750  -0.003538
 871  19   6.246595  11.695513   2.298603  -0.001463   0.508750  -0.002876
 872  13   8.034802  10.772771   3.869090  -0.000692   0.508750  -0.001361
 873  13   7.748827  10.967043   2.512861  -0.000679   0.508750  -0.001335
 874  13   7.169146  10.618140   1.584310   0.000184   0.254416   0.000723
 875  21  12.131853   1.457401  -1.535979   0.000352   0.254388   0.001385
 876  16  11.036979   2.341603  -1.831617   0.000368   0.254388   0.001445
 877  24  15.372988   5.000371   2.232423   0.000129   0.247910   0.000522
 878  24  15.155354   5.756876   2.999975  -0.000337   0.495627  -0.000680
 879  24  14.449934   6.127103   4.080426   0.000077   0.495627   0.000156
 880  17  14.215670   5.934190   1.584511  -0.000096   0.495627  -0.000194
 881  17  13.764163   6.669432   2.612917  -0.000110   0.495627  -0.000221
 882  17  13.088082   6.766891   3.474437   0.000261   0.247910   0.001051
 =====================================================

              6347305  WORDS OF DYNAMIC MEMORY USED
 EXECUTION OF GAMESS TERMINATED NORMALLY Wed Nov 23 00:52:39 2016
 DDI: 263640 bytes (0.3 MB / 0 MWords) used by master data server.

 ----------------------------------------
 CPU timing information for all processes
 ========================================
 0: 2976.928 + 0.900 = 2977.828
 ----------------------------------------
 ddikick.x: exited gracefully.
