----- GAMESS execution script -----

          ******************************************************
          *         GAMESS VERSION =  5 DEC 2014 (R1)          *
          *             FROM IOWA STATE UNIVERSITY             *
          * M.W.SCHMIDT, K.K.BALDRIDGE, J.A.BOATZ, S.T.ELBERT, *
          *   M.S.GORDON, J.H.JENSEN, S.KOSEKI, N.MATSUNAGA,   *
          *          K.A.NGUYEN, S.J.SU, T.L.WINDUS,           *
          *       TOGETHER WITH M.DUPUIS, J.A.MONTGOMERY       *
          *         J.COMPUT.CHEM.  14, 1347-1363(1993)        *
          **************** 64 BIT LINUX VERSION ****************

 EXECUTION OF GAMESS BEGUN Wed Nov 23 00:53:21 2016

            ECHO OF THE FIRST FEW INPUT CARDS -
 INPUT CARD>! SELECT RESTRICTED HARTREE-FOCK AS DEFAULT                                     
 INPUT CARD>$contrl scftyp=rhf $end                                                         
 INPUT CARD>                                                                                
 INPUT CARD>! THEORY: HF OR DFT                                                             
 INPUT CARD> $contrl mplevl=0 $end                                                          
 INPUT CARD>                                                                                
 INPUT CARD> $system timlim=10000 mwords=20 $end                                            
 INPUT CARD> $SCF DIRSCF=.TRUE. $end                                                        
 INPUT CARD>                                                                                
 INPUT CARD>                                                                                
 INPUT CARD>! BASIS SETS                                                                    
 INPUT CARD>! 6-311G(d,p)                                                                   
 INPUT CARD> $BASIS GBASIS=N311 NGAUSS=6 NDFUNC=1 NPFUNC=1 $END                             
 INPUT CARD>                                                                                
 INPUT CARD>! One of the following                                                          
 INPUT CARD> $guess guess=HUCKEL $end                                                       
 INPUT CARD>                                                                                
 INPUT CARD> $statpt projct=.FALSE. $end                                                    
 INPUT CARD> $STATPT IFREEZ(1)=1,2,3 $END                                                   
 INPUT CARD>                                                                                
 INPUT CARD>! Optimize the geometry with COSMO effects                                      
 INPUT CARD> $statpt opttol=0.0005 nstep=50 $end                                            
 INPUT CARD> $contrl nzvar=1 $end                                                           
 INPUT CARD> $zmat dlc=.t. auto=.t. $end                                                    
 INPUT CARD> $contrl runtyp=OPTIMIZE maxit=200 $end                                         
 INPUT CARD>                                                                                
 INPUT CARD>! Run COSMO on perfect conductor                                                
 INPUT CARD> $COSGMS PRFCND=.TRUE. $end                                                     
 INPUT CARD>                                                                                
 INPUT CARD>! Specifying RSOLV                                                              
 INPUT CARD> $COSGMS COSRAD = 1.4 $end                                                      
 INPUT CARD>                                                                                
 INPUT CARD>! available memory                                                              
 INPUT CARD> $SYSTEM MWORDS=40 $END                                                         
 INPUT CARD>                                                                                
 INPUT CARD> $DATA                                                                          
 INPUT CARD>1-Pentene, ID: C109671                                                          
 INPUT CARD>C1                                                                              
 INPUT CARD>C      6.0      1.8461000000    1.3228000000    0.9745000000                    
 INPUT CARD>C      6.0      3.2820000000    1.8296000000    1.0138000000                    
 INPUT CARD>C      6.0      4.1117000000    1.0830000000    1.9988000000                    
 INPUT CARD>C      6.0      1.0329000000    1.7752000000    2.1668000000                    
 INPUT CARD>C      6.0      5.2815000000    0.5335000000    1.6945000000                    
 INPUT CARD>H      1.0      1.3618000000    1.6793000000    0.0440000000                    
 INPUT CARD>H      1.0      1.8407000000    0.2171000000    0.9091000000                    
 INPUT CARD>H      1.0      3.7253000000    1.7617000000    0.0000000000                    
 INPUT CARD>H      1.0      3.3020000000    2.9062000000    1.2790000000                    
 INPUT CARD>H      1.0      3.7006000000    1.0109000000    3.0137000000                    
 INPUT CARD>H      1.0      0.9894000000    2.8705000000    2.2357000000                    
 INPUT CARD>H      1.0      1.4537000000    1.4067000000    3.1123000000                    
   40000000 WORDS OF MEMORY AVAILABLE

     BASIS OPTIONS
     -------------
     GBASIS=N311         IGAUSS=       6      POLAR=POPN311 
     NDFUNC=       1     NFFUNC=       0     DIFFSP=       F
     NPFUNC=       1      DIFFS=       F     BASNAM=        


     RUN TITLE
     ---------
 1-Pentene, ID: C109671                                                          

 THE POINT GROUP OF THE MOLECULE IS C1      
 THE ORDER OF THE PRINCIPAL AXIS IS     0

 ATOM      ATOMIC                      COORDINATES (BOHR)
           CHARGE         X                   Y                   Z
 C           6.0     3.4886231459        2.4997295366        1.8415379750
 C           6.0     6.2020806917        3.4574426671        1.9158042064
 C           6.0     7.7699863437        2.0465732447        3.7771843043
 C           6.0     1.9518979727        3.3546415734        4.0946582702
 C           6.0     9.9805878042        1.0081688144        3.2021406862
 H           1.0     2.5734288501        3.1734168512        0.0831479435
 H           1.0     3.4784186256        0.4102595119        1.7179498954
 H           1.0     7.0397962221        3.3291302726        0.0000000000
 H           1.0     6.2398752115        5.4919216655        2.4169595383
 H           1.0     6.9931199902        1.9103240010        5.6950672092
 H           1.0     1.8696948923        5.4244584478        4.2248603907
 H           1.0     2.7470946684        2.6582775469        5.8813941916
 H           1.0     0.0000000000        2.6626239167        3.9774952590
 H           1.0    10.8115003210        1.0909388127        1.3260207256
 H           1.0    11.1199036022        0.0000000000        4.5786170957

          INTERNUCLEAR DISTANCES (ANGS.)




     $CONTRL OPTIONS
     ---------------
 SCFTYP=RHF          RUNTYP=OPTIMIZE     EXETYP=RUN     
 MPLEVL=       0     CITYP =NONE         CCTYP =NONE         VBTYP =NONE    
 DFTTYP=NONE         TDDFT =NONE    
 MULT  =       1     ICHARG=       0     NZVAR =       1     COORD =UNIQUE  
 PP    =NONE         RELWFN=NONE         LOCAL =NONE         NUMGRD=       F
 ISPHER=      -1     NOSYM =       0     MAXIT =     200     UNITS =ANGS    
 PLTORB=       F     MOLPLT=       F     AIMPAC=       F     FRIEND=        
 NPRINT=       7     IREST =       0     GEOM  =INPUT   
 NORMF =       0     NORMP =       0     ITOL  =      20     ICUT  =       9
 INTTYP=BEST         GRDTYP=BEST         QMTTOL= 1.0E-06

     $SYSTEM OPTIONS
     ---------------
  REPLICATED MEMORY=    40000000 WORDS (ON EVERY NODE).
 DISTRIBUTED MEMDDI=           0 MILLION WORDS IN AGGREGATE,
 MEMDDI DISTRIBUTED OVER   1 PROCESSORS IS           0 WORDS/PROCESSOR.
 TOTAL MEMORY REQUESTED ON EACH PROCESSOR=    40000000 WORDS.
 TIMLIM=       10000.00 MINUTES, OR       6.9 DAYS.
 PARALL= F  BALTYP=  DLB     KDIAG=    0  COREFL= F
 MXSEQ2=     300 MXSEQ3=     150  mem10=         0

     $COSGMS OPTIONS
     ---------------
     EPSI  =   INFTY     NSPA  =      92     COSRAD=    1.40
     DISEX =   10.00     OUTCHG=DBLCAV       COSBUG=       F
     COSWRT=       F     DCOSMO=       F

     SYMMETRY COORDINATES WILL NOT BE USED FOR 
     THE COSMO CALCULATION, EVEN IF SPECIFIED:
         -- SWITCHING TO C1 POINT GROUP --


     DEFINITION OF CAVITY
     ---------------------------
     ATOM         COORDINATES           RADIUS 
     1    3.4886    2.4997    1.8415    2.0000
     2    6.2021    3.4574    1.9158    2.0000
     3    7.7700    2.0466    3.7772    2.0000
     4    1.9519    3.3546    4.0947    2.0000
     5    9.9806    1.0082    3.2021    2.0000
     6    2.5734    3.1734    0.0831    1.3000
     7    3.4784    0.4103    1.7179    1.3000
     8    7.0398    3.3291    0.0000    1.3000
     9    6.2399    5.4919    2.4170    1.3000
    10    6.9931    1.9103    5.6951    1.3000
    11    1.8697    5.4245    4.2249    1.3000
    12    2.7471    2.6583    5.8814    1.3000
    13    0.0000    2.6626    3.9775    1.3000
    14   10.8115    1.0909    1.3260    1.3000
    15   11.1199    0.0000    4.5786    1.3000

          ----------------
          PROPERTIES INPUT
          ----------------

     MOMENTS            FIELD           POTENTIAL          DENSITY
 IEMOM =       1   IEFLD =       0   IEPOT =       0   IEDEN =       0
 WHERE =COMASS     WHERE =NUCLEI     WHERE =NUCLEI     WHERE =NUCLEI  
 OUTPUT=BOTH       OUTPUT=BOTH       OUTPUT=BOTH       OUTPUT=BOTH    
 IEMINT=       0   IEFINT=       0                     IEDINT=       0
                                                       MORB  =       0
          EXTRAPOLATION IN EFFECT
          SOSCF IN EFFECT
 ORBITAL PRINTING OPTION: NPREO=     1   155     2     1

     -------------------------------
     INTEGRAL TRANSFORMATION OPTIONS
     -------------------------------
     NWORD  =            0
     CUTOFF = 1.0E-09     MPTRAN =       0
     DIRTRF =       T     AOINTS =DUP     

          ----------------------
          INTEGRAL INPUT OPTIONS
          ----------------------
 NOPK  =       1 NORDER=       0 SCHWRZ=       T


 -----------------------------------------------
  STATISTICS ON AUTOMATIC COORDINATE GENERATION 
 -----------------------------------------------
  NUMBER OF USER SPECIFIED BONDS                             0
  NUMBER OF BONDS                                           14
  NUMBER OF ANGLES                                          24
  NUMBER OF TORSIONS                                        28
  NUMBER OF EXTRA COORD.                                     0
  NUMBER OF EXTRA COORD. FOR CONSTRAINTS                     0
  NUMBER OF CONSTRAINED COORD.                               0

  TOTAL NUMBER OF PRIMITIVES                                66
 -----------------------------------------------

   --- ENCODED Z MATRIX ---
 COORD  TYPE   I   J   K   L   M   N
    1      1    1   7
    2      1    1   2
    3      1    1   4
    4      1    1   6
    5      1    2   8
    6      1    2   3
    7      1    2   9
    8      1    3  10
    9      1    3   5
   10      1    4  13
   11      1    4  12
   12      1    4  11
   13      1    5  15
   14      1    5  14
   15      2    1   4  11
   16      2    1   2   8
   17      2    1   4  12
   18      2    1   2   9
   19      2    1   4  13
   20      2    1   2   3
   21      2    2   1   6
   22      2    2   1   4
   23      2    2   3  10
   24      2    2   3   5
   25      2    2   1   7
   26      2    3   2   9
   27      2    3   2   8
   28      2    3   5  14
   29      2    3   5  15
   30      2    4   1   7
   31      2    4   1   6
   32      2    5   3  10
   33      2    6   1   7
   34      2    8   2   9
   35      2   11   4  12
   36      2   11   4  13
   37      2   12   4  13
   38      2   14   5  15
   39      3    1   2   3   5
   40      3    1   2   3  10
   41      3    2   1   4  13
   42      3    2   1   4  11
   43      3    2   3   5  14
   44      3    2   3   5  15
   45      3    2   1   4  12
   46      3    3   2   1   6
   47      3    3   2   1   4
   48      3    3   2   1   7
   49      3    4   1   2   9
   50      3    4   1   2   8
   51      3    5   3   2   9
   52      3    5   3   2   8
   53      3    6   1   4  13
   54      3    6   1   4  11
   55      3    6   1   2   9
   56      3    6   1   2   8
   57      3    6   1   4  12
   58      3    7   1   4  12
   59      3    7   1   4  13
   60      3    7   1   2   9
   61      3    7   1   2   8
   62      3    7   1   4  11
   63      3    8   2   3  10
   64      3    9   2   3  10
   65      3   10   3   5  15
   66      3   10   3   5  14

          INDEP./SYM. INTERNAL COORDINATES
          --------------------------------
 CRD  1=  -0.1592 (  2)  0.1641 ( 16) -0.1123 ( 17)  0.1284 ( 18) -0.5563 ( 20)
           0.1434 ( 21) -0.3897 ( 22) -0.2154 ( 23)  0.3109 ( 24)  0.1234 ( 26)
           0.2564 ( 27) -0.1097 ( 29)  0.1670 ( 31) -0.1139 ( 46) -0.1685 ( 47)
          -0.1049 ( 50)
 CRD  2=   0.1077 (  3)  0.1404 ( 15)  0.2228 ( 18) -0.1272 ( 19) -0.3007 ( 20)
          -0.1483 ( 21)  0.5999 ( 22) -0.1406 ( 23)  0.2306 ( 24) -0.2472 ( 25)
           0.1379 ( 27) -0.1925 ( 30) -0.1598 ( 31)  0.1153 ( 33) -0.2094 ( 39)
          -0.1537 ( 40)
 CRD  3=   0.2169 (  2)  0.2510 (  6)  0.2050 (  9) -0.1608 ( 18)  0.3378 ( 20)
          -0.2385 ( 23)  0.5252 ( 24)  0.1047 ( 25) -0.1559 ( 26)  0.2342 ( 28)
          -0.1518 ( 29) -0.2870 ( 32)  0.1627 ( 39) -0.1016 ( 44) -0.1377 ( 46)
          -0.1289 ( 47) -0.1119 ( 48)
 CRD  4=  -0.1045 (  2) -0.1857 (  3) -0.1632 (  6) -0.2212 (  9)  0.1535 ( 15)
          -0.2280 ( 16) -0.2373 ( 17)  0.1347 ( 18)  0.1849 ( 20) -0.1744 ( 21)
           0.1497 ( 25) -0.2694 ( 26)  0.1282 ( 27) -0.2096 ( 30)  0.2092 ( 31)
          -0.1285 ( 39) -0.1959 ( 40) -0.1160 ( 42) -0.1447 ( 43) -0.1087 ( 44)
          -0.1177 ( 45) -0.1645 ( 46) -0.3207 ( 47) -0.1739 ( 48) -0.1963 ( 49)
          -0.1928 ( 50) -0.1243 ( 63)
 CRD  5=   0.1237 (  2)  0.5137 (  3)  0.1085 (  5) -0.3729 (  6) -0.1550 (  9)
           0.1926 ( 15)  0.2338 ( 16)  0.1176 ( 19) -0.1604 ( 21) -0.1121 ( 23)
           0.1231 ( 31)  0.1769 ( 32) -0.1532 ( 35) -0.1487 ( 36) -0.1366 ( 37)
           0.2423 ( 39)  0.1949 ( 40) -0.1062 ( 47)  0.1492 ( 51)  0.1018 ( 64)
           0.1276 ( 66)
 CRD  6=   0.3902 (  2)  0.1734 (  3)  0.1255 (  4)  0.3033 (  6)  0.1110 (  8)
           0.1528 (  9)  0.1103 ( 13)  0.2197 ( 15) -0.3864 ( 17)  0.1096 ( 18)
           0.3109 ( 19)  0.1316 ( 21) -0.1347 ( 24) -0.1754 ( 28)  0.2461 ( 29)
          -0.2130 ( 36)  0.1708 ( 41)  0.1251 ( 45) -0.1086 ( 50)
 CRD  7=   0.3386 (  2) -0.1595 (  6) -0.2259 (  9)  0.1107 ( 10) -0.1191 ( 12)
          -0.4781 ( 15)  0.1340 ( 17)  0.2345 ( 18)  0.3792 ( 19) -0.1890 ( 26)
          -0.1962 ( 29)  0.1445 ( 35) -0.2106 ( 37)  0.1085 ( 38) -0.1530 ( 39)
          -0.1536 ( 40) -0.1210 ( 52) -0.1216 ( 63)
 CRD  8=   0.3787 (  2) -0.3814 (  3) -0.2148 (  6)  0.2086 (  9) -0.1190 ( 15)
           0.1845 ( 16) -0.1965 ( 19)  0.1087 ( 21) -0.2792 ( 23)  0.1710 ( 25)
           0.1391 ( 29) -0.2006 ( 30) -0.1403 ( 31)  0.2874 ( 32)  0.1535 ( 36)
           0.1060 ( 37) -0.1010 ( 38)  0.1002 ( 39) -0.1110 ( 46)  0.1096 ( 51)
          -0.1260 ( 56) -0.1014 ( 57)  0.1520 ( 60)
 CRD  9=  -0.1926 (  2)  0.1701 (  3)  0.4204 (  9)  0.1316 ( 13) -0.2215 ( 15)
          -0.1399 ( 16)  0.1818 ( 17)  0.1903 ( 19) -0.1396 ( 21) -0.3576 ( 23)
           0.1137 ( 27)  0.3010 ( 29)  0.1221 ( 31)  0.3310 ( 32) -0.1637 ( 37)
          -0.2054 ( 38) -0.1165 ( 39) -0.1062 ( 40) -0.1094 ( 51)
 CRD 10=  -0.1450 (  2) -0.1089 (  4) -0.1976 (  5) -0.3260 (  6)  0.1654 (  9)
          -0.1326 ( 11) -0.1512 ( 13)  0.2065 ( 14) -0.4345 ( 17)  0.2478 ( 19)
          -0.1246 ( 23) -0.1976 ( 27)  0.3299 ( 28) -0.2442 ( 29)  0.1093 ( 32)
           0.1548 ( 35) -0.1527 ( 36)  0.1485 ( 46)  0.1337 ( 47)  0.1312 ( 48)
 CRD 11=  -0.1028 (  4)  0.1771 (  6)  0.1388 (  7) -0.1071 ( 12) -0.2228 ( 15)
          -0.1740 ( 18)  0.1877 ( 19) -0.1238 ( 20) -0.3248 ( 21)  0.1106 ( 22)
           0.1542 ( 23)  0.2678 ( 25)  0.3047 ( 26) -0.3142 ( 30)  0.1975 ( 31)
          -0.1237 ( 32)  0.1427 ( 35) -0.1851 ( 41) -0.2048 ( 42)  0.1059 ( 43)
           0.1696 ( 44) -0.1895 ( 45)  0.1331 ( 48) -0.1817 ( 49)
 CRD 12=   0.1770 (  1)  0.1988 (  2)  0.1290 (  3)  0.1541 (  4)  0.1620 (  7)
           0.1299 (  9) -0.1212 ( 10) -0.1006 ( 13)  0.1396 ( 14)  0.1806 ( 15)
           0.2393 ( 17) -0.2846 ( 19) -0.2395 ( 22)  0.2093 ( 25) -0.1533 ( 27)
           0.2206 ( 28) -0.1468 ( 29)  0.1724 ( 31) -0.1333 ( 33) -0.2133 ( 35)
          -0.2098 ( 39) -0.1419 ( 40) -0.1204 ( 43)  0.1146 ( 46) -0.1617 ( 51)
          -0.2275 ( 52) -0.1596 ( 63) -0.1918 ( 66)
 CRD 13=   0.1062 (  6)  0.4771 (  8)  0.1840 (  9) -0.2016 ( 13)  0.2273 ( 14)
          -0.1955 ( 16)  0.2269 ( 18)  0.1338 ( 23) -0.2147 ( 24) -0.1394 ( 26)
           0.2132 ( 27)  0.3132 ( 28) -0.1827 ( 29) -0.1306 ( 38)  0.1825 ( 43)
           0.1914 ( 51)  0.1929 ( 52)  0.1632 ( 63)  0.1617 ( 64)  0.2136 ( 66)
 CRD 14=  -0.3724 (  1) -0.1099 (  2)  0.1486 (  4)  0.1590 (  5) -0.1802 (  7)
           0.2245 (  8) -0.1106 ( 12) -0.1748 ( 15)  0.2702 ( 16) -0.1890 ( 18)
          -0.1015 ( 24) -0.1258 ( 25) -0.1475 ( 27)  0.1174 ( 28)  0.1347 ( 39)
           0.1450 ( 41)  0.1206 ( 42) -0.2205 ( 43) -0.2601 ( 44)  0.1166 ( 45)
          -0.1593 ( 47) -0.1215 ( 49) -0.1618 ( 50) -0.1004 ( 52) -0.1653 ( 63)
          -0.1205 ( 64) -0.1920 ( 65) -0.1524 ( 66)
 CRD 15=   0.3366 (  1) -0.4209 (  4)  0.3458 (  5)  0.2319 (  8) -0.1341 ( 11)
           0.1101 ( 12) -0.1101 ( 20)  0.1231 ( 27)  0.1137 ( 30) -0.1866 ( 31)
          -0.1875 ( 41) -0.1480 ( 42) -0.1881 ( 43) -0.1970 ( 44) -0.1527 ( 45)
          -0.1569 ( 46) -0.1217 ( 48)  0.1351 ( 49)  0.2066 ( 50) -0.1086 ( 63)
          -0.1584 ( 65) -0.1495 ( 66)
 CRD 16=   0.1731 (  3)  0.4797 ( 10)  0.5020 ( 11)  0.5039 ( 12) -0.1764 ( 15)
          -0.1784 ( 17) -0.1940 ( 19)  0.1893 ( 35)  0.1987 ( 36)  0.2015 ( 37)
 CRD 17=   0.5133 ( 13)  0.5789 ( 14) -0.2285 ( 28) -0.2702 ( 29)  0.4988 ( 38)
 CRD 18=   0.1265 (  5) -0.4195 (  7)  0.1037 (  8) -0.1749 ( 18)  0.1135 ( 21)
           0.1065 ( 30) -0.1319 ( 31)  0.2185 ( 43)  0.4748 ( 44) -0.1585 ( 46)
          -0.1435 ( 48) -0.2421 ( 51) -0.1535 ( 52) -0.1311 ( 55) -0.1096 ( 56)
          -0.1160 ( 60) -0.1464 ( 64)  0.3745 ( 65)  0.1182 ( 66)
 CRD 19=  -0.1536 (  1) -0.1619 (  4)  0.6324 ( 10) -0.3510 ( 11) -0.2383 ( 12)
          -0.3266 ( 35)  0.1882 ( 36)  0.1293 ( 37) -0.1784 ( 42)  0.1642 ( 45)
          -0.1879 ( 54)  0.1548 ( 57)  0.1816 ( 58) -0.1611 ( 62)
 CRD 20=   0.1606 (  5)  0.2976 (  7)  0.4593 ( 11) -0.5344 ( 12) -0.2400 ( 36)
           0.2802 ( 37) -0.2059 ( 41) -0.2290 ( 53) -0.2298 ( 59)
 CRD 21=  -0.4494 (  5) -0.5751 (  7)  0.2249 ( 11) -0.2195 ( 12) -0.2531 ( 34)
          -0.1324 ( 36)  0.1256 ( 37) -0.1144 ( 41)  0.1588 ( 50)  0.1148 ( 51)
          -0.1274 ( 52)  0.1383 ( 56)  0.1492 ( 61) -0.1360 ( 63)  0.1061 ( 64)
 CRD 22=  -0.5518 (  1) -0.5588 (  4)  0.1363 (  5) -0.1387 ( 10)  0.1423 ( 11)
           0.1168 ( 25)  0.1180 ( 31) -0.2303 ( 33)  0.1341 ( 46)  0.1877 ( 55)
           0.1551 ( 56)  0.1173 ( 58)  0.1415 ( 59)  0.2050 ( 62)
 CRD 23=  -0.1619 (  1) -0.2230 (  4) -0.4854 (  5)  0.2317 (  7)  0.1275 ( 21)
          -0.1020 ( 25)  0.1257 ( 26)  0.1394 ( 30) -0.1003 ( 34) -0.1035 ( 42)
          -0.1326 ( 45) -0.1228 ( 48) -0.1840 ( 49) -0.1088 ( 50)  0.1474 ( 51)
          -0.1678 ( 53) -0.1983 ( 54) -0.2166 ( 55) -0.1413 ( 56) -0.2273 ( 57)
          -0.1609 ( 58) -0.1014 ( 59) -0.2903 ( 60) -0.2150 ( 61) -0.1318 ( 62)
           0.1125 ( 64)
 CRD 24=  -0.3464 (  1)  0.3554 (  4)  0.1123 (  5) -0.1080 (  7)  0.1200 ( 27)
          -0.2064 ( 41) -0.1778 ( 42) -0.1772 ( 45)  0.1171 ( 46)  0.1129 ( 48)
           0.1794 ( 50) -0.2717 ( 53) -0.2431 ( 54)  0.1279 ( 55)  0.2115 ( 56)
          -0.2425 ( 57) -0.2236 ( 58) -0.2528 ( 59)  0.1237 ( 60)  0.2074 ( 61)
          -0.2242 ( 62)
 CRD 25=  -0.1211 (  2)  0.1812 (  5) -0.2559 (  6) -0.1060 (  7) -0.1123 (  8)
           0.2244 (  9)  0.4647 ( 13)  0.1176 ( 16)  0.1669 ( 18)  0.3556 ( 23)
          -0.1366 ( 26) -0.1110 ( 27)  0.1385 ( 28)  0.1435 ( 29) -0.3524 ( 32)
          -0.2821 ( 38) -0.1179 ( 50) -0.1196 ( 61) -0.1111 ( 62)
 CRD 26=  -0.1725 (  5) -0.2345 (  6)  0.6366 (  8)  0.3023 ( 13) -0.4911 ( 14)
           0.1026 ( 24)  0.1173 ( 38)  0.1303 ( 60)
 CRD 27=  -0.1198 (  2) -0.1410 (  3) -0.1629 (  8)  0.2958 ( 10)  0.1866 ( 11)
           0.1787 ( 12)  0.2230 ( 14)  0.1951 ( 15) -0.1117 ( 16)  0.1924 ( 17)
           0.2295 ( 19)  0.1738 ( 21)  0.1211 ( 23)  0.1681 ( 25)  0.1192 ( 27)
           0.1115 ( 29) -0.1776 ( 30) -0.1905 ( 31) -0.1615 ( 35) -0.2477 ( 36)
          -0.2538 ( 37) -0.1795 ( 38) -0.1809 ( 46) -0.1279 ( 55) -0.1231 ( 56)
           0.1189 ( 60)  0.1237 ( 61)  0.1146 ( 62)  0.1209 ( 63) -0.1481 ( 66)
 CRD 28=   0.1118 (  2)  0.1451 (  3) -0.1070 ( 10) -0.1158 ( 12) -0.1006 ( 17)
           0.1011 ( 35)  0.1228 ( 36)  0.2846 ( 40) -0.3203 ( 43)  0.2819 ( 44)
           0.1240 ( 52)  0.3540 ( 63)  0.2715 ( 64) -0.5618 ( 66)
 CRD 29=   0.1224 (  2)  0.2184 (  3)  0.1667 (  4) -0.1814 (  6) -0.3424 (  9)
          -0.1927 ( 11)  0.3092 ( 13)  0.1363 ( 14) -0.1190 ( 16) -0.1073 ( 17)
          -0.1693 ( 18)  0.1608 ( 26)  0.1628 ( 27)  0.1929 ( 28)  0.1046 ( 29)
           0.1543 ( 35)  0.1233 ( 37) -0.2979 ( 38)  0.1068 ( 43) -0.1663 ( 44)
           0.1066 ( 50) -0.1432 ( 51)  0.1257 ( 58)  0.1009 ( 59) -0.1179 ( 60)
           0.1859 ( 62) -0.1984 ( 64) -0.1082 ( 65)  0.1649 ( 66)
 CRD 30=  -0.1549 (  1) -0.1648 (  5)  0.2256 (  7)  0.2600 (  8) -0.3052 (  9)
           0.1112 ( 12) -0.1331 ( 13)  0.3905 ( 14)  0.1711 ( 16) -0.1257 ( 21)
           0.1894 ( 24) -0.1414 ( 26) -0.1361 ( 28)  0.3117 ( 29) -0.1363 ( 32)
           0.1372 ( 33) -0.1753 ( 38)  0.1472 ( 44)  0.1227 ( 49) -0.1316 ( 52)
           0.1762 ( 57) -0.1165 ( 59)  0.1231 ( 60) -0.1673 ( 63)  0.1845 ( 65)
 CRD 31=  -0.1758 (  1)  0.1342 (  2) -0.2910 (  3)  0.1372 (  5) -0.1099 (  8)
          -0.1675 (  9)  0.2375 ( 12)  0.3115 ( 13) -0.1750 ( 14) -0.1507 ( 21)
          -0.1109 ( 23) -0.1177 ( 24)  0.2582 ( 28) -0.1650 ( 29)  0.1317 ( 30)
           0.2286 ( 32) -0.1749 ( 34) -0.1959 ( 35) -0.1000 ( 36)  0.1113 ( 51)
           0.1131 ( 53)  0.1250 ( 54) -0.1434 ( 55)  0.2623 ( 57) -0.1836 ( 60)
           0.1191 ( 64)
 CRD 32=   0.2292 (  1)  0.1069 (  2) -0.1282 (  3) -0.2334 (  4)  0.2129 (  6)
          -0.1380 (  7)  0.1046 (  8) -0.3799 (  9)  0.2593 ( 11) -0.1432 ( 12)
           0.1742 ( 13) -0.1645 ( 23) -0.1269 ( 25)  0.1308 ( 28)  0.1397 ( 32)
           0.1205 ( 34)  0.1408 ( 36) -0.1613 ( 37) -0.1725 ( 38)  0.1706 ( 41)
           0.1830 ( 46)  0.1381 ( 48) -0.1822 ( 54)  0.1722 ( 55) -0.1213 ( 57)
          -0.1739 ( 58)  0.1274 ( 60) -0.2348 ( 62) -0.1068 ( 65)
 CRD 33=  -0.3286 (  2)  0.3079 (  3)  0.3053 (  6)  0.1911 (  7) -0.1783 (  8)
          -0.1499 ( 12)  0.1912 ( 13) -0.1473 ( 14)  0.1327 ( 16) -0.1623 ( 24)
          -0.1662 ( 26)  0.2033 ( 28) -0.1727 ( 29) -0.1164 ( 30)  0.2159 ( 32)
           0.1504 ( 35)  0.1495 ( 44) -0.1139 ( 46) -0.1181 ( 52) -0.1186 ( 57)
           0.1744 ( 60)  0.1370 ( 61) -0.1904 ( 63)  0.2260 ( 65)
 CRD 34=  -0.1120 (  1)  0.2078 (  2)  0.2159 (  3) -0.1657 (  4) -0.1732 (  5)
          -0.1197 (  8)  0.1715 (  9) -0.3155 ( 10)  0.1689 ( 11) -0.1029 ( 18)
           0.1501 ( 23) -0.1342 ( 24)  0.1766 ( 27) -0.1059 ( 31)  0.2148 ( 33)
          -0.1721 ( 35)  0.1899 ( 36) -0.1676 ( 42)  0.1595 ( 45) -0.1812 ( 46)
          -0.1552 ( 51)  0.1097 ( 53) -0.1249 ( 54)  0.2022 ( 57)  0.1753 ( 60)
           0.1916 ( 61) -0.2688 ( 62) -0.1687 ( 64)
 CRD 35=   0.3005 (  6) -0.2207 (  7) -0.2130 ( 11)  0.2596 ( 12) -0.1388 ( 15)
          -0.1313 ( 27) -0.1174 ( 30)  0.2289 ( 34) -0.1434 ( 36)  0.2086 ( 37)
          -0.2598 ( 41) -0.2622 ( 50) -0.2308 ( 53) -0.2440 ( 56)  0.1116 ( 57)
           0.1272 ( 58) -0.2151 ( 59)  0.1461 ( 60) -0.1862 ( 61)  0.1505 ( 63)
          -0.1704 ( 65)
 CRD 36=  -0.3228 (  2)  0.1474 (  3)  0.2451 (  5) -0.2251 ( 10)  0.1121 ( 11)
          -0.1121 ( 17)  0.1342 ( 18)  0.1461 ( 19)  0.1006 ( 20)  0.1555 ( 21)
          -0.1243 ( 23)  0.1378 ( 24)  0.1522 ( 25) -0.1293 ( 27) -0.1264 ( 30)
          -0.1601 ( 31) -0.1398 ( 34) -0.1406 ( 35)  0.1114 ( 36) -0.1262 ( 39)
          -0.1645 ( 42)  0.1489 ( 45)  0.1256 ( 47)  0.1417 ( 48) -0.1132 ( 49)
           0.1503 ( 51) -0.2830 ( 54) -0.1737 ( 55)  0.2884 ( 58)  0.1618 ( 59)
           0.1867 ( 64)
 CRD 37=  -0.2079 (  1)  0.1940 (  3) -0.1243 (  4)  0.1512 (  5)  0.1113 ( 10)
          -0.1106 ( 12) -0.1127 ( 16)  0.1293 ( 18) -0.1433 ( 19) -0.2234 ( 22)
           0.2475 ( 33)  0.1112 ( 35) -0.2537 ( 39)  0.2006 ( 43) -0.1418 ( 45)
           0.1135 ( 47)  0.2218 ( 48) -0.1164 ( 52)  0.1950 ( 53)  0.2463 ( 54)
          -0.2751 ( 55) -0.2109 ( 56) -0.2381 ( 58)  0.1090 ( 61)  0.1866 ( 64)
          -0.2473 ( 65)
 CRD 38=   0.1500 (  1) -0.2348 (  4)  0.1083 (  5) -0.1575 (  6) -0.1551 ( 11)
           0.1253 ( 12) -0.1261 ( 15) -0.1123 ( 16)  0.1487 ( 17)  0.1112 ( 20)
           0.1495 ( 21) -0.1182 ( 25)  0.1202 ( 26) -0.1528 ( 30)  0.1405 ( 31)
          -0.1079 ( 36) -0.1134 ( 40)  0.2747 ( 42) -0.1582 ( 43)  0.2321 ( 45)
           0.1013 ( 46) -0.1375 ( 47)  0.1948 ( 48) -0.3183 ( 49)  0.1302 ( 51)
           0.1036 ( 52) -0.2139 ( 53)  0.1393 ( 56) -0.2837 ( 59)  0.2329 ( 61)
           0.1802 ( 65)
 CRD 39=  -0.1146 (  1) -0.1888 (  7) -0.1366 ( 20)  0.1325 ( 26)  0.1006 ( 34)
           0.1128 ( 39) -0.3152 ( 40) -0.1038 ( 42) -0.3867 ( 43) -0.1324 ( 45)
           0.2129 ( 47)  0.1378 ( 48)  0.2159 ( 51)  0.3714 ( 52)  0.1138 ( 53)
          -0.2028 ( 56) -0.1127 ( 61) -0.2121 ( 64)  0.3681 ( 65)

 THE DETERMINANT OF THE G MATRIX IS 10**(   -12)


                     --------------------
                     INTERNAL COORDINATES
                     --------------------

                 - - ATOMS - -         COORDINATE      COORDINATE
 NO.   TYPE    I  J  K  L  M  N        (BOHR,RAD)       (ANG,DEG)
 ----------------------------------------------------------------
   1 STRETCH   1  7                     2.0931467       1.1076456
   2 STRETCH   1  2                     2.8784686       1.5232201
   3 STRETCH   1  4                     2.8581375       1.5124613
   4 STRETCH   1  6                     2.0936501       1.1079120
   5 STRETCH   2  8                     2.0948836       1.1085647
   6 STRETCH   2  3                     2.8131151       1.4886365
   7 STRETCH   2  9                     2.0956359       1.1089628
   8 STRETCH   3 10                     2.0737309       1.0973712
   9 STRETCH   3  5                     2.5091269       1.3277729
  10 STRETCH   4 13                     2.0742520       1.0976470
  11 STRETCH   4 12                     2.0759783       1.0985605
  12 STRETCH   4 11                     2.0755365       1.0983267
  13 STRETCH   5 15                     2.0516170       1.0856690
  14 STRETCH   5 14                     2.0535561       1.0866952
  15 BEND      1  4 11                  1.9487701     111.6563032
  16 BEND      1  2  8                  1.9102675     109.4502658
  17 BEND      1  4 12                  1.9521707     111.8511429
  18 BEND      1  2  9                  1.9242900     110.2536950
  19 BEND      1  4 13                  1.9408141     111.2004546
  20 BEND      1  2  3                  1.9558494     112.0619175
  21 BEND      2  1  6                  1.9035836     109.0673044
  22 BEND      2  1  4                  1.9681557     112.7670178
  23 BEND      2  3 10                  2.0220630     115.8556776
  24 BEND      2  3  5                  2.1495242     123.1586671
  25 BEND      2  1  7                  1.9158539     109.7703434
  26 BEND      3  2  9                  1.8950581     108.5788333
  27 BEND      3  2  8                  1.9299886     110.5802021
  28 BEND      3  5 14                  2.1521780     123.3107175
  29 BEND      3  5 15                  2.1398796     122.6060715
  30 BEND      4  1  7                  1.9203878     110.0301144
  31 BEND      4  1  6                  1.9079531     109.3176587
  32 BEND      5  3 10                  2.1115911     120.9852592
  33 BEND      6  1  7                  1.8436606     105.6339718
  34 BEND      8  2  9                  1.8451766     105.7208341
  35 BEND     11  4 12                  1.8709782     107.1991539
  36 BEND     11  4 13                  1.8744170     107.3961858
  37 BEND     12  4 13                  1.8725095     107.2868922
  38 BEND     14  5 15                  1.9911263     114.0831350
  39 TORSION   1  2  3  5               2.2402527     128.3570231
  40 TORSION   1  2  3 10              -0.9053072     -51.8702796
  41 TORSION   2  1  4 13               3.1264332     179.1314262
  42 TORSION   2  1  4 11               1.0331344      59.1942418
  43 TORSION   2  3  5 14              -0.0100040      -0.5731897
  44 TORSION   2  3  5 15               3.1297339     179.3205427
  45 TORSION   2  1  4 12              -1.0635764     -60.9384373
  46 TORSION   3  2  1  6              -2.8463761    -163.0853372
  47 TORSION   3  2  1  4               1.3137165      75.2704094
  48 TORSION   3  2  1  7              -0.8341517     -47.7933713
  49 TORSION   4  1  2  9              -0.7992375     -45.7929341
  50 TORSION   4  1  2  8              -2.8218432    -161.6797086
  51 TORSION   5  3  2  9              -1.9131932    -109.6178963
  52 TORSION   5  3  2  8               0.1038046       5.9475637
  53 TORSION   6  1  4 13               1.0058153      57.6289740
  54 TORSION   6  1  4 11              -1.0874834     -62.3082104
  55 TORSION   6  1  2  9               1.3238553      75.8513193
  56 TORSION   6  1  2  8              -0.6987505     -40.0354552
  57 TORSION   6  1  4 12               3.0989911     177.5591105
  58 TORSION   7  1  4 12               1.0817636      61.9804912
  59 TORSION   7  1  4 13              -1.0114121     -57.9496454
  60 TORSION   7  1  2  9              -2.9471056    -168.8567149
  61 TORSION   7  1  2  8               1.3134739      75.2565107
  62 TORSION   7  1  4 11              -3.1047109    -177.8868297
  63 TORSION   8  2  3 10              -3.0417553    -174.2797390
  64 TORSION   9  2  3 10               1.2244323      70.1548010
  65 TORSION  10  3  5 15              -0.0076945      -0.4408608
  66 TORSION  10  3  5 14               3.1357529     179.6654068

     ------------------------------------------
     THE POINT GROUP IS C1 , NAXIS= 1, ORDER= 1
     ------------------------------------------

     DIMENSIONS OF THE SYMMETRY SUBSPACES ARE
 A   =  155

 ..... DONE SETTING UP THE RUN .....
 STEP CPU TIME =     0.01 TOTAL CPU TIME =        0.0 (    0.0 MIN)
 TOTAL WALL CLOCK TIME=        0.0 SECONDS, CPU UTILIZATION IS  50.00%


          -----------------------------
          STATIONARY POINT LOCATION RUN
          -----------------------------

 OBTAINING INITIAL HESSIAN, HESS=GUESS   
 DIAGONAL GUESS HESSIAN IN INTERNAL COORDS IS
     1  0.3347     2  0.3720     3  0.3799     4  0.3345     5  0.3341
     6  0.3979     7  0.3338     8  0.3414     9  0.5440    10  0.3413
    11  0.3407    12  0.3408    13  0.3493    14  0.3486    15  0.2246
    16  0.2234    17  0.2246    18  0.2234    19  0.2247    20  0.2519
    21  0.2234    22  0.2502    23  0.2261    24  0.2665    25  0.2234
    26  0.2254    27  0.2254    28  0.2369    29  0.2369    30  0.2241
    31  0.2241    32  0.2362    33  0.2016    34  0.2015    35  0.2026
    36  0.2026    37  0.2026    38  0.2038    39  0.2500    40  0.2500
    41  0.2500    42  0.2500    43  0.2500    44  0.2500    45  0.2500
    46  0.2500    47  0.2500    48  0.2500    49  0.2500    50  0.2500
    51  0.2500    52  0.2500    53  0.2500    54  0.2500    55  0.2500
    56  0.2500    57  0.2500    58  0.2500    59  0.2500    60  0.2500
    61  0.2500    62  0.2500    63  0.2500    64  0.2500    65  0.2500
    66  0.2500
 TRANSFORMING HESSIAN TO SYMMETRY COORDINATES

          PARAMETERS CONTROLLING GEOMETRY SEARCH ARE
          METHOD =QA                  UPHESS =BFGS    
          NNEG   =         0          NFRZ   =         3
          NSTEP  =        50          IFOLOW =         1
          HESS   =GUESS               RESTAR =         F
          IHREP  =         0          HSSEND =         F
          NPRT   =         0          NPUN   =         0
          OPTTOL = 5.000E-04          RMIN   = 1.500E-03
          RMAX   = 1.000E-01          RLIM   = 7.000E-02
          DXMAX  = 3.000E-01          PURIFY =         F
          MOVIE  =         F          TRUPD  =         T
          TRMAX  = 5.000E-01          TRMIN  = 5.000E-02
          ITBMAT =         5          STPT   =         F
          STSTEP = 1.000E-02          PROJCT=          F
          FROZEN COORD(S)=   1   2   3


      ***** EQUILIBRIUM GEOMETRY LOCATED *****
            (SUBJECT TO   3 CONSTRAINT(S))
 COORDINATES OF ALL ATOMS ARE (ANGS)
   ATOM   CHARGE       X              Y              Z
 ------------------------------------------------------------
 C           6.0   1.8349073170   1.3244602513   0.9604220973
 C           6.0   3.2812349849   1.8351474359   1.0076929502
 C           6.0   4.1328502976   1.0924898755   2.0016095112
 C           6.0   1.0230857949   1.7706501956   2.1756236599
 C           6.0   5.2835339013   0.5210078374   1.7016439941
 H           1.0   1.3593528937   1.6963366814   0.0563956537
 H           1.0   1.8377145474   0.2385910876   0.8855053345
 H           1.0   3.7412773201   1.7570486984   0.0274548310
 H           1.0   3.2640786609   2.8937397853   1.2655828184
 H           1.0   3.7580489421   1.0195644092   3.0121382746
 H           1.0   0.9864262164   2.8562880021   2.2208946931
 H           1.0   1.4639658688   1.4160904767   3.1027404722
 H           1.0   0.0040757175   1.3997313988   2.1307924594
 H           1.0   5.6851591674   0.5780023044   0.7027713450
 H           1.0   5.8621847019  -0.0125920800   2.4356864008


                     --------------------
                     INTERNAL COORDINATES
                     --------------------

                 - - ATOMS - -         COORDINATE      COORDINATE
 NO.   TYPE    I  J  K  L  M  N        (BOHR,RAD)       (ANG,DEG)
 ----------------------------------------------------------------
   1 STRETCH   1  7                     2.0568799       1.0884541
   2 STRETCH   1  2                     2.8999135       1.5345682
   3 STRETCH   1  4                     2.8875449       1.5280231
   4 STRETCH   1  6                     2.0542529       1.0870639
   5 STRETCH   2  8                     2.0515542       1.0856358
   6 STRETCH   2  3                     2.8438078       1.5048784
   7 STRETCH   2  9                     2.0592112       1.0896877
   8 STRETCH   3 10                     2.0413962       1.0802604
   9 STRETCH   3  5                     2.4931809       1.3193346
  10 STRETCH   4 13                     2.0510032       1.0853442
  11 STRETCH   4 12                     2.0524490       1.0861093
  12 STRETCH   4 11                     2.0545092       1.0871995
  13 STRETCH   5 15                     2.0338789       1.0762824
  14 STRETCH   5 14                     2.0373120       1.0780992
  15 BEND      1  4 11                  1.9204956     110.0362925
  16 BEND      1  2  8                  1.9258423     110.3426377
  17 BEND      1  4 12                  1.9475136     111.5843074
  18 BEND      1  2  9                  1.8920366     108.4057125
  19 BEND      1  4 13                  1.9456910     111.4798803
  20 BEND      1  2  3                  1.9708591     112.9219097
  21 BEND      2  1  6                  1.9008401     108.9101135
  22 BEND      2  1  4                  1.9595821     112.2757818
  23 BEND      2  3 10                  2.0429460     117.0521822
  24 BEND      2  3  5                  2.1617629     123.8598911
  25 BEND      2  1  7                  1.9088886     109.3712577
  26 BEND      3  2  9                  1.9092399     109.3913911
  27 BEND      3  2  8                  1.8976212     108.7256875
  28 BEND      3  5 14                  2.1090810     120.8414384
  29 BEND      3  5 15                  2.1277465     121.9108963
  30 BEND      4  1  7                  1.9256139     110.3295488
  31 BEND      4  1  6                  1.9061002     109.2114950
  32 BEND      5  3 10                  2.0783569     119.0810760
  33 BEND      6  1  7                  1.8599791     106.5689506
  34 BEND      8  2  9                  1.8652790     106.8726165
  35 BEND     11  4 12                  1.8798146     107.7054402
  36 BEND     11  4 13                  1.8873811     108.1389703
  37 BEND     12  4 13                  1.8805365     107.7468023
  38 BEND     14  5 15                  2.0463378     117.2465175
  39 TORSION   1  2  3  5               2.2060909     126.3996987
  40 TORSION   1  2  3 10              -0.9186915     -52.6371453
  41 TORSION   2  1  4 13              -3.1380593    -179.7975520
  42 TORSION   2  1  4 11               1.0511707      60.2276436
  43 TORSION   2  3  5 14               0.0195757       1.1216031
  44 TORSION   2  3  5 15              -3.1290077    -179.2789378
  45 TORSION   2  1  4 12              -1.0344735     -59.2709644
  46 TORSION   3  2  1  6              -2.8701333    -164.4465242
  47 TORSION   3  2  1  4               1.2998339      74.4749962
  48 TORSION   3  2  1  7              -0.8437684     -48.3443672
  49 TORSION   4  1  2  9              -0.8185576     -46.8998931
  50 TORSION   4  1  2  8              -2.8556893    -163.6189470
  51 TORSION   5  3  2  9              -1.9684682    -112.7849183
  52 TORSION   5  3  2  8               0.0626257       3.5881908
  53 TORSION   6  1  4 13               1.0349336      59.2973294
  54 TORSION   6  1  4 11              -1.0590217     -60.6774750
  55 TORSION   6  1  2  9               1.2946606      74.1785864
  56 TORSION   6  1  2  8              -0.7424712     -42.5404674
  57 TORSION   6  1  4 12               3.1385194     179.8239170
  58 TORSION   7  1  4 12               1.0996683      63.0063540
  59 TORSION   7  1  4 13              -1.0039175     -57.5202337
  60 TORSION   7  1  2  9              -2.9621598    -169.7192566
  61 TORSION   7  1  2  8               1.2838937      73.5616896
  62 TORSION   7  1  4 11              -3.0978728    -177.4950380
  63 TORSION   8  2  3 10              -3.0621567    -175.4486532
  64 TORSION   9  2  3 10               1.1899347      68.1782377
  65 TORSION  10  3  5 15              -0.0045458      -0.2604563
  66 TORSION  10  3  5 14              -3.1391477    -179.8599155

          INTERNUCLEAR DISTANCES (ANGS.)


 =====================================================
   GAMESS/COSab RESULTS
 =====================================================

   Dielectric Constant                  = INFTY
   Basic Grid Size                      =                 1082
   Number of Segments                   =                   92
   Number of Segments located on spheres=                  221
   Number of Segments of the cavity     =                  532
   Solvent Radius (rsolv)               = 1.40
   Outlying Charge Error Method         = double cavity

 =====================================================

  Total solvated Energy (a.u.)          =  -195.1922064407
  Total Energy corrected (a.u.)         =  -195.1921617028

  Outlying charge effect (a.u.)         =     0.0000447379
  Outlying charge effect (kcal/mol)     =     0.0280734869

  Dielectric Energy (a.u.)              =    -0.0031662413
  Dielectric energy corr. (a.u.)        =    -0.0031215034

  Sum of polarization charges           =     0.0249698488
  Sum of polarization charges(cor.)     =    -0.0249698488

  Total surface area of cavity (A**2)   =  129.53
  Total volume of cavity (A**3)         =  118.08

 =====================================================
 NPS=                   532
NR.  ATOM  (X, Y, Z)(a.u.)                  CHARGE(e)  AREA(A**2) SIGMA(e/A**2)
   1   1   4.508839   0.980918  -1.484092   0.000472   0.232280   0.002033
   2   1   1.218777   0.211111  -0.178936   0.001406   0.325193   0.004323
   3   1   1.278260   0.911191  -0.822909   0.001160   0.278737   0.004162
   4   1   3.927565   1.734392  -1.856863   0.000827   0.325193   0.002543
   5   1   2.372742   5.906804   0.590596   0.000180   0.139368   0.001292
   6   1   3.024558   6.165960   0.996520  -0.000005   0.046456  -0.000104
   7   1   3.683080   0.426132  -1.335467   0.001685   0.418105   0.004031
   8   1   2.190696   0.257301  -0.943977   0.001664   0.325193   0.005118
   9   1   0.441889   0.942666   0.173019   0.001125   0.371649   0.003027
  10   1   0.032320   1.436238   0.654640   0.000264   0.139368   0.001894
  11   1   4.827911   0.229922  -0.880854   0.000712   0.325193   0.002190
  12   1   0.710782   0.045513   1.010982   0.000933   0.325193   0.002869
  13   1   0.088449   2.061460   0.180428   0.000300   0.185824   0.001616
  14   1   2.834188   0.779773  -1.488734   0.001206   0.278737   0.004326
  15   1   2.872222   5.929327   0.335313   0.000069   0.046456   0.001479
  16   2   5.078283   5.888383  -0.772665   0.000379   0.232280   0.001630
  17   2   8.426841   6.289933   0.736144   0.001372   0.371649   0.003691
  18   2   8.200130   5.895284  -0.191969   0.000904   0.232280   0.003893
  19   2   5.659003   5.289189  -1.362828   0.000631   0.325193   0.001940
  20   2   6.523897   0.425696  -0.314897   0.000030   0.046456   0.000653
  21   2   5.901588   6.386014  -0.478918   0.001364   0.418105   0.003262
  22   2   7.399928   6.452939  -0.079576   0.001431   0.325193   0.004401
  23   2   9.152012   5.659751   1.027047   0.000568   0.278737   0.002039
  24   2   4.764392   6.420453   0.032365   0.000512   0.325193   0.001575
  25   2   8.937453   6.072394   2.008134   0.000700   0.232280   0.003014
  26   2   9.132149   5.215103   0.280119   0.000554   0.232280   0.002385
  27   2   6.750515   6.107010  -0.744718   0.001031   0.278737   0.003698
  28   2   6.798251   0.647860  -0.539999   0.000008   0.046456   0.000177
  29   3   7.007934  -1.207875   5.494984   0.001788   0.278737   0.006416
  30   3   8.802553   4.875002   6.106301   0.001292   0.371649   0.003476
  31   3   8.169876   4.352568   6.769042   0.000952   0.325193   0.002927
  32   3   9.379321   2.081903   7.220669   0.000190   0.092912   0.002040
  33   3   7.306874  -0.746428   6.258355   0.000603   0.232280   0.002596
  34   3   6.250677  -1.163150   4.980504   0.001269   0.232280   0.005461
  35   3   9.473828   2.790436   7.097430   0.000909   0.185824   0.004893
  36   3   9.566456   3.959978   6.540413   0.002388   0.418105   0.005712
  37   3   7.559605   5.130363   5.978417   0.000371   0.325193   0.001139
  38   3   6.764611  -1.522120   4.354946   0.001684   0.185824   0.009060
  39   3   9.783978   4.877867   5.354891   0.004387   0.511017   0.008585
  40   3   8.727212   5.450075   5.189891   0.000900   0.325193   0.002769
  41   3   9.032743   3.521898   7.048232   0.000864   0.232280   0.003719
  42   3   5.940928  -0.713017   5.536474   0.000758   0.232280   0.003264
  43   3   7.111882   4.591230   6.505105   0.000026   0.139368   0.000189
  44   3   9.714719   5.321471   4.002123   0.002722   0.418105   0.006510
  45   3   6.337370  -1.410824   3.977205   0.000824   0.139368   0.005915
  46   4  -1.362772   5.138133   3.654932   0.001108   0.232280   0.004768
  47   4   0.428119   4.724046   7.292486   0.000902   0.371649   0.002426
  48   4   3.940774   5.292839   6.653874   0.001051   0.232280   0.004525
  49   4   0.776323  -0.202714   4.704533   0.001360   0.418105   0.003254
  50   4   0.279089   0.318629   5.654864   0.000941   0.232280   0.004052
  51   4   2.009636  -0.298995   5.107395   0.000641   0.278737   0.002299
  52   4   1.796886   0.028515   5.916787   0.000725   0.232280   0.003121
  53   4   3.582295   5.876049   6.383850   0.001020   0.232280   0.004390
  54   4   0.679941   5.706816   6.783421   0.001291   0.418105   0.003087
  55   4  -0.871620   5.813659   3.539218   0.001755   0.371649   0.004723
  56   4   0.758951   6.022510   1.715180   0.000487   0.232280   0.002095
  57   4  -0.031098   1.313172   6.619860   0.001776   0.371649   0.004779
  58   4   0.618744   1.167391   6.905901   0.001042   0.232280   0.004484
  59   4  -0.306740   5.235234   1.724450   0.000974   0.325193   0.002996
  60   4  -1.039689   5.053263   2.520510   0.001368   0.325193   0.004206
  61   4  -1.221742   5.262975   4.920712   0.002488   0.511017   0.004868
  62   4  -0.524747   5.074266   6.403788   0.001240   0.418105   0.002966
  63   4   1.651054   4.892742   7.548245   0.001575   0.418105   0.003768
  64   4   3.007571   5.272647   7.180299   0.001655   0.325193   0.005088
  65   4  -0.740284   3.252522   1.441655   0.000162   0.092912   0.001747
  66   4  -0.626908   2.739057   6.824448   0.001286   0.371649   0.003460
  67   4  -0.358697   3.857921   7.072558   0.001211   0.464561   0.002608
  68   4   0.806296   3.780382   7.692596   0.000904   0.325193   0.002779
  69   4   0.447952  -0.113995   3.785766   0.000392   0.185824   0.002109
  70   4   0.979128   0.218836   6.007206   0.001578   0.371649   0.004245
  71   4   2.836358  -0.063702   5.468710   0.000203   0.139368   0.001456
  72   4   2.093753   5.663110   7.092908   0.001384   0.325193   0.004254
  73   4  -0.579396   5.699092   5.671334   0.001015   0.278737   0.003642
  74   4  -0.265520   5.890212   2.386095   0.000808   0.232280   0.003477
  75   4   0.282986   2.584852   7.425127   0.001598   0.418105   0.003822
  76   4  -0.884966   4.174429   1.733280   0.000936   0.325193   0.002879
  77   4  -1.173139   4.203995   6.085667   0.001069   0.371649   0.002878
  78   5  11.561472   3.575703   5.470247   0.002781   0.325193   0.008552
  79   5   9.554226  -2.532910   4.529608   0.002717   0.511017   0.005318
  80   5  11.208203   4.447071   2.322482   0.001114   0.139368   0.007995
  81   5  13.567955   2.176306   3.066045   0.001036   0.418105   0.002478
  82   5  12.389727  -1.793810   2.332808   0.000384   0.278737   0.001379
  83   5   8.945410  -1.733431   0.803765   0.001975   0.325193   0.006073
  84   5  11.198630   2.647186   6.385136   0.001918   0.232280   0.008259
  85   5  10.284465   0.929887   6.982770   0.000009   0.046456   0.000187
  86   5   9.286062  -0.922668   6.402958   0.000011   0.092912   0.000124
  87   5   9.013109  -1.780286   5.602346   0.001813   0.325193   0.005575
  88   5   9.457450  -1.184979   0.166119   0.001589   0.325193   0.004888
  89   5  12.639089  -1.055334   1.461839   0.000280   0.371649   0.000752
  90   5  13.410972   1.938538   1.937749   0.000805   0.418105   0.001924
  91   5  11.348716   3.944854   1.302605   0.001308   0.232280   0.005629
  92   5  11.908180   2.608967   6.034292   0.002170   0.325193   0.006672
  93   5  12.405876   2.120313   5.886026   0.000799   0.185824   0.004300
  94   5   8.368964  -2.232798   4.365884   0.003245   0.464561   0.006985
  95   5  11.867122   4.063069   2.091995   0.001797   0.278737   0.006445
  96   5  12.978300   3.197065   2.563053   0.001935   0.464561   0.004165
  97   5  13.722488   0.845204   2.675496   0.000611   0.371649   0.001644
  98   5  13.346313  -0.564192   2.451884   0.000442   0.371649   0.001188
  99   5  11.569504  -2.020626   1.560172   0.001361   0.603929   0.002254
 100   5  10.088471  -2.089377   1.019221   0.001860   0.464561   0.004003
 101   5   8.466061  -0.876472   0.297540   0.001290   0.185824   0.006941
 102   5  11.414878   4.482453   3.161734   0.002911   0.325193   0.008953
 103   5  11.536076   4.225211   4.388208   0.004046   0.371649   0.010886
 104   5  12.450123   3.332161   4.856813   0.002885   0.464561   0.006210
 105   5  13.202010   2.828009   3.945834   0.001779   0.464561   0.003830
 106   5  13.713823   1.177814   3.797489   0.000854   0.418105   0.002043
 107   5  13.436476   1.475073   4.674082   0.000602   0.278737   0.002160
 108   5  12.973533  -1.297087   2.836754   0.000161   0.278737   0.000577
 109   5  11.745982  -2.355249   3.051966   0.000696   0.418105   0.001666
 110   5  10.550916  -2.729607   3.625797   0.001335   0.371649   0.003591
 111   5   9.173599  -2.706877   3.218981   0.003158   0.511017   0.006179
 112   5   8.996391  -2.430990   1.934247   0.002730   0.464561   0.005875
 113   5   8.257616  -1.801406   1.333969   0.002805   0.278737   0.010065
 114   5  10.947226   1.822286   6.773102   0.000682   0.232280   0.002937
 115   5  10.867184  -1.627368   0.630537   0.000650   0.278737   0.002330
 116   5  13.475401   0.303503   1.937549   0.000210   0.325193   0.000646
 117   5  12.463753   3.394593   1.689531   0.001407   0.325193   0.004326
 118   5   8.838368  -0.309880  -0.145189   0.000464   0.139368   0.003326
 119   5  13.013739   2.313621   5.043530   0.001616   0.371649   0.004349
 120   5   8.036117  -2.228130   2.807134   0.004907   0.371649   0.013203
 121   5  12.329631   3.942013   3.410152   0.003035   0.464561   0.006534
 122   5  13.643136   0.074790   3.481016   0.000079   0.232280   0.000338
 123   5  10.413019  -2.669127   2.349011   0.002000   0.603929   0.003311
 124   6   1.495388   3.975782  -1.964596  -0.002829   0.549575  -0.005147
 125   6   2.810734   4.883067  -1.671843  -0.001129   0.333671  -0.003383
 126   6   1.561175   5.355247  -0.524977  -0.000741   0.353299  -0.002097
 127   6   0.265848   3.475474  -0.704993  -0.001101   0.372926  -0.002951
 128   6   1.323139   2.125370  -1.714553  -0.000665   0.372926  -0.001782
 129   6   3.084697   2.874874  -2.272423  -0.000860   0.353299  -0.002433
 130   6   2.166313   5.246812  -1.199807  -0.001363   0.412182  -0.003306
 131   6   0.775998   4.501996  -0.961286  -0.001702   0.471065  -0.003613
 132   6   0.643789   2.877566  -1.383994  -0.001371   0.431809  -0.003174
 133   6   2.037253   2.658005  -2.228532  -0.001441   0.451437  -0.003192
 134   6   2.851232   3.965501  -2.212469  -0.001772   0.451437  -0.003925
 135   7   3.021696  -1.960878   1.550356  -0.001807   0.392554  -0.004602
 136   7   3.242497  -1.519778   3.122030  -0.001284   0.392554  -0.003270
 137   7   4.457009  -1.149032   0.090094  -0.001093   0.372926  -0.002931
 138   7   2.944184  -1.117842  -0.141813  -0.000548   0.372926  -0.001469
 139   7   1.697779  -1.241564   1.531360  -0.000805   0.372926  -0.002159
 140   7   3.879317  -1.861188   2.397410  -0.001670   0.372926  -0.004479
 141   7   4.322142  -1.826567   1.316988  -0.001908   0.392554  -0.004861
 142   7   3.591792  -1.673445   0.445249  -0.001485   0.392554  -0.003783
 143   7   2.179928  -1.345567   0.607304  -0.001020   0.412182  -0.002475
 144   7   2.223903  -1.529527   2.417312  -0.001048   0.412182  -0.002543
 145   8   8.154822   3.111908  -2.142367  -0.003504   0.569203  -0.006156
 146   8   6.768187   2.263435  -2.145146  -0.001374   0.353299  -0.003888
 147   8   8.257355   4.973541  -1.323665  -0.000540   0.314043  -0.001721
 148   8   6.502900   4.337537  -2.111168  -0.001092   0.353299  -0.003091
 149   8   7.487290   1.718250  -1.763118  -0.002060   0.471065  -0.004374
 150   8   8.850928   4.159256  -1.417645  -0.002110   0.431809  -0.004885
 151   8   7.582117   4.531066  -2.023428  -0.001805   0.490692  -0.003678
 152   8   6.715071   3.271404  -2.378488  -0.002115   0.471065  -0.004491
 153   9   6.561689   7.836252   2.914561  -0.001741   0.333671  -0.005218
 154   9   6.579964   6.883795   4.356846  -0.001343   0.333671  -0.004024
 155   9   4.975619   7.498227   1.689778  -0.001202   0.255160  -0.004712
 156   9   6.717575   7.524406   1.164381  -0.000806   0.333671  -0.002414
 157   9   7.971374   7.103686   2.722518  -0.000886   0.333671  -0.002656
 158   9   6.071437   7.457074   3.830650  -0.001910   0.353299  -0.005405
 159   9   5.464827   7.786659   2.798975  -0.001664   0.274788  -0.006055
 160   9   6.062027   7.879826   1.934681  -0.001561   0.333671  -0.004680
 161   9   7.417692   7.525464   1.899338  -0.001305   0.412182  -0.003165
 162   9   7.411587   7.274346   3.499587  -0.001373   0.392554  -0.003498
 163   9   5.557928   7.437890   1.056052  -0.000537   0.255160  -0.002106
 164  10   6.760980   1.929880   8.125007  -0.003659   0.431809  -0.008474
 165  10   7.549796   3.140260   7.780541  -0.001200   0.294415  -0.004075
 166  10   8.121619   1.281397   7.831835  -0.001542   0.294415  -0.005239
 167  10   6.484369  -0.004968   7.078716  -0.001532   0.412182  -0.003716
 168  10   6.691101   3.315757   7.676299  -0.002508   0.392554  -0.006390
 169  10   7.936796   2.254354   7.979100  -0.001887   0.372926  -0.005060
 170  10   7.454808   0.600128   7.729415  -0.002173   0.392554  -0.005536
 171  10   6.394434   0.791566   7.752778  -0.002874   0.353299  -0.008134
 172  11   1.326831   7.765720   4.568978  -0.002402   0.471065  -0.005100
 173  11   0.125103   7.074750   3.751651  -0.000813   0.392554  -0.002071
 174  11   1.660447   7.212179   2.553443  -0.001251   0.372926  -0.003353
 175  11   2.840632   7.102332   5.671775  -0.001090   0.431809  -0.002525
 176  11   0.723616   6.993451   5.675976  -0.000784   0.372926  -0.002103
 177  11   0.813443   7.324741   3.093539  -0.001268   0.412182  -0.003077
 178  11   2.086234   7.748278   3.518638  -0.002312   0.431809  -0.005354
 179  11   2.612356   7.686429   4.683099  -0.002200   0.431809  -0.005096
 180  11   1.733629   7.188147   5.873791  -0.001135   0.412182  -0.002754
 181  11   0.236749   7.142771   4.781078  -0.000986   0.372926  -0.002645
 182  12   3.314141   1.972833   8.152588  -0.002810   0.451437  -0.006224
 183  12   2.495110   0.505852   6.982160  -0.000376   0.274788  -0.001368
 184  12   1.892183   2.153060   8.098773  -0.000906   0.372926  -0.002429
 185  12   3.122506   3.795187   8.021074  -0.000422   0.235532  -0.001791
 186  12   3.240365   0.692737   7.233401  -0.001748   0.314043  -0.005566
 187  12   2.265827   1.224802   7.781241  -0.001324   0.431809  -0.003066
 188  12   2.530000   3.037923   8.281640  -0.001176   0.392554  -0.002995
 189  12   3.773799   3.459137   7.962660  -0.001615   0.333671  -0.004840
 190  13  -2.323519   1.878336   3.914709  -0.003372   0.588831  -0.005726
 191  13  -1.184101   0.917154   5.302868  -0.000701   0.372926  -0.001879
 192  13  -0.984284   0.475668   3.439605  -0.000925   0.353299  -0.002618
 193  13  -1.658678   2.356140   2.244824  -0.001036   0.353299  -0.002932
 194  13  -2.171777   3.728355   3.692677  -0.000745   0.372926  -0.001997
 195  13  -1.926461   2.855831   5.526495  -0.000933   0.412182  -0.002264
 196  13  -1.465860   0.694775   4.271306  -0.001910   0.490692  -0.003893
 197  13  -1.620439   1.297894   2.773913  -0.001929   0.490692  -0.003931
 198  13  -2.153070   2.952279   2.898877  -0.001668   0.471065  -0.003541
 199  13  -2.324080   3.188714   4.576459  -0.001728   0.471065  -0.003667
 200  13  -1.833291   1.755269   5.388217  -0.001796   0.490692  -0.003660
 201  14  12.022236   0.869637  -0.757636  -0.003236   0.431809  -0.007495
 202  14  11.730420   2.860869  -0.062230  -0.001897   0.392554  -0.004832
 203  14  10.375144  -0.181773  -0.739881  -0.001887   0.431809  -0.004370
 204  14  12.619937   0.005381   0.173768  -0.001905   0.392554  -0.004854
 205  14  12.787130   2.121043   0.433724  -0.001313   0.353299  -0.003718
 206  14  11.278067   1.886927  -0.934187  -0.002804   0.353299  -0.007937
 207  14  10.757434   0.799253  -1.111017  -0.003025   0.412182  -0.007339
 208  14  11.611443  -0.372476  -0.442864  -0.002712   0.510320  -0.005314
 209  14  12.936919   1.049553   0.222744  -0.002140   0.392554  -0.005452
 210  14  12.216180   2.016393  -0.407449  -0.002032   0.314043  -0.006471
 211  15  12.389872  -1.183691   6.325716  -0.004966   0.608459  -0.008161
 212  15  10.625946  -1.811157   6.226400  -0.001919   0.412182  -0.004656
 213  15  11.132401   0.041822   7.057947  -0.001613   0.353299  -0.004565
 214  15  12.915056   0.604972   6.107669  -0.001534   0.353299  -0.004341
 215  15  13.379647  -0.881326   4.644768  -0.001681   0.333671  -0.005038
 216  15  12.037141  -2.285404   4.593992  -0.001365   0.333671  -0.004090
 217  15  10.978369  -0.973686   6.866161  -0.002892   0.490692  -0.005895
 218  15  12.194863   0.225059   6.776629  -0.002823   0.490692  -0.005752
 219  15  13.342175  -0.239861   5.530978  -0.003041   0.510320  -0.005959
 220  15  12.832761  -1.699269   4.987983  -0.003139   0.490692  -0.006398
 221  15  11.458538  -2.233797   5.605819  -0.003240   0.549575  -0.005895
 222   1   6.087085   0.000526   0.186252   0.000107   0.085633   0.001250
 223   2   6.574734   0.111412   0.156918   0.000176   0.085633   0.002060
 224   5   7.250168  -0.239584   0.465314   0.000580   0.085633   0.006779
 225   1   3.431362   5.727966  -0.171051   0.000002   0.028631   0.000081
 226   2   3.912915   5.859073  -0.134695   0.000021   0.028631   0.000741
 227   6   3.251525   5.608527  -0.384103  -0.000027   0.028631  -0.000928
 228   1   5.638576   0.905749  -0.987866   0.000042   0.026733   0.001568
 229   2   6.118874   1.044936  -1.004887   0.000009   0.026733   0.000319
 230   8   6.302511   1.220518  -1.169154  -0.000034   0.026733  -0.001264
 231   1   3.661663   6.299398   1.006317  -0.000042   0.029412  -0.001443
 232   2   4.118683   6.503237   1.009097  -0.000061   0.029412  -0.002089
 233   9   4.274538   6.682209   1.200039  -0.000108   0.029412  -0.003686
 234   2   6.175948   0.474178  -0.426119   0.000158   0.201128   0.000786
 235   1   5.452759   0.385865  -0.628582   0.000144   0.201128   0.000718
 236   2   4.120193   6.227599   0.316435   0.000031   0.178911   0.000172
 237   1   3.410114   6.067374   0.489696   0.000073   0.178911   0.000406
 238   1   1.723462   5.677205   0.707228  -0.000000   0.028201  -0.000016
 239   4   1.471740   5.787491   1.122821   0.000035   0.028201   0.001257
 240   6   1.660751   5.561238   0.434083  -0.000024   0.028201  -0.000861
 241   1  -0.065476   2.933381   0.519576   0.000015   0.028201   0.000519
 242   4  -0.294023   3.079212   0.937600   0.000071   0.028201   0.002533
 243   6   0.031903   3.062957   0.263224  -0.000016   0.028201  -0.000565
 244   1   1.014537  -0.316088   2.429020   0.000019   0.026910   0.000723
 245   4   0.775259  -0.135966   2.827147   0.000045   0.026910   0.001683
 246   7   1.223039  -0.526397   2.360776  -0.000006   0.026910  -0.000208
 247   1   1.922226   6.028917   1.275486   0.000015   0.027191   0.000555
 248   4   1.647033   6.209442   1.649509  -0.000027   0.027191  -0.001008
 249  11   1.669728   6.415849   1.870603  -0.000054   0.027191  -0.001990
 250   1  -0.345580   2.530584   1.051427   0.000061   0.025097   0.002443
 251   4  -0.645902   2.673161   1.422420   0.000015   0.025097   0.000613
 252  13  -0.842471   2.565811   1.625526  -0.000018   0.025097  -0.000721
 253   1   0.470022   0.116928   2.482526   0.000038   0.025097   0.001529
 254   4   0.180808   0.226633   2.873009   0.000012   0.025097   0.000465
 255  13  -0.090158   0.339449   2.945575  -0.000019   0.025097  -0.000749
 256   4   1.517943   6.086556   1.461143   0.000069   0.057444   0.001198
 257   1   1.842151   5.844871   0.868462   0.000080   0.057444   0.001394
 258   4  -0.561163   2.936945   1.228638   0.000131   0.063737   0.002048
 259   1  -0.191817   2.655254   0.680800   0.000127   0.063737   0.001987
 260   4   0.370523   0.057227   2.908413   0.000110   0.058189   0.001898
 261   1   0.793360  -0.186535   2.382384   0.000120   0.058189   0.002061
 262   1   5.751527  -0.209650   0.269735   0.000067   0.110903   0.000608
 263   5   6.898502  -0.370068   0.644081   0.000754   0.110903   0.006799
 264   7   5.596692  -0.440982   0.401724  -0.000104   0.110903  -0.000941
 265   1   4.447110   2.798244  -1.845882   0.000042   0.043958   0.000963
 266   6   4.185373   2.942316  -1.898997  -0.000056   0.043958  -0.001271
 267   8   5.182445   2.971429  -1.865380   0.000012   0.043958   0.000270
 268   6   3.604967   2.702338  -2.065134  -0.000124   0.066661  -0.001862
 269   6   2.819146   1.977233  -1.950041  -0.000213   0.146855  -0.001448
 270   6   1.654175   1.637935  -1.476796  -0.000178   0.146855  -0.001213
 271   6   0.642446   2.057406  -0.772034  -0.000252   0.146855  -0.001718
 272   6   0.158953   2.829263  -0.200186  -0.000100   0.066661  -0.001501
 273   1   3.619573   2.137168  -1.901773  -0.000144   0.147235  -0.000975
 274   1   2.417008   1.364874  -1.586869   0.000129   0.147235   0.000876
 275   1   1.130602   1.412255  -0.890680   0.000056   0.147235   0.000378
 276   1   0.255440   2.261077  -0.081139  -0.000132   0.147235  -0.000898
 277   6   1.958110   5.583029  -0.013820  -0.000106   0.067736  -0.001571
 278   6   2.712389   5.605844  -0.401214  -0.000110   0.067736  -0.001630
 279   1   2.514519   5.707402   0.148182  -0.000261   0.149151  -0.001751
 280   7   1.339578  -0.748760   1.876148  -0.000071   0.070582  -0.001013
 281   7   1.554451  -0.671689   0.767046  -0.000241   0.157192  -0.001533
 282   7   2.476358  -0.599761  -0.241019  -0.000184   0.157192  -0.001171
 283   7   3.825713  -0.580822  -0.464999  -0.000259   0.157192  -0.001651
 284   7   4.875781  -0.607287  -0.042064  -0.000175   0.070582  -0.002483
 285   1   1.131731  -0.382019   1.443426  -0.000173   0.154288  -0.001121
 286   1   1.739143  -0.283319   0.035509   0.000101   0.154288   0.000652
 287   1   3.088924  -0.229318  -0.696679   0.000111   0.154288   0.000717
 288   1   4.603798  -0.243112  -0.439996  -0.000183   0.154288  -0.001185
 289   8   6.253292   1.570503  -1.511192  -0.000442   0.219108  -0.002019
 290   8   5.798990   2.605597  -1.959542  -0.000535   0.219108  -0.002442
 291   1   5.003217   1.724296  -1.538655   0.000316   0.597666   0.000528
 292   1   3.237604   6.341361   1.458809  -0.000138   0.165801  -0.000834
 293   9   3.880244   6.672272   1.668267  -0.000377   0.165801  -0.002272
 294  11   2.920756   6.655869   2.071205  -0.000291   0.165801  -0.001755
 295   9   4.329290   6.841603   1.325692  -0.000078   0.027154  -0.002855
 296   1   3.375882   6.336909   1.046282   0.000065   0.038313   0.001691
 297  11   2.125698   6.727058   2.096287  -0.000402   0.178419  -0.002253
 298   1   2.385244   6.172799   1.142903   0.000292   0.251407   0.001163
 299  13  -0.968415   2.163243   1.781000  -0.000276   0.196284  -0.001405
 300  13  -0.608302   0.961604   2.421616  -0.001117   0.401124  -0.002786
 301   1  -0.135950   1.495109   1.152117   0.000586   0.538255   0.001089
 302   1   0.340441   0.209142   1.980054   0.000590   0.276411   0.002135
 303   2   9.623815   5.246422   2.442277   0.000348   0.046976   0.007406
 304   3   9.930426   5.037699   2.763914   0.000517   0.046976   0.011003
 305   5  10.287546   4.817055   2.670923   0.000610   0.046976   0.012994
 306   2   8.666278   6.049697   3.168420   0.000029   0.027930   0.001028
 307   3   8.919659   5.774811   3.486116   0.000103   0.027930   0.003676
 308   9   8.451900   6.265546   3.182764  -0.000030   0.027930  -0.001079
 309   3   9.559236   5.371792   3.134426   0.000934   0.184919   0.005051
 310   2   9.041822   5.807413   2.838400   0.000423   0.184919   0.002285
 311   2   7.368071   0.721506  -0.488705  -0.000019   0.070114  -0.000267
 312   5   8.034702   0.332812  -0.204188   0.000236   0.070114   0.003367
 313   8   7.495589   0.909642  -0.691543  -0.000149   0.070114  -0.002123
 314   2   9.517498   4.375488   0.228939   0.000013   0.070114   0.000182
 315   5  10.133720   3.901100   0.496626   0.000097   0.070114   0.001382
 316   8   9.455271   4.241062  -0.037250  -0.000198   0.070114  -0.002829
 317   5   7.951264  -0.365583   0.167642   0.001335   0.238849   0.005589
 318   2   7.109595   0.350473  -0.264227   0.000540   0.238849   0.002262
 319   5  10.607435   4.120683   0.999238   0.001181   0.301751   0.003915
 320   5  10.569480   4.691390   2.189488   0.002182   0.301751   0.007232
 321   2   9.624750   4.998071   1.279760   0.001364   0.604881   0.002255
 322   2   5.127272   4.215984  -1.663008   0.000020   0.040926   0.000479
 323   6   4.395635   4.062254  -1.704487   0.000020   0.040926   0.000477
 324   8   5.391351   4.103341  -1.758675  -0.000087   0.040926  -0.002120
 325   6   3.305692   5.367343  -0.845671  -0.000406   0.233470  -0.001739
 326   6   3.771823   4.459681  -1.654941  -0.000557   0.233470  -0.002384
 327   2   4.556700   5.197508  -0.982507   0.000014   0.634496   0.000021
 328   8   7.004419   1.164280  -1.118365  -0.000202   0.072309  -0.002790
 329   2   6.645367   0.974941  -0.901309  -0.000078   0.088341  -0.000880
 330   8   5.978547   4.405943  -1.858085  -0.000192   0.073567  -0.002616
 331   8   6.849859   5.122355  -1.506242  -0.000399   0.165718  -0.002408
 332   8   8.138456   5.232439  -0.910255  -0.000410   0.165718  -0.002474
 333   8   9.060844   4.669262  -0.432496  -0.000163   0.073567  -0.002220
 334   2   5.999687   4.919675  -1.518613  -0.000335   0.159068  -0.002104
 335   2   7.337283   5.580347  -0.943496  -0.000030   0.159068  -0.000189
 336   2   8.718351   5.151930  -0.261208  -0.000172   0.159068  -0.001084
 337   9   8.304054   6.612774   2.798537  -0.000120   0.069049  -0.001737
 338   9   8.021753   6.861893   1.757163  -0.000350   0.152944  -0.002291
 339   9   7.067802   7.069774   0.840384  -0.000308   0.152944  -0.002016
 340   9   5.739647   7.089960   0.669160  -0.000456   0.152944  -0.002980
 341   9   4.722848   6.970668   1.091183  -0.000231   0.069049  -0.003339
 342   2   8.487431   6.396580   2.271894  -0.000278   0.151733  -0.001832
 343   2   7.808827   6.704044   0.964657  -0.000026   0.151733  -0.000169
 344   2   6.456148   6.839227   0.319762  -0.000058   0.151733  -0.000381
 345   2   4.980737   6.747028   0.600064  -0.000345   0.151733  -0.002277
 346   3   4.695069  -0.371511   4.578042   0.000108   0.212769   0.000507
 347   4   3.645719  -0.175472   4.652547   0.000045   0.212769   0.000210
 348   7   3.900838  -0.562505   4.046584  -0.000173   0.212769  -0.000811
 349   3   6.147231   5.258037   5.410911  -0.000430   0.207771  -0.002067
 350   4   5.097188   5.460012   5.445076  -0.000049   0.207771  -0.000238
 351   9   5.864803   5.789555   4.963252  -0.000572   0.207771  -0.002753
 352   3   6.157038   4.273558   6.489310  -0.000364   0.094432  -0.003859
 353   4   5.105414   4.432933   6.469490  -0.000189   0.094432  -0.002000
 354  10   6.090445   4.061824   6.696513  -0.000548   0.094432  -0.005802
 355   3   4.676732   0.059191   5.488664  -0.000161   0.094201  -0.001713
 356   4   3.626164   0.195818   5.586786  -0.000153   0.094201  -0.001629
 357  12   3.718326   0.299416   5.860043  -0.000322   0.094201  -0.003415
 358   4   3.545120  -0.135552   5.244503   0.000308   0.172841   0.001782
 359   3   5.042351  -0.421979   5.252613   0.000302   0.172841   0.001747
 360   4   4.745887   5.096359   6.313387   0.000610   0.341422   0.001787
 361   3   6.251048   4.906034   6.088687  -0.000050   0.341422  -0.000146
 362   3   6.513720  -1.383699   2.816283   0.001129   0.073820   0.015289
 363   5   6.916268  -1.501534   2.724504   0.001184   0.073820   0.016034
 364   7   5.640565  -1.316363   2.409394   0.000523   0.073820   0.007090
 365   3   9.211963   1.251028   7.198923  -0.000045   0.010841  -0.004107
 366   5   9.577130   1.069689   7.064543  -0.000004   0.010841  -0.000390
 367  10   8.942232   1.283328   7.325399  -0.000088   0.010841  -0.008081
 368   3   8.435965  -0.108895   6.812976  -0.000025   0.010841  -0.002277
 369   5   8.810145  -0.274440   6.683079  -0.000005   0.010841  -0.000486
 370  10   8.235805   0.045325   6.974054  -0.000049   0.010841  -0.004482
 371   5   8.783811  -0.859667   6.250948   0.000361   0.222286   0.001625
 372   5   7.858497  -1.688490   4.280410   0.005527   0.465078   0.011884
 373   3   7.866651  -0.976500   5.666031   0.002116   0.465078   0.004549
 374   3   7.017612  -1.594694   3.586814   0.003018   0.222286   0.013578
 375   5  10.756073   4.674179   3.274001   0.002073   0.188778   0.010982
 376   5  10.881447   3.944383   5.145289   0.005312   0.386712   0.013736
 377   5  10.361893   2.100289   6.665476   0.001556   0.386712   0.004024
 378   3  10.293756   4.707611   4.147614   0.005122   0.386712   0.013245
 379   3  10.180666   3.397483   6.209740   0.003725   0.386712   0.009633
 380   3   9.568103   1.698265   7.097133   0.000148   0.188778   0.000787
 381   7   4.804114  -1.520614   2.594242  -0.000411   0.279626  -0.001469
 382   7   4.181850  -1.111639   3.560951  -0.000273   0.279626  -0.000975
 383   3   5.701072  -1.155621   3.787332   0.003189   0.775840   0.004110
 384   9   6.564834   6.193894   4.736151  -0.000610   0.201102  -0.003033
 385   9   7.752781   6.425085   3.899747  -0.001536   0.412579  -0.003723
 386   3   7.577981   5.603710   5.096594   0.000032   0.550194   0.000057
 387   3   8.855190   5.784578   4.031679   0.000785   0.283506   0.002769
 388   3   5.346238   0.050283   5.998773  -0.000322   0.085137  -0.003780
 389  10   5.345583   0.191617   6.266724  -0.000475   0.085137  -0.005576
 390  12   4.405043   0.445947   6.267677  -0.000380   0.085137  -0.004467
 391  10   6.017452  -0.140976   6.419986  -0.000366   0.081800  -0.004476
 392  10   7.247208  -0.119536   6.877638  -0.001045   0.190478  -0.005486
 393   3   6.592082  -0.402816   6.260918  -0.000510   0.171593  -0.002974
 394   3   7.935936  -0.233017   6.771594  -0.000223   0.099936  -0.002228
 395  10   8.688170   1.671939   7.541355  -0.000367   0.076654  -0.004783
 396  10   8.343720   2.859021   7.499266  -0.000737   0.175213  -0.004206
 397  10   7.244058   3.798849   7.159232  -0.000864   0.175213  -0.004929
 398   3   8.938171   2.204806   7.319234  -0.000567   0.163459  -0.003469
 399   3   8.133574   3.652597   7.125294  -0.000453   0.163459  -0.002768
 400   3   6.973923   4.259214   6.738966  -0.000307   0.093650  -0.003277
 401  12   3.775258   0.279196   6.185095  -0.000082   0.110261  -0.000748
 402   3   5.196730  -0.232600   5.804487   0.000241   0.157609   0.001532
 403   6   0.106936   3.519233   0.084983  -0.000325   0.217030  -0.001497
 404   6   0.884613   4.871556   0.160963  -0.001472   0.447060  -0.003293
 405   4  -0.122680   4.236279   1.083277   0.000670   0.591883   0.001132
 406   4   0.910608   5.675795   1.196760   0.000630   0.305755   0.002059
 407   7   3.186147  -0.896667   3.747964  -0.000285   0.203830  -0.001397
 408   7   1.954000  -0.883057   2.953775  -0.001089   0.417707  -0.002608
 409   4   2.197188  -0.425992   4.333321   0.000685   0.557809   0.001229
 410   4   0.863507  -0.299711   3.341219   0.000630   0.287095   0.002195
 411   4   4.176766   6.250687   5.250092   0.000056   0.084595   0.000659
 412   9   4.928721   6.441489   4.687580  -0.000054   0.084595  -0.000636
 413  11   3.998525   6.476205   5.144483  -0.000138   0.084595  -0.001631
 414   9   5.597003   6.427168   4.719186  -0.000280   0.156091  -0.001794
 415   4   4.548230   5.969151   5.558621   0.000558   0.220837   0.002525
 416   4   4.496963   4.300399   6.869098  -0.000181   0.084933  -0.002135
 417  10   5.459230   3.822590   6.945407  -0.000471   0.084933  -0.005541
 418  12   4.520351   4.058489   7.054418  -0.000315   0.084933  -0.003713
 419  10   6.066070   3.973345   6.978746  -0.000150   0.079685  -0.001876
 420   4   4.618821   4.614000   6.844265   0.000285   0.114216   0.002491
 421  11   1.271280   6.644240   2.165907  -0.000101   0.070408  -0.001439
 422  11   0.327259   6.586443   2.787539  -0.000272   0.156851  -0.001736
 423  11  -0.253016   6.515313   4.023494  -0.000195   0.156851  -0.001241
 424  11   0.055647   6.470227   5.354681  -0.000270   0.156851  -0.001720
 425  11   1.121164   6.470479   6.211442  -0.000300   0.156851  -0.001915
 426  11   2.487564   6.515962   6.227142  -0.000156   0.156851  -0.000995
 427  11   3.458517   6.572879   5.648391  -0.000105   0.070408  -0.001487
 428   4   0.781809   6.292841   2.134864  -0.000176   0.153851  -0.001144
 429   4  -0.288639   6.210907   3.233007  -0.000002   0.153851  -0.000016
 430   4  -0.450060   6.141838   4.758675   0.000116   0.153851   0.000755
 431   4   0.366624   6.115193   6.058986  -0.000081   0.153851  -0.000527
 432   4   1.811927   6.142374   6.577495   0.000053   0.153851   0.000341
 433   4   3.267357   6.211748   6.092315   0.000032   0.153851   0.000206
 434  12   3.903791   4.289213   7.325104  -0.000076   0.069553  -0.001088
 435  12   2.879799   4.147895   7.758012  -0.000350   0.154650  -0.002260
 436  12   1.807492   3.345715   7.961161  -0.000344   0.154650  -0.002227
 437  12   1.339372   2.100277   7.707480  -0.000292   0.154650  -0.001886
 438  12   1.671966   0.934448   7.103470  -0.000226   0.154650  -0.001464
 439  12   2.665643   0.337670   6.402709  -0.000475   0.154650  -0.003071
 440   4   3.403170   4.618466   7.296788   0.000005   0.152249   0.000032
 441   4   2.038533   4.129080   7.758575  -0.000031   0.152249  -0.000203
 442   4   1.124017   2.913456   7.728576  -0.000089   0.152249  -0.000586
 443   4   1.043558   1.481942   7.219384   0.000106   0.152249   0.000696
 444   4   1.830935   0.435522   6.444771  -0.000086   0.152249  -0.000565
 445   4   2.854604   0.107909   5.832684  -0.000049   0.084974  -0.000582
 446  13  -0.373011   0.299889   3.404562  -0.000106   0.069567  -0.001525
 447  13  -0.436143   0.337956   4.524295  -0.000287   0.154768  -0.001856
 448  13  -0.739934   1.036933   5.646003  -0.000245   0.154768  -0.001584
 449  13  -1.197364   2.242982   6.064678  -0.000246   0.154768  -0.001590
 450  13  -1.615673   3.447881   5.603893  -0.000324   0.154768  -0.002090
 451  13  -1.818589   4.143889   4.457819  -0.000192   0.154768  -0.001241
 452  13  -1.720602   4.037713   3.109408  -0.000253   0.154768  -0.001637
 453  13  -1.363005   3.174094   2.126875  -0.000378   0.154768  -0.002445
 454   4   0.016253   0.156285   3.837804  -0.000182   0.152194  -0.001194
 455   4  -0.177283   0.510388   5.306724   0.000021   0.152194   0.000137
 456   4  -0.629295   1.641591   6.221402   0.000109   0.152194   0.000719
 457   4  -1.149308   3.073209   6.196397  -0.000084   0.152194  -0.000552
 458   4  -1.518191   4.201966   5.242245  -0.000035   0.152194  -0.000233
 459   4  -1.580498   4.552207   3.761023   0.000130   0.152194   0.000857
 460   4  -1.309973   3.976344   2.376911  -0.000030   0.152194  -0.000197
 461   4  -0.935192   3.032429   1.668077  -0.000015   0.084992  -0.000177
 462   7   5.465531  -0.904068   0.505845   0.000265   0.254584   0.001042
 463   7   5.275162  -1.444404   1.496581   0.000027   0.509660   0.000052
 464   5   7.339504  -1.278203   1.114664   0.005988   0.753588   0.007946
 465   5   7.100545  -1.812243   2.308377   0.003579   0.379676   0.009427
 466   5  10.539656   3.602795   0.460876  -0.000029   0.080520  -0.000355
 467   8   9.777851   3.853387  -0.004877  -0.000088   0.080520  -0.001098
 468  14  10.631923   3.412461   0.245736  -0.000241   0.080520  -0.002996
 469   5   8.860566   0.341243  -0.400317  -0.000019   0.080520  -0.000237
 470   8   8.302854   0.988275  -0.761393  -0.000078   0.080520  -0.000967
 471  14   9.106836   0.450051  -0.536471  -0.000247   0.080520  -0.003069
 472   5  10.557433   3.815967   0.480580   0.000041   0.006420   0.006314
 473   8   7.740351   1.059715  -0.992435  -0.000111   0.111282  -0.000999
 474   5   8.477073   0.096743  -0.348856   0.000462   0.157101   0.002940
 475  10   8.388349   0.572272   7.238478  -0.001550   0.290370  -0.005339
 476   5   9.442435   0.399381   6.949250  -0.000279   0.409578  -0.000681
 477  14  11.326979   3.286242   0.390785  -0.000176   0.067809  -0.002592
 478  14  12.278737   2.847899   0.748458  -0.000468   0.150755  -0.003105
 479  14  13.025775   1.762966   0.986932  -0.000633   0.150755  -0.004200
 480  14  13.013729   0.426817   0.905863  -0.000693   0.150755  -0.004595
 481  14  12.247583  -0.607733   0.538792  -0.000765   0.150755  -0.005076
 482  14  11.044322  -0.912650   0.037592  -0.000511   0.150755  -0.003386
 483  14   9.901782  -0.361777  -0.390372  -0.000497   0.150755  -0.003294
 484   5  11.648879   3.374236   0.880197  -0.000123   0.148377  -0.000828
 485   5  12.802120   2.502360   1.294151  -0.000258   0.148377  -0.001739
 486   5  13.238123   1.066158   1.387524  -0.000522   0.148377  -0.003517
 487   5  12.776495  -0.340157   1.121684  -0.000585   0.148377  -0.003943
 488   5  11.608229  -1.134737   0.606621  -0.000440   0.148377  -0.002968
 489   5  10.216684  -0.988834   0.055434  -0.000248   0.148377  -0.001670
 490   5   9.282530  -0.275708  -0.279486  -0.000007   0.082843  -0.000087
 491  15  12.560714   1.227436   6.111843  -0.000119   0.064822  -0.001836
 492  15  11.677140   1.046179   6.676606  -0.000414   0.142958  -0.002895
 493  15  10.653271   0.312493   6.950384  -0.000670   0.142958  -0.004686
 494  15  10.039282  -0.778037   6.641650  -0.000658   0.142958  -0.004602
 495  15  10.069694  -1.808867   5.868332  -0.000460   0.142958  -0.003218
 496  15  10.732893  -2.386253   4.925809  -0.000403   0.142958  -0.002820
 497  15  11.775557  -2.289655   4.174094  -0.000564   0.142958  -0.003942
 498  15  12.799426  -1.555969   3.900316  -0.000692   0.142958  -0.004840
 499  15  13.413415  -0.465438   4.209050  -0.000765   0.142958  -0.005352
 500  15  13.383003   0.565391   4.982368  -0.000557   0.142958  -0.003897
 501  15  12.917592   1.126852   5.757397  -0.000147   0.064822  -0.002262
 502   5  12.108095   1.568412   6.236293  -0.000057   0.142942  -0.000400
 503   5  10.887252   1.077907   6.842122  -0.000300   0.142942  -0.002100
 504   5   9.919657   0.000217   6.821471  -0.000598   0.142942  -0.004183
 505   5   9.574898  -1.253016   6.182229  -0.000327   0.142942  -0.002285
 506   5   9.984662  -2.203099   5.168564  -0.000173   0.142942  -0.001212
 507   5  10.992432  -2.487134   4.167662  -0.000324   0.142942  -0.002264
 508   5  12.213274  -1.996628   3.561833  -0.000504   0.142942  -0.003524
 509   5  13.180869  -0.918938   3.582484  -0.000572   0.142942  -0.003999
 510   5  13.525628   0.334294   4.221726  -0.000498   0.142942  -0.003484
 511   5  13.115865   1.284378   5.235391  -0.000258   0.142942  -0.001802
 512   8   5.501143   3.466056  -2.049241  -0.000019   0.349972  -0.000055
 513   6   4.071734   3.639539  -2.002982   0.000101   0.349972   0.000288
 514  14   9.367717   0.636485  -0.888194  -0.000303   0.259113  -0.001168
 515  14  10.052395   1.646578  -1.095481  -0.002048   0.518518  -0.003950
 516  14  10.610736   2.907696  -0.500839  -0.001679   0.518518  -0.003238
 517   8   8.473418   1.718205  -1.404742  -0.001408   0.518518  -0.002716
 518   8   9.230753   3.012725  -1.324584  -0.001637   0.518518  -0.003157
 519   8   9.554942   3.962309  -0.599856  -0.000147   0.259113  -0.000568
 520  11   3.910208   6.904180   5.014427   0.000164   0.243588   0.000673
 521  11   3.514477   7.421634   4.091220  -0.000727   0.487145  -0.001492
 522  11   2.984318   7.318453   2.823174  -0.000761   0.487145  -0.001562
 523   9   5.129797   7.150351   4.101701  -0.000895   0.487145  -0.001836
 524   9   4.610153   7.510126   2.876879  -0.001037   0.487145  -0.002130
 525   9   4.195416   7.190767   1.875543  -0.000117   0.243588  -0.000479
 526  12   3.955964   0.500219   6.781278  -0.000522   0.241950  -0.002156
 527  12   4.132538   1.335239   7.597573  -0.002201   0.484100  -0.004547
 528  12   4.383468   2.723137   7.876927  -0.002037   0.484100  -0.004208
 529  12   4.554357   3.809931   7.447452  -0.000278   0.241950  -0.001151
 530  10   5.390433   0.560915   7.062376  -0.002295   0.484100  -0.004741
 531  10   5.628384   1.767263   7.807608  -0.003042   0.484100  -0.006284
 532  10   5.861928   3.168755   7.587278  -0.002527   0.484100  -0.005221
 =====================================================

              2237642  WORDS OF DYNAMIC MEMORY USED
 EXECUTION OF GAMESS TERMINATED NORMALLY Wed Nov 23 01:02:38 2016
 DDI: 263640 bytes (0.3 MB / 0 MWords) used by master data server.

 ----------------------------------------
 CPU timing information for all processes
 ========================================
 0: 556.124 + 0.300 = 556.424
 ----------------------------------------
 ddikick.x: exited gracefully.
