----- GAMESS execution script -----

          ******************************************************
          *         GAMESS VERSION =  5 DEC 2014 (R1)          *
          *             FROM IOWA STATE UNIVERSITY             *
          * M.W.SCHMIDT, K.K.BALDRIDGE, J.A.BOATZ, S.T.ELBERT, *
          *   M.S.GORDON, J.H.JENSEN, S.KOSEKI, N.MATSUNAGA,   *
          *          K.A.NGUYEN, S.J.SU, T.L.WINDUS,           *
          *       TOGETHER WITH M.DUPUIS, J.A.MONTGOMERY       *
          *         J.COMPUT.CHEM.  14, 1347-1363(1993)        *
          **************** 64 BIT LINUX VERSION ****************

 EXECUTION OF GAMESS BEGUN Wed Nov 23 02:09:15 2016

            ECHO OF THE FIRST FEW INPUT CARDS -
 INPUT CARD>! SELECT RESTRICTED HARTREE-FOCK AS DEFAULT                                     
 INPUT CARD>$contrl scftyp=rhf $end                                                         
 INPUT CARD>                                                                                
 INPUT CARD>! THEORY: HF OR DFT                                                             
 INPUT CARD> $contrl mplevl=0 $end                                                          
 INPUT CARD>                                                                                
 INPUT CARD> $system timlim=10000 mwords=20 $end                                            
 INPUT CARD> $SCF DIRSCF=.TRUE. $end                                                        
 INPUT CARD>                                                                                
 INPUT CARD>                                                                                
 INPUT CARD>! BASIS SETS                                                                    
 INPUT CARD>! 6-311G(d,p)                                                                   
 INPUT CARD> $BASIS GBASIS=N311 NGAUSS=6 NDFUNC=1 NPFUNC=1 $END                             
 INPUT CARD>                                                                                
 INPUT CARD>! One of the following                                                          
 INPUT CARD> $guess guess=HUCKEL $end                                                       
 INPUT CARD>                                                                                
 INPUT CARD> $statpt projct=.FALSE. $end                                                    
 INPUT CARD> $STATPT IFREEZ(1)=1,2,3 $END                                                   
 INPUT CARD>                                                                                
 INPUT CARD>! Optimize the geometry with COSMO effects                                      
 INPUT CARD> $statpt opttol=0.0005 nstep=50 $end                                            
 INPUT CARD> $contrl nzvar=1 $end                                                           
 INPUT CARD> $zmat dlc=.t. auto=.t. $end                                                    
 INPUT CARD> $contrl runtyp=OPTIMIZE maxit=200 $end                                         
 INPUT CARD>                                                                                
 INPUT CARD>! Run COSMO on perfect conductor                                                
 INPUT CARD> $COSGMS PRFCND=.TRUE. $end                                                     
 INPUT CARD>                                                                                
 INPUT CARD>! Specifying RSOLV                                                              
 INPUT CARD> $COSGMS COSRAD = 1.4 $end                                                      
 INPUT CARD>                                                                                
 INPUT CARD>! available memory                                                              
 INPUT CARD> $SYSTEM MWORDS=40 $END                                                         
 INPUT CARD>                                                                                
 INPUT CARD> $DATA                                                                          
 INPUT CARD>http://cactus.nci.nih.gov/chemical/structure/hexane/file?format=sdf&get3d=True  
 INPUT CARD>C1                                                                              
 INPUT CARD>C      6.0      3.1503400000   -0.1561900000   -0.0083900000                    
 INPUT CARD>C      6.0      1.8207000000    0.4814900000    0.3995500000                    
 INPUT CARD>C      6.0      0.6647700000   -0.3188400000   -0.2039700000                    
 INPUT CARD>C      6.0     -0.6647700000    0.3188400000    0.2039700000                    
 INPUT CARD>C      6.0     -1.8207000000   -0.4814900000   -0.3995500000                    
 INPUT CARD>C      6.0     -3.1503400000    0.1561900000    0.0083900000                    
 INPUT CARD>H      1.0      3.9737600000    0.4139900000    0.4215700000                    
 INPUT CARD>H      1.0      3.1886100000   -1.1822100000    0.3576500000                    
 INPUT CARD>H      1.0      3.2356800000   -0.1547000000   -1.0950800000                    
 INPUT CARD>C      6.0      1.7031200000    0.4794500000    1.8949400000                    
 INPUT CARD>H      1.0      1.7823300000    1.5075200000    0.0335100000                    
 INPUT CARD>H      1.0      0.7502100000   -0.3173500000   -1.2906600000                    
   40000000 WORDS OF MEMORY AVAILABLE

     BASIS OPTIONS
     -------------
     GBASIS=N311         IGAUSS=       6      POLAR=POPN311 
     NDFUNC=       1     NFFUNC=       0     DIFFSP=       F
     NPFUNC=       1      DIFFS=       F     BASNAM=        


     RUN TITLE
     ---------
 http://cactus.nci.nih.gov/chemical/structure/hexane/file?format=sdf&get3d=True  

 THE POINT GROUP OF THE MOLECULE IS C1      
 THE ORDER OF THE PRINCIPAL AXIS IS     0

 ATOM      ATOMIC                      COORDINATES (BOHR)
           CHARGE         X                   Y                   Z
 C           6.0     5.9532793682       -0.2951563020       -0.0158548010
 C           6.0     3.4406241058        0.9098841658        0.7550400184
 C           6.0     1.2562331449       -0.6025202339       -0.3854474097
 C           6.0    -1.2562331449        0.6025202339        0.3854474097
 C           6.0    -3.4406241058       -0.9098841658       -0.7550400184
 C           6.0    -5.9532793682        0.2951563020        0.0158548010
 H           1.0     7.5093175410        0.7823276617        0.7966517846
 H           1.0     6.0255991817       -2.2340529599        0.6758604995
 H           1.0     6.1145485840       -0.2923406103       -2.0694011346
 C           6.0     3.2184301242        0.9060291248        3.5809173632
 H           1.0     3.3681153197        2.8487997210        0.0633247178
 H           1.0     1.4176913332       -0.5997045422       -2.4389937433
 H           1.0     1.3287419310       -2.5414168918        0.3062678908
 H           1.0    -1.4176913332        0.5997045422        2.4389937433
 H           1.0    -1.3287419310        2.5414168918       -0.3062678908
 C           6.0    -3.2184301242       -0.9060291248       -3.5809173632
 C           6.0    -3.3408465737       -3.5780071852        0.1968338589
 H           1.0    -7.5093175410       -0.7823276617       -0.7966517846
 H           1.0    -6.1145485840        0.2923406103        2.0694011346
 H           1.0    -6.0255991817        2.2340529599       -0.6758604995
 H           1.0    -3.5036464675       -3.5810118495        2.2691451715
 H           1.0    -1.5344386048       -4.4444276533       -0.3574605678
 H           1.0    -4.9112466640       -4.6654689020       -0.6230615554
 H           1.0    -1.4120410525       -1.7724495929       -4.1351928926
 H           1.0    -3.2914491364        1.0505553684       -4.2791144239
 H           1.0    -4.7888302145       -1.9933396636       -4.4010017501
 H           1.0     4.7887924200        1.9934152527        4.4010017501
 H           1.0     3.2915436227       -1.0505364711        4.2791144239
 H           1.0     1.4119843608        1.7723740039        4.1351928926

          INTERNUCLEAR DISTANCES (ANGS.)




     $CONTRL OPTIONS
     ---------------
 SCFTYP=RHF          RUNTYP=OPTIMIZE     EXETYP=RUN     
 MPLEVL=       0     CITYP =NONE         CCTYP =NONE         VBTYP =NONE    
 DFTTYP=NONE         TDDFT =NONE    
 MULT  =       1     ICHARG=       0     NZVAR =       1     COORD =UNIQUE  
 PP    =NONE         RELWFN=NONE         LOCAL =NONE         NUMGRD=       F
 ISPHER=      -1     NOSYM =       0     MAXIT =     200     UNITS =ANGS    
 PLTORB=       F     MOLPLT=       F     AIMPAC=       F     FRIEND=        
 NPRINT=       7     IREST =       0     GEOM  =INPUT   
 NORMF =       0     NORMP =       0     ITOL  =      20     ICUT  =       9
 INTTYP=BEST         GRDTYP=BEST         QMTTOL= 1.0E-06

     $SYSTEM OPTIONS
     ---------------
  REPLICATED MEMORY=    40000000 WORDS (ON EVERY NODE).
 DISTRIBUTED MEMDDI=           0 MILLION WORDS IN AGGREGATE,
 MEMDDI DISTRIBUTED OVER   1 PROCESSORS IS           0 WORDS/PROCESSOR.
 TOTAL MEMORY REQUESTED ON EACH PROCESSOR=    40000000 WORDS.
 TIMLIM=       10000.00 MINUTES, OR       6.9 DAYS.
 PARALL= F  BALTYP=  DLB     KDIAG=    0  COREFL= F
 MXSEQ2=     300 MXSEQ3=     150  mem10=         0

     $COSGMS OPTIONS
     ---------------
     EPSI  =   INFTY     NSPA  =      92     COSRAD=    1.40
     DISEX =   10.00     OUTCHG=DBLCAV       COSBUG=       F
     COSWRT=       F     DCOSMO=       F

     SYMMETRY COORDINATES WILL NOT BE USED FOR 
     THE COSMO CALCULATION, EVEN IF SPECIFIED:
         -- SWITCHING TO C1 POINT GROUP --


     DEFINITION OF CAVITY
     ---------------------------
     ATOM         COORDINATES           RADIUS 
     1    5.9533   -0.2952   -0.0159    2.0000
     2    3.4406    0.9099    0.7550    2.0000
     3    1.2562   -0.6025   -0.3854    2.0000
     4   -1.2562    0.6025    0.3854    2.0000
     5   -3.4406   -0.9099   -0.7550    2.0000
     6   -5.9533    0.2952    0.0159    2.0000
     7    7.5093    0.7823    0.7967    1.3000
     8    6.0256   -2.2341    0.6759    1.3000
     9    6.1145   -0.2923   -2.0694    1.3000
    10    3.2184    0.9060    3.5809    2.0000
    11    3.3681    2.8488    0.0633    1.3000
    12    1.4177   -0.5997   -2.4390    1.3000
    13    1.3287   -2.5414    0.3063    1.3000
    14   -1.4177    0.5997    2.4390    1.3000
    15   -1.3287    2.5414   -0.3063    1.3000
    16   -3.2184   -0.9060   -3.5809    2.0000
    17   -3.3408   -3.5780    0.1968    2.0000
    18   -7.5093   -0.7823   -0.7967    1.3000
    19   -6.1145    0.2923    2.0694    1.3000
    20   -6.0256    2.2341   -0.6759    1.3000
    21   -3.5036   -3.5810    2.2691    1.3000
    22   -1.5344   -4.4444   -0.3575    1.3000
    23   -4.9112   -4.6655   -0.6231    1.3000
    24   -1.4120   -1.7724   -4.1352    1.3000
    25   -3.2914    1.0506   -4.2791    1.3000
    26   -4.7888   -1.9933   -4.4010    1.3000
    27    4.7888    1.9934    4.4010    1.3000
    28    3.2915   -1.0505    4.2791    1.3000
    29    1.4120    1.7724    4.1352    1.3000

          ----------------
          PROPERTIES INPUT
          ----------------

     MOMENTS            FIELD           POTENTIAL          DENSITY
 IEMOM =       1   IEFLD =       0   IEPOT =       0   IEDEN =       0
 WHERE =COMASS     WHERE =NUCLEI     WHERE =NUCLEI     WHERE =NUCLEI  
 OUTPUT=BOTH       OUTPUT=BOTH       OUTPUT=BOTH       OUTPUT=BOTH    
 IEMINT=       0   IEFINT=       0                     IEDINT=       0
                                                       MORB  =       0
          EXTRAPOLATION IN EFFECT
          SOSCF IN EFFECT
 ORBITAL PRINTING OPTION: NPREO=     1   291     2     1

     -------------------------------
     INTEGRAL TRANSFORMATION OPTIONS
     -------------------------------
     NWORD  =            0
     CUTOFF = 1.0E-09     MPTRAN =       0
     DIRTRF =       T     AOINTS =DUP     

          ----------------------
          INTEGRAL INPUT OPTIONS
          ----------------------
 NOPK  =       1 NORDER=       0 SCHWRZ=       T


 -----------------------------------------------
  STATISTICS ON AUTOMATIC COORDINATE GENERATION 
 -----------------------------------------------
  NUMBER OF USER SPECIFIED BONDS                             0
  NUMBER OF BONDS                                           28
  NUMBER OF ANGLES                                          54
  NUMBER OF TORSIONS                                        72
  NUMBER OF EXTRA COORD.                                     0
  NUMBER OF EXTRA COORD. FOR CONSTRAINTS                     0
  NUMBER OF CONSTRAINED COORD.                               0

  TOTAL NUMBER OF PRIMITIVES                               154
 -----------------------------------------------

   --- ENCODED Z MATRIX ---
 COORD  TYPE   I   J   K   L   M   N
    1      1    1   8
    2      1    1   9
    3      1    1   2
    4      1    1   7
    5      1    2   3
    6      1    2  11
    7      1    2  10
    8      1    3  13
    9      1    3   4
   10      1    3  12
   11      1    4  15
   12      1    4  14
   13      1    4   5
   14      1    5  16
   15      1    5   6
   16      1    5  17
   17      1    6  20
   18      1    6  19
   19      1    6  18
   20      1   10  29
   21      1   10  27
   22      1   10  28
   23      1   16  26
   24      1   16  25
   25      1   16  24
   26      1   17  23
   27      1   17  22
   28      1   17  21
   29      2    1   2   3
   30      2    1   2  10
   31      2    1   2  11
   32      2    2  10  28
   33      2    2   1   8
   34      2    2   3  12
   35      2    2  10  27
   36      2    2   1   7
   37      2    2   3  13
   38      2    2  10  29
   39      2    2   1   9
   40      2    2   3   4
   41      2    3   4   5
   42      2    3   4  14
   43      2    3   2  10
   44      2    3   2  11
   45      2    3   4  15
   46      2    4   5  17
   47      2    4   5   6
   48      2    4   5  16
   49      2    4   3  12
   50      2    4   3  13
   51      2    5   4  15
   52      2    5   4  14
   53      2    5  17  21
   54      2    5  17  22
   55      2    5  17  23
   56      2    5   6  18
   57      2    5   6  19
   58      2    5   6  20
   59      2    5  16  24
   60      2    5  16  25
   61      2    5  16  26
   62      2    6   5  16
   63      2    6   5  17
   64      2    7   1   8
   65      2    7   1   9
   66      2    8   1   9
   67      2   10   2  11
   68      2   12   3  13
   69      2   14   4  15
   70      2   16   5  17
   71      2   18   6  19
   72      2   18   6  20
   73      2   19   6  20
   74      2   21  17  22
   75      2   21  17  23
   76      2   22  17  23
   77      2   24  16  25
   78      2   24  16  26
   79      2   25  16  26
   80      2   27  10  28
   81      2   27  10  29
   82      2   28  10  29
   83      3    1   2   3  12
   84      3    1   2  10  28
   85      3    1   2  10  27
   86      3    1   2   3   4
   87      3    1   2  10  29
   88      3    1   2   3  13
   89      3    2   3   4   5
   90      3    2   3   4  14
   91      3    2   3   4  15
   92      3    3   2   1   7
   93      3    3   2  10  27
   94      3    3   4   5  17
   95      3    3   2   1   8
   96      3    3   4   5   6
   97      3    3   4   5  16
   98      3    3   2  10  29
   99      3    3   2  10  28
  100      3    3   2   1   9
  101      3    4   5  16  24
  102      3    4   3   2  10
  103      3    4   5  16  25
  104      3    4   5  16  26
  105      3    4   3   2  11
  106      3    4   5   6  18
  107      3    4   5   6  19
  108      3    4   5   6  20
  109      3    4   5  17  21
  110      3    4   5  17  22
  111      3    4   5  17  23
  112      3    5   4   3  12
  113      3    5   4   3  13
  114      3    6   5  16  26
  115      3    6   5  16  25
  116      3    6   5  16  24
  117      3    6   5  17  23
  118      3    6   5  17  22
  119      3    6   5  17  21
  120      3    6   5   4  14
  121      3    6   5   4  15
  122      3    7   1   2  11
  123      3    7   1   2  10
  124      3    8   1   2  10
  125      3    8   1   2  11
  126      3    9   1   2  11
  127      3    9   1   2  10
  128      3   10   2   3  12
  129      3   10   2   3  13
  130      3   11   2  10  27
  131      3   11   2   3  12
  132      3   11   2  10  29
  133      3   11   2  10  28
  134      3   11   2   3  13
  135      3   12   3   4  14
  136      3   12   3   4  15
  137      3   13   3   4  14
  138      3   13   3   4  15
  139      3   14   4   5  16
  140      3   14   4   5  17
  141      3   15   4   5  16
  142      3   15   4   5  17
  143      3   16   5   6  20
  144      3   16   5   6  19
  145      3   16   5   6  18
  146      3   16   5  17  23
  147      3   16   5  17  22
  148      3   16   5  17  21
  149      3   17   5  16  26
  150      3   17   5  16  25
  151      3   17   5  16  24
  152      3   17   5   6  20
  153      3   17   5   6  19
  154      3   17   5   6  18

          INDEP./SYM. INTERNAL COORDINATES
          --------------------------------
 CRD  1=  -0.1934 ( 29) -0.1507 ( 34) -0.1264 ( 37)  0.4965 ( 40) -0.5544 ( 41)
           0.1696 ( 42)  0.1484 ( 43)  0.1668 ( 45)  0.1343 ( 47) -0.1571 ( 49)
          -0.1469 ( 50)  0.1445 ( 51)  0.1676 ( 52)
 CRD  2=   0.2641 (  5)  0.1337 (  9)  0.2591 ( 13) -0.1461 ( 30) -0.1900 ( 34)
           0.2509 ( 40)  0.3118 ( 41)  0.3122 ( 43)  0.1939 ( 46) -0.2074 ( 51)
          -0.2596 ( 89) -0.1118 ( 90) -0.1508 ( 91) -0.1289 ( 92) -0.1310 ( 95)
          -0.1258 (100) -0.1442 (112) -0.1141 (113)  0.1131 (123)  0.1109 (124)
           0.1162 (127)
 CRD  3=  -0.1216 ( 29)  0.1020 ( 31) -0.2180 ( 42)  0.2204 ( 45)  0.2259 ( 49)
          -0.1862 ( 50) -0.1095 ( 67) -0.2910 ( 86) -0.3128 ( 94) -0.2981 ( 96)
          -0.2961 ( 97) -0.3119 (102) -0.2358 (105) -0.1125 (128) -0.1043 (129)
          -0.1004 (142)
 CRD  4=  -0.2146 (  5) -0.1879 (  9) -0.2447 ( 13)  0.1408 ( 30)  0.1924 ( 37)
          -0.2912 ( 40) -0.1777 ( 41)  0.2217 ( 46) -0.2664 ( 48)  0.1639 ( 52)
           0.1807 ( 62) -0.1174 ( 63) -0.2631 ( 89) -0.1203 ( 90) -0.1005 ( 91)
           0.1116 ( 94)  0.1320 ( 97)  0.1097 (103) -0.1470 (106) -0.1400 (107)
          -0.1574 (108) -0.1301 (112) -0.1616 (113) -0.1033 (128) -0.1122 (146)
          -0.1199 (147)
 CRD  5=   0.1569 (  3)  0.1083 (  5) -0.1473 (  7)  0.2920 (  9)  0.3175 ( 29)
          -0.1464 ( 30)  0.1378 ( 39) -0.1447 ( 43)  0.2886 ( 47) -0.2238 ( 48)
           0.1056 ( 58) -0.1029 ( 60) -0.1996 ( 63)  0.2360 ( 70) -0.1012 ( 84)
          -0.1275 ( 86)  0.1157 ( 93)  0.1196 ( 98)  0.1094 ( 99) -0.1110 (101)
           0.1343 (109)  0.1383 (110)  0.1071 (111)  0.1214 (114)  0.1100 (115)
           0.1106 (143)
 CRD  6=   0.1797 (  3)  0.1853 ( 13)  0.3149 ( 30)  0.1550 ( 35)  0.1412 ( 36)
          -0.1451 ( 37) -0.1465 ( 38)  0.2376 ( 40)  0.1166 ( 41) -0.2758 ( 43)
           0.1969 ( 44)  0.2000 ( 46) -0.1015 ( 48)  0.1896 ( 62) -0.1771 ( 63)
           0.1356 ( 89)  0.1210 ( 92)  0.1516 ( 95) -0.1116 ( 99)  0.1162 (100)
          -0.1884 (102) -0.1228 (129) -0.1159 (149)
 CRD  7=   0.1842 (  7) -0.2498 ( 29)  0.3114 ( 30)  0.1269 ( 32)  0.1203 ( 36)
          -0.1509 ( 39)  0.1650 ( 41) -0.1701 ( 46)  0.1907 ( 47)  0.1030 ( 57)
           0.1512 ( 59) -0.1375 ( 60) -0.2630 ( 62) -0.1209 ( 67)  0.2482 ( 70)
           0.1460 ( 83)  0.1651 ( 86)  0.1108 ( 88) -0.1184 ( 97) -0.1266 (117)
          -0.1067 (119) -0.1239 (129) -0.1291 (139) -0.1415 (141)  0.1003 (147)
          -0.1058 (154)
 CRD  8=   0.2338 (  3)  0.1264 (  9) -0.2194 ( 14)  0.1577 ( 15)  0.1251 ( 29)
           0.1317 ( 30) -0.1060 ( 31)  0.1459 ( 33) -0.1179 ( 38) -0.1744 ( 43)
           0.1064 ( 48)  0.2078 ( 53) -0.1725 ( 54)  0.1912 ( 57) -0.1317 ( 58)
          -0.1093 ( 61) -0.1142 ( 62)  0.2844 ( 63) -0.1849 ( 70) -0.1513 ( 89)
          -0.1357 ( 94)  0.1565 ( 96)  0.1220 (120)  0.1364 (121) -0.1702 (140)
          -0.1558 (142) -0.1033 (145)  0.1010 (153)
 CRD  9=   0.1586 (  3)  0.2662 (  7)  0.1720 ( 14)  0.2223 ( 15) -0.3964 ( 16)
           0.1701 ( 32)  0.1886 ( 33) -0.1125 ( 40) -0.1685 ( 54)  0.2141 ( 58)
           0.1873 ( 60)  0.1332 ( 62)  0.1155 ( 74)  0.1091 ( 76)  0.1579 ( 86)
           0.1027 ( 88) -0.1201 ( 92) -0.1530 ( 96) -0.1306 (104)  0.1190 (106)
          -0.1058 (120) -0.1236 (121)
 CRD 10=   0.4042 ( 14)  0.3136 ( 15)  0.3930 ( 16)  0.2817 ( 55)  0.2723 ( 56)
           0.2839 ( 61) -0.1003 ( 71) -0.1010 ( 72) -0.1199 ( 75) -0.1260 ( 76)
          -0.1292 ( 78) -0.1228 ( 79) -0.1340 (116)  0.1347 (118)  0.1300 (144)
          -0.1091 (148)  0.1086 (150) -0.1315 (152)
 CRD 11=   0.2630 (  3)  0.1504 (  5) -0.1227 ( 13)  0.1684 ( 14) -0.4859 ( 15)
           0.1755 ( 29)  0.2044 ( 33)  0.1161 ( 40) -0.1260 ( 41)  0.1164 ( 45)
          -0.1293 ( 47) -0.1071 ( 49) -0.2017 ( 57) -0.1432 ( 58)  0.1637 ( 59)
           0.1315 ( 71)  0.1229 ( 72)  0.1451 ( 73)  0.1017 (104) -0.1198 (111)
 CRD 12=  -0.1545 (  3) -0.1600 (  5) -0.2281 (  7) -0.1067 (  9)  0.1009 ( 12)
           0.3407 ( 13)  0.4261 ( 14)  0.1006 ( 16) -0.1294 ( 41)  0.1008 ( 48)
           0.1696 ( 52)  0.1209 ( 53)  0.1002 ( 54) -0.1351 ( 55) -0.1394 ( 56)
           0.1097 ( 58)  0.2334 ( 59)  0.2319 ( 60) -0.1007 ( 61) -0.1744 ( 77)
          -0.1131 ( 89) -0.1113 ( 91) -0.1057 (144)  0.1013 (148)
 CRD 13=  -0.1304 (  3) -0.1589 (  5) -0.4173 (  7)  0.1800 (  9) -0.1009 ( 10)
          -0.1532 ( 13) -0.3524 ( 16) -0.1744 ( 32) -0.1742 ( 34) -0.1711 ( 38)
          -0.1296 ( 39)  0.1799 ( 40)  0.1646 ( 41) -0.1672 ( 51) -0.2051 ( 53)
          -0.1588 ( 54)  0.1163 ( 56)  0.1411 ( 74)  0.1023 ( 80)  0.1105 ( 81)
           0.1481 ( 82) -0.1407 ( 89) -0.1143 ( 90) -0.1076 (113)
 CRD 14=  -0.2381 (  7)  0.3888 ( 32)  0.1276 ( 33) -0.3345 ( 35)  0.1038 ( 37)
          -0.2679 ( 38)  0.1290 ( 42) -0.1150 ( 45)  0.1554 ( 51) -0.1342 ( 52)
          -0.1312 ( 53)  0.1563 ( 60) -0.1661 ( 67)  0.1990 ( 81) -0.1213 ( 87)
           0.1349 ( 94)  0.1047 ( 96)  0.1358 ( 97) -0.1671 (102)  0.1181 (113)
           0.1427 (123)  0.1359 (124)  0.1655 (127) -0.1358 (128) -0.1167 (129)
 CRD 15=  -0.3629 (  3) -0.1619 ( 14) -0.1494 ( 31)  0.1308 ( 32)  0.3245 ( 33)
          -0.3131 ( 36) -0.1422 ( 38) -0.3380 ( 39) -0.1664 ( 57)  0.1144 ( 58)
          -0.1720 ( 60)  0.2389 ( 65)  0.1115 ( 83) -0.1166 ( 84) -0.1091 ( 85)
           0.1059 ( 86) -0.1236 ( 87)  0.1046 ( 88) -0.1259 ( 94) -0.1153 ( 96)
          -0.1241 ( 97)
 CRD 16=  -0.1027 (  3)  0.1881 (  5) -0.1083 (  9)  0.2850 ( 13)  0.1096 ( 14)
          -0.2648 ( 15) -0.1258 ( 33)  0.1522 ( 35) -0.1178 ( 38) -0.3709 ( 54)
           0.2459 ( 55) -0.1037 ( 56) -0.1776 ( 58) -0.3315 ( 59)  0.3434 ( 61)
           0.1201 ( 72)  0.1082 ( 74) -0.1253 ( 75) -0.1691 ( 79)
 CRD 17=  -0.1314 (  3)  0.1513 (  5) -0.1030 (  9)  0.1200 ( 14)  0.1472 ( 15)
          -0.2650 ( 16)  0.1488 ( 32) -0.1352 ( 36) -0.1495 ( 38) -0.3256 ( 55)
           0.1515 ( 56)  0.3168 ( 57) -0.3315 ( 58)  0.2283 ( 59) -0.2890 ( 60)
           0.1738 ( 61) -0.1864 ( 71)  0.1426 ( 75)  0.1119 ( 76) -0.1657 ( 78)
 CRD 18=  -0.1223 (  3)  0.2488 (  5) -0.1513 (  9)  0.1377 ( 13) -0.1659 ( 14)
           0.1126 ( 15) -0.1005 ( 28) -0.1145 ( 32) -0.1535 ( 33)  0.3355 ( 35)
           0.1502 ( 37) -0.1807 ( 38) -0.3905 ( 53)  0.1885 ( 54)  0.1923 ( 55)
           0.2377 ( 56) -0.1985 ( 57) -0.2280 ( 61) -0.1248 ( 72) -0.1445 ( 76)
           0.1099 ( 82)
 CRD 19=   0.1819 (  3) -0.1976 (  5) -0.1209 (  9)  0.4132 ( 13)  0.1419 ( 33)
          -0.3151 ( 35)  0.2832 ( 38)  0.1216 ( 51)  0.1140 ( 52) -0.1458 ( 53)
           0.3242 ( 56) -0.1658 ( 57) -0.1455 ( 58) -0.2504 ( 60)  0.1402 ( 61)
           0.1224 ( 73)  0.1525 ( 80)
 CRD 20=   0.1362 (  2) -0.1418 (  4) -0.3697 (  5)  0.2093 (  7)  0.1295 (  9)
           0.1114 ( 13)  0.1373 ( 32) -0.1346 ( 34) -0.4882 ( 36)  0.4347 ( 39)
          -0.1145 ( 53)  0.1151 ( 55)  0.1291 ( 60)  0.2091 ( 64) -0.1604 ( 66)
          -0.1046 ( 80)
 CRD 21=  -0.2278 (  9) -0.3057 ( 32)  0.3120 ( 33) -0.2134 ( 36)  0.2625 ( 38)
          -0.1278 ( 50) -0.2871 ( 53)  0.1413 ( 54)  0.1052 ( 55) -0.2469 ( 56)
           0.3521 ( 57) -0.1473 ( 59)  0.1039 ( 72) -0.1262 ( 73)  0.1166 ( 80)
          -0.1178 ( 81)
 CRD 22=  -0.1811 (  9) -0.1043 ( 24)  0.1323 ( 25)  0.1877 ( 39) -0.3604 ( 54)
           0.2940 ( 55) -0.2431 ( 56)  0.3047 ( 58)  0.3888 ( 59) -0.2919 ( 60)
          -0.1223 ( 73)  0.1453 ( 74) -0.1122 ( 75) -0.1311 ( 78)  0.1614 ( 79)
 CRD 23=   0.1025 (  5) -0.1199 ( 17) -0.1465 ( 23) -0.1068 ( 27)  0.1058 ( 33)
           0.1358 ( 38) -0.1071 ( 39) -0.1226 ( 48)  0.1259 ( 53) -0.2835 ( 54)
           0.1387 ( 55)  0.2512 ( 56) -0.3395 ( 58)  0.2064 ( 59)  0.2744 ( 60)
          -0.4277 ( 61) -0.1082 ( 63) -0.1337 ( 71)  0.1174 ( 73) -0.1179 ( 75)
          -0.2076 ( 77)
 CRD 24=  -0.1165 ( 22)  0.1135 ( 28) -0.3072 ( 32)  0.2202 ( 33) -0.1266 ( 34)
           0.2384 ( 35) -0.2189 ( 36)  0.1519 ( 37)  0.1153 ( 42) -0.1460 ( 45)
           0.1143 ( 49)  0.1483 ( 51) -0.1460 ( 52)  0.3051 ( 53) -0.2264 ( 55)
           0.1319 ( 56) -0.2554 ( 57)  0.1158 ( 58) -0.1183 ( 66) -0.1050 ( 72)
           0.1365 ( 76) -0.1176 ( 81)  0.1247 ( 82) -0.1064 ( 90) -0.1084 ( 91)
           0.1076 ( 94)  0.1023 (113)
 CRD 25=  -0.1071 (  1)  0.1706 (  5) -0.2370 (  9) -0.1011 ( 10) -0.1661 ( 11)
           0.1054 ( 30) -0.1329 ( 31) -0.2004 ( 33) -0.2401 ( 35)  0.1729 ( 38)
           0.2012 ( 39) -0.1187 ( 42) -0.1288 ( 43)  0.1792 ( 44) -0.1251 ( 51)
           0.1059 ( 53) -0.1902 ( 55)  0.1288 ( 56) -0.1967 ( 57)  0.1028 ( 58)
          -0.1550 ( 59)  0.1675 ( 60)  0.1166 ( 64) -0.1093 ( 72) -0.1097 ( 87)
           0.1258 ( 92) -0.1048 ( 93)  0.1107 ( 95) -0.1158 ( 98)  0.1331 (100)
          -0.1430 (112)
 CRD 26=  -0.1013 (  1) -0.2255 (  3)  0.1548 (  7)  0.3051 (  9)  0.1058 ( 10)
           0.1166 ( 12) -0.1875 ( 31) -0.1911 ( 33) -0.2002 ( 34) -0.1443 ( 35)
           0.1910 ( 37)  0.3066 ( 38) -0.1173 ( 39)  0.1483 ( 42)  0.2566 ( 49)
          -0.1405 ( 50)  0.1586 ( 66) -0.1540 ( 82)  0.1386 ( 83) -0.1007 ( 84)
          -0.1240 ( 85) -0.1085 ( 87) -0.1300 ( 90) -0.1064 ( 91) -0.1837 (105)
          -0.1004 (134)
 CRD 27=  -0.2204 (  5) -0.2054 (  8) -0.3551 (  9) -0.1273 ( 10) -0.1440 ( 12)
           0.1041 ( 22)  0.1493 ( 29)  0.1549 ( 32) -0.2043 ( 34)  0.1473 ( 36)
          -0.1154 ( 39)  0.2025 ( 40)  0.1550 ( 41) -0.1488 ( 44) -0.1616 ( 45)
          -0.2242 ( 50) -0.1327 ( 52)  0.1819 ( 67)  0.1324 ( 68) -0.1030 ( 91)
          -0.1270 ( 92) -0.1151 ( 95) -0.1195 (100)  0.1194 (112) -0.1513 (123)
          -0.1393 (124) -0.1438 (127)  0.1039 (129)
 CRD 28=  -0.1138 (  2)  0.1593 (  6)  0.1386 (  7) -0.2202 (  8)  0.2167 ( 10)
          -0.1873 ( 11)  0.1942 ( 12)  0.1184 ( 32)  0.1232 ( 33) -0.1316 ( 37)
          -0.2052 ( 39) -0.1746 ( 51)  0.1711 ( 52) -0.1339 ( 83) -0.2004 ( 86)
          -0.1551 ( 88)  0.1383 ( 90)  0.1387 ( 91)  0.1137 ( 94)  0.1616 ( 96)
           0.1134 ( 97) -0.1545 (105) -0.1421 (112) -0.1617 (113)  0.1531 (120)
           0.1567 (121) -0.1092 (134)  0.1049 (139)  0.1052 (140)  0.1085 (141)
           0.1088 (142)
 CRD 29=   0.1847 (101)  0.1833 (103)  0.2036 (104)  0.1877 (106)  0.1661 (107)
           0.1671 (108)  0.1742 (109)  0.1766 (110)  0.1954 (111)  0.2060 (114)
           0.1856 (115)  0.1871 (116)  0.1976 (117)  0.1789 (118)  0.1765 (119)
           0.1649 (143)  0.1639 (144)  0.1855 (145)  0.1956 (146)  0.1768 (147)
           0.1744 (148)  0.2032 (149)  0.1829 (150)  0.1843 (151)  0.1648 (152)
           0.1638 (153)  0.1854 (154)
 CRD 30=  -0.4070 (  6)  0.1303 ( 20)  0.1518 ( 34) -0.1805 ( 37)  0.1071 ( 42)
          -0.1158 ( 45) -0.1896 ( 49)  0.2156 ( 50) -0.1039 ( 83) -0.1740 ( 84)
          -0.1516 ( 85) -0.1683 ( 87) -0.1244 ( 88) -0.1762 ( 92) -0.1795 ( 95)
          -0.1574 (100) -0.1324 (122) -0.1357 (125) -0.1136 (126) -0.1886 (128)
          -0.2092 (129) -0.1143 (130) -0.1452 (131) -0.1309 (132) -0.1367 (133)
          -0.1658 (134)
 CRD 31=   0.3108 (  6) -0.1423 ( 11) -0.1586 ( 12)  0.1215 ( 18) -0.1540 ( 19)
          -0.1229 ( 45) -0.1646 (101) -0.1881 (103) -0.1616 (104)  0.2210 (109)
           0.2038 (110)  0.2078 (111) -0.1593 (114) -0.1858 (115) -0.1623 (116)
           0.2061 (117)  0.2020 (118)  0.2192 (119) -0.1015 (142)  0.1957 (146)
           0.1917 (147)  0.2089 (148) -0.1490 (149) -0.1755 (150) -0.1520 (151)
 CRD 32=   0.3932 (  6)  0.1485 (  8)  0.1627 ( 11) -0.1162 ( 17) -0.1362 ( 26)
           0.1123 ( 27)  0.1703 ( 42) -0.1069 ( 45) -0.1115 ( 52)  0.1752 (101)
           0.1555 (103)  0.1685 (104) -0.1338 (106) -0.1632 (107) -0.1450 (108)
           0.1677 (114)  0.1548 (115)  0.1745 (116) -0.1486 (120) -0.1083 (121)
          -0.1498 (139) -0.1478 (140) -0.1095 (141) -0.1075 (142) -0.1473 (143)
          -0.1654 (144) -0.1361 (145)  0.1649 (149)  0.1519 (150)  0.1716 (151)
          -0.1443 (152) -0.1624 (153) -0.1331 (154)
 CRD 33=   0.1123 (  2) -0.3890 (  6) -0.1910 (  8) -0.1912 ( 12)  0.1465 ( 23)
           0.1260 ( 93)  0.1046 ( 98)  0.1177 ( 99) -0.1976 (106) -0.1980 (107)
          -0.2099 (108)  0.1090 (109)  0.1351 (110)  0.1092 (111)  0.1095 (117)
           0.1354 (118)  0.1092 (119) -0.2096 (143) -0.1977 (144) -0.1973 (145)
           0.1072 (146)  0.1331 (147)  0.1070 (148) -0.2120 (152) -0.2002 (153)
          -0.1997 (154)
 CRD 34=   0.3343 (  1)  0.2376 (  2)  0.2485 (  4) -0.1055 ( 11) -0.2635 ( 20)
          -0.2902 ( 21) -0.3469 ( 22)  0.1117 ( 32)  0.1113 ( 35) -0.1179 ( 36)
           0.1655 ( 38) -0.1519 ( 39)  0.1099 ( 42) -0.1126 ( 45)  0.1466 ( 65)
           0.1193 ( 66) -0.1027 ( 80) -0.1479 ( 81) -0.1379 ( 82)
 CRD 35=   0.1093 ( 14) -0.1026 ( 16)  0.3625 ( 23)  0.3351 ( 24)  0.3662 ( 25)
          -0.3399 ( 26) -0.3476 ( 27) -0.3113 ( 28)  0.1443 ( 53)  0.1189 ( 54)
           0.1211 ( 55) -0.1296 ( 59) -0.1508 ( 60) -0.1290 ( 61) -0.1333 ( 74)
          -0.1359 ( 75) -0.1152 ( 76)  0.1421 ( 77)  0.1250 ( 78)  0.1424 ( 79)
 CRD 36=  -0.3202 ( 17) -0.3221 ( 18) -0.3491 ( 19)  0.2546 ( 23)  0.2725 ( 24)
           0.2179 ( 25)  0.2785 ( 26)  0.2420 ( 27)  0.2959 ( 28) -0.1278 ( 54)
          -0.1003 ( 55)  0.1180 ( 56)  0.1354 ( 57)  0.1369 ( 58) -0.1192 ( 59)
          -0.1247 ( 71) -0.1258 ( 72) -0.1398 ( 73)  0.1072 ( 74)  0.1195 ( 76)
           0.1110 ( 78)
 CRD 37=   0.3853 (  1)  0.3454 (  2)  0.1111 (  3)  0.3073 (  4)  0.1976 (  6)
           0.1222 (  7)  0.3447 ( 20)  0.3022 ( 21)  0.3725 ( 22) -0.1022 ( 32)
          -0.1050 ( 33) -0.1548 ( 35) -0.1580 ( 36) -0.1088 ( 38) -0.1206 ( 39)
           0.1319 ( 64)  0.1468 ( 65)  0.1049 ( 66)  0.1304 ( 80)  0.1387 ( 81)
 CRD 38=  -0.1228 ( 15) -0.3775 ( 17) -0.3776 ( 18) -0.3643 ( 19) -0.2219 ( 23)
          -0.2427 ( 24) -0.2562 ( 25) -0.2215 ( 26) -0.2558 ( 27) -0.2422 ( 28)
           0.1463 ( 56)  0.1316 ( 57)  0.1316 ( 58) -0.1399 ( 71) -0.1399 ( 72)
          -0.1296 ( 73)
 CRD 39=   0.1366 (  1)  0.1662 (  2)  0.1291 (  3)  0.2123 (  4) -0.1217 (  7)
           0.2946 (  8) -0.1337 ( 10)  0.3082 ( 11) -0.2798 ( 12) -0.1580 ( 20)
          -0.2009 ( 21) -0.1175 ( 22) -0.1048 ( 24)  0.1069 ( 28) -0.1716 ( 42)
           0.1652 ( 45) -0.1097 ( 92) -0.1240 ( 93) -0.1044 ( 95) -0.1151 ( 98)
          -0.1161 ( 99) -0.1031 (100)  0.1473 (120)  0.1413 (121) -0.1112 (122)
          -0.1059 (125) -0.1046 (126) -0.1163 (130) -0.1074 (132) -0.1084 (133)
           0.1627 (139)  0.1613 (140)  0.1568 (141)  0.1554 (142)
 CRD 40=   0.1357 (  1) -0.2463 (  2) -0.1697 (  3) -0.2864 (  4) -0.3260 ( 10)
           0.1650 ( 11) -0.2224 ( 12)  0.1593 ( 20) -0.1159 ( 27) -0.1593 ( 49)
          -0.1536 ( 83)  0.1134 ( 85)  0.1466 ( 87) -0.1226 ( 88)  0.1388 ( 93)
           0.1720 ( 98)  0.1125 ( 99) -0.1923 (128) -0.1613 (129)  0.1253 (130)
          -0.1833 (131)  0.1585 (132) -0.1523 (134) -0.1012 (135)
 CRD 41=  -0.1243 (  1)  0.1187 (  4) -0.1368 (  5) -0.3051 ( 10)  0.2914 ( 20)
           0.3269 ( 21) -0.3968 ( 22) -0.1154 ( 64) -0.1810 ( 80)  0.1835 ( 81)
          -0.2327 ( 85)  0.1672 ( 92) -0.2099 ( 93)  0.1030 (100)  0.1830 (122)
           0.1716 (123)  0.1022 (125)  0.1188 (126)  0.1074 (127) -0.2193 (130)
 CRD 42=   0.5644 ( 20) -0.5441 ( 21) -0.2887 ( 80)  0.2779 ( 82)  0.2238 ( 84)
           0.2242 ( 99)  0.2387 (133)
 CRD 43=  -0.2061 ( 23)  0.4412 ( 24) -0.2417 ( 25) -0.2109 ( 26) -0.2330 ( 27)
           0.4373 ( 28)  0.1153 ( 74)  0.1264 ( 75) -0.2400 ( 76)  0.1126 ( 77)
          -0.2421 ( 78)  0.1312 ( 79)  0.1227 (101) -0.1356 (104) -0.1232 (110)
           0.1329 (111) -0.1336 (114)  0.1247 (116)  0.1310 (117) -0.1251 (118)
           0.1305 (146) -0.1257 (147) -0.1333 (149)  0.1250 (151)
 CRD 44=   0.1140 (  1)  0.1245 ( 17) -0.1267 ( 18) -0.1154 ( 22)  0.3036 ( 23)
          -0.3979 ( 25) -0.2845 ( 26)  0.3924 ( 27) -0.1107 ( 28)  0.1606 ( 74)
          -0.2209 ( 75) -0.1702 ( 77)  0.2233 ( 79)  0.1246 (103) -0.1128 (104)
           0.1189 (109) -0.1156 (111) -0.1080 (114)  0.1294 (115) -0.1103 (117)
           0.1242 (119) -0.1233 (146)  0.1111 (148) -0.1211 (149)  0.1162 (150)
 CRD 45=   0.3755 ( 23) -0.3663 ( 25)  0.4070 ( 26) -0.3721 ( 27) -0.2266 ( 74)
           0.2061 ( 75) -0.2085 ( 77)  0.2028 ( 79)  0.1576 (103) -0.1649 (109)
           0.1554 (115) -0.1624 (119) -0.1859 (148)  0.1794 (150)
 CRD 46=   0.1566 (  1) -0.1412 (  2) -0.1718 ( 22) -0.3082 ( 23)  0.3651 ( 24)
           0.2830 ( 26) -0.3712 ( 28) -0.1634 ( 74)  0.2126 ( 76)  0.1789 ( 77)
          -0.2098 ( 78)  0.1004 ( 81)  0.1371 (101)  0.1319 (110)  0.1429 (116)
           0.1385 (118)  0.1413 (147)  0.1429 (151)
 CRD 47=   0.5421 (  2) -0.5337 (  4) -0.2859 ( 64)  0.2800 ( 66) -0.2044 ( 95)
           0.1023 (123) -0.2015 (124) -0.2191 (125)
 CRD 48=   0.2062 (  1) -0.2068 (  4)  0.1218 (  8)  0.2895 ( 10) -0.1197 ( 11)
          -0.3830 ( 17)  0.2816 ( 18) -0.2708 ( 22)  0.1010 ( 23) -0.1694 ( 24)
           0.1385 ( 28) -0.1127 ( 65)  0.2043 ( 71) -0.1524 ( 72)  0.1692 ( 81)
           0.1037 ( 87) -0.1212 (106) -0.1026 (123)  0.1069 (144) -0.1103 (145)
           0.1080 (153) -0.1092 (154)
 CRD 49=   0.1425 ( 11)  0.1433 ( 12)  0.1587 ( 17)  0.4268 ( 18) -0.5719 ( 19)
          -0.2334 ( 72)  0.3145 ( 73) -0.1419 (107)  0.1948 (108)  0.1946 (143)
          -0.1421 (144)  0.2002 (152) -0.1365 (153)
 CRD 50=   0.1453 (  8)  0.4017 ( 10) -0.1041 ( 11)  0.4211 ( 17) -0.2759 ( 18)
          -0.1450 ( 19) -0.2466 ( 22) -0.1243 ( 27) -0.2421 ( 71)  0.1572 ( 72)
           0.1630 ( 81)  0.1187 ( 87)  0.1029 ( 88)  0.1028 ( 98)  0.1416 (106)
          -0.1150 (107)  0.1034 (132) -0.1204 (144)  0.1362 (145) -0.1153 (153)
           0.1413 (154)
 CRD 51=   0.5164 (  1) -0.2108 (  2) -0.1626 (  4)  0.1586 ( 12) -0.1350 ( 18)
           0.1206 ( 22)  0.1054 ( 64) -0.3172 ( 65)  0.1693 ( 66) -0.1095 ( 84)
          -0.1675 ( 87) -0.1366 ( 98)  0.2159 (100)  0.2317 (126)  0.2549 (127)
          -0.1366 (132)
 CRD 52=   0.2106 (  8) -0.5175 ( 11) -0.5425 ( 12) -0.1047 ( 19)  0.1156 ( 22)
          -0.2121 ( 69) -0.1022 ( 91)  0.1040 (121)  0.1154 (135) -0.1251 (138)
           0.1058 (141)  0.1016 (142)
 CRD 53=   0.1418 (  5) -0.5788 (  8) -0.3032 ( 10) -0.2494 ( 11) -0.1481 ( 12)
          -0.1299 ( 22)  0.1124 ( 49) -0.2181 ( 68) -0.1043 ( 69)  0.1118 ( 81)
           0.1627 ( 83) -0.1066 ( 92) -0.1299 (122) -0.1031 (123) -0.1171 (125)
          -0.1003 (126)  0.1527 (128)  0.1594 (131)  0.1375 (137)
 CRD 54=  -0.3164 (  8)  0.3140 ( 10)  0.3438 ( 11) -0.3441 ( 12) -0.1544 ( 90)
          -0.1616 ( 91) -0.1451 (112) -0.1575 (113) -0.2547 (135) -0.2618 (136)
          -0.2670 (137) -0.2741 (138)
 CRD 55=  -0.1030 (  9)  0.2039 ( 17)  0.1993 ( 18)  0.1971 ( 19) -0.2351 ( 25)
          -0.2387 ( 27)  0.1504 ( 42)  0.1483 ( 45) -0.1471 ( 54)  0.1885 ( 56)
           0.1892 ( 57)  0.1921 ( 58) -0.1419 ( 59) -0.1869 ( 71) -0.1905 ( 72)
          -0.1924 ( 73)  0.1373 ( 74)  0.1362 ( 76)  0.1297 ( 77)  0.1343 ( 78)
           0.1386 (104) -0.1353 (111) -0.1882 (139)  0.1815 (142)  0.1565 (148)
          -0.1571 (150)
 CRD 56=  -0.1414 ( 11)  0.1439 ( 12) -0.1218 ( 17)  0.1328 ( 18) -0.1318 ( 23)
          -0.2771 ( 24) -0.1288 ( 25)  0.1282 ( 26)  0.1170 ( 27)  0.2775 ( 28)
           0.2070 ( 53)  0.1494 ( 54)  0.1491 ( 55) -0.1571 ( 59) -0.2097 ( 60)
          -0.1533 ( 61) -0.1091 ( 71)  0.1006 ( 72) -0.2060 ( 74) -0.2166 ( 75)
           0.2120 ( 77)  0.2159 ( 79) -0.1176 ( 96)  0.1588 (106)  0.1008 (140)
           0.1031 (142)
 CRD 57=   0.1812 ( 13)  0.1223 ( 14)  0.1271 ( 16) -0.1880 ( 19) -0.2894 ( 23)
          -0.1021 ( 25) -0.2939 ( 26) -0.1073 ( 27) -0.1059 ( 47)  0.1162 ( 51)
           0.1103 ( 52) -0.1090 ( 53) -0.1307 ( 54) -0.2005 ( 55) -0.1258 ( 59)
          -0.1024 ( 60) -0.1953 ( 61) -0.1124 ( 73)  0.1770 ( 75)  0.2357 ( 76)
           0.2312 ( 78)  0.1713 ( 79) -0.1473 (116)  0.1461 (118)  0.1200 (135)
          -0.1272 (138)  0.1476 (144) -0.1113 (148)  0.1119 (150) -0.1456 (152)
 CRD 58=   0.2632 (  1)  0.2209 (  2) -0.2951 (  3)  0.2116 (  4) -0.1834 (  6)
          -0.1231 ( 20) -0.1265 ( 31)  0.2602 ( 33)  0.2352 ( 36)  0.2352 ( 39)
          -0.2516 ( 64) -0.2193 ( 65) -0.2597 ( 66) -0.1493 (105)  0.1090 (130)
           0.1750 (132)  0.1820 (133) -0.1824 (134)
 CRD 59=  -0.1771 (  6) -0.3741 (  7)  0.2229 ( 20)  0.2381 ( 21)  0.3015 ( 22)
           0.2799 ( 32)  0.2597 ( 35)  0.2564 ( 38) -0.2903 ( 80) -0.2278 ( 81)
          -0.2780 ( 82) -0.1487 (125) -0.1451 (126)  0.1392 (131)  0.1304 (134)
 CRD 60=   0.1006 (  1) -0.1662 (  3) -0.1316 (  5)  0.1138 ( 13)  0.1398 ( 14)
           0.3732 ( 15)  0.1380 ( 16) -0.1845 ( 17) -0.1868 ( 18) -0.1229 ( 19)
           0.1452 ( 34)  0.1430 ( 37)  0.1108 ( 42)  0.1059 ( 45) -0.1126 ( 50)
          -0.1423 ( 51) -0.1491 ( 52) -0.1713 ( 56) -0.1849 ( 57) -0.1856 ( 58)
          -0.1079 ( 66)  0.1648 ( 71)  0.1627 ( 72)  0.2142 ( 73)  0.1005 ( 74)
           0.1012 ( 77) -0.1958 (135)  0.1754 (138)
 CRD 61=  -0.1249 (  1)  0.1122 (  2) -0.2110 (  3)  0.2108 (  4) -0.1261 (  5)
           0.4240 (  6) -0.1657 (  7) -0.2011 (  8)  0.1109 ( 10)  0.1330 ( 20)
           0.1950 ( 21) -0.1754 ( 22) -0.2253 ( 65) -0.2339 ( 81) -0.1710 ( 87)
          -0.1157 ( 92)  0.1582 ( 93)  0.1175 (112) -0.1409 (122) -0.1059 (125)
           0.1574 (127) -0.1290 (128)  0.1748 (130)  0.1525 (135)  0.1526 (136)
 CRD 62=   0.1778 (  3)  0.1121 (  5) -0.2927 ( 13)  0.2821 ( 14)  0.3091 ( 16)
           0.1547 ( 19) -0.1955 ( 24) -0.1198 ( 25) -0.1338 ( 27) -0.1954 ( 28)
          -0.1100 ( 34) -0.1168 ( 37)  0.1250 ( 49)  0.1140 ( 50) -0.1189 ( 53)
          -0.1057 ( 54) -0.1094 ( 60)  0.1404 ( 73)  0.2160 ( 74)  0.2087 ( 77)
           0.1260 (116) -0.1201 (118) -0.1201 (144)  0.1184 (152)
 CRD 63=   0.1732 ( 11) -0.1963 ( 12)  0.4438 ( 14) -0.3658 ( 16)  0.1463 ( 17)
          -0.1256 ( 18) -0.1602 ( 23) -0.1531 ( 25)  0.1403 ( 26)  0.1758 ( 27)
           0.1011 ( 54)  0.1050 ( 55) -0.1193 ( 59) -0.1210 ( 60) -0.1267 ( 61)
          -0.1303 ( 72) -0.2090 ( 76)  0.1992 ( 78) -0.1155 (106)  0.1165 (137)
           0.1212 (138) -0.1013 (142)
 CRD 64=  -0.1599 (  3)  0.1949 (  9)  0.1204 ( 14) -0.4286 ( 15)  0.2678 ( 16)
           0.1067 ( 18)  0.1437 ( 19) -0.1665 ( 24)  0.1456 ( 25) -0.1150 ( 26)
          -0.1555 ( 28) -0.1040 ( 49)  0.1150 ( 56)  0.1129 ( 57)  0.1101 ( 58)
           0.1169 ( 69) -0.1568 ( 71) -0.1051 ( 72)  0.1853 ( 75)  0.1643 ( 79)
          -0.1542 (104)  0.1209 (111) -0.1387 (133) -0.1077 (135)  0.1118 (138)
 CRD 65=  -0.1937 (  2)  0.1854 (  4) -0.2377 (  5)  0.2626 (  7)  0.1136 (  8)
          -0.1484 ( 10)  0.1365 ( 13) -0.1144 ( 15) -0.1759 ( 20)  0.1296 ( 21)
           0.1612 ( 44) -0.1259 ( 52) -0.1279 ( 64)  0.1677 ( 66) -0.1350 ( 67)
           0.1851 ( 82)  0.1094 ( 84) -0.1409 ( 95)  0.1016 ( 99) -0.1429 (122)
          -0.1371 (124) -0.3214 (125) -0.1237 (126)  0.2236 (133)  0.1589 (134)
          -0.1348 (135) -0.1307 (137)
 CRD 66=   0.1494 (  1) -0.1190 (  2) -0.2841 (  3)  0.2416 (  7)  0.1556 (  9)
          -0.1458 ( 10) -0.1827 ( 13)  0.1881 ( 20) -0.1725 ( 21) -0.1214 ( 22)
           0.1420 ( 31)  0.1073 ( 51) -0.1763 ( 64) -0.1185 ( 67)  0.1493 ( 68)
           0.2139 ( 80) -0.1355 ( 84)  0.1021 ( 85)  0.1030 ( 88) -0.1024 ( 91)
           0.1056 ( 92)  0.1162 ( 93) -0.1214 ( 99)  0.1685 (105) -0.1399 (125)
           0.1061 (129)  0.1477 (131) -0.2338 (133)  0.2766 (134)  0.1073 (135)
          -0.1830 (138)
 CRD 67=  -0.1554 (  1)  0.2541 (  2)  0.1361 (  8)  0.1043 (  9) -0.2126 ( 10)
          -0.1394 ( 11)  0.1879 ( 12)  0.1714 ( 17) -0.1870 ( 18)  0.1244 ( 34)
           0.1518 ( 51)  0.1923 ( 64) -0.1289 ( 65)  0.1374 ( 71) -0.1432 ( 72)
           0.1660 ( 89) -0.2305 ( 92) -0.2114 (106) -0.1517 (122) -0.1692 (123)
           0.1255 (124)  0.1429 (125)  0.1048 (129)  0.1008 (134) -0.1632 (136)
          -0.1834 (138) -0.1529 (145) -0.1543 (154)
 CRD 68=  -0.1050 (  1)  0.1285 (  4)  0.1126 (  8) -0.2803 (  9) -0.1101 ( 11)
           0.1911 ( 13)  0.2449 ( 20) -0.2156 ( 21) -0.1156 ( 37) -0.1029 ( 38)
           0.1512 ( 49)  0.1405 ( 50) -0.1408 ( 52) -0.1175 ( 68)  0.1842 ( 80)
          -0.1703 ( 82)  0.1448 ( 83) -0.1509 ( 84)  0.1425 ( 85)  0.1138 ( 87)
          -0.1079 ( 88) -0.1117 ( 90)  0.1088 ( 91)  0.1652 ( 93)  0.1365 ( 98)
          -0.1282 ( 99)  0.1152 (126)  0.1198 (127)  0.1716 (128)  0.1356 (130)
           0.1604 (131)  0.1069 (132) -0.1578 (133) -0.1305 (135) -0.1652 (137)
 CRD 69=  -0.1214 (  1)  0.1908 (  4) -0.2128 (  5)  0.2556 (  9)  0.1008 ( 10)
          -0.1019 ( 11) -0.1148 ( 25) -0.1219 ( 27)  0.1163 ( 34)  0.1084 ( 37)
          -0.1691 ( 42) -0.1581 ( 45)  0.1543 ( 66) -0.1705 ( 68)  0.1506 ( 69)
          -0.1127 ( 95)  0.1232 (100)  0.1449 (104) -0.1424 (111) -0.1356 (112)
           0.1513 (113)  0.1492 (120) -0.1480 (121) -0.1014 (124)  0.1467 (126)
           0.1345 (127) -0.1380 (135) -0.1540 (136)  0.1489 (137)  0.1329 (138)
           0.1627 (139)  0.1394 (140) -0.1345 (141) -0.1578 (142) -0.1202 (146)
           0.1192 (149)
 CRD 70=  -0.1972 (  1)  0.1833 (  4) -0.1943 ( 21)  0.2746 ( 22) -0.1055 ( 29)
          -0.1158 ( 32) -0.1478 ( 65)  0.1477 ( 66)  0.1348 ( 68) -0.1393 ( 69)
           0.2038 ( 81) -0.1548 ( 82) -0.1305 ( 83)  0.2336 ( 87) -0.1580 ( 93)
           0.1694 ( 98)  0.1729 (100)  0.1848 (126)  0.2247 (127) -0.1444 (128)
          -0.1208 (130) -0.1286 (131)  0.2066 (132)  0.1250 (135) -0.1018 (138)
           0.1029 (142)
 CRD 71=   0.2869 ( 23) -0.1974 ( 25) -0.2872 ( 26)  0.1957 ( 27)  0.1303 ( 55)
          -0.1302 ( 61) -0.2195 ( 74)  0.1493 ( 75)  0.2192 ( 77) -0.1506 ( 79)
           0.1428 (101) -0.2053 (103) -0.2058 (109)  0.1427 (110) -0.2058 (115)
           0.1423 (116)  0.1427 (118) -0.2057 (119)  0.1115 (143)  0.1121 (144)
          -0.2604 (148) -0.2605 (150)  0.1120 (152)  0.1126 (153)
 CRD 72=  -0.1678 ( 17) -0.1675 ( 18)  0.3352 ( 19) -0.1632 ( 23)  0.1641 ( 24)
          -0.1630 ( 26)  0.1637 ( 28) -0.1018 ( 47) -0.1498 ( 56) -0.1019 ( 70)
          -0.1300 ( 71) -0.1297 ( 72)  0.2598 ( 73) -0.1244 ( 74)  0.1251 ( 76)
          -0.1246 ( 77)  0.1255 ( 78) -0.1490 (101) -0.2051 (107)  0.2048 (108)
           0.1486 (110) -0.2113 (116)  0.2110 (118)  0.1735 (143) -0.2363 (144)
           0.1799 (147) -0.1802 (151)  0.2361 (152) -0.1738 (153)
 CRD 73=   0.1639 ( 17) -0.1758 ( 18) -0.2348 ( 24)  0.2163 ( 25) -0.1891 ( 27)
           0.2033 ( 28)  0.1065 ( 60)  0.1272 ( 71) -0.1358 ( 72) -0.1446 ( 75)
           0.1548 ( 76) -0.1787 ( 78)  0.1655 ( 79)  0.1135 (101) -0.1711 (104)
           0.1084 (107)  0.1223 (108)  0.1163 (110) -0.1302 (111) -0.1679 (114)
           0.1167 (116) -0.1347 (117)  0.1119 (118) -0.1290 (120) -0.1396 (139)
          -0.1343 (140)  0.1203 (143)  0.1063 (144) -0.1275 (146)  0.1191 (147)
           0.1018 (148) -0.1605 (149)  0.1025 (150)  0.1241 (151)  0.1123 (152)
          -0.1020 (154)
 CRD 74=   0.1201 (  1) -0.1920 (  2) -0.1622 (  7)  0.1221 ( 10)  0.2123 ( 12)
          -0.1265 ( 18) -0.1341 ( 28) -0.1056 ( 31)  0.1206 ( 39) -0.1102 ( 49)
          -0.1367 ( 64)  0.1039 ( 65)  0.1062 ( 67) -0.1442 ( 69)  0.1715 ( 86)
          -0.1683 ( 91)  0.1027 ( 92) -0.1518 ( 95) -0.1348 ( 96) -0.1042 (106)
           0.1119 (111)  0.1588 (113)  0.1607 (117)  0.2463 (122)  0.1287 (123)
          -0.1258 (124) -0.1316 (134) -0.1852 (136)  0.1454 (137)  0.1185 (141)
           0.1651 (142) -0.1148 (145)  0.1158 (146) -0.1587 (154)
 CRD 75=   0.1011 (  1)  0.1481 (  5) -0.1754 (  8) -0.1888 ( 11)  0.1138 ( 13)
           0.1132 ( 17) -0.1088 ( 20)  0.1286 ( 22)  0.1253 ( 24)  0.1028 ( 30)
          -0.1061 ( 40) -0.1204 ( 41)  0.1011 ( 45)  0.1116 ( 50)  0.1539 ( 68)
           0.1689 ( 69) -0.1575 ( 85)  0.1163 ( 86) -0.1947 ( 90) -0.1156 ( 96)
           0.1938 (112)  0.1604 (114)  0.1271 (123) -0.1609 (128) -0.1632 (130)
           0.2406 (136) -0.2436 (137)  0.1602 (139) -0.1426 (145)  0.1180 (149)
 CRD 76=  -0.2406 (  3)  0.1212 (  4)  0.2217 (  5) -0.1308 (  9) -0.1471 ( 20)
           0.1458 ( 21)  0.1470 ( 30)  0.1953 ( 31) -0.1480 ( 35)  0.1441 ( 38)
          -0.1662 ( 43) -0.1759 ( 44) -0.1092 ( 80)  0.1131 ( 82)  0.2574 ( 84)
          -0.1022 ( 88)  0.2569 ( 99) -0.1078 (102)  0.1133 (105) -0.1293 (123)
          -0.1690 (124)  0.1887 (126) -0.1862 (129) -0.2908 (130)  0.2150 (131)
          -0.2923 (132)
 CRD 77=   0.1007 (  2) -0.1056 (  3) -0.1960 (  5)  0.2065 (  7)  0.1653 ( 10)
          -0.1089 ( 14)  0.1762 ( 29) -0.1037 ( 32)  0.1160 ( 36)  0.1301 ( 40)
          -0.2002 ( 67) -0.1334 ( 68) -0.1534 ( 85) -0.1968 ( 88) -0.1137 ( 91)
           0.1828 ( 95)  0.1474 ( 98)  0.2031 (105)  0.1214 (117) -0.2072 (122)
           0.1966 (124) -0.2197 (126) -0.2043 (129)  0.1970 (131)  0.1004 (132)
           0.1293 (137) -0.1172 (154)
 CRD 78=  -0.1525 (  6) -0.1597 ( 15)  0.1611 ( 16) -0.1055 ( 25) -0.1483 ( 46)
          -0.1035 ( 51)  0.1169 ( 59)  0.1548 ( 62) -0.1415 ( 83)  0.1456 ( 85)
          -0.1162 ( 88) -0.1323 ( 89)  0.1006 ( 95)  0.1524 ( 97) -0.1351 ( 98)
           0.1603 (100) -0.1624 (101)  0.1043 (102) -0.2016 (103)  0.1188 (107)
           0.1256 (108)  0.1181 (109)  0.1424 (114)  0.1238 (119) -0.1868 (120)
          -0.1619 (123) -0.1399 (140)  0.1761 (141) -0.1140 (145) -0.1299 (146)
          -0.1323 (147)  0.1957 (149) -0.1232 (154)
 CRD 79=   0.2490 ( 13) -0.1021 ( 15) -0.1174 ( 16)  0.1271 ( 19)  0.1429 ( 23)
           0.1278 ( 26) -0.1512 ( 48) -0.1183 ( 55) -0.1189 ( 56)  0.1003 ( 58)
          -0.1454 ( 61)  0.1527 ( 63)  0.1050 ( 77)  0.1179 (101) -0.1017 (103)
          -0.1500 (107)  0.1396 (109) -0.1538 (114) -0.2583 (115)  0.2147 (119)
           0.2313 (143)  0.1839 (145) -0.1726 (146) -0.2289 (147)  0.1432 (149)
           0.2584 (151) -0.2206 (153)
 CRD 80=  -0.1049 (  6)  0.1684 (  9) -0.1232 ( 12)  0.1021 ( 13) -0.1741 ( 14)
           0.1497 ( 15) -0.1060 ( 28) -0.1009 ( 40) -0.1507 ( 41) -0.1581 ( 47)
           0.1182 ( 53)  0.1344 ( 69)  0.1499 ( 70) -0.1196 ( 83)  0.1108 ( 85)
           0.1603 ( 94) -0.1246 ( 98)  0.1251 (101)  0.1193 (103)  0.1272 (108)
          -0.1730 (109) -0.2188 (110) -0.1042 (114)  0.1973 (117) -0.1790 (121)
           0.1191 (129) -0.1009 (131)  0.1386 (136)  0.2241 (140) -0.2093 (141)
           0.1171 (143)  0.1343 (146) -0.1321 (153) -0.1413 (154)
 CRD 81=   0.1125 (  6)  0.1472 (  8) -0.1252 ( 10)  0.1490 ( 11) -0.1420 ( 12)
          -0.1143 ( 14)  0.1180 ( 16) -0.1102 ( 37)  0.1216 ( 42) -0.1003 ( 44)
          -0.1226 ( 45) -0.1068 ( 46)  0.1040 ( 48)  0.1256 ( 49) -0.1152 ( 50)
          -0.1152 ( 51)  0.1140 ( 52)  0.1660 ( 83)  0.1378 ( 88)  0.2080 ( 90)
           0.2008 ( 91)  0.2004 ( 94) -0.1287 ( 95)  0.2051 ( 97)  0.1061 ( 98)
          -0.1466 (100) -0.2069 (102) -0.1812 (105)  0.1576 (107)  0.1564 (108)
          -0.2191 (112) -0.2047 (113) -0.1749 (120) -0.1675 (121) -0.1013 (145)

 THE DETERMINANT OF THE G MATRIX IS 10**(   -28)


                     --------------------
                     INTERNAL COORDINATES
                     --------------------

                 - - ATOMS - -         COORDINATE      COORDINATE
 NO.   TYPE    I  J  K  L  M  N        (BOHR,RAD)       (ANG,DEG)
 ----------------------------------------------------------------
   1 STRETCH   1  8                     2.0598593       1.0900307
   2 STRETCH   1  9                     2.0598709       1.0900368
   3 STRETCH   1  2                     2.8913384       1.5300305
   4 STRETCH   1  7                     2.0597071       1.0899502
   5 STRETCH   2  3                     2.8913046       1.5300126
   6 STRETCH   2 11                     2.0598838       1.0900436
   7 STRETCH   2 10                     2.8346019       1.5000068
   8 STRETCH   3 13                     2.0598660       1.0900342
   9 STRETCH   3  4                     2.8911742       1.5299436
  10 STRETCH   3 12                     2.0598857       1.0900447
  11 STRETCH   4 15                     2.0598660       1.0900342
  12 STRETCH   4 14                     2.0598857       1.0900447
  13 STRETCH   4  5                     2.8913046       1.5300126
  14 STRETCH   5 16                     2.8346019       1.5000068
  15 STRETCH   5  6                     2.8913384       1.5300305
  16 STRETCH   5 17                     2.8345899       1.5000005
  17 STRETCH   6 20                     2.0598593       1.0900307
  18 STRETCH   6 19                     2.0598709       1.0900368
  19 STRETCH   6 18                     2.0597071       1.0899502
  20 STRETCH  10 29                     2.0787066       1.1000042
  21 STRETCH  10 27                     2.0786978       1.0999996
  22 STRETCH  10 28                     2.0786952       1.0999982
  23 STRETCH  16 26                     2.0786869       1.0999938
  24 STRETCH  16 25                     2.0787096       1.1000059
  25 STRETCH  16 24                     2.0786888       1.0999948
  26 STRETCH  17 23                     2.0786914       1.0999962
  27 STRETCH  17 22                     2.0787103       1.1000062
  28 STRETCH  17 21                     2.0786984       1.0999999
  29 BEND      1  2  3                  1.9106760     109.4736707
  30 BEND      1  2 10                  1.9106558     109.4725146
  31 BEND      1  2 11                  1.9106596     109.4727294
  32 BEND      2 10 28                  1.9106738     109.4735457
  33 BEND      2  1  8                  1.9105751     109.4678924
  34 BEND      2  3 12                  1.9106057     109.4696402
  35 BEND      2 10 27                  1.9106778     109.4737714
  36 BEND      2  1  7                  1.9106181     109.4703549
  37 BEND      2  3 13                  1.9106123     109.4700201
  38 BEND      2 10 29                  1.9106790     109.4738442
  39 BEND      2  1  9                  1.9105670     109.4674232
  40 BEND      2  3  4                  1.9106437     109.4718205
  41 BEND      3  4  5                  1.9106437     109.4718205
  42 BEND      3  4 14                  1.9106636     109.4729619
  43 BEND      3  2 10                  1.9106060     109.4696597
  44 BEND      3  2 11                  1.9106143     109.4701368
  45 BEND      3  4 15                  1.9106762     109.4736829
  46 BEND      4  5 17                  1.9106125     109.4700344
  47 BEND      4  5  6                  1.9106760     109.4736707
  48 BEND      4  5 16                  1.9106060     109.4696597
  49 BEND      4  3 12                  1.9106636     109.4729619
  50 BEND      4  3 13                  1.9106762     109.4736829
  51 BEND      5  4 15                  1.9106123     109.4700201
  52 BEND      5  4 14                  1.9106057     109.4696402
  53 BEND      5 17 21                  1.9106812     109.4739664
  54 BEND      5 17 22                  1.9106764     109.4736946
  55 BEND      5 17 23                  1.9106827     109.4740545
  56 BEND      5  6 18                  1.9106181     109.4703549
  57 BEND      5  6 19                  1.9105670     109.4674232
  58 BEND      5  6 20                  1.9105751     109.4678924
  59 BEND      5 16 24                  1.9106797     109.4738844
  60 BEND      5 16 25                  1.9106751     109.4736220
  61 BEND      5 16 26                  1.9106782     109.4737949
  62 BEND      6  5 16                  1.9106558     109.4725146
  63 BEND      6  5 17                  1.9106576     109.4726188
  64 BEND      7  1  8                  1.9107179     109.4760733
  65 BEND      7  1  9                  1.9107086     109.4755378
  66 BEND      8  1  9                  1.9106127     109.4700416
  67 BEND     10  2 11                  1.9105877     109.4686123
  68 BEND     12  3 13                  1.9105979     109.4691980
  69 BEND     14  4 15                  1.9105979     109.4691980
  70 BEND     16  5 17                  1.9105914     109.4688253
  71 BEND     18  6 19                  1.9107086     109.4755378
  72 BEND     18  6 20                  1.9107179     109.4760733
  73 BEND     19  6 20                  1.9106127     109.4700416
  74 BEND     21 17 22                  1.9105874     109.4685918
  75 BEND     21 17 23                  1.9105905     109.4687729
  76 BEND     22 17 23                  1.9105813     109.4682431
  77 BEND     24 16 25                  1.9105846     109.4684342
  78 BEND     24 16 26                  1.9105886     109.4686660
  79 BEND     25 16 26                  1.9105931     109.4689220
  80 BEND     27 10 28                  1.9105892     109.4686989
  81 BEND     27 10 29                  1.9105930     109.4689127
  82 BEND     28 10 29                  1.9105866     109.4685506
  83 TORSION   1  2  3 12              -1.0471690     -59.9983628
  84 TORSION   1  2 10 28              -1.0472000     -60.0001429
  85 TORSION   1  2 10 27               1.0471933      59.9997547
  86 TORSION   1  2  3  4              -3.1415908    -179.9998950
  87 TORSION   1  2 10 29              -3.1415910    -179.9999032
  88 TORSION   1  2  3 13               1.0471532      59.9974572
  89 TORSION   2  3  4  5               3.1415927     180.0000000
  90 TORSION   2  3  4 14              -1.0472063     -60.0005019
  91 TORSION   2  3  4 15               1.0471905      59.9995951
  92 TORSION   3  2  1  7               3.1415901     179.9998556
  93 TORSION   3  2 10 27              -3.1415474    -179.9974081
  94 TORSION   3  4  5 17               1.0471523      59.9974086
  95 TORSION   3  2  1  8              -1.0471412     -59.9967694
  96 TORSION   3  4  5  6               3.1415908     179.9998950
  97 TORSION   3  4  5 16              -1.0471622     -59.9979758
  98 TORSION   3  2 10 29              -1.0471463     -59.9970659
  99 TORSION   3  2 10 28               1.0472446      60.0026944
 100 TORSION   3  2  1  9               1.0471526      59.9974237
 101 TORSION   4  5 16 24               1.0471937      59.9997787
 102 TORSION   4  3  2 10               1.0471622      59.9979758
 103 TORSION   4  5 16 25              -1.0471960     -59.9999104
 104 TORSION   4  5 16 26               3.1415902     179.9998577
 105 TORSION   4  3  2 11              -1.0471489     -59.9972104
 106 TORSION   4  5  6 18              -3.1415901    -179.9998556
 107 TORSION   4  5  6 19              -1.0471526     -59.9974237
 108 TORSION   4  5  6 20               1.0471412      59.9967694
 109 TORSION   4  5 17 21               1.0472028      60.0002997
 110 TORSION   4  5 17 22              -1.0471919     -59.9996773
 111 TORSION   4  5 17 23              -3.1415801    -179.9992811
 112 TORSION   5  4  3 12               1.0472063      60.0005019
 113 TORSION   5  4  3 13              -1.0471905     -59.9995951
 114 TORSION   6  5 16 26              -1.0471505     -59.9973050
 115 TORSION   6  5 16 25               1.0472486      60.0029268
 116 TORSION   6  5 16 24              -3.1415470    -179.9973840
 117 TORSION   6  5 17 23               1.0471555      59.9975884
 118 TORSION   6  5 17 22               3.1415436     179.9971922
 119 TORSION   6  5 17 21              -1.0472470     -60.0028308
 120 TORSION   6  5  4 14               1.0471690      59.9983628
 121 TORSION   6  5  4 15              -1.0471532     -59.9974572
 122 TORSION   7  1  2 11               1.0471759      59.9987585
 123 TORSION   7  1  2 10              -1.0471934     -59.9997633
 124 TORSION   8  1  2 10               1.0472606      60.0036117
 125 TORSION   8  1  2 11              -3.1415554    -179.9978665
 126 TORSION   9  1  2 11              -1.0472617     -60.0036733
 127 TORSION   9  1  2 10               3.1415543     179.9978049
 128 TORSION  10  2  3 12               3.1415841     179.9995080
 129 TORSION  10  2  3 13              -1.0472791     -60.0046720
 130 TORSION  11  2 10 27              -1.0472200     -60.0012883
 131 TORSION  11  2  3 12               1.0472730      60.0043218
 132 TORSION  11  2 10 29               1.0471810      59.9990538
 133 TORSION  11  2 10 28               3.1415720     179.9988142
 134 TORSION  11  2  3 13              -3.1415902    -179.9998582
 135 TORSION  12  3  4 14               3.1415927     180.0000000
 136 TORSION  12  3  4 15              -1.0471959     -59.9999030
 137 TORSION  13  3  4 14               1.0471959      59.9999030
 138 TORSION  13  3  4 15               3.1415927     180.0000000
 139 TORSION  14  4  5 16              -3.1415841    -179.9995080
 140 TORSION  14  4  5 17              -1.0472695     -60.0041236
 141 TORSION  15  4  5 16               1.0472791      60.0046720
 142 TORSION  15  4  5 17              -3.1415917    -179.9999436
 143 TORSION  16  5  6 20              -1.0472606     -60.0036117
 144 TORSION  16  5  6 19              -3.1415543    -179.9978049
 145 TORSION  16  5  6 18               1.0471934      59.9997633
 146 TORSION  16  5 17 23              -1.0472566     -60.0033857
 147 TORSION  16  5 17 22               1.0471315      59.9962180
 148 TORSION  16  5 17 21               3.1415262     179.9961951
 149 TORSION  17  5 16 26               1.0472627      60.0037329
 150 TORSION  17  5 16 25              -3.1415235    -179.9960352
 151 TORSION  17  5 16 24              -1.0471338     -59.9963461
 152 TORSION  17  5  6 20               3.1415520     179.9976733
 153 TORSION  17  5  6 19               1.0472583      60.0034801
 154 TORSION  17  5  6 18              -1.0471793     -59.9989517

     ------------------------------------------
     THE POINT GROUP IS C1 , NAXIS= 1, ORDER= 1
     ------------------------------------------

     DIMENSIONS OF THE SYMMETRY SUBSPACES ARE
 A   =  291

 ..... DONE SETTING UP THE RUN .....
 STEP CPU TIME =     0.02 TOTAL CPU TIME =        0.0 (    0.0 MIN)
 TOTAL WALL CLOCK TIME=        0.0 SECONDS, CPU UTILIZATION IS  66.67%


          -----------------------------
          STATIONARY POINT LOCATION RUN
          -----------------------------

 OBTAINING INITIAL HESSIAN, HESS=GUESS   
 DIAGONAL GUESS HESSIAN IN INTERNAL COORDS IS
     1  0.3463     2  0.3463     3  0.3671     4  0.3464     5  0.3672
     6  0.3463     7  0.3892     8  0.3463     9  0.3672    10  0.3463
    11  0.3463    12  0.3463    13  0.3672    14  0.3892    15  0.3671
    16  0.3892    17  0.3463    18  0.3463    19  0.3464    20  0.3397
    21  0.3397    22  0.3397    23  0.3397    24  0.3397    25  0.3397
    26  0.3397    27  0.3397    28  0.3397    29  0.2485    30  0.2506
    31  0.2241    32  0.2253    33  0.2241    34  0.2241    35  0.2253
    36  0.2241    37  0.2241    38  0.2253    39  0.2241    40  0.2485
    41  0.2485    42  0.2241    43  0.2506    44  0.2241    45  0.2241
    46  0.2506    47  0.2485    48  0.2506    49  0.2241    50  0.2241
    51  0.2241    52  0.2241    53  0.2253    54  0.2253    55  0.2253
    56  0.2241    57  0.2241    58  0.2241    59  0.2253    60  0.2253
    61  0.2253    62  0.2506    63  0.2506    64  0.2034    65  0.2034
    66  0.2034    67  0.2259    68  0.2034    69  0.2034    70  0.2528
    71  0.2034    72  0.2034    73  0.2034    74  0.2024    75  0.2024
    76  0.2024    77  0.2024    78  0.2024    79  0.2024    80  0.2024
    81  0.2024    82  0.2024    83  0.2500    84  0.2500    85  0.2500
    86  0.2500    87  0.2500    88  0.2500    89  0.2500    90  0.2500
    91  0.2500    92  0.2500    93  0.2500    94  0.2500    95  0.2500
    96  0.2500    97  0.2500    98  0.2500    99  0.2500   100  0.2500
   101  0.2500   102  0.2500   103  0.2500   104  0.2500   105  0.2500
   106  0.2500   107  0.2500   108  0.2500   109  0.2500   110  0.2500
   111  0.2500   112  0.2500   113  0.2500   114  0.2500   115  0.2500
   116  0.2500   117  0.2500   118  0.2500   119  0.2500   120  0.2500
   121  0.2500   122  0.2500   123  0.2500   124  0.2500   125  0.2500
   126  0.2500   127  0.2500   128  0.2500   129  0.2500   130  0.2500
   131  0.2500   132  0.2500   133  0.2500   134  0.2500   135  0.2500
   136  0.2500   137  0.2500   138  0.2500   139  0.2500   140  0.2500
   141  0.2500   142  0.2500   143  0.2500   144  0.2500   145  0.2500
   146  0.2500   147  0.2500   148  0.2500   149  0.2500   150  0.2500
   151  0.2500   152  0.2500   153  0.2500   154  0.2500
 TRANSFORMING HESSIAN TO SYMMETRY COORDINATES

          PARAMETERS CONTROLLING GEOMETRY SEARCH ARE
          METHOD =QA                  UPHESS =BFGS    
          NNEG   =         0          NFRZ   =         3
          NSTEP  =        50          IFOLOW =         1
          HESS   =GUESS               RESTAR =         F
          IHREP  =         0          HSSEND =         F
          NPRT   =         0          NPUN   =         0
          OPTTOL = 5.000E-04          RMIN   = 1.500E-03
          RMAX   = 1.000E-01          RLIM   = 7.000E-02
          DXMAX  = 3.000E-01          PURIFY =         F
          MOVIE  =         F          TRUPD  =         T
          TRMAX  = 5.000E-01          TRMIN  = 5.000E-02
          ITBMAT =         5          STPT   =         F
          STSTEP = 1.000E-02          PROJCT=          F
          FROZEN COORD(S)=   1   2   3


      ***** EQUILIBRIUM GEOMETRY LOCATED *****
            (SUBJECT TO   3 CONSTRAINT(S))
 COORDINATES OF ALL ATOMS ARE (ANGS)
   ATOM   CHARGE       X              Y              Z
 ------------------------------------------------------------
 C           6.0   3.1853304169  -0.1866189050   0.0152972026
 C           6.0   1.8948205382   0.4984070099   0.4784986477
 C           6.0   0.7117169304  -0.1628743904  -0.2404423105
 C           6.0  -0.6848112342   0.3806892786   0.0782104118
 C           6.0  -1.8527832672  -0.4921143044  -0.4377623705
 C           6.0  -3.1754169542   0.1354029288   0.0271164139
 H           1.0   4.0627697613   0.2464673735   0.4867617750
 H           1.0   3.1607988015  -1.2459269201   0.2656737352
 H           1.0   3.3067049986  -0.1062782484  -1.0619647386
 C           6.0   1.7682845423   0.4269806407   2.0038649578
 H           1.0   1.9445662365   1.5488325565   0.1913263096
 H           1.0   0.8862887394  -0.0911726222  -1.3109738943
 H           1.0   0.7503789664  -1.2193332042   0.0041926926
 H           1.0  -0.8043352480   0.4740065499   1.1536694805
 H           1.0  -0.7863069184   1.3855786791  -0.3320774707
 C           6.0  -1.8501073065  -0.5593015681  -1.9729957349
 C           6.0  -1.7573415440  -1.9124243136   0.1447721031
 H           1.0  -4.0211625057  -0.4646889947  -0.3000276093
 H           1.0  -3.2155674574   0.2030112489   1.1116701617
 H           1.0  -3.3005752578   1.1372416853  -0.3762581260
 H           1.0  -1.7014600237  -1.8821246321   1.2308512074
 H           1.0  -0.8832746834  -2.4421881984  -0.2169313273
 H           1.0  -2.6282911996  -2.4999470833  -0.1310257098
 H           1.0  -0.9368575803  -1.0024462167  -2.3571125193
 H           1.0  -1.9448807014   0.4352227012  -2.4035315225
 H           1.0  -2.6825394088  -1.1588449882  -2.3326505013
 H           1.0   2.6593054766   0.8214801599   2.4841753113
 H           1.0   1.6393453657  -0.6031872761   2.3318772694
 H           1.0   0.9220645412   0.9995384085   2.3682754621


                     --------------------
                     INTERNAL COORDINATES
                     --------------------

                 - - ATOMS - -         COORDINATE      COORDINATE
 NO.   TYPE    I  J  K  L  M  N        (BOHR,RAD)       (ANG,DEG)
 ----------------------------------------------------------------
   1 STRETCH   1  8                     2.0574801       1.0887716
   2 STRETCH   1  9                     2.0542284       1.0870509
   3 STRETCH   1  2                     2.8964216       1.5327204
   4 STRETCH   1  7                     2.0525438       1.0861595
   5 STRETCH   2  3                     2.8992999       1.5342436
   6 STRETCH   2 11                     2.0600063       1.0901084
   7 STRETCH   2 10                     2.8955730       1.5322713
   8 STRETCH   3 13                     2.0505454       1.0851020
   9 STRETCH   3  4                     2.8952255       1.5320874
  10 STRETCH   3 12                     2.0542063       1.0870393
  11 STRETCH   4 15                     2.0600962       1.0901561
  12 STRETCH   4 14                     2.0524254       1.0860968
  13 STRETCH   4  5                     2.9227731       1.5466650
  14 STRETCH   5 16                     2.9039517       1.5367052
  15 STRETCH   5  6                     2.9025908       1.5359850
  16 STRETCH   5 17                     2.9065780       1.5380949
  17 STRETCH   6 20                     2.0545559       1.0872242
  18 STRETCH   6 19                     2.0548889       1.0874005
  19 STRETCH   6 18                     2.0548709       1.0873909
  20 STRETCH  10 29                     2.0499004       1.0847607
  21 STRETCH  10 27                     2.0529820       1.0863914
  22 STRETCH  10 28                     2.0575145       1.0887898
  23 STRETCH  16 26                     2.0542869       1.0870819
  24 STRETCH  16 25                     2.0557419       1.0878518
  25 STRETCH  16 24                     2.0509822       1.0853331
  26 STRETCH  17 23                     2.0525945       1.0861863
  27 STRETCH  17 22                     2.0488256       1.0841919
  28 STRETCH  17 21                     2.0559043       1.0879378
  29 BEND      1  2  3                  1.8912772     108.3622022
  30 BEND      1  2 10                  1.9278805     110.4594166
  31 BEND      1  2 11                  1.8887573     108.2178245
  32 BEND      2 10 28                  1.9324165     110.7193073
  33 BEND      2  1  8                  1.9244978     110.2656012
  34 BEND      2  3 12                  1.8851600     108.0117089
  35 BEND      2 10 27                  1.9342090     110.8220129
  36 BEND      2  1  7                  1.9506574     111.7644369
  37 BEND      2  3 13                  1.8613862     106.6495726
  38 BEND      2 10 29                  1.9543727     111.9773081
  39 BEND      2  1  9                  1.9395639     111.1288280
  40 BEND      2  3  4                  2.0403880     116.9056188
  41 BEND      3  4  5                  2.0028575     114.7552817
  42 BEND      3  4 14                  1.9142532     109.6786266
  43 BEND      3  2 10                  1.9635269     112.5018028
  44 BEND      3  2 11                  1.9039973     109.0910079
  45 BEND      3  4 15                  1.9109415     109.4888854
  46 BEND      4  5 17                  1.9261181     110.3584358
  47 BEND      4  5  6                  1.8952046     108.5872262
  48 BEND      4  5 16                  1.9354670     110.8940899
  49 BEND      4  3 12                  1.9047810     109.1359109
  50 BEND      4  3 13                  1.9081682     109.3299834
  51 BEND      5  4 15                  1.9010838     108.9240805
  52 BEND      5  4 14                  1.8710029     107.2005677
  53 BEND      5 17 21                  1.9343095     110.8277733
  54 BEND      5 17 22                  1.9550640     112.0169157
  55 BEND      5 17 23                  1.9321706     110.7052182
  56 BEND      5  6 18                  1.9318118     110.6846646
  57 BEND      5  6 19                  1.9380586     111.0425791
  58 BEND      5  6 20                  1.9425992     111.3027373
  59 BEND      5 16 24                  1.9529224     111.8942086
  60 BEND      5 16 25                  1.9339944     110.8097144
  61 BEND      5 16 26                  1.9319002     110.6897260
  62 BEND      6  5 16                  1.8983526     108.7675936
  63 BEND      6  5 17                  1.8923730     108.4249876
  64 BEND      7  1  8                  1.8821258     107.8378666
  65 BEND      7  1  9                  1.8865037     108.0886976
  66 BEND      8  1  9                  1.8779159     107.5966571
  67 BEND     10  2 11                  1.8869717     108.1155129
  68 BEND     12  3 13                  1.8551350     106.2914062
  69 BEND     14  4 15                  1.8579519     106.4528006
  70 BEND     16  5 17                  1.9154740     109.7485780
  71 BEND     18  6 19                  1.8814261     107.7977735
  72 BEND     18  6 20                  1.8832219     107.9006668
  73 BEND     19  6 20                  1.8844121     107.9688576
  74 BEND     21 17 22                  1.8809915     107.7728729
  75 BEND     21 17 23                  1.8857063     108.0430142
  76 BEND     22 17 23                  1.8727952     107.3032610
  77 BEND     24 16 25                  1.8823235     107.8491927
  78 BEND     24 16 26                  1.8776494     107.5813849
  79 BEND     25 16 26                  1.8823651     107.8515765
  80 BEND     27 10 28                  1.8833730     107.9093250
  81 BEND     27 10 29                  1.8750918     107.4348454
  82 BEND     28 10 29                  1.8815886     107.8070869
  83 TORSION   1  2  3 12              -0.9826518     -56.3018034
  84 TORSION   1  2 10 28              -1.1527310     -66.0466227
  85 TORSION   1  2 10 27               0.9365901      53.6626613
  86 TORSION   1  2  3  4              -3.1376587    -179.7746004
  87 TORSION   1  2 10 29               3.0300088     173.6067139
  88 TORSION   1  2  3 13               1.0052582      57.5970525
  89 TORSION   2  3  4  5              -2.9338044    -168.0946100
  90 TORSION   2  3  4 14              -0.8269498     -47.3807345
  91 TORSION   2  3  4 15               1.2057350      69.0835255
  92 TORSION   3  2  1  7               3.1335625     179.5399079
  93 TORSION   3  2 10 27               3.0524679     174.8935297
  94 TORSION   3  4  5 17               1.0123992      58.0061993
  95 TORSION   3  2  1  8              -1.0563625     -60.5251105
  96 TORSION   3  4  5  6               3.0843752     176.7216801
  97 TORSION   3  4  5 16              -1.1139684     -63.8256897
  98 TORSION   3  2 10 29              -1.1372987     -65.1624177
  99 TORSION   3  2 10 28               0.9631468      55.1842457
 100 TORSION   3  2  1  9               1.0244334      58.6957111
 101 TORSION   4  5 16 24               1.0650826      61.0247352
 102 TORSION   4  3  2 10               1.0088664      57.8037893
 103 TORSION   4  5 16 25              -1.0364054     -59.3816534
 104 TORSION   4  5 16 26              -3.1239872    -178.9912835
 105 TORSION   4  3  2 11              -1.0849731     -62.1643799
 106 TORSION   4  5  6 18              -3.1203707    -178.7840723
 107 TORSION   4  5  6 19              -1.0313733     -59.0933367
 108 TORSION   4  5  6 20               1.0685729      61.2247173
 109 TORSION   4  5 17 21               0.9478612      54.3084461
 110 TORSION   4  5 17 22              -1.1535991     -66.0963573
 111 TORSION   4  5 17 23               3.0400122     174.1798701
 112 TORSION   5  4  3 12               1.2044560      69.0102427
 113 TORSION   5  4  3 13              -0.8179165     -46.8631628
 114 TORSION   6  5 16 26              -1.0410342     -59.6468672
 115 TORSION   6  5 16 25               1.0465476      59.9627629
 116 TORSION   6  5 16 24              -3.1351497    -179.6308485
 117 TORSION   6  5 17 23               0.9663097      55.3654682
 118 TORSION   6  5 17 22               3.0558837     175.0892408
 119 TORSION   6  5 17 21              -1.1258413     -64.5059558
 120 TORSION   6  5  4 14               0.9538848      54.6535743
 121 TORSION   6  5  4 15              -1.0498708     -60.1531668
 122 TORSION   7  1  2 11               1.0711552      61.3726694
 123 TORSION   7  1  2 10              -0.9913932     -56.8026473
 124 TORSION   8  1  2 10               1.1018671      63.1323343
 125 TORSION   8  1  2 11              -3.1187698    -178.6923490
 126 TORSION   9  1  2 11              -1.0379740     -59.4715273
 127 TORSION   9  1  2 10              -3.1005223    -177.6468441
 128 TORSION  10  2  3 12              -3.1193120    -178.7234137
 129 TORSION  10  2  3 13              -1.1314020     -64.8245579
 130 TORSION  11  2 10 27              -1.1270507     -64.5752504
 131 TORSION  11  2  3 12               1.0700337      61.3084171
 132 TORSION  11  2 10 29               0.9663679      55.3688023
 133 TORSION  11  2 10 28               3.0668134     175.7154656
 134 TORSION  11  2  3 13               3.0579438     175.2072729
 135 TORSION  12  3  4 14              -2.9718748    -170.2758817
 136 TORSION  12  3  4 15              -0.9391900     -53.8116217
 137 TORSION  13  3  4 14               1.2889381      73.8507127
 138 TORSION  13  3  4 15              -2.9615624    -169.6850272
 139 TORSION  14  4  5 16               3.0387265     174.1062046
 140 TORSION  14  4  5 17              -1.1180912     -64.0619065
 141 TORSION  15  4  5 16               1.0349709      59.2994635
 142 TORSION  15  4  5 17              -3.1218468    -178.8686476
 143 TORSION  16  5  6 20              -1.0393472     -59.5502090
 144 TORSION  16  5  6 19              -3.1392934    -179.8682630
 145 TORSION  16  5  6 18               1.0548945      60.4410014
 146 TORSION  16  5 17 23              -1.1050337     -63.3137664
 147 TORSION  16  5 17 22               0.9845403      56.4100062
 148 TORSION  16  5 17 21               3.0860006     176.8148096
 149 TORSION  17  5 16 26               1.0266150      58.8207040
 150 TORSION  17  5 16 25               3.1141968     178.4303342
 151 TORSION  17  5 16 24              -1.0675006     -61.1632772
 152 TORSION  17  5  6 20              -3.1214873    -178.8480466
 153 TORSION  17  5  6 19               1.0617518      60.8338994
 154 TORSION  17  5  6 18              -1.0272456     -58.8568362

          INTERNUCLEAR DISTANCES (ANGS.)


 =====================================================
   GAMESS/COSab RESULTS
 =====================================================

   Dielectric Constant                  = INFTY
   Basic Grid Size                      =                 1082
   Number of Segments                   =                   92
   Number of Segments located on spheres=                  304
   Number of Segments of the cavity     =                  832
   Solvent Radius (rsolv)               = 1.40
   Outlying Charge Error Method         = double cavity

 =====================================================

  Total solvated Energy (a.u.)          =  -352.5543313057
  Total Energy corrected (a.u.)         =  -352.5542290926

  Outlying charge effect (a.u.)         =     0.0001022131
  Outlying charge effect (kcal/mol)     =     0.0641397568

  Dielectric Energy (a.u.)              =    -0.0017886818
  Dielectric energy corr. (a.u.)        =    -0.0016864687

  Sum of polarization charges           =     0.0324340775
  Sum of polarization charges(cor.)     =    -0.0324340775

  Total surface area of cavity (A**2)   =  198.24
  Total volume of cavity (A**3)         =  211.13

 =====================================================
 NPS=                   832
NR.  ATOM  (X, Y, Z)(a.u.)                  CHARGE(e)  AREA(A**2) SIGMA(e/A**2)
   1   1   6.881297  -3.246235  -2.244570   0.002400   0.418105   0.005741
   2   1   7.421467   2.958284  -1.135622   0.001002   0.278737   0.003594
   3   1   8.823819  -2.634741   1.129654   0.001949   0.418105   0.004662
   4   1   9.159597  -0.313250  -2.073937   0.001503   0.371649   0.004045
   5   1   5.159488  -3.159905  -2.351058   0.001889   0.325193   0.005808
   6   1   9.514078   0.313087  -1.247154   0.001584   0.371649   0.004261
   7   1   9.177349  -1.816253   1.501847   0.001230   0.278737   0.004413
   8   1   7.899805  -1.160399   3.206307   0.000476   0.139368   0.003416
   9   1   8.117327   2.726358  -0.605618   0.000638   0.185824   0.003435
  10   1   5.843430  -3.478657  -2.088047   0.000822   0.185824   0.004424
  11   1   6.001048  -2.947363  -2.719094   0.000917   0.185824   0.004936
  12   1   7.671022  -2.080780   2.956362   0.001227   0.232280   0.005283
  13   1   8.233807  -2.438744   2.271434   0.001481   0.278737   0.005313
  14   1   9.422880  -1.994324   0.103654   0.001528   0.464561   0.003289
  15   1   9.479664  -1.184907  -1.243210   0.001411   0.464561   0.003037
  16   1   8.903808   1.085479  -1.944990   0.002000   0.371649   0.005382
  17   1   7.902115   2.466680  -1.641720   0.000959   0.232280   0.004128
  18   1   6.796366   2.685382  -2.080809   0.001293   0.371649   0.003480
  19   1   8.681302  -3.024506  -0.215725   0.001341   0.418105   0.003207
  20   1   7.985872  -3.208168  -1.475555   0.001573   0.418105   0.003762
  21   1   7.915415  -2.528787  -2.411164   0.001742   0.464561   0.003749
  22   1   8.804794  -1.449401  -2.278275   0.000986   0.325193   0.003032
  23   1   9.725714  -1.013193  -0.304650   0.000793   0.278737   0.002843
  24   1   8.419819  -1.730152   2.602769   0.000921   0.185824   0.004956
  25   1   7.485182   3.129003  -0.088378   0.000720   0.232280   0.003100
  26   1   8.748241   1.931671  -1.243712   0.001528   0.325193   0.004700
  27   1   5.823917   2.512965  -2.427564   0.000227   0.092912   0.002444
  28   1   8.956623  -2.343466  -1.272538   0.001205   0.464561   0.002594
  29   1   8.031188   1.981624  -2.159273   0.001066   0.232280   0.004590
  30   2   5.924800   3.796928   1.702921   0.000203   0.092912   0.002181
  31   2   3.953961   2.821596  -2.353297   0.000242   0.185824   0.001304
  32   3   1.249689   2.498155  -2.984547   0.000293   0.139368   0.002103
  33   3   2.721152  -3.239250  -2.402926   0.000675   0.139368   0.004841
  34   3   1.958600  -3.356874  -2.601644   0.000962   0.185824   0.005175
  35   3   2.494298  -2.869537  -2.984331   0.000913   0.185824   0.004914
  36   3   1.801727   2.543262  -2.893027   0.000140   0.046456   0.003020
  37   4  -2.660234   3.904432   1.655635   0.000936   0.185824   0.005035
  38   4  -2.460207   3.553686   2.359437   0.000992   0.185824   0.005340
  39   4  -0.974482   4.130264   1.744082   0.000982   0.185824   0.005286
  40   4  -1.801013   3.984839   1.981988   0.001760   0.278737   0.006314
  41   6  -7.060122   3.247214   2.103962   0.002366   0.418105   0.005658
  42   6  -8.932888  -0.208730   2.390127   0.001933   0.418105   0.004623
  43   6  -9.149445   2.174617  -0.778125   0.001493   0.371649   0.004018
  44   6  -5.372910   3.219156   2.311580   0.001391   0.278737   0.004991
  45   6  -9.485484   1.213811  -1.054485   0.001403   0.325193   0.004314
  46   6  -9.231574  -0.811241   1.696439   0.001228   0.278737   0.004407
  47   6  -6.198813   3.275717   2.315203   0.000962   0.185824   0.005179
  48   6  -5.796803   3.712873   1.565130   0.001374   0.278737   0.004930
  49   6  -7.732787  -2.086962   2.458532   0.001155   0.232280   0.004973
  50   6  -8.375885  -1.435019   2.456108   0.002095   0.371649   0.005637
  51   6  -9.499225   0.571667   1.445709   0.001535   0.464561   0.003305
  52   6  -9.516451   1.624162   0.277641   0.001418   0.464561   0.003052
[...]
 573  13   2.977876  -3.654202   1.787492  -0.000365   0.309254  -0.001179
 574  28   3.354480  -3.371950   2.772657  -0.000196   0.309254  -0.000635
 575  13   3.079095  -4.136663  -0.977807   0.000242   0.236437   0.001024
 576  13   2.959247  -4.406373   0.099515  -0.000434   0.472872  -0.000918
 577  13   2.842631  -4.215397   1.193891  -0.000178   0.236437  -0.000753
 578   8   4.477108  -4.283259  -0.417087  -0.000132   0.472872  -0.000279
 579   8   4.329588  -4.332378   0.937743  -0.000699   0.472872  -0.001478
 580  28   3.771379  -3.580617   3.484057  -0.000047   0.274690  -0.000172
 581  28   4.729566  -3.177953   4.064360   0.000052   0.549213   0.000094
 582   8   5.061475  -3.844786   2.472153  -0.000326   0.549213  -0.000594
 583   8   5.999942  -3.345494   3.007877   0.000315   0.274690   0.001147
 584  12   3.402503   1.328428  -3.834178   0.000037   0.253964   0.000146
 585  12   3.446846   0.248900  -4.330687  -0.000676   0.508029  -0.001331
 586  12   3.416317  -1.181671  -4.120712  -0.000149   0.508029  -0.000294
 587   9   4.872273   0.919969  -3.904519  -0.000589   0.508029  -0.001160
 588   9   4.894346  -0.494546  -4.204877  -0.000660   0.508029  -0.001299
 589   9   4.843499  -1.603129  -3.777882   0.000284   0.253964   0.001119
 590  11   2.405986   4.607065   1.710724  -0.000011   0.167689  -0.000065
 591  11   3.613941   4.780412   1.935492  -0.000490   0.340842  -0.001439
 592  11   4.828251   4.527985   1.897350  -0.000037   0.167689  -0.000221
 593  10   2.658750   4.454370   2.869496   0.001007   0.462513   0.002178
 594  10   4.391785   4.397790   3.003020   0.000974   0.462513   0.002107
 595  10  -0.499190  -0.705769   4.620030   0.000765   0.324004   0.002360
 596  14  -1.409573  -0.625402   4.254591  -0.000757   0.324004  -0.002336
 597  21  -1.770808  -1.620255   4.118308   0.000248   0.324004   0.000764
 598  10  -0.147298   0.377433   5.394699  -0.000013   0.079311  -0.000161
 599  14  -0.940164   0.465963   4.832012  -0.000210   0.079311  -0.002647
 600  29  -0.262603   0.659478   5.402972  -0.000163   0.079311  -0.002054
 601  14  -1.380937  -0.002362   4.603701  -0.000369   0.150323  -0.002455
 602  10  -0.190541  -0.052001   5.419724   0.000677   0.213006   0.003180
 603  10   0.455980  -1.582012   5.029019   0.000423   0.172560   0.002453
 604  21  -0.759234  -2.359736   4.273520   0.000585   0.172560   0.003391
 605  28   0.606601  -1.855176   5.023359  -0.000091   0.172560  -0.000527
 606  21  -1.933616  -2.581401   4.533930  -0.000219   0.273254  -0.000800
 607  10  -0.067561  -1.142005   5.321221   0.001387   0.432389   0.003207
 608  27   5.954063   3.683506   3.895104  -0.000084   0.066514  -0.001257
 609  27   5.374476   3.934596   4.764033  -0.000197   0.146527  -0.001344
 610  27   4.887815   3.616645   5.927947  -0.000164   0.146527  -0.001120
 611  27   4.826636   2.670332   6.818665  -0.000166   0.146527  -0.001136
 612  27   5.214451   1.459344   7.093865  -0.000225   0.146527  -0.001534
 613  27   5.902215   0.449087   6.647784  -0.000104   0.146527  -0.000710
 614  27   6.625608   0.027822   5.651859  -0.000195   0.146527  -0.001334
 615  10   5.415302   3.912505   3.948558  -0.000110   0.146909  -0.000746
 616  10   4.699208   3.980260   5.221289   0.000055   0.146909   0.000377
 617  10   4.375463   3.233146   6.435469   0.000157   0.146909   0.001070
 618  10   4.568488   1.958293   7.124466   0.000002   0.146909   0.000011
 619  10   5.204100   0.645653   7.023485   0.000005   0.146909   0.000036
 620  10   6.038020  -0.200303   6.171334   0.000217   0.146909   0.001475
 621  10   6.654751  -0.379670   5.174594   0.000111   0.081261   0.001372
 622  28   5.092092  -2.450741   4.978864  -0.000041   0.072925  -0.000556
 623  28   4.638095  -2.073454   5.985307  -0.000192   0.163564  -0.001173
 624  28   3.485940  -1.700911   6.702408  -0.000275   0.163564  -0.001683
 625  28   2.093788  -1.579641   6.536011  -0.000314   0.163564  -0.001920
 626  28   1.173787  -1.690255   5.826963  -0.000020   0.072925  -0.000271
 627  10   5.233199  -1.991030   5.359926   0.000058   0.158355   0.000364
 628  10   4.314716  -1.497892   6.547622   0.000095   0.158355   0.000602
 629  10   2.797221  -1.203369   6.876077  -0.000053   0.158355  -0.000337
 630  10   1.371316  -1.241495   6.195813   0.000110   0.158355   0.000697
 631  29   0.113883   0.789122   5.951814  -0.000068   0.066679  -0.001022
 632  29   0.769568   1.340242   6.608510  -0.000254   0.147108  -0.001726
 633  29   1.555169   2.360984   6.829041  -0.000259   0.147108  -0.001762
 634  29   2.053793   3.441555   6.289174  -0.000149   0.147108  -0.001013
 635  29   2.071521   4.161715   5.198865  -0.000188   0.147108  -0.001275
 636  29   1.601459   4.241387   3.982143  -0.000363   0.147108  -0.002466
 637  10   0.567754   0.616090   6.283789   0.000082   0.147052   0.000558
 638  10   1.485836   1.553110   6.943498  -0.000001   0.147052  -0.000007
 639  10   2.245196   2.795613   6.754675   0.000031   0.147052   0.000213
 640  10   2.550513   3.860382   5.790754   0.000163   0.147052   0.001111
 641  10   2.283049   4.333321   4.426611   0.000013   0.147052   0.000088
 642  10   1.745484   4.210985   3.370524   0.000001   0.081463   0.000010
 643  15   0.032624   4.669322   0.313292   0.000551   0.274515   0.002009
 644  15   0.249465   4.631241  -0.806203   0.000264   0.548631   0.000481
 645  15   0.470274   4.104942  -1.794127   0.000356   0.274515   0.001295
 646  11   1.772745   4.784880   0.202033   0.000413   0.548631   0.000753
 647  11   2.045843   4.432701  -1.113018   0.000381   0.548631   0.000694
 648  12   0.051557   1.879437  -3.550119   0.000479   0.343592   0.001394
 649  15  -0.646873   2.545331  -3.173925   0.000300   0.343592   0.000873
 650  25  -1.173882   2.097738  -4.014910   0.000727   0.343592   0.002116
 651  15  -0.248989   2.987387  -2.984613   0.000101   0.035127   0.002867
 652  12   0.737690   2.091943  -3.580561   0.000086   0.035127   0.002458
 653  12   0.672368  -0.067897  -5.072301  -0.000096   0.084272  -0.001142
 654  16  -0.218734  -0.159976  -5.590435   0.000017   0.084272   0.000200
 655  24  -0.053775  -0.416916  -5.589409  -0.000168   0.084272  -0.001989
 656  12  -0.033492   1.506091  -4.143882   0.000118   0.028951   0.004061
 657  16  -0.955991   1.659308  -4.578503   0.000077   0.028951   0.002657
 658  25  -1.205583   1.811543  -4.655442   0.000024   0.028951   0.000825
 659  16  -0.621605   1.433726  -4.920461   0.001413   0.381211   0.003707
 660  16  -0.291988   0.431215  -5.573981   0.001310   0.381211   0.003438
 661  12   0.916595   0.943165  -4.570927  -0.001442   0.540647  -0.002668
 662  24   0.236487  -0.732772  -5.719365  -0.000005   0.221905  -0.000021
 663  24   0.603463  -1.747914  -5.474625  -0.001224   0.443913  -0.002757
 664  24   0.719522  -2.670075  -4.873602  -0.000467   0.221905  -0.002103
 665  12   1.477947  -0.576991  -5.025937  -0.001063   0.443913  -0.002395
 666  12   1.779275  -1.785526  -4.498330  -0.000459   0.443913  -0.001034
 667  25  -1.230228   2.151796  -4.716384   0.000245   0.070642   0.003473
 668  12   0.526673   1.808992  -4.068669   0.000202   0.070642   0.002857
 669  13   0.819139  -4.645721   1.253885  -0.000276   0.073809  -0.003745
 670  17   0.035320  -5.110227   1.459485  -0.000051   0.073809  -0.000695
 671  22   0.173848  -5.202587   1.204874  -0.000185   0.073809  -0.002508
 672  13   1.253888  -3.807538   2.081903  -0.000758   0.311076  -0.002436
 673  17   0.368060  -4.097548   2.214160   0.000629   0.311076   0.002023
 674  28   1.618040  -3.377053   3.009657   0.000304   0.311076   0.000976
 675  17   0.046318  -5.013383   1.845549   0.000564   0.180222   0.003127
 676  13   1.214528  -4.312230   1.612217  -0.000359   0.127613  -0.002816
 677  22   0.568013  -5.153450  -1.610592  -0.000784   0.234563  -0.003341
 678  22   0.681736  -5.526410  -0.388183  -0.002298   0.469981  -0.004889
 679  22   0.438453  -5.428509   0.867821  -0.000331   0.234563  -0.001410
 680  13   1.603194  -4.598806  -1.020767  -0.001505   0.469981  -0.003202
 681  13   1.522473  -4.770180   0.523395  -0.002061   0.469981  -0.004386
 682  28   2.573663  -3.574748   3.428633  -0.000359   0.296763  -0.001211
 683  13   2.195405  -3.949916   1.969366  -0.000097   0.296763  -0.000326
 684  14  -3.186282  -0.353642   3.934527  -0.000334   0.299131  -0.001116
 685  19  -4.208832  -0.468026   3.911348  -0.000299   0.299131  -0.001001
 686  21  -3.565481  -1.355557   3.953339  -0.000246   0.299131  -0.000824
 687  19  -4.517808   0.207706   4.254194  -0.000222   0.229490  -0.000969
 688  19  -4.634852   1.274621   4.089733  -0.000487   0.458942  -0.001061
 689  19  -4.728060   2.192665   3.517402   0.000279   0.229490   0.001215
 690  14  -3.119446   0.780586   4.243330  -0.000645   0.458942  -0.001406
 691  14  -3.250640   2.019166   3.783585  -0.000157   0.458942  -0.000342
 692  21  -2.776780  -1.916151   4.378318  -0.000431   0.312530  -0.001378
 693  14  -2.404222  -0.438116   4.309631  -0.000186   0.312530  -0.000595
 694  29  -0.460671   3.297950   4.474771  -0.000642   0.244888  -0.002621
 695  29  -0.663131   2.280209   5.202895  -0.001906   0.490412  -0.003887
 696  29  -0.510489   1.060730   5.513575  -0.000207   0.244888  -0.000847
 697  14  -1.586691   2.614766   4.053548  -0.001247   0.490412  -0.002542
 698  14  -1.617734   1.220690   4.700856  -0.001862   0.490412  -0.003797
 699  15  -3.418557   3.611573  -2.309681  -0.000065   0.308875  -0.000209
 700  20  -4.487469   3.507555  -2.329329  -0.000166   0.308875  -0.000538
 701  25  -3.911124   3.206415  -3.190368  -0.000158   0.308875  -0.000511
 702  20  -4.823906   4.269984   0.076723   0.000349   0.300038   0.001163
 703  20  -4.796230   4.227539  -1.259768  -0.000718   0.600453  -0.001195
 704  15  -3.306703   4.444943  -0.413380  -0.000101   0.600453  -0.000168
 705  15  -3.265754   4.266032  -1.738178  -0.000089   0.300038  -0.000297
 706  25  -3.374963   3.389159  -3.855074  -0.000151   0.296663  -0.000507
 707  25  -2.219794   2.960972  -4.304721  -0.000334   0.593559  -0.000563
 708  15  -2.227726   3.831306  -2.801599  -0.000457   0.593559  -0.000771
 709  15  -1.096534   3.290519  -3.186175   0.000321   0.296663   0.001081
 710  16  -2.315272  -4.885893  -3.583117   0.000257   0.065469   0.003926
 711  17  -2.264980  -5.397616  -2.932464   0.000182   0.065469   0.002786
 712  22  -1.982392  -5.441750  -2.831116  -0.000039   0.065469  -0.000599
 713  16  -4.329317  -4.769465  -4.043458   0.000222   0.065917   0.003372
 714  17  -4.284656  -5.144074  -3.304923   0.000262   0.065917   0.003977
 715  26  -4.614243  -4.712361  -4.135569  -0.000021   0.065917  -0.000325
 716  17  -3.448665  -5.511378  -3.052006   0.001478   0.493654   0.002994
 717  16  -3.136555  -4.857080  -4.053375   0.001496   0.493654   0.003031
 718  16  -6.241439   1.576644  -4.296930   0.000198   0.087960   0.002254
 719  20  -6.563892   2.060599  -3.496108   0.000250   0.087960   0.002848
 720  25  -6.055945   1.799329  -4.397405  -0.000057   0.087960  -0.000645
 721  16  -6.472608   1.553096  -4.323222   0.000068   0.007256   0.009430
 722  16  -1.933848  -4.554893  -4.044431   0.000090   0.087123   0.001035
 723  22  -1.654352  -4.989954  -3.197957   0.000215   0.087123   0.002468
 724  24  -1.662275  -4.456674  -4.143858  -0.000068   0.087123  -0.000783
 725  22  -1.722982  -5.537410  -2.845386   0.000073   0.066626   0.001102
 726  16  -2.125274  -4.802962  -4.047258   0.000340   0.094579   0.003595
 727  24  -1.719646  -4.308393  -4.895884  -0.000064   0.071483  -0.000902
 728  24  -1.896959  -3.794469  -5.910361  -0.000143   0.159984  -0.000897
 729  24  -1.696402  -2.681718  -6.717295  -0.000280   0.159984  -0.001750
 730  24  -1.085852  -1.434057  -6.705097  -0.000312   0.159984  -0.001950
 731  24  -0.465100  -0.657525  -6.125108  -0.000067   0.071483  -0.000941
 732  16  -2.215190  -4.216680  -5.235309   0.000104   0.155498   0.000666
 733  16  -2.273547  -3.266005  -6.470838   0.000123   0.155498   0.000793
 734  16  -1.790468  -1.860190  -6.944167  -0.000050   0.155498  -0.000323
 735  16  -0.980575  -0.623812  -6.445005   0.000081   0.155498   0.000520
 736  25  -1.634856   2.015276  -5.214199  -0.000053   0.068340  -0.000779
 737  25  -2.041084   1.576982  -6.137236  -0.000160   0.151229  -0.001055
 738  25  -3.088656   1.169198  -6.848595  -0.000197   0.151229  -0.001301
 739  25  -4.413787   1.055692  -6.819061  -0.000234   0.151229  -0.001548
 740  25  -5.482926   1.282164  -6.060523  -0.000081   0.151229  -0.000533
 741  25  -5.916516   1.648522  -5.118769  -0.000024   0.068340  -0.000345
 742  16  -1.484711   1.528583  -5.522090   0.000093   0.150298   0.000618
 743  16  -2.311510   0.968423  -6.634048   0.000117   0.150298   0.000775
 744  16  -3.716984   0.659636  -7.037928  -0.000002   0.150298  -0.000012
 745  16  -5.135233   0.726551  -6.571112   0.000155   0.150298   0.001033
 746  16  -5.995215   1.142226  -5.421560   0.000166   0.150298   0.001105
 747  26  -7.168145  -1.060178  -5.001635  -0.000036   0.069382  -0.000523
 748  26  -6.628876  -1.231508  -5.964185  -0.000119   0.154093  -0.000770
 749  26  -5.774888  -1.978831  -6.694983  -0.000231   0.154093  -0.001499
 750  26  -5.003435  -3.084871  -6.636776  -0.000266   0.154093  -0.001723
 751  26  -4.635494  -4.089437  -5.813782  -0.000157   0.154093  -0.001019
 752  26  -4.709405  -4.585296  -4.816120  -0.000073   0.069382  -0.001052
 753  16  -6.839223  -0.699725  -5.349440   0.000218   0.152053   0.001431
 754  16  -5.987600  -1.189264  -6.504490   0.000151   0.152053   0.000994
 755  16  -5.023084  -2.289025  -6.903597  -0.000066   0.152053  -0.000435
 756  16  -4.346983  -3.541431  -6.380703   0.000089   0.152053   0.000588
 757  16  -4.240601  -4.425393  -5.153371   0.000168   0.152053   0.001107
 758  17  -5.706254  -3.056662   3.235489   0.000109   0.087207   0.001245
 759  19  -6.071048  -2.142124   3.337646   0.000215   0.087207   0.002467
 760  21  -5.486354  -3.050200   3.449127   0.000024   0.087207   0.000275
 761  19  -6.608351  -1.801590   3.415659   0.000048   0.052523   0.000913
 762  17  -5.993530  -3.111469   3.209392   0.000288   0.074546   0.003868
 763  17  -0.658829  -4.144609   3.140612   0.000429   0.172699   0.002486
 764  21  -0.820092  -4.039249   3.385523  -0.000102   0.172699  -0.000590
 765  28   0.568527  -3.238457   3.720986   0.000598   0.172699   0.003461
 766  21  -5.292889  -3.765988   3.619286  -0.000035   0.069851  -0.000508
 767  21  -4.821052  -4.784198   3.623418  -0.000105   0.155270  -0.000677
 768  21  -3.697603  -5.543234   3.586785  -0.000236   0.155270  -0.001521
 769  21  -2.346132  -5.454061   3.514750  -0.000275   0.155270  -0.001772
 770  21  -1.427985  -4.812064   3.449588  -0.000054   0.069851  -0.000766
 771  17  -5.402021  -4.264807   3.302015   0.000150   0.152960   0.000982
 772  17  -4.483586  -5.480369   3.288671   0.000155   0.152960   0.001014
 773  17  -3.014242  -5.878062   3.224156  -0.000023   0.152960  -0.000152
 774  17  -1.611168  -5.290841   3.135568   0.000107   0.152960   0.000698
 775  22  -0.210631  -5.745135   1.210766  -0.000124   0.069595  -0.001780
 776  22  -0.873600  -6.543864   0.778530  -0.000276   0.154959  -0.001780
 777  22  -1.592890  -7.011235  -0.275125  -0.000281   0.154959  -0.001814
 778  22  -1.938829  -6.708984  -1.553784  -0.000130   0.154959  -0.000837
 779  22  -1.871660  -6.002609  -2.426050  -0.000054   0.069595  -0.000770
 780  17  -0.704863  -6.017334   1.414593  -0.000004   0.152121  -0.000029
 781  17  -1.600055  -6.912050   0.561771  -0.000034   0.152121  -0.000226
 782  17  -2.232786  -7.010129  -0.823590   0.000129   0.152121   0.000849
 783  17  -2.334903  -6.270004  -2.154371   0.000116   0.152121   0.000765
 784  17  -4.661592  -5.447848  -2.827485   0.000079   0.087261   0.000903
 785  23  -4.934884  -5.513635  -2.706980   0.000002   0.087261   0.000019
 786  26  -4.949248  -4.877231  -3.585934   0.000200   0.087261   0.002288
 787  23  -4.859470  -6.122823  -2.264655  -0.000049   0.068543  -0.000717
 788  23  -4.668616  -6.804324  -1.415614  -0.000116   0.151930  -0.000767
 789  23  -4.860126  -7.123204  -0.131576  -0.000237   0.151930  -0.001561
 790  23  -5.481932  -6.724481   0.982647  -0.000249   0.151930  -0.001639
 791  23  -6.280407  -5.770790   1.472572  -0.000104   0.151930  -0.000684
 792  23  -6.857901  -4.841362   1.316358  -0.000045   0.068543  -0.000656
 793  17  -4.356674  -6.353094  -2.042866   0.000142   0.150489   0.000941
 794  17  -4.282347  -7.079395  -0.730419   0.000123   0.150489   0.000819
 795  17  -4.764444  -7.032068   0.691164   0.000013   0.150489   0.000089
 796  17  -5.606324  -6.230417   1.642031   0.000099   0.150489   0.000656
 797  17  -6.464590  -5.001428   1.734333   0.000220   0.150489   0.001463
 798  26  -4.865771  -4.780444  -4.226278   0.000051   0.065087   0.000782
 799  17  -4.458155  -5.541997  -3.043560   0.000333   0.092392   0.003609
 800  28   1.720940  -3.474633   4.083935  -0.000222   0.293508  -0.000758
 801  17  -0.116348  -4.594761   2.827539   0.001529   0.464741   0.003291
 802  18  -7.578812  -3.173432  -2.047890  -0.000331   0.304629  -0.001086
 803  23  -6.984201  -4.035130  -1.974140  -0.000294   0.304629  -0.000966
 804  26  -7.002727  -3.462024  -2.909166  -0.000227   0.304629  -0.000745
 805  23  -7.457512  -4.415975   0.669505   0.000181   0.230534   0.000785
 806  23  -7.582104  -4.588585  -0.382341  -0.000450   0.460979  -0.000977
 807  23  -7.354796  -4.519927  -1.428914  -0.000199   0.230534  -0.000862
 808  18  -8.361892  -3.275578   0.172394  -0.000077   0.460979  -0.000168
 809  18  -8.297791  -3.340450  -1.137153  -0.000627   0.460979  -0.001359
 810  26  -7.431269  -3.140672  -3.608253  -0.000213   0.297881  -0.000716
 811  26  -7.635440  -1.946572  -4.150510  -0.000403   0.596094  -0.000675
 812  18  -8.349123  -2.277591  -2.613802  -0.000870   0.596094  -0.001460
 813  18  -8.439390  -1.043784  -3.094606   0.000318   0.297881   0.001067
 814  21  -4.010274  -1.964437   4.333293  -0.000146   0.275817  -0.000531
 815  21  -4.964914  -2.673219   4.060817  -0.000038   0.551604  -0.000068
 816  19  -5.294997  -0.984187   4.191139  -0.000624   0.551604  -0.001132
 817  19  -6.222050  -1.679167   3.809657   0.000247   0.275817   0.000894
 818  25  -5.910098   2.280410  -4.494350   0.000344   0.304042   0.001131
 819  25  -4.890356   3.060458  -4.082540  -0.000862   0.608483  -0.001417
 820  20  -6.347894   3.036372  -3.139302  -0.000418   0.608483  -0.000687
 821  20  -5.280778   3.704742  -2.657139  -0.000182   0.304042  -0.000599
 822  28   0.666380  -2.314147   5.316325   0.000561   0.287926   0.001949
 823  28   1.106564  -3.066904   4.855085   0.000186   0.573893   0.000325
 824  21  -1.368293  -3.456476   4.437534   0.000120   0.573893   0.000209
 825  21  -0.924299  -4.161012   3.908720   0.000506   0.287926   0.001756
 826  24  -0.342406  -4.113941  -3.980780  -0.000065   0.282175  -0.000229
 827  24  -1.183846  -4.500275  -4.219610   0.000289   0.282175   0.001024
 828  22  -0.746246  -5.150382  -2.795574  -0.000492   0.564367  -0.000872
 829  26  -5.434920  -4.823874  -4.059120   0.000223   0.277862   0.000801
 830  26  -6.476188  -4.279001  -3.701564  -0.000693   0.555711  -0.001247
 831  23  -5.820403  -5.448144  -2.611958  -0.000110   0.555711  -0.000198
 832  23  -6.796211  -4.821814  -2.206395  -0.000150   0.277862  -0.000540
 =====================================================

              7674369  WORDS OF DYNAMIC MEMORY USED
 EXECUTION OF GAMESS TERMINATED NORMALLY Wed Nov 23 03:22:29 2016
 DDI: 263640 bytes (0.3 MB / 0 MWords) used by master data server.

 ----------------------------------------
 CPU timing information for all processes
 ========================================
 0: 4391.348 + 1.40 = 4392.388
 ----------------------------------------
 ddikick.x: exited gracefully.
