----- GAMESS execution script -----

          ******************************************************
          *         GAMESS VERSION =  5 DEC 2014 (R1)          *
          *             FROM IOWA STATE UNIVERSITY             *
          * M.W.SCHMIDT, K.K.BALDRIDGE, J.A.BOATZ, S.T.ELBERT, *
          *   M.S.GORDON, J.H.JENSEN, S.KOSEKI, N.MATSUNAGA,   *
          *          K.A.NGUYEN, S.J.SU, T.L.WINDUS,           *
          *       TOGETHER WITH M.DUPUIS, J.A.MONTGOMERY       *
          *         J.COMPUT.CHEM.  14, 1347-1363(1993)        *
          **************** 64 BIT LINUX VERSION ****************

 EXECUTION OF GAMESS BEGUN Wed Nov 23 01:35:09 2016

            ECHO OF THE FIRST FEW INPUT CARDS -
 INPUT CARD>! SELECT RESTRICTED HARTREE-FOCK AS DEFAULT                                     
 INPUT CARD>$contrl scftyp=rhf $end                                                         
 INPUT CARD>                                                                                
 INPUT CARD>! THEORY: HF OR DFT                                                             
 INPUT CARD> $contrl mplevl=0 $end                                                          
 INPUT CARD>                                                                                
 INPUT CARD> $system timlim=10000 mwords=20 $end                                            
 INPUT CARD> $SCF DIRSCF=.TRUE. $end                                                        
 INPUT CARD>                                                                                
 INPUT CARD>                                                                                
 INPUT CARD>! BASIS SETS                                                                    
 INPUT CARD>! 6-311G(d,p)                                                                   
 INPUT CARD> $BASIS GBASIS=N311 NGAUSS=6 NDFUNC=1 NPFUNC=1 $END                             
 INPUT CARD>                                                                                
 INPUT CARD>! One of the following                                                          
 INPUT CARD> $guess guess=HUCKEL $end                                                       
 INPUT CARD>                                                                                
 INPUT CARD> $statpt projct=.FALSE. $end                                                    
 INPUT CARD> $STATPT IFREEZ(1)=1,2,3 $END                                                   
 INPUT CARD>                                                                                
 INPUT CARD>! Optimize the geometry with COSMO effects                                      
 INPUT CARD> $statpt opttol=0.0005 nstep=50 $end                                            
 INPUT CARD> $contrl nzvar=1 $end                                                           
 INPUT CARD> $zmat dlc=.t. auto=.t. $end                                                    
 INPUT CARD> $contrl runtyp=OPTIMIZE maxit=200 $end                                         
 INPUT CARD>                                                                                
 INPUT CARD>! Run COSMO on perfect conductor                                                
 INPUT CARD> $COSGMS PRFCND=.TRUE. $end                                                     
 INPUT CARD>                                                                                
 INPUT CARD>! Specifying RSOLV                                                              
 INPUT CARD> $COSGMS COSRAD = 1.4 $end                                                      
 INPUT CARD>                                                                                
 INPUT CARD>! available memory                                                              
 INPUT CARD> $SYSTEM MWORDS=40 $END                                                         
 INPUT CARD>                                                                                
 INPUT CARD> $DATA                                                                          
 INPUT CARD>Butane, 2,2,3-trimethyl-, ID: C464062                                           
 INPUT CARD>C1                                                                              
 INPUT CARD>C      6.0      3.2619000000    1.8701000000    2.4092000000                    
 INPUT CARD>C      6.0      1.7372000000    2.0464000000    2.1776000000                    
 INPUT CARD>C      6.0      1.1462000000    2.8777000000    3.3182000000                    
 INPUT CARD>C      6.0      1.4440000000    2.7422000000    0.8505000000                    
 INPUT CARD>C      6.0      1.0644000000    0.6721000000    2.1794000000                    
 INPUT CARD>C      6.0      3.9964000000    3.2002000000    2.4920000000                    
 INPUT CARD>C      6.0      3.9138000000    0.9914000000    1.3518000000                    
 INPUT CARD>H      1.0      3.3683000000    1.3558000000    3.3978000000                    
 INPUT CARD>H      1.0      1.2158000000    2.3509000000    4.2793000000                    
 INPUT CARD>H      1.0      0.0876000000    3.1063000000    3.1415000000                    
 INPUT CARD>H      1.0      1.6867000000    3.8322000000    3.4284000000                    
 INPUT CARD>H      1.0      1.8333000000    2.1668000000    0.0000000000                    
   40000000 WORDS OF MEMORY AVAILABLE

     BASIS OPTIONS
     -------------
     GBASIS=N311         IGAUSS=       6      POLAR=POPN311 
     NDFUNC=       1     NFFUNC=       0     DIFFSP=       F
     NPFUNC=       1      DIFFS=       F     BASNAM=        


     RUN TITLE
     ---------
 Butane, 2,2,3-trimethyl-, ID: C464062                                           

 THE POINT GROUP OF THE MOLECULE IS C1      
 THE ORDER OF THE PRINCIPAL AXIS IS     0

 ATOM      ATOMIC                      COORDINATES (BOHR)
           CHARGE         X                   Y                   Z
 C           6.0     6.1640971993        3.5339765696        4.5527278496
 C           6.0     3.2828319859        3.8671352613        4.1150673109
 C           6.0     2.1660039271        5.4380644749        6.2704887725
 C           6.0     2.7287643263        5.1820066035        1.6072119526
 C           6.0     2.0114243413        1.2700848363        4.1184688176
 C           6.0     7.5521009373        6.0475011059        4.7091971614
 C           6.0     7.3960095707        1.8734743442        2.5545315902
 H           1.0     6.3651640444        2.5620904942        6.4209109611
 H           1.0     2.2975288559        4.4425568245        8.0867044193
 H           1.0     0.1655399965        5.8700558357        5.9365741904
 H           1.0     3.1874008235        7.2418079301        6.4787365763
 H           1.0     3.4644346533        4.0946582702        0.0000000000
 H           1.0     0.6867264239        5.4163326260        1.3158162053
 H           1.0     3.5870778699        7.0702208105        1.5333236664
 H           1.0     2.1474846124        0.3565912939        5.9770143266
 H           1.0     2.9179258976        0.0000000000        2.7380239836
 H           1.0     0.0000000000        1.4101135320        3.6348879374
 H           1.0     7.7200975776        6.9636402648        2.8532972689
 H           1.0     6.5513020542        7.3754115575        5.9643531624
 H           1.0     9.4726294587        5.7944667962        5.4480800226
 H           1.0     9.3084122703        1.3124146985        3.1263626741
 H           1.0     7.5573921701        2.8413919951        0.7247099163
 H           1.0     6.2857955530        0.1390838327        2.2385694051

          INTERNUCLEAR DISTANCES (ANGS.)




     $CONTRL OPTIONS
     ---------------
 SCFTYP=RHF          RUNTYP=OPTIMIZE     EXETYP=RUN     
 MPLEVL=       0     CITYP =NONE         CCTYP =NONE         VBTYP =NONE    
 DFTTYP=NONE         TDDFT =NONE    
 MULT  =       1     ICHARG=       0     NZVAR =       1     COORD =UNIQUE  
 PP    =NONE         RELWFN=NONE         LOCAL =NONE         NUMGRD=       F
 ISPHER=      -1     NOSYM =       0     MAXIT =     200     UNITS =ANGS    
 PLTORB=       F     MOLPLT=       F     AIMPAC=       F     FRIEND=        
 NPRINT=       7     IREST =       0     GEOM  =INPUT   
 NORMF =       0     NORMP =       0     ITOL  =      20     ICUT  =       9
 INTTYP=BEST         GRDTYP=BEST         QMTTOL= 1.0E-06

     $SYSTEM OPTIONS
     ---------------
  REPLICATED MEMORY=    40000000 WORDS (ON EVERY NODE).
 DISTRIBUTED MEMDDI=           0 MILLION WORDS IN AGGREGATE,
 MEMDDI DISTRIBUTED OVER   1 PROCESSORS IS           0 WORDS/PROCESSOR.
 TOTAL MEMORY REQUESTED ON EACH PROCESSOR=    40000000 WORDS.
 TIMLIM=       10000.00 MINUTES, OR       6.9 DAYS.
 PARALL= F  BALTYP=  DLB     KDIAG=    0  COREFL= F
 MXSEQ2=     300 MXSEQ3=     150  mem10=         0

     $COSGMS OPTIONS
     ---------------
     EPSI  =   INFTY     NSPA  =      92     COSRAD=    1.40
     DISEX =   10.00     OUTCHG=DBLCAV       COSBUG=       F
     COSWRT=       F     DCOSMO=       F

     SYMMETRY COORDINATES WILL NOT BE USED FOR 
     THE COSMO CALCULATION, EVEN IF SPECIFIED:
         -- SWITCHING TO C1 POINT GROUP --


     DEFINITION OF CAVITY
     ---------------------------
     ATOM         COORDINATES           RADIUS 
     1    6.1641    3.5340    4.5527    2.0000
     2    3.2828    3.8671    4.1151    2.0000
     3    2.1660    5.4381    6.2705    2.0000
     4    2.7288    5.1820    1.6072    2.0000
     5    2.0114    1.2701    4.1185    2.0000
     6    7.5521    6.0475    4.7092    2.0000
     7    7.3960    1.8735    2.5545    2.0000
     8    6.3652    2.5621    6.4209    1.3000
     9    2.2975    4.4426    8.0867    1.3000
    10    0.1655    5.8701    5.9366    1.3000
    11    3.1874    7.2418    6.4787    1.3000
    12    3.4644    4.0947    0.0000    1.3000
    13    0.6867    5.4163    1.3158    1.3000
    14    3.5871    7.0702    1.5333    1.3000
    15    2.1475    0.3566    5.9770    1.3000
    16    2.9179    0.0000    2.7380    1.3000
    17    0.0000    1.4101    3.6349    1.3000
    18    7.7201    6.9636    2.8533    1.3000
    19    6.5513    7.3754    5.9644    1.3000
    20    9.4726    5.7945    5.4481    1.3000
    21    9.3084    1.3124    3.1264    1.3000
    22    7.5574    2.8414    0.7247    1.3000
    23    6.2858    0.1391    2.2386    1.3000

          ----------------
          PROPERTIES INPUT
          ----------------

     MOMENTS            FIELD           POTENTIAL          DENSITY
 IEMOM =       1   IEFLD =       0   IEPOT =       0   IEDEN =       0
 WHERE =COMASS     WHERE =NUCLEI     WHERE =NUCLEI     WHERE =NUCLEI  
 OUTPUT=BOTH       OUTPUT=BOTH       OUTPUT=BOTH       OUTPUT=BOTH    
 IEMINT=       0   IEFINT=       0                     IEDINT=       0
                                                       MORB  =       0
          EXTRAPOLATION IN EFFECT
          SOSCF IN EFFECT
 ORBITAL PRINTING OPTION: NPREO=     1   229     2     1

     -------------------------------
     INTEGRAL TRANSFORMATION OPTIONS
     -------------------------------
     NWORD  =            0
     CUTOFF = 1.0E-09     MPTRAN =       0
     DIRTRF =       T     AOINTS =DUP     

          ----------------------
          INTEGRAL INPUT OPTIONS
          ----------------------
 NOPK  =       1 NORDER=       0 SCHWRZ=       T


 -----------------------------------------------
  STATISTICS ON AUTOMATIC COORDINATE GENERATION 
 -----------------------------------------------
  NUMBER OF USER SPECIFIED BONDS                             0
  NUMBER OF BONDS                                           22
  NUMBER OF ANGLES                                          42
  NUMBER OF TORSIONS                                        54
  NUMBER OF EXTRA COORD.                                     0
  NUMBER OF EXTRA COORD. FOR CONSTRAINTS                     0
  NUMBER OF CONSTRAINED COORD.                               0

  TOTAL NUMBER OF PRIMITIVES                               118
 -----------------------------------------------

   --- ENCODED Z MATRIX ---
 COORD  TYPE   I   J   K   L   M   N
    1      1    1   2
    2      1    1   7
    3      1    1   8
    4      1    1   6
    5      1    2   4
    6      1    2   5
    7      1    2   3
    8      1    3  11
    9      1    3  10
   10      1    3   9
   11      1    4  14
   12      1    4  13
   13      1    4  12
   14      1    5  16
   15      1    5  15
   16      1    5  17
   17      1    6  20
   18      1    6  19
   19      1    6  18
   20      1    7  23
   21      1    7  22
   22      1    7  21
   23      2    1   6  18
   24      2    1   7  23
   25      2    1   7  21
   26      2    1   7  22
   27      2    1   2   4
   28      2    1   6  20
   29      2    1   6  19
   30      2    1   2   3
   31      2    1   2   5
   32      2    2   1   6
   33      2    2   3  10
   34      2    2   3  11
   35      2    2   5  17
   36      2    2   5  16
   37      2    2   4  12
   38      2    2   1   8
   39      2    2   4  13
   40      2    2   4  14
   41      2    2   3   9
   42      2    2   1   7
   43      2    2   5  15
   44      2    3   2   5
   45      2    3   2   4
   46      2    4   2   5
   47      2    6   1   8
   48      2    6   1   7
   49      2    7   1   8
   50      2    9   3  10
   51      2    9   3  11
   52      2   10   3  11
   53      2   12   4  13
   54      2   12   4  14
   55      2   13   4  14
   56      2   15   5  17
   57      2   15   5  16
   58      2   16   5  17
   59      2   18   6  19
   60      2   18   6  20
   61      2   19   6  20
   62      2   21   7  22
   63      2   21   7  23
   64      2   22   7  23
   65      3    1   2   3   9
   66      3    1   2   3  10
   67      3    1   2   3  11
   68      3    1   2   5  17
   69      3    1   2   4  12
   70      3    1   2   5  15
   71      3    1   2   5  16
   72      3    1   2   4  13
   73      3    1   2   4  14
   74      3    2   1   7  21
   75      3    2   1   6  19
   76      3    2   1   7  22
   77      3    2   1   6  18
   78      3    2   1   6  20
   79      3    2   1   7  23
   80      3    3   2   4  13
   81      3    3   2   4  12
   82      3    3   2   5  16
   83      3    3   2   1   6
   84      3    3   2   1   8
   85      3    3   2   5  17
   86      3    3   2   1   7
   87      3    3   2   5  15
   88      3    3   2   4  14
   89      3    4   2   1   6
   90      3    4   2   1   8
   91      3    4   2   5  16
   92      3    4   2   1   7
   93      3    4   2   5  17
   94      3    4   2   3  11
   95      3    4   2   3  10
   96      3    4   2   5  15
   97      3    4   2   3   9
   98      3    5   2   4  13
   99      3    5   2   1   7
  100      3    5   2   4  12
  101      3    5   2   3  11
  102      3    5   2   3  10
  103      3    5   2   3   9
  104      3    5   2   1   6
  105      3    5   2   4  14
  106      3    5   2   1   8
  107      3    6   1   7  22
  108      3    6   1   7  23
  109      3    6   1   7  21
  110      3    7   1   6  19
  111      3    7   1   6  20
  112      3    7   1   6  18
  113      3    8   1   6  19
  114      3    8   1   6  18
  115      3    8   1   7  22
  116      3    8   1   6  20
  117      3    8   1   7  23
  118      3    8   1   7  21

          INDEP./SYM. INTERNAL COORDINATES
          --------------------------------
 CRD  1=   0.2455 ( 30) -0.2455 ( 31)  0.4270 ( 32) -0.4270 ( 42) -0.1382 ( 45)
           0.1382 ( 46) -0.1437 ( 47)  0.1437 ( 49)  0.1040 ( 67) -0.1526 ( 69)
           0.1040 ( 71) -0.1533 ( 72) -0.1526 ( 73)  0.1416 ( 74)  0.1618 ( 75)
           0.1066 ( 76)  0.1066 ( 77)  0.1418 ( 78)  0.1619 ( 79) -0.1370 (107)
          -0.1020 (109) -0.1019 (111) -0.1370 (112)
 CRD  2=  -0.3293 (  1)  0.1011 ( 25) -0.3302 ( 27)  0.1010 ( 28)  0.1151 ( 30)
           0.1151 ( 31) -0.2249 ( 32)  0.1828 ( 38)  0.1181 ( 39) -0.2248 ( 42)
          -0.1639 ( 44)  0.1330 ( 45)  0.1329 ( 46)  0.3288 ( 48) -0.1325 ( 65)
          -0.1161 ( 66) -0.1301 ( 67)  0.1161 ( 68)  0.1325 ( 70)  0.1301 ( 71)
          -0.1416 ( 76)  0.1416 ( 77) -0.1202 ( 91) -0.1343 ( 93)  0.1202 ( 94)
           0.1342 ( 95) -0.1179 ( 96)  0.1178 ( 97)  0.1267 (108)  0.1129 (109)
          -0.1265 (110) -0.1131 (111)
 CRD  3=   0.2677 (  1)  0.1176 ( 24) -0.2760 ( 27)  0.1175 ( 29)  0.1797 ( 30)
           0.1795 ( 31)  0.1579 ( 32)  0.1241 ( 34)  0.1241 ( 36)  0.1580 ( 42)
          -0.3042 ( 44)  0.1081 ( 45)  0.1083 ( 46) -0.3686 ( 48) -0.1433 ( 65)
           0.1434 ( 70)  0.1209 ( 80)  0.1004 ( 81) -0.2011 ( 83)  0.1411 ( 88)
          -0.1225 ( 89)  0.1223 ( 92) -0.1207 ( 98)  0.2011 ( 99) -0.1412 (100)
          -0.1005 (105)
 CRD  4=   0.1383 (  2) -0.1383 (  4) -0.1200 ( 23)  0.1202 ( 26)  0.2449 ( 30)
          -0.2450 ( 31) -0.2138 ( 32)  0.1600 ( 37) -0.1594 ( 40)  0.2138 ( 42)
          -0.2824 ( 45)  0.2823 ( 46)  0.1393 ( 47) -0.1393 ( 49) -0.1119 ( 69)
          -0.1123 ( 73) -0.1163 ( 85) -0.1388 ( 87) -0.2559 ( 89) -0.2036 ( 90)
          -0.2560 ( 92) -0.1163 (102) -0.1388 (103)
 CRD  5=   0.1818 (  2) -0.1818 (  4)  0.1184 ( 23)  0.1861 ( 24) -0.1181 ( 26)
          -0.1856 ( 29) -0.1331 ( 34)  0.1332 ( 36)  0.1477 ( 41) -0.1477 ( 43)
          -0.1371 ( 45)  0.1371 ( 46)  0.3190 ( 83)  0.1741 ( 84)  0.3190 ( 86)
           0.1868 ( 89)  0.1868 ( 92)  0.3191 ( 99)  0.3191 (104)  0.1741 (106)
 CRD  6=  -0.3925 (  1) -0.3328 (  2) -0.3331 (  4) -0.1261 (  5) -0.2064 ( 23)
          -0.1045 ( 25) -0.2058 ( 26) -0.1038 ( 28) -0.1102 ( 34) -0.1103 ( 36)
           0.1529 ( 44) -0.2647 ( 48)  0.1185 ( 60)  0.1185 ( 62) -0.1160 ( 81)
           0.1771 ( 86) -0.1189 ( 89)  0.1191 ( 92) -0.1772 (104)  0.1160 (105)
 CRD  7=   0.1946 (  1)  0.1297 (  2)  0.1296 (  4) -0.3934 (  5)  0.1783 (  6)
           0.1786 (  7) -0.1317 ( 39)  0.2728 ( 41)  0.2728 ( 43)  0.1799 ( 44)
          -0.1402 ( 45) -0.1403 ( 46)  0.1054 ( 53)  0.1009 ( 54)  0.1053 ( 55)
          -0.1556 ( 66)  0.1557 ( 68) -0.1657 ( 82)  0.1279 ( 83)  0.1457 ( 84)
           0.1636 ( 86) -0.1200 ( 87) -0.1278 ( 99)  0.1657 (101)  0.1199 (103)
          -0.1635 (104) -0.1457 (106)
 CRD  8=  -0.2286 (  2)  0.2282 (  4)  0.4189 (  6) -0.4189 (  7) -0.1986 ( 34)
           0.1986 ( 36)  0.1898 ( 37) -0.1891 ( 40) -0.1142 ( 45)  0.1141 ( 46)
           0.1183 ( 51)  0.1236 ( 52) -0.1183 ( 57) -0.1236 ( 58)  0.1664 ( 72)
          -0.1618 ( 89) -0.1418 ( 90) -0.1617 ( 92)
 CRD  9=   0.1049 (  2)  0.1050 (  4)  0.3558 (  5)  0.4431 (  6)  0.4429 (  7)
           0.2431 ( 33)  0.2431 ( 35)  0.2337 ( 39) -0.1391 ( 50) -0.1276 ( 52)
          -0.1108 ( 53) -0.1106 ( 55) -0.1391 ( 56) -0.1277 ( 58) -0.1020 ( 81)
          -0.1032 ( 96)  0.1032 ( 97)  0.1018 (105)
 CRD 10=   0.2029 (  1) -0.2667 (  2) -0.2667 (  4)  0.4057 (  5) -0.2192 ( 23)
          -0.1293 ( 24)  0.1357 ( 25) -0.2199 ( 26)  0.1359 ( 28) -0.1303 ( 29)
          -0.1679 ( 33) -0.1678 ( 35)  0.1896 ( 37)  0.1556 ( 38)  0.1908 ( 40)
           0.1332 ( 41)  0.1333 ( 43) -0.1656 ( 54)  0.1554 ( 59)  0.1553 ( 64)
          -0.1190 ( 74) -0.1242 ( 76)  0.1243 ( 77)  0.1189 ( 78)
 CRD 11=   0.2438 (  2)  0.1022 (  3)  0.2438 (  4)  0.1004 (  5) -0.1316 (  6)
          -0.1317 (  7) -0.3308 ( 23)  0.2404 ( 24)  0.2931 ( 25) -0.3309 ( 26)
           0.2945 ( 28)  0.2387 ( 29) -0.1376 ( 34) -0.1375 ( 36) -0.2118 ( 61)
          -0.2118 ( 63)  0.1389 (108) -0.1390 (110)
 CRD 12=   0.2938 (  1)  0.1298 (  5) -0.2131 (  6) -0.2129 (  7)  0.1014 ( 12)
          -0.3482 ( 34) -0.3480 ( 36) -0.1543 ( 37)  0.1048 ( 38)  0.4231 ( 39)
          -0.1570 ( 40)  0.1242 ( 51)  0.1232 ( 52) -0.1161 ( 53)  0.1126 ( 54)
          -0.1150 ( 55)  0.1243 ( 57)  0.1231 ( 58) -0.1048 (108)  0.1048 (110)
 CRD 13=  -0.2918 (  1)  0.1393 (  2)  0.1345 (  4)  0.2507 (  5)  0.2782 ( 24)
          -0.2120 ( 25) -0.2078 ( 28)  0.2772 ( 29) -0.2982 ( 33) -0.2693 ( 35)
           0.1018 ( 40)  0.2879 ( 41)  0.3034 ( 43) -0.1012 ( 51)  0.1424 ( 52)
          -0.1004 ( 57)  0.1387 ( 58) -0.1469 ( 59) -0.1503 ( 64)
 CRD 14=   0.2548 (  6) -0.2509 (  7)  0.1079 ( 11) -0.1108 ( 13) -0.2780 ( 33)
           0.2323 ( 34)  0.3062 ( 35) -0.2281 ( 36) -0.3959 ( 37)  0.3859 ( 40)
          -0.1696 ( 41)  0.1403 ( 43)  0.2016 ( 50)  0.1640 ( 53) -0.1580 ( 55)
          -0.2014 ( 56)
 CRD 15=  -0.3008 (  2)  0.3010 (  4)  0.1409 ( 23)  0.2575 ( 24) -0.3796 ( 25)
          -0.1391 ( 26)  0.3786 ( 28) -0.2579 ( 29) -0.1050 ( 33)  0.1045 ( 35)
           0.1690 ( 41) -0.1687 ( 43) -0.2432 ( 60)  0.2430 ( 62)
 CRD 16=  -0.3422 ( 23) -0.1833 ( 24) -0.1410 ( 25)  0.3420 ( 26)  0.1422 ( 28)
           0.1822 ( 29) -0.2937 ( 34)  0.2937 ( 36) -0.2427 ( 37)  0.2418 ( 40)
           0.2587 ( 41) -0.2587 ( 43) -0.1221 ( 50)  0.1083 ( 52)  0.1221 ( 56)
          -0.1083 ( 58) -0.1334 ( 61)  0.1333 ( 63)
 CRD 17=  -0.1311 ( 12)  0.1638 ( 24) -0.1810 ( 25) -0.1805 ( 28)  0.1640 ( 29)
           0.2461 ( 33) -0.1754 ( 34)  0.2456 ( 35) -0.1754 ( 36)  0.2346 ( 37)
           0.1525 ( 38) -0.4495 ( 39)  0.2375 ( 40)  0.1136 ( 51) -0.2063 ( 54)
           0.1134 ( 57) -0.1140 ( 74)  0.1247 ( 75)  0.1141 ( 78) -0.1248 ( 79)
 CRD 18=  -0.1215 (  9)  0.1170 ( 10) -0.1172 ( 15)  0.1216 ( 16) -0.1601 ( 24)
           0.2070 ( 25) -0.2071 ( 28)  0.1614 ( 29) -0.3732 ( 33)  0.3734 ( 35)
           0.3475 ( 41) -0.3481 ( 43) -0.1897 ( 51)  0.1312 ( 52)  0.1898 ( 57)
          -0.1314 ( 58) -0.1069 ( 59)  0.1069 ( 64)
 CRD 19=  -0.1198 ( 11)  0.1195 ( 13) -0.1301 ( 19)  0.1291 ( 21) -0.3292 ( 23)
          -0.2262 ( 25)  0.3277 ( 26)  0.2243 ( 28) -0.1221 ( 33)  0.2071 ( 34)
           0.1217 ( 35) -0.2025 ( 36)  0.3031 ( 37) -0.3041 ( 40) -0.1450 ( 53)
           0.1449 ( 55)  0.1349 ( 59) -0.1289 ( 61)  0.1282 ( 63) -0.1352 ( 64)
           0.1112 ( 89)  0.1108 ( 92)
 CRD 20=  -0.1101 (  1) -0.1052 (  8) -0.1065 ( 14)  0.1092 ( 23) -0.2534 ( 24)
           0.1642 ( 25)  0.1139 ( 26)  0.1669 ( 28) -0.2524 ( 29) -0.2605 ( 34)
          -0.2642 ( 36)  0.1360 ( 37) -0.1923 ( 38) -0.2322 ( 39)  0.1323 ( 40)
           0.2132 ( 41)  0.2140 ( 43) -0.1031 ( 44) -0.1126 ( 48) -0.1201 ( 50)
           0.1147 ( 52) -0.1294 ( 54) -0.1218 ( 56)  0.1152 ( 58) -0.1260 ( 60)
          -0.1273 ( 62)  0.1304 ( 74) -0.1352 ( 75)  0.1015 ( 76) -0.1009 ( 77)
          -0.1298 ( 78)  0.1357 ( 79)
 CRD 21=  -0.2119 (  2)  0.2120 (  4) -0.1075 ( 17)  0.1077 ( 22) -0.2857 ( 24)
           0.2860 ( 29) -0.1277 ( 32)  0.1277 ( 42)  0.1650 ( 47) -0.1650 ( 49)
          -0.1799 ( 59)  0.1802 ( 64)  0.2212 ( 84)  0.2131 ( 90)  0.2211 (106)
           0.1478 (107)  0.1368 (108)  0.1538 (109)  0.1367 (110)  0.1537 (111)
           0.1479 (112)
 CRD 22=  -0.4685 (  3)  0.1030 ( 18)  0.1034 ( 20) -0.1989 ( 23) -0.1987 ( 26)
           0.1283 ( 48)  0.1204 ( 60)  0.1208 ( 62)  0.1240 ( 65)  0.1377 ( 66)
           0.1464 ( 67) -0.1376 ( 68) -0.1239 ( 70) -0.1464 ( 71) -0.1330 ( 82)
          -0.1243 ( 85) -0.1315 ( 86) -0.1106 ( 87) -0.1473 ( 91) -0.1386 ( 93)
           0.1474 ( 94)  0.1387 ( 95) -0.1249 ( 96)  0.1250 ( 97)  0.1331 (101)
           0.1244 (102)  0.1107 (103)  0.1314 (104)
 CRD 23=  -0.1010 (  8)  0.1009 ( 14) -0.1444 ( 19)  0.1446 ( 21) -0.1039 ( 61)
           0.1039 ( 63) -0.1171 ( 65)  0.1831 ( 69) -0.1171 ( 70)  0.1834 ( 72)
           0.1832 ( 73) -0.1684 ( 74) -0.1413 ( 75) -0.1593 ( 76) -0.1595 ( 77)
          -0.1684 ( 78) -0.1413 ( 79)  0.1672 ( 80)  0.1669 ( 81) -0.1038 ( 85)
          -0.1239 ( 87)  0.1669 ( 88)  0.1672 ( 98)  0.1669 (100) -0.1037 (102)
          -0.1239 (103)  0.1670 (105) -0.1500 (107) -0.1320 (108) -0.1591 (109)
          -0.1319 (110) -0.1590 (111) -0.1501 (112) -0.1029 (114) -0.1027 (115)
          -0.1117 (116) -0.1118 (118)
 CRD 24=   0.1783 ( 65)  0.2012 ( 66)  0.1787 ( 67)  0.2012 ( 68)  0.1782 ( 69)
           0.1782 ( 70)  0.1787 ( 71)  0.2046 ( 72)  0.1782 ( 73)  0.2043 ( 80)
           0.1779 ( 81)  0.1788 ( 82)  0.2012 ( 85)  0.1783 ( 87)  0.1779 ( 88)
           0.1790 ( 91)  0.2014 ( 93)  0.1789 ( 94)  0.2014 ( 95)  0.1785 ( 96)
           0.1786 ( 97)  0.2043 ( 98)  0.1779 (100)  0.1787 (101)  0.2013 (102)
           0.1784 (103)  0.1779 (105)
 CRD 25=   0.4251 (  3)  0.1590 (  9) -0.3044 ( 12)  0.1578 ( 16) -0.1394 ( 17)
          -0.1324 ( 18) -0.1329 ( 20) -0.1396 ( 22) -0.1240 ( 54)  0.1369 ( 65)
           0.1339 ( 66)  0.1600 ( 67) -0.1341 ( 68) -0.1371 ( 70) -0.1602 ( 71)
          -0.1777 ( 82) -0.1516 ( 85) -0.1546 ( 87) -0.1733 ( 91) -0.1472 ( 93)
           0.1730 ( 94)  0.1469 ( 95) -0.1502 ( 96)  0.1499 ( 97)  0.1775 (101)
           0.1514 (102)  0.1544 (103)
 CRD 26=   0.1494 (  8)  0.2976 (  9)  0.2223 ( 10) -0.1495 ( 14) -0.2221 ( 15)
          -0.2980 ( 16)  0.1990 ( 17)  0.2094 ( 18)  0.2288 ( 19) -0.2093 ( 20)
          -0.2290 ( 21) -0.1989 ( 22)  0.1024 ( 24) -0.1024 ( 29) -0.1194 ( 34)
           0.1194 ( 36)  0.1217 ( 51)  0.1058 ( 52) -0.1219 ( 57) -0.1056 ( 58)
           0.1022 ( 61) -0.1022 ( 63)  0.1071 ( 80)  0.1189 ( 81)  0.1189 ( 88)
           0.1071 ( 98)  0.1189 (100)  0.1189 (105)
 CRD 27=  -0.2587 (  8) -0.2374 (  9) -0.2613 ( 10)  0.2599 ( 14)  0.2627 ( 15)
           0.2382 ( 16)  0.2249 ( 17)  0.2292 ( 18)  0.2508 ( 19) -0.2333 ( 20)
          -0.2555 ( 21) -0.2284 ( 22)  0.1016 ( 34) -0.1020 ( 36) -0.1032 ( 50)
          -0.1010 ( 51) -0.1071 ( 52)  0.1037 ( 56)  0.1014 ( 57)  0.1076 ( 58)
           0.1000 ( 61) -0.1019 ( 63)
 CRD 28=   0.2925 ( 11)  0.2877 ( 12)  0.2926 ( 13) -0.2491 ( 17) -0.2877 ( 18)
          -0.3001 ( 19) -0.2844 ( 20) -0.2969 ( 21) -0.2461 ( 22)  0.1300 ( 25)
           0.1312 ( 28) -0.1088 ( 37) -0.1177 ( 39) -0.1088 ( 40)  0.1213 ( 53)
           0.1158 ( 54)  0.1213 ( 55) -0.1267 ( 60) -0.1212 ( 61) -0.1255 ( 62)
          -0.1199 ( 63)
 CRD 29=   0.3780 (  3) -0.3007 (  8) -0.2488 (  9) -0.2943 ( 10)  0.1672 ( 11)
           0.1213 ( 12)  0.1670 ( 13) -0.2993 ( 14) -0.2931 ( 15) -0.2477 ( 16)
           0.1025 ( 19)  0.1012 ( 21)  0.1202 ( 33)  0.1198 ( 35)  0.1080 ( 41)
           0.1076 ( 43) -0.1270 ( 50) -0.1157 ( 52) -0.1265 ( 56) -0.1151 ( 58)
 CRD 30=  -0.2502 (  3) -0.1130 (  5) -0.1869 (  8) -0.1937 (  9) -0.1811 ( 10)
          -0.3463 ( 11) -0.2909 ( 12) -0.3460 ( 13) -0.1875 ( 14) -0.1817 ( 15)
          -0.1941 ( 16) -0.1211 ( 17) -0.1488 ( 18) -0.1831 ( 19) -0.1480 ( 20)
          -0.1826 ( 21) -0.1206 ( 22)  0.1164 ( 37)  0.1323 ( 39)  0.1163 ( 40)
          -0.1361 ( 53) -0.1181 ( 54) -0.1359 ( 55)
 CRD 31=   0.1696 (  2) -0.1697 (  4) -0.2209 (  8)  0.2209 ( 14) -0.2524 ( 17)
          -0.1206 ( 18)  0.1206 ( 20)  0.2527 ( 22)  0.1250 ( 69)  0.1052 ( 72)
           0.1252 ( 73)  0.1524 ( 74)  0.1441 ( 75)  0.1187 ( 76)  0.1189 ( 77)
           0.1523 ( 78)  0.1443 ( 79)  0.1075 ( 80)  0.1273 ( 81) -0.1318 ( 84)
           0.1275 ( 88)  0.1075 ( 98)  0.1273 (100)  0.1275 (105) -0.1318 (106)
           0.1109 (108)  0.1190 (109)  0.1106 (110)  0.1189 (111)  0.1652 (113)
           0.1401 (114)  0.1399 (115)  0.1735 (116)  0.1655 (117)  0.1736 (118)
 CRD 32=  -0.2016 (  1)  0.1212 (  2)  0.1210 (  4)  0.1917 ( 17)  0.1466 ( 18)
           0.1491 ( 20)  0.1902 ( 22) -0.1031 ( 24)  0.1188 ( 25)  0.1183 ( 28)
          -0.1033 ( 29) -0.1412 ( 48) -0.1554 ( 60) -0.1561 ( 62) -0.1785 ( 74)
           0.1378 ( 75)  0.1785 ( 78) -0.1380 ( 79) -0.1383 (107) -0.1945 (108)
          -0.2351 (109)  0.1942 (110)  0.2350 (111)  0.1391 (112)  0.1762 (113)
           0.1210 (114) -0.1202 (115)  0.2169 (116) -0.1764 (117) -0.2170 (118)
 CRD 33=   0.1413 (  8)  0.1246 (  9) -0.2621 ( 10) -0.1420 ( 14)  0.2616 ( 15)
          -0.1233 ( 16) -0.1244 ( 17) -0.2500 ( 18)  0.3491 ( 19)  0.2530 ( 20)
          -0.3501 ( 21)  0.1221 ( 22)  0.1389 ( 52) -0.1385 ( 58)  0.1235 ( 60)
          -0.1862 ( 61) -0.1248 ( 62)  0.1869 ( 63) -0.1235 ( 74) -0.1231 ( 78)
          -0.1270 (109) -0.1267 (111) -0.1171 (116) -0.1173 (118)
 CRD 34=   0.2590 (  9) -0.3354 ( 10)  0.2571 ( 11) -0.2745 ( 13)  0.2826 ( 15)
          -0.2418 ( 16)  0.1221 ( 17) -0.2055 ( 19)  0.2021 ( 21) -0.1184 ( 22)
          -0.1419 ( 51)  0.1840 ( 52) -0.1370 ( 53)  0.1465 ( 55)  0.1323 ( 57)
          -0.1555 ( 58)  0.1143 ( 61) -0.1125 ( 63) -0.1059 ( 67) -0.1100 ( 72)
          -0.1062 ( 80) -0.1019 ( 91) -0.1147 ( 94) -0.1066 ( 98) -0.1008 (101)
 CRD 35=  -0.2788 (  8) -0.1038 (  9)  0.3788 ( 10)  0.1355 ( 11) -0.2440 ( 12)
           0.1008 ( 13) -0.2888 ( 14)  0.4209 ( 15) -0.1366 ( 16)  0.1482 ( 50)
          -0.2052 ( 52)  0.1287 ( 54)  0.1536 ( 56) -0.2284 ( 58) -0.1307 ( 66)
           0.1425 ( 68) -0.1049 ( 71) -0.1220 ( 82)  0.1254 ( 85) -0.1033 ( 91)
           0.1442 ( 93) -0.1335 ( 95)  0.1096 (101) -0.1128 (102)
 CRD 36=   0.1699 (  8) -0.1289 ( 10) -0.1642 ( 11)  0.1682 ( 13) -0.1716 ( 14)
           0.1195 ( 15) -0.4435 ( 17)  0.4037 ( 18) -0.2625 ( 20)  0.1474 ( 21)
           0.2380 ( 59) -0.2058 ( 60)  0.1315 ( 62) -0.1719 ( 77) -0.1662 (112)
          -0.1834 (114)
 CRD 37=  -0.2905 ( 17)  0.2626 ( 19)  0.2981 ( 20)  0.2251 ( 21) -0.5208 ( 22)
           0.1603 ( 59) -0.1485 ( 61) -0.1540 ( 62) -0.1304 ( 63)  0.2825 ( 64)
           0.1217 ( 75)  0.1589 ( 76) -0.1472 ( 79)  0.1367 (107) -0.1694 (108)
           0.1480 (110)  0.1194 (113)  0.1687 (115) -0.1373 (117)
 CRD 38=   0.1879 (  8) -0.3581 (  9)  0.1763 ( 10) -0.1556 ( 11)  0.3158 ( 12)
          -0.1679 ( 13)  0.1856 ( 14)  0.1738 ( 15) -0.3546 ( 16)  0.1149 ( 18)
           0.1114 ( 20) -0.1033 ( 50)  0.2027 ( 51) -0.1002 ( 52) -0.1741 ( 54)
          -0.1025 ( 56)  0.2007 ( 57)  0.1268 ( 67) -0.1259 ( 71) -0.1437 ( 82)
           0.1057 ( 88) -0.1331 ( 91)  0.1338 ( 94) -0.1035 (100)  0.1446 (101)
 CRD 39=   0.2785 (  8) -0.2263 (  9)  0.1561 ( 11) -0.3498 ( 12)  0.2007 ( 13)
           0.2803 ( 14) -0.2389 ( 16) -0.2100 ( 18)  0.1706 ( 19) -0.2011 ( 20)
           0.1846 ( 21) -0.1460 ( 50)  0.1175 ( 51)  0.1850 ( 54) -0.1057 ( 55)
          -0.1457 ( 56)  0.1246 ( 57) -0.1036 ( 63)  0.1021 ( 70) -0.1058 ( 73)
           0.1090 ( 81)  0.1149 ( 96) -0.1104 ( 97) -0.1172 (105)
 CRD 40=  -0.1183 (  9)  0.1034 ( 10)  0.4497 ( 11) -0.4258 ( 13) -0.1149 ( 15)
           0.1046 ( 16) -0.2052 ( 17)  0.1598 ( 19) -0.1113 ( 20) -0.1451 ( 21)
           0.2150 ( 22) -0.2385 ( 53)  0.2257 ( 55)  0.1159 ( 59) -0.1190 ( 64)
          -0.1835 ( 72) -0.1732 ( 80) -0.1742 ( 98)
 CRD 41=   0.1446 ( 11) -0.3158 ( 12)  0.1452 ( 13) -0.1069 ( 17)  0.3185 ( 18)
          -0.2815 ( 19)  0.3196 ( 20) -0.2792 ( 21) -0.1107 ( 22)  0.2004 ( 54)
          -0.1394 ( 60)  0.1611 ( 61) -0.1402 ( 62)  0.1603 ( 63)  0.1033 ( 69)
          -0.1045 ( 73)  0.1007 ( 76)  0.1216 ( 81) -0.1234 (105)  0.1285 (107)
           0.1203 (108) -0.1213 (110) -0.1275 (112) -0.1186 (113) -0.1248 (114)
           0.1255 (115)  0.1173 (117)
 CRD 42=   0.3448 (  8) -0.3099 (  9) -0.3425 ( 14)  0.3104 ( 16)  0.1391 ( 17)
          -0.1120 ( 18)  0.1204 ( 20) -0.1442 ( 22) -0.2137 ( 50)  0.1842 ( 51)
           0.2119 ( 56) -0.1842 ( 57) -0.1566 ( 65) -0.1556 ( 70) -0.1617 ( 87)
          -0.1675 ( 96) -0.1693 ( 97) -0.1628 (103)
 CRD 43=  -0.3996 (  3) -0.2341 ( 10)  0.2021 ( 11)  0.1388 ( 12)  0.2021 ( 13)
          -0.2339 ( 15)  0.1469 ( 19)  0.1470 ( 21)  0.1669 ( 37)  0.1397 ( 39)
           0.1669 ( 40) -0.1393 ( 41) -0.1390 ( 43)  0.1442 ( 50)  0.1244 ( 51)
          -0.1519 ( 53) -0.2020 ( 54) -0.1519 ( 55)  0.1441 ( 56)  0.1240 ( 57)
          -0.1035 ( 66)  0.1036 ( 68) -0.1300 ( 82)  0.1206 ( 86)  0.1301 (101)
          -0.1206 (104)  0.1166 (108) -0.1167 (110)
 CRD 44=  -0.2404 (  8) -0.1193 (  9) -0.1158 ( 10) -0.1575 ( 11)  0.1579 ( 13)
           0.2404 ( 14)  0.1163 ( 15)  0.1191 ( 16) -0.1273 ( 33) -0.1832 ( 34)
           0.1273 ( 35)  0.1832 ( 36) -0.1151 ( 41)  0.1153 ( 43)  0.1499 ( 47)
          -0.1500 ( 49)  0.1807 ( 51)  0.1837 ( 52) -0.1257 ( 53)  0.1265 ( 55)
          -0.1809 ( 57) -0.1835 ( 58) -0.1729 ( 72)  0.1035 ( 84)  0.2515 ( 90)
           0.1036 (106) -0.1218 (113) -0.1216 (114) -0.1216 (115) -0.1040 (116)
          -0.1219 (117) -0.1040 (118)
 CRD 45=  -0.2551 (  1)  0.2884 (  9)  0.2809 ( 12)  0.2884 ( 16)  0.1621 ( 33)
           0.1622 ( 35) -0.1077 ( 38)  0.1519 ( 39) -0.1960 ( 50) -0.1585 ( 52)
          -0.1678 ( 53) -0.1668 ( 55) -0.1959 ( 56) -0.1586 ( 58)  0.1551 ( 81)
          -0.1442 ( 82)  0.1579 ( 96) -0.1580 ( 97)  0.1441 (101) -0.1548 (105)
           0.1053 (113)  0.1383 (114) -0.1384 (115)  0.1181 (116) -0.1053 (117)
          -0.1183 (118)
 CRD 46=   0.2320 (  2) -0.2327 (  4) -0.1202 (  6)  0.1198 (  7) -0.1185 (  8)
           0.1186 ( 14)  0.1639 ( 17)  0.2190 ( 18)  0.1465 ( 19) -0.2186 ( 20)
          -0.1463 ( 21) -0.1632 ( 22)  0.1702 ( 23) -0.1764 ( 24) -0.1666 ( 25)
          -0.1698 ( 26)  0.1671 ( 28)  0.1768 ( 29)  0.1128 ( 52) -0.1130 ( 58)
          -0.1906 ( 59) -0.1485 ( 60) -0.2103 ( 61)  0.1480 ( 62)  0.2097 ( 63)
           0.1903 ( 64) -0.1370 ( 84) -0.1370 (106)
 CRD 47=   0.2688 (  2)  0.2683 (  4)  0.1191 (  6)  0.1195 (  7) -0.1900 ( 17)
          -0.1255 ( 18) -0.2145 ( 19) -0.1260 ( 20) -0.2148 ( 21) -0.1905 ( 22)
          -0.1785 ( 23) -0.1624 ( 24) -0.1792 ( 25) -0.1788 ( 26) -0.1788 ( 28)
          -0.1620 ( 29) -0.1157 ( 38)  0.1001 ( 50)  0.1730 ( 59)  0.2231 ( 60)
           0.1583 ( 61)  0.2235 ( 62)  0.1589 ( 63)  0.1732 ( 64)  0.1006 (114)
          -0.1004 (115)
 CRD 48=  -0.1751 (  3)  0.4290 (  5)  0.1913 (  6)  0.1914 (  7) -0.1304 (  8)
          -0.1324 ( 10) -0.2281 ( 11) -0.2276 ( 13) -0.1303 ( 14) -0.1325 ( 15)
          -0.1895 ( 37) -0.1686 ( 39) -0.1895 ( 40)  0.1631 ( 51)  0.1586 ( 53)
           0.2673 ( 54)  0.1590 ( 55)  0.1630 ( 57)  0.1113 (114) -0.1111 (115)
           0.1049 (116) -0.1052 (118)
 CRD 49=  -0.1796 (  1) -0.1694 (  2)  0.2664 (  3) -0.1694 (  4) -0.2178 (  5)
           0.3016 (  6)  0.3017 (  7) -0.1967 (  8)  0.1862 ( 12) -0.1966 ( 14)
           0.1491 ( 17)  0.1004 ( 20)  0.1486 ( 22) -0.1007 ( 33) -0.1195 ( 34)
          -0.1007 ( 35) -0.1195 ( 36)  0.1583 ( 51)  0.1385 ( 52) -0.1247 ( 53)
          -0.1242 ( 55)  0.1583 ( 57)  0.1384 ( 58) -0.1647 ( 61) -0.1649 ( 63)
          -0.1011 (108)  0.1012 (110)
 CRD 50=   0.2042 (  2) -0.2041 (  4)  0.3967 (  6) -0.3966 (  7)  0.1494 (  9)
           0.1570 ( 10) -0.1796 ( 11)  0.1803 ( 13) -0.1570 ( 15) -0.1495 ( 16)
           0.1104 ( 33)  0.1007 ( 34) -0.1105 ( 35) -0.1008 ( 36)  0.1164 ( 41)
          -0.1165 ( 43) -0.1897 ( 50) -0.1353 ( 53)  0.1359 ( 55)  0.1897 ( 56)
          -0.1660 ( 72)  0.1160 ( 90)
 CRD 51=  -0.3129 (  1)  0.1513 (  2)  0.1513 (  4)  0.2631 (  5)  0.1193 (  9)
          -0.1267 ( 10) -0.1268 ( 15)  0.1193 ( 16)  0.1730 ( 17) -0.1502 ( 18)
          -0.1215 ( 19) -0.1492 ( 20) -0.1226 ( 21)  0.1730 ( 22)  0.1151 ( 38)
          -0.1163 ( 52) -0.1163 ( 58)  0.1904 ( 59)  0.1904 ( 64) -0.1011 ( 66)
           0.1011 ( 68)  0.1583 ( 76) -0.1586 ( 77)  0.1062 (107) -0.1065 (112)
          -0.2677 (114)  0.2674 (115) -0.1568 (116)  0.1575 (118)
 CRD 52=   0.1050 (  1) -0.1451 (  2)  0.1390 (  3) -0.1448 (  4)  0.1639 (  5)
           0.1416 (  8) -0.1373 ( 10) -0.1152 ( 12)  0.1418 ( 14) -0.1375 ( 15)
           0.2348 ( 18) -0.1453 ( 19)  0.2348 ( 20) -0.1444 ( 21) -0.1765 ( 38)
          -0.1350 ( 52) -0.1351 ( 58)  0.1295 ( 60) -0.1564 ( 61)  0.1293 ( 62)
          -0.1558 ( 63) -0.1850 ( 66)  0.1852 ( 68)  0.2178 ( 74) -0.2183 ( 78)
           0.1204 ( 85)  0.1148 ( 93) -0.1146 ( 95) -0.1203 (102)  0.1473 (109)
          -0.1477 (111)  0.1226 (113)  0.1674 (114) -0.1677 (115) -0.1219 (117)
 CRD 53=   0.2121 (  2) -0.2124 (  4)  0.1139 (  8) -0.1187 ( 10) -0.1136 ( 14)
           0.1184 ( 15)  0.1149 ( 17) -0.2101 ( 18)  0.1954 ( 19)  0.2107 ( 20)
          -0.1946 ( 21) -0.1160 ( 22) -0.1093 ( 24)  0.1093 ( 29)  0.1100 ( 50)
          -0.1098 ( 56) -0.2216 ( 60)  0.2219 ( 62) -0.1290 ( 66) -0.1286 ( 68)
           0.1336 ( 72)  0.1807 ( 74) -0.1027 ( 76) -0.1021 ( 77)  0.1807 ( 78)
           0.1229 ( 84)  0.1037 ( 90) -0.1002 ( 95)  0.1229 (106) -0.1319 (107)
           0.1515 (109)  0.1515 (111) -0.1313 (112) -0.1767 (114) -0.1777 (115)
           0.1061 (116)  0.1057 (118)
 CRD 54=  -0.1232 ( 10)  0.1232 ( 15) -0.2660 ( 17)  0.1025 ( 18)  0.1655 ( 19)
          -0.1013 ( 20) -0.1666 ( 21)  0.2658 ( 22) -0.1243 ( 25)  0.1243 ( 28)
          -0.1986 ( 59)  0.1223 ( 61) -0.1231 ( 63)  0.1985 ( 64) -0.1948 ( 75)
           0.1410 ( 76)  0.1416 ( 77) -0.1952 ( 79) -0.2406 (108) -0.2403 (110)
          -0.1995 (113)  0.1369 (114)  0.1365 (115) -0.1997 (117)
 CRD 55=  -0.1055 (  8)  0.2898 (  9) -0.1869 ( 10)  0.1049 ( 14)  0.1872 ( 15)
          -0.2894 ( 16) -0.1351 ( 33)  0.1350 ( 35)  0.2157 ( 51) -0.1373 ( 52)
          -0.2154 ( 57)  0.1375 ( 58) -0.1503 ( 65)  0.2120 ( 67) -0.1499 ( 70)
           0.2119 ( 71)  0.2642 ( 82)  0.2118 ( 91)  0.2117 ( 94) -0.1500 ( 96)
          -0.1506 ( 97)  0.2642 (101)
 CRD 56=   0.1754 (  8) -0.1509 (  9) -0.1643 ( 11)  0.3271 ( 12) -0.1628 ( 13)
           0.1758 ( 14) -0.1517 ( 16) -0.1022 ( 27) -0.1535 ( 39) -0.1001 ( 44)
           0.1292 ( 50) -0.1132 ( 51) -0.1222 ( 53)  0.2438 ( 54) -0.1210 ( 55)
           0.1295 ( 56) -0.1138 ( 57)  0.1531 ( 65)  0.2075 ( 69) -0.1536 ( 70)
          -0.2069 ( 73)  0.2389 ( 81) -0.1851 ( 87) -0.1755 ( 88) -0.2161 ( 96)
           0.2155 ( 97)  0.1760 (100)  0.1846 (103) -0.2384 (105)
 CRD 57=   0.1623 (  8) -0.1392 ( 10) -0.2286 ( 11)  0.2293 ( 13) -0.1621 ( 14)
           0.1390 ( 15)  0.1094 ( 17) -0.1251 ( 19)  0.1254 ( 21) -0.1090 ( 22)
          -0.1090 ( 37)  0.1086 ( 40)  0.1213 ( 50) -0.1035 ( 52) -0.1693 ( 53)
           0.1699 ( 55) -0.1210 ( 56)  0.1034 ( 58)  0.1132 ( 65)  0.1069 ( 69)
           0.1130 ( 70) -0.1811 ( 72)  0.1079 ( 73) -0.1637 ( 80)  0.1243 ( 81)
          -0.1239 ( 84) -0.1120 ( 85)  0.1252 ( 88) -0.1446 ( 90)  0.1142 ( 96)
           0.1144 ( 97) -0.1638 ( 98)  0.1242 (100) -0.1121 (102)  0.1252 (105)
          -0.1238 (106)  0.1292 (108)  0.1292 (110)  0.1386 (113)  0.1386 (117)
 CRD 58=   0.1939 (  2) -0.1936 (  4)  0.1127 (  8)  0.1245 ( 11) -0.1250 ( 13)
          -0.1130 ( 14)  0.1603 ( 18) -0.1212 ( 19) -0.1604 ( 20)  0.1205 ( 21)
           0.1102 ( 23) -0.1098 ( 26)  0.1605 ( 47) -0.1607 ( 49) -0.1229 ( 61)
           0.1225 ( 63)  0.1325 ( 72)  0.1090 ( 75)  0.1289 ( 76)  0.1286 ( 77)
           0.1084 ( 79)  0.1799 ( 80) -0.1367 ( 83) -0.1365 ( 86)  0.2015 ( 90)
          -0.1384 ( 93) -0.1381 ( 95)  0.1800 ( 98) -0.1367 ( 99) -0.1368 (104)
          -0.1206 (109) -0.1208 (111) -0.2216 (116) -0.2210 (118)
 CRD 59=   0.1306 (  1) -0.1304 (  2) -0.1308 (  4) -0.1011 (  5)  0.1012 (  8)
          -0.1199 ( 10)  0.1011 ( 14) -0.1197 ( 15) -0.1555 ( 18)  0.1078 ( 19)
          -0.1560 ( 20)  0.1073 ( 21)  0.1465 ( 24)  0.1462 ( 29) -0.1153 ( 38)
          -0.1170 ( 44)  0.2112 ( 48) -0.1352 ( 60) -0.1355 ( 62)  0.1611 ( 76)
          -0.1602 ( 77)  0.1560 ( 85) -0.1597 ( 86)  0.1003 ( 88)  0.1542 ( 93)
          -0.1544 ( 95) -0.1005 (100) -0.1561 (102)  0.1594 (104)  0.1303 (107)
          -0.1191 (109)  0.1192 (111) -0.1295 (112)  0.1171 (113)  0.2579 (116)
          -0.1180 (117) -0.2580 (118)
 CRD 60=   0.1140 (  1) -0.1070 (  3)  0.1429 (  5)  0.1167 ( 10)  0.1167 ( 15)
           0.1570 ( 17) -0.1031 ( 19) -0.1036 ( 21)  0.1568 ( 22) -0.1325 ( 25)
          -0.1325 ( 28) -0.1139 ( 38)  0.1282 ( 47)  0.1282 ( 49)  0.1075 ( 59)
           0.1073 ( 64) -0.1351 ( 67)  0.1351 ( 71)  0.1241 ( 75)  0.1115 ( 76)
          -0.1118 ( 77) -0.1243 ( 79) -0.1751 ( 85)  0.1038 ( 86) -0.1290 ( 87)
           0.1097 ( 91) -0.1098 ( 94)  0.1750 (102)  0.1291 (103) -0.1038 (104)
           0.2582 (107)  0.1783 (109) -0.1777 (111) -0.2585 (112)  0.2369 (113)
          -0.2371 (117)
 CRD 61=   0.2998 (  1)  0.1295 (  9)  0.1378 ( 12)  0.1296 ( 16) -0.1220 ( 27)
          -0.1062 ( 30) -0.1066 ( 31) -0.1250 ( 33) -0.1251 ( 35) -0.1362 ( 39)
           0.1275 ( 44)  0.1080 ( 45)  0.1076 ( 46) -0.1246 ( 65)  0.1101 ( 69)
           0.1250 ( 70) -0.1101 ( 73) -0.1393 ( 80)  0.2399 ( 87) -0.2488 ( 88)
          -0.2268 ( 91) -0.1648 ( 93)  0.2266 ( 94)  0.1645 ( 95)  0.1388 ( 98)
           0.2494 (100) -0.2397 (103)
 CRD 62=  -0.1509 (  2)  0.1509 (  4)  0.1913 (  6) -0.1911 (  7)  0.1080 ( 11)
          -0.1083 ( 13)  0.1394 ( 30) -0.1391 ( 31) -0.1361 ( 32)  0.1185 ( 37)
          -0.1182 ( 40)  0.1362 ( 42)  0.1281 ( 45) -0.1283 ( 46) -0.1065 ( 47)
           0.1063 ( 49)  0.1427 ( 65) -0.2402 ( 69)  0.1426 ( 70) -0.2407 ( 73)
          -0.1142 ( 76) -0.1141 ( 77)  0.1991 ( 80) -0.2172 ( 84)  0.2402 ( 89)
           0.2401 ( 92) -0.1426 ( 93) -0.1431 ( 95)  0.1988 ( 98) -0.2172 (106)
           0.1093 (116)  0.1092 (118)
 CRD 63=   0.2060 (  3)  0.1805 (  5) -0.1014 ( 23) -0.1014 ( 26) -0.1543 ( 27)
          -0.1390 ( 38)  0.1150 ( 44)  0.1015 ( 48) -0.1560 ( 65) -0.1881 ( 67)
           0.1560 ( 70)  0.1880 ( 71) -0.2284 ( 75)  0.1492 ( 76) -0.1487 ( 77)
           0.2282 ( 79)  0.2512 ( 83)  0.1150 ( 84) -0.1337 ( 85)  0.1361 ( 89)
          -0.1363 ( 92) -0.1047 ( 93)  0.1048 ( 95) -0.2512 ( 99)  0.1337 (102)
          -0.1149 (106) -0.1076 (107) -0.1746 (109)  0.1743 (111)  0.1081 (112)

 THE DETERMINANT OF THE G MATRIX IS 10**(   -20)


                     --------------------
                     INTERNAL COORDINATES
                     --------------------

                 - - ATOMS - -         COORDINATE      COORDINATE
 NO.   TYPE    I  J  K  L  M  N        (BOHR,RAD)       (ANG,DEG)
 ----------------------------------------------------------------
   1 STRETCH   1  2                     2.9332969       1.5522340
   2 STRETCH   1  7                     2.8753546       1.5215722
   3 STRETCH   1  8                     2.1154429       1.1194442
   4 STRETCH   1  6                     2.8755595       1.5216807
   5 STRETCH   2  4                     2.8853451       1.5268590
   6 STRETCH   2  5                     2.8915670       1.5301515
   7 STRETCH   2  3                     2.8915334       1.5301337
   8 STRETCH   3 11                     2.0832929       1.1024312
   9 STRETCH   3 10                     2.0736372       1.0973217
  10 STRETCH   3  9                     2.0753249       1.0982147
  11 STRETCH   4 14                     2.0754553       1.0982837
  12 STRETCH   4 13                     2.0759911       1.0985672
  13 STRETCH   4 12                     2.0752512       1.0981757
  14 STRETCH   5 16                     2.0833839       1.1024794
  15 STRETCH   5 15                     2.0753733       1.0982403
  16 STRETCH   5 17                     2.0734721       1.0972342
  17 STRETCH   6 20                     2.0732593       1.0971216
  18 STRETCH   6 19                     2.0833533       1.1024632
  19 STRETCH   6 18                     2.0765111       1.0988424
  20 STRETCH   7 23                     2.0833909       1.1024831
  21 STRETCH   7 22                     2.0763324       1.0987479
  22 STRETCH   7 21                     2.0734181       1.0972057
  23 BEND      1  6 18                  1.9563410     112.0900831
  24 BEND      1  7 23                  1.9367485     110.9675128
  25 BEND      1  7 21                  1.9388251     111.0864977
  26 BEND      1  7 22                  1.9568380     112.1185583
  27 BEND      1  2  4                  1.9498745     111.7195795
  28 BEND      1  6 20                  1.9388960     111.0905579
  29 BEND      1  6 19                  1.9369764     110.9805702
  30 BEND      1  2  3                  1.9069668     109.2611481
  31 BEND      1  2  5                  1.9067929     109.2511861
  32 BEND      2  1  6                  1.9638034     112.5176457
  33 BEND      2  3 10                  1.9452423     111.4541737
  34 BEND      2  3 11                  1.9342790     110.8260253
  35 BEND      2  5 17                  1.9450824     111.4450102
  36 BEND      2  5 16                  1.9341790     110.8202953
  37 BEND      2  4 12                  1.9458230     111.4874432
  38 BEND      2  1  8                  1.8517860     106.0995217
  39 BEND      2  4 13                  1.9415585     111.2431051
  40 BEND      2  4 14                  1.9456363     111.4767460
  41 BEND      2  3  9                  1.9468698     111.5474254
  42 BEND      2  1  7                  1.9635584     112.5036064
  43 BEND      2  5 15                  1.9471741     111.5648580
  44 BEND      3  2  5                  1.8936195     108.4964079
  45 BEND      3  2  4                  1.9030274     109.0354391
  46 BEND      4  2  5                  1.9027387     109.0188981
  47 BEND      6  1  8                  1.8835194     107.9177099
  48 BEND      6  1  7                  1.9132496     109.6211270
  49 BEND      7  1  8                  1.8835452     107.9191901
  50 BEND      9  3 10                  1.8775800     107.5774072
  51 BEND      9  3 11                  1.8721025     107.2635712
  52 BEND     10  3 11                  1.8846274     107.9811965
  53 BEND     12  4 13                  1.8745803     107.4055407
  54 BEND     12  4 14                  1.8781258     107.6086808
  55 BEND     13  4 14                  1.8745481     107.4036961
  56 BEND     15  5 17                  1.8777745     107.5885544
  57 BEND     15  5 16                  1.8718366     107.2483370
  58 BEND     16  5 17                  1.8846507     107.9825327
  59 BEND     18  6 19                  1.8714187     107.2243960
  60 BEND     18  6 20                  1.8727925     107.3031045
  61 BEND     19  6 20                  1.8839600     107.9429574
  62 BEND     21  7 22                  1.8728720     107.3076638
  63 BEND     21  7 23                  1.8839538     107.9425998
  64 BEND     22  7 23                  1.8711344     107.2081044
  65 TORSION   1  2  3  9              -1.1377508     -65.1883210
  66 TORSION   1  2  3 10               3.0463742     174.5443868
  67 TORSION   1  2  3 11               0.9469382      54.2555608
  68 TORSION   1  2  5 17              -3.0469694    -174.5784866
  69 TORSION   1  2  4 12               1.0531982      60.3438138
  70 TORSION   1  2  5 15               1.1368088      65.1343485
  71 TORSION   1  2  5 16              -0.9476787     -54.2979870
  72 TORSION   1  2  4 13              -3.1379654    -179.7921765
  73 TORSION   1  2  4 14              -1.0461105     -59.9377188
  74 TORSION   2  1  7 21              -2.9160655    -167.0782436
  75 TORSION   2  1  6 19               0.8151452      46.7043798
  76 TORSION   2  1  7 22               1.2716813      72.8619712
  77 TORSION   2  1  6 18              -1.2768276     -73.1568301
  78 TORSION   2  1  6 20               2.9113099     166.8057673
  79 TORSION   2  1  7 23              -0.8201081     -46.9887348
  80 TORSION   3  2  4 13              -1.0284234     -58.9243185
  81 TORSION   3  2  4 12              -3.1204450    -178.7883282
  82 TORSION   3  2  5 16              -3.0251522    -173.3284549
  83 TORSION   3  2  1  6              -1.0214253     -58.5233599
  84 TORSION   3  2  1  8               1.0344665      59.2705631
  85 TORSION   3  2  5 17               1.1587423      66.3910455
  86 TORSION   3  2  1  7               3.0902561     177.0586329
  87 TORSION   3  2  5 15              -0.9406647     -53.8961194
  88 TORSION   3  2  4 14               1.0634315      60.9301392
  89 TORSION   4  2  1  6               1.0858224      62.2130390
  90 TORSION   4  2  1  8              -3.1414711    -179.9930380
  91 TORSION   4  2  5 16               1.1876230      68.0457865
  92 TORSION   4  2  1  7              -1.0856815     -62.2049682
  93 TORSION   4  2  5 17              -0.9116677     -52.2347131
  94 TORSION   4  2  3 11              -1.1886554     -68.1049374
  95 TORSION   4  2  3 10               0.9107807      52.1838886
  96 TORSION   4  2  5 15              -3.0110748    -172.5218780
  97 TORSION   4  2  3  9               3.0098409     172.4511808
  98 TORSION   5  2  4 13               1.0360889      59.3635229
  99 TORSION   5  2  1  7               1.0210875      58.5040058
 100 TORSION   5  2  4 12              -1.0559327     -60.5004868
 101 TORSION   5  2  3 11               3.0243023     173.2797575
 102 TORSION   5  2  3 10              -1.1594469     -66.4314165
 103 TORSION   5  2  3  9               0.9396133      53.8358757
 104 TORSION   5  2  1  6              -3.0905939    -177.0779871
 105 TORSION   5  2  4 14               3.1279438     179.2179806
 106 TORSION   5  2  1  8              -1.0347021     -59.2840640
 107 TORSION   6  1  7 22              -0.9274268     -53.1376394
 108 TORSION   6  1  7 23              -3.0192162    -172.9883454
 109 TORSION   6  1  7 21               1.1680118      66.9221459
 110 TORSION   7  1  6 19               3.0141135     172.6959808
 111 TORSION   7  1  6 20              -1.1729072     -67.2026316
 112 TORSION   7  1  6 18               0.9221407      52.8347709
 113 TORSION   8  1  6 19              -1.2219014     -70.0097917
 114 TORSION   8  1  6 18               2.9693112     170.1289984
 115 TORSION   8  1  7 22              -2.9745810    -170.4309393
 116 TORSION   8  1  6 20               0.8742633      50.0915959
 117 TORSION   8  1  7 23               1.2168148      69.7183547
 118 TORSION   8  1  7 21              -0.8791425     -50.3711541

     ------------------------------------------
     THE POINT GROUP IS C1 , NAXIS= 1, ORDER= 1
     ------------------------------------------

     DIMENSIONS OF THE SYMMETRY SUBSPACES ARE
 A   =  229

 ..... DONE SETTING UP THE RUN .....
 STEP CPU TIME =     0.01 TOTAL CPU TIME =        0.0 (    0.0 MIN)
 TOTAL WALL CLOCK TIME=        0.0 SECONDS, CPU UTILIZATION IS  50.00%


          -----------------------------
          STATIONARY POINT LOCATION RUN
          -----------------------------

 OBTAINING INITIAL HESSIAN, HESS=GUESS   
 DIAGONAL GUESS HESSIAN IN INTERNAL COORDS IS
     1  0.3516     2  0.3732     3  0.3271     4  0.3732     5  0.3694
     6  0.3671     7  0.3671     8  0.3381     9  0.3415    10  0.3409
    11  0.3408    12  0.3406    13  0.3409    14  0.3381    15  0.3409
    16  0.3415    17  0.3416    18  0.3381    19  0.3405    20  0.3381
    21  0.3405    22  0.3415    23  0.2240    24  0.2238    25  0.2241
    26  0.2241    27  0.2472    28  0.2241    29  0.2238    30  0.2469
    31  0.2469    32  0.2475    33  0.2236    34  0.2233    35  0.2236
    36  0.2233    37  0.2238    38  0.2210    39  0.2238    40  0.2238
    41  0.2236    42  0.2475    43  0.2236    44  0.2485    45  0.2487
    46  0.2487    47  0.2228    48  0.2497    49  0.2228    50  0.2026
    51  0.2024    52  0.2024    53  0.2026    54  0.2026    55  0.2026
    56  0.2026    57  0.2024    58  0.2024    59  0.2023    60  0.2026
    61  0.2024    62  0.2026    63  0.2024    64  0.2023    65  0.2500
    66  0.2500    67  0.2500    68  0.2500    69  0.2500    70  0.2500
    71  0.2500    72  0.2500    73  0.2500    74  0.2500    75  0.2500
    76  0.2500    77  0.2500    78  0.2500    79  0.2500    80  0.2500
    81  0.2500    82  0.2500    83  0.2500    84  0.2500    85  0.2500
    86  0.2500    87  0.2500    88  0.2500    89  0.2500    90  0.2500
    91  0.2500    92  0.2500    93  0.2500    94  0.2500    95  0.2500
    96  0.2500    97  0.2500    98  0.2500    99  0.2500   100  0.2500
   101  0.2500   102  0.2500   103  0.2500   104  0.2500   105  0.2500
   106  0.2500   107  0.2500   108  0.2500   109  0.2500   110  0.2500
   111  0.2500   112  0.2500   113  0.2500   114  0.2500   115  0.2500
   116  0.2500   117  0.2500   118  0.2500
 TRANSFORMING HESSIAN TO SYMMETRY COORDINATES

          PARAMETERS CONTROLLING GEOMETRY SEARCH ARE
          METHOD =QA                  UPHESS =BFGS    
          NNEG   =         0          NFRZ   =         3
          NSTEP  =        50          IFOLOW =         1
          HESS   =GUESS               RESTAR =         F
          IHREP  =         0          HSSEND =         F
          NPRT   =         0          NPUN   =         0
          OPTTOL = 5.000E-04          RMIN   = 1.500E-03
          RMAX   = 1.000E-01          RLIM   = 7.000E-02
          DXMAX  = 3.000E-01          PURIFY =         F
          MOVIE  =         F          TRUPD  =         T
          TRMAX  = 5.000E-01          TRMIN  = 5.000E-02
          ITBMAT =         5          STPT   =         F
          STSTEP = 1.000E-02          PROJCT=          F
          FROZEN COORD(S)=   1   2   3


      ***** EQUILIBRIUM GEOMETRY LOCATED *****
            (SUBJECT TO   3 CONSTRAINT(S))
 COORDINATES OF ALL ATOMS ARE (ANGS)
   ATOM   CHARGE       X              Y              Z
 ------------------------------------------------------------
 C           6.0   3.2670117078   1.8728014385   2.4042642040
 C           6.0   1.7375704381   2.0499091804   2.1709383533
 C           6.0   1.1304710900   2.8822965888   3.3140367127
 C           6.0   1.4468547018   2.7522727591   0.8334098845
 C           6.0   1.0489915430   0.6737087371   2.1720443999
 C           6.0   4.0103983503   3.2119187846   2.5183505077
 C           6.0   3.9261659707   0.9602522365   1.3594364452
 H           1.0   3.3750204573   1.3732668165   3.3669578579
 H           1.0   1.3922497456   2.4642392123   4.2835300230
 H           1.0   0.0471308259   2.8978233466   3.2368334462
 H           1.0   1.4708015225   3.9117486659   3.2912141693
 H           1.0   1.8300877993   2.1856210599  -0.0090426947
 H           1.0   0.3759887304   2.8662521026   0.6906926698
 H           1.0   1.8884563329   3.7428746082   0.7961421901
 H           1.0   1.3059078980   0.1089394505   3.0655034325
 H           1.0   1.3289508538   0.0794676798   1.3091427038
 H           1.0  -0.0306236298   0.7906615024   2.1480039331
 H           1.0   3.9401616685   3.7998509642   1.6086244904
 H           1.0   3.6166177667   3.8114748818   3.3318081224
 H           1.0   5.0639296311   3.0472066421   2.7238478618
 H           1.0   4.9818078702   0.8297668898   1.5781884918
 H           1.0   3.8451291322   1.3611519784   0.3539795116
 H           1.0   3.4758498173  -0.0263774235   1.3602282280


                     --------------------
                     INTERNAL COORDINATES
                     --------------------

                 - - ATOMS - -         COORDINATE      COORDINATE
 NO.   TYPE    I  J  K  L  M  N        (BOHR,RAD)       (ANG,DEG)
 ----------------------------------------------------------------
   1 STRETCH   1  2                     2.9427583       1.5572407
   2 STRETCH   1  7                     2.9023727       1.5358696
   3 STRETCH   1  8                     2.0596971       1.0899449
   4 STRETCH   1  6                     2.9023599       1.5358628
   5 STRETCH   2  4                     2.9072393       1.5384449
   6 STRETCH   2  5                     2.9080113       1.5388534
   7 STRETCH   2  3                     2.9080373       1.5388672
   8 STRETCH   3 11                     2.0493878       1.0844894
   9 STRETCH   3 10                     2.0526179       1.0861987
  10 STRETCH   3  9                     2.0555644       1.0877579
  11 STRETCH   4 14                     2.0507601       1.0852156
  12 STRETCH   4 13                     2.0528665       1.0863303
  13 STRETCH   4 12                     2.0507559       1.0852134
  14 STRETCH   5 16                     2.0493719       1.0844810
  15 STRETCH   5 15                     2.0555836       1.0877681
  16 STRETCH   5 17                     2.0526155       1.0861974
  17 STRETCH   6 20                     2.0521479       1.0859500
  18 STRETCH   6 19                     2.0494982       1.0845478
  19 STRETCH   6 18                     2.0512006       1.0854487
  20 STRETCH   7 23                     2.0494802       1.0845383
  21 STRETCH   7 22                     2.0512288       1.0854636
  22 STRETCH   7 21                     2.0521230       1.0859368
  23 BEND      1  6 18                  1.9591740     112.2524012
  24 BEND      1  7 23                  1.9410196     111.2122333
  25 BEND      1  7 21                  1.9300301     110.5825792
  26 BEND      1  7 22                  1.9591425     112.2505987
  27 BEND      1  2  4                  1.9474193     111.5789085
  28 BEND      1  6 20                  1.9298413     110.5717592
  29 BEND      1  6 19                  1.9411829     111.2215860
  30 BEND      1  2  3                  1.9152557     109.7360674
  31 BEND      1  2  5                  1.9152219     109.7341309
  32 BEND      2  1  6                  1.9685469     112.7894304
  33 BEND      2  3 10                  1.9266679     110.3899408
  34 BEND      2  3 11                  1.9541386     111.9638935
  35 BEND      2  5 17                  1.9267066     110.3921557
  36 BEND      2  5 16                  1.9540589     111.9593262
  37 BEND      2  4 12                  1.9495905     111.7033071
  38 BEND      2  1  8                  1.8564566     106.3671298
  39 BEND      2  4 13                  1.9266562     110.3892694
  40 BEND      2  4 14                  1.9494813     111.6970487
  41 BEND      2  3  9                  1.9382354     111.0527090
  42 BEND      2  1  7                  1.9683430     112.7777486
  43 BEND      2  5 15                  1.9382365     111.0527709
  44 BEND      3  2  5                  1.8824929     107.8589004
  45 BEND      3  2  4                  1.9010799     108.9238521
  46 BEND      4  2  5                  1.9011263     108.9265114
  47 BEND      6  1  8                  1.8608757     106.6203255
  48 BEND      6  1  7                  1.9399759     111.1524290
  49 BEND      7  1  8                  1.8608692     106.6199519
  50 BEND      9  3 10                  1.8847993     107.9910440
  51 BEND      9  3 11                  1.8839481     107.9422761
  52 BEND     10  3 11                  1.8733151     107.3330490
  53 BEND     12  4 13                  1.8764453     107.5123977
  54 BEND     12  4 14                  1.8820707     107.8347052
  55 BEND     13  4 14                  1.8763770     107.5084818
  56 BEND     15  5 17                  1.8847671     107.9891998
  57 BEND     15  5 16                  1.8839717     107.9436252
  58 BEND     16  5 17                  1.8733661     107.3359735
  59 BEND     18  6 19                  1.8814618     107.7998189
  60 BEND     18  6 20                  1.8791903     107.6696722
  61 BEND     19  6 20                  1.8693726     107.1071579
  62 BEND     21  7 22                  1.8792083     107.6707042
  63 BEND     21  7 23                  1.8693859     107.1079208
  64 BEND     22  7 23                  1.8814388     107.7985053
  65 TORSION   1  2  3  9              -0.9160564     -52.4861681
  66 TORSION   1  2  3 10              -3.0060189    -172.2321976
  67 TORSION   1  2  3 11               1.1912750      68.2550274
  68 TORSION   1  2  5 17               3.0053517     172.1939677
  69 TORSION   1  2  4 12               1.0553082      60.4647038
  70 TORSION   1  2  5 15               0.9154035      52.4487550
  71 TORSION   1  2  5 16              -1.1919040     -68.2910682
  72 TORSION   1  2  4 13              -3.1410240    -179.9674165
  73 TORSION   1  2  4 14              -1.0543282     -60.4085536
  74 TORSION   2  1  7 21              -3.1022198    -177.7441024
  75 TORSION   2  1  6 19               1.0233919      58.6360392
  76 TORSION   2  1  7 22               1.0819829      61.9930540
  77 TORSION   2  1  6 18              -1.0863111     -62.2410424
  78 TORSION   2  1  6 20               3.0980242     177.5037090
  79 TORSION   2  1  7 23              -1.0275531     -58.8744536
  80 TORSION   3  2  4 13              -1.0239815     -58.6698200
  81 TORSION   3  2  4 12              -3.1108347    -178.2376997
  82 TORSION   3  2  5 16               3.0055245     172.2038681
  83 TORSION   3  2  1  6              -1.0030311     -57.4694501
  84 TORSION   3  2  1  8               1.0308888      59.0655748
  85 TORSION   3  2  5 17               0.9195949      52.6889040
  86 TORSION   3  2  1  7               3.0646911     175.5938628
  87 TORSION   3  2  5 15              -1.1703534     -67.0563087
  88 TORSION   3  2  4 14               1.0627143      60.8890429
  89 TORSION   4  2  1  6               1.1057553      63.3551132
  90 TORSION   4  2  1  8               3.1396752     179.8901381
  91 TORSION   4  2  5 16               0.9446626      54.1251799
  92 TORSION   4  2  1  7              -1.1097078     -63.5815739
  93 TORSION   4  2  5 17              -1.1412670     -65.3897842
  94 TORSION   4  2  3 11              -0.9452832     -54.1607393
  95 TORSION   4  2  3 10               1.1406082      65.3520357
  96 TORSION   4  2  5 15               3.0519701     174.8650031
  97 TORSION   4  2  3  9              -3.0526146    -174.9019348
  98 TORSION   5  2  4 13               1.0251301      58.7356269
  99 TORSION   5  2  1  7               0.9991142      57.2450297
 100 TORSION   5  2  4 12              -1.0617231     -60.8322528
 101 TORSION   5  2  3 11              -3.0061749    -172.2411366
 102 TORSION   5  2  3 10              -0.9202835     -52.7283616
 103 TORSION   5  2  3  9               1.1696790      67.0176679
 104 TORSION   5  2  1  6              -3.0686079    -175.8182832
 105 TORSION   5  2  4 14               3.1118259     178.2944898
 106 TORSION   5  2  1  8              -1.0346881     -59.2832584
 107 TORSION   6  1  7 22              -1.1485740     -65.8084427
 108 TORSION   6  1  7 23               3.0250753     173.3240497
 109 TORSION   6  1  7 21               0.9504086      54.4544009
 110 TORSION   7  1  6 19              -3.0293469    -173.5687901
 111 TORSION   7  1  6 20              -0.9547147     -54.7011203
 112 TORSION   7  1  6 18               1.1441354      65.5541283
 113 TORSION   8  1  6 19              -1.0078989     -57.7483540
 114 TORSION   8  1  6 18              -3.1176020    -178.6254356
 115 TORSION   8  1  7 22               3.1131593     178.3708907
 116 TORSION   8  1  6 20               1.0667333      61.1193158
 117 TORSION   8  1  7 23               1.0036234      57.5033831
 118 TORSION   8  1  7 21              -1.0710434     -61.3662656

          INTERNUCLEAR DISTANCES (ANGS.)


 =====================================================
   GAMESS/COSab RESULTS
 =====================================================

   Dielectric Constant                  = INFTY
   Basic Grid Size                      =                 1082
   Number of Segments                   =                   92
   Number of Segments located on spheres=                  247
   Number of Segments of the cavity     =                  642
   Solvent Radius (rsolv)               = 1.40
   Outlying Charge Error Method         = double cavity

 =====================================================

  Total solvated Energy (a.u.)          =  -274.4641418099
  Total Energy corrected (a.u.)         =  -274.4640606686

  Outlying charge effect (a.u.)         =     0.0000811414
  Outlying charge effect (kcal/mol)     =     0.0509170250

  Dielectric Energy (a.u.)              =    -0.0015212746
  Dielectric energy corr. (a.u.)        =    -0.0014401332

  Sum of polarization charges           =     0.0285505176
  Sum of polarization charges(cor.)     =    -0.0285505176

  Total surface area of cavity (A**2)   =  157.62
  Total volume of cavity (A**3)         =  165.54

 =====================================================
 NPS=                   642
NR.  ATOM  (X, Y, Z)(a.u.)                  CHARGE(e)  AREA(A**2) SIGMA(e/A**2)
   1   1   9.117453   2.347408   6.592507   0.000129   0.092912   0.001383
   2   3   0.302684   7.002920   9.178191   0.001005   0.371649   0.002704
   3   3  -0.452948   3.472603   8.181730   0.001753   0.371649   0.004716
   4   3   0.738769   8.650030   4.823812   0.000500   0.139368   0.003586
   5   3   0.237332   3.421043   8.826766   0.001375   0.278737   0.004933
   6   3   0.909714   6.232889   9.750000   0.001375   0.418105   0.003288
   7   3   3.772256   7.028131   9.280412   0.001298   0.278737   0.004658
   8   3   0.184907   8.682898   6.201636   0.001700   0.325193   0.005228
   9   3  -0.373114   8.247899   5.887461   0.001145   0.232280   0.004929
  10   3   3.033953   7.705555   9.156792   0.001780   0.371649   0.004789
  11   3   1.554794   7.444860   9.417569   0.001342   0.418105   0.003209
  12   3  -0.363349   5.939680   9.054248   0.001747   0.418105   0.004178
  13   3  -0.478508   4.506568   8.824509   0.001870   0.325193   0.005751
  14   3   0.608633   8.636922   7.594287   0.001379   0.371649   0.003711
  15   3   0.579682   7.994447   8.580055   0.001344   0.464561   0.002893
  16   3  -0.448540   7.182083   8.405424   0.001038   0.325193   0.003193
  17   3  -0.024706   8.247168   4.931446   0.001713   0.325193   0.005267
  18   3   0.064507   5.108824   9.405530   0.001509   0.325193   0.004642
  19   3   2.385316   7.033480   9.683810   0.001105   0.278737   0.003963
  20   3  -0.321489   8.072939   7.423120   0.001747   0.418105   0.004178
  21   3   1.861998   8.292402   8.734720   0.001165   0.371649   0.003135
  22   4   0.909359   8.331324   0.499876   0.002417   0.418105   0.005780
  23   4   0.669454   5.150405  -1.590311   0.001929   0.418105   0.004613
  24   4   3.936412   7.247119  -1.366568   0.001505   0.371649   0.004050
  25   4   0.762381   8.360070   2.220629   0.001909   0.325193   0.005872
  26   4   4.206900   6.294483  -1.729563   0.001439   0.325193   0.004426
  27   4   1.368762   4.380649  -1.852453   0.001274   0.278737   0.004569
  28   4   0.483314   8.235743   1.482239   0.000838   0.185824   0.004512
  29   4   1.209091   8.656708   1.445191   0.000919   0.185824   0.004947
  30   4   0.417272   3.061196  -0.507715   0.001200   0.232280   0.005164
  31   4   0.517916   3.819901  -1.157292   0.002341   0.418105   0.005599
  32   4   1.696947   5.763621  -2.015613   0.001588   0.464561   0.003418
  33   4   2.900683   6.763598  -1.862361   0.001470   0.464561   0.003165
  34   4   5.141704   6.663664  -0.944732   0.001654   0.325193   0.005087
  35   4   0.855123   6.560819  -1.409119   0.001215   0.371649   0.003270
  36   4   0.861850   7.621459  -0.643257   0.001593   0.418105   0.003810
  37   4   1.790530   8.274242  -0.412355   0.001760   0.464561   0.003789
  38   4   2.889388   7.810459  -1.154745   0.000996   0.325193   0.003064
  39   4   2.791647   5.828020  -2.151714   0.000841   0.278737   0.003017
  40   4   1.122439   2.969463  -1.014803   0.000676   0.139368   0.004851
  41   4   5.151423   5.981718  -1.223571   0.000601   0.139368   0.004313
  42   4   1.808777   7.201305  -1.495399   0.001109   0.418105   0.002654
  43   5  -0.677935   0.511443   6.678907   0.001224   0.232280   0.005270
  44   5   0.751554  -2.300304   4.097977   0.000996   0.371649   0.002679
  45   5  -0.610975   1.233239   1.355469   0.000561   0.139368   0.004028
  46   5   3.407132  -2.178607   4.687329   0.000696   0.139368   0.004993
  47   5   1.193805  -2.287036   5.098407   0.001225   0.371649   0.003297
  48   5  -0.086334   0.076887   7.032706   0.001187   0.232280   0.005109
  49   5  -0.601123  -0.193591   1.768148   0.001708   0.325193   0.005253
  50   5  -0.010096  -0.236790   1.270013   0.001139   0.232280   0.004903
  51   5  -0.334584   1.149522   7.088025   0.000893   0.185824   0.004803
  52   5  -0.571110  -0.639896   6.130562   0.002689   0.511017   0.005262
  53   5  -0.025567  -1.779733   5.070335   0.001353   0.418105   0.003235
  54   5   1.872147  -2.493149   3.809229   0.001508   0.371649   0.004059
  55   5   3.037113  -2.349475   3.884708   0.001521   0.325193   0.004676
  56   5  -0.777518  -1.033828   2.944592   0.001384   0.371649   0.003723
  57   5  -0.228694  -1.763577   3.687296   0.001347   0.464561   0.002900
  58   5   0.839537  -2.161603   3.017871   0.001028   0.325193   0.003162
  59   5  -0.028561   0.729262   0.951021   0.001648   0.325193   0.005067
  60   5   2.297894  -2.442952   4.717234   0.000939   0.232280   0.004041
  61   5   0.127469  -1.446009   5.962014   0.001086   0.278737   0.003897
  62   5   0.357872   0.858044   7.491778   0.000503   0.139368   0.003608
  63   5   0.025663  -1.401244   2.287015   0.001741   0.418105   0.004163
  64   5  -0.869017  -1.142817   4.667948   0.001175   0.371649   0.003162
  65   6   9.561490   7.818681   7.459565   0.002385   0.418105   0.005705
  66   6   7.259219   9.823797   5.056731   0.001691   0.371649   0.004549
  67   6  10.552580   8.159663   3.723934   0.001479   0.325193   0.004549
  68   6   9.107442   4.557868   7.867247   0.000727   0.232280   0.003128
  69   6   7.552731   5.239076   8.445951   0.000217   0.092912   0.002337
  70   6   8.542836   5.348798   8.341553   0.000979   0.278737   0.003512
  71   6   9.142325   6.180856   8.197957   0.001923   0.371649   0.005175
  72   6  10.044053   8.256896   2.909234   0.001451   0.325193   0.004461
  73   6   7.336343   9.768173   4.019720   0.000753   0.185824   0.004053
  74   6   9.658729   6.275597   1.610212   0.000679   0.185824   0.003653
  75   6   8.921331   7.044995   8.154559   0.001070   0.232280   0.004605
  76   6   9.740478   6.836156   7.762788   0.000881   0.185824   0.004742
  77   6   6.295155   9.608163   4.418339   0.001880   0.371649   0.005058
  78   6   8.446815   9.740645   4.526200   0.001571   0.464561   0.003381
  79   6   9.734409   9.096519   4.070035   0.001307   0.418105   0.003125
  80   6  10.659368   7.209967   2.890139   0.001747   0.325193   0.005373
  81   6  10.280968   6.051935   2.116833   0.000604   0.185824   0.003249
  82   6   8.335973   9.615837   5.824411   0.001370   0.418105   0.003276
  83   6   9.236320   8.869025   6.682417   0.001599   0.418105   0.003824
  84   6  10.157113   8.296427   6.395076   0.001534   0.418105   0.003668
  85   6  10.352891   8.627079   4.975598   0.001540   0.464561   0.003315
  86   6   7.810929   5.797640   8.521465   0.000715   0.232280   0.003079
  87   6   9.438735   5.125617   7.910621   0.000686   0.185824   0.003692
  88   6   8.993533   9.405497   3.684628   0.000685   0.232280   0.002947
  89   6  10.144588   6.999657   2.144626   0.001445   0.278737   0.005184
  90   6   9.452994   9.273837   5.468876   0.001098   0.418105   0.002625
  91   6  10.672904   5.877741   2.597390   0.000813   0.185824   0.004376
  92   7   8.720532  -1.578602   3.606944   0.001169   0.232280   0.005033
  93   7   9.350637  -0.025836  -0.108220   0.001012   0.371649   0.002723
  94   7   9.979521   3.622743   0.456953   0.002073   0.371649   0.005577
  95   7  10.589785   3.162003   1.014190   0.001342   0.278737   0.004815
  96   7  10.206287   0.178769   0.608996   0.001354   0.418105   0.003239
  97   7   9.395003  -1.138711   3.857022   0.001833   0.371649   0.004931
  98   7   9.400533   0.712101   5.592828   0.000404   0.185824   0.002176
  99   7   6.044729  -0.212684  -0.309355   0.001333   0.278737   0.004783
 100   7   5.922563   0.402468  -0.601161   0.000869   0.185824   0.004674
 101   7   8.752808  -0.236532   5.449770   0.000776   0.232280   0.003341
 102   7   8.392517  -1.118543   4.744715   0.001587   0.371649   0.004270
 103   7   9.152366  -1.540012   2.402907   0.002631   0.511017   0.005148
 104   7   9.386775  -0.938235   0.885066   0.001374   0.418105   0.003287
 105   7   9.694297   1.157075  -0.376659   0.001718   0.418105   0.004109
 106   7  10.108912   2.499958   0.003619   0.001825   0.325193   0.005613
 107   7   7.217251  -0.874445  -0.079137   0.001432   0.371649   0.003853
 108   7   8.375763  -0.617499  -0.161327   0.001396   0.464561   0.003004
 109   7   8.618511   0.490539  -0.761686   0.000861   0.278737   0.003087
 110   7  10.375965   1.565314   0.227865   0.001489   0.325193   0.004578
 111   7   9.813636  -0.992161   1.748063   0.001084   0.278737   0.003889
 112   7   9.257978  -0.459722   4.962964   0.000880   0.232280   0.003790
 113   7   7.298804  -0.000441  -0.743944   0.001774   0.418105   0.004243
 114   7   7.514591  -0.870545   5.226998   0.001089   0.325193   0.003349
 115   7   8.456772  -1.389425   0.853654   0.001080   0.325193   0.003323
 116   8   7.031461   1.285731   8.335823  -0.001027   0.294415  -0.003488
 117   8   7.052232   3.029454   8.684629  -0.000605   0.274788  -0.002200
 118   8   8.296922   1.847517   7.701818  -0.000660   0.392554  -0.001680
 119   8   6.655206   0.479046   7.579400  -0.001161   0.353299  -0.003286
 120   8   6.002228   1.351827   8.447892  -0.001444   0.314043  -0.004598
 121   8   6.519184   2.202731   8.783624  -0.001214   0.314043  -0.003867
 122   8   7.716863   2.331168   8.405306  -0.000957   0.372926  -0.002565
 123   8   7.689319   0.909982   7.577360  -0.000712   0.353299  -0.002015
 124   9   2.999742   3.987127  10.429375  -0.001964   0.412182  -0.004766
 125   9   3.802108   5.615619  10.029665  -0.000692   0.333671  -0.002075
 126   9   1.310318   3.531082   9.833622  -0.000590   0.353299  -0.001669
 127   9   2.029449   5.371442  10.366808  -0.000542   0.333671  -0.001624
 128   9   4.137737   4.434994  10.022281  -0.002137   0.451437  -0.004735
 129   9   3.387953   3.122560   9.857748  -0.002239   0.392554  -0.005704
 130   9   2.219329   2.947907   9.810949  -0.001715   0.392554  -0.004369
 131   9   1.748345   4.291663  10.358055  -0.001319   0.431809  -0.003055
 132   9   3.018116   5.190878  10.461113  -0.001247   0.392554  -0.003175
 133  10  -2.306057   5.830325   6.532607  -0.002031   0.431809  -0.004704
 134  10  -1.508584   7.087937   5.176221  -0.000720   0.294415  -0.002446
 135  10  -1.666422   7.048216   6.810801  -0.000766   0.372926  -0.002053
 136  10  -1.782315   5.018613   7.641093  -0.000753   0.372926  -0.002019
 137  10  -2.111367   5.895258   5.108029  -0.002161   0.412182  -0.005243
 138  10  -1.880060   6.931916   5.921327  -0.001107   0.353299  -0.003132
 139  10  -1.769413   6.145375   7.577260  -0.000857   0.372926  -0.002298
 140  10  -1.919017   4.376174   7.007143  -0.001306   0.372926  -0.003501
 141  10  -2.297331   4.991396   5.792309  -0.002075   0.372926  -0.005565
 142  11   3.291844   9.784157   6.444636  -0.002508   0.451437  -0.005555
 143  11   1.757408   9.504762   5.493290  -0.000961   0.431809  -0.002226
 144  11   2.221318   9.389954   7.535673  -0.000759   0.372926  -0.002036
 145  11   2.893705   9.699783   5.384785  -0.002181   0.392554  -0.005555
 146  11   3.312269   9.201478   7.793475  -0.001747   0.490692  -0.003560
 147  11   1.946276   9.668920   6.615977  -0.001113   0.392554  -0.002835
 148  12   4.014700   3.402769  -2.296640  -0.002107   0.392554  -0.005368
 149  12   4.034180   4.656874  -2.346499  -0.000547   0.255160  -0.002146
 150  12   2.639678   3.408636  -2.218029  -0.000788   0.353299  -0.002229
 151  12   4.790156   4.601275  -2.026943  -0.001000   0.314043  -0.003185
 152  12   3.193998   4.243487  -2.456835  -0.000747   0.333671  -0.002240
 153  12   2.544037   2.567428  -1.677432  -0.001075   0.392554  -0.002738
 154  12   3.640353   2.407170  -1.758643  -0.002088   0.353299  -0.005911
 155  13  -1.504726   5.898048   0.358740  -0.002121   0.451437  -0.004698
 156  13  -0.844104   7.278310   1.694614  -0.000836   0.353299  -0.002365
 157  13  -0.973867   4.332342  -0.116996  -0.000860   0.372926  -0.002305
 158  13  -0.627688   6.517308  -0.436156  -0.000679   0.353299  -0.001922
 159  13  -1.490880   6.486682   1.513725  -0.001747   0.372926  -0.004684
 160  13  -1.728593   5.403638   1.597842  -0.002396   0.412182  -0.005812
 161  13  -1.525159   4.615529   0.676425  -0.001796   0.372926  -0.004816
 162  13  -0.831282   5.365767  -0.606690  -0.000918   0.412182  -0.002227
 163  13  -0.826840   7.153092   0.495507  -0.001076   0.451437  -0.002383
 164  14   4.134189   9.416788   1.033406  -0.001976   0.372926  -0.005299
 165  14   2.665383   9.302064   2.004949  -0.000693   0.255160  -0.002717
 166  14   3.077431   9.146555   0.282140  -0.000684   0.314043  -0.002179
 167  14   4.754686   8.234889  -0.306155  -0.000442   0.235532  -0.001878
 168  14   3.762424   9.470552   2.003786  -0.001838   0.314043  -0.005852
 169  14   2.834406   9.388526   1.138029  -0.000755   0.333671  -0.002263
 170  14   3.811464   8.815256  -0.210347  -0.000684   0.294415  -0.002323
 171  14   4.640081   8.886666   0.240467  -0.001206   0.255160  -0.004728
 172  15   2.822144  -1.385636   7.630527  -0.002097   0.431809  -0.004855
 173  15   1.201816  -0.130085   7.871308  -0.000499   0.294415  -0.001694
 174  15   3.682282  -1.890560   6.199289  -0.000825   0.333671  -0.002471
 175  15   1.730905  -1.954502   6.701180  -0.000768   0.372926  -0.002059
 176  15   2.104953  -0.385075   8.149704  -0.001692   0.392554  -0.004309
 177  15   3.213656  -0.308482   8.076436  -0.002187   0.392554  -0.005572
 178  15   3.933334  -1.251977   7.120363  -0.002174   0.431809  -0.005034
 179  15   2.744818  -2.129082   6.504540  -0.001108   0.412182  -0.002688
 180  15   1.387578  -1.251001   7.449988  -0.001245   0.471065  -0.002643
 181  16   2.818842  -1.340024   0.545214  -0.002076   0.353299  -0.005875
 182  16   1.481164  -0.177446   0.267907  -0.000791   0.294415  -0.002688
 183  16   1.337181  -1.534393   1.125341  -0.000585   0.294415  -0.001986
 184  16   2.836972  -2.260406   2.130110  -0.000644   0.294415  -0.002186
 185  16   2.636252  -0.533457   0.117610  -0.001876   0.314043  -0.005975
 186  16   1.526843  -0.979034   0.526935  -0.000873   0.314043  -0.002779
 187  16   1.985605  -2.058676   1.536002  -0.000898   0.333671  -0.002691
 188  16   2.936788  -1.915598   1.214263  -0.001293   0.255160  -0.005066
 189  17  -2.480535   1.135066   3.867047  -0.001831   0.392554  -0.004663
 190  17  -1.758372   1.172180   2.315655  -0.000839   0.392554  -0.002138
 191  17  -1.846974   1.073227   5.689200  -0.000832   0.392554  -0.002120
 192  17  -1.903388  -0.121419   3.920584  -0.000672   0.353299  -0.001901
 193  17  -2.176888   1.955315   2.904938  -0.001744   0.372926  -0.004677
 194  17  -2.356396   2.346701   3.900946  -0.002127   0.353299  -0.006019
 195  17  -2.321324   1.734024   4.983461  -0.001782   0.372926  -0.004779
 196  17  -2.073850   0.345149   4.865869  -0.001077   0.412182  -0.002612
 197  17  -1.987297   0.389007   3.014567  -0.000930   0.372926  -0.002495
 198  18   7.753910   8.752625   1.177280  -0.002164   0.392554  -0.005512
 199  18   8.839039   7.267567   1.018347  -0.000607   0.274788  -0.002209
 200  18   8.821829   8.917002   1.978290  -0.000729   0.333671  -0.002185
 201  18   7.060821   9.584082   2.707344  -0.000510   0.235532  -0.002167
 202  18   7.933096   7.711777   0.691324  -0.001989   0.353299  -0.005629
 203  18   8.962205   8.150727   1.368118  -0.000856   0.372926  -0.002294
 204  18   8.040514   9.446130   2.298769  -0.000902   0.353299  -0.002554
 205  18   7.109179   9.322066   1.883888  -0.001104   0.235532  -0.004689
 206  19   6.464139   8.578440   8.297487  -0.002570   0.471065  -0.005456
 207  19   7.629141   7.767139   8.551163  -0.000733   0.392554  -0.001868
 208  19   6.510711   9.632451   6.458381  -0.000549   0.274788  -0.001997
 209  19   7.565788   9.340337   7.260792  -0.000566   0.333671  -0.001696
 210  19   6.801595   7.225240   8.752520  -0.001469   0.372926  -0.003940
 211  19   6.469095   9.389484   7.354182  -0.001428   0.333671  -0.004280
 212  19   7.662138   8.725934   8.036759  -0.000939   0.353299  -0.002657
 213  20  11.823654   5.629175   6.115258  -0.002410   0.490692  -0.004912
 214  20  10.830626   5.055675   7.134966  -0.000726   0.372926  -0.001947
 215  20  11.387766   6.958307   6.282652  -0.000995   0.412182  -0.002413
 216  20  11.671405   6.690902   4.282920  -0.000679   0.353299  -0.001921
 217  20  11.549435   5.750981   3.693162  -0.000593   0.294415  -0.002014
 218  20  11.074304   4.301598   6.431164  -0.001693   0.431809  -0.003921
[...]
 383   4   3.207236   8.081469  -0.745146  -0.000085   0.154584  -0.000549
 384   4   2.101194   8.610240   0.203743  -0.000038   0.154584  -0.000245
 385   4   1.789858   8.805696   1.709792   0.000111   0.154584   0.000719
 386  16   1.457880   0.715765   0.167451   0.000060   0.093234   0.000642
 387   4   1.412138   2.022606  -0.450226   0.000494   0.132173   0.003738
 388   4   6.282012   5.912566  -0.077839   0.000803   0.303359   0.002647
 389  18   7.094142   6.271170   0.444266  -0.000067   0.303359  -0.000221
 390  22   7.053572   5.230264  -0.091218  -0.000112   0.303359  -0.000369
 391  18   7.131671   7.154949   0.470955  -0.000640   0.217777  -0.002940
 392   4   5.868620   6.825385  -0.285040   0.000905   0.309810   0.002922
 393  22   6.965639   4.609647  -0.900615  -0.000602   0.212934  -0.002829
 394   4   5.894193   5.668111  -0.818353   0.000898   0.302933   0.002964
 395   5   1.082559   1.322467   7.840593   0.000212   0.088000   0.002412
 396   9   1.375081   2.134188   8.361306   0.000247   0.088000   0.002801
 397  15   1.290268   1.110634   7.917737   0.000011   0.088000   0.000130
 398   5  -0.739173   2.095158   1.519188   0.000084   0.086270   0.000978
 399  13  -0.736669   3.013424   1.166059   0.000195   0.086270   0.002261
 400  17  -0.966533   2.115918   1.722601   0.000011   0.086270   0.000128
 401  13  -0.675051   3.342996   0.571639   0.000061   0.095124   0.000640
 402   5  -0.640988   2.025692   1.185807   0.000460   0.134919   0.003408
 403   5   4.278385  -1.682351   4.869693   0.000296   0.064347   0.004592
 404  15   4.215221  -1.642215   5.164853   0.000041   0.064347   0.000643
 405  23   5.113464  -1.625893   4.417599   0.000118   0.064347   0.001836
 406  15   1.025399   0.410776   7.772570  -0.000045   0.067358  -0.000669
 407  15   0.715524  -0.505990   7.282172  -0.000101   0.148630  -0.000681
 408  15   1.001075  -1.550909   6.539553  -0.000196   0.148630  -0.001320
 409  15   1.969973  -2.147610   5.883762  -0.000236   0.148630  -0.001586
 410  15   3.242833  -2.062448   5.571585  -0.000138   0.148630  -0.000932
 411   5   0.565944   0.291439   7.420043   0.000132   0.148546   0.000888
 412   5   0.433414  -0.967809   6.662162   0.000183   0.148546   0.001230
 413   5   1.175423  -1.938831   5.835000  -0.000025   0.148546  -0.000167
 414   5   2.501427  -2.241407   5.262445   0.000105   0.148546   0.000708
 415   5   3.656447  -1.968754   5.102668   0.000188   0.082292   0.002281
 416   5   3.745810  -2.027065   3.153129   0.000022   0.078305   0.000281
 417  16   3.759090  -2.017234   2.848919  -0.000150   0.078305  -0.001921
 418  23   4.654350  -1.984429   2.867831  -0.000269   0.078305  -0.003437
 419  16   3.111940  -2.210017   2.802779  -0.000096   0.067241  -0.001434
 420  16   2.075481  -2.216539   2.470998  -0.000247   0.148621  -0.001664
 421  16   1.098726  -1.669279   1.777221  -0.000252   0.148621  -0.001695
 422  16   0.802337  -0.659238   0.985488  -0.000104   0.148621  -0.000702
 423  16   1.104872   0.245016   0.460924  -0.000032   0.067241  -0.000477
 424   5   2.604963  -2.270751   3.099463   0.000052   0.148024   0.000351
 425   5   1.274965  -2.025062   2.498759  -0.000029   0.148024  -0.000195
 426   5   0.521486  -1.103411   1.619595   0.000138   0.148024   0.000930
 427   5   0.642750   0.129416   0.809944   0.000129   0.148024   0.000869
 428  17  -1.206849   1.424954   1.887813  -0.000036   0.067529  -0.000539
 429  17  -1.324289   0.428059   2.312572  -0.000098   0.149228  -0.000659
 430  17  -1.432710  -0.355959   3.367887  -0.000221   0.149228  -0.001484
 431  17  -1.462138  -0.356564   4.686699  -0.000225   0.149228  -0.001508
 432  17  -1.400914   0.426485   5.746517  -0.000097   0.149228  -0.000653
 433  17  -1.302557   1.422988   6.177006  -0.000053   0.067529  -0.000781
 434   5  -0.922591   0.916614   1.782737   0.000175   0.148701   0.001180
 435   5  -1.072259  -0.291267   2.628521   0.000131   0.148701   0.000881
 436   5  -1.153845  -0.755650   4.033661  -0.000032   0.148701  -0.000218
 437   5  -1.135027  -0.292556   5.441466   0.000111   0.148701   0.000744
 438   5  -1.023259   0.914546   6.294190   0.000222   0.148701   0.001491
 439  23   5.428078  -1.997912   3.647332  -0.001581   0.382328  -0.004136
 440   5   4.020282  -2.052088   3.905152   0.001659   0.539772   0.003074
 441   6   9.078173   5.909723   1.256630   0.000161   0.060359   0.002670
 442   7   9.002402   5.137812   0.946218   0.000238   0.060359   0.003938
 443  18   8.904289   6.142318   1.168238  -0.000009   0.060359  -0.000151
 444   6  10.589501   4.561015   2.582512   0.000286   0.067645   0.004224
 445   7  10.634936   3.837152   2.167022   0.000116   0.067645   0.001713
 446  21  10.802445   3.632985   2.318478  -0.000037   0.067645  -0.000544
 447   7   9.531903   4.623348   0.888455   0.001059   0.303537   0.003490
 448   7  10.417408   4.156664   1.730822   0.001077   0.303537   0.003549
 449   6   9.988212   5.439952   1.877074   0.001755   0.608282   0.002885
 450   6   6.471562   4.811888   8.372239   0.000425   0.230337   0.001845
 451   8   6.245742   4.106944   8.478565  -0.000033   0.230337  -0.000141
 452   9   5.372253   4.556779   8.788227   0.000289   0.230337   0.001253
 453   8   8.505057   2.848488   7.631110  -0.000099   0.189157  -0.000522
 454   8   7.469300   3.512780   8.294892  -0.000829   0.386894  -0.002144
 455   6   8.688183   4.037438   7.765216   0.000998   0.518889   0.001924
 456   6   7.429762   4.767977   8.405816   0.000679   0.266777   0.002544
 457   6   6.460321   5.739231   8.469697  -0.000044   0.107579  -0.000408
 458   9   5.348399   5.455003   8.805813   0.000318   0.107579   0.002954
 459  19   6.338069   6.014528   8.526178  -0.000165   0.107579  -0.001535
 460   9   5.002877   4.928811   9.270600   0.000026   0.123327   0.000211
 461   6   6.593514   5.401375   8.663985   0.000524   0.179883   0.002912
 462   6   4.973071   8.999849   4.065748   0.000631   0.277315   0.002275
 463  11   4.045509   9.030756   4.440388  -0.000445   0.277315  -0.001603
 464  14   4.222424   8.956021   3.381758  -0.000363   0.277315  -0.001309
 465   6   5.653567   9.345749   5.497287   0.000035   0.077334   0.000449
 466  11   4.707559   9.304234   5.788402  -0.000239   0.077334  -0.003088
 467  19   5.601710   9.345889   5.797359  -0.000180   0.077334  -0.002329
 468  11   4.119703   9.436987   5.439004  -0.001008   0.258625  -0.003896
 469   6   5.429527   9.404689   4.768654   0.001036   0.366768   0.002824
 470   6   5.851894   9.198722   3.269596  -0.000038   0.080369  -0.000467
 471  14   5.082890   9.091281   2.629370  -0.000261   0.080369  -0.003245
 472  18   5.929463   9.201424   2.974483  -0.000186   0.080369  -0.002315
 473  14   4.413066   9.221810   2.696468  -0.000507   0.151077  -0.003353
 474   6   5.598577   9.339046   3.587346   0.000632   0.214710   0.002942
 475  18   6.530498   9.458193   3.169281  -0.000085   0.066775  -0.001267
 476  18   7.603273   9.580091   3.165229  -0.000246   0.147298  -0.001669
 477  18   8.789466   9.164944   2.805338  -0.000257   0.147298  -0.001747
 478  18   9.423391   8.227684   2.150658  -0.000138   0.147298  -0.000936
 479  18   9.258551   7.132759   1.455757  -0.000158   0.147298  -0.001072
 480   6   6.912442   9.561240   3.605356   0.000053   0.147287   0.000363
 481   6   8.369042   9.474466   3.436808  -0.000031   0.147287  -0.000209
 482   6   9.445266   8.674797   2.836899  -0.000004   0.147287  -0.000024
 483   6   9.722633   7.473179   2.038900   0.000110   0.147287   0.000749
 484   6   9.348848   6.509838   1.445172   0.000070   0.081580   0.000856
 485  19   7.068284   6.381976   8.596167  -0.000130   0.073264  -0.001770
 486  19   7.924150   7.174731   8.426188  -0.000231   0.165004  -0.001398
 487  19   8.338752   8.356843   7.755628  -0.000246   0.165004  -0.001491
 488  19   7.848424   9.305936   6.818752  -0.000337   0.165004  -0.002044
 489  19   6.682460   9.578182   6.053674  -0.000354   0.165004  -0.002148
 490   6   7.669077   6.341853   8.471659  -0.000040   0.158428  -0.000252
 491   6   8.589247   7.563238   8.016891   0.000120   0.158428   0.000758
 492   6   8.544007   8.836451   7.056585   0.000000   0.158428   0.000001
 493   6   7.554513   9.566097   6.039813  -0.000079   0.158428  -0.000500
 494   6   6.389853   9.587182   5.460481   0.000146   0.089508   0.001631
 495   6  10.746317   4.931778   2.892897   0.000206   0.087804   0.002349
 496  20  10.931764   4.916102   3.135643  -0.000005   0.087804  -0.000052
 497  21  10.829292   3.966227   2.702611   0.000202   0.087804   0.002305
 498  20  11.135218   5.614846   3.257726  -0.000046   0.066489  -0.000694
 499  20  11.221578   6.622005   3.622239  -0.000106   0.146501  -0.000722
 500  20  11.164599   7.478231   4.600597  -0.000171   0.146501  -0.001170
 501  20  10.935517   7.603638   5.875489  -0.000237   0.146501  -0.001617
 502  20  10.622477   6.949972   6.956360  -0.000131   0.146501  -0.000894
 503  20  10.345932   5.768751   7.427311  -0.000135   0.146501  -0.000925
 504  20  10.212291   4.514487   7.107130  -0.000293   0.146501  -0.002000
 505   6  10.907588   6.119374   3.060158   0.000142   0.146823   0.000968
 506   6  10.954908   7.368601   3.818822   0.000109   0.146823   0.000746
 507   6  10.785851   7.948729   5.150455   0.000039   0.146823   0.000264
 508   6  10.465465   7.636537   6.542671   0.000051   0.146823   0.000345
 509   6  10.117031   6.552150   7.459772   0.000125   0.146823   0.000852
 510   6   9.874617   5.112819   7.548874   0.000042   0.146823   0.000289
 511   6   9.804772   4.040257   7.047283   0.000076   0.081231   0.000932
 512   7   6.280922  -0.329777   5.725348   0.000434   0.230401   0.001885
 513   8   6.093840   0.006068   6.366814   0.000034   0.230401   0.000147
 514  15   5.187084  -0.456925   6.204470   0.000274   0.230401   0.001188
 515   8   6.883637   0.172153   6.630844  -0.000188   0.189070  -0.000993
 516   8   8.049025   0.925622   6.795778  -0.000750   0.386706  -0.001940
 517   7   7.756333  -0.089369   5.834033   0.000982   0.518661   0.001892
 518   7   9.007269   0.880168   5.978001   0.000693   0.266655   0.002598
 519   7   4.671759   0.848329  -0.146419   0.000670   0.277315   0.002416
 520  12   3.945837   1.476275  -0.484815  -0.000385   0.277315  -0.001387
 521  16   3.733350   0.580642   0.071574  -0.000385   0.277315  -0.001388
 522   7   5.541071   1.312184  -0.779630  -0.000002   0.080311  -0.000030
 523  12   4.801382   1.944064  -1.042178  -0.000246   0.080311  -0.003063
 524  22   5.626855   1.545230  -0.956957  -0.000186   0.080311  -0.002320
 525  12   4.205429   1.917342  -1.159634  -0.000467   0.143226  -0.003263
 526   7   5.211811   0.944995  -0.650732   0.000615   0.203584   0.003023
 527   7   6.216872  -0.940702   5.036854  -0.000009   0.107277  -0.000087
 528  15   5.114310  -0.986875   5.492918   0.000323   0.107277   0.003015
 529  23   6.077587  -1.140032   4.850375  -0.000196   0.107277  -0.001823
 530  15   4.764889  -1.091951   6.140460   0.000040   0.120131   0.000337
 531   7   6.380061  -0.862817   5.469546   0.000510   0.175171   0.002912
 532   7   5.293880  -0.582874   0.397506  -0.000013   0.077471  -0.000165
 533  16   4.343128  -0.736748   0.625346  -0.000254   0.077471  -0.003275
 534  23   5.233362  -0.823117   0.574585  -0.000159   0.077471  -0.002049
 535  16   3.698179  -0.306389   0.247725  -0.001011   0.266197  -0.003799
 536   7   5.140391  -0.162414  -0.003632   0.001054   0.377453   0.002793
 537   7   8.902116   4.755174   0.588303   0.000162   0.088522   0.001825
 538  18   8.697636   5.702968   0.942665   0.000265   0.088522   0.002990
 539  22   8.719854   4.707201   0.348064  -0.000066   0.088522  -0.000744
 540   7   9.106277   4.878152   0.585019   0.000039   0.005486   0.007027
 541  21  10.089022   1.043774   5.287256  -0.000064   0.066519  -0.000961
 542  21  10.079077   0.100118   4.772382  -0.000172   0.146580  -0.001174
 543  21  10.220106  -0.592170   3.678865  -0.000148   0.146580  -0.001008
 544  21  10.493762  -0.507265   2.408891  -0.000172   0.146580  -0.001172
 545  21  10.794653   0.322136   1.451556  -0.000221   0.146580  -0.001504
 546  21  11.006900   1.576609   1.175552  -0.000099   0.146580  -0.000676
 547  21  11.048760   2.773029   1.687174  -0.000191   0.146580  -0.001303
 548   7   9.692451   0.609931   5.280484  -0.000064   0.146876  -0.000436
 549   7   9.748667  -0.510122   4.341112   0.000059   0.146876   0.000404
 550   7   9.993750  -0.869091   2.944267   0.000171   0.146876   0.001163
 551   7  10.333313  -0.328727   1.627906   0.000001   0.146876   0.000008
 552   7  10.636582   0.902861   0.898991   0.000027   0.146876   0.000185
 553   7  10.786761   2.351362   1.038244   0.000222   0.146876   0.001515
 554   7  10.771589   3.336729   1.699211   0.000079   0.081267   0.000966
 555  22   8.980497   4.147088  -0.119885  -0.000049   0.066899  -0.000732
 556  22   9.264216   3.185699  -0.526083  -0.000116   0.147626  -0.000788
 557  22   8.932440   2.000120  -0.972064  -0.000217   0.147626  -0.001468
 558  22   7.915944   1.208485  -1.205779  -0.000281   0.147626  -0.001902
 559  22   6.611403   1.119720  -1.136025  -0.000183   0.147626  -0.001237
 560   7   9.385275   3.754900   0.052111   0.000007   0.147509   0.000046
 561   7   9.474363   2.393233  -0.498002   0.000021   0.147509   0.000143
 562   7   8.676995   1.223908  -0.899974   0.000022   0.147509   0.000150
 563   7   7.304333   0.703239  -0.996941   0.000059   0.147509   0.000403
 564   7   6.127253   0.836457  -0.848951   0.000151   0.081732   0.001848
 565  23   5.878209  -1.040821   0.435098  -0.000061   0.073218  -0.000829
 566  23   6.920056  -1.516125   0.712512  -0.000311   0.164878  -0.001886
 567  23   7.809180  -1.921117   1.743172  -0.000284   0.164878  -0.001721
 568  23   7.888608  -1.956230   3.160661  -0.000221   0.164878  -0.001341
 569  23   7.121239  -1.605065   4.302872  -0.000330   0.164878  -0.002004
 570   7   6.456308  -0.938018   0.253255   0.000040   0.158349   0.000253
 571   7   7.754180  -1.529829   0.965961  -0.000010   0.158349  -0.000066
 572   7   8.332767  -1.792736   2.428418   0.000068   0.158349   0.000432
 573   7   7.921810  -1.603935   3.957513   0.000140   0.158349   0.000883
 574   7   7.034396  -1.198205   4.816878  -0.000056   0.089452  -0.000627
 575   8   4.596018   1.709198   8.197503  -0.000197   0.299124  -0.000657
 576   9   3.753742   2.182976   8.569982  -0.000132   0.299124  -0.000442
 577  15   3.716932   1.179975   8.051107  -0.000130   0.299124  -0.000435
 578   9   4.012985   2.689321   9.228796  -0.000243   0.270603  -0.000900
 579   9   4.672264   3.744226   9.399341  -0.000767   0.541453  -0.001416
 580   8   5.463238   2.429323   8.778764  -0.000558   0.541453  -0.001030
 581   8   6.089310   3.516010   8.839646   0.000173   0.270603   0.000640
 582  15   4.721416  -0.694079   6.879882  -0.000064   0.269440  -0.000236
 583  15   4.161767   0.016006   7.743016  -0.000916   0.539109  -0.001698
 584   8   5.756784   0.312636   7.417585  -0.000279   0.539109  -0.000518
 585   8   5.165830   1.094859   8.193039  -0.000065   0.269440  -0.000243
 586  15   3.083225   0.778113   8.358250   0.000009   0.257569   0.000033
 587  15   1.966241   0.843631   8.310741   0.000133   0.514900   0.000259
 588   9   2.707083   2.211803   9.101649  -0.000184   0.514900  -0.000356
 589   9   1.600251   2.320445   8.970029   0.000381   0.257569   0.001479
 590  19   6.084232   6.573793   8.820692   0.000111   0.322833   0.000344
 591   9   4.815219   5.609422   9.380294   0.000524   0.322833   0.001622
 592  10  -1.496206   4.633866   4.068978  -0.000384   0.296620  -0.001293
 593  13  -1.338754   4.620418   2.989121  -0.000209   0.296620  -0.000704
 594  17  -1.529061   3.741097   3.607698  -0.000390   0.296620  -0.001315
 595  13  -1.594857   5.357752   2.675483  -0.000156   0.265566  -0.000589
 596  13  -1.229818   6.482934   2.708680  -0.000335   0.531060  -0.000631
 597  10  -1.683914   5.817492   4.216180  -0.000446   0.531060  -0.000839
 598  10  -1.220520   6.905382   4.262543   0.000342   0.265566   0.001288
 599  17  -1.570298   2.214904   6.113282   0.000190   0.247969   0.000766
 600  17  -2.052403   2.727693   5.155326  -0.000877   0.496107  -0.001768
 601  17  -2.023239   3.272374   4.099138  -0.000360   0.247969  -0.001452
 602  10  -1.737910   3.665667   6.409847  -0.000386   0.496107  -0.000779
 603  10  -2.020333   4.325032   5.153965  -0.001050   0.496107  -0.002116
 604  14   2.620925   9.171471   2.863939   0.000272   0.278766   0.000975
 605  14   3.562544   9.279938   3.014217  -0.000160   0.278766  -0.000574
 606  11   2.843973   9.295151   4.441387  -0.000590   0.557626  -0.001057
 607  19   5.547288   9.468417   6.285007  -0.000302   0.261283  -0.001157
 608  19   5.499187   8.946033   7.537455  -0.002241   0.523678  -0.004278
 609  11   4.254640   9.365680   6.759660  -0.002231   0.523678  -0.004261
 610  11   4.201885   8.719730   7.952886  -0.000212   0.261283  -0.000812
 611  16   2.047138   0.602757  -0.119963   0.000051   0.279316   0.000183
 612  16   2.977856   0.362394  -0.150183  -0.000256   0.279316  -0.000915
 613  12   2.818746   1.764529  -0.899593  -0.000360   0.558734  -0.000644
 614  22   5.754940   1.820744  -1.335188  -0.000167   0.248636  -0.000671
 615  22   6.268440   2.938375  -1.647184  -0.001990   0.497874  -0.003997
 616  22   6.696684   4.102597  -1.380135  -0.000663   0.248636  -0.002665
 617  12   4.754492   2.729722  -1.706071  -0.002119   0.497874  -0.004256
 618  12   5.341320   4.151610  -1.734079  -0.001456   0.497874  -0.002925
 619  17  -1.872319   3.217234   3.091744  -0.000132   0.265295  -0.000499
 620  17  -1.575019   2.521484   2.183772  -0.000032   0.530514  -0.000060
 621  13  -1.545054   4.199307   1.857644  -0.000647   0.530514  -0.001220
 622  13  -1.148090   3.508570   0.984621   0.000170   0.265295   0.000639
 623  18   6.841095   8.006145   0.627220  -0.000757   0.246718  -0.003067
 624  18   6.498304   8.915567   1.429066  -0.001919   0.494005  -0.003885
 625  18   6.051314   9.339695   2.528078  -0.000199   0.246718  -0.000808
 626  14   5.497333   8.346091   0.426667  -0.001457   0.494005  -0.002949
 627  14   5.005166   9.177118   1.611221  -0.002121   0.494005  -0.004294
 628  23   5.865981  -1.599861   4.671653   0.000222   0.335199   0.000661
 629  15   4.455879  -1.616070   5.595322   0.000603   0.335199   0.001798
 630  23   5.073355  -2.177505   2.386463  -0.000840   0.258602  -0.003248
 631  23   5.131060  -1.590239   1.178209  -0.001801   0.518239  -0.003475
 632  16   3.817867  -1.925607   1.872799  -0.001754   0.518239  -0.003384
 633  16   3.879823  -1.220845   0.729313  -0.000825   0.258602  -0.003188
 634  22   7.798218   5.043995  -0.324132   0.000066   0.252338   0.000262
 635  22   8.539044   4.866397  -0.035039   0.000389   0.252338   0.001542
 636  18   8.216203   6.423875   0.600762   0.000160   0.504321   0.000317
 637  21  11.272428   3.463604   2.689965   0.000268   0.261841   0.001022
 638  21  11.517199   2.919167   3.726176  -0.000521   0.523720  -0.000995
 639  21  10.975817   2.315914   4.932571  -0.000503   0.523720  -0.000961
 640  20  11.447952   4.588277   3.767770  -0.000159   0.523720  -0.000304
 641  20  11.419165   3.922109   5.059199  -0.000654   0.523720  -0.001249
 642  20  10.736451   3.491511   5.941551   0.000077   0.261841   0.000295
 =====================================================

              4810692  WORDS OF DYNAMIC MEMORY USED
 EXECUTION OF GAMESS TERMINATED NORMALLY Wed Nov 23 02:19:49 2016
 DDI: 263640 bytes (0.3 MB / 0 MWords) used by master data server.

 ----------------------------------------
 CPU timing information for all processes
 ========================================
 0: 2677.292 + 0.816 = 2678.108
 ----------------------------------------
 ddikick.x: exited gracefully.
