----- GAMESS execution script -----

          ******************************************************
          *         GAMESS VERSION =  5 DEC 2014 (R1)          *
          *             FROM IOWA STATE UNIVERSITY             *
          * M.W.SCHMIDT, K.K.BALDRIDGE, J.A.BOATZ, S.T.ELBERT, *
          *   M.S.GORDON, J.H.JENSEN, S.KOSEKI, N.MATSUNAGA,   *
          *          K.A.NGUYEN, S.J.SU, T.L.WINDUS,           *
          *       TOGETHER WITH M.DUPUIS, J.A.MONTGOMERY       *
          *         J.COMPUT.CHEM.  14, 1347-1363(1993)        *
          **************** 64 BIT LINUX VERSION ****************

 EXECUTION OF GAMESS BEGUN Wed Nov 23 02:40:08 2016

            ECHO OF THE FIRST FEW INPUT CARDS -
 INPUT CARD>! SELECT RESTRICTED HARTREE-FOCK AS DEFAULT                                     
 INPUT CARD>$contrl scftyp=rhf $end                                                         
 INPUT CARD>                                                                                
 INPUT CARD>! THEORY: HF OR DFT                                                             
 INPUT CARD> $contrl mplevl=0 $end                                                          
 INPUT CARD>                                                                                
 INPUT CARD> $system timlim=10000 mwords=20 $end                                            
 INPUT CARD> $SCF DIRSCF=.TRUE. $end                                                        
 INPUT CARD>                                                                                
 INPUT CARD>                                                                                
 INPUT CARD>! BASIS SETS                                                                    
 INPUT CARD>! 6-311G(d,p)                                                                   
 INPUT CARD> $BASIS GBASIS=N311 NGAUSS=6 NDFUNC=1 NPFUNC=1 $END                             
 INPUT CARD>                                                                                
 INPUT CARD>! One of the following                                                          
 INPUT CARD> $guess guess=HUCKEL $end                                                       
 INPUT CARD>                                                                                
 INPUT CARD> $statpt projct=.FALSE. $end                                                    
 INPUT CARD> $STATPT IFREEZ(1)=1,2,3 $END                                                   
 INPUT CARD>                                                                                
 INPUT CARD>! Optimize the geometry with COSMO effects                                      
 INPUT CARD> $statpt opttol=0.0005 nstep=50 $end                                            
 INPUT CARD> $contrl nzvar=1 $end                                                           
 INPUT CARD> $zmat dlc=.t. auto=.t. $end                                                    
 INPUT CARD> $contrl runtyp=OPTIMIZE maxit=200 $end                                         
 INPUT CARD>                                                                                
 INPUT CARD>! Run COSMO on perfect conductor                                                
 INPUT CARD> $COSGMS PRFCND=.TRUE. $end                                                     
 INPUT CARD>                                                                                
 INPUT CARD>! Specifying RSOLV                                                              
 INPUT CARD> $COSGMS COSRAD = 1.4 $end                                                      
 INPUT CARD>                                                                                
 INPUT CARD>! available memory                                                              
 INPUT CARD> $SYSTEM MWORDS=40 $END                                                         
 INPUT CARD>                                                                                
 INPUT CARD> $DATA                                                                          
 INPUT CARD>Pentane, 2,2-dimethyl-, ID: C590352                                             
 INPUT CARD>C1                                                                              
 INPUT CARD>C      6.0      3.2807000000    2.3018000000    2.0991000000                    
 INPUT CARD>C      6.0      1.7535000000    2.1838000000    1.9484000000                    
 INPUT CARD>C      6.0      3.7002000000    3.6303000000    2.7110000000                    
 INPUT CARD>C      6.0      1.4146000000    0.8288000000    1.3301000000                    
 INPUT CARD>C      6.0      1.2396000000    3.2953000000    1.0350000000                    
 INPUT CARD>C      6.0      1.0921000000    2.2889000000    3.3215000000                    
 INPUT CARD>C      6.0      5.1990000000    3.7347000000    2.8562000000                    
 INPUT CARD>H      1.0      3.6545000000    1.4654000000    2.7232000000                    
 INPUT CARD>H      1.0      3.7595000000    2.1762000000    1.1072000000                    
 INPUT CARD>H      1.0      3.3024000000    4.4598000000    2.0835000000                    
 INPUT CARD>H      1.0      3.1957000000    3.7503000000    3.6966000000                    
 INPUT CARD>H      1.0      1.7667000000    0.0000000000    1.9588000000                    
   40000000 WORDS OF MEMORY AVAILABLE

     BASIS OPTIONS
     -------------
     GBASIS=N311         IGAUSS=       6      POLAR=POPN311 
     NDFUNC=       1     NFFUNC=       0     DIFFSP=       F
     NPFUNC=       1      DIFFS=       F     BASNAM=        


     RUN TITLE
     ---------
 Pentane, 2,2-dimethyl-, ID: C590352                                             

 THE POINT GROUP OF THE MOLECULE IS C1      
 THE ORDER OF THE PRINCIPAL AXIS IS     0

 ATOM      ATOMIC                      COORDINATES (BOHR)
           CHARGE         X                   Y                   Z
 C           6.0     6.1996240479        4.3497712785        3.9667238208
 C           6.0     3.3136345195        4.1267836120        3.6819421145
 C           6.0     6.9923640998        6.8602722532        5.1230471527
 C           6.0     2.6732063822        1.5662048986        2.5135245363
 C           6.0     2.3425043344        6.2272140473        1.9558663973
 C           6.0     2.0637697512        4.3253938133        6.2767248682
 C           6.0     9.8246854102        7.0575596463        5.3974353661
 H           1.0     6.9060036221        2.7692044624        5.1461018098
 H           1.0     7.1044248508        4.1124216945        2.0923046136
 H           1.0     6.2406311019        8.4277999600        3.9372440954
 H           1.0     6.0389973390        7.0870393718        6.9855610862
 H           1.0     3.3385789025        0.0000000000        3.7015952647
 H           1.0     0.6237985485        1.3456738759        2.2784426234
 H           1.0     3.5455038982        1.3430282595        0.6438296440
 H           1.0     0.2707977340        6.3107399360        1.9379140004
 H           1.0     3.0604112371        8.0810352413        2.5815546718
 H           1.0     2.9772632937        5.9501802175        0.0000000000
 H           1.0     2.7482285039        6.0112183669        7.2922636140
 H           1.0     0.0000000000        4.4559738790        6.1274365152
 H           1.0     2.5053987145        2.6758519986        7.4553469668
 H           1.0    10.7837213489        6.8992006086        3.5640232128
 H           1.0    10.3744067000        8.8750981013        6.2309934993
 H           1.0    10.5805758053        5.5601407737        6.6189542446

          INTERNUCLEAR DISTANCES (ANGS.)




     $CONTRL OPTIONS
     ---------------
 SCFTYP=RHF          RUNTYP=OPTIMIZE     EXETYP=RUN     
 MPLEVL=       0     CITYP =NONE         CCTYP =NONE         VBTYP =NONE    
 DFTTYP=NONE         TDDFT =NONE    
 MULT  =       1     ICHARG=       0     NZVAR =       1     COORD =UNIQUE  
 PP    =NONE         RELWFN=NONE         LOCAL =NONE         NUMGRD=       F
 ISPHER=      -1     NOSYM =       0     MAXIT =     200     UNITS =ANGS    
 PLTORB=       F     MOLPLT=       F     AIMPAC=       F     FRIEND=        
 NPRINT=       7     IREST =       0     GEOM  =INPUT   
 NORMF =       0     NORMP =       0     ITOL  =      20     ICUT  =       9
 INTTYP=BEST         GRDTYP=BEST         QMTTOL= 1.0E-06

     $SYSTEM OPTIONS
     ---------------
  REPLICATED MEMORY=    40000000 WORDS (ON EVERY NODE).
 DISTRIBUTED MEMDDI=           0 MILLION WORDS IN AGGREGATE,
 MEMDDI DISTRIBUTED OVER   1 PROCESSORS IS           0 WORDS/PROCESSOR.
 TOTAL MEMORY REQUESTED ON EACH PROCESSOR=    40000000 WORDS.
 TIMLIM=       10000.00 MINUTES, OR       6.9 DAYS.
 PARALL= F  BALTYP=  DLB     KDIAG=    0  COREFL= F
 MXSEQ2=     300 MXSEQ3=     150  mem10=         0

     $COSGMS OPTIONS
     ---------------
     EPSI  =   INFTY     NSPA  =      92     COSRAD=    1.40
     DISEX =   10.00     OUTCHG=DBLCAV       COSBUG=       F
     COSWRT=       F     DCOSMO=       F

     SYMMETRY COORDINATES WILL NOT BE USED FOR 
     THE COSMO CALCULATION, EVEN IF SPECIFIED:
         -- SWITCHING TO C1 POINT GROUP --


     DEFINITION OF CAVITY
     ---------------------------
     ATOM         COORDINATES           RADIUS 
     1    6.1996    4.3498    3.9667    2.0000
     2    3.3136    4.1268    3.6819    2.0000
     3    6.9924    6.8603    5.1230    2.0000
     4    2.6732    1.5662    2.5135    2.0000
     5    2.3425    6.2272    1.9559    2.0000
     6    2.0638    4.3254    6.2767    2.0000
     7    9.8247    7.0576    5.3974    2.0000
     8    6.9060    2.7692    5.1461    1.3000
     9    7.1044    4.1124    2.0923    1.3000
    10    6.2406    8.4278    3.9372    1.3000
    11    6.0390    7.0870    6.9856    1.3000
    12    3.3386    0.0000    3.7016    1.3000
    13    0.6238    1.3457    2.2784    1.3000
    14    3.5455    1.3430    0.6438    1.3000
    15    0.2708    6.3107    1.9379    1.3000
    16    3.0604    8.0810    2.5816    1.3000
    17    2.9773    5.9502    0.0000    1.3000
    18    2.7482    6.0112    7.2923    1.3000
    19    0.0000    4.4560    6.1274    1.3000
    20    2.5054    2.6759    7.4553    1.3000
    21   10.7837    6.8992    3.5640    1.3000
    22   10.3744    8.8751    6.2310    1.3000
    23   10.5806    5.5601    6.6190    1.3000

          ----------------
          PROPERTIES INPUT
          ----------------

     MOMENTS            FIELD           POTENTIAL          DENSITY
 IEMOM =       1   IEFLD =       0   IEPOT =       0   IEDEN =       0
 WHERE =COMASS     WHERE =NUCLEI     WHERE =NUCLEI     WHERE =NUCLEI  
 OUTPUT=BOTH       OUTPUT=BOTH       OUTPUT=BOTH       OUTPUT=BOTH    
 IEMINT=       0   IEFINT=       0                     IEDINT=       0
                                                       MORB  =       0
          EXTRAPOLATION IN EFFECT
          SOSCF IN EFFECT
 ORBITAL PRINTING OPTION: NPREO=     1   229     2     1

     -------------------------------
     INTEGRAL TRANSFORMATION OPTIONS
     -------------------------------
     NWORD  =            0
     CUTOFF = 1.0E-09     MPTRAN =       0
     DIRTRF =       T     AOINTS =DUP     

          ----------------------
          INTEGRAL INPUT OPTIONS
          ----------------------
 NOPK  =       1 NORDER=       0 SCHWRZ=       T


 -----------------------------------------------
  STATISTICS ON AUTOMATIC COORDINATE GENERATION 
 -----------------------------------------------
  NUMBER OF USER SPECIFIED BONDS                             0
  NUMBER OF BONDS                                           22
  NUMBER OF ANGLES                                          42
  NUMBER OF TORSIONS                                        54
  NUMBER OF EXTRA COORD.                                     0
  NUMBER OF EXTRA COORD. FOR CONSTRAINTS                     0
  NUMBER OF CONSTRAINED COORD.                               0

  TOTAL NUMBER OF PRIMITIVES                               118
 -----------------------------------------------

   --- ENCODED Z MATRIX ---
 COORD  TYPE   I   J   K   L   M   N
    1      1    1   8
    2      1    1   3
    3      1    1   9
    4      1    1   2
    5      1    2   4
    6      1    2   5
    7      1    2   6
    8      1    3   7
    9      1    3  11
   10      1    3  10
   11      1    4  14
   12      1    4  13
   13      1    4  12
   14      1    5  16
   15      1    5  15
   16      1    5  17
   17      1    6  20
   18      1    6  19
   19      1    6  18
   20      1    7  23
   21      1    7  22
   22      1    7  21
   23      2    1   2   6
   24      2    1   3  11
   25      2    1   3   7
   26      2    1   2   5
   27      2    1   2   4
   28      2    1   3  10
   29      2    2   4  14
   30      2    2   6  18
   31      2    2   6  20
   32      2    2   5  17
   33      2    2   1   3
   34      2    2   5  15
   35      2    2   4  12
   36      2    2   1   8
   37      2    2   4  13
   38      2    2   1   9
   39      2    2   6  19
   40      2    2   5  16
   41      2    3   7  22
   42      2    3   7  23
   43      2    3   7  21
   44      2    3   1   8
   45      2    3   1   9
   46      2    4   2   6
   47      2    4   2   5
   48      2    5   2   6
   49      2    7   3  10
   50      2    7   3  11
   51      2    8   1   9
   52      2   10   3  11
   53      2   12   4  13
   54      2   12   4  14
   55      2   13   4  14
   56      2   15   5  17
   57      2   15   5  16
   58      2   16   5  17
   59      2   18   6  19
   60      2   18   6  20
   61      2   19   6  20
   62      2   21   7  22
   63      2   21   7  23
   64      2   22   7  23
   65      3    1   3   7  21
   66      3    1   3   7  22
   67      3    1   2   4  12
   68      3    1   3   7  23
   69      3    1   2   4  13
   70      3    1   2   4  14
   71      3    1   2   6  18
   72      3    1   2   5  17
   73      3    1   2   6  19
   74      3    1   2   5  15
   75      3    1   2   5  16
   76      3    1   2   6  20
   77      3    2   1   3  10
   78      3    2   1   3   7
   79      3    2   1   3  11
   80      3    3   1   2   4
   81      3    3   1   2   6
   82      3    3   1   2   5
   83      3    4   2   5  15
   84      3    4   2   1   9
   85      3    4   2   1   8
   86      3    4   2   5  17
   87      3    4   2   6  20
   88      3    4   2   6  18
   89      3    4   2   5  16
   90      3    4   2   6  19
   91      3    5   2   4  13
   92      3    5   2   4  12
   93      3    5   2   6  20
   94      3    5   2   1   9
   95      3    5   2   6  18
   96      3    5   2   6  19
   97      3    5   2   1   8
   98      3    5   2   4  14
   99      3    6   2   4  13
  100      3    6   2   1   9
  101      3    6   2   4  12
  102      3    6   2   5  15
  103      3    6   2   5  17
  104      3    6   2   1   8
  105      3    6   2   5  16
  106      3    6   2   4  14
  107      3    7   3   1   9
  108      3    7   3   1   8
  109      3    8   1   3  10
  110      3    8   1   3  11
  111      3    9   1   3  10
  112      3    9   1   3  11
  113      3   10   3   7  21
  114      3   10   3   7  23
  115      3   10   3   7  22
  116      3   11   3   7  21
  117      3   11   3   7  23
  118      3   11   3   7  22

          INDEP./SYM. INTERNAL COORDINATES
          --------------------------------
 CRD  1=  -0.1086 ( 23) -0.1377 ( 24)  0.3699 ( 25) -0.1086 ( 26)  0.1931 ( 27)
          -0.1377 ( 28) -0.6336 ( 33)  0.1904 ( 36)  0.1907 ( 38)  0.1977 ( 44)
           0.1977 ( 45)  0.1092 ( 48) -0.1089 ( 51) -0.1123 ( 71) -0.1045 ( 73)
           0.1046 ( 74)  0.1122 ( 75)
 CRD  2=  -0.3395 ( 23)  0.3392 ( 26) -0.1186 ( 30) -0.1055 ( 36)  0.1059 ( 38)
           0.1188 ( 40)  0.2287 ( 46) -0.2286 ( 47) -0.1979 ( 67) -0.1864 ( 69)
          -0.1979 ( 70)  0.1389 ( 72)  0.1389 ( 76) -0.1595 ( 77) -0.2727 ( 78)
          -0.1594 ( 79)  0.1020 ( 80)  0.1769 ( 81)  0.1768 ( 82) -0.1280 ( 95)
          -0.1284 ( 96) -0.1288 (102) -0.1280 (105)
 CRD  3=   0.3218 (  2)  0.4392 (  4)  0.2896 (  8) -0.1361 ( 24)  0.4941 ( 25)
          -0.1364 ( 28)  0.2488 ( 33)  0.1225 ( 42)  0.1230 ( 43) -0.1739 ( 49)
          -0.1740 ( 50)
 CRD  4=   0.1524 (  2) -0.1654 ( 23)  0.1128 ( 24) -0.2479 ( 25) -0.1657 ( 26)
           0.3402 ( 27)  0.1131 ( 28) -0.1525 ( 31) -0.1525 ( 32)  0.1439 ( 33)
          -0.1305 ( 37) -0.1931 ( 46) -0.1929 ( 47)  0.3769 ( 48) -0.1324 ( 71)
           0.1325 ( 75) -0.1282 ( 81)  0.1287 ( 82) -0.1511 ( 83) -0.1106 ( 86)
           0.1103 ( 87)  0.1512 ( 90) -0.1131 ( 91)  0.1389 ( 94)  0.1181 ( 97)
          -0.1507 ( 98)  0.1127 ( 99) -0.1179 (100)  0.1508 (101) -0.1388 (104)
 CRD  5=  -0.1733 ( 24)  0.1731 ( 28)  0.2022 ( 36) -0.2019 ( 38)  0.1197 ( 42)
          -0.1193 ( 43) -0.2554 ( 44)  0.2557 ( 45) -0.1233 ( 49)  0.1232 ( 50)
           0.1657 ( 65)  0.1206 ( 66)  0.1656 ( 68)  0.1551 ( 77)  0.1899 ( 78)
           0.1551 ( 79)  0.2735 ( 80)  0.3267 ( 81)  0.3264 ( 82)  0.1437 ( 94)
           0.1436 ( 97)  0.1440 (100)  0.1439 (104)  0.1130 (107)  0.1129 (108)
 CRD  6=  -0.2199 (  6)  0.2200 (  7) -0.2538 ( 29)  0.1369 ( 31) -0.1374 ( 32)
           0.2545 ( 35)  0.1064 ( 42) -0.1065 ( 43)  0.2787 ( 46) -0.2787 ( 47)
          -0.1106 ( 66)  0.1393 ( 69)  0.1009 ( 77)  0.2000 ( 78)  0.1009 ( 79)
          -0.3314 ( 80) -0.2182 ( 84) -0.2182 ( 85)  0.1114 ( 86)  0.1115 ( 87)
           0.1005 ( 88)  0.1009 ( 89) -0.1072 ( 96) -0.1074 (102)
 CRD  7=   0.2064 (  2)  0.1043 (  4)  0.4255 (  5) -0.2644 (  6) -0.2639 (  7)
          -0.1775 ( 25)  0.1271 ( 27)  0.1588 ( 29) -0.1973 ( 30)  0.1079 ( 31)
           0.1080 ( 32) -0.1106 ( 34)  0.1586 ( 35) -0.1096 ( 39) -0.1968 ( 40)
           0.1077 ( 41) -0.1565 ( 48) -0.1038 ( 53) -0.1334 ( 54) -0.1039 ( 55)
           0.1029 ( 57)  0.1027 ( 59) -0.1531 ( 73)  0.1530 ( 74)  0.1151 ( 81)
          -0.1153 ( 82) -0.1345 ( 97)  0.1344 (100)
 CRD  8=  -0.4782 (  5) -0.3380 (  6) -0.3377 (  7) -0.2538 ( 34) -0.2786 ( 37)
          -0.2540 ( 39)  0.1448 ( 53)  0.1447 ( 55)  0.1176 ( 56)  0.1173 ( 61)
           0.1086 ( 88) -0.1084 ( 89)  0.1143 ( 92) -0.1381 ( 93)  0.1382 (103)
          -0.1143 (106)
 CRD  9=   0.3751 (  6) -0.3794 (  7) -0.1162 ( 23)  0.1155 ( 26) -0.1080 ( 30)
          -0.1794 ( 31)  0.1770 ( 32)  0.1059 ( 40)  0.2815 ( 42) -0.2807 ( 43)
          -0.1026 ( 56) -0.1187 ( 58)  0.1205 ( 60)  0.1035 ( 61) -0.1038 ( 65)
          -0.1931 ( 66) -0.1040 ( 68)  0.2432 ( 78) -0.1229 ( 81) -0.1229 ( 82)
           0.1518 (107)  0.1526 (108)
 CRD 10=  -0.2081 (  2)  0.3735 (  4)  0.1112 (  5)  0.3075 (  6)  0.3029 (  7)
          -0.1042 (  8) -0.1693 ( 25)  0.1273 ( 29)  0.1988 ( 30)  0.1725 ( 31)
           0.1736 ( 32) -0.1857 ( 33) -0.1283 ( 34)  0.1267 ( 35)  0.1710 ( 36)
          -0.1668 ( 37)  0.1707 ( 38) -0.1285 ( 39)  0.2011 ( 40) -0.1441 ( 58)
          -0.1426 ( 60)
 CRD 11=   0.1748 (  4) -0.2175 (  5)  0.5047 (  8) -0.1240 ( 25) -0.2166 ( 30)
          -0.1237 ( 33)  0.1545 ( 34)  0.1556 ( 39) -0.2173 ( 40)  0.3920 ( 41)
           0.1626 ( 49)  0.1628 ( 50) -0.1010 ( 56) -0.1008 ( 61) -0.1960 ( 62)
          -0.1964 ( 64)
 CRD 12=  -0.2520 (  6)  0.2521 (  7)  0.3430 ( 29) -0.1974 ( 31)  0.1966 ( 32)
          -0.3189 ( 34) -0.3439 ( 35)  0.3172 ( 39)  0.2095 ( 42) -0.2093 ( 43)
           0.1404 ( 53) -0.1410 ( 55)  0.1848 ( 57) -0.1851 ( 59)
 CRD 13=   0.2959 (  4) -0.2151 (  5) -0.3519 (  8) -0.3335 ( 30)  0.1132 ( 31)
           0.1156 ( 32)  0.2361 ( 34)  0.2382 ( 39) -0.3343 ( 40) -0.2986 ( 41)
          -0.1470 ( 56) -0.1469 ( 61)  0.1465 ( 62)  0.1465 ( 64) -0.1048 (109)
           0.1049 (112)
 CRD 14=   0.2886 (  2) -0.3464 (  4) -0.1545 (  5)  0.1555 (  6)  0.1555 (  7)
          -0.1113 ( 12)  0.1016 ( 16)  0.1017 ( 17)  0.1248 ( 29)  0.3284 ( 31)
           0.3278 ( 32)  0.1228 ( 35) -0.1320 ( 36) -0.3836 ( 37) -0.1323 ( 38)
           0.1052 ( 41)  0.1209 ( 53)  0.1202 ( 55) -0.1090 ( 56) -0.1101 ( 58)
          -0.1097 ( 60) -0.1097 ( 61)
 CRD 15=   0.1142 (  1)  0.4194 (  2)  0.1140 (  3)  0.1840 (  4) -0.1196 (  5)
          -0.2190 (  8)  0.1040 ( 21) -0.2311 ( 29) -0.1294 ( 33) -0.2284 ( 35)
           0.3540 ( 37)  0.2718 ( 41) -0.2322 ( 42) -0.2328 ( 43)  0.1945 ( 54)
           0.2200 ( 63)
 CRD 16=  -0.1315 ( 24)  0.1315 ( 28) -0.3416 ( 29)  0.2505 ( 30) -0.3765 ( 31)
           0.3769 ( 32) -0.1121 ( 34)  0.3435 ( 35)  0.1101 ( 39) -0.2489 ( 40)
          -0.1020 ( 42)  0.1021 ( 43) -0.1440 ( 53)  0.1448 ( 55) -0.1134 ( 56)
           0.1502 ( 57) -0.1501 ( 59)  0.1141 ( 61)  0.1097 ( 65)  0.1187 ( 66)
           0.1097 ( 68)
 CRD 17=  -0.1110 ( 14)  0.1111 ( 15) -0.1114 ( 18)  0.1108 ( 19)  0.3625 ( 30)
           0.3709 ( 34) -0.1066 ( 36)  0.1065 ( 38) -0.3722 ( 39) -0.3636 ( 40)
           0.2464 ( 42) -0.2460 ( 43) -0.1383 ( 56)  0.1787 ( 58) -0.1792 ( 60)
           0.1378 ( 61)  0.1027 ( 62) -0.1024 ( 64) -0.1137 ( 77) -0.1136 ( 79)
 CRD 18=  -0.1167 (  2)  0.1161 (  8)  0.1308 ( 12)  0.1106 ( 16)  0.1106 ( 17)
           0.1282 ( 27) -0.1867 ( 29)  0.2863 ( 31)  0.2864 ( 32) -0.2464 ( 34)
          -0.1849 ( 35)  0.3607 ( 37) -0.2454 ( 39) -0.2575 ( 41)  0.1822 ( 42)
           0.1832 ( 43)  0.1151 ( 48)  0.1740 ( 54)  0.1313 ( 57) -0.1193 ( 58)
           0.1312 ( 59) -0.1188 ( 60) -0.1720 ( 63)
 CRD 19=  -0.2671 ( 24)  0.2672 ( 28) -0.1676 ( 29) -0.2066 ( 30)  0.1258 ( 31)
          -0.1258 ( 32)  0.1679 ( 35) -0.2396 ( 36)  0.2392 ( 38)  0.2062 ( 40)
           0.1525 ( 42) -0.1513 ( 43)  0.1534 ( 44) -0.1535 ( 45) -0.2457 ( 49)
           0.2458 ( 50)  0.1786 ( 65)  0.1434 ( 66)  0.1784 ( 68) -0.2083 ( 77)
          -0.2084 ( 79)  0.1129 (107)  0.1131 (108)
 CRD 20=   0.1724 (  1) -0.1728 (  3) -0.1677 ( 20)  0.1674 ( 22) -0.1950 ( 24)
           0.1947 ( 28)  0.2113 ( 29)  0.1116 ( 34) -0.2121 ( 35) -0.1121 ( 39)
          -0.3391 ( 42)  0.3384 ( 43) -0.2096 ( 49)  0.2098 ( 50)  0.1074 ( 53)
          -0.1079 ( 55) -0.1798 ( 62)  0.1794 ( 64)  0.1087 ( 65)  0.1100 ( 66)
           0.1087 ( 68)  0.1778 ( 78) -0.1514 ( 80) -0.1119 ( 81) -0.1119 ( 82)
           0.1449 (107)  0.1451 (108)
 CRD 21=  -0.1442 (  1) -0.3972 (  2) -0.1438 (  3) -0.1442 (  8) -0.2045 (  9)
          -0.2044 ( 10)  0.1293 ( 21) -0.1772 ( 24)  0.2761 ( 25) -0.1773 ( 28)
           0.1896 ( 33)  0.3331 ( 41) -0.2423 ( 42) -0.2436 ( 43) -0.1155 ( 44)
          -0.1154 ( 45)  0.1130 ( 51)  0.1583 ( 52)  0.2412 ( 63)
 CRD 22=  -0.2814 (  9)  0.2813 ( 10)  0.1085 ( 20) -0.1084 ( 22) -0.1015 ( 24)
           0.1015 ( 28)  0.2267 ( 36) -0.2269 ( 38)  0.1199 ( 42) -0.1197 ( 43)
          -0.2273 ( 44)  0.2274 ( 45)  0.1342 ( 65)  0.1640 ( 66)  0.1342 ( 68)
          -0.2196 ( 84) -0.2196 ( 85) -0.2011 ( 94) -0.2011 ( 97) -0.2011 (100)
          -0.2011 (104) -0.1971 (107) -0.1971 (108)
 CRD 23=   0.1113 ( 16) -0.1112 ( 17) -0.2002 ( 67) -0.2253 ( 69) -0.2001 ( 70)
          -0.1627 ( 71) -0.1681 ( 72) -0.1859 ( 73) -0.1862 ( 74) -0.1629 ( 75)
          -0.1677 ( 76) -0.1882 ( 83) -0.1701 ( 86) -0.1697 ( 87) -0.1647 ( 88)
          -0.1650 ( 89) -0.1879 ( 90) -0.2235 ( 91) -0.1984 ( 92) -0.1675 ( 93)
          -0.1625 ( 95) -0.1857 ( 96) -0.1983 ( 98) -0.2235 ( 99) -0.1984 (101)
          -0.1859 (102) -0.1679 (103) -0.1627 (105) -0.1983 (106)
 CRD 24=  -0.1106 (  9)  0.1113 ( 10) -0.1160 ( 14)  0.1414 ( 15) -0.1436 ( 18)
           0.1173 ( 19)  0.2296 ( 67)  0.2096 ( 69)  0.2290 ( 70) -0.1503 ( 71)
          -0.1115 ( 72) -0.1338 ( 73) -0.1386 ( 74) -0.1550 ( 75) -0.1064 ( 76)
          -0.1363 ( 83) -0.1092 ( 86) -0.1040 ( 87) -0.1479 ( 88) -0.1527 ( 89)
          -0.1315 ( 90)  0.2076 ( 91)  0.2277 ( 92) -0.1068 ( 93) -0.1507 ( 95)
          -0.1343 ( 96)  0.2271 ( 98)  0.2075 ( 99)  0.2276 (101) -0.1388 (102)
          -0.1117 (103) -0.1552 (105)  0.2270 (106)
 CRD 25=  -0.1858 (  1) -0.1838 (  3)  0.1176 ( 11) -0.1685 ( 12)  0.1185 ( 13)
          -0.2135 ( 71)  0.2253 ( 72) -0.2037 ( 73)  0.2001 ( 74)  0.2098 ( 75)
          -0.2281 ( 76)  0.1989 ( 83)  0.2241 ( 86) -0.2268 ( 87) -0.2122 ( 88)
           0.2086 ( 89) -0.2023 ( 90) -0.2160 ( 93) -0.2014 ( 95) -0.1915 ( 96)
           0.1880 (102)  0.2131 (103)  0.1977 (105)
 CRD 26=   0.3528 ( 14)  0.3735 ( 15)  0.3034 ( 16) -0.2889 ( 17) -0.3597 ( 18)
          -0.3417 ( 19)  0.1231 ( 30)  0.1546 ( 31) -0.1585 ( 32) -0.1260 ( 34)
           0.1209 ( 39) -0.1298 ( 40)  0.1558 ( 56)  0.1270 ( 57)  0.1572 ( 58)
          -0.1203 ( 59) -0.1515 ( 60) -0.1515 ( 61)
 CRD 27=   0.1111 (  5)  0.3927 ( 11)  0.4183 ( 12)  0.3939 ( 13) -0.1533 ( 14)
          -0.1931 ( 15) -0.2109 ( 16) -0.2285 ( 17) -0.2152 ( 18) -0.1739 ( 19)
          -0.1670 ( 29)  0.1060 ( 30) -0.1654 ( 35) -0.1510 ( 37)  0.1660 ( 53)
           0.1826 ( 54)  0.1672 ( 55) -0.1047 ( 59)
 CRD 28=   0.2867 ( 11)  0.2729 ( 12)  0.2865 ( 13)  0.3002 ( 14)  0.2746 ( 15)
           0.2944 ( 16)  0.2960 ( 17)  0.2764 ( 18)  0.3019 ( 19) -0.1042 ( 31)
          -0.1035 ( 32) -0.1215 ( 34) -0.1163 ( 37) -0.1221 ( 39)  0.1160 ( 53)
           0.1047 ( 54)  0.1159 ( 55)  0.1238 ( 56)  0.1174 ( 57)  0.1021 ( 58)
           0.1180 ( 59)  0.1028 ( 60)  0.1246 ( 61)
 CRD 29=  -0.1736 (  8) -0.5028 ( 20) -0.4799 ( 21) -0.5029 ( 22)  0.1943 ( 41)
           0.1766 ( 42)  0.1765 ( 43) -0.1998 ( 62) -0.1872 ( 63) -0.1998 ( 64)
 CRD 30=  -0.3637 (  1)  0.3637 (  3)  0.3421 (  9) -0.3423 ( 10) -0.1509 ( 16)
           0.1511 ( 17) -0.1695 ( 44)  0.1694 ( 45) -0.1453 ( 49)  0.1452 ( 50)
          -0.1078 ( 65) -0.1227 ( 66) -0.1078 ( 68) -0.1392 ( 77) -0.1392 ( 79)
          -0.1173 ( 84) -0.1174 ( 85) -0.1330 ( 94) -0.1331 ( 97) -0.1330 (100)
          -0.1331 (104) -0.1188 (109) -0.1188 (110) -0.1188 (111) -0.1188 (112)
 CRD 31=   0.1673 (  9)  0.1672 ( 10)  0.2991 ( 20) -0.6346 ( 21)  0.2919 ( 22)
          -0.1609 ( 62)  0.3281 ( 63) -0.1572 ( 64)  0.1722 ( 65) -0.1713 ( 68)
           0.1867 (113) -0.1568 (114)  0.1577 (116) -0.1858 (117)
 CRD 32=   0.1177 ( 11) -0.1179 ( 12)  0.2570 ( 14)  0.2657 ( 15) -0.5183 ( 16)
          -0.3090 ( 17)  0.1867 ( 18)  0.1257 ( 19)  0.1039 ( 22) -0.1347 ( 56)
           0.2790 ( 57) -0.1465 ( 58)  0.1664 ( 59) -0.1022 ( 60) -0.1600 ( 74)
           0.1416 ( 75) -0.1571 ( 83)  0.1446 ( 89) -0.1545 (102)  0.1472 (105)
 CRD 33=   0.1630 ( 11) -0.2049 ( 13)  0.1195 ( 14) -0.1513 ( 16)  0.4311 ( 17)
          -0.1840 ( 18) -0.2503 ( 19) -0.3154 ( 20)  0.3155 ( 22)  0.1090 ( 55)
          -0.2317 ( 59)  0.1021 ( 60)  0.1310 ( 61)  0.1660 ( 62) -0.1663 ( 64)
           0.1488 ( 66)  0.1047 ( 71) -0.1455 ( 73)  0.1069 ( 88) -0.1432 ( 90)
           0.1073 ( 95) -0.1429 ( 96)  0.1521 (115)  0.1523 (118)
 CRD 34=   0.1307 ( 11) -0.1357 ( 13)  0.1349 ( 14)  0.1023 ( 15) -0.2336 ( 16)
           0.2472 ( 17) -0.1087 ( 18) -0.1424 ( 19)  0.4369 ( 20) -0.4393 ( 22)
           0.1293 ( 57) -0.1366 ( 59) -0.2350 ( 62)  0.2364 ( 64) -0.1745 ( 66)
          -0.1627 (115) -0.1625 (118)
 CRD 35=  -0.4231 ( 11)  0.4266 ( 13)  0.2851 ( 14) -0.1496 ( 15) -0.1361 ( 16)
           0.1423 ( 17)  0.1426 ( 18) -0.2846 ( 19)  0.2279 ( 53) -0.2297 ( 55)
          -0.1519 ( 56)  0.1516 ( 61)  0.1717 ( 69)  0.1666 ( 91)  0.1662 ( 99)
 CRD 36=  -0.2896 ( 11)  0.5671 ( 12) -0.2713 ( 13) -0.1219 ( 14)  0.1967 ( 15)
           0.1887 ( 18) -0.1148 ( 19)  0.1593 ( 53) -0.3089 ( 54)  0.1493 ( 55)
          -0.1071 ( 58) -0.1024 ( 60) -0.1693 ( 67)  0.1656 ( 70) -0.1807 ( 92)
           0.1542 ( 98) -0.1586 (101)  0.1764 (106)
 CRD 37=  -0.2409 ( 11)  0.2529 ( 13) -0.2492 ( 14)  0.3751 ( 15) -0.1389 ( 16)
           0.1471 ( 17) -0.3752 ( 18)  0.2408 ( 19)  0.1330 ( 53) -0.1396 ( 55)
           0.1365 ( 56) -0.2173 ( 58)  0.2172 ( 60) -0.1318 ( 61)  0.1249 ( 71)
          -0.1126 ( 72)  0.1227 ( 75) -0.1102 ( 76) -0.1035 ( 86) -0.1002 ( 87)
           0.1349 ( 88)  0.1318 ( 89) -0.1006 ( 93)  0.1345 ( 95) -0.1034 (103)
           0.1319 (105)
 CRD 38=  -0.1215 ( 11)  0.2237 ( 12) -0.1157 ( 13)  0.3771 ( 14) -0.3089 ( 15)
          -0.3194 ( 18)  0.3852 ( 19) -0.1303 ( 54) -0.2074 ( 56)  0.1756 ( 58)
           0.1816 ( 60) -0.2117 ( 61)  0.1556 ( 72) -0.1588 ( 76)  0.1648 ( 86)
          -0.1679 ( 87) -0.1826 ( 93)  0.1796 (103)
 CRD 39=  -0.3231 (  1) -0.3230 (  3)  0.5079 (  9)  0.5077 ( 10) -0.1186 ( 20)
           0.1314 ( 21) -0.1192 ( 22) -0.1144 ( 51)  0.1949 ( 52) -0.1463 (109)
           0.1462 (112)  0.1266 (114) -0.1266 (116)
 CRD 40=  -0.4934 (  1)  0.1138 (  2) -0.4935 (  3) -0.2945 (  9) -0.2947 ( 10)
          -0.2263 ( 51) -0.1466 ( 52) -0.1075 ( 84)  0.1075 ( 85) -0.1092 ( 94)
           0.1057 ( 97) -0.1057 (100)  0.1093 (104) -0.1310 (110)  0.1309 (111)
 CRD 41=  -0.3236 (  1)  0.3234 (  3)  0.1062 ( 24) -0.1062 ( 28)  0.1161 ( 49)
          -0.1161 ( 50)  0.1555 ( 65)  0.1213 ( 66)  0.1554 ( 68) -0.1381 ( 84)
          -0.1381 ( 85) -0.1330 ( 94) -0.1330 ( 97) -0.1330 (100) -0.1330 (104)
           0.1506 (107)  0.1506 (108)  0.2234 (109)  0.2234 (110)  0.2233 (111)
           0.2234 (112)  0.2094 (113)  0.2094 (114)  0.1752 (115)  0.2094 (116)
           0.2094 (117)  0.1752 (118)
 CRD 42=  -0.2649 (  1)  0.2649 (  3) -0.3691 (  9)  0.3689 ( 10) -0.1469 ( 65)
          -0.1570 ( 66) -0.1469 ( 68)  0.1294 (109)  0.1294 (110)  0.1294 (111)
           0.1294 (112) -0.2394 (113) -0.2394 (114) -0.2495 (115) -0.2394 (116)
          -0.2394 (117) -0.2495 (118)
 CRD 43=   0.1648 ( 11)  0.1938 ( 12)  0.1647 ( 13) -0.2141 ( 14) -0.2142 ( 19)
          -0.1382 ( 21) -0.1084 ( 24) -0.1085 ( 28)  0.1446 ( 29) -0.1181 ( 30)
           0.1445 ( 35) -0.1186 ( 36)  0.1593 ( 37) -0.1186 ( 38) -0.1180 ( 40)
           0.1710 ( 44)  0.1710 ( 45)  0.1341 ( 49)  0.1340 ( 50) -0.1676 ( 53)
          -0.1433 ( 54) -0.1676 ( 55)  0.1149 ( 57)  0.1060 ( 58)  0.1143 ( 59)
           0.1068 ( 60)  0.1180 ( 73) -0.1183 ( 74) -0.1623 ( 93) -0.1064 ( 95)
           0.1804 ( 97) -0.1802 (100)  0.1621 (103)  0.1068 (105)  0.1408 (109)
          -0.1408 (112)
 CRD 44=   0.1363 (  1) -0.1361 (  3) -0.1414 ( 11)  0.1422 ( 13) -0.1319 ( 14)
          -0.1145 ( 15) -0.2829 ( 16)  0.2830 ( 17)  0.1148 ( 18)  0.1309 ( 19)
           0.1477 ( 30)  0.1945 ( 31) -0.1945 ( 32) -0.1375 ( 34)  0.1375 ( 39)
          -0.1481 ( 40) -0.1092 ( 53)  0.1093 ( 55)  0.2059 ( 56)  0.2171 ( 58)
          -0.2166 ( 60) -0.2063 ( 61) -0.1701 ( 69)  0.1164 ( 80)
 CRD 45=   0.1201 (  4)  0.1483 ( 11)  0.1473 ( 13) -0.1269 ( 14) -0.2483 ( 15)
          -0.2480 ( 18) -0.1277 ( 19)  0.1502 ( 21) -0.1216 ( 27) -0.1179 ( 30)
          -0.1597 ( 34)  0.1231 ( 36)  0.1232 ( 38) -0.1598 ( 39) -0.1174 ( 40)
           0.1123 ( 41) -0.1081 ( 49) -0.1080 ( 50) -0.1259 ( 51) -0.1892 ( 54)
           0.1248 ( 56)  0.2212 ( 57)  0.2217 ( 59)  0.1245 ( 61) -0.1236 ( 62)
          -0.1236 ( 64)  0.1042 ( 73) -0.1040 ( 74) -0.1309 ( 88)  0.1310 ( 89)
          -0.1315 ( 92)  0.1313 (106) -0.1654 (109)  0.1653 (112)
 CRD 46=  -0.1348 (  2) -0.2374 (  4) -0.1581 (  8)  0.2251 ( 12)  0.1880 ( 15)
           0.1881 ( 18)  0.1642 ( 20)  0.2462 ( 21)  0.1641 ( 22)  0.1241 ( 24)
           0.1242 ( 28)  0.1005 ( 34)  0.1415 ( 37)  0.1004 ( 39)  0.1971 ( 41)
           0.1732 ( 42)  0.1732 ( 43) -0.1346 ( 49) -0.1346 ( 50) -0.1581 ( 53)
          -0.1578 ( 55) -0.1387 ( 56) -0.1382 ( 61) -0.2158 ( 62) -0.1511 ( 63)
          -0.2159 ( 64) -0.1100 ( 93)  0.1101 (103)  0.1023 (110) -0.1023 (111)
 CRD 47=   0.3777 (  5)  0.2012 (  6)  0.2013 (  7) -0.2431 (  8) -0.2069 ( 11)
          -0.2064 ( 13) -0.1424 ( 14) -0.1127 ( 16) -0.1131 ( 17) -0.1420 ( 19)
           0.1276 ( 20)  0.1276 ( 22) -0.1748 ( 29) -0.1747 ( 35) -0.1058 ( 36)
          -0.1563 ( 37) -0.1057 ( 38)  0.1074 ( 41)  0.1110 ( 42)  0.1109 ( 43)
           0.1499 ( 53)  0.2393 ( 54)  0.1503 ( 55)  0.1540 ( 58)  0.1541 ( 60)
          -0.1039 ( 62) -0.1452 ( 63) -0.1038 ( 64)
 CRD 48=   0.2646 (  4)  0.1238 (  5) -0.2909 (  6) -0.2913 (  7) -0.2819 (  8)
          -0.1760 ( 12)  0.1116 ( 14)  0.1894 ( 16)  0.1898 ( 17)  0.1111 ( 19)
           0.1468 ( 20)  0.1470 ( 22)  0.1099 ( 31)  0.1098 ( 32)  0.1005 ( 42)
           0.1005 ( 43) -0.1862 ( 58) -0.1861 ( 60) -0.1822 ( 63)  0.1333 (114)
          -0.1333 (116)
 CRD 49=  -0.1786 (  1)  0.1785 (  3)  0.3996 (  6) -0.3993 (  7) -0.1001 (  9)
           0.1003 ( 10)  0.1255 ( 11) -0.1260 ( 13) -0.1570 ( 14) -0.1771 ( 15)
           0.1766 ( 18)  0.1574 ( 19)  0.1118 ( 30)  0.1187 ( 31) -0.1189 ( 32)
          -0.1183 ( 34)  0.1182 ( 39) -0.1118 ( 40)  0.2107 ( 57) -0.2107 ( 59)
           0.1005 ( 69) -0.1331 (109) -0.1332 (110) -0.1331 (111) -0.1332 (112)
 CRD 50=  -0.1950 (  2) -0.1028 (  4)  0.4080 (  5) -0.1645 (  6) -0.1643 (  7)
           0.2743 (  8) -0.1296 ( 12) -0.1199 ( 14)  0.1652 ( 16)  0.1645 ( 17)
          -0.1202 ( 19) -0.1413 ( 20) -0.1413 ( 22)  0.1095 ( 24)  0.1094 ( 28)
          -0.1065 ( 29) -0.1065 ( 35) -0.1053 ( 37)  0.1243 ( 53)  0.1244 ( 55)
          -0.1653 ( 56) -0.1654 ( 61)  0.1864 ( 63)  0.1502 ( 73) -0.1503 ( 74)
          -0.1585 (114)  0.1587 (116)
 CRD 51=   0.1373 (  6) -0.1375 (  7)  0.2716 (  9) -0.2715 ( 10)  0.1241 ( 11)
          -0.1245 ( 13)  0.2628 ( 20) -0.2629 ( 22) -0.1074 ( 24)  0.1078 ( 28)
           0.1979 ( 62) -0.1977 ( 64)  0.2377 ( 66)  0.1566 ( 69)  0.1619 (109)
           0.1619 (110)  0.1617 (111)  0.1617 (112) -0.2161 (113) -0.2160 (114)
          -0.2158 (116) -0.2157 (117)
 CRD 52=  -0.2608 (  2)  0.2837 (  4) -0.1200 (  8)  0.1538 (  9)  0.1541 ( 10)
          -0.1170 ( 20)  0.2980 ( 21) -0.1172 ( 22) -0.1463 ( 36) -0.1465 ( 38)
           0.1284 ( 51) -0.2363 ( 52) -0.1281 ( 62)  0.1823 ( 63) -0.1283 ( 64)
           0.1501 ( 65) -0.1504 ( 68) -0.1269 (107)  0.1269 (108)  0.2186 (109)
          -0.2187 (112) -0.2706 (114) -0.1202 (115)  0.2706 (116)  0.1204 (118)
 CRD 53=   0.1020 (  1) -0.3293 (  2)  0.1010 (  3)  0.1030 (  4)  0.3266 (  8)
          -0.1072 (  9) -0.1072 ( 10)  0.1215 ( 14) -0.1018 ( 16) -0.1005 ( 17)
           0.1210 ( 19)  0.1008 ( 24)  0.1005 ( 28) -0.1139 ( 36) -0.1135 ( 38)
           0.1817 ( 44)  0.1820 ( 45) -0.1345 ( 49) -0.1350 ( 50) -0.1534 ( 51)
           0.1616 ( 52) -0.1637 ( 73)  0.1641 ( 74) -0.1490 ( 77)  0.1484 ( 79)
           0.1102 ( 83) -0.1552 ( 84)  0.1554 ( 85) -0.1098 ( 90) -0.1461 ( 94)
          -0.1328 ( 96)  0.1646 ( 97) -0.1645 (100)  0.1334 (102)  0.1461 (104)
          -0.1363 (109)  0.1610 (110) -0.1608 (111)  0.1366 (112)
 CRD 54=   0.2731 ( 11) -0.2722 ( 13) -0.1497 ( 16)  0.1490 ( 17) -0.1442 ( 20)
           0.1442 ( 22) -0.1252 ( 29)  0.1247 ( 35)  0.2036 ( 53) -0.2028 ( 55)
          -0.1100 ( 57)  0.1095 ( 59) -0.1078 ( 62)  0.1074 ( 64) -0.1392 ( 66)
          -0.1101 ( 67)  0.2320 ( 69) -0.1088 ( 70) -0.1277 ( 71) -0.1299 ( 75)
           0.1381 ( 80)  0.1055 ( 81)  0.1057 ( 82) -0.1296 ( 88) -0.1321 ( 89)
           0.2050 ( 91) -0.1370 ( 92) -0.1358 ( 98)  0.2052 ( 99) -0.1369 (101)
          -0.1019 (105) -0.1356 (106) -0.1380 (115) -0.1378 (118)
 CRD 55=  -0.1626 ( 11)  0.3273 ( 12) -0.1635 ( 13) -0.1796 ( 15)  0.1491 ( 16)
           0.1510 ( 17) -0.1777 ( 18) -0.1504 ( 37) -0.1046 ( 48) -0.1219 ( 53)
           0.2427 ( 54) -0.1226 ( 55)  0.1100 ( 57) -0.1334 ( 58)  0.1114 ( 59)
          -0.1320 ( 60)  0.2061 ( 67) -0.2062 ( 70) -0.1532 ( 71)  0.1525 ( 75)
          -0.2127 ( 88)  0.2121 ( 89)  0.2398 ( 92) -0.1848 ( 95) -0.1725 ( 98)
           0.1724 (101)  0.1842 (105) -0.2399 (106)
 CRD 56=   0.2319 ( 14) -0.2713 ( 15)  0.2733 ( 18) -0.2314 ( 19)  0.1060 ( 30)
           0.1277 ( 34) -0.1286 ( 39) -0.1063 ( 40)  0.1698 ( 56) -0.2037 ( 58)
           0.2053 ( 60) -0.1693 ( 61)  0.1103 ( 71) -0.2309 ( 72)  0.1081 ( 75)
          -0.2313 ( 76) -0.2343 ( 86) -0.2343 ( 87)  0.1073 ( 88)  0.1047 ( 89)
          -0.2760 ( 93) -0.2758 (103)
 CRD 57=   0.1760 (  1) -0.1776 (  3) -0.1589 ( 14)  0.2031 ( 16) -0.2019 ( 17)
           0.1592 ( 19) -0.1596 ( 20)  0.1601 ( 22) -0.1212 ( 56)  0.1490 ( 57)
          -0.1481 ( 59)  0.1214 ( 61) -0.1191 ( 62)  0.1198 ( 64) -0.1661 ( 66)
          -0.1608 ( 73) -0.1616 ( 74) -0.1473 ( 78) -0.1746 ( 83) -0.1739 ( 90)
          -0.1463 ( 94)  0.1228 ( 95) -0.1322 ( 96) -0.1474 ( 97) -0.1462 (100)
          -0.1328 (102) -0.1472 (104)  0.1237 (105) -0.1855 (115) -0.1847 (118)
 CRD 58=  -0.1483 (  1) -0.1017 (  2) -0.1466 (  3)  0.1797 (  4)  0.1486 (  8)
           0.1045 ( 20) -0.2542 ( 21)  0.1036 ( 22)  0.1449 ( 24)  0.1451 ( 28)
          -0.1340 ( 33)  0.1403 ( 41) -0.1365 ( 49) -0.1357 ( 50)  0.2265 ( 51)
           0.1082 ( 62) -0.1601 ( 63)  0.1075 ( 64) -0.1681 ( 65)  0.1678 ( 68)
          -0.1115 ( 97)  0.1128 (100) -0.1573 (107)  0.1571 (108)  0.1006 (109)
           0.2127 (110) -0.2137 (111) -0.1016 (112) -0.2730 (113) -0.1044 (115)
           0.2729 (117)  0.1056 (118)
 CRD 59=   0.2007 (  2)  0.1415 (  8) -0.1670 (  9) -0.1670 ( 10)  0.1474 ( 21)
          -0.2306 ( 25) -0.1134 ( 33) -0.1654 ( 41)  0.1328 ( 51)  0.2449 ( 52)
           0.1307 ( 63)  0.1275 ( 65) -0.1277 ( 68) -0.1387 ( 77)  0.1388 ( 79)
          -0.1061 ( 83)  0.1066 ( 90)  0.1015 ( 96) -0.1043 ( 97)  0.1046 (100)
          -0.1012 (102) -0.1031 (107)  0.1030 (108)  0.2416 (110) -0.2419 (111)
           0.2904 (113)  0.1630 (115) -0.2905 (117) -0.1627 (118)
 CRD 60=   0.1541 (  6) -0.1543 (  7)  0.1641 (  9) -0.1639 ( 10) -0.1304 ( 11)
           0.1307 ( 13) -0.1377 ( 20)  0.1376 ( 22)  0.1138 ( 29) -0.1141 ( 35)
           0.1259 ( 42) -0.1258 ( 43)  0.1178 ( 46) -0.1179 ( 47)  0.1311 ( 49)
          -0.1310 ( 50) -0.1009 ( 62)  0.1008 ( 64)  0.1963 ( 65)  0.1468 ( 67)
           0.1960 ( 68)  0.1474 ( 70) -0.1012 ( 71) -0.1017 ( 75) -0.1724 ( 78)
          -0.1873 ( 80)  0.1254 ( 83) -0.1228 ( 84) -0.1227 ( 85)  0.1253 ( 90)
          -0.2033 ( 91) -0.2031 ( 99) -0.1787 (107) -0.1789 (108) -0.2295 (115)
          -0.2293 (118)
 CRD 61=  -0.2590 (  4)  0.1351 (  5) -0.1317 ( 12)  0.1091 ( 14) -0.1350 ( 15)
          -0.1353 ( 18)  0.1086 ( 19)  0.1310 ( 23)  0.1310 ( 26) -0.1178 ( 30)
           0.1348 ( 34)  0.1201 ( 37)  0.1351 ( 39) -0.1184 ( 40) -0.1333 ( 46)
          -0.1334 ( 47) -0.1016 ( 67)  0.1014 ( 70) -0.1631 ( 72)  0.1630 ( 76)
          -0.2606 ( 86)  0.2606 ( 87)  0.1287 ( 91) -0.2461 ( 95) -0.2125 ( 96)
           0.2298 ( 98) -0.1282 ( 99) -0.2301 (101)  0.2132 (102)  0.2455 (105)
 CRD 62=  -0.1579 (  2) -0.2049 (  5)  0.1262 (  6)  0.1261 (  7)  0.1018 ( 16)
           0.1016 ( 17)  0.1819 ( 27) -0.1218 ( 31) -0.1220 ( 32)  0.1679 ( 33)
          -0.1754 ( 48) -0.1422 ( 51) -0.2165 ( 71)  0.1851 ( 72)  0.2170 ( 75)
          -0.1857 ( 76)  0.1436 ( 81) -0.1436 ( 82) -0.1827 ( 83) -0.1159 ( 84)
           0.1157 ( 85)  0.1829 ( 90) -0.2594 ( 94)  0.1771 ( 96)  0.1314 ( 98)
          -0.1316 (101) -0.1769 (102)  0.2593 (104) -0.1043 (110)  0.1045 (111)
 CRD 63=   0.1634 (  1) -0.1634 (  3)  0.1409 (  6) -0.1409 (  7) -0.1178 (  9)
           0.1178 ( 10)  0.1238 ( 23)  0.1157 ( 24) -0.1238 ( 26) -0.1158 ( 28)
          -0.1292 ( 36)  0.1291 ( 38) -0.1260 ( 44)  0.1260 ( 45) -0.1801 ( 65)
           0.1872 ( 67) -0.1799 ( 68)  0.1876 ( 70) -0.1132 ( 71) -0.1134 ( 75)
          -0.2384 ( 77) -0.2385 ( 79)  0.2295 ( 81)  0.2296 ( 82) -0.2051 ( 84)
          -0.2050 ( 85) -0.1242 ( 91) -0.1241 ( 99)  0.2005 (107)  0.2004 (108)
           0.1208 (115)  0.1208 (118)

 THE DETERMINANT OF THE G MATRIX IS 10**(   -20)


                     --------------------
                     INTERNAL COORDINATES
                     --------------------

                 - - ATOMS - -         COORDINATE      COORDINATE
 NO.   TYPE    I  J  K  L  M  N        (BOHR,RAD)       (ANG,DEG)
 ----------------------------------------------------------------
   1 STRETCH   1  8                     2.0947783       1.1085090
   2 STRETCH   1  3                     2.8754366       1.5216156
   3 STRETCH   1  9                     2.0948620       1.1085533
   4 STRETCH   1  2                     2.9085666       1.5391473
   5 STRETCH   2  4                     2.8865050       1.5274728
   6 STRETCH   2  5                     2.8869082       1.5276862
   7 STRETCH   2  6                     2.8869544       1.5277106
   8 STRETCH   3  7                     2.8524122       1.5094316
   9 STRETCH   3 11                     2.1045878       1.1137000
  10 STRETCH   3 10                     2.1043703       1.1135849
  11 STRETCH   4 14                     2.0752035       1.0981505
  12 STRETCH   4 13                     2.0746011       1.0978317
  13 STRETCH   4 12                     2.0753868       1.0982475
  14 STRETCH   5 16                     2.0841135       1.1028655
  15 STRETCH   5 15                     2.0734674       1.0972318
  16 STRETCH   5 17                     2.0748687       1.0979733
  17 STRETCH   6 20                     2.0748914       1.0979853
  18 STRETCH   6 19                     2.0732785       1.0971318
  19 STRETCH   6 18                     2.0837004       1.1026468
  20 STRETCH   7 23                     2.0750282       1.0980577
  21 STRETCH   7 22                     2.0737547       1.0973838
  22 STRETCH   7 21                     2.0751452       1.0981196
  23 BEND      1  2  6                  1.9137797     109.6515024
  24 BEND      1  3 11                  1.9018819     108.9698054
  25 BEND      1  3  7                  1.9528456     111.8898093
  26 BEND      1  2  5                  1.9140376     109.6662769
  27 BEND      1  2  4                  1.9047596     109.1346865
  28 BEND      1  3 10                  1.9020893     108.9816918
  29 BEND      2  4 14                  1.9464061     111.5208522
  30 BEND      2  6 18                  1.9299654     110.5788699
  31 BEND      2  6 20                  1.9430458     111.3283242
  32 BEND      2  5 17                  1.9428724     111.3183877
  33 BEND      2  1  3                  1.9604451     112.3252280
  34 BEND      2  5 15                  1.9504416     111.7520693
  35 BEND      2  4 12                  1.9461385     111.5055241
  36 BEND      2  1  8                  1.9090823     109.3823580
  37 BEND      2  4 13                  1.9383581     111.0597390
  38 BEND      2  1  9                  1.9095027     109.4064444
  39 BEND      2  6 19                  1.9504126     111.7504114
  40 BEND      2  5 16                  1.9302898     110.5974560
  41 BEND      3  7 22                  1.9417493     111.2540388
  42 BEND      3  7 23                  1.9481153     111.6187861
  43 BEND      3  7 21                  1.9483321     111.6312085
  44 BEND      3  1  8                  1.9170672     109.8398599
  45 BEND      3  1  9                  1.9173585     109.8565520
  46 BEND      4  2  6                  1.9058213     109.1955154
  47 BEND      4  2  5                  1.9057891     109.1936709
  48 BEND      5  2  6                  1.9195200     109.9803945
  49 BEND      7  3 10                  1.9362720     110.9402136
  50 BEND      7  3 11                  1.9360870     110.9296152
  51 BEND      8  1  9                  1.8469206     105.8207548
  52 BEND     10  3 11                  1.8302980     104.8683520
  53 BEND     12  4 13                  1.8769104     107.5390446
  54 BEND     12  4 14                  1.8753263     107.4482821
  55 BEND     13  4 14                  1.8772861     107.5605720
  56 BEND     15  5 17                  1.8785142     107.6309347
  57 BEND     15  5 16                  1.8869795     108.1159595
  58 BEND     16  5 17                  1.8716992     107.2404632
  59 BEND     18  6 19                  1.8871607     108.1263427
  60 BEND     18  6 20                  1.8717546     107.2436394
  61 BEND     19  6 20                  1.8784692     107.6283553
  62 BEND     21  7 22                  1.8749712     107.4279344
  63 BEND     21  7 23                  1.8720087     107.2581952
  64 BEND     22  7 23                  1.8747462     107.4150433
  65 TORSION   1  3  7 21               1.0463089      59.9490818
  66 TORSION   1  3  7 22               3.1406533     179.9461773
  67 TORSION   1  2  4 12               1.0511577      60.2269022
  68 TORSION   1  3  7 23              -1.0486206     -60.0815373
  69 TORSION   1  2  4 13              -3.1390050    -179.8517363
  70 TORSION   1  2  4 14              -1.0453266     -59.8928010
  71 TORSION   1  2  6 18               0.8915200      51.0803345
  72 TORSION   1  2  5 17               1.1932676      68.3691948
  73 TORSION   1  2  6 19               2.9946964     171.5834671
  74 TORSION   1  2  5 15              -2.9888484    -171.2484015
  75 TORSION   1  2  5 16              -0.8856605     -50.7446091
  76 TORSION   1  2  6 20              -1.1873770     -68.0316909
  77 TORSION   2  1  3 10              -0.9953076     -57.0269244
  78 TORSION   2  1  3  7               3.1400773     179.9131791
  79 TORSION   2  1  3 11               0.9926577      56.8750980
  80 TORSION   3  1  2  4              -3.1415594    -179.9980964
  81 TORSION   3  1  2  6              -1.0547196     -60.4309833
  82 TORSION   3  1  2  5               1.0546702      60.4281531
  83 TORSION   4  2  5 15               1.2080122      69.2139982
  84 TORSION   4  2  1  9               1.0075392      57.7277410
  85 TORSION   4  2  1  8              -1.0081416     -57.7622583
  86 TORSION   4  2  5 17              -0.8930571     -51.1684054
  87 TORSION   4  2  6 20               0.8988119      51.4981286
  88 TORSION   4  2  6 18               2.9777089     170.6101541
  89 TORSION   4  2  5 16              -2.9719852    -170.2822094
  90 TORSION   4  2  6 19              -1.2023000     -68.8867133
  91 TORSION   5  2  4 13              -1.0469523     -59.9859473
  92 TORSION   5  2  4 12              -3.1399749    -179.9073088
  93 TORSION   5  2  6 20               2.9897385     171.2993959
  94 TORSION   5  2  1  9              -1.0794165     -61.8460095
  95 TORSION   5  2  6 18              -1.2145498     -69.5885786
  96 TORSION   5  2  6 19               0.8886266      50.9145540
  97 TORSION   5  2  1  8              -3.0950972    -177.3360089
  98 TORSION   5  2  4 14               1.0467261      59.9729880
  99 TORSION   6  2  4 13               1.0524222      60.2993487
 100 TORSION   6  2  1  9               3.0943790     177.2948541
 101 TORSION   6  2  4 12              -1.0406004     -59.6220129
 102 TORSION   6  2  5 15              -0.8829340     -50.5883902
 103 TORSION   6  2  5 17              -2.9840033    -170.9707939
 104 TORSION   6  2  1  8               1.0786982      61.8048548
 105 TORSION   6  2  5 16               1.2202540      69.9154021
 106 TORSION   6  2  4 14              -3.1370847    -179.7417160
 107 TORSION   7  3  1  9              -1.0134803     -58.0681458
 108 TORSION   7  3  1  8               1.0111939      57.9371409
 109 TORSION   8  1  3 10              -3.1241911    -179.0029626
 110 TORSION   8  1  3 11              -1.1362258     -65.1009402
 111 TORSION   9  1  3 10               1.1343200      64.9917507
 112 TORSION   9  1  3 11               3.1222854     178.8937731
 113 TORSION  10  3  7 21              -1.0820036     -61.9942423
 114 TORSION  10  3  7 23               3.1062522     177.9751386
 115 TORSION  10  3  7 22               1.0123408      58.0028533
 116 TORSION  11  3  7 21              -3.1089623    -178.1304213
 117 TORSION  11  3  7 23               1.0792935      61.8389596
 118 TORSION  11  3  7 22              -1.0146179     -58.1333258

     ------------------------------------------
     THE POINT GROUP IS C1 , NAXIS= 1, ORDER= 1
     ------------------------------------------

     DIMENSIONS OF THE SYMMETRY SUBSPACES ARE
 A   =  229

 ..... DONE SETTING UP THE RUN .....
 STEP CPU TIME =     0.02 TOTAL CPU TIME =        0.0 (    0.0 MIN)
 TOTAL WALL CLOCK TIME=        0.0 SECONDS, CPU UTILIZATION IS  66.67%


          -----------------------------
          STATIONARY POINT LOCATION RUN
          -----------------------------

 OBTAINING INITIAL HESSIAN, HESS=GUESS   
 DIAGONAL GUESS HESSIAN IN INTERNAL COORDS IS
     1  0.3341     2  0.3732     3  0.3341     4  0.3607     5  0.3690
     6  0.3688     7  0.3688     8  0.3821     9  0.3308    10  0.3308
    11  0.3409    12  0.3411    13  0.3409    14  0.3378    15  0.3415
    16  0.3410    17  0.3410    18  0.3416    19  0.3380    20  0.3410
    21  0.3414    22  0.3409    23  0.2480    24  0.2232    25  0.2505
    26  0.2480    27  0.2480    28  0.2232    29  0.2237    30  0.2235
    31  0.2237    32  0.2237    33  0.2484    34  0.2238    35  0.2237
    36  0.2224    37  0.2238    38  0.2224    39  0.2238    40  0.2235
    41  0.2249    42  0.2248    43  0.2248    44  0.2235    45  0.2235
    46  0.2488    47  0.2488    48  0.2488    49  0.2239    50  0.2239
    51  0.2016    52  0.2010    53  0.2026    54  0.2026    55  0.2026
    56  0.2026    57  0.2024    58  0.2024    59  0.2024    60  0.2024
    61  0.2026    62  0.2026    63  0.2026    64  0.2026    65  0.2500
    66  0.2500    67  0.2500    68  0.2500    69  0.2500    70  0.2500
    71  0.2500    72  0.2500    73  0.2500    74  0.2500    75  0.2500
    76  0.2500    77  0.2500    78  0.2500    79  0.2500    80  0.2500
    81  0.2500    82  0.2500    83  0.2500    84  0.2500    85  0.2500
    86  0.2500    87  0.2500    88  0.2500    89  0.2500    90  0.2500
    91  0.2500    92  0.2500    93  0.2500    94  0.2500    95  0.2500
    96  0.2500    97  0.2500    98  0.2500    99  0.2500   100  0.2500
   101  0.2500   102  0.2500   103  0.2500   104  0.2500   105  0.2500
   106  0.2500   107  0.2500   108  0.2500   109  0.2500   110  0.2500
   111  0.2500   112  0.2500   113  0.2500   114  0.2500   115  0.2500
   116  0.2500   117  0.2500   118  0.2500
 TRANSFORMING HESSIAN TO SYMMETRY COORDINATES

          PARAMETERS CONTROLLING GEOMETRY SEARCH ARE
          METHOD =QA                  UPHESS =BFGS    
          NNEG   =         0          NFRZ   =         3
          NSTEP  =        50          IFOLOW =         1
          HESS   =GUESS               RESTAR =         F
          IHREP  =         0          HSSEND =         F
          NPRT   =         0          NPUN   =         0
          OPTTOL = 5.000E-04          RMIN   = 1.500E-03
          RMAX   = 1.000E-01          RLIM   = 7.000E-02
          DXMAX  = 3.000E-01          PURIFY =         F
          MOVIE  =         F          TRUPD  =         T
          TRMAX  = 5.000E-01          TRMIN  = 5.000E-02
          ITBMAT =         5          STPT   =         F
          STSTEP = 1.000E-02          PROJCT=          F
          FROZEN COORD(S)=   1   2   3


      ***** EQUILIBRIUM GEOMETRY LOCATED *****
            (SUBJECT TO   3 CONSTRAINT(S))
 COORDINATES OF ALL ATOMS ARE (ANGS)
   ATOM   CHARGE       X              Y              Z
 ------------------------------------------------------------
 C           6.0   3.2746142669   2.2927198017   2.0939019290
 C           6.0   1.7508403014   2.1807382016   1.9467740521
 C           6.0   3.6984790888   3.6216729545   2.7083084679
 C           6.0   1.3878292512   0.8268923410   1.3282130693
 C           6.0   1.2589907038   3.3051591266   1.0216669439
 C           6.0   1.1094370977   2.2859834938   3.3394468450
 C           6.0   5.1978142215   3.7473769343   2.8616150104
 H           1.0   3.6436071053   1.4715591569   2.7095038432
 H           1.0   3.7455741641   2.1748111554   1.1173220895
 H           1.0   3.3335616364   4.4365858108   2.0945767856
 H           1.0   3.2303778156   3.7369279251   3.6786033624
 H           1.0   1.7322708347   0.0065718836   1.9532656372
 H           1.0   0.3102925993   0.7348204396   1.2170999640
 H           1.0   1.8378270721   0.7129551666   0.3449632965
 H           1.0   0.1832249989   3.2712808439   0.8873160471
 H           1.0   1.5032540171   4.2830018826   1.4191941198
 H           1.0   1.7321979487   3.2233723377   0.0454124026
 H           1.0   1.3447903081   3.2301861358   3.8158358596
 H           1.0   0.0285636223   2.2108586746   3.2889583693
 H           1.0   1.4813085281   1.4937676776   3.9858554658
 H           1.0   5.6827180217   3.6695006526   1.8931098329
 H           1.0   5.4519249470   4.7058260767   3.3016547183
 H           1.0   5.5775892738   2.9580751008   3.5034844082


                     --------------------
                     INTERNAL COORDINATES
                     --------------------

                 - - ATOMS - -         COORDINATE      COORDINATE
 NO.   TYPE    I  J  K  L  M  N        (BOHR,RAD)       (ANG,DEG)
 ----------------------------------------------------------------
   1 STRETCH   1  8                     2.0609506       1.0906082
   2 STRETCH   1  3                     2.8803747       1.5242287
   3 STRETCH   1  9                     2.0609399       1.0906025
   4 STRETCH   1  2                     2.9006362       1.5349507
   5 STRETCH   2  4                     2.8952263       1.5320879
   6 STRETCH   2  5                     2.9043199       1.5369000
   7 STRETCH   2  6                     2.9042895       1.5368839
   8 STRETCH   3  7                     2.8579944       1.5123856
   9 STRETCH   3 11                     2.0474330       1.0834550
  10 STRETCH   3 10                     2.0474676       1.0834733
  11 STRETCH   4 14                     2.0547326       1.0873177
  12 STRETCH   4 13                     2.0544273       1.0871562
  13 STRETCH   4 12                     2.0547296       1.0873161
  14 STRETCH   5 16                     2.0474280       1.0834523
  15 STRETCH   5 15                     2.0496949       1.0846519
  16 STRETCH   5 17                     2.0559725       1.0879739
  17 STRETCH   6 20                     2.0560170       1.0879974
  18 STRETCH   6 19                     2.0497041       1.0846568
  19 STRETCH   6 18                     2.0474170       1.0834465
  20 STRETCH   7 23                     2.0520917       1.0859203
  21 STRETCH   7 22                     2.0500104       1.0848189
  22 STRETCH   7 21                     2.0520707       1.0859092
  23 BEND      1  2  6                  1.8991103     108.8110067
  24 BEND      1  3 11                  1.9109124     109.4872136
  25 BEND      1  3  7                  1.9703570     112.8931394
  26 BEND      1  2  5                  1.8986568     108.7850239
  27 BEND      1  2  4                  1.9159906     109.7781775
  28 BEND      1  3 10                  1.9111070     109.4983639
  29 BEND      2  4 14                  1.9386700     111.0776086
  30 BEND      2  6 18                  1.9470737     111.5591056
  31 BEND      2  6 20                  1.9239629     110.2349518
  32 BEND      2  5 17                  1.9240251     110.2385208
  33 BEND      2  1  3                  1.9587610     112.2287405
  34 BEND      2  5 15                  1.9488498     111.6608694
  35 BEND      2  4 12                  1.9385542     111.0709726
  36 BEND      2  1  8                  1.9124517     109.5754084
  37 BEND      2  4 13                  1.9293755     110.5450713
  38 BEND      2  1  9                  1.9123722     109.5708543
  39 BEND      2  6 19                  1.9486875     111.6515681
  40 BEND      2  5 16                  1.9468997     111.5491365
  41 BEND      3  7 22                  1.9249253     110.2900955
  42 BEND      3  7 23                  1.9243267     110.2558007
  43 BEND      3  7 21                  1.9244417     110.2623868
  44 BEND      3  1  8                  1.9122537     109.5640669
  45 BEND      3  1  9                  1.9125350     109.5801832
  46 BEND      4  2  6                  1.9044337     109.1160112
  47 BEND      4  2  5                  1.9046135     109.1263136
  48 BEND      5  2  6                  1.9409819     111.2100696
  49 BEND      7  3 10                  1.9058312     109.1960868
  50 BEND      7  3 11                  1.9057177     109.1895838
  51 BEND      8  1  9                  1.8524402     106.1370071
  52 BEND     10  3 11                  1.8564270     106.3654341
  53 BEND     12  4 13                  1.8847670     107.9891921
  54 BEND     12  4 14                  1.8856512     108.0398525
  55 BEND     13  4 14                  1.8848335     107.9930022
  56 BEND     15  5 17                  1.8942953     108.5351271
  57 BEND     15  5 16                  1.8725959     107.2918424
  58 BEND     16  5 17                  1.8744618     107.3987527
  59 BEND     18  6 19                  1.8726554     107.2952484
  60 BEND     18  6 20                  1.8745225     107.4022301
  61 BEND     19  6 20                  1.8942315     108.5314721
  62 BEND     21  7 22                  1.8970968     108.6956410
  63 BEND     21  7 23                  1.8953482     108.5954544
  64 BEND     22  7 23                  1.8970493     108.6929163
  65 TORSION   1  3  7 21               1.0465623      59.9636025
  66 TORSION   1  3  7 22              -3.1413316    -179.9850429
  67 TORSION   1  2  4 12               1.0509459      60.2147629
  68 TORSION   1  3  7 23              -1.0461730     -59.9412960
  69 TORSION   1  2  4 13              -3.1403297    -179.9276367
  70 TORSION   1  2  4 14              -1.0482608     -60.0609180
  71 TORSION   1  2  6 18               1.0476247      60.0244742
  72 TORSION   1  2  5 17               1.0373718      59.4370258
  73 TORSION   1  2  6 19              -3.1402776    -179.9246504
  74 TORSION   1  2  5 15              -3.1386989    -179.8341997
  75 TORSION   1  2  5 16              -1.0434999     -59.7881406
  76 TORSION   1  2  6 20              -1.0333940     -59.2091126
  77 TORSION   2  1  3 10              -1.0154756     -58.1824641
  78 TORSION   2  1  3  7               3.1404910     179.9368773
  79 TORSION   2  1  3 11               1.0135571      58.0725449
  80 TORSION   3  1  2  4              -3.1397270    -179.8931046
  81 TORSION   3  1  2  6              -1.0566797     -60.5432887
  82 TORSION   3  1  2  5               1.0604662      60.7602353
  83 TORSION   4  2  5 15               1.0544064      60.4130373
  84 TORSION   4  2  1  9               1.0146290      58.1339573
  85 TORSION   4  2  1  8              -1.0111999     -57.9374843
  86 TORSION   4  2  5 17              -1.0527082     -60.3157373
  87 TORSION   4  2  6 20               1.0568493      60.5530017
  88 TORSION   4  2  6 18               3.1378679     179.7865885
  89 TORSION   4  2  5 16              -3.1335799    -179.5409037
  90 TORSION   4  2  6 19              -1.0500343     -60.1625361
  91 TORSION   5  2  4 13              -1.0609919     -60.7903575
  92 TORSION   5  2  4 12               3.1302837     179.3520421
  93 TORSION   5  2  6 20              -3.1244467    -179.0176085
  94 TORSION   5  2  1  9              -1.0683632     -61.2127028
  95 TORSION   5  2  6 18              -1.0434280     -59.7840217
  96 TORSION   5  2  6 19               1.0518550      60.2668537
  97 TORSION   5  2  1  8              -3.0941920    -177.2841444
  98 TORSION   5  2  4 14               1.0310770      59.0763612
  99 TORSION   6  2  4 13               1.0630738      60.9096410
 100 TORSION   6  2  1  9               3.0976762     177.4837732
 101 TORSION   6  2  4 12              -1.0288360     -58.9479594
 102 TORSION   6  2  5 15              -1.0473768     -60.0102709
 103 TORSION   6  2  5 17               3.1286939     179.2609546
 104 TORSION   6  2  1  8               1.0718474      61.4123317
 105 TORSION   6  2  5 16               1.0478222      60.0357882
 106 TORSION   6  2  4 14              -3.1280426    -179.2236402
 107 TORSION   7  3  1  9              -1.0139577     -58.0954996
 108 TORSION   7  3  1  8               1.0118510      57.9747945
 109 TORSION   8  1  3 10               3.1390698     179.8554531
 110 TORSION   8  1  3 11              -1.1150828     -63.8895379
 111 TORSION   9  1  3 10               1.1132610      63.7851590
 112 TORSION   9  1  3 11              -3.1408916    -179.9598320
 113 TORSION  10  3  7 21              -1.0836249     -62.0871355
 114 TORSION  10  3  7 23               3.1068251     178.0079661
 115 TORSION  10  3  7 22               1.0116665      57.9642191
 116 TORSION  11  3  7 21              -3.1067658    -178.0045684
 117 TORSION  11  3  7 23               1.0836842      62.0905331
 118 TORSION  11  3  7 22              -1.0114744     -57.9532138

          INTERNUCLEAR DISTANCES (ANGS.)


 =====================================================
   GAMESS/COSab RESULTS
 =====================================================

   Dielectric Constant                  = INFTY
   Basic Grid Size                      =                 1082
   Number of Segments                   =                   92
   Number of Segments located on spheres=                  255
   Number of Segments of the cavity     =                  678
   Solvent Radius (rsolv)               = 1.40
   Outlying Charge Error Method         = double cavity

 =====================================================

  Total solvated Energy (a.u.)          =  -274.4652120251
  Total Energy corrected (a.u.)         =  -274.4651219365

  Outlying charge effect (a.u.)         =     0.0000900885
  Outlying charge effect (kcal/mol)     =     0.0565314622

  Dielectric Energy (a.u.)              =    -0.0015546255
  Dielectric energy corr. (a.u.)        =    -0.0014645369

  Sum of polarization charges           =     0.0297137475
  Sum of polarization charges(cor.)     =    -0.0297137475

  Total surface area of cavity (A**2)   =  163.15
  Total volume of cavity (A**3)         =  164.43

 =====================================================
 NPS=                   678
NR.  ATOM  (X, Y, Z)(a.u.)                  CHARGE(e)  AREA(A**2) SIGMA(e/A**2)
   1   1   9.302350   2.444294   2.946856   0.001503   0.325193   0.004621
   2   1   9.117243   1.962884   3.658610   0.001408   0.278737   0.005053
   3   1   7.678496   1.199473   2.458045   0.000843   0.185824   0.004536
   4   1   8.462436   1.589144   2.697843   0.001958   0.325193   0.006021
   5   1   7.838168   1.024117   3.172334   0.000636   0.139368   0.004561
   6   3   5.779472  10.009844   6.790757   0.001714   0.371649   0.004611
   7   3   7.245633   4.806590   8.290909   0.000125   0.092912   0.001342
   8   3   5.353685  10.174062   5.839133   0.001086   0.232280   0.004675
   9   3   7.789118   8.134199   1.656821   0.000253   0.139368   0.001818
  10   3   4.869920   9.661027   6.480850   0.001196   0.232280   0.005151
  11   3   6.616372  10.426862   6.261708   0.001309   0.371649   0.003521
  12   3   6.789345   9.814527   7.446075   0.000916   0.278737   0.003284
  13   3   7.322039   5.147516   8.478841   0.000077   0.046456   0.001662
  14   3   7.077326  10.616329   5.331774   0.000466   0.185824   0.002508
  15   4   0.744544   0.362631  -0.542441   0.002309   0.418105   0.005522
  16   4   0.414646  -1.476248   2.927773   0.001968   0.418105   0.004707
  17   4   3.681500  -1.565976   0.672850   0.001517   0.371649   0.004082
  18   4   0.679060   2.082369  -0.689519   0.001884   0.325193   0.005794
  19   4   4.035097  -1.841630   1.673104   0.001623   0.371649   0.004366
  20   4   1.097850  -1.731972   3.561234   0.001235   0.278737   0.004431
  21   4   0.365567   1.368279  -0.515303   0.000827   0.185824   0.004450
  22   4   1.221032   1.263702  -0.987245   0.001320   0.278737   0.004734
  23   4   0.212903  -0.256339   4.783521   0.001210   0.232280   0.005211
  24   4   0.272825  -0.907074   4.141989   0.002120   0.371649   0.005705
  25   4   1.415973  -2.005035   2.193325   0.001549   0.464561   0.003335
  26   4   2.624178  -1.977881   1.187380   0.001416   0.464561   0.003048
  27   4   4.924998  -1.151866   1.239173   0.002049   0.371649   0.005514
  28   4   5.800433  -0.220905   1.507578   0.001194   0.278737   0.004283
  29   4   0.475820  -1.387546   1.523970   0.001344   0.418105   0.003215
  30   4   0.644049  -0.725537   0.244139   0.001564   0.418105   0.003741
  31   4   1.581673  -0.584162  -0.421263   0.001719   0.464561   0.003700
  32   4   2.644859  -1.344072   0.094392   0.000977   0.325193   0.003004
  33   4   2.502919  -2.196835   2.140416   0.000814   0.278737   0.002919
  34   4   0.893432  -0.788700   4.911134   0.000623   0.139368   0.004471
  35   4   5.472419  -0.896571   2.170402   0.001658   0.325193   0.005099
  36   4   1.491273  -1.590275   0.759622   0.001193   0.464561   0.002569
  37   5   3.978324   9.115894   0.062582   0.002324   0.418105   0.005559
  38   5   0.540448   9.536699   1.659021   0.001903   0.418105   0.004551
  39   5   1.117467   7.303517  -1.471352   0.001577   0.371649   0.004244
  40   5   4.793041   8.611839   0.239670   0.000323   0.092912   0.003480
  41   5   0.177178   6.909732  -1.068471   0.001703   0.371649   0.004582
  42   5  -0.311939   8.894391   1.764614   0.001238   0.278737   0.004443
  43   5  -0.497043   7.892836   3.747055   0.000545   0.139368   0.003912
  44   5   4.802358   8.329935  -0.086482   0.000386   0.092912   0.004151
  45   5   0.114937   8.573594   3.864385   0.001311   0.278737   0.004704
  46   5   0.198811   9.177486   2.898111   0.001685   0.325193   0.005180
  47   5   0.324342   9.074923   0.495956   0.001565   0.464561   0.003369
  48   5   0.728734   8.276146  -0.796655   0.001479   0.464561   0.003184
  49   5   0.749606   5.923979  -1.464214   0.002156   0.371649   0.005800
  50   5   0.547628   4.923203  -1.099243   0.001205   0.232280   0.005187
  51   5   1.488097   9.665499   0.590403   0.001207   0.371649   0.003247
  52   5   2.705307   9.550002   0.124990   0.001564   0.418105   0.003740
  53   5   3.028687   8.844877  -0.735306   0.001733   0.464561   0.003731
  54   5   1.898927   8.201461  -1.267648   0.001006   0.325193   0.003094
  55   5  -0.029687   8.265428  -0.167685   0.000837   0.278737   0.003002
  56   5  -0.364168   8.584393   3.066332   0.000942   0.185824   0.005072
  57   5   0.028424   5.228757  -0.848513   0.000869   0.185824   0.004679
  58   5   1.560964   9.098456  -0.409734   0.001096   0.418105   0.002622
  59   5   1.292869   4.800683  -1.388324   0.000640   0.139368   0.004593
  60   6  -0.169795   2.190535   8.458615   0.002135   0.371649   0.005744
  61   6  -0.578908   5.923032   8.445143   0.001889   0.418105   0.004519
  62   6   2.509418   4.203900  10.065672   0.001558   0.371649   0.004192
  63   6  -0.091871   1.296547   6.906055   0.001190   0.232280   0.005121
  64   6   2.867272   5.226310   9.897917   0.001637   0.371649   0.004406
  65   6   0.101077   6.751492   8.405783   0.001266   0.278737   0.004541
  66   6   0.350347   7.670801   6.390794   0.000518   0.139368   0.003719
  67   6  -0.327411   1.675696   7.500997   0.000932   0.185824   0.005018
  68   6   0.372329   1.466861   8.091528   0.001431   0.278737   0.005133
  69   6  -0.409162   7.149189   6.338015   0.001419   0.278737   0.005092
  70   6  -0.636617   6.707098   7.366716   0.001653   0.325193   0.005084
  71   6   0.291388   5.683266   9.338314   0.001573   0.464561   0.003387
  72   6   1.428499   4.819702   9.996842   0.001465   0.464561   0.003153
  73   6   3.720358   4.491507   9.719152   0.001429   0.278737   0.005125
  74   6   4.467266   4.220670   9.252412   0.000377   0.092912   0.004056
  75   6  -0.457081   4.642033   9.078208   0.001203   0.371649   0.003236
  76   6  -0.362708   3.339084   9.007735   0.001608   0.418105   0.003846
  77   6   0.546447   2.713946   9.360618   0.001839   0.464561   0.003958
  78   6   1.494002   3.558219   9.963173   0.001025   0.325193   0.003151
  79   6   0.774129   0.934957   7.348774   0.000879   0.185824   0.004731
  80   6   1.325897   5.759524   9.719120   0.000827   0.278737   0.002966
  81   6  -0.066444   7.291307   7.191768   0.000952   0.185824   0.005122
  82   6   0.410597   4.196154   9.690946   0.001097   0.418105   0.002624
  83   7  12.279443   7.731516   8.204971   0.002316   0.418105   0.005540
  84   7   9.490216  10.163957   3.246098   0.000657   0.232280   0.002829
  85   7  12.790662   9.308811   4.691376   0.001782   0.371649   0.004794
  86   7  13.243921   5.475965   5.411328   0.001645   0.371649   0.004426
  87   7   9.102661   6.140478   8.996625   0.000717   0.278737   0.002572
  88   7   9.043917   8.547293   8.803194   0.000599   0.185824   0.003224
  89   7   9.390112   7.560939   9.131573   0.001035   0.325193   0.003183
  90   7  10.692218   7.482555   9.063745   0.001531   0.325193   0.004709
  91   7  13.089101   5.517743   4.326981   0.001755   0.371649   0.004721
  92   7  12.672520   8.940034   3.762301   0.001280   0.278737   0.004593
  93   7  10.178485   9.580068   2.594361   0.000986   0.278737   0.003536
  94   7  11.251803   4.090531   3.592377   0.000770   0.185824   0.004143
  95   7  11.260278   8.141829   8.738223   0.001079   0.232280   0.004645
  96   7  11.549694   7.110301   8.769220   0.001383   0.278737   0.004960
  97   7   9.428435   9.070835   2.218373   0.000515   0.232280   0.002216
  98   7  10.544056  10.114312   3.270932   0.001327   0.325193   0.004081
  99   7  12.054980   9.805571   4.036707   0.001806   0.325193   0.005552
 100   7  13.382375   8.147834   4.719100   0.001694   0.464561   0.003647
 101   7  13.570574   6.654968   5.175561   0.001514   0.464561   0.003260
 102   7  12.515880   4.500244   4.802050   0.001994   0.371649   0.005365
 103   7  11.430278   3.787567   4.486197   0.001245   0.278737   0.004466
 104   7   9.690144  10.603037   4.041806   0.000912   0.278737   0.003272
 105   7  13.175629   8.767237   5.853477   0.001463   0.418105   0.003498
 106   7  13.009669   8.131137   7.146675   0.001627   0.418105   0.003891
 107   7  13.002743   7.012789   7.448562   0.001866   0.464561   0.004017
 108   7  13.358122   6.192514   6.404138   0.001271   0.371649   0.003420
 109   7   9.946826   8.289348   8.986758   0.000845   0.232280   0.003636
 110   7   9.975741   6.717890   9.166460   0.001038   0.278737   0.003726
 111   7  13.440831   7.120336   4.316770   0.000920   0.278737   0.003301
 112   7  11.372539   9.734307   3.206729   0.001185   0.232280   0.005102
 113   7  12.079689   4.443366   3.914569   0.001405   0.278737   0.005041
 114   7  11.159949  10.320344   3.991587   0.001005   0.232280   0.004327
 115   7  13.512361   7.545996   6.080751   0.001265   0.464561   0.002723
 116   8   7.958128   0.883868   6.254189  -0.001129   0.294415  -0.003836
 117   8   7.344152   2.252891   7.475208  -0.000981   0.235532  -0.004165
 118   8   8.808730   1.267573   4.905856  -0.000371   0.314043  -0.001183
 119   8   7.073485   1.159923   6.956626  -0.001189   0.274788  -0.004328
 120   8   7.992212   1.618365   6.979997  -0.001309   0.294415  -0.004447
 121   8   8.650191   1.249800   5.879544  -0.001262   0.314043  -0.004019
 122   8   7.894640   0.556077   4.861436  -0.001068   0.471065  -0.002267
 123   8   7.098359   0.549071   6.124697  -0.001608   0.314043  -0.005120
 124   9   8.400128   3.375702   0.175341  -0.001098   0.294415  -0.003731
 125   9   8.413866   2.337026   1.058771  -0.000466   0.392554  -0.001188
 126   9   7.897426   5.268639   0.106208  -0.001674   0.412182  -0.004060
 127   9   7.496292   3.944252  -0.303689  -0.001910   0.392554  -0.004866
 128   9   7.780033   2.726309   0.206614  -0.001175   0.294415  -0.003990
 129   9   9.124452   3.179831   1.120111  -0.001036   0.392554  -0.002638
 130   9   8.645501   4.276753   0.227154  -0.001681   0.372926  -0.004507
 131  10   6.046331  10.537531   2.803614  -0.001283   0.294415  -0.004357
 132  10   7.101962   9.289906   1.820316  -0.000559   0.274788  -0.002033
 133  10   6.749813  10.795334   3.825991  -0.000681   0.353299  -0.001927
 134  10   5.450179  10.612766   4.546379  -0.000242   0.274788  -0.000880
 135  10   6.451031   9.883721   2.018381  -0.001113   0.255160  -0.004363
 136  10   7.073681  10.344318   2.696160  -0.000780   0.333671  -0.002337
 137  10   5.795052  10.782334   3.790060  -0.001050   0.294415  -0.003565
 138  11   5.552807   7.846248   9.213259  -0.001490   0.314043  -0.004744
 139  11   6.759092   7.003887   9.318685  -0.000607   0.255160  -0.002381
 140  11   6.534425   5.996339   9.123000  -0.000596   0.235532  -0.002532
 141  11   6.205097   8.837037   8.646664  -0.000605   0.353299  -0.001713
 142  11   5.943875   6.778690   9.386545  -0.001174   0.255160  -0.004601
 143  11   5.211243   8.914953   8.294253  -0.000759   0.372926  -0.002035
 144  11   6.480933   8.004157   9.188812  -0.000572   0.274788  -0.002080
 145  12   3.797361  -2.163549   4.703962  -0.001979   0.412182  -0.004801
 146  12   5.261505  -1.429590   3.631415  -0.000716   0.294415  -0.002432
 147  12   3.927592  -2.318016   3.271250  -0.000789   0.372926  -0.002116
 148  12   2.348244  -2.086818   4.569862  -0.000848   0.372926  -0.002275
 149  12   2.133178  -1.366906   5.374049  -0.000628   0.294415  -0.002131
 150  12   4.851497  -1.466848   4.855961  -0.001955   0.392554  -0.004981
 151  12   4.652457  -2.020655   3.704546  -0.001021   0.333671  -0.003059
 152  12   2.930764  -2.419109   3.763640  -0.000845   0.353299  -0.002392
 153  12   3.066190  -1.668416   5.470715  -0.001572   0.353299  -0.004449
 154  12   4.056221  -1.262505   5.639733  -0.001924   0.333671  -0.005767
 155  13  -1.754237   0.780186   1.868188  -0.001876   0.392554  -0.004779
 156  13  -0.886349   1.498694   0.336801  -0.000670   0.353299  -0.001895
 157  13  -1.125554   0.033582   3.426158  -0.000895   0.412182  -0.002172
 158  13  -0.874906  -0.327095   1.322170  -0.000753   0.372926  -0.002018
 159  13  -1.526966   1.731086   1.095157  -0.001845   0.392554  -0.004700
 160  13  -1.816411   1.899898   2.316970  -0.002263   0.392554  -0.005765
 161  13  -1.693033   0.877122   3.060084  -0.001832   0.392554  -0.004667
 162  13  -1.147184  -0.351721   2.333319  -0.001080   0.412182  -0.002619
 163  13  -1.056217   0.465397   0.723695  -0.001113   0.412182  -0.002699
 164  14   4.252389   0.492183  -1.515235  -0.002140   0.451437  -0.004739
 165  14   2.639582   1.700244  -1.631955  -0.000732   0.294415  -0.002488
 166  14   2.884957   0.095876  -1.378701  -0.000789   0.372926  -0.002116
 167  14   4.718393  -0.409189  -0.530848  -0.000752   0.353299  -0.002128
 168  14   5.520951   0.199173  -0.071149  -0.000538   0.274788  -0.001957
 169  14   3.946736   1.743554  -1.725844  -0.002009   0.392554  -0.005117
 170  14   2.973101   0.920839  -1.715250  -0.001027   0.333671  -0.003077
 171  14   3.744836  -0.508732  -0.934429  -0.000752   0.333671  -0.002253
 172  14   5.263557   0.627395  -0.868213  -0.001430   0.333671  -0.004285
 173  14   4.971470   1.620964  -1.275475  -0.002012   0.353299  -0.005695
 174  15  -1.997831   6.396944   0.973823  -0.001982   0.412182  -0.004808
 175  15  -1.117577   5.146098  -0.002376  -0.000800   0.314043  -0.002548
 176  15  -1.189770   6.864493  -0.114790  -0.000746   0.372926  -0.002001
 177  15  -1.442890   7.855896   1.854631  -0.000609   0.333671  -0.001826
 178  15  -1.595352   7.185991   2.797943  -0.000982   0.353299  -0.002779
 179  15  -1.877787   5.281141   1.149950  -0.002099   0.392554  -0.005347
 180  15  -1.386798   5.945791  -0.048310  -0.000905   0.333671  -0.002711
 181  15  -1.423571   7.607722   0.744205  -0.001160   0.431809  -0.002685
 182  15  -1.988934   6.892809   1.953517  -0.001434   0.333671  -0.004298
 183  15  -2.015001   5.778963   2.222074  -0.002018   0.353299  -0.005712
 184  16   2.785881  10.468445   3.308510  -0.002307   0.392554  -0.005876
 185  16   1.512731   9.962557   3.564396  -0.000734   0.392554  -0.001869
 186  16   2.451086  10.346885   1.783873  -0.000461   0.274788  -0.001678
 187  16   2.268056   9.862210   4.287957  -0.001952   0.372926  -0.005234
 188  16   1.885916  10.355501   2.594472  -0.000837   0.353299  -0.002368
 189  16   3.386708  10.365043   1.921601  -0.001704   0.451437  -0.003775
 190  17   3.883396   6.294101  -2.285215  -0.002152   0.451437  -0.004768
 191  17   5.218948   7.164494  -0.962055  -0.000783   0.274788  -0.002849
 192  17   3.870978   7.691368  -1.679875  -0.000785   0.372926  -0.002105
 193  17   2.492686   6.077422  -2.243431  -0.000752   0.372926  -0.002017
 194  17   5.000277   6.122028  -1.661158  -0.002031   0.392554  -0.005173
 195  17   4.661426   7.292521  -1.546791  -0.001024   0.333671  -0.003070
 196  17   2.971402   7.105015  -2.131439  -0.000956   0.392554  -0.002436
 197  17   2.860720   5.148737  -2.144964  -0.001291   0.412182  -0.003133
 198  17   4.297532   5.171479  -1.948911  -0.002472   0.431809  -0.005725
 199  18   2.420347   8.119157   8.610999  -0.001961   0.353299  -0.005550
 200  18   2.779723   6.696017   9.583216  -0.000637   0.274788  -0.002319
 201  18   1.228941   7.747590   8.480546  -0.000528   0.274788  -0.001923
 202  18   1.494819   8.325901   7.148043  -0.000711   0.215905  -0.003294
 203  18   2.828810   7.423458   9.263179  -0.001045   0.235532  -0.004437
 204  18   1.762753   7.282298   9.221110  -0.000744   0.333671  -0.002229
 205  18   1.382174   8.173457   7.850912  -0.000601   0.255160  -0.002355
 206  18   2.379588   8.521495   7.617728  -0.001674   0.274788  -0.006093
 207  19  -2.379910   4.068229   6.530226  -0.002017   0.412182  -0.004892
 208  19  -1.539361   2.383059   6.739495  -0.000766   0.412182  -0.001857
 209  19  -1.771040   5.816743   6.351626  -0.000842   0.372926  -0.002258
 210  19  -1.765499   4.284653   7.862400  -0.000934   0.431809  -0.002162
 211  19  -2.073320   2.967785   6.002449  -0.001904   0.412182  -0.004619
 212  19  -2.206241   4.029405   5.264213  -0.002263   0.412182  -0.005489
 213  19  -2.161655   5.097068   5.684955  -0.001703   0.372926  -0.004567
 214  19  -1.957456   5.176798   7.210930  -0.001281   0.451437  -0.002837
 215  19  -1.818996   3.248911   7.505189  -0.001154   0.431809  -0.002672
 216  20   3.392492   1.374952   9.426087  -0.002265   0.471065  -0.004809
 217  20   1.920118   0.619637   8.171110  -0.000642   0.294415  -0.002181
 218  20   1.899776   1.618311   9.475173  -0.000731   0.372926  -0.001961
 219  20   3.778328   2.713126   9.782626  -0.000748   0.372926  -0.002005
 220  20   3.208600   0.564376   8.407968  -0.001993   0.392554  -0.005076
 221  20   2.110262   0.931608   8.940633  -0.001005   0.333671  -0.003012
 222  20   2.727454   2.299355   9.931337  -0.000916   0.392554  -0.002334
 223  20   4.545880   2.411908   9.210148  -0.001403   0.412182  -0.003405
 224  20   4.240537   1.134748   8.584916  -0.002385   0.412182  -0.005786
 225  21  12.056603   6.973176   1.504539  -0.002168   0.451437  -0.004802
 226  21  11.778820   5.099012   2.318502  -0.000873   0.353299  -0.002471
 227  21  12.960988   6.189434   2.841232  -0.000579   0.353299  -0.001638
 228  21  12.446897   8.276335   2.430038  -0.000591   0.372926  -0.001585
 229  21  10.575603   8.320348   1.555694  -0.000711   0.372926  -0.001906
 230  21  11.329579   6.123986   1.334824  -0.002157   0.412182  -0.005233
 231  21  12.389297   5.721350   2.221153  -0.001249   0.392554  -0.003182
 232  21  12.924805   7.226091   2.495175  -0.001340   0.471065  -0.002845
 233  21  11.677414   8.241696   1.721395  -0.001450   0.471065  -0.003078
 234  21  10.615146   7.295951   1.150711  -0.002088   0.471065  -0.004433
 235  22  10.891881  11.096528   7.150873  -0.003068   0.569203  -0.005390
 236  22  11.151128   9.525091   8.456269  -0.000567   0.372926  -0.001519
 237  22   9.383170  10.201052   8.104147  -0.000828   0.353299  -0.002343
 238  22   9.467394  11.190464   5.998808  -0.000982   0.353299  -0.002778
 239  22  11.410192  10.908280   5.375564  -0.000641   0.372926  -0.001720
 240  22  12.432958   9.945451   6.862600  -0.000748   0.412182  -0.001814
 241  22  10.350574  10.248623   8.287230  -0.001782   0.490692  -0.003632
 242  22   9.451659  11.002090   7.167376  -0.001753   0.490692  -0.003573
 243  22  10.448817  11.299639   5.769720  -0.001544   0.471065  -0.003278
[...]
 419  13  -0.380146   2.775835   0.351520  -0.000022   0.088402  -0.000254
 420  15  -0.384107   3.851130   0.284385   0.000239   0.088402   0.002709
 421   4  -0.441954   0.885346   4.733654   0.000191   0.088292   0.002166
 422  13  -0.652484   0.938735   4.517520  -0.000058   0.088292  -0.000652
 423  19  -0.714529   1.615348   5.352769   0.000278   0.088292   0.003148
 424  13  -0.440481   2.043314   0.166611  -0.000057   0.069280  -0.000819
 425  13  -0.341963   0.933345   0.130987  -0.000128   0.153812  -0.000834
 426  13  -0.308437  -0.245884   0.782963  -0.000210   0.153812  -0.001364
 427  13  -0.389024  -0.788649   2.014096  -0.000223   0.153812  -0.001447
 428  13  -0.550299  -0.469831   3.313758  -0.000121   0.153812  -0.000787
 429  13  -0.697668   0.311120   4.095682  -0.000063   0.069280  -0.000915
 430   4  -0.043551   1.682532  -0.099634   0.000059   0.151881   0.000391
 431   4   0.055680   0.195864   0.169942   0.000061   0.151881   0.000402
 432   4   0.027759  -0.825771   1.287164  -0.000017   0.151881  -0.000110
 433   4  -0.115734  -0.958635   2.788649   0.000038   0.151881   0.000252
 434   4  -0.315283  -0.147623   4.051638   0.000075   0.151881   0.000493
 435  14   5.658195   0.239332   0.475512  -0.000045   0.069469  -0.000650
 436  14   4.897715  -0.537736   0.217516  -0.000149   0.154302  -0.000964
 437  14   3.689031  -0.848086  -0.299694  -0.000266   0.154302  -0.001725
 438  14   2.593804  -0.295242  -0.865008  -0.000281   0.154302  -0.001822
 439  14   2.068367   0.890450  -1.242884  -0.000125   0.154302  -0.000812
 440  14   2.169637   2.000272  -1.325146  -0.000041   0.069469  -0.000587
 441   4   5.419470  -0.212004   0.789876   0.000155   0.152229   0.001021
 442   4   4.216454  -1.015857   0.332449   0.000092   0.152229   0.000602
 443   4   2.849239  -0.871953  -0.309955  -0.000027   0.152229  -0.000175
 444   4   1.887484   0.159750  -0.869675   0.000020   0.152229   0.000134
 445   4   1.731912   1.649386  -1.113499   0.000012   0.152229   0.000076
 446  19  -0.930126   1.784640   5.886914   0.000032   0.007403   0.004315
 447   4  -0.460442   0.765288   4.939422   0.000085   0.010513   0.008133
 448   5  -0.705869   7.137362   3.993042   0.000181   0.064226   0.002826
 449   6  -0.682781   6.756708   4.737577   0.000239   0.064226   0.003724
 450  15  -0.891622   7.022015   3.782545  -0.000002   0.064226  -0.000033
 451   5   1.078815   8.218955   5.178732   0.000255   0.064285   0.003972
 452   6   0.991865   7.957113   5.968451   0.000098   0.064285   0.001519
 453  18   1.199916   8.049303   6.168432  -0.000052   0.064285  -0.000808
 454   6   0.469983   7.820214   5.775764   0.000918   0.300693   0.003054
 455   6  -0.506638   7.066506   5.381327   0.000973   0.300693   0.003235
 456   5   0.074843   7.898653   4.477861   0.001699   0.602503   0.002820
 457   5   4.489405   9.408935   1.237347  -0.000013   0.068256  -0.000195
 458  10   5.199885   9.601008   1.805621  -0.000340   0.068256  -0.004978
 459  16   4.456200   9.589769   1.478757  -0.000225   0.068256  -0.003292
 460  10   6.417625   8.713360   1.429525  -0.000360   0.227488  -0.001581
 461  10   5.827776   9.518761   1.720734  -0.000751   0.227488  -0.003303
 462   5   5.135827   8.694671   0.741645   0.001696   0.631391   0.002687
 463   5   2.063263   4.099007  -1.245431   0.000148   0.087887   0.001682
 464  14   2.390241   3.168343  -1.184812   0.000219   0.087887   0.002490
 465  17   2.311468   4.209550  -1.387918   0.000026   0.087887   0.000301
 466  14   2.304014   2.588901  -1.318850   0.000026   0.017136   0.001508
 467   5   1.864312   3.979687  -1.327968   0.000137   0.024317   0.005628
 468  15  -1.083658   7.428848   3.234818  -0.000054   0.070787  -0.000764
 469  15  -0.987197   8.075949   2.299257  -0.000176   0.158152  -0.001111
 470  15  -0.818629   8.142132   0.932808  -0.000258   0.158152  -0.001633
 471  15  -0.655159   7.335118  -0.172626  -0.000286   0.158152  -0.001812
 472  15  -0.568252   6.007715  -0.533774  -0.000096   0.158152  -0.000605
 473  15  -0.573900   4.912291  -0.212317  -0.000012   0.070787  -0.000163
 474   5  -0.745451   7.911656   3.099753   0.000132   0.154229   0.000855
 475   5  -0.585663   8.492776   1.673755   0.000089   0.154229   0.000579
 476   5  -0.388092   8.051962   0.202921  -0.000028   0.154229  -0.000184
 477   5  -0.239111   6.781929  -0.669732   0.000100   0.154229   0.000648
 478   5  -0.203853   5.237907  -0.562701   0.000168   0.154229   0.001086
 479   5   1.212238   8.538831   4.789365   0.000215   0.088731   0.002428
 480  16   1.432681   8.745603   4.751459  -0.000020   0.088731  -0.000226
 481  18   1.417920   8.234048   5.730779   0.000173   0.088731   0.001955
 482  16   3.896605   9.747545   1.205771  -0.000101   0.070011  -0.001445
 483  16   2.795894  10.009689   1.237307  -0.000271   0.156168  -0.001732
 484  16   1.619839  10.020019   1.934559  -0.000254   0.156168  -0.001625
 485  16   1.084275   9.663375   3.140938  -0.000182   0.156168  -0.001168
 486  16   1.234328   9.208885   4.166705  -0.000032   0.070011  -0.000452
 487   5   3.440875   9.646848   0.826231  -0.000035   0.152762  -0.000232
 488   5   1.962572   9.874648   1.174271  -0.000053   0.152762  -0.000348
 489   5   0.945051   9.668772   2.305939   0.000037   0.152762   0.000240
 490   5   0.825999   9.117778   3.734447   0.000104   0.152762   0.000682
 491  17   2.105765   4.855328  -1.689893  -0.000018   0.066586  -0.000273
 492  17   1.894282   5.890001  -1.879092  -0.000082   0.146579  -0.000557
 493  17   2.236739   7.142064  -1.818002  -0.000205   0.146579  -0.001398
 494  17   3.171800   7.958287  -1.433150  -0.000250   0.146579  -0.001708
 495  17   4.341782   8.026446  -0.871752  -0.000112   0.146579  -0.000767
 496  17   5.188900   7.546625  -0.420939  -0.000027   0.066586  -0.000406
 497   5   1.629647   5.180549  -1.573181   0.000192   0.147185   0.001302
 498   5   1.606790   6.634548  -1.706084   0.000150   0.147185   0.001021
 499   5   2.361561   7.856515  -1.442617  -0.000009   0.147185  -0.000060
 500   5   3.605244   8.379017  -0.883562  -0.000034   0.147185  -0.000230
 501   5   4.862099   8.002186  -0.242772   0.000097   0.147185   0.000657
 502   6   3.953354   5.862276   9.328843  -0.000005   0.068358  -0.000070
 503  11   4.711883   6.372809   9.166939  -0.000338   0.068358  -0.004939
 504  18   3.937290   6.163439   9.295183  -0.000226   0.068358  -0.003301
 505  11   5.332214   6.220170   9.232981  -0.000803   0.230222  -0.003488
 506  11   5.931941   5.421723   8.898381  -0.000353   0.230222  -0.001532
 507   6   4.581982   4.973643   9.205418   0.001711   0.638657   0.002678
 508   6   1.551952   0.548915   6.838005   0.000153   0.087810   0.001740
 509  12   1.925286  -0.052034   6.148724   0.000240   0.087810   0.002736
 510  20   1.778379   0.508576   7.041071  -0.000059   0.087810  -0.000668
 511  12   1.857239  -0.539824   5.807645   0.000051   0.022328   0.002293
 512   6   1.330511   0.418922   6.771402   0.000177   0.031684   0.005572
 513   6  -0.861217   6.484802   5.146228   0.000157   0.088974   0.001769
 514  15  -0.939731   6.653199   4.151222   0.000256   0.088974   0.002874
 515  19  -1.071245   6.266186   5.181406  -0.000078   0.088974  -0.000876
 516  18   1.046556   8.019826   6.856821  -0.000069   0.069913  -0.000985
 517  18   0.766140   7.583041   7.861058  -0.000142   0.155901  -0.000909
 518  18   1.150520   6.917686   8.989893  -0.000274   0.155901  -0.001758
 519  18   2.242292   6.347887   9.579872  -0.000334   0.155901  -0.002143
 520  18   3.343657   6.097753   9.531538  -0.000117   0.069913  -0.001680
 521   6   0.599973   7.659114   7.035294   0.000150   0.152593   0.000986
 522   6   0.538442   6.981009   8.409689   0.000111   0.152593   0.000730
 523   6   1.415847   6.246851   9.431329  -0.000035   0.152593  -0.000229
 524   6   2.855809   5.771569   9.661963  -0.000013   0.152593  -0.000085
 525  19  -0.994328   1.971165   6.457363  -0.000013   0.070732  -0.000187
 526  19  -1.077187   2.479084   7.475484  -0.000125   0.158002  -0.000788
 527  19  -1.192049   3.647915   8.195204  -0.000211   0.158002  -0.001337
 528  19  -1.279003   5.012227   8.026542  -0.000240   0.158002  -0.001516
 529  19  -1.300093   5.976484   7.043120  -0.000169   0.158002  -0.001070
 530  19  -1.265670   6.228535   5.931048  -0.000085   0.070732  -0.001202
 531   6  -0.679776   1.919567   6.971032   0.000144   0.154135   0.000933
 532   6  -0.803228   2.890548   8.169105   0.000072   0.154135   0.000469
 533   6  -0.923303   4.397701   8.496970  -0.000039   0.154135  -0.000254
 534   6  -0.987586   5.783138   7.811511   0.000020   0.154135   0.000131
 535   6  -0.968018   6.442103   6.411937   0.000052   0.154135   0.000339
 536  20   4.538237   3.362523   9.176616  -0.000023   0.073618  -0.000308
 537  20   3.511428   3.352221   9.754677  -0.000240   0.165574  -0.001448
 538  20   2.200340   2.813860   9.849111  -0.000321   0.165574  -0.001938
 539  20   1.355115   1.880606   9.191591  -0.000254   0.165574  -0.001534
 540  20   1.368855   0.986501   8.087919  -0.000176   0.165574  -0.001064
 541   6   4.153708   3.802987   9.371625   0.000088   0.159438   0.000550
 542   6   2.673651   3.545322   9.907268  -0.000055   0.159438  -0.000345
 543   6   1.385871   2.666453   9.570985  -0.000047   0.159438  -0.000296
 544   6   0.889297   1.575129   8.519177   0.000063   0.159438   0.000395
 545   6   1.158660   0.849140   7.474489   0.000067   0.089941   0.000740
 546   7  10.494203   3.299642   5.209452   0.000089   0.088118   0.001011
 547   8   9.695680   2.704727   5.188107   0.000198   0.088118   0.002243
 548  23  10.563093   3.263265   5.505167  -0.000010   0.088118  -0.000110
 549   8   9.423715   2.213635   4.925597   0.000032   0.030105   0.001057
 550   7  10.543488   3.164088   4.988154   0.000192   0.042755   0.004495
 551   7  10.647206   4.352155   2.826272   0.000105   0.088158   0.001189
 552   9   9.879920   3.973599   2.315463   0.000217   0.088158   0.002458
 553  21  10.749711   4.542184   2.609711  -0.000095   0.088158  -0.001076
 554   9   9.608712   3.478361   2.080700   0.000062   0.028697   0.002159
 555   7  10.675660   4.083260   2.892411   0.000194   0.040756   0.004751
 556  10   7.497810  10.554673   3.989756  -0.000190   0.215111  -0.000881
 557  10   7.742608   9.750868   2.672545  -0.001200   0.443367  -0.002707
 558   7   8.675165  10.252364   3.734359   0.000937   0.586582   0.001597
 559   7   8.869428   9.200080   2.316702   0.000681   0.303203   0.002247
 560  11   7.339221   6.357658   8.983457  -0.000191   0.215144  -0.000887
 561  11   7.267381   7.911153   8.830322  -0.001228   0.443444  -0.002768
 562   7   8.423242   6.958279   8.900093   0.000924   0.586667   0.001575
 563   7   8.273299   8.695696   8.561227   0.000760   0.303251   0.002508
 564  21   9.864314   8.266660   1.705779  -0.000103   0.066493  -0.001555
 565  21  10.704194   8.821854   2.081647  -0.000240   0.146514  -0.001639
 566  21  11.868644   8.854438   2.662035  -0.000069   0.146514  -0.000473
 567  21  12.801606   8.115382   3.188565  -0.000152   0.146514  -0.001035
 568  21  13.144011   6.889127   3.458590  -0.000164   0.146514  -0.001122
 569  21  12.764078   5.647622   3.368186  -0.000097   0.146514  -0.000660
 570  21  11.808031   4.868687   2.952146  -0.000106   0.146514  -0.000725
 571   7   9.892148   8.736908   2.057209  -0.000130   0.146827  -0.000886
 572   7  11.140451   9.224041   2.643035   0.000132   0.146827   0.000896
 573   7  12.380001   8.806524   3.297213   0.000172   0.146827   0.001172
 574   7  13.133730   7.645044   3.767969   0.000053   0.146827   0.000364
 575   7  13.111551   6.186623   3.874123   0.000014   0.146827   0.000093
 576   7  12.322000   4.992563   3.574819   0.000134   0.146827   0.000913
 577   7  11.350995   4.476264   3.130173   0.000099   0.081236   0.001217
 578  22   9.086500   9.639028   8.239407  -0.000081   0.068084  -0.001192
 579  22  10.035096   9.218905   8.606690  -0.000201   0.150835  -0.001330
 580  22  11.327580   8.964968   8.413426  -0.000173   0.150835  -0.001144
 581  22  12.317492   9.106055   7.534497  -0.000144   0.150835  -0.000957
 582  22  12.603957   9.585030   6.325832  -0.000204   0.150835  -0.001354
 583  22  12.070968  10.207927   5.276894  -0.000121   0.150835  -0.000803
 584  22  10.934365  10.722499   4.812462  -0.000217   0.150835  -0.001442
 585  22   9.654426  10.920363   5.120611  -0.000307   0.150835  -0.002034
 586   7   9.220979   9.113963   8.482209  -0.000127   0.149546  -0.000846
 587   7  10.621799   8.639902   8.705832   0.000052   0.149546   0.000348
 588   7  11.974187   8.573035   8.070525   0.000093   0.149546   0.000622
 589   7  12.730479   8.940439   6.833563   0.000065   0.149546   0.000437
 590   7  12.584406   9.593332   5.495866   0.000106   0.149546   0.000708
 591   7  11.595123  10.267316   4.599149   0.000090   0.149546   0.000600
 592   7  10.163249  10.689456   4.506546   0.000056   0.149546   0.000376
 593   7   9.052320  10.760805   4.992658   0.000045   0.083180   0.000538
 594  23  11.273313   3.480037   5.594175  -0.000019   0.066471  -0.000292
 595  23  12.172901   4.044593   5.756141  -0.000110   0.146457  -0.000751
 596  23  12.847541   4.923694   6.437989  -0.000127   0.146457  -0.000869
 597  23  12.793848   5.728254   7.459104  -0.000167   0.146457  -0.001143
 598  23  12.032473   6.148816   8.426736  -0.000103   0.146457  -0.000705
 599  23  10.856263   6.023619   8.968706  -0.000167   0.146457  -0.001138
 600  23   9.717622   5.400819   8.876557  -0.000330   0.146457  -0.002250
 601   7  11.601852   3.799449   5.226277   0.000182   0.146788   0.001243
 602   7  12.676314   4.682725   5.676698   0.000163   0.146788   0.001110
 603   7  13.043275   5.677721   6.683101   0.000030   0.146788   0.000205
 604   7  12.561593   6.401734   7.858394   0.000127   0.146788   0.000863
 605   7  11.416536   6.576286   8.750525   0.000144   0.146788   0.000982
 606   7  10.048525   6.134241   9.016357  -0.000048   0.146788  -0.000327
 607   7   9.105441   5.465614   8.752153  -0.000041   0.081209  -0.000502
 608   8   5.473198   0.796856   6.377478  -0.000123   0.303378  -0.000405
 609  12   4.660532   0.175654   6.054885  -0.000217   0.303378  -0.000714
 610  20   4.554423   0.806819   6.919375  -0.000263   0.303378  -0.000868
 611  12   5.833559  -0.677262   3.986540   0.000322   0.297281   0.001083
 612  12   5.291509  -0.594313   5.195837  -0.000769   0.594907  -0.001292
 613   8   6.794239   0.200993   4.918665  -0.000203   0.594907  -0.000341
 614   8   6.186058   0.393310   6.083236  -0.000054   0.297281  -0.000180
 615  20   4.772011   1.036231   7.721010  -0.000211   0.284293  -0.000741
 616  20   5.151939   2.088666   8.346342  -0.000535   0.568803  -0.000941
 617   8   6.232445   1.405410   7.222316  -0.000542   0.568803  -0.000954
 618   8   6.558905   2.524206   7.755912   0.000264   0.284293   0.000929
 619  23   9.121824   3.817931   8.055394   0.000044   0.249656   0.000177
 620  23   9.841505   3.197650   7.463700  -0.000485   0.499172  -0.000972
 621  23  10.492567   2.981164   6.283141   0.000015   0.499172   0.000029
 622   8   8.236772   2.669374   7.374864  -0.000127   0.499172  -0.000255
 623   8   9.056341   2.101319   6.442078  -0.000217   0.499172  -0.000434
 624   8   9.471625   2.116128   5.402794   0.000298   0.249656   0.001192
 625   9   5.904745   3.750647  -0.339181  -0.000132   0.303295  -0.000436
 626  14   5.093411   3.129455  -0.665634  -0.000216   0.303295  -0.000714
 627  17   5.049223   4.196198  -0.794039  -0.000263   0.303295  -0.000866
 628  14   5.455253   2.350266  -0.824930  -0.000186   0.297915  -0.000624
 629  14   5.945217   1.336612  -0.116579  -0.000347   0.596185  -0.000581
 630   9   6.812862   2.825801  -0.120957  -0.000551   0.596185  -0.000925
 631   9   7.226753   1.856773   0.690833   0.000356   0.297915   0.001194
 632  17   5.836241   6.520946  -0.517790   0.000097   0.285512   0.000341
 633  17   5.510516   5.381811  -1.020292  -0.000905   0.571258  -0.001585
 634   9   6.941067   5.461309  -0.099070  -0.000203   0.571258  -0.000356
 635   9   6.548660   4.301789  -0.496265  -0.000092   0.285512  -0.000321
 636  21  10.874497   4.644579   2.180946   0.000311   0.249643   0.001247
 637  21  10.576266   5.419936   1.431769  -0.000345   0.499144  -0.000692
 638  21   9.837592   6.529406   1.138662  -0.000337   0.499144  -0.000675
 639   9   9.612495   4.028751   1.408483   0.000084   0.499144   0.000167
 640   9   9.084710   5.075463   0.709691  -0.000245   0.499144  -0.000490
 641   9   8.405525   5.964185   0.693349   0.000188   0.249643   0.000754
 642  16   3.516794  10.173625   4.055128  -0.000956   0.219181  -0.004360
 643  16   3.935863  10.344711   2.880534  -0.002470   0.439218  -0.005624
 644  16   4.378913   9.956026   1.768242  -0.000443   0.219181  -0.002020
 645  10   4.757396  10.365113   4.008529  -0.001813   0.439218  -0.004128
 646  10   5.294613  10.229519   2.583488  -0.002282   0.439218  -0.005195
 647  18   3.875427   6.625974   9.360145  -0.000474   0.217603  -0.002178
 648  18   3.544534   7.719898   8.852952  -0.002435   0.436023  -0.005584
 649  18   3.270014   8.483865   7.901953  -0.000855   0.217603  -0.003931
 650  11   4.864074   7.359599   9.116284  -0.002254   0.436023  -0.005169
 651  11   4.486798   8.517381   8.207583  -0.001752   0.436023  -0.004019
 652  20   2.127331   0.250115   7.300630   0.000321   0.297126   0.001082
 653  20   3.444947   0.316166   7.414988  -0.000857   0.594573  -0.001441
 654  12   2.785304  -0.651616   6.147690  -0.000448   0.594573  -0.000753
 655  12   4.097541  -0.477258   6.182138  -0.000195   0.297126  -0.000656
 656  13  -1.293873   3.262329   3.004210  -0.000196   0.321918  -0.000607
 657  15  -1.341117   4.342341   2.863576  -0.000098   0.321918  -0.000305
 658  19  -1.407183   3.890317   3.887233  -0.000061   0.321918  -0.000191
 659  15  -0.886436   4.268769   0.246675   0.000327   0.230686   0.001417
 660  15  -1.470078   4.351224   1.105776  -0.000227   0.461190  -0.000493
 661  15  -1.680310   4.472424   2.118990  -0.000092   0.230686  -0.000401
 662  13  -1.052796   2.771403   0.758163   0.000090   0.461190   0.000195
 663  13  -1.548379   2.898536   1.926970  -0.000441   0.461190  -0.000957
 664  19  -1.827055   3.372810   4.496588  -0.000135   0.307087  -0.000439
 665  19  -1.501968   2.326348   5.286312  -0.000225   0.614542  -0.000366
 666  13  -1.573991   2.069876   3.557286  -0.000859   0.614542  -0.001398
 667  13  -1.114781   1.065652   4.335158   0.000338   0.307087   0.001100
 668  17   4.514587   4.314141  -1.470827  -0.000197   0.298159  -0.000661
 669  17   3.211318   4.230208  -1.714666  -0.000350   0.596655  -0.000587
 670  14   4.083786   2.768726  -1.425521  -0.000885   0.596655  -0.001483
 671  14   2.761630   2.699925  -1.535880   0.000229   0.298159   0.000767
 672  19  -1.511009   6.049043   5.088171   0.000379   0.298718   0.001270
 673  19  -1.835550   4.915420   4.566726  -0.000427   0.597474  -0.000714
 674  15  -1.580793   6.262608   3.440827  -0.000179   0.597474  -0.000299
 675  15  -1.779815   5.102073   2.915583  -0.000095   0.298718  -0.000319
 676  18   2.304066   8.692202   6.485923  -0.000047   0.234283  -0.000203
 677  18   1.564718   8.462286   6.336038   0.000227   0.234283   0.000967
 678  16   2.037487   9.193040   4.957843   0.000040   0.468330   0.000085
 =====================================================

              4810692  WORDS OF DYNAMIC MEMORY USED
 EXECUTION OF GAMESS TERMINATED NORMALLY Wed Nov 23 03:16:30 2016
 DDI: 263640 bytes (0.3 MB / 0 MWords) used by master data server.

 ----------------------------------------
 CPU timing information for all processes
 ========================================
 0: 2180.340 + 0.724 = 2181.64
 ----------------------------------------
 ddikick.x: exited gracefully.
