----- GAMESS execution script -----

          ******************************************************
          *         GAMESS VERSION =  5 DEC 2014 (R1)          *
          *             FROM IOWA STATE UNIVERSITY             *
          * M.W.SCHMIDT, K.K.BALDRIDGE, J.A.BOATZ, S.T.ELBERT, *
          *   M.S.GORDON, J.H.JENSEN, S.KOSEKI, N.MATSUNAGA,   *
          *          K.A.NGUYEN, S.J.SU, T.L.WINDUS,           *
          *       TOGETHER WITH M.DUPUIS, J.A.MONTGOMERY       *
          *         J.COMPUT.CHEM.  14, 1347-1363(1993)        *
          **************** 64 BIT LINUX VERSION ****************

 EXECUTION OF GAMESS BEGUN Wed Nov 23 02:19:52 2016

            ECHO OF THE FIRST FEW INPUT CARDS -
 INPUT CARD>! SELECT RESTRICTED HARTREE-FOCK AS DEFAULT                                     
 INPUT CARD>$contrl scftyp=rhf $end                                                         
 INPUT CARD>                                                                                
 INPUT CARD>! THEORY: HF OR DFT                                                             
 INPUT CARD> $contrl mplevl=0 $end                                                          
 INPUT CARD>                                                                                
 INPUT CARD> $system timlim=10000 mwords=20 $end                                            
 INPUT CARD> $SCF DIRSCF=.TRUE. $end                                                        
 INPUT CARD>                                                                                
 INPUT CARD>                                                                                
 INPUT CARD>! BASIS SETS                                                                    
 INPUT CARD>! 6-311G(d,p)                                                                   
 INPUT CARD> $BASIS GBASIS=N311 NGAUSS=6 NDFUNC=1 NPFUNC=1 $END                             
 INPUT CARD>                                                                                
 INPUT CARD>! One of the following                                                          
 INPUT CARD> $guess guess=HUCKEL $end                                                       
 INPUT CARD>                                                                                
 INPUT CARD> $statpt projct=.FALSE. $end                                                    
 INPUT CARD> $STATPT IFREEZ(1)=1,2,3 $END                                                   
 INPUT CARD>                                                                                
 INPUT CARD>! Optimize the geometry with COSMO effects                                      
 INPUT CARD> $statpt opttol=0.0005 nstep=50 $end                                            
 INPUT CARD> $contrl nzvar=1 $end                                                           
 INPUT CARD> $zmat dlc=.t. auto=.t. $end                                                    
 INPUT CARD> $contrl runtyp=OPTIMIZE maxit=200 $end                                         
 INPUT CARD>                                                                                
 INPUT CARD>! Run COSMO on perfect conductor                                                
 INPUT CARD> $COSGMS PRFCND=.TRUE. $end                                                     
 INPUT CARD>                                                                                
 INPUT CARD>! Specifying RSOLV                                                              
 INPUT CARD> $COSGMS COSRAD = 1.4 $end                                                      
 INPUT CARD>                                                                                
 INPUT CARD>! available memory                                                              
 INPUT CARD> $SYSTEM MWORDS=40 $END                                                         
 INPUT CARD>                                                                                
 INPUT CARD> $DATA                                                                          
 INPUT CARD>http://cactus.nci.nih.gov/chemical/structure/2,2-DIMETHYL-1-BUTANOL/file?format=
 INPUT CARD>C1                                                                              
 INPUT CARD>C      6.0     -0.0573000000    1.2492000000   -0.8855000000                    
 INPUT CARD>C      6.0     -0.0340000000   -0.0000000000   -0.0025000000                    
 INPUT CARD>C      6.0      1.2380000000    0.0000000000    0.8477000000                    
 INPUT CARD>O      8.0      2.3827000000    0.0000000000   -0.0078000000                    
 INPUT CARD>C      6.0     -1.2596000000    0.0000000000    0.9135000000                    
 INPUT CARD>C      6.0     -2.5317000000    0.0000000000    0.0633000000                    
 INPUT CARD>C      6.0     -0.0573000000   -1.2492000000   -0.8855000000                    
 INPUT CARD>H      1.0      0.8158000000    1.2492000000   -1.5380000000                    
 INPUT CARD>H      1.0     -0.9635000000    1.2492000000   -1.4912000000                    
 INPUT CARD>H      1.0     -0.0407000000    2.1392000000   -0.2564000000                    
 INPUT CARD>H      1.0      1.2546000000    0.8900000000    1.4768000000                    
 INPUT CARD>H      1.0      1.2546000000   -0.8900000000    1.4768000000                    
   40000000 WORDS OF MEMORY AVAILABLE

     BASIS OPTIONS
     -------------
     GBASIS=N311         IGAUSS=       6      POLAR=POPN311 
     NDFUNC=       1     NFFUNC=       0     DIFFSP=       F
     NPFUNC=       1      DIFFS=       F     BASNAM=        


     RUN TITLE
     ---------
 http://cactus.nci.nih.gov/chemical/structure/2,2-DIMETHYL-1-BUTANOL/file?format=

 THE POINT GROUP OF THE MOLECULE IS C1      
 THE ORDER OF THE PRINCIPAL AXIS IS     0

 ATOM      ATOMIC                      COORDINATES (BOHR)
           CHARGE         X                   Y                   Z
 C           6.0    -0.1082812991        2.3606457039       -1.6733523621
 C           6.0    -0.0642506836       -0.0000000000       -0.0047243150
 C           6.0     2.3394807728        0.0000000000        1.6019207198
 O           8.0     4.5026501109        0.0000000000       -0.0147398627
 C           6.0    -2.3802988541        0.0000000000        1.7262646898
 C           6.0    -4.7842192831        0.0000000000        0.1196196550
 C           6.0    -0.1082812991       -2.3606457039       -1.6733523621
 H           1.0     1.5416384608        2.3606457039       -2.9063985691
 H           1.0    -1.8207509892        2.3606457039       -2.8179593929
 H           1.0    -0.0769118477        4.0425018329       -0.4845257433
 H           1.0     2.3708502242        1.6818561291        2.7907473387
 H           1.0     2.3708502242       -1.6818561291        2.7907473387
 H           1.0     6.0973898720        0.0000000000        0.8775887487
 H           1.0    -2.3489294027       -1.6818561291        2.9150913087
 H           1.0    -2.3489294027        1.6818561291        2.9150913087
 H           1.0    -4.8153997619        1.6818561291       -1.0692069639
 H           1.0    -4.8153997619       -1.6818561291       -1.0692069639
 H           1.0    -6.4341390430        0.0000000000        1.3528548346
 H           1.0     1.5416384608       -2.3608346765       -2.9063985691
 H           1.0    -0.0769118477       -4.0425018329       -0.4845257433
 H           1.0    -1.8207509892       -2.3608346765       -2.8179593929

          INTERNUCLEAR DISTANCES (ANGS.)




     $CONTRL OPTIONS
     ---------------
 SCFTYP=RHF          RUNTYP=OPTIMIZE     EXETYP=RUN     
 MPLEVL=       0     CITYP =NONE         CCTYP =NONE         VBTYP =NONE    
 DFTTYP=NONE         TDDFT =NONE    
 MULT  =       1     ICHARG=       0     NZVAR =       1     COORD =UNIQUE  
 PP    =NONE         RELWFN=NONE         LOCAL =NONE         NUMGRD=       F
 ISPHER=      -1     NOSYM =       0     MAXIT =     200     UNITS =ANGS    
 PLTORB=       F     MOLPLT=       F     AIMPAC=       F     FRIEND=        
 NPRINT=       7     IREST =       0     GEOM  =INPUT   
 NORMF =       0     NORMP =       0     ITOL  =      20     ICUT  =       9
 INTTYP=BEST         GRDTYP=BEST         QMTTOL= 1.0E-06

     $SYSTEM OPTIONS
     ---------------
  REPLICATED MEMORY=    40000000 WORDS (ON EVERY NODE).
 DISTRIBUTED MEMDDI=           0 MILLION WORDS IN AGGREGATE,
 MEMDDI DISTRIBUTED OVER   1 PROCESSORS IS           0 WORDS/PROCESSOR.
 TOTAL MEMORY REQUESTED ON EACH PROCESSOR=    40000000 WORDS.
 TIMLIM=       10000.00 MINUTES, OR       6.9 DAYS.
 PARALL= F  BALTYP=  DLB     KDIAG=    0  COREFL= F
 MXSEQ2=     300 MXSEQ3=     150  mem10=         0

     $COSGMS OPTIONS
     ---------------
     EPSI  =   INFTY     NSPA  =      92     COSRAD=    1.40
     DISEX =   10.00     OUTCHG=DBLCAV       COSBUG=       F
     COSWRT=       F     DCOSMO=       F

     SYMMETRY COORDINATES WILL NOT BE USED FOR 
     THE COSMO CALCULATION, EVEN IF SPECIFIED:
         -- SWITCHING TO C1 POINT GROUP --


     DEFINITION OF CAVITY
     ---------------------------
     ATOM         COORDINATES           RADIUS 
     1   -0.1083    2.3606   -1.6734    2.0000
     2   -0.0643   -0.0000   -0.0047    2.0000
     3    2.3395    0.0000    1.6019    2.0000
     4    4.5027    0.0000   -0.0147    1.7200
     5   -2.3803    0.0000    1.7263    2.0000
     6   -4.7842    0.0000    0.1196    2.0000
     7   -0.1083   -2.3606   -1.6734    2.0000
     8    1.5416    2.3606   -2.9064    1.3000
     9   -1.8208    2.3606   -2.8180    1.3000
    10   -0.0769    4.0425   -0.4845    1.3000
    11    2.3709    1.6819    2.7907    1.3000
    12    2.3709   -1.6819    2.7907    1.3000
    13    6.0974    0.0000    0.8776    1.3000
    14   -2.3489   -1.6819    2.9151    1.3000
    15   -2.3489    1.6819    2.9151    1.3000
    16   -4.8154    1.6819   -1.0692    1.3000
    17   -4.8154   -1.6819   -1.0692    1.3000
    18   -6.4341    0.0000    1.3529    1.3000
    19    1.5416   -2.3608   -2.9064    1.3000
    20   -0.0769   -4.0425   -0.4845    1.3000
    21   -1.8208   -2.3608   -2.8180    1.3000

          ----------------
          PROPERTIES INPUT
          ----------------

     MOMENTS            FIELD           POTENTIAL          DENSITY
 IEMOM =       1   IEFLD =       0   IEPOT =       0   IEDEN =       0
 WHERE =COMASS     WHERE =NUCLEI     WHERE =NUCLEI     WHERE =NUCLEI  
 OUTPUT=BOTH       OUTPUT=BOTH       OUTPUT=BOTH       OUTPUT=BOTH    
 IEMINT=       0   IEFINT=       0                     IEDINT=       0
                                                       MORB  =       0
          EXTRAPOLATION IN EFFECT
          SOSCF IN EFFECT
 ORBITAL PRINTING OPTION: NPREO=     1   217     2     1

     -------------------------------
     INTEGRAL TRANSFORMATION OPTIONS
     -------------------------------
     NWORD  =            0
     CUTOFF = 1.0E-09     MPTRAN =       0
     DIRTRF =       T     AOINTS =DUP     

          ----------------------
          INTEGRAL INPUT OPTIONS
          ----------------------
 NOPK  =       1 NORDER=       0 SCHWRZ=       T


 -----------------------------------------------
  STATISTICS ON AUTOMATIC COORDINATE GENERATION 
 -----------------------------------------------
  NUMBER OF USER SPECIFIED BONDS                             0
  NUMBER OF BONDS                                           20
  NUMBER OF ANGLES                                          37
  NUMBER OF TORSIONS                                        48
  NUMBER OF EXTRA COORD.                                     0
  NUMBER OF EXTRA COORD. FOR CONSTRAINTS                     0
  NUMBER OF CONSTRAINED COORD.                               0

  TOTAL NUMBER OF PRIMITIVES                               105
 -----------------------------------------------

   --- ENCODED Z MATRIX ---
 COORD  TYPE   I   J   K   L   M   N
    1      1    1   9
    2      1    1   2
    3      1    1  10
    4      1    1   8
    5      1    2   7
    6      1    2   3
    7      1    2   5
    8      1    3   4
    9      1    3  12
   10      1    3  11
   11      1    4  13
   12      1    5  15
   13      1    5  14
   14      1    5   6
   15      1    6  16
   16      1    6  18
   17      1    6  17
   18      1    7  21
   19      1    7  20
   20      1    7  19
   21      2    1   2   5
   22      2    1   2   3
   23      2    1   2   7
   24      2    2   1  10
   25      2    2   1   8
   26      2    2   3   4
   27      2    2   5  15
   28      2    2   1   9
   29      2    2   5   6
   30      2    2   7  21
   31      2    2   7  20
   32      2    2   7  19
   33      2    2   3  11
   34      2    2   3  12
   35      2    2   5  14
   36      2    3   4  13
   37      2    3   2   7
   38      2    3   2   5
   39      2    4   3  11
   40      2    4   3  12
   41      2    5   6  18
   42      2    5   6  16
   43      2    5   6  17
   44      2    5   2   7
   45      2    6   5  14
   46      2    6   5  15
   47      2    8   1   9
   48      2    8   1  10
   49      2    9   1  10
   50      2   11   3  12
   51      2   14   5  15
   52      2   16   6  17
   53      2   16   6  18
   54      2   17   6  18
   55      2   19   7  20
   56      2   19   7  21
   57      2   20   7  21
   58      3    1   2   3  11
   59      3    1   2   5   6
   60      3    1   2   3  12
   61      3    1   2   3   4
   62      3    1   2   5  14
   63      3    1   2   5  15
   64      3    1   2   7  19
   65      3    1   2   7  20
   66      3    1   2   7  21
   67      3    2   3   4  13
   68      3    2   5   6  17
   69      3    2   5   6  18
   70      3    2   5   6  16
   71      3    3   2   5  15
   72      3    3   2   1   9
   73      3    3   2   5  14
   74      3    3   2   7  19
   75      3    3   2   7  20
   76      3    3   2   7  21
   77      3    3   2   1   8
   78      3    3   2   5   6
   79      3    3   2   1  10
   80      3    4   3   2   5
   81      3    4   3   2   7
   82      3    5   2   1   8
   83      3    5   2   3  12
   84      3    5   2   3  11
   85      3    5   2   7  19
   86      3    5   2   7  20
   87      3    5   2   7  21
   88      3    5   2   1   9
   89      3    5   2   1  10
   90      3    6   5   2   7
   91      3    7   2   1   8
   92      3    7   2   5  15
   93      3    7   2   5  14
   94      3    7   2   1  10
   95      3    7   2   3  12
   96      3    7   2   1   9
   97      3    7   2   3  11
   98      3   11   3   4  13
   99      3   12   3   4  13
  100      3   14   5   6  17
  101      3   14   5   6  16
  102      3   14   5   6  18
  103      3   15   5   6  17
  104      3   15   5   6  16
  105      3   15   5   6  18

          INDEP./SYM. INTERNAL COORDINATES
          --------------------------------
 CRD  1=  -0.1564 (  7) -0.1360 ( 21)  0.1749 ( 23) -0.2550 ( 26)  0.1863 ( 27)
          -0.6089 ( 29)  0.1863 ( 35)  0.2641 ( 38)  0.1135 ( 41) -0.1360 ( 44)
           0.1696 ( 45)  0.1696 ( 46) -0.1028 ( 51)  0.1079 ( 82) -0.1079 ( 85)
          -0.1046 ( 86) -0.1311 ( 87)  0.1311 ( 88)  0.1046 ( 89)
 CRD  2=   0.2326 (  7)  0.1806 ( 14) -0.1616 ( 22)  0.1664 ( 23) -0.4730 ( 26)
           0.3628 ( 29)  0.1258 ( 33)  0.1258 ( 34)  0.1819 ( 36) -0.1616 ( 37)
           0.2034 ( 38)  0.1376 ( 39)  0.1376 ( 40) -0.1245 ( 45) -0.1246 ( 46)
           0.1022 ( 62) -0.1021 ( 65) -0.1196 ( 72)  0.1484 ( 74)  0.1196 ( 76)
          -0.1484 ( 77) -0.1022 ( 92)  0.1021 ( 94)
 CRD  3=   0.3445 ( 21) -0.3204 ( 22) -0.1228 ( 25)  0.1411 ( 28) -0.1411 ( 30)
           0.1228 ( 32)  0.3204 ( 37) -0.3446 ( 44)  0.1882 ( 59)  0.1291 ( 61)
          -0.1564 ( 64) -0.1533 ( 66) -0.1005 ( 69) -0.1042 ( 71) -0.1042 ( 73)
           0.1153 ( 75)  0.1153 ( 79)  0.1291 ( 81) -0.1586 ( 83) -0.1586 ( 84)
           0.1301 ( 86)  0.1301 ( 89)  0.1882 ( 90) -0.1564 ( 91) -0.1533 ( 96)
 CRD  4=  -0.2554 (  2)  0.2554 (  5) -0.1582 ( 22) -0.1608 ( 33)  0.1608 ( 34)
           0.1583 ( 37) -0.1872 ( 42)  0.1872 ( 43)  0.1615 ( 45) -0.1615 ( 46)
          -0.1935 ( 59)  0.1195 ( 61) -0.2295 ( 67)  0.1159 ( 69) -0.2141 ( 71)
          -0.2141 ( 73) -0.4054 ( 78)  0.2527 ( 80)  0.1195 ( 81) -0.1935 ( 90)
 CRD  5=  -0.3745 (  6) -0.1099 (  7) -0.1152 (  8) -0.1327 ( 11) -0.2504 ( 14)
           0.1612 ( 21) -0.2587 ( 23)  0.1081 ( 24) -0.1463 ( 25) -0.4129 ( 26)
          -0.1215 ( 29)  0.1081 ( 31) -0.1463 ( 32) -0.2124 ( 38)  0.1801 ( 39)
           0.1801 ( 40)  0.1612 ( 44)  0.1079 ( 58)  0.1178 ( 60)  0.1128 ( 61)
          -0.1129 ( 81)  0.1326 ( 87) -0.1326 ( 88) -0.1079 ( 95) -0.1178 ( 97)
 CRD  6=  -0.2119 (  2) -0.2119 (  5)  0.3874 (  6)  0.2925 (  7)  0.1400 (  8)
           0.2244 ( 14) -0.2400 ( 23)  0.1506 ( 24) -0.1377 ( 25) -0.1826 ( 28)
          -0.1826 ( 30)  0.1506 ( 31) -0.1377 ( 32)  0.1323 ( 36)  0.1190 ( 41)
          -0.1283 ( 59)  0.1317 ( 60)  0.1125 ( 61) -0.1437 ( 62) -0.1128 ( 63)
          -0.1003 ( 72)  0.1004 ( 76) -0.1125 ( 81)  0.1260 ( 82) -0.1260 ( 85)
           0.1283 ( 90)  0.1437 ( 92)  0.1128 ( 93) -0.1317 ( 97)
 CRD  7=   0.2131 (  2) -0.2131 (  5)  0.1298 ( 21)  0.2231 ( 24)  0.2095 ( 27)
          -0.2230 ( 31) -0.2095 ( 35) -0.2139 ( 42)  0.2139 ( 43) -0.1297 ( 44)
           0.2046 ( 45) -0.2046 ( 46) -0.2695 ( 59) -0.1472 ( 62) -0.1472 ( 63)
          -0.1809 ( 68) -0.1030 ( 69) -0.1809 ( 70) -0.1319 ( 78) -0.1568 ( 80)
          -0.1262 ( 83) -0.1262 ( 84) -0.2695 ( 90) -0.1472 ( 92) -0.1472 ( 93)
 CRD  8=   0.4502 (  2)  0.4502 (  5)  0.1785 (  6)  0.3952 (  7)  0.1738 ( 24)
           0.1042 ( 27)  0.1635 ( 28) -0.1483 ( 29)  0.1635 ( 30)  0.1738 ( 31)
           0.1042 ( 35)  0.1534 ( 41) -0.1137 ( 42) -0.1137 ( 43) -0.1116 ( 47)
          -0.1182 ( 48) -0.1446 ( 49) -0.1182 ( 55) -0.1116 ( 56) -0.1446 ( 57)
 CRD  9=  -0.1678 (  2) -0.1677 (  5) -0.2779 (  6)  0.3383 (  7) -0.1039 (  9)
          -0.1039 ( 10) -0.1021 ( 24) -0.2269 ( 25)  0.3335 ( 26)  0.1848 ( 28)
          -0.1381 ( 29)  0.1848 ( 30) -0.1021 ( 31) -0.2268 ( 32) -0.1528 ( 33)
          -0.1528 ( 34) -0.1733 ( 36)  0.1880 ( 41)  0.1044 ( 48)  0.1521 ( 50)
           0.1044 ( 55) -0.1615 ( 65)  0.1615 ( 94)
 CRD 10=  -0.3547 (  2)  0.3547 (  5) -0.1276 ( 25)  0.2274 ( 27) -0.1996 ( 28)
           0.1996 ( 30)  0.1276 ( 32)  0.1154 ( 33) -0.1154 ( 34) -0.2274 ( 35)
           0.2483 ( 42) -0.2483 ( 43)  0.1539 ( 47) -0.1539 ( 56)  0.1473 ( 67)
          -0.2178 ( 68) -0.2582 ( 69) -0.2178 ( 70) -0.1208 ( 80)
 CRD 11=   0.2916 (  6) -0.1506 (  7)  0.2884 (  8)  0.1467 ( 11) -0.4105 ( 14)
          -0.2189 ( 25)  0.2382 ( 28)  0.2382 ( 30) -0.2188 ( 32)  0.3271 ( 36)
          -0.3331 ( 41)  0.1164 ( 48)  0.1625 ( 53)  0.1625 ( 54)  0.1164 ( 55)
 CRD 12=  -0.1652 (  6)  0.3217 (  7)  0.2550 (  8)  0.1030 ( 11) -0.2686 ( 14)
          -0.1283 ( 24)  0.3072 ( 25) -0.2401 ( 28) -0.2401 ( 30) -0.1282 ( 31)
           0.3070 ( 32) -0.1364 ( 33) -0.1364 ( 34)  0.2933 ( 36) -0.1236 ( 42)
          -0.1236 ( 43)  0.1422 ( 49)  0.1247 ( 52)  0.1421 ( 57)
 CRD 13=   0.3943 ( 24) -0.3069 ( 25) -0.1160 ( 27) -0.1071 ( 28)  0.1070 ( 30)
          -0.3941 ( 31)  0.3069 ( 32)  0.1160 ( 35) -0.1338 ( 39)  0.1338 ( 40)
           0.1457 ( 47) -0.1457 ( 56)  0.1027 ( 58)  0.1027 ( 60)  0.2095 ( 61)
           0.1005 ( 68)  0.1005 ( 70)  0.2163 ( 80)  0.2095 ( 81)  0.1095 ( 83)
           0.1095 ( 84)  0.1027 ( 95)  0.1028 ( 97)
 CRD 14=  -0.1733 (  7)  0.3574 (  8)  0.1571 ( 11)  0.3490 ( 14) -0.1670 ( 33)
          -0.1670 ( 34)  0.4744 ( 36) -0.1161 ( 38)  0.1194 ( 39)  0.1194 ( 40)
           0.2894 ( 41)  0.1267 ( 45)  0.1267 ( 46) -0.1398 ( 53) -0.1398 ( 54)
           0.1034 ( 98) -0.1033 ( 99)
 CRD 15=   0.1373 (  3) -0.2573 (  6)  0.1039 (  8)  0.1374 ( 19)  0.4171 ( 24)
          -0.1370 ( 25)  0.1556 ( 26) -0.1969 ( 28) -0.1968 ( 30)  0.4172 ( 31)
          -0.1372 ( 32) -0.1365 ( 33) -0.1364 ( 34)  0.1187 ( 38) -0.2680 ( 41)
           0.1183 ( 42)  0.1184 ( 43)  0.1369 ( 47) -0.1252 ( 48)  0.1157 ( 50)
          -0.1252 ( 55)  0.1369 ( 56)
 CRD 16=  -0.1024 (  1)  0.1063 (  4)  0.1024 ( 18) -0.1063 ( 20)  0.3487 ( 25)
          -0.3589 ( 28)  0.3591 ( 30) -0.3487 ( 32) -0.1939 ( 33)  0.1939 ( 34)
           0.2203 ( 42) -0.2203 ( 43) -0.1818 ( 48)  0.1039 ( 49)  0.1819 ( 55)
          -0.1039 ( 57)  0.1022 ( 61) -0.2008 ( 67)  0.1022 ( 81)
 CRD 17=   0.1124 (  1)  0.1196 (  2) -0.1196 (  5)  0.1271 (  9) -0.1271 ( 10)
           0.1344 ( 15) -0.1344 ( 17) -0.1125 ( 18)  0.1121 ( 27)  0.2994 ( 28)
          -0.2995 ( 30) -0.1489 ( 33)  0.1488 ( 34) -0.1120 ( 35)  0.3678 ( 42)
          -0.3678 ( 43) -0.1102 ( 47) -0.1611 ( 53)  0.1611 ( 54)  0.1103 ( 56)
          -0.1038 ( 59)  0.1116 ( 61) -0.1811 ( 67) -0.1103 ( 69)  0.1488 ( 80)
           0.1116 ( 81) -0.1038 ( 90)
 CRD 18=  -0.1950 ( 24)  0.1858 ( 25)  0.1950 ( 31) -0.1858 ( 32)  0.3921 ( 33)
          -0.3922 ( 34) -0.3186 ( 39)  0.3187 ( 40)  0.2323 ( 61)  0.1002 ( 67)
           0.1904 ( 80)  0.2323 ( 81) -0.1850 ( 98) -0.1850 ( 99)
 CRD 19=   0.1953 (  7)  0.1620 ( 12)  0.1620 ( 13)  0.2000 ( 14) -0.1646 ( 16)
          -0.1435 ( 24)  0.1267 ( 27) -0.2365 ( 29) -0.1436 ( 31)  0.1267 ( 35)
          -0.4540 ( 41)  0.3345 ( 42)  0.3346 ( 43) -0.1410 ( 51) -0.2971 ( 52)
 CRD 20=   0.1975 (  9) -0.1975 ( 10)  0.2772 ( 12) -0.2772 ( 13) -0.1238 ( 15)
           0.1238 ( 17)  0.1766 ( 27) -0.1513 ( 33)  0.1513 ( 34) -0.1766 ( 35)
          -0.2335 ( 42)  0.2335 ( 43)  0.1262 ( 53) -0.1262 ( 54)  0.1463 ( 59)
           0.1210 ( 61) -0.1791 ( 67) -0.1732 ( 68) -0.1849 ( 69) -0.1732 ( 70)
           0.1553 ( 71)  0.1553 ( 73)  0.2047 ( 78)  0.1385 ( 80)  0.1210 ( 81)
           0.1463 ( 90)
 CRD 21=   0.1074 (  1) -0.1104 (  4) -0.1476 (  9)  0.1480 ( 10) -0.1452 ( 12)
           0.1447 ( 13) -0.1076 ( 18)  0.1107 ( 20)  0.2211 ( 64)  0.1923 ( 65)
           0.2205 ( 66)  0.2236 ( 72)  0.2236 ( 74)  0.1948 ( 75)  0.2230 ( 76)
           0.2242 ( 77)  0.1954 ( 79)  0.2227 ( 82)  0.2220 ( 85)  0.1932 ( 86)
           0.2214 ( 87)  0.2221 ( 88)  0.1939 ( 89)  0.2217 ( 91)  0.1929 ( 94)
           0.2210 ( 96)
 CRD 22=   0.1611 (  9)  0.1606 ( 10) -0.1735 ( 12) -0.1739 ( 13) -0.1901 ( 64)
          -0.2097 ( 65) -0.1901 ( 66)  0.2069 ( 72) -0.2076 ( 74) -0.2271 ( 75)
          -0.2075 ( 76)  0.2069 ( 77)  0.2266 ( 79)  0.2099 ( 82) -0.2105 ( 85)
          -0.2301 ( 86) -0.2105 ( 87)  0.2098 ( 88)  0.2295 ( 89)  0.1895 ( 91)
           0.2091 ( 94)  0.1894 ( 96)
 CRD 23=   0.3705 (  1)  0.2915 (  3)  0.3560 (  4) -0.3710 ( 18) -0.2921 ( 19)
          -0.3566 ( 20) -0.1520 ( 24) -0.1222 ( 25) -0.1202 ( 28)  0.1204 ( 30)
           0.1522 ( 31)  0.1224 ( 32)  0.1124 ( 47)  0.1427 ( 48)  0.1393 ( 49)
          -0.1429 ( 55) -0.1126 ( 56) -0.1396 ( 57)
 CRD 24=  -0.3462 (  1) -0.1162 (  2) -0.3745 (  3) -0.3467 (  4) -0.1160 (  5)
          -0.3456 ( 18) -0.3740 ( 19) -0.3461 ( 20)  0.1150 ( 24)  0.1381 ( 25)
           0.1386 ( 28)  0.1385 ( 30)  0.1147 ( 31)  0.1379 ( 32) -0.1423 ( 47)
          -0.1245 ( 48) -0.1249 ( 49) -0.1243 ( 55) -0.1421 ( 56) -0.1247 ( 57)
 CRD 25=   0.1811 ( 14)  0.5099 ( 15)  0.4881 ( 16)  0.5099 ( 17) -0.1875 ( 41)
          -0.1704 ( 42) -0.1704 ( 43)  0.1674 ( 52)  0.1804 ( 53)  0.1804 ( 54)
 CRD 26=  -0.1518 (  3)  0.3081 ( 12) -0.3081 ( 13)  0.1518 ( 19) -0.1467 ( 27)
           0.1467 ( 35) -0.2869 ( 45)  0.2869 ( 46) -0.2483 ( 62) -0.2483 ( 63)
          -0.1047 ( 68) -0.1214 ( 69) -0.1047 ( 70) -0.2355 ( 71) -0.2355 ( 73)
          -0.2483 ( 92) -0.2483 ( 93) -0.1086 (100) -0.1086 (101) -0.1253 (102)
          -0.1086 (103) -0.1086 (104) -0.1253 (105)
 CRD 27=  -0.1594 (  3) -0.3791 (  9)  0.3791 ( 10)  0.1043 ( 12) -0.1043 ( 13)
           0.1594 ( 19)  0.2373 ( 39) -0.2373 ( 40)  0.2850 ( 58)  0.2850 ( 60)
           0.1365 ( 67)  0.2674 ( 83)  0.2674 ( 84)  0.2850 ( 95)  0.2850 ( 97)
 CRD 28=  -0.6027 (  9) -0.6027 ( 10)  0.1148 ( 33)  0.1148 ( 34)  0.1792 ( 36)
          -0.2595 ( 50) -0.1499 ( 98)  0.1499 ( 99)
 CRD 29=   0.1853 ( 12)  0.1853 ( 13)  0.2886 ( 15) -0.6258 ( 16)  0.2886 ( 17)
           0.3295 ( 52) -0.1582 ( 53) -0.1582 ( 54)  0.1679 ( 68) -0.1679 ( 70)
           0.1866 (100) -0.1493 (101)  0.1493 (103) -0.1866 (104)
 CRD 30=   0.5481 ( 15) -0.5481 ( 17)  0.2976 ( 53) -0.2976 ( 54) -0.2254 ( 69)
          -0.2206 (102) -0.2206 (105)
 CRD 31=   0.2203 (  1) -0.4442 (  3)  0.2353 (  4)  0.2230 ( 18) -0.4467 ( 19)
           0.2350 ( 20)  0.2411 ( 47) -0.1182 ( 48) -0.1262 ( 49) -0.1197 ( 55)
           0.2425 ( 56) -0.1260 ( 57)  0.1282 ( 64) -0.1305 ( 66)  0.1333 ( 72)
           0.1251 ( 74) -0.1336 ( 76) -0.1240 ( 77) -0.1287 ( 82)  0.1298 ( 85)
          -0.1289 ( 87)  0.1286 ( 88) -0.1271 ( 91)  0.1302 ( 96)
 CRD 32=  -0.4396 (  1)  0.2068 (  3)  0.2359 (  4)  0.4375 ( 18) -0.2041 ( 19)
          -0.2365 ( 20) -0.1147 ( 47)  0.2460 ( 48) -0.1321 ( 49) -0.2448 ( 55)
           0.1132 ( 56)  0.1325 ( 57)  0.1524 ( 64) -0.1063 ( 65)  0.1407 ( 74)
          -0.1179 ( 75)  0.1416 ( 77) -0.1183 ( 79)  0.1463 ( 82)  0.1454 ( 85)
          -0.1133 ( 86) -0.1136 ( 89)  0.1532 ( 91) -0.1067 ( 94)
 CRD 33=   0.3879 (  1) -0.3769 (  4)  0.3888 ( 18) -0.3767 ( 20) -0.2121 ( 48)
           0.2081 ( 49) -0.2126 ( 55)  0.2080 ( 57) -0.1846 ( 65) -0.1644 ( 75)
           0.1642 ( 79) -0.1635 ( 86)  0.1634 ( 89)  0.1845 ( 94)
 CRD 34=  -0.3871 (  3)  0.3609 (  4)  0.3857 ( 19) -0.3609 ( 20)  0.2206 ( 47)
          -0.2086 ( 49) -0.2198 ( 56)  0.2086 ( 57)  0.1657 ( 66)  0.1663 ( 72)
           0.1660 ( 76)  0.1566 ( 87)  0.1569 ( 88)  0.1660 ( 96)
 CRD 35=   0.5722 ( 12)  0.5722 ( 13) -0.1460 ( 15)  0.1679 ( 16) -0.1460 ( 17)
           0.2301 ( 51) -0.1007 ( 62)  0.1035 ( 63)  0.1021 ( 71) -0.1021 ( 73)
           0.1007 ( 92) -0.1035 ( 93)  0.1462 (101) -0.1462 (103)
 CRD 36=  -0.3696 ( 12)  0.3696 ( 13) -0.1240 ( 27)  0.1240 ( 35) -0.1598 ( 68)
          -0.1581 ( 69) -0.1598 ( 70) -0.2861 (100) -0.2861 (101) -0.2844 (102)
          -0.2861 (103) -0.2861 (104) -0.2844 (105)
 CRD 37=  -0.6230 (  8)  0.1059 ( 26)  0.6004 ( 36) -0.1653 ( 39) -0.1653 ( 40)
           0.2358 ( 50) -0.1340 ( 58)  0.1479 ( 60)  0.1410 ( 83) -0.1410 ( 84)
           0.1340 ( 95) -0.1479 ( 97)
 CRD 38=   0.7785 ( 11)  0.1688 ( 33)  0.1688 ( 34) -0.1031 ( 36) -0.1251 ( 65)
           0.1251 ( 94) -0.1166 ( 98)  0.1166 ( 99)
 CRD 39=  -0.2182 (  3)  0.3389 (  9) -0.3389 ( 10)  0.2182 ( 19) -0.1531 ( 24)
           0.1531 ( 31)  0.1575 ( 48)  0.1591 ( 49) -0.1575 ( 55) -0.1591 ( 57)
           0.1048 ( 58)  0.1048 ( 60)  0.2410 ( 67)  0.1165 ( 68)  0.1158 ( 69)
           0.1165 ( 70)  0.1048 ( 95)  0.1049 ( 97)  0.2256 ( 98)  0.2256 ( 99)
           0.1115 (100)  0.1115 (101)  0.1108 (102)  0.1115 (103)  0.1115 (104)
           0.1108 (105)
 CRD 40=  -0.2069 (  1)  0.2123 (  6)  0.1120 (  7) -0.4044 ( 11) -0.1188 ( 15)
          -0.1987 ( 16) -0.1188 ( 17) -0.2069 ( 18) -0.1377 ( 28) -0.1377 ( 30)
           0.1314 ( 36) -0.1626 ( 41) -0.1341 ( 42) -0.1342 ( 43)  0.1680 ( 45)
           0.1680 ( 46)  0.1485 ( 47)  0.1174 ( 49) -0.1077 ( 51)  0.1664 ( 53)
           0.1664 ( 54)  0.1485 ( 56)  0.1174 ( 57)  0.1886 ( 62) -0.1085 ( 65)
          -0.1180 ( 71)  0.1180 ( 73) -0.1011 ( 82)  0.1010 ( 85) -0.1886 ( 92)
           0.1085 ( 94)
 CRD 41=   0.1194 (  1) -0.1307 (  2)  0.2713 (  4) -0.1305 (  5) -0.1586 (  7)
           0.1927 (  8) -0.2218 ( 11) -0.1192 ( 16)  0.1194 ( 18)  0.2712 ( 20)
           0.1100 ( 24)  0.1940 ( 25) -0.1099 ( 27)  0.1359 ( 28)  0.1359 ( 30)
           0.1099 ( 31)  0.1940 ( 32) -0.1099 ( 35)  0.1111 ( 38) -0.2340 ( 47)
          -0.1651 ( 48)  0.1097 ( 50) -0.1650 ( 55) -0.2339 ( 56)  0.1258 ( 60)
          -0.1397 ( 72)  0.1397 ( 76) -0.1257 ( 97)
 CRD 42=  -0.1140 (  1)  0.1964 (  2) -0.1574 (  3) -0.1292 (  4) -0.1964 (  5)
          -0.1985 (  9)  0.1984 ( 10)  0.1141 ( 18)  0.1574 ( 19)  0.1294 ( 20)
          -0.1498 ( 24) -0.1350 ( 25) -0.1401 ( 28)  0.1402 ( 30)  0.1499 ( 31)
           0.1351 ( 32)  0.1224 ( 47)  0.1584 ( 48)  0.1441 ( 49) -0.1585 ( 55)
          -0.1226 ( 56) -0.1441 ( 57) -0.4042 ( 67) -0.3265 ( 98) -0.3265 ( 99)
 CRD 43=  -0.1300 (  1) -0.1738 (  7)  0.1954 (  8) -0.2351 ( 11) -0.3754 ( 14)
           0.2058 ( 15)  0.1972 ( 16)  0.2058 ( 17) -0.1300 ( 18)  0.1192 ( 26)
          -0.1327 ( 39) -0.1327 ( 40)  0.2204 ( 41)  0.2182 ( 42)  0.2182 ( 43)
           0.1045 ( 49) -0.2241 ( 52) -0.2163 ( 53) -0.2163 ( 54)  0.1045 ( 57)
          -0.1155 ( 65)  0.1155 ( 94) -0.1074 ( 98)  0.1075 ( 99)
 CRD 44=   0.3539 (  2) -0.2438 (  3)  0.3538 (  5) -0.1019 (  7) -0.1370 (  9)
          -0.1370 ( 10) -0.2438 ( 19) -0.1310 ( 24) -0.1012 ( 25) -0.1112 ( 28)
          -0.1112 ( 30) -0.1310 ( 31) -0.1012 ( 32) -0.1215 ( 33) -0.1215 ( 34)
          -0.1256 ( 36)  0.1434 ( 48)  0.1992 ( 49)  0.2046 ( 50)  0.1232 ( 51)
           0.1434 ( 55)  0.1993 ( 57) -0.1298 ( 72)  0.1298 ( 76)  0.1002 ( 82)
          -0.1002 ( 85)  0.1499 ( 98) -0.1498 ( 99)  0.1031 (101) -0.1032 (103)
 CRD 45=   0.1477 (  1) -0.3401 (  2)  0.1213 (  4)  0.3402 (  5) -0.2543 ( 12)
           0.2542 ( 13) -0.1684 ( 15)  0.1684 ( 17) -0.1478 ( 18) -0.1213 ( 20)
          -0.1796 ( 47)  0.1331 ( 53) -0.1331 ( 54)  0.1796 ( 56) -0.1845 ( 67)
          -0.1104 ( 69) -0.1528 ( 98) -0.1529 ( 99)  0.1677 (100)  0.1677 (101)
           0.1677 (103)  0.1677 (104)
 CRD 46=   0.1383 (  2) -0.1097 (  3)  0.1384 (  5) -0.4394 (  6) -0.1801 (  7)
           0.2411 (  8) -0.1470 ( 11)  0.2938 ( 14) -0.1240 ( 15) -0.1240 ( 17)
          -0.1097 ( 19)  0.1250 ( 26)  0.1819 ( 33)  0.1820 ( 34)  0.1342 ( 36)
          -0.1927 ( 39) -0.1928 ( 40) -0.1006 ( 45) -0.1006 ( 46)  0.1066 ( 48)
          -0.1034 ( 50)  0.1704 ( 52)  0.1066 ( 55) -0.1814 ( 98)  0.1813 ( 99)
          -0.1337 (101)  0.1337 (103)
 CRD 47=  -0.1320 (  1)  0.1195 (  4)  0.2727 (  6) -0.3381 (  7)  0.1474 ( 14)
          -0.1594 ( 15)  0.2447 ( 16) -0.1594 ( 17) -0.1320 ( 18)  0.1195 ( 20)
           0.1623 ( 27)  0.1623 ( 35) -0.1080 ( 48)  0.1060 ( 50) -0.1651 ( 51)
           0.2408 ( 52) -0.1080 ( 55)  0.1394 ( 68) -0.1394 ( 70)  0.1046 ( 98)
          -0.1046 ( 99) -0.2783 (101) -0.1389 (102)  0.2783 (103)  0.1389 (105)
 CRD 48=  -0.1573 (  2)  0.1034 (  4)  0.1573 (  5)  0.1245 (  9) -0.1245 ( 10)
           0.1254 ( 12) -0.1254 ( 13)  0.2678 ( 15) -0.2678 ( 17) -0.1034 ( 20)
          -0.1041 ( 27)  0.1041 ( 35)  0.1071 ( 39) -0.1071 ( 40) -0.1136 ( 47)
          -0.2093 ( 53)  0.2093 ( 54)  0.1136 ( 56) -0.1135 ( 61) -0.1427 ( 67)
           0.2790 ( 69) -0.1979 ( 80) -0.1135 ( 81)  0.1001 ( 82)  0.1001 ( 85)
          -0.2360 ( 98) -0.2360 ( 99) -0.1400 (100) -0.1400 (101)  0.1637 (102)
          -0.1400 (103) -0.1400 (104)  0.1637 (105)
 CRD 49=   0.1347 (  1)  0.1131 (  7) -0.3366 ( 14)  0.2860 ( 16)  0.1347 ( 18)
          -0.1167 ( 27) -0.1167 ( 35)  0.1035 ( 42)  0.1034 ( 43)  0.1899 ( 45)
           0.1899 ( 46)  0.1050 ( 48) -0.1447 ( 51)  0.1523 ( 52) -0.1411 ( 53)
          -0.1412 ( 54)  0.1051 ( 55)  0.1742 ( 62) -0.1461 ( 63) -0.1358 ( 64)
           0.1566 ( 68) -0.1566 ( 70) -0.1601 ( 71)  0.1601 ( 73) -0.1086 ( 74)
           0.1086 ( 77)  0.1607 ( 82) -0.1607 ( 85)  0.1358 ( 91) -0.1742 ( 92)
           0.1461 ( 93)  0.1843 (100) -0.1289 (101)  0.1289 (103) -0.1843 (104)
 CRD 50=   0.2685 (  1) -0.2519 (  4) -0.2685 ( 18)  0.2519 ( 20)  0.1139 ( 25)
          -0.1193 ( 28)  0.1193 ( 30) -0.1139 ( 32)  0.2072 ( 48) -0.1960 ( 49)
          -0.2072 ( 55)  0.1960 ( 57) -0.2816 ( 65) -0.2321 ( 75) -0.2321 ( 79)
          -0.2305 ( 86) -0.2305 ( 89) -0.2816 ( 94)
 CRD 51=   0.1670 (  3) -0.1591 (  4)  0.3141 (  8) -0.1758 (  9) -0.1760 ( 10)
           0.1668 ( 19) -0.1589 ( 20) -0.1087 ( 23) -0.1463 ( 26) -0.1103 ( 39)
          -0.1104 ( 40)  0.1309 ( 47) -0.1215 ( 49)  0.2759 ( 50)  0.1308 ( 56)
          -0.1213 ( 57) -0.1600 ( 58)  0.2337 ( 60) -0.1811 ( 66)  0.2040 ( 72)
          -0.2039 ( 76)  0.1969 ( 83) -0.1968 ( 84) -0.1546 ( 87)  0.1548 ( 88)
           0.1601 ( 95)  0.1812 ( 96) -0.2336 ( 97)  0.1013 ( 98) -0.1015 ( 99)
 CRD 52=  -0.1000 (  1)  0.2359 (  3) -0.1222 (  4)  0.1904 (  9) -0.1902 ( 10)
           0.1000 ( 18) -0.2360 ( 19)  0.1223 ( 20) -0.1083 ( 24)  0.1084 ( 31)
           0.1400 ( 39) -0.1399 ( 40)  0.1732 ( 47) -0.1036 ( 49) -0.1733 ( 56)
           0.1037 ( 57)  0.1538 ( 58)  0.1536 ( 60) -0.1415 ( 64)  0.1475 ( 66)
           0.1523 ( 72) -0.1366 ( 74)  0.1524 ( 76) -0.1366 ( 77) -0.1161 ( 80)
          -0.1144 ( 82)  0.1045 ( 83)  0.1046 ( 84) -0.1145 ( 85)  0.1745 ( 87)
           0.1744 ( 88) -0.1415 ( 91)  0.1536 ( 95)  0.1473 ( 96)  0.1538 ( 97)
          -0.2285 ( 98) -0.2285 ( 99)
 CRD 53=   0.1810 (  7) -0.1571 ( 12) -0.1571 ( 13)  0.1003 ( 14) -0.1100 ( 15)
           0.1972 ( 16) -0.1101 ( 17) -0.1737 ( 29) -0.1859 ( 41)  0.2586 ( 51)
           0.1692 ( 52) -0.1518 ( 62)  0.1158 ( 64)  0.1516 ( 68) -0.1516 ( 70)
           0.1072 ( 71) -0.1071 ( 73)  0.1276 ( 74) -0.1276 ( 77) -0.1158 ( 91)
           0.1518 ( 92)  0.3352 (100)  0.1836 (102) -0.3352 (104) -0.1835 (105)
 CRD 54=   0.1731 (  9) -0.1731 ( 10)  0.1580 ( 12) -0.1581 ( 13) -0.1959 ( 15)
           0.1959 ( 17) -0.1016 ( 22)  0.1135 ( 33) -0.1135 ( 34)  0.1016 ( 37)
           0.1155 ( 39) -0.1155 ( 40)  0.1425 ( 42) -0.1424 ( 43)  0.1437 ( 45)
          -0.1437 ( 46)  0.1508 ( 53) -0.1508 ( 54) -0.1128 ( 59) -0.1898 ( 61)
           0.1617 ( 68) -0.1102 ( 69)  0.1616 ( 70)  0.1171 ( 74)  0.1171 ( 77)
          -0.2348 ( 78) -0.1325 ( 80) -0.1898 ( 81) -0.1128 ( 90) -0.1868 ( 98)
          -0.1868 ( 99) -0.2646 (102) -0.2646 (105)
 CRD 55=   0.1252 (  1) -0.1342 (  4)  0.1968 (  6) -0.2165 (  7) -0.1058 (  8)
           0.1252 ( 18) -0.1342 ( 20)  0.1445 ( 21) -0.1445 ( 22)  0.1336 ( 25)
          -0.1268 ( 28) -0.1268 ( 30)  0.1336 ( 32) -0.1445 ( 37)  0.1445 ( 44)
          -0.1006 ( 49) -0.1006 ( 57)  0.1702 ( 58)  0.1416 ( 63) -0.2373 ( 64)
          -0.2496 ( 66)  0.2302 ( 75) -0.2302 ( 79)  0.2139 ( 86) -0.2139 ( 89)
           0.2373 ( 91) -0.1416 ( 93) -0.1702 ( 95)  0.2496 ( 96)
 CRD 56=  -0.1389 (  2) -0.1039 (  3) -0.1390 (  5)  0.1552 (  6)  0.1664 (  7)
           0.1039 (  8)  0.1265 ( 14) -0.1039 ( 19)  0.1907 ( 23)  0.1229 ( 24)
          -0.1177 ( 26) -0.1531 ( 29)  0.1229 ( 31) -0.2016 ( 38)  0.1453 ( 51)
          -0.1995 ( 58)  0.1241 ( 59) -0.1128 ( 61)  0.2343 ( 63)  0.1102 ( 71)
          -0.1102 ( 73) -0.2034 ( 74) -0.1066 ( 75)  0.2034 ( 77)  0.1066 ( 79)
           0.1128 ( 81)  0.1370 ( 86)  0.2127 ( 87) -0.2127 ( 88) -0.1370 ( 89)
          -0.1241 ( 90) -0.2343 ( 93)  0.1995 ( 95)  0.1022 (100) -0.1022 (104)
 CRD 57=   0.1851 (  2) -0.1850 (  5) -0.1578 ( 12)  0.1578 ( 13) -0.1417 ( 21)
          -0.1211 ( 22)  0.1432 ( 27)  0.1100 ( 33) -0.1100 ( 34) -0.1432 ( 35)
           0.1211 ( 37)  0.1417 ( 44) -0.1052 ( 45)  0.1052 ( 46)  0.2145 ( 59)
          -0.1595 ( 61) -0.2074 ( 68) -0.2074 ( 70) -0.2371 ( 71) -0.2370 ( 73)
           0.1215 ( 74)  0.1215 ( 77) -0.1596 ( 81)  0.2278 ( 83)  0.2278 ( 84)
          -0.1349 ( 87) -0.1349 ( 88)  0.2145 ( 90)  0.1491 (102)  0.1491 (105)

 THE DETERMINANT OF THE G MATRIX IS 10**(   -20)


                     --------------------
                     INTERNAL COORDINATES
                     --------------------

                 - - ATOMS - -         COORDINATE      COORDINATE
 NO.   TYPE    I  J  K  L  M  N        (BOHR,RAD)       (ANG,DEG)
 ----------------------------------------------------------------
   1 STRETCH   1  9                     2.0597761       1.0899867
   2 STRETCH   1  2                     2.8911773       1.5299453
   3 STRETCH   1 10                     2.0598381       1.0900194
   4 STRETCH   1  8                     2.0597665       1.0899816
   5 STRETCH   2  7                     2.8911773       1.5299453
   6 STRETCH   2  3                     2.8912339       1.5299752
   7 STRETCH   2  5                     2.8914360       1.5300821
   8 STRETCH   3  4                     2.7005357       1.4290620
   9 STRETCH   3 12                     2.0598381       1.0900194
  10 STRETCH   3 11                     2.0598381       1.0900194
  11 STRETCH   4 13                     1.8274149       0.9670264
  12 STRETCH   5 15                     2.0598381       1.0900194
  13 STRETCH   5 14                     2.0598381       1.0900194
  14 STRETCH   5  6                     2.8913910       1.5300583
  15 STRETCH   6 16                     2.0598352       1.0900179
  16 STRETCH   6 18                     2.0598797       1.0900415
  17 STRETCH   6 17                     2.0598352       1.0900179
  18 STRETCH   7 21                     2.0597761       1.0899867
  19 STRETCH   7 20                     2.0598381       1.0900194
  20 STRETCH   7 19                     2.0597665       1.0899816
  21 BEND      1  2  5                  1.9106140     109.4701184
  22 BEND      1  2  3                  1.9106807     109.4739407
  23 BEND      1  2  7                  1.9106444     109.4718586
  24 BEND      2  1 10                  1.9106433     109.4717998
  25 BEND      2  1  8                  1.9105973     109.4691633
  26 BEND      2  3  4                  1.9105859     109.4685101
  27 BEND      2  5 15                  1.9106147     109.4701597
  28 BEND      2  1  9                  1.9106805     109.4739263
  29 BEND      2  5  6                  1.9106019     109.4694276
  30 BEND      2  7 21                  1.9107599     109.4784787
  31 BEND      2  7 20                  1.9106433     109.4717998
  32 BEND      2  7 19                  1.9106768     109.4737156
  33 BEND      2  3 11                  1.9106810     109.4739583
  34 BEND      2  3 12                  1.9106810     109.4739583
  35 BEND      2  5 14                  1.9106147     109.4701597
  36 BEND      3  4 13                  1.9896431     113.9981529
  37 BEND      3  2  7                  1.9106807     109.4739407
  38 BEND      3  2  5                  1.9105656     109.4673467
  39 BEND      4  3 11                  1.9106046     109.4695779
  40 BEND      4  3 12                  1.9106046     109.4695779
  41 BEND      5  6 18                  1.9105618     109.4671273
  42 BEND      5  6 16                  1.9105825     109.4683108
  43 BEND      5  6 17                  1.9105825     109.4683108
  44 BEND      5  2  7                  1.9106140     109.4701184
  45 BEND      6  5 14                  1.9106629     109.4729179
  46 BEND      6  5 15                  1.9106629     109.4729179
  47 BEND      8  1  9                  1.9105995     109.4692857
  48 BEND      8  1 10                  1.9105980     109.4692046
  49 BEND      9  1 10                  1.9106808     109.4739439
  50 BEND     11  3 12                  1.9106423     109.4717410
  51 BEND     14  5 15                  1.9106423     109.4717410
  52 BEND     16  6 17                  1.9106463     109.4719667
  53 BEND     16  6 18                  1.9107132     109.4758038
  54 BEND     17  6 18                  1.9107132     109.4758038
  55 BEND     19  7 20                  1.9105186     109.4646523
  56 BEND     19  7 21                  1.9105995     109.4692850
  57 BEND     20  7 21                  1.9106013     109.4693915
  58 TORSION   1  2  3 11               1.0471268      59.9959481
  59 TORSION   1  2  5  6               1.0471926      59.9997157
  60 TORSION   1  2  3 12               3.1415916     179.9999387
  61 TORSION   1  2  3  4              -1.0472334     -60.0020566
  62 TORSION   1  2  5 14              -3.1415918    -179.9999533
  63 TORSION   1  2  5 15              -1.0472083     -60.0006153
  64 TORSION   1  2  7 19               1.0473054      60.0061766
  65 TORSION   1  2  7 20              -3.1415924    -179.9999855
  66 TORSION   1  2  7 21              -1.0471526     -59.9974260
  67 TORSION   2  3  4 13               3.1415927     180.0000000
  68 TORSION   2  5  6 17               1.0471744      59.9986752
  69 TORSION   2  5  6 18               3.1415927     180.0000000
  70 TORSION   2  5  6 16              -1.0471744     -59.9986752
  71 TORSION   3  2  5 15               1.0471918      59.9996690
  72 TORSION   3  2  1  9              -3.1415922    -179.9999735
  73 TORSION   3  2  5 14              -1.0471918     -59.9996690
  74 TORSION   3  2  7 19              -1.0471838     -59.9992115
  75 TORSION   3  2  7 20               1.0471038      59.9946264
  76 TORSION   3  2  7 21               3.1415435     179.9971858
  77 TORSION   3  2  1  8               1.0472324      60.0019994
  78 TORSION   3  2  5  6               3.1415927     180.0000000
  79 TORSION   3  2  1 10              -1.0471038     -59.9946264
  80 TORSION   4  3  2  5               3.1415927     180.0000000
  81 TORSION   4  3  2  7               1.0472334      60.0020566
  82 TORSION   5  2  1  8               3.1415620     179.9982455
  83 TORSION   5  2  3 12               1.0472324      60.0019953
  84 TORSION   5  2  3 11              -1.0472324     -60.0019953
  85 TORSION   5  2  7 19              -3.1415134    -179.9954576
  86 TORSION   5  2  7 20              -1.0472258     -60.0016197
  87 TORSION   5  2  7 21               1.0472140      60.0009397
  88 TORSION   5  2  1  9              -1.0472626     -60.0037274
  89 TORSION   5  2  1 10               1.0472258      60.0016197
  90 TORSION   6  5  2  7              -1.0471926     -59.9997157
  91 TORSION   7  2  1  8              -1.0472567     -60.0033888
  92 TORSION   7  2  5 15               3.1415918     179.9999533
  93 TORSION   7  2  5 14               1.0472083      60.0006153
  94 TORSION   7  2  1 10               3.1415924     179.9999855
  95 TORSION   7  2  3 12              -1.0471268     -59.9959481
  96 TORSION   7  2  1  9               1.0471040      59.9946384
  97 TORSION   7  2  3 11              -3.1415916    -179.9999387
  98 TORSION  11  3  4 13               1.0471856      59.9993128
  99 TORSION  12  3  4 13              -1.0471856     -59.9993128
 100 TORSION  14  5  6 17              -1.0471970     -59.9999667
 101 TORSION  14  5  6 16              -3.1415458    -179.9973171
 102 TORSION  14  5  6 18               1.0472213      60.0013581
 103 TORSION  15  5  6 17               3.1415458     179.9973171
 104 TORSION  15  5  6 16               1.0471970      59.9999667
 105 TORSION  15  5  6 18              -1.0472213     -60.0013581

     ------------------------------------------
     THE POINT GROUP IS C1 , NAXIS= 1, ORDER= 1
     ------------------------------------------

     DIMENSIONS OF THE SYMMETRY SUBSPACES ARE
 A   =  217

 ..... DONE SETTING UP THE RUN .....
 STEP CPU TIME =     0.02 TOTAL CPU TIME =        0.0 (    0.0 MIN)
 TOTAL WALL CLOCK TIME=        0.0 SECONDS, CPU UTILIZATION IS 100.00%


          -----------------------------
          STATIONARY POINT LOCATION RUN
          -----------------------------

 OBTAINING INITIAL HESSIAN, HESS=GUESS   
 DIAGONAL GUESS HESSIAN IN INTERNAL COORDS IS
     1  0.3464     2  0.3672     3  0.3464     4  0.3464     5  0.3672
     6  0.3672     7  0.3671     8  0.3608     9  0.3464    10  0.3464
    11  0.3552    12  0.3464    13  0.3464    14  0.3671    15  0.3464
    16  0.3463    17  0.3464    18  0.3464    19  0.3464    20  0.3464
    21  0.2485    22  0.2485    23  0.2485    24  0.2241    25  0.2241
    26  0.2430    27  0.2241    28  0.2241    29  0.2485    30  0.2241
    31  0.2241    32  0.2241    33  0.2241    34  0.2241    35  0.2241
    36  0.2143    37  0.2485    38  0.2485    39  0.2194    40  0.2194
    41  0.2241    42  0.2241    43  0.2241    44  0.2485    45  0.2241
    46  0.2241    47  0.2034    48  0.2034    49  0.2034    50  0.2034
    51  0.2034    52  0.2034    53  0.2034    54  0.2034    55  0.2034
    56  0.2034    57  0.2034    58  0.2500    59  0.2500    60  0.2500
    61  0.2500    62  0.2500    63  0.2500    64  0.2500    65  0.2500
    66  0.2500    67  0.2500    68  0.2500    69  0.2500    70  0.2500
    71  0.2500    72  0.2500    73  0.2500    74  0.2500    75  0.2500
    76  0.2500    77  0.2500    78  0.2500    79  0.2500    80  0.2500
    81  0.2500    82  0.2500    83  0.2500    84  0.2500    85  0.2500
    86  0.2500    87  0.2500    88  0.2500    89  0.2500    90  0.2500
    91  0.2500    92  0.2500    93  0.2500    94  0.2500    95  0.2500
    96  0.2500    97  0.2500    98  0.2500    99  0.2500   100  0.2500
   101  0.2500   102  0.2500   103  0.2500   104  0.2500   105  0.2500
 TRANSFORMING HESSIAN TO SYMMETRY COORDINATES

          PARAMETERS CONTROLLING GEOMETRY SEARCH ARE
          METHOD =QA                  UPHESS =BFGS    
          NNEG   =         0          NFRZ   =         3
          NSTEP  =        50          IFOLOW =         1
          HESS   =GUESS               RESTAR =         F
          IHREP  =         0          HSSEND =         F
          NPRT   =         0          NPUN   =         0
          OPTTOL = 5.000E-04          RMIN   = 1.500E-03
          RMAX   = 1.000E-01          RLIM   = 7.000E-02
          DXMAX  = 3.000E-01          PURIFY =         F
          MOVIE  =         F          TRUPD  =         T
          TRMAX  = 5.000E-01          TRMIN  = 5.000E-02
          ITBMAT =         5          STPT   =         F
          STSTEP = 1.000E-02          PROJCT=          F
          FROZEN COORD(S)=   1   2   3


      ***** EQUILIBRIUM GEOMETRY LOCATED *****
            (SUBJECT TO   3 CONSTRAINT(S))
 COORDINATES OF ALL ATOMS ARE (ANGS)
   ATOM   CHARGE       X              Y              Z
 ------------------------------------------------------------
 C           6.0  -0.0552225100   1.2713141689  -0.8792068395
 C           6.0  -0.0234637412  -0.0000066457  -0.0146634235
 C           6.0   1.2493559745  -0.0000003823   0.8352527475
 O           8.0   2.3842562685   0.0000025252  -0.0047105229
 C           6.0  -1.2618852169   0.0000018410   0.9076484550
 C           6.0  -2.5439150022   0.0000011819   0.0718760849
 C           6.0  -0.0552194873  -1.2713274314  -0.8792044966
 H           1.0   0.7956910120   1.3265506032  -1.5440947642
 H           1.0  -0.9485526442   1.3107980149  -1.4883567352
 H           1.0  -0.0571641146   2.1549929774  -0.2431764663
 H           1.0   1.2670261899   0.8796869612   1.4757038871
 H           1.0   1.2670309194  -0.8797056776   1.4756974348
 H           1.0   3.1608883341   0.0000285848   0.5284811626
 H           1.0  -1.2398160074  -0.8725610640   1.5596263855
 H           1.0  -1.2398265850   0.8725584804   1.5596353381
 H           1.0  -2.5712990676   0.8703604995  -0.5706691954
 H           1.0  -2.5712998782  -0.8703539717  -0.5706689872
 H           1.0  -3.4430728515   0.0000329344   0.6714053395
 H           1.0   0.7957021007  -1.3265854018  -1.5440818179
 H           1.0  -0.0571851134  -2.1550099127  -0.2431704277
 H           1.0  -0.9485454754  -1.3108275032  -1.4883599753


                     --------------------
                     INTERNAL COORDINATES
                     --------------------

                 - - ATOMS - -         COORDINATE      COORDINATE
 NO.   TYPE    I  J  K  L  M  N        (BOHR,RAD)       (ANG,DEG)
 ----------------------------------------------------------------
   1 STRETCH   1  9                     2.0446288       1.0819710
   2 STRETCH   1  2                     2.9059418       1.5377583
   3 STRETCH   1 10                     2.0574826       1.0887730
   4 STRETCH   1  8                     2.0433355       1.0812867
   5 STRETCH   2  7                     2.9059391       1.5377569
   6 STRETCH   2  3                     2.8922239       1.5304991
   7 STRETCH   2  5                     2.9179884       1.5441331
   8 STRETCH   3  4                     2.6681546       1.4119267
   9 STRETCH   3 12                     2.0565595       1.0882845
  10 STRETCH   3 11                     2.0565392       1.0882737
  11 STRETCH   4 13                     1.7802089       0.9420460
  12 STRETCH   5 15                     2.0587856       1.0894625
  13 STRETCH   5 14                     2.0587854       1.0894624
  14 STRETCH   5  6                     2.8920315       1.5303973
  15 STRETCH   6 16                     2.0450465       1.0821921
  16 STRETCH   6 18                     2.0422336       1.0807036
  17 STRETCH   6 17                     2.0450399       1.0821886
  18 STRETCH   7 21                     2.0446294       1.0819713
  19 STRETCH   7 20                     2.0574924       1.0887782
  20 STRETCH   7 19                     2.0433373       1.0812876
  21 BEND      1  2  5                  1.8957240     108.6169862
  22 BEND      1  2  3                  1.9064416     109.2310558
  23 BEND      1  2  7                  1.9465648     111.5299484
  24 BEND      2  1 10                  1.9204922     110.0360973
  25 BEND      2  1  8                  1.9516208     111.8196367
  26 BEND      2  3  4                  1.9156971     109.7613566
  27 BEND      2  5 15                  1.9190101     109.9511791
  28 BEND      2  1  9                  1.9430826     111.3304310
  29 BEND      2  5  6                  1.9237422     110.2223089
  30 BEND      2  7 21                  1.9430965     111.3312285
  31 BEND      2  7 20                  1.9204931     110.0361515
  32 BEND      2  7 19                  1.9516331     111.8203420
  33 BEND      2  3 11                  1.9180463     109.8959552
  34 BEND      2  3 12                  1.9180360     109.8953660
  35 BEND      2  5 14                  1.9189873     109.9498711
  36 BEND      3  4 13                  1.9028068     109.0227964
  37 BEND      3  2  7                  1.9064464     109.2313341
  38 BEND      3  2  5                  1.9127141     109.5904450
  39 BEND      4  3 11                  1.9145784     109.6972645
  40 BEND      4  3 12                  1.9145710     109.6968365
  41 BEND      5  6 18                  1.9758011     113.2050642
  42 BEND      5  6 16                  1.9235143     110.2092500
  43 BEND      5  6 17                  1.9235167     110.2093915
  44 BEND      5  2  7                  1.8957346     108.6175936
  45 BEND      6  5 14                  1.9217420     110.1077070
  46 BEND      6  5 15                  1.9217388     110.1075243
  47 BEND      8  1  9                  1.8772574     107.5589270
  48 BEND      8  1 10                  1.8956308     108.6116434
  49 BEND      9  1 10                  1.8731815     107.3253966
  50 BEND     11  3 12                  1.8826438     107.8675430
  51 BEND     14  5 15                  1.8576219     106.4338972
  52 BEND     16  6 17                  1.8688423     107.0767791
  53 BEND     16  6 18                  1.8842096     107.9572599
  54 BEND     17  6 18                  1.8842596     107.9601217
  55 BEND     19  7 20                  1.8956261     108.6113776
  56 BEND     19  7 21                  1.8772612     107.5591465
  57 BEND     20  7 21                  1.8731532     107.3237711
  58 TORSION   1  2  3 11               1.0403527      59.6078212
  59 TORSION   1  2  5  6               1.0600667      60.7373485
  60 TORSION   1  2  3 12               3.1095052     178.1615258
  61 TORSION   1  2  3  4              -1.0666715     -61.1157778
  62 TORSION   1  2  5 14              -3.1014045    -177.6973890
  63 TORSION   1  2  5 15              -1.0616584     -60.8285428
  64 TORSION   1  2  7 19               1.0581056      60.6249838
  65 TORSION   1  2  7 20              -3.1168433    -178.5819688
  66 TORSION   1  2  7 21              -1.0423367     -59.7214953
  67 TORSION   2  3  4 13               3.1415677     179.9985709
  68 TORSION   2  5  6 17               1.0294433      58.9827587
  69 TORSION   2  5  6 18              -3.1415665    -179.9985025
  70 TORSION   2  5  6 16              -1.0294571     -58.9835486
  71 TORSION   3  2  5 15               1.0198638      58.4338900
  72 TORSION   3  2  1  9              -3.1317957    -179.4386737
  73 TORSION   3  2  5 14              -1.0198824     -58.4349561
  74 TORSION   3  2  7 19              -1.0509449     -60.2147096
  75 TORSION   3  2  7 20               1.0572914      60.5783377
  76 TORSION   3  2  7 21               3.1317981     179.4388112
  77 TORSION   3  2  1  8               1.0509703      60.2161644
  78 TORSION   3  2  5  6               3.1415888     179.9997813
  79 TORSION   3  2  1 10              -1.0572631     -60.5767144
  80 TORSION   4  3  2  5              -3.1415846    -179.9995412
  81 TORSION   4  3  2  7               1.0666718      61.1157899
  82 TORSION   5  2  1  8               3.1364190     179.7035718
  83 TORSION   5  2  3 12               1.0345921      59.2777624
  84 TORSION   5  2  3 11              -1.0345604     -59.2759421
  85 TORSION   5  2  7 19              -3.1364027    -179.7026388
  86 TORSION   5  2  7 20              -1.0281663     -58.9095914
  87 TORSION   5  2  7 21               1.0463403      59.9508821
  88 TORSION   5  2  1  9              -1.0463470     -59.9512662
  89 TORSION   5  2  1 10               1.0281856      58.9106930
  90 TORSION   6  5  2  7              -1.0600621     -60.7370861
  91 TORSION   7  2  1  8              -1.0580830     -60.6236917
  92 TORSION   7  2  5 15               3.1013981     177.6970226
  93 TORSION   7  2  5 14               1.0616520      60.8281765
  94 TORSION   7  2  1 10               3.1168688     178.5834295
  95 TORSION   7  2  3 12              -1.0403368     -59.6069065
  96 TORSION   7  2  1  9               1.0423363      59.7214702
  97 TORSION   7  2  3 11              -3.1094893    -178.1606111
  98 TORSION  11  3  4 13               1.0324481      59.1549183
  99 TORSION  12  3  4 13              -1.0325154     -59.1587753
 100 TORSION  14  5  6 17              -1.0906332     -62.4886787
 101 TORSION  14  5  6 16               3.1336516     179.5450140
 102 TORSION  14  5  6 18               1.0215423      58.5300601
 103 TORSION  15  5  6 17              -3.1336390    -179.5442877
 104 TORSION  15  5  6 16               1.0906459      62.4894049
 105 TORSION  15  5  6 18              -1.0214635     -58.5255489

          INTERNUCLEAR DISTANCES (ANGS.)


 =====================================================
   GAMESS/COSab RESULTS
 =====================================================

   Dielectric Constant                  = INFTY
   Basic Grid Size                      =                 1082
   Number of Segments                   =                   92
   Number of Segments located on spheres=                  253
   Number of Segments of the cavity     =                  636
   Solvent Radius (rsolv)               = 1.40
   Outlying Charge Error Method         = double cavity

 =====================================================

  Total solvated Energy (a.u.)          =  -310.3004171356
  Total Energy corrected (a.u.)         =  -310.3004086866

  Outlying charge effect (a.u.)         =     0.0000084490
  Outlying charge effect (kcal/mol)     =     0.0053018500

  Dielectric Energy (a.u.)              =    -0.0093607230
  Dielectric energy corr. (a.u.)        =    -0.0093522740

  Sum of polarization charges           =     0.0249735770
  Sum of polarization charges(cor.)     =    -0.0249735770

  Total surface area of cavity (A**2)   =  151.71
  Total volume of cavity (A**3)         =  153.31

 =====================================================
 NPS=                   636
NR.  ATOM  (X, Y, Z)(a.u.)                  CHARGE(e)  AREA(A**2) SIGMA(e/A**2)
   1   1  -2.446749   5.340722  -2.066258   0.002240   0.418105   0.005357
   2   1  -0.594956   3.747731  -5.159144   0.001953   0.418105   0.004671
   3   1   1.222069   5.875435  -2.341989   0.001602   0.371649   0.004310
   4   1  -2.796125   5.017807  -1.216048   0.000301   0.092912   0.003238
   5   1   1.950352   5.332174  -2.877635   0.001494   0.325193   0.004595
   6   1   0.327870   3.479430  -5.258345   0.001286   0.278737   0.004613
   7   1   0.465360   1.255277  -5.217271   0.000580   0.139368   0.004165
   8   1  -2.533334   5.203887  -0.929261   0.000390   0.092912   0.004202
   9   1  -0.464562   1.384814  -5.283480   0.001423   0.325193   0.004375
  10   1  -0.584463   2.472064  -5.409655   0.001502   0.278737   0.005388
  11   1   0.136710   4.744473  -4.617984   0.001593   0.464561   0.003430
  12   1   0.715222   5.627845  -3.452909   0.001458   0.464561   0.003138
  13   1   2.222220   5.380764  -1.690708   0.001606   0.278737   0.005763
  14   1   2.777760   4.806967  -1.218859   0.000994   0.185824   0.005349
  15   1  -1.152396   4.791454  -4.396139   0.001327   0.418105   0.003174
  16   1  -1.790587   5.393504  -3.240815   0.001516   0.418105   0.003627
  17   1  -1.340684   5.914710  -2.309248   0.001704   0.464561   0.003668
  18   1   0.042103   6.087630  -2.487366   0.001021   0.325193   0.003138
  19   1   1.088592   5.009979  -4.123549   0.000864   0.278737   0.003101
  20   1   0.157088   2.161617  -5.424170   0.000968   0.185824   0.005211
  21   1   2.841734   4.747872  -1.983568   0.001043   0.232280   0.004490
  22   1  -0.546426   5.610631  -3.609870   0.001240   0.464561   0.002669
  23   1   2.579619   4.806529  -0.520908   0.000671   0.139368   0.004816
  24   3   3.544585  -0.355996   5.150028   0.001100   0.418105   0.002632
  25   3   3.961053  -3.413318   1.307845   0.000282   0.092912   0.003039
  26   3   4.927574   1.870608   3.627162  -0.000205   0.092912  -0.002206
  27   3   3.264923   0.567208   5.204052   0.000702   0.278737   0.002518
  28   3   1.317899  -0.247475   5.202641   0.000229   0.232280   0.000987
  29   3   2.220378  -0.198309   5.350031   0.001065   0.371649   0.002864
  30   3   4.619267   0.144047   4.605521   0.000257   0.371649   0.000691
  31   3   4.967218   0.838203   4.183963  -0.000319   0.092912  -0.003432
  32   3   4.561574  -0.914858   4.511745  -0.000081   0.371649  -0.000219
  33   3   4.981531  -1.798952   3.623039  -0.000120   0.046456  -0.002575
  34   3   4.552960   1.068308   4.465960  -0.000036   0.232280  -0.000155
  35   3   1.605814   0.576401   5.236518   0.000152   0.139368   0.001091
  36   3   4.280068   3.249532   1.782534   0.000390   0.092912   0.004201
  37   4   7.220305  -0.824295  -1.594906   0.001685   0.274871   0.006131
  38   4   6.548729   2.493575  -0.423978   0.003192   0.343589   0.009290
  39   4   5.755289  -2.900292   0.759961   0.001795   0.240512   0.007463
  40   4   5.265958  -0.153050  -3.165320   0.005228   0.240512   0.021736
  41   4   7.382980   0.298659  -1.490789   0.000789   0.274871   0.002871
  42   4   7.128354   1.563072  -1.123577   0.001760   0.309230   0.005692
  43   4   6.007463   2.865233   0.306483   0.002361   0.240512   0.009818
  44   4   5.670424   2.824485   1.100206   0.001123   0.171795   0.006538
  45   4   6.475179  -2.578373  -0.201982   0.002733   0.309230   0.008838
  46   4   6.984806  -1.850709  -1.005353   0.002097   0.309230   0.006783
  47   4   5.799135  -1.822556  -2.368897   0.005190   0.240512   0.021578
  48   4   6.560667  -1.463974  -2.057799   0.004472   0.343589   0.013016
  49   4   6.726692  -0.152310  -2.377035   0.005628   0.481025   0.011700
  50   4   5.876411   0.497120  -2.913774   0.005928   0.343589   0.017252
  51   4   5.849515   1.621025  -2.484932   0.006430   0.309230   0.020792
  52   4   6.300507   2.191470  -1.602743   0.005020   0.343589   0.014611
  53   4   5.502789   3.046416  -0.547033   0.004759   0.274871   0.017314
  54   4   5.125054  -3.176222   0.295193   0.003116   0.206154   0.015114
  55   4   5.531425  -3.067571  -0.328657   0.004540   0.274871   0.016515
  56   4   5.572043  -2.861218  -1.122757   0.004324   0.206154   0.020972
  57   4   5.743033  -0.857651  -2.889477   0.004940   0.309230   0.015976
  58   4   5.668941   2.720577  -1.354153   0.004499   0.240512   0.018705
  59   4   6.752635   1.135430  -2.064664   0.004611   0.412307   0.011184
  60   4   5.159447   3.167542   0.313309   0.002563   0.171795   0.014918
  61   4   6.147365  -2.395321  -1.468890   0.005157   0.343589   0.015010
  62   5  -3.510053   0.408788   5.299976   0.001572   0.371649   0.004229
  63   5  -3.064148  -0.521570   5.396302   0.001204   0.278737   0.004320
  64   5  -1.121229   0.292368   5.265227   0.000934   0.232280   0.004023
  65   5  -2.152425   0.176560   5.483388   0.001892   0.371649   0.005091
  66   5  -4.218224  -0.369451   4.999359   0.001019   0.325193   0.003134
  67   5  -4.858006  -0.600421   4.509147   0.000314   0.139368   0.002250
  68   5  -4.523211   1.138648   4.615931   0.000489   0.185824   0.002632
  69   5  -4.943831   1.451827   4.087323   0.000078   0.046456   0.001686
  70   5  -4.571851  -1.333103   4.494250   0.000382   0.185824   0.002058
  71   5  -1.406170  -0.530921   5.326996   0.000549   0.139368   0.003939
  72   5  -4.726093   0.425026   4.651383   0.000555   0.232280   0.002390
  73   6  -7.749480  -2.304404  -0.427644   0.002315   0.418105   0.005537
  74   6  -5.755166   3.249536   1.816991   0.000859   0.278737   0.003083
  75   6  -6.336951  -0.300826  -3.307133   0.001619   0.371649   0.004357
  76   6  -8.246354   1.375221  -0.616443   0.001453   0.371649   0.003909
  77   6  -6.064330  -2.369771   2.798198   0.000823   0.278737   0.002951
  78   6  -5.030513  -3.680654   0.964777   0.000624   0.232280   0.002687
  79   6  -5.814919  -3.290337   1.698698   0.001093   0.325193   0.003362
  80   6  -6.831290  -3.070254   1.008284   0.001342   0.278737   0.004814
  81   6  -7.651946   2.190581  -1.044683   0.001637   0.371649   0.004406
  82   6  -5.823790   0.609809  -3.452934   0.000881   0.232280   0.003793
  83   6  -5.506069   3.642284   0.863674   0.001537   0.464561   0.003309
  84   6  -6.973109  -3.096880   0.082885   0.001136   0.232280   0.004889
  85   6  -7.486759  -2.591647   0.758761   0.001294   0.278737   0.004642
  86   6  -5.360750  -0.211102  -3.596927   0.001098   0.232280   0.004727
  87   6  -7.096550   0.376573  -2.847764   0.001420   0.418105   0.003397
  88   6  -7.967490   0.897504  -1.732847   0.001408   0.464561   0.003031
  89   6  -7.683205   2.452224   0.132840   0.001951   0.371649   0.005250
  90   6  -6.562358   3.155771   1.251679   0.000965   0.232280   0.004152
  91   6  -6.269989   2.675996   2.368270   0.001163   0.325193   0.003576
  92   6  -7.281233  -0.905925  -2.574012   0.001197   0.371649   0.003220
  93   6  -7.759679  -1.615209  -1.584287   0.001547   0.418105   0.003699
  94   6  -8.306747  -1.187005  -0.657332   0.001625   0.464561   0.003498
  95   6  -8.463058   0.201682  -0.801714   0.000888   0.325193   0.002730
  96   6  -5.935918  -3.542717   0.813743   0.000920   0.232280   0.003963
  97   6  -6.522018  -2.773703   2.046450   0.000879   0.232280   0.003782
  98   6  -7.325670   1.284076  -2.372808   0.000856   0.278737   0.003072
  99   6  -6.848770   3.179723   0.213426   0.001614   0.325193   0.004964
 100   6  -5.993395   2.040507   3.087726   0.000239   0.092912   0.002573
 101   6  -7.990505  -0.326285  -1.875390   0.001053   0.418105   0.002519
 102   6  -7.154801   2.744913   1.248896   0.001037   0.232280   0.004464
 103   7  -2.339024  -5.413391  -2.135621   0.001985   0.371649   0.005341
 104   7   1.451435  -5.777304  -2.350149   0.001570   0.325193   0.004828
 105   7  -0.738714  -4.050468  -5.003006   0.001531   0.371649   0.004121
 106   7  -2.733846  -4.851746  -0.490546   0.000319   0.092912   0.003437
 107   7   0.264899  -3.659507  -5.206564   0.001732   0.371649   0.004659
 108   7   2.186887  -5.209832  -2.735343   0.001296   0.278737   0.004651
 109   7   0.539446  -1.213166  -5.190672   0.000551   0.185824   0.002964
 110   7  -2.617089  -5.204312  -1.314956   0.001186   0.278737   0.004254
 111   7   2.772735  -4.679091  -0.753904   0.000982   0.185824   0.005284
 112   7   2.192722  -5.403750  -1.668933   0.001488   0.278737   0.005339
 113   7   0.995032  -5.543457  -3.453058   0.001580   0.464561   0.003401
 114   7  -0.034741  -4.929880  -4.470660   0.001487   0.464561   0.003200
 115   7  -0.527115  -2.739704  -5.402020   0.001734   0.325193   0.005332
 116   7  -0.281503  -1.323085  -5.279165   0.000866   0.185824   0.004662
 117   7   0.215233  -6.064476  -2.540003   0.001400   0.418105   0.003348
 118   7  -1.226652  -5.918459  -2.475405   0.001547   0.418105   0.003700
 119   7  -1.918803  -5.334449  -3.209201   0.001485   0.418105   0.003551
 120   7  -1.282382  -4.854905  -4.284825   0.000962   0.325193   0.002960
 121   7   0.938319  -4.870194  -4.327437   0.000875   0.278737   0.003139
 122   7   2.891158  -4.706486  -1.713609   0.000922   0.185824   0.004964
 123   7   0.188329  -2.145730  -5.420805   0.001430   0.278737   0.005130
 124   7   2.446039  -5.062839  -0.823470   0.000683   0.139368   0.004902
 125   7  -0.492390  -5.660999  -3.536470   0.001235   0.464561   0.002659
 126   7  -0.912202  -1.442908  -5.226689   0.000704   0.185824   0.003789
 127   8   3.505046   3.052040  -4.234020  -0.002845   0.490692  -0.005798
 128   8   2.756512   4.293512  -4.046221  -0.000807   0.353299  -0.002285
 129   8   1.717139   2.918742  -5.330338  -0.000537   0.314043  -0.001709
 130   8   1.947955   1.803568  -5.229424  -0.000936   0.333671  -0.002806
 131   8   3.401862   4.013810  -3.318872  -0.001100   0.392554  -0.002801
 132   8   2.194307   3.891772  -4.825773  -0.001053   0.392554  -0.002684
 133   8   2.675156   2.782377  -5.059562  -0.001502   0.353299  -0.004252
 134   8   3.046097   1.832785  -4.707200  -0.001844   0.333671  -0.005528
 135   9  -3.339141   2.962683  -4.658443  -0.002319   0.431809  -0.005371
 136   9  -2.262765   2.281869  -5.215887  -0.000723   0.353299  -0.002046
 137   9  -2.601131   4.180705  -4.387012  -0.000523   0.274788  -0.001905
 138   9  -2.969490   1.707348  -4.826873  -0.002171   0.392554  -0.005530
 139   9  -2.314428   3.376396  -5.038320  -0.000798   0.353299  -0.002260
 140   9  -3.318488   4.151674  -3.762397  -0.001531   0.412182  -0.003715
 141  10  -0.207820   6.233323   0.704631  -0.001459   0.314043  -0.004646
 142  10  -1.870180   5.556786   0.392689  -0.000772   0.274788  -0.002809
 143  10  -1.001604   6.347108  -0.708637  -0.000712   0.353299  -0.002016
 144  10   1.114040   6.203198  -0.425719  -0.000650   0.333671  -0.001949
 145  10   1.684815   5.594701   0.249883  -0.000596   0.294415  -0.002023
 146  10  -1.012874   5.768619   1.069826  -0.001476   0.294415  -0.005014
 147  10  -1.385874   6.107323   0.051369  -0.000935   0.314043  -0.002977
 148  10   0.084415   6.499007  -0.128824  -0.001289   0.314043  -0.004105
 149  10   0.915054   5.904136   0.818329  -0.001714   0.372926  -0.004595
 150  10   0.025262   5.520202   1.520616  -0.002054   0.333671  -0.006156
 151  10   0.149501   6.448180  -1.028921  -0.000333   0.255160  -0.001303
 152  11   2.969145   3.333102   4.495522  -0.002243   0.431809  -0.005195
 153  11   3.472036   3.859767   2.576459  -0.001075   0.294415  -0.003653
 154  11   4.169783   2.978908   3.860856  -0.001513   0.372926  -0.004058
 155  11   2.678957   2.072271   5.194105  -0.001083   0.372926  -0.002905
 156  11   2.522211   4.021920   3.460409  -0.002194   0.392554  -0.005590
 157  11   3.742450   3.626276   3.389262  -0.001392   0.353299  -0.003941
 158  11   3.674494   2.378418   4.759350  -0.001080   0.372926  -0.002895
 159  11   1.810467   2.394409   5.059873  -0.001712   0.392554  -0.004360
 160  11   1.774019   3.525521   4.264806  -0.002772   0.431809  -0.006419
 161  12   2.879461  -3.446588   4.406199  -0.002033   0.392554  -0.005180
 162  12   3.709030  -3.735813   2.701424  -0.001130   0.372926  -0.003030
 163  12   2.144075  -1.960891   5.214234  -0.001066   0.353299  -0.003016
 164  12   3.988185  -2.354779   4.525143  -0.000771   0.314043  -0.002456
 165  12   2.947659  -4.010853   3.250914  -0.001877   0.372926  -0.005033
 166  12   1.899909  -3.816958   3.860347  -0.002504   0.392554  -0.006379
 167  12   1.762384  -2.940698   4.789087  -0.002158   0.392554  -0.005498
 168  12   3.071608  -2.402293   5.031201  -0.001518   0.412182  -0.003683
 169  12   3.999268  -3.211839   3.817507  -0.001968   0.471065  -0.004178
 170  13   8.009826  -0.104813   2.368473  -0.008736   0.471065  -0.018545
 171  13   7.827967   1.572451   0.648542  -0.005982   0.451437  -0.013251
 172  13   8.168977  -0.800291   0.241570  -0.006757   0.471065  -0.014343
 173  13   6.962963  -2.064519   1.889208  -0.006738   0.471065  -0.014303
 174  13   7.064627  -0.324976   3.175436  -0.006594   0.353299  -0.018664
 175  13   6.906696   1.712107   2.492865  -0.005817   0.353299  -0.016464
 176  13   8.402330   0.326685   1.165549  -0.008577   0.490692  -0.017480
 177  13   8.085127  -1.087598   1.624749  -0.008484   0.490692  -0.017290
 178  13   7.067928  -1.302469   2.770721  -0.007136   0.451437  -0.015807
 179  13   7.055029   0.760153   3.069192  -0.007058   0.412182  -0.017124
 180  13   7.863553   1.221163   1.983888  -0.007806   0.451437  -0.017291
 181  13   8.156058   0.471489  -0.025083  -0.005281   0.412182  -0.012812
 182  13   7.617808  -1.810436   0.769418  -0.004443   0.372926  -0.011914
 183  13   7.011511   2.163068   1.526338  -0.004407   0.392554  -0.011226
 184  14  -2.444933  -3.430056   4.636121  -0.001506   0.333671  -0.004512
 185  14  -3.237097  -3.937029   2.940171  -0.000802   0.255160  -0.003144
 186  14  -4.035840  -2.923002   4.190572  -0.000825   0.314043  -0.002627
 187  14  -2.479208  -2.028652   5.370559  -0.000710   0.372926  -0.001905
 188  14  -2.350527  -3.997099   3.669110  -0.001501   0.314043  -0.004780
 189  14  -3.526890  -3.645938   3.750505  -0.001144   0.353299  -0.003238
 190  14  -3.152565  -2.956242   4.863114  -0.001171   0.294415  -0.003976
 191  14  -1.624450  -2.389997   5.176553  -0.001363   0.412182  -0.003307
 192  14  -1.514896  -3.545408   4.271196  -0.002028   0.353299  -0.005740
 193  14  -3.611629  -2.189555   4.980291  -0.000468   0.294415  -0.001591
 194  15  -2.723833   3.389728   4.638308  -0.001863   0.412182  -0.004521
 195  15  -3.512545   3.803097   3.110315  -0.000923   0.314043  -0.002938
 196  15  -1.959763   1.948184   5.355337  -0.000728   0.372926  -0.001953
 197  15  -3.884081   2.475737   4.672491  -0.000751   0.353299  -0.002127
 198  15  -2.756874   4.004407   3.508863  -0.001463   0.333671  -0.004386
 199  15  -1.743682   3.781498   4.009378  -0.002107   0.392554  -0.005367
 200  15  -1.625117   2.903914   4.933435  -0.001826   0.412182  -0.004430
 201  15  -3.009336   2.253869   5.233120  -0.000938   0.392554  -0.002389
 202  15  -3.814353   3.269918   4.061897  -0.000947   0.353299  -0.002681
 203  16  -5.684393   3.558688  -2.378688  -0.001995   0.353299  -0.005645
 204  16  -5.493695   3.964639  -0.578030  -0.000535   0.274788  -0.001948
 205  16  -6.683202   2.818192  -2.231911  -0.000621   0.333671  -0.001860
 206  16  -5.792160   2.029068  -3.318213  -0.000787   0.274788  -0.002862
 207  16  -5.313586   4.023814  -1.488907  -0.001418   0.274788  -0.005160
 208  16  -6.356966   3.570973  -1.362937  -0.000767   0.372926  -0.002056
 209  16  -5.976642   2.746292  -2.968564  -0.001152   0.333671  -0.003453
 210  17  -5.699056  -3.455175  -2.510816  -0.001838   0.333671  -0.005509
 211  17  -6.258118  -3.663133  -1.140109  -0.000513   0.314043  -0.001634
 212  17  -5.265775  -4.021273  -0.607489  -0.000701   0.255160  -0.002747
 213  17  -6.527224  -2.480961  -2.676227  -0.000707   0.353299  -0.002002
 214  17  -5.382470  -3.997330  -1.554261  -0.001517   0.294415  -0.005152
 215  17  -5.731503  -2.190583  -3.309093  -0.001154   0.372926  -0.003094
 216  17  -6.563238  -3.190767  -1.939018  -0.000765   0.314043  -0.002436
 217  18  -8.588009  -0.044957   2.572704  -0.003398   0.608459  -0.005585
 218  18  -7.285336  -0.269311   3.583050  -0.001165   0.353299  -0.003299
 219  18  -7.729131  -1.780527   2.439092  -0.000599   0.333671  -0.001795
 220  18  -8.786036  -0.846119   0.918604  -0.000786   0.353299  -0.002224
 221  18  -8.581238   1.313887   1.203142  -0.000756   0.372926  -0.002027
 222  18  -7.392176   1.658941   2.849519  -0.000591   0.353299  -0.001673
 223  18  -7.547964  -1.126505   3.187415  -0.001563   0.471065  -0.003318
 224  18  -8.500449  -1.328534   1.810924  -0.001644   0.490692  -0.003351
 225  18  -8.948740   0.228901   1.134495  -0.001793   0.510320  -0.003513
 226  18  -8.283974   1.412829   2.206682  -0.001723   0.490692  -0.003510
 227  18  -7.506226   0.734070   3.389341  -0.001814   0.510320  -0.003555
 228  19   3.286139  -2.866034  -4.569836  -0.002351   0.412182  -0.005705
 229  19   3.392637  -4.066117  -3.106851  -0.000740   0.294415  -0.002513
 230  19   1.703983  -2.114229  -5.334669  -0.000535   0.294415  -0.001817
 231  19   2.122619  -4.162719  -4.623836  -0.000599   0.333671  -0.001794
 232  19   3.590680  -3.393608  -3.862992  -0.001334   0.274788  -0.004854
 233  19   3.186439  -1.792339  -4.558869  -0.001461   0.274788  -0.005316
 234  19   2.487608  -1.914108  -5.089432  -0.001387   0.333671  -0.004158
 235  19   2.079270  -3.212265  -5.199612  -0.001440   0.471065  -0.003058
 236  19   2.891842  -4.191678  -4.044644  -0.000995   0.372926  -0.002667
 237  20  -0.139889  -6.293718   0.589163  -0.001863   0.392554  -0.004746
 238  20  -1.822600  -5.774535  -0.014372  -0.000713   0.372926  -0.001911
 239  20   1.551556  -5.848877  -0.106286  -0.000479   0.333671  -0.001434
 240  20  -0.117918  -6.462264  -1.028233  -0.000473   0.314043  -0.001505
 241  20  -1.239774  -5.772385   0.905887  -0.001832   0.392554  -0.004666
 242  20  -0.047948  -5.583831   1.476198  -0.002356   0.392554  -0.006002
 243  20   1.073900  -5.805010   0.819553  -0.001817   0.392554  -0.004629
 244  20   0.699773  -6.390908  -0.376502  -0.001229   0.412182  -0.002981
 245  20  -0.941075  -6.382174  -0.381781  -0.001336   0.451437  -0.002959
 246  21  -3.388254  -2.811577  -4.650193  -0.002028   0.333671  -0.006078
 247  21  -3.081559  -4.389396  -3.659069  -0.000744   0.274788  -0.002706
 248  21  -2.354250  -3.162080  -5.103960  -0.000686   0.274788  -0.002497
 249  21  -2.256404  -1.621122  -5.068079  -0.000478   0.176649  -0.002705
 250  21  -3.390798  -3.771016  -4.156577  -0.001126   0.255160  -0.004411
 251  21  -2.537587  -3.917108  -4.658217  -0.000671   0.294415  -0.002279
 252  21  -2.298265  -2.365147  -5.214008  -0.000590   0.274788  -0.002146
 253  21  -3.111620  -1.771969  -4.761388  -0.001587   0.274788  -0.005776
 254   1   3.239634   3.813661   0.021670   0.000814   0.111958   0.007273
 255   3   3.709584   3.453675   0.598399   0.000768   0.111958   0.006856
 256   4   4.067911   3.335608   0.311002   0.001895   0.111958   0.016922
 257   1   2.729888   4.057090   0.635710   0.000205   0.066207   0.003097
 258   3   3.204194   3.705735   1.211800   0.000036   0.066207   0.000543
 259  11   3.112735   3.770972   1.495842  -0.000164   0.066207  -0.002477
 260   3   3.480421   3.693253   0.875465   0.000408   0.128586   0.003175
 261   1   2.807123   4.321117   0.135620   0.000477   0.128586   0.003706
 262   1   3.491410   3.799671  -1.780984   0.000590   0.086552   0.006812
 263   4   4.234679   3.223449  -1.448390   0.002049   0.086552   0.023677
 264   8   3.590317   3.684565  -2.044004   0.000258   0.086552   0.002982
 265   4   4.544007   3.305218  -0.643757   0.007347   0.456558   0.016092
 266   1   3.328801   4.100722  -0.796233   0.002912   0.509787   0.005712
 267   1  -2.838565   4.477697   0.010177   0.000131   0.056866   0.002295
 268   6  -3.607853   3.940414   0.288466   0.000069   0.056866   0.001220
 269  10  -2.611846   4.632169   0.141868   0.000019   0.056866   0.000339
 270   1  -3.390866   4.180898  -0.155845   0.000162   0.080142   0.002021
 271   6  -4.239732   3.823124   0.182159  -0.000123   0.080142  -0.001536
 272  16  -4.265161   3.905504  -0.108992  -0.000188   0.080142  -0.002340
 273   6  -4.229732   3.928376   0.413963   0.000070   0.030241   0.002315
 274   1  -3.056859   4.533722  -0.054199   0.000150   0.030241   0.004947
 275   1   1.016635   0.692003  -4.883265   0.000204   0.063336   0.003226
 276   7   0.995120  -0.141948  -4.797621   0.000275   0.063336   0.004347
 277   8   1.284102   0.831512  -4.873446   0.000024   0.063336   0.000381
 278   1  -1.371300   0.145417  -4.734216   0.000238   0.064380   0.003692
 279   7  -1.396945  -0.688708  -4.817565   0.000099   0.064380   0.001533
 280  21  -1.667192  -0.821332  -4.790536  -0.000031   0.064380  -0.000488
 281   7  -0.859870  -0.598690  -5.030184   0.000930   0.310121   0.002998
 282   7   0.470933  -0.598689  -5.065600   0.000912   0.310121   0.002941
 283   1  -0.193489   0.598634  -5.011079   0.001710   0.621591   0.002752
 284   8   1.347097   1.488180  -5.145003  -0.000039   0.071447  -0.000547
 285   8   1.162830   2.621786  -5.286646  -0.000167   0.160345  -0.001040
 286   8   1.420219   3.922243  -4.849199  -0.000247   0.160345  -0.001540
 287   8   2.139815   4.610874  -3.871054  -0.000268   0.160345  -0.001671
 288   8   2.996558   4.376604  -2.794065  -0.000106   0.160345  -0.000659
 289   1   0.847277   1.825424  -5.217933   0.000153   0.154974   0.000984
 290   1   0.809301   3.390526  -5.136504   0.000110   0.154974   0.000707
 291   1   1.391744   4.576347  -4.292581  -0.000014   0.154974  -0.000093
 292   1   2.331499   4.847220  -3.067385   0.000112   0.154974   0.000720
 293   1   3.081349   4.377039  -2.146797   0.000255   0.087289   0.002918
 294   1  -3.331049   4.439322  -2.270684  -0.000056   0.066075  -0.000854
 295   9  -3.492388   4.287694  -2.476975  -0.000275   0.066075  -0.004157
 296  16  -4.137508   4.042382  -2.083140  -0.000415   0.066075  -0.006274
 297   1  -1.527438   0.634268  -4.766695   0.000196   0.088710   0.002206
 298   9  -1.801917   0.763643  -4.749784  -0.000045   0.088710  -0.000510
 299  21  -1.789466  -0.337183  -4.659604   0.000179   0.088710   0.002016
 300   9  -3.094801   4.557657  -2.886104  -0.000105   0.069316  -0.001511
 301   9  -2.461784   4.553826  -3.814694  -0.000285   0.154435  -0.001843
 302   9  -1.830980   3.844601  -4.785773  -0.000284   0.154435  -0.001841
 303   9  -1.601908   2.573224  -5.204142  -0.000179   0.154435  -0.001157
 304   9  -1.754394   1.470222  -5.052026  -0.000037   0.069316  -0.000530
 305   1  -2.582800   4.832638  -3.029831  -0.000059   0.151402  -0.000388
 306   1  -1.753802   4.502839  -4.266969  -0.000085   0.151402  -0.000561
 307   1  -1.242995   3.326270  -5.092365   0.000057   0.151402   0.000375
 308   1  -1.267260   1.802482  -5.155570   0.000114   0.151402   0.000753
 309   1   2.389121   4.426419   0.455130   0.000110   0.087537   0.001255
 310  10   2.183057   4.614137   0.584178  -0.000009   0.087537  -0.000098
 311  11   2.682578   4.016032   1.299341   0.000059   0.087537   0.000677
 312  10   2.032744   5.152867   0.059824  -0.000049   0.073615  -0.000669
 313  10   1.536924   5.775764  -0.807122  -0.000159   0.165473  -0.000961
 314  10   0.337610   6.217046  -1.423883  -0.000329   0.165473  -0.001990
 315  10  -1.069228   6.106858  -1.275081  -0.000334   0.165473  -0.002020
 316  10  -2.031503   5.496273  -0.429687  -0.000221   0.165473  -0.001334
 317   1   2.117612   5.177065  -0.550184   0.000191   0.159524   0.001199
 318   1   1.141247   5.911183  -1.573123   0.000097   0.159524   0.000607
 319   1  -0.414860   6.108875  -1.852537  -0.000055   0.159524  -0.000344
 320   1  -1.829434   5.678509  -1.258913   0.000072   0.159524   0.000452
 321   1  -2.490186   5.024283  -0.351966   0.000169   0.089937   0.001874
 322  11   3.126918   3.901859   1.678578   0.000004   0.014565   0.000296
 323   1   2.628929   4.444258   0.427570   0.000075   0.020659   0.003650
 324  16  -4.386961   4.092671  -0.548626  -0.000565   0.226032  -0.002499
 325  16  -4.518306   4.119194  -1.585257  -0.000950   0.226032  -0.004203
 326   1  -3.228996   4.637830  -1.208372   0.001421   0.626527   0.002267
[...]
 379  12   0.826340  -1.516928   4.824112  -0.000328   0.087882  -0.003735
 380  14  -0.226316  -1.508558   4.774475  -0.000018   0.087882  -0.000206
 381  12   3.631225  -3.632447   2.049795  -0.000276   0.089075  -0.003096
 382  12   4.345029  -3.127813   2.723247  -0.000353   0.089075  -0.003958
 383   3   4.148157  -3.188609   2.073391  -0.000792   0.184062  -0.004302
 384  12   4.538753  -2.388150   3.733880  -0.000333   0.073901  -0.004512
 385  12   3.976031  -1.783691   4.579677  -0.000687   0.166327  -0.004132
 386  12   2.725602  -1.398409   5.143400  -0.000506   0.166327  -0.003040
 387  12   1.547004  -1.466331   5.082631  -0.000335   0.073901  -0.004528
 388   3   4.585248  -1.812255   3.951848  -0.000821   0.159948  -0.005131
 389   3   3.528031  -1.119612   4.932419  -0.000383   0.159948  -0.002394
 390   3   1.946632  -0.999243   5.141398  -0.000509   0.159948  -0.003185
 391  13   5.974247   2.318057   2.098408  -0.000269   0.050056  -0.005368
 392   3   5.127521   2.589916   2.423597  -0.000101   0.061155  -0.001647
 393  13   6.111226   1.611981   2.951845  -0.002414   0.176311  -0.013693
 394  13   6.186668   0.399070   3.421789  -0.006347   0.364198  -0.017426
 395  13   6.146143  -1.155619   3.169106  -0.005660   0.364198  -0.015542
 396   3   5.312237   1.297969   3.574419  -0.003092   0.418526  -0.007389
 397   3   5.357782  -0.448631   3.858020  -0.003663   0.418526  -0.008753
 398   3   5.277163  -1.793664   3.355533  -0.001118   0.215403  -0.005192
 399  13   5.982272  -2.293787   2.147905  -0.000327   0.050105  -0.006526
 400   3   5.121168  -2.609426   2.383442  -0.000072   0.061214  -0.001172
 401  14  -0.763145  -1.523772   5.015487   0.000027   0.010770   0.002461
 402   3   0.627770  -1.095510   5.014791   0.000067   0.015280   0.004368
 403  15  -0.765529   1.515887   5.016815   0.000015   0.010756   0.001424
 404   3   0.629972   1.102796   5.013567   0.000075   0.015261   0.004912
 405   4   4.234683  -3.223486  -1.448285   0.002336   0.086554   0.026994
 406   7   3.491414  -3.799719  -1.780872   0.000482   0.086554   0.005568
 407  19   3.590329  -3.684620  -2.043900   0.000272   0.086554   0.003146
 408   7   3.406318  -4.059875  -1.071787   0.003013   0.509739   0.005911
 409   4   4.464617  -3.347109  -0.361317   0.006752   0.456515   0.014790
 410   4   3.905190  -0.000016  -3.408023   0.006172   0.283333   0.021784
 411   8   3.211219   0.564438  -3.859313   0.001601   0.283333   0.005649
 412  19   3.211227  -0.564488  -3.859310   0.001588   0.283333   0.005603
 413   8   3.843927   3.557899  -2.471152   0.000803   0.270704   0.002967
 414   8   3.964167   2.565667  -3.450279   0.000515   0.546170   0.000943
 415   8   3.553562   1.372489  -4.054762   0.000232   0.270704   0.000855
 416   4   4.963853   2.596373  -2.087586   0.012153   0.665713   0.018256
 417   4   4.765603   1.104255  -3.168817   0.012510   0.665713   0.018791
 418  13   6.298013  -2.353008   1.610389  -0.000486   0.083775  -0.005798
 419  13   6.990307  -2.118999   0.601967  -0.001583   0.182209  -0.008687
 420  13   7.623042  -1.105439  -0.319737  -0.001972   0.182209  -0.010821
 421  13   7.764872   0.382637  -0.526400  -0.002005   0.182209  -0.011006
 422  13   7.354918   1.706506   0.070682  -0.001709   0.182209  -0.009379
 423  13   6.569146   2.297926   1.215225  -0.001554   0.182209  -0.008529
 424   4   6.235379  -2.485811   0.970352  -0.000401   0.179147  -0.002240
 425   4   7.085419  -1.846010  -0.267864  -0.000654   0.179147  -0.003648
 426   4   7.528857  -0.413825  -0.913854  -0.001212   0.179147  -0.006763
 427   4   7.375356   1.196011  -0.690339  -0.001018   0.179147  -0.005681
 428   4   6.690804   2.292512   0.306740  -0.000549   0.179147  -0.003067
 429   4   5.951941   2.553887   1.382969  -0.000272   0.095920  -0.002834
 430  19   3.553587  -1.372543  -4.054752   0.000310   0.270712   0.001146
 431  19   3.964209  -2.565734  -3.450230   0.000495   0.546186   0.000907
 432  19   3.843953  -3.557965  -2.471058   0.000843   0.270712   0.003113
 433   4   4.765626  -1.104290  -3.168794   0.011597   0.665732   0.017421
 434   4   4.963876  -2.596415  -2.087506   0.012345   0.665732   0.018544
 435   5  -4.877998  -1.983415   3.762330   0.000047   0.027295   0.001706
 436   6  -5.273999  -1.962395   3.459462   0.000108   0.027295   0.003947
 437  14  -4.665037  -2.183442   3.847766  -0.000001   0.027295  -0.000028
 438   5  -4.878018   1.983405   3.762341   0.000038   0.027294   0.001382
 439   6  -5.274019   1.962382   3.459473   0.000071   0.027294   0.002609
 440  15  -4.665061   2.183428   3.847779   0.000004   0.027294   0.000131
 441   5  -5.429469  -1.300264   3.758721   0.000091   0.022042   0.004130
 442   6  -5.868087  -1.318483   3.521776   0.000055   0.022042   0.002491
 443  18  -6.141546  -1.199364   3.489384   0.000011   0.022042   0.000503
 444   5  -5.429423   1.300531   3.758637   0.000057   0.022042   0.002603
 445   6  -5.868040   1.318751   3.521690   0.000044   0.022042   0.001994
 446  18  -6.141503   1.199640   3.489306   0.000021   0.022042   0.000952
 447   6  -5.669807  -1.707478   3.451790   0.000269   0.097071   0.002773
 448   5  -5.099274  -1.603670   3.886373   0.000248   0.097071   0.002552
 449   6  -5.698442   1.603828   3.495698   0.000246   0.097020   0.002540
 450   5  -5.070608   1.707579   3.842384   0.000211   0.097020   0.002175
 451  14  -1.334356  -1.424448   5.176890  -0.000047   0.068489  -0.000685
 452  14  -2.419241  -1.336714   5.331029  -0.000166   0.151474  -0.001094
 453  14  -3.658931  -1.644813   4.960647  -0.000295   0.151474  -0.001945
 454  14  -4.341207  -2.171739   4.278533  -0.000100   0.068489  -0.001461
 455   5  -1.686509  -0.950816   5.258922   0.000114   0.150721   0.000760
 456   5  -3.178781  -1.017712   5.219902   0.000065   0.150721   0.000434
 457   5  -4.328586  -1.607450   4.469548  -0.000109   0.150721  -0.000721
 458  15  -4.341232   2.171719   4.278548  -0.000069   0.068489  -0.001006
 459  15  -3.658950   1.644786   4.960662  -0.000255   0.151474  -0.001682
 460  15  -2.419247   1.336696   5.331041  -0.000164   0.151474  -0.001084
 461  15  -1.334358   1.424453   5.176896  -0.000112   0.068489  -0.001634
 462   5  -4.328604   1.607433   4.469559  -0.000135   0.150720  -0.000899
 463   5  -3.178787   1.017692   5.219913   0.000086   0.150720   0.000568
 464   5  -1.686504   0.950820   5.258925   0.000073   0.150720   0.000484
 465  18  -6.334290  -0.865682   3.615129  -0.000059   0.174627  -0.000339
 466  18  -6.340187   0.386080   3.669738  -0.000495   0.354726  -0.001397
 467   5  -5.310695  -0.444473   4.143623   0.000909   0.481380   0.001889
 468   5  -5.305276   0.980069   4.093777   0.000611   0.245866   0.002487
 469   6  -4.239748  -3.823116   0.182185  -0.000134   0.080142  -0.001670
 470   7  -3.390881  -4.180898  -0.155818   0.000159   0.080142   0.001983
 471  17  -4.265180  -3.905497  -0.108964  -0.000181   0.080142  -0.002254
 472   6  -3.607930  -3.940431   0.288372   0.000066   0.056871   0.001154
 473   7  -2.838643  -4.477721   0.010080   0.000111   0.056871   0.001946
 474  20  -2.611932  -4.632194   0.141787   0.000023   0.056871   0.000400
 475   7  -3.049246  -4.531452  -0.037249   0.000140   0.030193   0.004629
 476   6  -4.237440  -3.930662   0.396928   0.000054   0.030193   0.001782
 477   6  -4.826343   1.107547  -3.568457  -0.000137   0.065456  -0.002093
 478   9  -4.109134   1.599989  -3.888256  -0.000493   0.065456  -0.007530
 479  16  -4.812705   1.409878  -3.571677  -0.000271   0.065456  -0.004137
 480   6  -3.979225  -0.000014  -3.711870   0.000297   0.250915   0.001183
 481   9  -3.303783   0.556390  -4.042610  -0.000506   0.250915  -0.002016
 482  21  -3.303777  -0.556428  -4.042611  -0.000538   0.250915  -0.002143
 483   9  -3.559123   1.321336  -4.261462  -0.000876   0.197042  -0.004446
 484   6  -4.665092   0.674931  -3.757828   0.000557   0.278043   0.002003
 485   6  -3.650378   3.684694   1.139984   0.000284   0.243629   0.001165
 486  10  -2.591664   4.268739   0.920970   0.000305   0.243629   0.001250
 487  15  -3.140901   3.800776   1.698168  -0.000063   0.243629  -0.000258
 488  10  -2.512516   4.852573   0.395201   0.000189   0.123974   0.001524
 489   6  -4.044927   3.972109   0.763246   0.000470   0.181584   0.002589
 490   6  -3.650419  -3.684690   1.140011   0.000272   0.243626   0.001117
 491  14  -3.140935  -3.800777   1.698189  -0.000122   0.243626  -0.000500
 492  20  -2.591716  -4.268748   0.921002   0.000323   0.243626   0.001325
 493  14  -4.515556  -2.592739   3.729764  -0.000145   0.193370  -0.000752
 494  14  -3.957514  -3.423147   2.753580  -0.000905   0.395112  -0.002291
 495   6  -5.230497  -2.736877   2.738037   0.001057   0.530441   0.001993
 496   6  -4.500420  -3.578782   1.604313   0.000653   0.272395   0.002398
 497  15  -3.678397   3.673199   2.362270  -0.000234   0.193374  -0.001210
 498  15  -4.329362   2.943241   3.360978  -0.000863   0.395122  -0.002183
 499   6  -4.802439   3.289341   2.038807   0.000969   0.530453   0.001827
 500   6  -5.447926   2.355908   3.152049   0.000748   0.272401   0.002746
 501  16  -5.437798   1.360966  -3.445837  -0.000152   0.072172  -0.002099
 502  16  -6.404032   1.729220  -2.905842  -0.000317   0.162245  -0.001954
 503  16  -6.961245   2.484969  -1.858397  -0.000308   0.162245  -0.001896
 504  16  -6.567728   3.295088  -0.777825  -0.000206   0.162245  -0.001267
 505  16  -5.404042   3.787863  -0.159933  -0.000414   0.162245  -0.002551
 506   6  -5.941408   1.081529  -3.243815  -0.000021   0.156306  -0.000137
 507   6  -7.021167   1.744107  -2.300306  -0.000052   0.156306  -0.000335
 508   6  -7.118848   2.678495  -1.030473   0.000096   0.156306   0.000612
 509   6  -6.189631   3.455960  -0.016962   0.000016   0.156306   0.000100
 510   6  -4.997245   3.767874   0.354723  -0.000056   0.088173  -0.000633
 511   6  -4.826345  -1.107575  -3.568446  -0.000102   0.065457  -0.001561
 512  17  -4.812710  -1.409905  -3.571663  -0.000288   0.065457  -0.004407
 513  21  -4.109130  -1.600025  -3.888248  -0.000434   0.065457  -0.006631
 514  17  -4.968623  -3.874693  -0.060829  -0.000146   0.072171  -0.002026
 515  17  -6.054796  -3.600380  -0.386098  -0.000233   0.162245  -0.001434
 516  17  -6.882305  -2.908015  -1.288676  -0.000229   0.162245  -0.001412
 517  17  -6.795311  -2.075912  -2.419528  -0.000305   0.162245  -0.001878
 518  17  -5.833732  -1.485874  -3.259772  -0.000304   0.162245  -0.001873
 519   6  -5.458941  -3.666454   0.237072  -0.000070   0.156305  -0.000447
 520   6  -6.765657  -3.113109  -0.456763   0.000145   0.156305   0.000927
 521   6  -7.207539  -2.203425  -1.670155   0.000027   0.156305   0.000172
 522   6  -6.581833  -1.354803  -2.846351  -0.000013   0.156305  -0.000081
 523   6  -5.525095  -0.939956  -3.453343   0.000071   0.088173   0.000805
 524  18  -6.593109   1.389322   3.293845  -0.000061   0.066680  -0.000913
 525  18  -7.104615   1.962596   2.526669  -0.000238   0.147481  -0.001614
 526  18  -7.833290   2.001044   1.433819  -0.000103   0.147481  -0.000701
 527  18  -8.430503   1.247433   0.538179  -0.000261   0.147481  -0.001766
 528  18  -8.659851   0.000076   0.194283  -0.000261   0.147481  -0.001769
 529  18  -8.430547  -1.247267   0.538260  -0.000256   0.147481  -0.001737
 530  18  -7.833361  -2.000842   1.433949  -0.000175   0.147481  -0.001184
 531  18  -7.104684  -1.962349   2.526796  -0.000244   0.147481  -0.001656
 532  18  -6.593158  -1.389043   3.293935  -0.000053   0.066680  -0.000791
 533   6  -6.418175   1.840503   2.959817  -0.000043   0.146663  -0.000296
 534   6  -7.187772   2.345769   1.805567   0.000055   0.146663   0.000376
 535   6  -7.972472   1.922514   0.628720   0.000136   0.146663   0.000929
 536   6  -8.461656   0.738281  -0.104875  -0.000076   0.146663  -0.000520
 537   6  -8.461682  -0.738156  -0.104827  -0.000106   0.146663  -0.000722
 538   6  -7.972541  -1.922359   0.628844   0.000142   0.146663   0.000969
 539   6  -7.187855  -2.345565   1.805719   0.000099   0.146663   0.000678
 540   6  -6.418240  -1.840252   2.959937  -0.000051   0.146663  -0.000345
 541  20  -2.490265  -4.837500   0.468223   0.000190   0.124014   0.001530
 542   6  -4.066507  -3.986649   0.692829   0.000438   0.181642   0.002412
 543  21  -3.651268  -1.453012  -4.245101  -0.000846   0.197045  -0.004294
 544   6  -4.580130  -0.553596  -3.772913   0.000579   0.278048   0.002083
 545   7   1.147428  -0.634713  -4.838892   0.000167   0.088654   0.001882
 546   8   1.410519   0.343799  -4.746580   0.000332   0.088654   0.003743
 547  19   1.418573  -0.771148  -4.838657  -0.000052   0.088654  -0.000583
 548   7   2.389048  -4.426504   0.455184   0.000118   0.087537   0.001350
 549  12   2.682515  -4.016110   1.299384   0.000074   0.087537   0.000849
 550  20   2.182977  -4.614216   0.584232  -0.000086   0.087537  -0.000981
 551  12   3.118663  -3.907318   1.684115   0.000009   0.014605   0.000602
 552   7   2.636574  -4.439285   0.422450   0.000087   0.020716   0.004218
 553   7  -3.331066  -4.439331  -2.270674  -0.000059   0.066077  -0.000886
 554  17  -4.137527  -4.042381  -2.083129  -0.000438   0.066077  -0.006624
 555  21  -3.492399  -4.287704  -2.476971  -0.000261   0.066077  -0.003943
 556  17  -4.518332  -4.119192  -1.585239  -0.001009   0.226035  -0.004465
 557  17  -4.386984  -4.092667  -0.548599  -0.000515   0.226035  -0.002277
 558   7  -3.229016  -4.637837  -1.208351   0.001275   0.626537   0.002035
 559  19   3.252467  -4.172725  -2.483411   0.000028   0.071451   0.000388
 560  19   2.575901  -4.612764  -3.312721  -0.000157   0.160353  -0.000980
 561  19   1.739059  -4.371573  -4.403772  -0.000278   0.160353  -0.001734
 562  19   1.220409  -3.315608  -5.155310  -0.000121   0.160353  -0.000757
 563  19   1.254244  -1.921884  -5.227839  -0.000273   0.160353  -0.001703
 564   7   2.803905  -4.582212  -2.484712   0.000249   0.154981   0.001607
 565   7   1.841789  -4.845327  -3.694180   0.000001   0.154981   0.000008
 566   7   1.033693  -4.072009  -4.792665  -0.000062   0.154981  -0.000401
 567   7   0.744664  -2.611593  -5.283943   0.000085   0.154981   0.000547
 568   7   0.938101  -1.357429  -5.140610   0.000075   0.087293   0.000864
 569  20  -2.227255  -5.253376  -0.092849  -0.000081   0.073614  -0.001099
 570  20  -1.641896  -5.850773  -0.921020  -0.000197   0.165471  -0.001191
 571  20  -0.382099  -6.234060  -1.449629  -0.000311   0.165471  -0.001880
 572  20   1.003720  -6.058018  -1.200750  -0.000185   0.165471  -0.001116
 573  20   1.873237  -5.404243  -0.289738  -0.000291   0.165471  -0.001761
 574   7  -2.267021  -5.280515  -0.707322   0.000017   0.159523   0.000109
 575   7  -1.186494  -5.966122  -1.656511   0.000023   0.159523   0.000147
 576   7   0.393173  -6.089866  -1.823535  -0.000047   0.159523  -0.000292
 577   7   1.739808  -5.594392  -1.130977   0.000224   0.159523   0.001405
 578   7   2.302459  -4.911323  -0.180216   0.000123   0.089936   0.001371
 579  21  -1.754338  -1.470265  -5.052042  -0.000079   0.069317  -0.001145
 580  21  -1.601850  -2.573278  -5.204153  -0.000146   0.154437  -0.000945
 581  21  -1.830937  -3.844660  -4.785774  -0.000289   0.154437  -0.001873
 582  21  -2.461769  -4.553873  -3.814689  -0.000347   0.154437  -0.002250
 583  21  -3.094806  -4.557680  -2.886101  -0.000134   0.069317  -0.001928
 584   7  -1.267203  -1.802530  -5.155578   0.000072   0.151402   0.000473
 585   7  -1.242944  -3.326331  -5.092364   0.000092   0.151402   0.000607
 586   7  -1.753776  -4.502897  -4.266957  -0.000084   0.151402  -0.000556
 587   7  -2.582804  -4.832670  -3.029818  -0.000153   0.151402  -0.001013
 588  19   1.901457  -0.801014  -4.960602   0.000431   0.301150   0.001431
 589  19   2.802565  -0.801006  -4.543848   0.000188   0.301150   0.000624
 590   8   2.337042   0.800940  -4.719889   0.000180   0.602297   0.000299
 591  16  -4.701900   3.901481  -2.311962  -0.000961   0.213516  -0.004502
 592  16  -4.948432   3.022314  -3.169864  -0.002687   0.427907  -0.006279
 593  16  -4.902957   1.864060  -3.645356  -0.000603   0.213516  -0.002825
 594   9  -3.852953   3.848874  -3.203132  -0.002199   0.427907  -0.005139
 595   9  -3.978242   2.579244  -4.034044  -0.002776   0.427907  -0.006488
 596  21  -2.659255  -0.790454  -4.659384  -0.000191   0.444771  -0.000430
 597   9  -2.433032   0.790418  -4.749501   0.000053   0.444771   0.000118
 598  10  -0.006837   4.225078   2.275270  -0.000471   0.300190  -0.001568
 599  11   0.555650   3.683377   3.005449  -0.000698   0.300190  -0.002325
 600  15  -0.509045   3.681015   3.041463  -0.000463   0.300190  -0.001543
 601  11   2.794262   4.166466   1.963173  -0.000061   0.295230  -0.000207
 602  11   1.747249   4.169167   2.771766  -0.001368   0.590802  -0.002316
 603  10   1.608479   4.969099   1.258757  -0.000570   0.590802  -0.000966
 604  10   0.525154   4.856232   2.009579  -0.000308   0.295230  -0.001045
 605  15  -1.262656   4.080629   3.135386  -0.000189   0.285403  -0.000661
 606  15  -2.372321   4.203137   2.494577  -0.000467   0.571043  -0.000817
 607  10  -0.986416   4.931018   1.825405  -0.000985   0.571043  -0.001724
 608  10  -2.067254   4.945148   1.126413   0.000060   0.285403   0.000210
 609  13   5.943639   2.170656   2.512893  -0.001083   0.196702  -0.005507
 610  11   4.829933   2.622443   3.177667  -0.000194   0.196702  -0.000989
 611  15  -0.658141   2.014348   4.977918   0.000070   0.301547   0.000232
 612  15  -0.686001   3.147630   4.241924  -0.001145   0.603564  -0.001897
 613  11   0.837475   2.479348   4.679830  -0.001419   0.603564  -0.002351
 614  11   0.806044   3.530022   3.830191  -0.000561   0.301547  -0.001860
 615  13   5.959708  -2.097707   2.612577  -0.001373   0.196491  -0.006987
 616  12   4.814006  -2.695334   3.077974  -0.000182   0.196491  -0.000925
 617  12   0.555644  -3.683399   3.005463  -0.000701   0.300186  -0.002335
 618  14  -0.509047  -3.681032   3.041479  -0.000451   0.300186  -0.001502
 619  20  -0.006859  -4.225100   2.275295  -0.000487   0.300186  -0.001623
 620  14  -0.699167  -3.525757   3.880590  -0.000294   0.301541  -0.000975
 621  14  -0.667730  -2.475099   4.730214  -0.000824   0.603551  -0.001366
 622  12   0.819219  -3.151930   4.191526  -0.001648   0.603551  -0.002730
 623  12   0.847085  -2.018667   4.927509  -0.000226   0.301541  -0.000748
 624  20   1.998844  -4.932510   0.930823   0.000235   0.295222   0.000796
 625  20   0.951860  -4.935177   1.739400  -0.001047   0.590785  -0.001772
 626  12   2.403759  -4.203171   2.291191  -0.000965   0.590785  -0.001633
 627  12   1.320468  -4.090276   3.041999  -0.000465   0.295222  -0.001576
 628  20  -0.552555  -4.850680   2.052918  -0.000286   0.285403  -0.001000
 629  20  -1.662237  -4.973183   1.412114  -0.000616   0.571043  -0.001079
 630  14  -1.696563  -4.160992   2.907927  -0.000833   0.571043  -0.001458
 631  14  -2.777418  -4.175115   2.208937   0.000145   0.285403   0.000509
 632  21  -3.741261  -4.162234  -2.855218  -0.000612   0.213518  -0.002865
 633  21  -3.987787  -3.283076  -3.713116  -0.002728   0.427910  -0.006376
 634  21  -3.942306  -2.124836  -4.188611  -0.000981   0.213518  -0.004594
 635  17  -4.813619  -3.588139  -2.659856  -0.002761   0.427910  -0.006453
 636  17  -4.938901  -2.318523  -3.490767  -0.002233   0.427910  -0.005218
 =====================================================


   1 warning(s) detected.
     A line exceeding 80 characters begins with "http://cactus.nci.ni".
 There may be a problem in your input file.

              4278229  WORDS OF DYNAMIC MEMORY USED
 EXECUTION OF GAMESS TERMINATED NORMALLY Wed Nov 23 02:34:19 2016
 DDI: 263640 bytes (0.3 MB / 0 MWords) used by master data server.

 ----------------------------------------
 CPU timing information for all processes
 ========================================
 0: 866.348 + 0.308 = 866.656
 ----------------------------------------
 ddikick.x: exited gracefully.
