----- GAMESS execution script -----

          ******************************************************
          *         GAMESS VERSION =  5 DEC 2014 (R1)          *
          *             FROM IOWA STATE UNIVERSITY             *
          * M.W.SCHMIDT, K.K.BALDRIDGE, J.A.BOATZ, S.T.ELBERT, *
          *   M.S.GORDON, J.H.JENSEN, S.KOSEKI, N.MATSUNAGA,   *
          *          K.A.NGUYEN, S.J.SU, T.L.WINDUS,           *
          *       TOGETHER WITH M.DUPUIS, J.A.MONTGOMERY       *
          *         J.COMPUT.CHEM.  14, 1347-1363(1993)        *
          **************** 64 BIT LINUX VERSION ****************

 EXECUTION OF GAMESS BEGUN Wed Nov 23 02:38:31 2016

            ECHO OF THE FIRST FEW INPUT CARDS -
 INPUT CARD>! SELECT RESTRICTED HARTREE-FOCK AS DEFAULT                                     
 INPUT CARD>$contrl scftyp=rhf $end                                                         
 INPUT CARD>                                                                                
 INPUT CARD>! THEORY: HF OR DFT                                                             
 INPUT CARD> $contrl mplevl=0 $end                                                          
 INPUT CARD>                                                                                
 INPUT CARD> $system timlim=10000 mwords=20 $end                                            
 INPUT CARD> $SCF DIRSCF=.TRUE. $end                                                        
 INPUT CARD>                                                                                
 INPUT CARD>                                                                                
 INPUT CARD>! BASIS SETS                                                                    
 INPUT CARD>! 6-311G(d,p)                                                                   
 INPUT CARD> $BASIS GBASIS=N311 NGAUSS=6 NDFUNC=1 NPFUNC=1 $END                             
 INPUT CARD>                                                                                
 INPUT CARD>! One of the following                                                          
 INPUT CARD> $guess guess=HUCKEL $end                                                       
 INPUT CARD>                                                                                
 INPUT CARD> $statpt projct=.FALSE. $end                                                    
 INPUT CARD> $STATPT IFREEZ(1)=1,2,3 $END                                                   
 INPUT CARD>                                                                                
 INPUT CARD>! Optimize the geometry with COSMO effects                                      
 INPUT CARD> $statpt opttol=0.0005 nstep=50 $end                                            
 INPUT CARD> $contrl nzvar=1 $end                                                           
 INPUT CARD> $zmat dlc=.t. auto=.t. $end                                                    
 INPUT CARD> $contrl runtyp=OPTIMIZE maxit=200 $end                                         
 INPUT CARD>                                                                                
 INPUT CARD>! Run COSMO on perfect conductor                                                
 INPUT CARD> $COSGMS PRFCND=.TRUE. $end                                                     
 INPUT CARD>                                                                                
 INPUT CARD>! Specifying RSOLV                                                              
 INPUT CARD> $COSGMS COSRAD = 1.4 $end                                                      
 INPUT CARD>                                                                                
 INPUT CARD>! available memory                                                              
 INPUT CARD> $SYSTEM MWORDS=40 $END                                                         
 INPUT CARD>                                                                                
 INPUT CARD> $DATA                                                                          
 INPUT CARD>                                                                                
 INPUT CARD>C1                                                                              
 INPUT CARD>C      6.0      3.2195000000    1.0545000000    2.7722000000                    
 INPUT CARD>C      6.0      2.1069000000    1.8756000000    2.0709000000                    
 INPUT CARD>C      6.0      1.9748000000    1.3678000000    0.6219000000                    
 INPUT CARD>C      6.0      0.7540000000    1.6886000000    2.7781000000                    
 INPUT CARD>C      6.0      2.4565000000    3.3723000000    2.0351000000                    
 INPUT CARD>C      6.0      3.5383000000    1.4585000000    4.2070000000                    
 INPUT CARD>H      1.0      4.1464000000    1.1258000000    2.1877000000                    
 INPUT CARD>H      1.0      2.9393000000   -0.0074000000    2.7709000000                    
 INPUT CARD>H      1.0      2.9096000000    1.5060000000    0.0675000000                    
 INPUT CARD>H      1.0      1.7257000000    0.3009000000    0.5975000000                    
 INPUT CARD>H      1.0      1.1866000000    1.9053000000    0.0823000000                    
 INPUT CARD>H      1.0      0.7642000000    2.1030000000    3.7914000000                    
   40000000 WORDS OF MEMORY AVAILABLE

     BASIS OPTIONS
     -------------
     GBASIS=N311         IGAUSS=       6      POLAR=POPN311 
     NDFUNC=       1     NFFUNC=       0     DIFFSP=       F
     NPFUNC=       1      DIFFS=       F     BASNAM=        


     RUN TITLE
     ---------
                                                                                 

 THE POINT GROUP OF THE MOLECULE IS C1      
 THE ORDER OF THE PRINCIPAL AXIS IS     0

 ATOM      ATOMIC                      COORDINATES (BOHR)
           CHARGE         X                   Y                   Z
 C           6.0     6.0839728175        1.9927160541        5.2386983832
 C           6.0     3.9814636835        3.5443700626        3.9134335480
 C           6.0     3.7318308806        2.5847672060        1.1752205918
 C           6.0     1.4248533947        3.1909913029        5.2498477665
 C           6.0     4.6421118888        6.3727229484        3.8457813576
 C           6.0     6.6864174624        2.7561653531        7.9500772303
 H           1.0     7.8355598355        2.1274535170        4.1341535433
 H           1.0     5.5544715957       -0.0139839723        5.2362417394
 H           1.0     5.4983467339        2.8459273375        0.1275565042
 H           1.0     3.2611001370        0.5686185497        1.1291112777
 H           1.0     2.2423488570        3.6004949244        0.1555244488
 H           1.0     1.4441285998        3.9740937522        7.1647071098
 H           1.0     0.9246429258        1.1865589477        5.3862859828
 H           1.0    -0.0935414364        4.1468147075        4.2146558704
 H           1.0     4.6659224363        7.1994780680        5.7423103589
 H           1.0     6.5016022608        6.6843387638        2.9901134304
 H           1.0     3.2535412331        7.4347489535        2.7348114494
 H           1.0     7.4300246385        4.6806622990        8.0481540091
 H           1.0     5.0266711273        2.6225617258        9.1723519992
 H           1.0     8.1318688704        1.4943953111        8.7248648853

          INTERNUCLEAR DISTANCES (ANGS.)




     $CONTRL OPTIONS
     ---------------
 SCFTYP=RHF          RUNTYP=OPTIMIZE     EXETYP=RUN     
 MPLEVL=       0     CITYP =NONE         CCTYP =NONE         VBTYP =NONE    
 DFTTYP=NONE         TDDFT =NONE    
 MULT  =       1     ICHARG=       0     NZVAR =       1     COORD =UNIQUE  
 PP    =NONE         RELWFN=NONE         LOCAL =NONE         NUMGRD=       F
 ISPHER=      -1     NOSYM =       0     MAXIT =     200     UNITS =ANGS    
 PLTORB=       F     MOLPLT=       F     AIMPAC=       F     FRIEND=        
 NPRINT=       7     IREST =       0     GEOM  =INPUT   
 NORMF =       0     NORMP =       0     ITOL  =      20     ICUT  =       9
 INTTYP=BEST         GRDTYP=BEST         QMTTOL= 1.0E-06

     $SYSTEM OPTIONS
     ---------------
  REPLICATED MEMORY=    40000000 WORDS (ON EVERY NODE).
 DISTRIBUTED MEMDDI=           0 MILLION WORDS IN AGGREGATE,
 MEMDDI DISTRIBUTED OVER   1 PROCESSORS IS           0 WORDS/PROCESSOR.
 TOTAL MEMORY REQUESTED ON EACH PROCESSOR=    40000000 WORDS.
 TIMLIM=       10000.00 MINUTES, OR       6.9 DAYS.
 PARALL= F  BALTYP=  DLB     KDIAG=    0  COREFL= F
 MXSEQ2=     300 MXSEQ3=     150  mem10=         0

     $COSGMS OPTIONS
     ---------------
     EPSI  =   INFTY     NSPA  =      92     COSRAD=    1.40
     DISEX =   10.00     OUTCHG=DBLCAV       COSBUG=       F
     COSWRT=       F     DCOSMO=       F

     SYMMETRY COORDINATES WILL NOT BE USED FOR 
     THE COSMO CALCULATION, EVEN IF SPECIFIED:
         -- SWITCHING TO C1 POINT GROUP --


     DEFINITION OF CAVITY
     ---------------------------
     ATOM         COORDINATES           RADIUS 
     1    6.0840    1.9927    5.2387    2.0000
     2    3.9815    3.5444    3.9134    2.0000
     3    3.7318    2.5848    1.1752    2.0000
     4    1.4249    3.1910    5.2498    2.0000
     5    4.6421    6.3727    3.8458    2.0000
     6    6.6864    2.7562    7.9501    2.0000
     7    7.8356    2.1275    4.1342    1.3000
     8    5.5545   -0.0140    5.2362    1.3000
     9    5.4983    2.8459    0.1276    1.3000
    10    3.2611    0.5686    1.1291    1.3000
    11    2.2423    3.6005    0.1555    1.3000
    12    1.4441    3.9741    7.1647    1.3000
    13    0.9246    1.1866    5.3863    1.3000
    14   -0.0935    4.1468    4.2147    1.3000
    15    4.6659    7.1995    5.7423    1.3000
    16    6.5016    6.6843    2.9901    1.3000
    17    3.2535    7.4347    2.7348    1.3000
    18    7.4300    4.6807    8.0482    1.3000
    19    5.0267    2.6226    9.1724    1.3000
    20    8.1319    1.4944    8.7249    1.3000

          ----------------
          PROPERTIES INPUT
          ----------------

     MOMENTS            FIELD           POTENTIAL          DENSITY
 IEMOM =       1   IEFLD =       0   IEPOT =       0   IEDEN =       0
 WHERE =COMASS     WHERE =NUCLEI     WHERE =NUCLEI     WHERE =NUCLEI  
 OUTPUT=BOTH       OUTPUT=BOTH       OUTPUT=BOTH       OUTPUT=BOTH    
 IEMINT=       0   IEFINT=       0                     IEDINT=       0
                                                       MORB  =       0
          EXTRAPOLATION IN EFFECT
          SOSCF IN EFFECT
 ORBITAL PRINTING OPTION: NPREO=     1   198     2     1

     -------------------------------
     INTEGRAL TRANSFORMATION OPTIONS
     -------------------------------
     NWORD  =            0
     CUTOFF = 1.0E-09     MPTRAN =       0
     DIRTRF =       T     AOINTS =DUP     

          ----------------------
          INTEGRAL INPUT OPTIONS
          ----------------------
 NOPK  =       1 NORDER=       0 SCHWRZ=       T


 -----------------------------------------------
  STATISTICS ON AUTOMATIC COORDINATE GENERATION 
 -----------------------------------------------
  NUMBER OF USER SPECIFIED BONDS                             0
  NUMBER OF BONDS                                           19
  NUMBER OF ANGLES                                          36
  NUMBER OF TORSIONS                                        45
  NUMBER OF EXTRA COORD.                                     0
  NUMBER OF EXTRA COORD. FOR CONSTRAINTS                     0
  NUMBER OF CONSTRAINED COORD.                               0

  TOTAL NUMBER OF PRIMITIVES                               100
 -----------------------------------------------

   --- ENCODED Z MATRIX ---
 COORD  TYPE   I   J   K   L   M   N
    1      1    1   7
    2      1    1   2
    3      1    1   8
    4      1    1   6
    5      1    2   4
    6      1    2   3
    7      1    2   5
    8      1    3  11
    9      1    3  10
   10      1    3   9
   11      1    4  14
   12      1    4  13
   13      1    4  12
   14      1    5  16
   15      1    5  15
   16      1    5  17
   17      1    6  20
   18      1    6  19
   19      1    6  18
   20      2    1   2   5
   21      2    1   6  18
   22      2    1   2   3
   23      2    1   6  19
   24      2    1   6  20
   25      2    1   2   4
   26      2    2   5  15
   27      2    2   5  17
   28      2    2   5  16
   29      2    2   3  10
   30      2    2   1   6
   31      2    2   1   7
   32      2    2   1   8
   33      2    2   4  14
   34      2    2   4  13
   35      2    2   4  12
   36      2    2   3   9
   37      2    2   3  11
   38      2    3   2   4
   39      2    3   2   5
   40      2    4   2   5
   41      2    6   1   7
   42      2    6   1   8
   43      2    7   1   8
   44      2    9   3  10
   45      2    9   3  11
   46      2   10   3  11
   47      2   12   4  13
   48      2   12   4  14
   49      2   13   4  14
   50      2   15   5  16
   51      2   15   5  17
   52      2   16   5  17
   53      2   18   6  19
   54      2   18   6  20
   55      2   19   6  20
   56      3    1   2   3   9
   57      3    1   2   3  10
   58      3    1   2   3  11
   59      3    1   2   4  13
   60      3    1   2   5  17
   61      3    1   2   4  14
   62      3    1   2   5  15
   63      3    1   2   4  12
   64      3    1   2   5  16
   65      3    2   1   6  20
   66      3    2   1   6  19
   67      3    2   1   6  18
   68      3    3   2   5  15
   69      3    3   2   4  12
   70      3    3   2   4  13
   71      3    3   2   4  14
   72      3    3   2   1   6
   73      3    3   2   1   8
   74      3    3   2   1   7
   75      3    3   2   5  16
   76      3    3   2   5  17
   77      3    4   2   3   9
   78      3    4   2   5  15
   79      3    4   2   1   6
   80      3    4   2   1   8
   81      3    4   2   1   7
   82      3    4   2   3  10
   83      3    4   2   5  16
   84      3    4   2   3  11
   85      3    4   2   5  17
   86      3    5   2   3   9
   87      3    5   2   4  12
   88      3    5   2   4  13
   89      3    5   2   1   6
   90      3    5   2   4  14
   91      3    5   2   3  10
   92      3    5   2   1   8
   93      3    5   2   3  11
   94      3    5   2   1   7
   95      3    7   1   6  18
   96      3    7   1   6  20
   97      3    7   1   6  19
   98      3    8   1   6  20
   99      3    8   1   6  19
  100      3    8   1   6  18

          INDEP./SYM. INTERNAL COORDINATES
          --------------------------------
 CRD  1=  -0.1958 (  2) -0.1517 ( 20)  0.2260 ( 22)  0.1158 ( 24) -0.1309 ( 25)
          -0.6618 ( 30)  0.2009 ( 31)  0.2019 ( 32)  0.1651 ( 40)  0.2014 ( 41)
           0.2014 ( 42) -0.1055 ( 43) -0.1012 ( 59)  0.1066 ( 60) -0.1135 ( 61)
           0.1331 ( 62) -0.1376 ( 63)
 CRD  2=  -0.3447 ( 20)  0.3644 ( 25) -0.1340 ( 26)  0.1149 ( 27) -0.1197 ( 33)
           0.1325 ( 35) -0.2830 ( 38)  0.3002 ( 39)  0.1901 ( 56)  0.1866 ( 57)
           0.1536 ( 58) -0.1270 ( 59) -0.1405 ( 64)  0.1180 ( 65) -0.1114 ( 70)
           0.1531 ( 78) -0.1947 ( 79) -0.1094 ( 84)  0.1493 ( 85)  0.1551 ( 87)
          -0.2020 ( 89)  0.1464 ( 90)
 CRD  3=   0.2455 (  2)  0.2707 (  4) -0.1414 ( 20)  0.3334 ( 22) -0.1156 ( 25)
           0.1063 ( 26) -0.1173 ( 28)  0.2508 ( 30) -0.1183 ( 34)  0.1164 ( 35)
          -0.1407 ( 37) -0.2193 ( 38) -0.1903 ( 39)  0.3248 ( 40) -0.1032 ( 41)
          -0.1028 ( 42) -0.1009 ( 63) -0.1077 ( 68)  0.1024 ( 69)  0.1054 ( 70)
           0.1697 ( 71) -0.1152 ( 75) -0.1741 ( 76) -0.1221 ( 79) -0.1210 ( 80)
          -0.1228 ( 81)  0.1211 ( 82) -0.1241 ( 86)  0.1143 ( 89)  0.1154 ( 92)
           0.1136 ( 94)
 CRD  4=  -0.2855 (  5)  0.2745 (  7)  0.1975 ( 21) -0.1896 ( 23)  0.1106 ( 28)
          -0.2439 ( 29) -0.1032 ( 34)  0.2524 ( 36) -0.1927 ( 38)  0.2021 ( 39)
           0.1480 ( 41) -0.1474 ( 42) -0.1514 ( 58)  0.3888 ( 72)  0.2302 ( 73)
           0.2297 ( 74)  0.1584 ( 79)  0.1490 ( 89)
 CRD  5=  -0.3508 (  2) -0.2514 (  4)  0.1890 (  5) -0.3210 (  6)  0.2131 (  7)
          -0.1356 ( 24)  0.1602 ( 26)  0.1404 ( 27) -0.1409 ( 28) -0.1538 ( 29)
           0.1386 ( 33) -0.1567 ( 34)  0.1596 ( 35) -0.1391 ( 36)  0.2280 ( 40)
           0.1069 ( 44) -0.1220 ( 60)  0.1284 ( 61)  0.1191 ( 68) -0.1266 ( 69)
           0.1574 ( 77) -0.1199 ( 79) -0.1001 ( 80) -0.1344 ( 81)  0.1234 ( 84)
           0.1063 ( 89) -0.1515 ( 91)  0.1261 ( 92) -0.1240 ( 93)
 CRD  6=   0.1279 (  4)  0.2855 (  5)  0.5516 (  6)  0.2556 (  7)  0.2403 ( 27)
           0.2419 ( 33)  0.2713 ( 37) -0.1219 ( 44) -0.1612 ( 45) -0.1622 ( 46)
          -0.1014 ( 49)  0.1016 ( 68) -0.1460 ( 83)  0.1483 ( 88) -0.1006 ( 91)
 CRD  7=  -0.2205 (  5)  0.2268 (  7)  0.1133 ( 20) -0.2215 ( 21)  0.2151 ( 23)
          -0.1241 ( 25)  0.2272 ( 28)  0.2042 ( 31) -0.2039 ( 32) -0.2187 ( 34)
          -0.2076 ( 41)  0.2069 ( 42) -0.1081 ( 56) -0.1078 ( 57) -0.1275 ( 58)
           0.1045 ( 60) -0.1649 ( 66) -0.1608 ( 67) -0.1324 ( 72) -0.2626 ( 79)
          -0.1501 ( 80) -0.1498 ( 81) -0.2738 ( 89) -0.1613 ( 92) -0.1610 ( 94)
 CRD  8=  -0.4255 (  2) -0.3882 (  5) -0.4094 (  7)  0.1187 ( 21)  0.1364 ( 23)
          -0.1850 ( 24) -0.1949 ( 26) -0.1551 ( 28)  0.1972 ( 30) -0.1304 ( 31)
          -0.1316 ( 32) -0.1447 ( 34) -0.1904 ( 35)  0.1404 ( 47)  0.1469 ( 50)
          -0.1063 ( 53) -0.1033 ( 83)  0.1044 ( 88)
 CRD  9=   0.3492 (  5) -0.3332 (  7)  0.2465 ( 21) -0.2351 ( 23) -0.2173 ( 26)
          -0.1585 ( 27) -0.2727 ( 29)  0.1822 ( 31) -0.1850 ( 32)  0.1855 ( 33)
           0.1857 ( 35)  0.2562 ( 36)  0.1121 ( 46) -0.1725 ( 48)  0.1729 ( 51)
          -0.2070 ( 65) -0.1668 ( 66) -0.1678 ( 67)
 CRD 10=   0.2400 (  2)  0.3997 (  4) -0.2640 (  6)  0.3886 ( 24) -0.1262 ( 26)
           0.2085 ( 27) -0.1031 ( 28) -0.2298 ( 29)  0.1976 ( 33) -0.1497 ( 35)
          -0.2445 ( 36)  0.2510 ( 37)  0.1989 ( 44)  0.1084 ( 47) -0.1732 ( 54)
          -0.1723 ( 55)
 CRD 11=  -0.1427 (  2)  0.1916 (  4)  0.2440 (  6)  0.1771 ( 24)  0.3727 ( 26)
          -0.3042 ( 27) -0.1384 ( 28) -0.2723 ( 33) -0.1665 ( 34)  0.3830 ( 35)
           0.2841 ( 37)  0.1032 ( 41)  0.1039 ( 42) -0.1185 ( 45) -0.1059 ( 46)
           0.1783 ( 49)  0.1809 ( 52)
 CRD 12=   0.3549 (  2) -0.3982 (  4) -0.1429 (  5)  0.1293 (  6) -0.1600 (  7)
          -0.1236 ( 21) -0.1247 ( 23) -0.1014 ( 24)  0.1016 ( 27) -0.2902 ( 28)
           0.1397 ( 31)  0.1390 ( 32)  0.1140 ( 33) -0.2961 ( 34)  0.2796 ( 37)
          -0.1466 ( 41) -0.1464 ( 42) -0.1003 ( 45)  0.1127 ( 47)  0.1144 ( 50)
           0.1462 ( 53)  0.1103 ( 54)  0.1125 ( 55)
 CRD 13=  -0.3407 ( 21)  0.3250 ( 23)  0.1440 ( 26) -0.2828 ( 27) -0.3341 ( 29)
          -0.1335 ( 31)  0.1329 ( 32)  0.2963 ( 33) -0.1673 ( 35)  0.3497 ( 36)
          -0.1366 ( 45)  0.1462 ( 46)  0.1270 ( 54) -0.1359 ( 55)  0.1723 ( 65)
           0.1249 ( 66)  0.1283 ( 67)
 CRD 14=  -0.1192 ( 12)  0.1178 ( 14) -0.2219 ( 26) -0.1978 ( 27)  0.4230 ( 28)
           0.2622 ( 29) -0.1490 ( 31)  0.1488 ( 32)  0.2163 ( 33) -0.4280 ( 34)
           0.2078 ( 35) -0.2548 ( 36)  0.1207 ( 41) -0.1210 ( 42)  0.1113 ( 45)
          -0.1086 ( 46) -0.1779 ( 48)  0.1757 ( 51)  0.1087 ( 66)  0.1081 ( 67)
 CRD 15=   0.1508 (  8)  0.1012 ( 12)  0.1046 ( 14)  0.1118 ( 21)  0.1071 ( 22)
           0.1346 ( 23) -0.2771 ( 24) -0.1981 ( 27)  0.2888 ( 28) -0.2521 ( 29)
          -0.1743 ( 33)  0.2750 ( 34) -0.2557 ( 36)  0.4524 ( 37)  0.2292 ( 44)
           0.1162 ( 48) -0.1007 ( 50)  0.1201 ( 51) -0.1061 ( 53)
 CRD 16=  -0.1140 ( 11)  0.1386 ( 13) -0.1426 ( 15)  0.1115 ( 16) -0.2004 ( 21)
           0.1880 ( 23) -0.3907 ( 26)  0.3193 ( 27) -0.1641 ( 29) -0.3272 ( 33)
           0.3832 ( 35)  0.1532 ( 36) -0.1724 ( 47)  0.1549 ( 49)  0.1679 ( 50)
          -0.1599 ( 52)
 CRD 17=   0.1626 (  1)  0.1375 (  2)  0.1632 (  3)  0.2028 (  4) -0.1682 ( 17)
           0.3011 ( 21)  0.3391 ( 23) -0.4550 ( 24) -0.1529 ( 28) -0.2288 ( 30)
           0.1090 ( 31)  0.1104 ( 32) -0.1563 ( 34) -0.1002 ( 37) -0.1290 ( 43)
          -0.3165 ( 53)
 CRD 18=   0.2516 (  1) -0.2508 (  3)  0.1142 (  9) -0.1133 ( 10)  0.1518 ( 18)
          -0.1586 ( 19) -0.2967 ( 21)  0.2825 ( 23)  0.1749 ( 29)  0.1834 ( 31)
          -0.1832 ( 32) -0.1803 ( 36)  0.1089 ( 45) -0.1059 ( 46)  0.1545 ( 54)
          -0.1627 ( 55) -0.1728 ( 65) -0.1573 ( 66) -0.1575 ( 67)  0.2329 ( 72)
           0.1779 ( 73)  0.1773 ( 74)  0.1653 ( 79)  0.1103 ( 80)  0.1098 ( 81)
           0.1618 ( 89)  0.1069 ( 92)  0.1063 ( 94)
 CRD 19=   0.1259 ( 41) -0.1256 ( 42) -0.2505 ( 56) -0.2511 ( 57) -0.2617 ( 58)
          -0.1284 ( 59) -0.1317 ( 60) -0.1370 ( 61) -0.1079 ( 62) -0.1127 ( 63)
          -0.1224 ( 64) -0.1155 ( 68) -0.1201 ( 69) -0.1358 ( 70) -0.1444 ( 71)
          -0.1301 ( 75) -0.1393 ( 76) -0.2427 ( 77) -0.1090 ( 78) -0.2433 ( 82)
          -0.1235 ( 83) -0.2539 ( 84) -0.1328 ( 85) -0.2424 ( 86) -0.1133 ( 87)
          -0.1290 ( 88) -0.1375 ( 90) -0.2430 ( 91) -0.2537 ( 93)
 CRD 20=   0.1071 (  9) -0.1171 ( 10)  0.1547 ( 13) -0.1469 ( 15)  0.1200 ( 31)
          -0.1203 ( 32) -0.1801 ( 41)  0.1808 ( 42)  0.1087 ( 56)  0.1111 ( 57)
          -0.1445 ( 59) -0.1941 ( 60) -0.1796 ( 61) -0.1906 ( 62) -0.1756 ( 63)
          -0.1609 ( 64) -0.1832 ( 68) -0.1683 ( 69) -0.1371 ( 70) -0.1722 ( 71)
           0.1442 ( 73)  0.1436 ( 74) -0.1535 ( 75) -0.1867 ( 76)  0.1010 ( 77)
          -0.1895 ( 78)  0.1576 ( 80)  0.1570 ( 81)  0.1034 ( 82) -0.1598 ( 83)
          -0.1931 ( 85)  0.1008 ( 86) -0.1749 ( 87) -0.1437 ( 88) -0.1788 ( 90)
           0.1032 ( 91)  0.1580 ( 92)  0.1574 ( 94)
 CRD 21=  -0.1865 (  1) -0.1862 (  3) -0.1750 (  8)  0.1119 (  9)  0.1022 ( 10)
          -0.2337 ( 59)  0.2008 ( 60) -0.2136 ( 61)  0.1948 ( 62) -0.2098 ( 63)
           0.2222 ( 64)  0.1947 ( 68) -0.2090 ( 69) -0.2330 ( 70) -0.2129 ( 71)
           0.2221 ( 75)  0.2007 ( 76)  0.1871 ( 78)  0.2146 ( 83)  0.1932 ( 85)
          -0.2019 ( 87) -0.2258 ( 88) -0.2057 ( 90)
 CRD 22=   0.2292 (  1) -0.2291 (  3) -0.3229 ( 11) -0.1310 ( 12) -0.2684 ( 13)
           0.1188 ( 14)  0.2662 ( 15)  0.3075 ( 16) -0.1347 ( 28)  0.1371 ( 34)
           0.1481 ( 41) -0.1477 ( 42) -0.1377 ( 47) -0.1196 ( 49)  0.1309 ( 50)
           0.1187 ( 52)  0.1080 ( 56)  0.1091 ( 57)  0.1012 ( 58)  0.1395 ( 77)
          -0.1209 ( 80) -0.1209 ( 81)  0.1406 ( 82)  0.1327 ( 84)  0.1402 ( 86)
           0.1414 ( 91) -0.1226 ( 92)  0.1334 ( 93) -0.1227 ( 94)
 CRD 23=  -0.1151 (  6) -0.4245 (  8) -0.4009 (  9) -0.4040 ( 10)  0.1828 ( 11)
           0.1905 ( 12)  0.1395 ( 13)  0.2178 ( 14)  0.1677 ( 15)  0.2120 ( 16)
          -0.1050 ( 26)  0.1682 ( 29)  0.1660 ( 36)  0.1542 ( 37) -0.1802 ( 44)
          -0.1683 ( 45) -0.1702 ( 46)
 CRD 24=  -0.2417 (  8) -0.2623 (  9) -0.2620 ( 10) -0.2786 ( 11) -0.3039 ( 12)
          -0.3039 ( 13) -0.3047 ( 14) -0.3047 ( 15) -0.2797 ( 16)  0.1055 ( 26)
           0.1239 ( 27)  0.1027 ( 28)  0.1236 ( 33)  0.1024 ( 34)  0.1051 ( 35)
           0.1090 ( 37) -0.1068 ( 45) -0.1065 ( 46) -0.1077 ( 47) -0.1245 ( 48)
          -0.1207 ( 49) -0.1079 ( 50) -0.1248 ( 51) -0.1211 ( 52)
 CRD 25=  -0.1668 (  4) -0.4633 ( 17) -0.4994 ( 18) -0.4941 ( 19)  0.1750 ( 21)
           0.1735 ( 23)  0.1862 ( 24) -0.1873 ( 53) -0.1886 ( 54) -0.1885 ( 55)
 CRD 26=   0.2980 (  1) -0.3001 (  3)  0.2079 ( 11)  0.3289 ( 12)  0.2346 ( 13)
          -0.3187 ( 14) -0.2201 ( 15) -0.2011 ( 16)  0.1522 ( 41) -0.1535 ( 42)
           0.1163 ( 48) -0.1123 ( 51) -0.1097 ( 65) -0.1209 ( 73) -0.1201 ( 74)
          -0.1188 ( 80) -0.1180 ( 81) -0.1187 ( 92) -0.1178 ( 94)
 CRD 27=   0.1396 (  1)  0.1422 (  3) -0.6451 ( 17)  0.2953 ( 18)  0.2933 ( 19)
           0.3239 ( 53) -0.1600 ( 54) -0.1583 ( 55)  0.1684 ( 66) -0.1707 ( 67)
          -0.1818 ( 95)  0.1573 ( 97)  0.1795 ( 99) -0.1596 (100)
 CRD 28=  -0.3057 (  9)  0.3270 ( 10) -0.3005 ( 11)  0.3237 ( 13) -0.3203 ( 15)
           0.3202 ( 16)  0.1620 ( 45) -0.1735 ( 46)  0.1616 ( 47) -0.1765 ( 49)
          -0.1726 ( 50)  0.1747 ( 52) -0.1335 ( 58) -0.1109 ( 59) -0.1152 ( 64)
          -0.1188 ( 70) -0.1240 ( 75) -0.1074 ( 83) -0.1343 ( 84) -0.1024 ( 88)
          -0.1348 ( 93)
 CRD 29=  -0.4416 (  8)  0.2176 (  9)  0.2193 ( 10) -0.2932 ( 12)  0.2308 ( 13)
          -0.2950 ( 14)  0.2697 ( 15)  0.2386 ( 44) -0.1180 ( 45) -0.1192 ( 46)
           0.1574 ( 48) -0.1235 ( 49)  0.1586 ( 51) -0.1449 ( 52) -0.1275 ( 56)
           0.1289 ( 57) -0.1196 ( 60)  0.1090 ( 61)  0.1198 ( 71) -0.1302 ( 76)
          -0.1221 ( 77)  0.1343 ( 82) -0.1136 ( 85) -0.1324 ( 86)  0.1025 ( 90)
           0.1240 ( 91)
 CRD 30=   0.3235 (  9) -0.3283 ( 10) -0.2103 ( 12)  0.2409 ( 13)  0.1425 ( 14)
          -0.2420 ( 15) -0.3072 ( 18)  0.3013 ( 19) -0.1736 ( 45)  0.1758 ( 46)
           0.1173 ( 48) -0.1335 ( 49)  0.1350 ( 52)  0.1674 ( 54) -0.1633 ( 55)
           0.1349 ( 58)  0.1086 ( 61) -0.1402 ( 65)  0.1085 ( 71)  0.1366 ( 84)
           0.1092 ( 90)  0.1338 ( 93) -0.1461 ( 96) -0.1460 ( 98)
 CRD 31=  -0.4502 ( 11)  0.1999 ( 12)  0.2468 ( 13)  0.2244 ( 14)  0.2027 ( 15)
          -0.4309 ( 16)  0.2439 ( 47) -0.1086 ( 48) -0.1362 ( 49)  0.2335 ( 50)
          -0.1224 ( 51) -0.1117 ( 52) -0.1455 ( 59) -0.1176 ( 62)  0.1192 ( 63)
           0.1357 ( 64) -0.1237 ( 68)  0.1250 ( 69) -0.1397 ( 70)  0.1296 ( 75)
           0.1559 ( 83) -0.1656 ( 88)
 CRD 32=  -0.2265 (  9)  0.2293 ( 10) -0.1594 ( 13) -0.1046 ( 14)  0.1486 ( 15)
          -0.4464 ( 18)  0.4535 ( 19)  0.1309 ( 45) -0.1329 ( 46)  0.2475 ( 54)
          -0.2498 ( 55) -0.1024 ( 58) -0.1830 ( 65) -0.1715 ( 96) -0.1720 ( 98)
 CRD 33=   0.4208 (  8) -0.2344 (  9) -0.2017 ( 10) -0.2551 ( 12)  0.2857 ( 13)
          -0.2616 ( 14)  0.2925 ( 15) -0.2385 ( 44)  0.1303 ( 45)  0.1124 ( 46)
           0.1379 ( 48) -0.1586 ( 49)  0.1418 ( 51) -0.1624 ( 52)  0.1326 ( 56)
          -0.1272 ( 57)  0.1002 ( 75)  0.1424 ( 77) -0.1174 ( 82)  0.1227 ( 86)
          -0.1370 ( 91)
 CRD 34=  -0.1965 (  9)  0.1932 ( 10)  0.2960 ( 11) -0.3842 ( 12)  0.3953 ( 14)
          -0.2967 ( 16)  0.1097 ( 45) -0.1080 ( 46) -0.1691 ( 47)  0.2152 ( 48)
           0.1697 ( 50) -0.2216 ( 51) -0.1488 ( 62) -0.1467 ( 63) -0.1611 ( 68)
          -0.1593 ( 69) -0.1561 ( 78) -0.1541 ( 87)
 CRD 35=   0.5797 (  1)  0.5792 (  3)  0.1223 ( 17) -0.1212 ( 18) -0.1102 ( 19)
           0.2398 ( 43) -0.1074 ( 73)  0.1075 ( 74) -0.1108 ( 80)  0.1041 ( 81)
          -0.1044 ( 92)  0.1105 ( 94) -0.1032 ( 96) -0.1388 ( 97)  0.1409 (100)
 CRD 36=  -0.3797 (  1)  0.3794 (  3) -0.1033 ( 31)  0.1030 ( 32) -0.1682 ( 65)
          -0.1644 ( 66) -0.1646 ( 67)  0.1227 ( 73)  0.1231 ( 74) -0.2750 ( 95)
          -0.2786 ( 96) -0.2748 ( 97) -0.2781 ( 98) -0.2744 ( 99) -0.2746 (100)
 CRD 37=  -0.2084 (  8) -0.1693 (  9) -0.1566 ( 10)  0.2011 ( 13)  0.2093 ( 15)
           0.1876 ( 17)  0.1021 ( 19)  0.1022 ( 21)  0.1003 ( 23)  0.1376 ( 24)
           0.1139 ( 26) -0.1513 ( 29)  0.1158 ( 31)  0.1150 ( 32)  0.1044 ( 35)
          -0.1453 ( 36) -0.1683 ( 37) -0.1931 ( 41) -0.1926 ( 42)  0.1410 ( 44)
           0.1713 ( 45)  0.1814 ( 46) -0.1210 ( 47)  0.1028 ( 49) -0.1390 ( 50)
          -0.1457 ( 54) -0.1424 ( 55)  0.1074 ( 60) -0.1153 ( 61) -0.1184 ( 73)
           0.1094 ( 74)  0.1977 ( 81) -0.1731 ( 83)  0.1734 ( 88) -0.1922 ( 92)
 CRD 38=  -0.1510 (  1)  0.1525 (  3)  0.1226 (  9) -0.1420 ( 10)  0.1233 ( 11)
           0.2761 ( 12)  0.1161 ( 13) -0.2766 ( 14) -0.1298 ( 16) -0.1334 ( 26)
          -0.1359 ( 27) -0.1880 ( 28)  0.1358 ( 33)  0.1901 ( 34)  0.1434 ( 35)
           0.1096 ( 45) -0.2055 ( 47) -0.2141 ( 49)  0.1925 ( 50)  0.2225 ( 52)
          -0.1533 ( 58)  0.1007 ( 60)  0.1073 ( 66)  0.1059 ( 67) -0.1127 ( 80)
          -0.1106 ( 81) -0.1196 ( 92) -0.1175 ( 94)  0.1358 ( 95)  0.1192 ( 96)
           0.1372 ( 97)  0.1148 ( 98)  0.1328 ( 99)  0.1313 (100)
 CRD 39=   0.1983 (  2) -0.1438 (  8)  0.1342 (  9)  0.1269 ( 10) -0.2736 ( 11)
          -0.1548 ( 13) -0.1608 ( 15) -0.2752 ( 16) -0.1275 ( 22) -0.1369 ( 26)
          -0.1824 ( 27)  0.1154 ( 31)  0.1153 ( 32) -0.1797 ( 33) -0.1329 ( 35)
           0.1080 ( 40) -0.1125 ( 43) -0.1819 ( 44)  0.2520 ( 48)  0.1307 ( 49)
           0.2558 ( 51)  0.1324 ( 52) -0.1041 ( 60)  0.1048 ( 61)  0.1532 ( 68)
          -0.1541 ( 69)  0.1568 ( 77) -0.1544 ( 91)  0.1025 ( 97) -0.1084 (100)
 CRD 40=  -0.2077 (  2) -0.2816 (  4) -0.1997 (  6)  0.2084 (  8)  0.1338 (  9)
           0.1322 ( 10)  0.2419 ( 17)  0.2058 ( 18)  0.2066 ( 19)  0.2119 ( 21)
           0.2113 ( 23)  0.2245 ( 24)  0.1479 ( 29)  0.1480 ( 36)  0.1690 ( 37)
          -0.1264 ( 44) -0.1829 ( 45) -0.1843 ( 46) -0.2118 ( 53) -0.2366 ( 54)
          -0.2359 ( 55)
 CRD 41=   0.2054 (  4) -0.2862 (  5) -0.3005 (  6) -0.2880 (  7)  0.1799 (  9)
           0.1767 ( 10)  0.1773 ( 12)  0.1729 ( 13)  0.1792 ( 14)  0.1716 ( 15)
          -0.1114 ( 18) -0.1070 ( 19)  0.1269 ( 26)  0.1007 ( 27)  0.1297 ( 28)
           0.1326 ( 29)  0.1001 ( 33)  0.1289 ( 34)  0.1266 ( 35)  0.1320 ( 36)
           0.1053 ( 37) -0.2200 ( 44) -0.2174 ( 47) -0.2179 ( 50)  0.1338 ( 53)
 CRD 42=   0.1953 (  1) -0.1950 (  3) -0.4117 (  5)  0.3869 (  7) -0.1127 (  9)
           0.1052 ( 10)  0.1590 ( 11)  0.1838 ( 13) -0.1898 ( 15) -0.1480 ( 16)
          -0.1197 ( 18)  0.1261 ( 19) -0.1149 ( 26) -0.1235 ( 27) -0.1187 ( 28)
           0.1314 ( 33)  0.1273 ( 34)  0.1217 ( 35) -0.1079 ( 47) -0.2099 ( 48)
           0.1022 ( 50)  0.2090 ( 51) -0.1343 ( 95) -0.1393 ( 97) -0.1390 ( 99)
          -0.1340 (100)
 CRD 43=   0.1308 (  2) -0.2766 (  4) -0.2468 (  5)  0.4197 (  6) -0.2876 (  7)
          -0.2123 (  8)  0.2095 ( 12)  0.2082 ( 14) -0.1162 ( 29) -0.1170 ( 36)
          -0.1230 ( 37)  0.1704 ( 45)  0.1569 ( 46) -0.1826 ( 49) -0.1914 ( 52)
          -0.1103 ( 53) -0.1297 ( 60)  0.1373 ( 61)
 CRD 44=   0.1105 (  1) -0.3796 (  2)  0.1086 (  3)  0.2502 (  4)  0.1804 (  6)
           0.1042 ( 11) -0.1125 ( 13) -0.1071 ( 15)  0.1095 ( 16)  0.2203 ( 17)
          -0.1937 ( 18) -0.1691 ( 19)  0.1862 ( 31)  0.1871 ( 32) -0.1809 ( 43)
           0.2620 ( 53)  0.1337 ( 66) -0.1416 ( 67)  0.1614 ( 96)  0.2872 ( 97)
          -0.1461 ( 98) -0.2957 (100)
 CRD 45=  -0.1615 (  1)  0.1623 (  3) -0.1380 (  5)  0.1307 (  7) -0.1916 (  9)
           0.1947 ( 10)  0.2876 ( 18) -0.3017 ( 19)  0.1132 ( 31) -0.1095 ( 32)
          -0.1427 ( 45)  0.1500 ( 46)  0.2180 ( 54) -0.2268 ( 55)  0.2394 ( 58)
          -0.2962 ( 65)  0.1579 ( 84)  0.1587 ( 93)  0.1617 ( 95) -0.1593 ( 96)
           0.1769 ( 97) -0.1620 ( 98)  0.1743 ( 99)  0.1590 (100)
 CRD 46=   0.1077 (  2)  0.1016 (  3) -0.3381 (  4)  0.1324 ( 13)  0.1312 ( 15)
           0.2975 ( 17)  0.1055 ( 23) -0.1133 ( 31) -0.1151 ( 32)  0.1841 ( 41)
           0.1830 ( 42) -0.1568 ( 43)  0.1001 ( 49)  0.1430 ( 53) -0.1543 ( 54)
          -0.1414 ( 55)  0.1535 ( 60) -0.1616 ( 61)  0.1607 ( 66) -0.1689 ( 67)
          -0.1085 ( 71)  0.1576 ( 73) -0.1566 ( 74)  0.1014 ( 76)  0.1467 ( 80)
          -0.1675 ( 81)  0.1285 ( 85) -0.1327 ( 90)  0.1662 ( 92) -0.1480 ( 94)
          -0.1685 ( 95)  0.1611 ( 97)  0.1632 ( 99) -0.1664 (100)
 CRD 47=  -0.2832 (  8)  0.1871 ( 10)  0.1001 ( 13) -0.2024 ( 14)  0.2820 ( 16)
          -0.1301 ( 27)  0.1319 ( 37) -0.2123 ( 44)  0.1401 ( 46)  0.2108 ( 50)
          -0.1521 ( 51)  0.1502 ( 56) -0.2068 ( 57) -0.2148 ( 62)  0.1425 ( 64)
          -0.2696 ( 68)  0.1033 ( 69)  0.1194 ( 70)  0.1490 ( 77) -0.2121 ( 78)
          -0.2080 ( 82)  0.1452 ( 83)  0.1025 ( 87)  0.1186 ( 88) -0.2604 ( 91)
 CRD 48=   0.1688 (  8) -0.1716 (  9) -0.3267 ( 11)  0.1817 ( 12)  0.1420 ( 13)
          -0.1509 ( 15)  0.1651 ( 16)  0.1509 ( 33)  0.1014 ( 39)  0.1265 ( 44)
          -0.1284 ( 45) -0.2439 ( 47)  0.1374 ( 48)  0.1083 ( 49)  0.1230 ( 50)
          -0.1141 ( 52) -0.1587 ( 56)  0.1980 ( 59) -0.2163 ( 63)  0.1511 ( 64)
          -0.2515 ( 69)  0.1628 ( 70)  0.1802 ( 75) -0.2200 ( 77)  0.2098 ( 83)
          -0.1885 ( 86) -0.1868 ( 87)  0.2275 ( 88)
 CRD 49=   0.1850 (  9) -0.1911 ( 10) -0.2096 ( 12)  0.2218 ( 13)  0.2101 ( 14)
          -0.2235 ( 15)  0.1046 ( 26) -0.1040 ( 35)  0.1383 ( 45) -0.1427 ( 46)
          -0.1553 ( 48)  0.1656 ( 49)  0.1558 ( 51) -0.1669 ( 52)  0.1161 ( 56)
           0.1237 ( 57) -0.1165 ( 58)  0.1236 ( 59) -0.1545 ( 60) -0.1539 ( 61)
           0.1084 ( 62)  0.1085 ( 63)  0.1251 ( 64)  0.1089 ( 68)  0.1078 ( 69)
           0.1230 ( 70) -0.1546 ( 71) -0.1031 ( 73) -0.1054 ( 74)  0.1256 ( 75)
          -0.1540 ( 76)  0.1104 ( 77)  0.1139 ( 78) -0.1080 ( 80) -0.1102 ( 81)
           0.1180 ( 82)  0.1305 ( 83) -0.1221 ( 84) -0.1491 ( 85)  0.1110 ( 86)
           0.1131 ( 87)  0.1282 ( 88) -0.1493 ( 90)  0.1186 ( 91) -0.1083 ( 92)
          -0.1215 ( 93) -0.1105 ( 94)
 CRD 50=   0.1609 (  1) -0.1573 (  2)  0.1560 (  3) -0.2103 ( 17)  0.1217 ( 18)
           0.1025 ( 19)  0.1899 ( 24)  0.1771 ( 30) -0.2438 ( 43) -0.1712 ( 53)
          -0.1005 ( 61) -0.1626 ( 66)  0.1737 ( 67) -0.1351 ( 71)  0.1097 ( 73)
          -0.1044 ( 74)  0.1295 ( 76) -0.1534 ( 81)  0.1214 ( 85) -0.1245 ( 90)
           0.1537 ( 92)  0.3414 ( 95)  0.1599 ( 96) -0.1815 ( 98) -0.3363 ( 99)
 CRD 51=   0.1454 (  1) -0.1469 (  3) -0.1166 (  5)  0.1122 (  7)  0.1623 (  9)
          -0.1678 ( 10)  0.1087 ( 12) -0.1164 ( 14)  0.1764 ( 18) -0.1883 ( 19)
           0.1427 ( 21) -0.1344 ( 23) -0.1129 ( 29)  0.1153 ( 36)  0.1092 ( 38)
          -0.1142 ( 39) -0.1291 ( 41)  0.1313 ( 42)  0.1209 ( 45) -0.1234 ( 46)
           0.1303 ( 54) -0.1391 ( 55) -0.1425 ( 58)  0.1669 ( 66)  0.1487 ( 67)
           0.1407 ( 71) -0.2417 ( 72)  0.1538 ( 76)  0.1049 ( 80)  0.1052 ( 81)
          -0.2266 ( 84)  0.1110 ( 92) -0.2293 ( 93)  0.1113 ( 94) -0.2519 ( 96)
          -0.2499 ( 98)
 CRD 52=   0.2726 (  2)  0.1418 (  8)  0.1444 ( 11)  0.1442 ( 16) -0.1143 ( 20)
          -0.1191 ( 22) -0.1150 ( 25) -0.1354 ( 27) -0.1357 ( 33) -0.1354 ( 37)
           0.1173 ( 38)  0.1180 ( 39)  0.1221 ( 40) -0.1122 ( 56)  0.1096 ( 57)
          -0.1059 ( 59) -0.1212 ( 62)  0.1209 ( 63)  0.1050 ( 64) -0.2468 ( 70)
          -0.1468 ( 71)  0.2454 ( 75)  0.1486 ( 76) -0.2587 ( 78)  0.2493 ( 82)
           0.1413 ( 84) -0.1293 ( 85) -0.2512 ( 86)  0.2581 ( 87)  0.1313 ( 90)
          -0.1373 ( 93)
 CRD 53=  -0.1001 (  3)  0.1422 (  4)  0.2328 (  6) -0.1217 (  7)  0.1271 ( 13)
           0.1240 ( 15) -0.1576 ( 22) -0.1159 ( 26) -0.1670 ( 30) -0.1227 ( 35)
           0.1484 ( 40)  0.1412 ( 43)  0.2464 ( 59) -0.1691 ( 62)  0.1900 ( 63)
          -0.2362 ( 64) -0.1587 ( 71) -0.1060 ( 73)  0.1318 ( 74)  0.1400 ( 76)
          -0.1620 ( 79) -0.2740 ( 80)  0.2104 ( 85)  0.1430 ( 89) -0.2188 ( 90)
           0.2687 ( 94)
 CRD 54=  -0.1669 (  1)  0.1629 (  3) -0.1805 (  5)  0.1659 (  7) -0.1363 ( 20)
          -0.1014 ( 21)  0.1466 ( 25)  0.1410 ( 31) -0.1378 ( 32)  0.1037 ( 38)
          -0.1127 ( 39)  0.1082 ( 41) -0.1101 ( 42)  0.2090 ( 56)  0.2156 ( 57)
          -0.1434 ( 62) -0.1189 ( 63) -0.1040 ( 64) -0.2384 ( 66) -0.2315 ( 67)
           0.1064 ( 71) -0.2306 ( 73) -0.2256 ( 74)  0.1251 ( 76)  0.2328 ( 79)
          -0.1560 ( 84)  0.2524 ( 89) -0.1623 ( 93)  0.1674 ( 96)  0.1701 ( 98)

 THE DETERMINANT OF THE G MATRIX IS 10**(   -16)


                     --------------------
                     INTERNAL COORDINATES
                     --------------------

                 - - ATOMS - -         COORDINATE      COORDINATE
 NO.   TYPE    I  J  K  L  M  N        (BOHR,RAD)       (ANG,DEG)
 ----------------------------------------------------------------
   1 STRETCH   1  7                     2.0751459       1.0981200
   2 STRETCH   1  2                     2.9299320       1.5504534
   3 STRETCH   1  8                     2.0753849       1.0982465
   4 STRETCH   1  6                     2.8805155       1.5243033
   5 STRETCH   2  4                     2.9063957       1.5379985
   6 STRETCH   2  3                     2.9122095       1.5410750
   7 STRETCH   2  5                     2.9052733       1.5374045
   8 STRETCH   3 11                     2.0712411       1.0960537
   9 STRETCH   3 10                     2.0708860       1.0958658
  10 STRETCH   3  9                     2.0703582       1.0955864
  11 STRETCH   4 14                     2.0714110       1.0961436
  12 STRETCH   4 13                     2.0704045       1.0956110
  13 STRETCH   4 12                     2.0688904       1.0948097
  14 STRETCH   5 16                     2.0705015       1.0956623
  15 STRETCH   5 15                     2.0690368       1.0948872
  16 STRETCH   5 17                     2.0712996       1.0960846
  17 STRETCH   6 20                     2.0692243       1.0949864
  18 STRETCH   6 19                     2.0655661       1.0930506
  19 STRETCH   6 18                     2.0654925       1.0930116
  20 BEND      1  2  5                  1.9421955     111.2796053
  21 BEND      1  6 18                  1.9465110     111.5268629
  22 BEND      1  2  3                  1.8884117     108.1980176
  23 BEND      1  6 19                  1.9517389     111.8264011
  24 BEND      1  6 20                  1.9144509     109.6899558
  25 BEND      1  2  4                  1.9378407     111.0300920
  26 BEND      2  5 15                  1.9501040     111.7327303
  27 BEND      2  5 17                  1.9382126     111.0514044
  28 BEND      2  5 16                  1.9394531     111.1224756
  29 BEND      2  3 10                  1.9403729     111.1751788
  30 BEND      2  1  6                  2.0213683     115.8158734
  31 BEND      2  1  7                  1.9076985     109.3030731
  32 BEND      2  1  8                  1.9054496     109.1742179
  33 BEND      2  4 14                  1.9378910     111.0329727
  34 BEND      2  4 13                  1.9396407     111.1332232
  35 BEND      2  4 12                  1.9512771     111.7999418
  36 BEND      2  3  9                  1.9402348     111.1672646
  37 BEND      2  3 11                  1.9422281     111.2814741
  38 BEND      3  2  4                  1.8932328     108.4742512
  39 BEND      3  2  5                  1.8948202     108.5652013
  40 BEND      4  2  5                  1.9061507     109.2143908
  41 BEND      6  1  7                  1.8831257     107.8951547
  42 BEND      6  1  8                  1.8867697     108.1039390
  43 BEND      7  1  8                  1.8519909     106.1112618
  44 BEND      9  3 10                  1.8812500     107.7876869
  45 BEND      9  3 11                  1.8782192     107.6140337
  46 BEND     10  3 11                  1.8786443     107.6383899
  47 BEND     12  4 13                  1.8835817     107.9212819
  48 BEND     12  4 14                  1.8699533     107.1404332
  49 BEND     13  4 14                  1.8781809     107.6118415
  50 BEND     15  5 16                  1.8842395     107.9589717
  51 BEND     15  5 17                  1.8697057     107.1262443
  52 BEND     16  5 17                  1.8788835     107.6520926
  53 BEND     18  6 19                  1.8980578     108.7506994
  54 BEND     18  6 20                  1.8743231     107.3908028
  55 BEND     19  6 20                  1.8757996     107.4753989
  56 TORSION   1  2  3  9              -1.0648117     -61.0092161
  57 TORSION   1  2  3 10               1.0310998      59.0776653
  58 TORSION   1  2  3 11               3.1250522     179.0523039
  59 TORSION   1  2  4 13              -0.9611017     -55.0670683
  60 TORSION   1  2  5 17               3.0366938     173.9897371
  61 TORSION   1  2  4 14              -3.0510803    -174.8140231
  62 TORSION   1  2  5 15              -1.1600408     -66.4654410
  63 TORSION   1  2  4 12               1.1447736      65.5906981
  64 TORSION   1  2  5 16               0.9457397      54.1868944
  65 TORSION   2  1  6 20               3.1003803     177.6387036
  66 TORSION   2  1  6 19               1.0210501      58.5018631
  67 TORSION   2  1  6 18              -1.1086057     -63.5184295
  68 TORSION   3  2  5 15               3.0467170     174.5640237
  69 TORSION   3  2  4 12              -3.0655735    -175.6444223
  70 TORSION   3  2  4 13               1.1117365      63.6978114
  71 TORSION   3  2  4 14              -0.9782421     -56.0491435
  72 TORSION   3  2  1  6               3.0964820     177.4153527
  73 TORSION   3  2  1  8              -1.0529532     -60.3297729
  74 TORSION   3  2  1  7               0.9657701      55.3345506
  75 TORSION   3  2  5 16              -1.1306878     -64.7836410
  76 TORSION   3  2  5 17               0.9602662      55.0192017
  77 TORSION   4  2  3  9               3.1145891     178.4528095
  78 TORSION   4  2  5 15               0.9854435      56.4617531
  79 TORSION   4  2  1  6              -1.1109644     -63.6535705
  80 TORSION   4  2  1  8               1.0227857      58.6013038
  81 TORSION   4  2  1  7               3.0415090     174.2656274
  82 TORSION   4  2  3 10              -1.0726848     -61.4603091
  83 TORSION   4  2  5 16               3.0912240     177.1140885
  84 TORSION   4  2  3 11               1.0212677      58.5143294
  85 TORSION   4  2  5 17              -1.1010073     -63.0830689
  86 TORSION   5  2  3  9               1.0451401      59.8821149
  87 TORSION   5  2  4 12              -1.0033054     -57.4851671
  88 TORSION   5  2  4 13              -3.1091807    -178.1429334
  89 TORSION   5  2  1  6               1.0162253      58.2254213
  90 TORSION   5  2  4 14               1.0840259      62.1101117
  91 TORSION   5  2  3 10               3.1410515     179.9689963
  92 TORSION   5  2  1  8              -3.1332099    -179.5197043
  93 TORSION   5  2  3 11              -1.0481813     -60.0563652
  94 TORSION   5  2  1  7              -1.1144866     -63.8553808
  95 TORSION   7  1  6 18               1.0351102      59.3074434
  96 TORSION   7  1  6 20              -1.0390892     -59.5354235
  97 TORSION   7  1  6 19              -3.1184193    -178.6722640
  98 TORSION   8  1  6 20               0.9567543      54.8179827
  99 TORSION   8  1  6 19              -1.1225758     -64.3188579
 100 TORSION   8  1  6 18               3.0309536     173.6608495

     ------------------------------------------
     THE POINT GROUP IS C1 , NAXIS= 1, ORDER= 1
     ------------------------------------------

     DIMENSIONS OF THE SYMMETRY SUBSPACES ARE
 A   =  198

 ..... DONE SETTING UP THE RUN .....
 STEP CPU TIME =     0.02 TOTAL CPU TIME =        0.0 (    0.0 MIN)
 TOTAL WALL CLOCK TIME=        0.0 SECONDS, CPU UTILIZATION IS 100.00%


          -----------------------------
          STATIONARY POINT LOCATION RUN
          -----------------------------

 OBTAINING INITIAL HESSIAN, HESS=GUESS   
 DIAGONAL GUESS HESSIAN IN INTERNAL COORDS IS
     1  0.3409     2  0.3529     3  0.3409     4  0.3713     5  0.3615
     6  0.3593     7  0.3619     8  0.3423     9  0.3424    10  0.3426
    11  0.3423    12  0.3426    13  0.3431    14  0.3426    15  0.3431
    16  0.3423    17  0.3430    18  0.3443    19  0.3443    20  0.2465
    21  0.2242    22  0.2463    23  0.2242    24  0.2241    25  0.2465
    26  0.2233    27  0.2233    28  0.2233    29  0.2231    30  0.2475
    31  0.2224    32  0.2224    33  0.2232    34  0.2233    35  0.2233
    36  0.2231    37  0.2231    38  0.2472    39  0.2472    40  0.2474
    41  0.2239    42  0.2239    43  0.2026    44  0.2028    45  0.2028
    46  0.2028    47  0.2029    48  0.2029    49  0.2028    50  0.2029
    51  0.2029    52  0.2028    53  0.2031    54  0.2030    55  0.2030
    56  0.2500    57  0.2500    58  0.2500    59  0.2500    60  0.2500
    61  0.2500    62  0.2500    63  0.2500    64  0.2500    65  0.2500
    66  0.2500    67  0.2500    68  0.2500    69  0.2500    70  0.2500
    71  0.2500    72  0.2500    73  0.2500    74  0.2500    75  0.2500
    76  0.2500    77  0.2500    78  0.2500    79  0.2500    80  0.2500
    81  0.2500    82  0.2500    83  0.2500    84  0.2500    85  0.2500
    86  0.2500    87  0.2500    88  0.2500    89  0.2500    90  0.2500
    91  0.2500    92  0.2500    93  0.2500    94  0.2500    95  0.2500
    96  0.2500    97  0.2500    98  0.2500    99  0.2500   100  0.2500
 TRANSFORMING HESSIAN TO SYMMETRY COORDINATES

          PARAMETERS CONTROLLING GEOMETRY SEARCH ARE
          METHOD =QA                  UPHESS =BFGS    
          NNEG   =         0          NFRZ   =         3
          NSTEP  =        50          IFOLOW =         1
          HESS   =GUESS               RESTAR =         F
          IHREP  =         0          HSSEND =         F
          NPRT   =         0          NPUN   =         0
          OPTTOL = 5.000E-04          RMIN   = 1.500E-03
          RMAX   = 1.000E-01          RLIM   = 7.000E-02
          DXMAX  = 3.000E-01          PURIFY =         F
          MOVIE  =         F          TRUPD  =         T
          TRMAX  = 5.000E-01          TRMIN  = 5.000E-02
          ITBMAT =         5          STPT   =         F
          STSTEP = 1.000E-02          PROJCT=          F
          FROZEN COORD(S)=   1   2   3


      ***** EQUILIBRIUM GEOMETRY LOCATED *****
            (SUBJECT TO   3 CONSTRAINT(S))
 COORDINATES OF ALL ATOMS ARE (ANGS)
   ATOM   CHARGE       X              Y              Z
 ------------------------------------------------------------
 C           6.0   3.2133767071   1.0612241675   2.7687891215
 C           6.0   2.1042221748   1.8759451822   2.0670517284
 C           6.0   1.9762404205   1.3658639998   0.6227750274
 C           6.0   0.7553341063   1.6860250282   2.7798230473
 C           6.0   2.4603739551   3.3709318749   2.0356967751
 C           6.0   3.5399359109   1.4577419820   4.2109160116
 H           1.0   4.1215030260   1.1381793267   2.1729377985
 H           1.0   2.9261942766   0.0111002817   2.7510078494
 H           1.0   2.9062549537   1.5026590860   0.0761350615
 H           1.0   1.7302322076   0.3067311381   0.6025916528
 H           1.0   1.1939330647   1.9005381551   0.0899709986
 H           1.0   0.7702149576   2.0939529686   3.7855428464
 H           1.0   0.4965598310   0.6320020557   2.8494139748
 H           1.0  -0.0387852060   2.1897938920   2.2345728463
 H           1.0   2.4771741645   3.8009303044   3.0321148446
 H           1.0   3.4376992464   3.5298793977   1.5855688500
 H           1.0   1.7295765801   3.9250699173   1.4521749187
 H           1.0   3.9235473997   2.4711354317   4.2723988165
 H           1.0   2.6698999900   1.3892603610   4.8562960981
 H           1.0   4.3000480677   0.7963211416   4.6168390920


                     --------------------
                     INTERNAL COORDINATES
                     --------------------

                 - - ATOMS - -         COORDINATE      COORDINATE
 NO.   TYPE    I  J  K  L  M  N        (BOHR,RAD)       (ANG,DEG)
 ----------------------------------------------------------------
   1 STRETCH   1  7                     2.0576802       1.0888775
   2 STRETCH   1  2                     2.9192624       1.5448073
   3 STRETCH   1  8                     2.0575898       1.0888297
   4 STRETCH   1  6                     2.8929460       1.5308812
   5 STRETCH   2  4                     2.9052726       1.5374042
   6 STRETCH   2  3                     2.9045877       1.5370417
   7 STRETCH   2  5                     2.9047814       1.5371442
   8 STRETCH   3 11                     2.0542994       1.0870885
   9 STRETCH   3 10                     2.0551062       1.0875154
  10 STRETCH   3  9                     2.0549023       1.0874076
  11 STRETCH   4 14                     2.0542515       1.0870632
  12 STRETCH   4 13                     2.0551771       1.0875530
  13 STRETCH   4 12                     2.0511136       1.0854027
  14 STRETCH   5 16                     2.0554140       1.0876783
  15 STRETCH   5 15                     2.0510535       1.0853708
  16 STRETCH   5 17                     2.0541865       1.0870288
  17 STRETCH   6 20                     2.0527866       1.0862880
  18 STRETCH   6 19                     2.0511735       1.0854343
  19 STRETCH   6 18                     2.0509441       1.0853129
  20 BEND      1  2  5                  1.9346082     110.8448828
  21 BEND      1  6 18                  1.9504642     111.7533686
  22 BEND      1  2  3                  1.8876759     108.1558645
  23 BEND      1  6 19                  1.9528059     111.8875350
  24 BEND      1  6 20                  1.9215118     110.0945191
  25 BEND      1  2  4                  1.9328514     110.7442290
  26 BEND      2  5 15                  1.9499894     111.7261618
  27 BEND      2  5 17                  1.9294081     110.5469388
  28 BEND      2  5 16                  1.9377334     111.0239464
  29 BEND      2  3 10                  1.9384989     111.0678055
  30 BEND      2  1  6                  2.0313851     116.3897914
  31 BEND      2  1  7                  1.8890996     108.2374324
  32 BEND      2  1  8                  1.8879414     108.1710723
  33 BEND      2  4 14                  1.9295967     110.5577488
  34 BEND      2  4 13                  1.9370886     110.9870032
  35 BEND      2  4 12                  1.9510196     111.7851869
  36 BEND      2  3  9                  1.9384212     111.0633534
  37 BEND      2  3 11                  1.9361062     110.9307118
  38 BEND      3  2  4                  1.8982030     108.7590211
  39 BEND      3  2  5                  1.8995700     108.8373456
  40 BEND      4  2  5                  1.9101614     109.4441847
  41 BEND      6  1  7                  1.8957665     108.6194177
  42 BEND      6  1  8                  1.8980584     108.7507367
  43 BEND      7  1  8                  1.8537530     106.2122247
  44 BEND      9  3 10                  1.8824736     107.8577897
  45 BEND      9  3 11                  1.8830642     107.8916290
  46 BEND     10  3 11                  1.8829599     107.8856544
  47 BEND     12  4 13                  1.8841125     107.9516963
  48 BEND     12  4 14                  1.8761237     107.4939688
  49 BEND     13  4 14                  1.8832653     107.9031507
  50 BEND     15  5 16                  1.8840152     107.9461171
  51 BEND     15  5 17                  1.8768060     107.5330631
  52 BEND     16  5 17                  1.8832895     107.9045377
  53 BEND     18  6 19                  1.8844573     107.9714510
  54 BEND     18  6 20                  1.8755297     107.4599354
  55 BEND     19  6 20                  1.8757795     107.4742487
  56 TORSION   1  2  3  9              -1.0627614     -60.8917451
  57 TORSION   1  2  3 10               1.0322267      59.1422317
  58 TORSION   1  2  3 11               3.1262853     179.1229553
  59 TORSION   1  2  4 13              -0.9663341     -55.3668652
  60 TORSION   1  2  5 17               3.0390910     174.1270872
  61 TORSION   1  2  4 14              -3.0555505    -175.0701496
  62 TORSION   1  2  5 15              -1.1546794     -66.1582559
  63 TORSION   1  2  4 12               1.1382749      65.2183500
  64 TORSION   1  2  5 16               0.9495484      54.4051133
  65 TORSION   2  1  6 20               3.1007053     177.6573251
  66 TORSION   2  1  6 19               1.0160368      58.2146232
  67 TORSION   2  1  6 18              -1.0996366     -63.0045373
  68 TORSION   3  2  5 15               3.0545514     175.0129030
  69 TORSION   3  2  4 12              -3.0728522    -176.0614649
  70 TORSION   3  2  4 13               1.1057240      63.3533200
  71 TORSION   3  2  4 14              -0.9834924     -56.3499645
  72 TORSION   3  2  1  6               3.0981210     177.5092602
  73 TORSION   3  2  1  8              -1.0431883     -59.7702843
  74 TORSION   3  2  1  7               0.9583489      54.9093457
  75 TORSION   3  2  5 16              -1.1244062     -64.4237278
  76 TORSION   3  2  5 17               0.9651365      55.2982461
  77 TORSION   4  2  3  9               3.1201969     178.7741113
  78 TORSION   4  2  5 15               0.9822167      56.2768734
  79 TORSION   4  2  1  6              -1.1066419     -63.4059082
  80 TORSION   4  2  1  8               1.0352341      59.3145474
  81 TORSION   4  2  1  7               3.0367713     173.9941774
  82 TORSION   4  2  3 10              -1.0680003     -61.1919118
  83 TORSION   4  2  5 16               3.0864445     176.8402427
  84 TORSION   4  2  3 11               1.0260583      58.7888118
  85 TORSION   4  2  5 17              -1.1071982     -63.4377835
  86 TORSION   5  2  3  9               1.0403757      59.6091395
  87 TORSION   5  2  4 12              -0.9996698     -57.2768593
  88 TORSION   5  2  4 13              -3.1042788    -177.8620745
  89 TORSION   5  2  1  6               1.0169984      58.2697156
  90 TORSION   5  2  4 14               1.0896901      62.4346411
  91 TORSION   5  2  3 10               3.1353639     179.6431164
  92 TORSION   5  2  1  8              -3.1243109    -179.0098289
  93 TORSION   5  2  3 11              -1.0537628     -60.3761600
  94 TORSION   5  2  1  7              -1.1227738     -64.3301989
  95 TORSION   7  1  6 18               1.0366486      59.3955871
  96 TORSION   7  1  6 20              -1.0461949     -59.9425506
  97 TORSION   7  1  6 19              -3.1308633    -179.3852524
  98 TORSION   8  1  6 20               0.9641168      55.2398209
  99 TORSION   8  1  6 19              -1.1205517     -64.2028809
 100 TORSION   8  1  6 18               3.0469602     174.5779586

          INTERNUCLEAR DISTANCES (ANGS.)


 =====================================================
   GAMESS/COSab RESULTS
 =====================================================

   Dielectric Constant                  = INFTY
   Basic Grid Size                      =                 1082
   Number of Segments                   =                   92
   Number of Segments located on spheres=                  228
   Number of Segments of the cavity     =                  580
   Solvent Radius (rsolv)               = 1.40
   Outlying Charge Error Method         = double cavity

 =====================================================

  Total solvated Energy (a.u.)          =  -235.4263170679
  Total Energy corrected (a.u.)         =  -235.4262358403

  Outlying charge effect (a.u.)         =     0.0000812276
  Outlying charge effect (kcal/mol)     =     0.0509711625

  Dielectric Energy (a.u.)              =    -0.0013435232
  Dielectric energy corr. (a.u.)        =    -0.0012622955

  Sum of polarization charges           =     0.0277769403
  Sum of polarization charges(cor.)     =    -0.0277769403

  Total surface area of cavity (A**2)   =  145.01
  Total volume of cavity (A**3)         =  145.31

 =====================================================
 NPS=                   580
NR.  ATOM  (X, Y, Z)(a.u.)                  CHARGE(e)  AREA(A**2) SIGMA(e/A**2)
   1   1   8.933334  -0.452836   5.469627   0.000634   0.185824   0.003412
   2   1   7.153051  -0.851944   3.006944   0.000885   0.185824   0.004765
   3   1   7.824451  -0.406876   2.909435   0.000982   0.185824   0.005283
   4   1   9.318517   0.074720   5.092813   0.000835   0.278737   0.002995
   5   1   8.337771  -1.002878   4.912007   0.001543   0.325193   0.004744
   6   1   7.789719  -0.967020   3.651193   0.001667   0.278737   0.005979
   7   1   8.084055  -1.130941   5.865326   0.000862   0.278737   0.003094
   8   1   8.499030  -0.676154   4.134545   0.001441   0.278737   0.005169
   9   3   1.065350   0.906662  -0.910202   0.002333   0.418105   0.005580
  10   3   4.860260  -0.108389  -1.228048   0.001941   0.418105   0.004643
  11   3   3.374111   3.344195  -2.507145   0.001479   0.371649   0.003979
  12   3   0.398670   0.883338   0.653630   0.001335   0.278737   0.004791
  13   3   4.423087   3.431782  -2.440649   0.001388   0.325193   0.004268
  14   3   5.647881   0.447985  -1.287513   0.001229   0.278737   0.004409
  15   3   0.666966   0.797936  -0.124863   0.000954   0.185824   0.005135
  16   3   0.254276   1.645545   0.038146   0.001351   0.278737   0.004847
  17   3   6.079252  -0.331457   0.625861   0.001174   0.232280   0.005055
  18   3   5.740000  -0.299791  -0.224149   0.002110   0.371649   0.005678
  19   3   4.548522   0.876505  -2.096660   0.001526   0.464561   0.003285
  20   3   3.819344   2.182854  -2.580576   0.001406   0.464561   0.003027
  21   3   4.044150   4.455561  -2.090352   0.002107   0.371649   0.005671
  22   3   4.045190   5.292769  -1.437430   0.001404   0.278737   0.005038
  23   3   3.552764   0.128868  -1.693273   0.001302   0.418105   0.003115
  24   3   2.166877   0.546361  -1.595576   0.001527   0.418105   0.003653
  25   3   1.662509   1.565550  -1.816376   0.001690   0.464561   0.003638
  26   3   2.590203   2.429474  -2.421974   0.000949   0.325193   0.002919
  27   3   4.751764   1.918757  -2.402343   0.000801   0.278737   0.002873
  28   3   6.504515   0.237903   0.118126   0.000647   0.139368   0.004639
  29   3   4.875688   5.034695  -1.461667   0.001254   0.278737   0.004498
  30   3   3.096707   1.182092  -2.275685   0.001176   0.464561   0.002532
  31   4  -0.735784   6.165235   6.107490   0.001156   0.232280   0.004976
  32   4  -1.638764   2.377029   7.309438   0.000991   0.371649   0.002667
  33   4   1.202157   0.762638   8.144522   0.000833   0.185824   0.004485
  34   4  -1.215000   1.746752   2.966114   0.001279   0.278737   0.004589
  35   4   0.813643   1.531749   8.595364   0.000716   0.139368   0.005136
  36   4  -1.060113   2.963924   8.089897   0.001350   0.418105   0.003228
  37   4  -0.462350   6.035362   6.864042   0.001146   0.232280   0.004933
  38   4  -1.888033   1.830526   4.046986   0.001521   0.278737   0.005458
  39   4  -1.483989   1.163984   3.941925   0.001180   0.232280   0.005078
  40   4  -0.026092   6.590214   6.017252   0.000924   0.185824   0.004972
  41   4  -1.407641   5.238450   6.679638   0.002598   0.511017   0.005083
  42   4  -1.802938   3.706082   7.144950   0.001327   0.418105   0.003173
  43   4  -0.902946   1.581536   7.758947   0.001498   0.371649   0.004029
  44   4   0.163486   1.055961   8.107806   0.001110   0.232280   0.004778
  45   4  -2.299215   2.570631   5.118858   0.001432   0.371649   0.003852
  46   4  -2.171328   2.667376   6.284892   0.001357   0.464561   0.002922
  47   4  -1.656328   1.505937   6.650275   0.001038   0.325193   0.003191
  48   4  -0.882192   1.062356   3.146029   0.000934   0.185824   0.005026
  49   4  -0.155353   1.885591   8.429255   0.001450   0.325193   0.004458
  50   4  -1.347137   4.495055   7.460625   0.001054   0.278737   0.003782
  51   4   0.418981   6.511040   6.740518   0.000518   0.139368   0.003720
  52   4  -1.975816   1.545485   5.357583   0.001769   0.418105   0.004232
  53   4  -2.166723   3.981327   6.110114   0.001170   0.371649   0.003149
  54   5   5.539410   8.887710   1.172201   0.002377   0.418105   0.005684
  55   5   7.212939   9.032387   4.637583   0.001468   0.325193   0.004515
  56   5   3.517967   9.967389   4.099696   0.001499   0.371649   0.004033
  57   5   5.553905   7.411869   0.328247   0.001350   0.278737   0.004842
  58   5   3.570928   9.741754   5.171054   0.001621   0.371649   0.004360
  59   5   6.921717   8.842619   5.581229   0.001173   0.278737   0.004207
  60   5   5.627732   8.163549   0.667148   0.000959   0.185824   0.005163
  61   5   4.841314   8.108437   0.496421   0.000872   0.185824   0.004695
  62   5   7.751411   8.108125   5.128087   0.001575   0.325193   0.004844
  63   5   6.203711   9.708623   4.697237   0.001535   0.464561   0.003305
  64   5   4.736636  10.120226   4.309040   0.001439   0.464561   0.003097
  65   5   2.492856   9.309282   4.844370   0.001989   0.371649   0.005351
  66   5   1.657075   8.402054   4.943003   0.001074   0.232280   0.004624
  67   5   6.755666   9.492292   3.530292   0.001324   0.418105   0.003166
  68   5   6.064762   9.491991   2.254683   0.001568   0.418105   0.003749
  69   5   4.947089   9.651531   1.995376   0.001743   0.464561   0.003751
  70   5   4.250384  10.062187   3.144155   0.000974   0.325193   0.002994
  71   5   4.402363   7.568431   0.270973   0.000536   0.139368   0.003850
  72   5   5.205803   9.877364   5.140798   0.000811   0.278737   0.002911
  73   5   2.261867   8.640078   5.699263   0.001587   0.325193   0.004881
  74   5   5.584400  10.000804   3.368974   0.001224   0.464561   0.002636
  75   6   6.491649   1.077656  11.338667   0.002320   0.418105   0.005548
  76   6  10.179420   3.633219   6.802863   0.000945   0.325193   0.002907
  77   6   5.734740   4.867693  10.942106   0.001665   0.371649   0.004481
  78   6   9.325637   3.496765  10.562181   0.001585   0.371649   0.004264
  79   6   6.473673  -0.943638   8.705600   0.000540   0.185824   0.002905
  80   6   4.509917  -0.171351   8.943170   0.000570   0.232280   0.002452
  81   6   5.531223  -0.673553   9.048084   0.001035   0.325193   0.003182
  82   6   5.992980  -0.257904  10.130736   0.001316   0.278737   0.004721
  83   6   9.433840   4.349677  10.009082   0.001397   0.325193   0.004295
  84   6   6.178614   5.591706  10.401815   0.001186   0.278737   0.004255
  85   6  10.020356   4.351802   7.157995   0.000723   0.232280   0.003113
  86   6   5.684567   0.391793  10.730702   0.001061   0.232280   0.004567
  87   6   6.610460   0.067699  10.614127   0.001288   0.278737   0.004620
  88   6   5.107055   5.458105  10.072145   0.001767   0.325193   0.005433
  89   6   7.008856   4.717120  11.171707   0.001525   0.464561   0.003282
  90   6   8.389356   3.967075  11.107872   0.001438   0.464561   0.003095
  91   6  10.088202   3.573058   9.393977   0.001949   0.371649   0.005245
  92   6  10.431128   3.288175   7.965046   0.001902   0.418105   0.004549
  93   6  10.335916   2.420013   7.021516   0.001234   0.371649   0.003319
  94   6   6.191055   3.772978  11.562877   0.001330   0.418105   0.003181
  95   6   6.528752   2.370235  11.713872   0.001535   0.418105   0.003672
  96   6   7.518965   1.801421  11.519415   0.001698   0.464561   0.003655
  97   6   8.546005   2.721199  11.249366   0.000994   0.325193   0.003058
  98   6   5.065259  -0.187298   9.686767   0.000858   0.232280   0.003695
  99   6   6.510968  -0.765795   9.320640   0.000679   0.185824   0.003655
 100   6   8.044015   4.838706  10.804689   0.000825   0.278737   0.002960
 101   6   9.597751   4.558895   6.353894   0.000334   0.139368   0.002396
 102   6  10.165634   4.153711   8.451174   0.001490   0.325193   0.004582
 103   6   7.404471   3.347870  11.620976   0.001214   0.464561   0.002612
 104   7  10.013589   2.031487   3.071895  -0.001361   0.333671  -0.004078
 105   7   9.968972   3.275559   4.231578  -0.000828   0.314043  -0.002637
 106   7   9.006681   0.584151   2.658269  -0.000478   0.353299  -0.001352
 107   7  10.039423   1.182906   4.284063  -0.000643   0.353299  -0.001819
 108   7   9.814651   3.297742   3.322365  -0.001465   0.353299  -0.004147
 109   7   9.490966   2.795576   2.456688  -0.001701   0.333671  -0.005097
 110   7   9.375229   1.556634   2.327390  -0.001440   0.333671  -0.004316
 111   7   9.696012   0.758027   3.430510  -0.000781   0.412182  -0.001894
 112   7  10.244453   2.182696   4.155734  -0.000891   0.353299  -0.002521
 113   8   5.215011  -2.415196   5.164761  -0.001454   0.353299  -0.004115
 114   8   4.403039  -1.590439   6.671445  -0.000657   0.235532  -0.002789
 115   8   6.163999  -2.007777   6.430296  -0.000765   0.314043  -0.002435
 116   8   6.602790  -2.021025   4.353789  -0.000343   0.333671  -0.001028
 117   8   4.311412  -2.057565   5.678825  -0.001302   0.294415  -0.004422
 118   8   5.171595  -2.058316   6.456999  -0.000928   0.333671  -0.002783
 119   8   6.083851  -2.364820   5.388392  -0.000912   0.274788  -0.003317
 120   8   5.791006  -2.091980   3.973001  -0.001300   0.392554  -0.003313
 121   8   4.452209  -2.109413   4.619375  -0.001533   0.294415  -0.005209
 122   8   6.866553  -2.010195   5.548322  -0.000241   0.274788  -0.000877
 123   9   7.332424   2.822355  -1.483311  -0.002283   0.471065  -0.004847
 124   9   6.304917   4.613194  -1.349027  -0.000756   0.294415  -0.002569
 125   9   6.069507   3.165552  -2.221582  -0.000809   0.372926  -0.002168
 126   9   6.942048   1.410642  -1.231095  -0.000770   0.372926  -0.002064
 127   9   7.363238   4.020410  -0.923555  -0.002030   0.392554  -0.005171
 128   9   6.458561   3.897544  -1.851549  -0.001067   0.353299  -0.003019
 129   9   6.429273   2.080740  -1.996397  -0.000972   0.392554  -0.002477
 130   9   7.539669   1.647663  -0.505341  -0.001483   0.412182  -0.003598
 131   9   7.874459   3.029167  -0.424613  -0.002402   0.412182  -0.005829
 132  10   2.567645  -1.674382   0.459271  -0.001931   0.412182  -0.004685
 133  10   1.152662  -0.631148   0.843157  -0.000730   0.333671  -0.002188
 134  10   4.514813  -1.439265   0.499371  -0.000906   0.412182  -0.002197
 135  10   2.764146  -0.976040  -0.694146  -0.000687   0.353299  -0.001945
 136  10   1.741811  -1.327591   1.390155  -0.001784   0.372926  -0.004783
 137  10   2.726902  -1.736997   1.750043  -0.002270   0.392554  -0.005783
 138  10   3.725537  -1.834246   1.160299  -0.002081   0.431809  -0.004820
 139  10   3.651782  -1.394308  -0.272885  -0.001094   0.412182  -0.002654
 140  10   1.747026  -0.893097  -0.105342  -0.001091   0.451437  -0.002416
 141  11   0.748598   4.547220  -1.517814  -0.002296   0.471065  -0.004875
 142  11  -0.101316   3.090592  -0.305695  -0.000717   0.294415  -0.002436
 143  11   0.762388   3.045344  -1.702230  -0.000806   0.372926  -0.002162
 144  11   2.091825   4.771128  -1.978584  -0.000791   0.372926  -0.002122
 145  11   0.014222   4.389886  -0.439226  -0.002084   0.392554  -0.005308
 146  11   0.165202   3.302212  -1.086612  -0.001039   0.333671  -0.003113
 147  11   1.515065   3.806113  -2.162301  -0.000983   0.392554  -0.002503
 148  11   1.960344   5.519811  -1.323003  -0.001332   0.412182  -0.003232
 149  11   0.723889   5.358090  -0.582458  -0.002487   0.431809  -0.005761
 150  12   1.111733   4.944429   9.376687  -0.002173   0.392554  -0.005537
 151  12   0.530730   5.984899   8.186875  -0.000873   0.412182  -0.002118
 152  12   0.591307   3.066156   9.273708  -0.000557   0.274788  -0.002029
 153  12  -0.229805   4.041098   8.939088  -0.000696   0.372926  -0.001866
 154  12   1.440102   5.747227   8.835894  -0.002069   0.372926  -0.005548
 155  12   0.728668   3.978066   9.500212  -0.001609   0.333671  -0.004822
 156  12  -0.080135   5.123775   8.675355  -0.001118   0.431809  -0.002590
 157  13  -0.137201  -0.946468   5.928022  -0.002153   0.451437  -0.004769
 158  13  -0.431180  -0.320127   4.018621  -0.000843   0.314043  -0.002684
 159  13  -1.171584  -0.059892   5.485390  -0.000777   0.372926  -0.002082
 160  13   0.203060  -0.313999   7.178874  -0.000797   0.372926  -0.002137
 161  13   0.471391  -1.119388   4.703557  -0.002214   0.412182  -0.005371
 162  13  -0.745344  -0.493670   4.792218  -0.001107   0.353299  -0.003134
 163  13  -0.743057  -0.128489   6.592119  -0.000883   0.372926  -0.002367
 164  13   1.126447  -0.703816   6.932774  -0.001453   0.431809  -0.003366
 165  13   1.011354  -1.240522   5.702969  -0.002287   0.412182  -0.005548
 166  14  -2.143303   5.123686   3.340242  -0.002101   0.431809  -0.004866
 167  14  -1.883508   3.320984   2.776861  -0.000793   0.372926  -0.002128
 168  14  -1.466062   6.086109   4.770979  -0.000550   0.333671  -0.001649
 169  14  -2.484551   4.355817   4.639331  -0.000646   0.353299  -0.001828
 170  14  -1.780543   4.361471   2.470448  -0.001977   0.392554  -0.005035
 171  14  -1.257246   5.591790   2.635237  -0.002212   0.372926  -0.005931
 172  14  -1.338368   6.191483   3.755490  -0.001848   0.412182  -0.004483
 173  14  -2.181263   5.351406   4.568379  -0.001242   0.412182  -0.003013
 174  14  -2.445048   3.801131   3.678360  -0.001189   0.451437  -0.002633
 175  15   4.657921   8.573166   7.755020  -0.002230   0.392554  -0.005682
 176  15   3.021746   8.411742   7.060627  -0.000748   0.274788  -0.002724
 177  15   4.160744   9.412264   6.620605  -0.000573   0.294415  -0.001947
 178  15   6.056646   8.933858   6.767517  -0.000633   0.294415  -0.002150
 179  15   3.849553   7.955370   7.908522  -0.002169   0.353299  -0.006139
 180  15   3.624596   8.950216   7.069540  -0.000873   0.314043  -0.002778
 181  15   5.126454   9.356453   6.784258  -0.000975   0.353299  -0.002760
 182  15   5.612824   8.581797   7.521441  -0.001255   0.235532  -0.005328
 183  16   8.613479   7.475727   2.045308  -0.002120   0.431809  -0.004909
 184  16   7.238186   7.506590   0.808659  -0.000843   0.392554  -0.002147
 185  16   8.641912   7.509679   3.849110  -0.000836   0.353299  -0.002366
 186  16   7.781397   8.678434   2.403081  -0.000781   0.372926  -0.002094
 187  16   8.011631   6.821051   1.068520  -0.001722   0.372926  -0.004617
 188  16   8.641618   6.284226   1.863328  -0.002255   0.392554  -0.005745
 189  16   8.947731   6.739362   3.140981  -0.002219   0.451437  -0.004916
 190  16   8.380620   8.239994   3.141909  -0.001118   0.412182  -0.002713
 191  16   7.627077   8.256378   1.499121  -0.001149   0.412182  -0.002786
 192  17   1.904808   9.035753   1.496714  -0.001809   0.372926  -0.004850
 193  17   3.213442   8.193136   0.413952  -0.000748   0.294415  -0.002541
 194  17   3.329468   9.485992   1.420632  -0.000783   0.372926  -0.002100
 195  17   1.948841   9.447746   3.157865  -0.000616   0.333671  -0.001845
 196  17   1.177534   8.614359   3.224168  -0.000963   0.333671  -0.002887
 197  17   1.968915   8.190179   0.807976  -0.001937   0.372926  -0.005195
 198  17   3.001381   8.914273   0.814749  -0.001040   0.333671  -0.003116
 199  17   2.661545   9.761115   2.327887  -0.001182   0.431809  -0.002736
 200  17   1.381731   8.946576   2.374326  -0.001346   0.314043  -0.004285
 201  17   1.105529   8.027304   1.751799  -0.002072   0.353299  -0.005864
 202  18   8.532020   6.803247   8.557813  -0.002491   0.431809  -0.005769
 203  18   9.547264   5.688336   7.403842  -0.000980   0.372926  -0.002629
 204  18   9.065168   5.822206   9.481521  -0.000708   0.333671  -0.002122
 205  18   6.958161   6.463835   9.688677  -0.000416   0.235532  -0.001767
 206  18   8.970206   6.522198   7.645645  -0.001670   0.333671  -0.005004
 207  18   9.562643   5.748683   8.579861  -0.000959   0.412182  -0.002327
 208  18   8.107383   6.245857   9.826057  -0.001114   0.431809  -0.002579
 209  18   7.580297   6.893313   9.104913  -0.001476   0.294415  -0.005014
 210  19   3.427439   2.398187  11.011664  -0.002016   0.353299  -0.005707
 211  19   4.343814   1.059923  10.935599  -0.000647   0.353299  -0.001832
 212  19   3.728303   0.729002  10.016346  -0.000907   0.314043  -0.002887
 213  19   4.169716   4.154590  10.888676  -0.000706   0.314043  -0.002247
 214  19   4.711192   3.040434  11.575207  -0.000745   0.392554  -0.001898
 215  19   3.327619   1.514774  10.537606  -0.001773   0.333671  -0.005312
 216  19   3.701518   3.346970  11.102766  -0.001600   0.353299  -0.004530
 217  19   4.549615   1.913481  11.475456  -0.000980   0.392554  -0.002497
 218  20   9.809982   0.017285   9.717638  -0.003366   0.608459  -0.005532
 219  20   9.321750  -0.587168   8.246462  -0.001155   0.353299  -0.003270
 220  20   8.005112  -0.714528   9.770972  -0.000605   0.333671  -0.001812
 221  20   8.674896   0.730512  10.990433  -0.000711   0.353299  -0.002013
 222  20  10.216949   1.888086   9.955724  -0.000689   0.372926  -0.001847
 223  20  10.459685   1.126570   8.057130  -0.000657   0.353299  -0.001859
 224  20   8.668074  -0.880782   8.948184  -0.001628   0.490692  -0.003317
 225  20   8.532535  -0.174952  10.470445  -0.001593   0.490692  -0.003246
 226  20   9.623181   1.190179  10.646614  -0.001711   0.510320  -0.003353
 227  20  10.528477   1.258099   9.173858  -0.001690   0.490692  -0.003444
 228  20  10.090755   0.120305   8.217083  -0.001691   0.490692  -0.003447
 229   1   7.572824   0.325987   2.144422   0.000260   0.068908   0.003776
 230   3   7.118556   0.474082   1.474262   0.000290   0.068908   0.004204
 231   7   7.812713   0.515296   2.128325   0.000006   0.068908   0.000094
 232   1   5.970891  -0.754519   2.330704   0.000268   0.065550   0.004087
 233   3   5.595606  -0.725174   1.599059   0.000210   0.065550   0.003199
 234  10   5.338332  -0.888661   1.587617  -0.000034   0.065550  -0.000516
 235   3   6.471329  -0.116652   1.275671   0.001500   0.450567   0.003328
 236   1   6.823203  -0.469935   2.388558   0.001583   0.450567   0.003513
 237   1   9.745490   1.186100   5.662371   0.000030   0.029063   0.001016
 238   6   9.812643   1.329717   6.135729   0.000062   0.029063   0.002122
 239   7   9.815482   1.298929   5.388683   0.000008   0.029063   0.000267
 240   1   9.666597   0.910684   6.231299   0.000054   0.027073   0.001979
 241   6   9.812578   1.024469   6.694860   0.000028   0.027073   0.001025
 242  20   9.856516   0.886843   6.961062   0.000001   0.027073   0.000034
 243   6   9.869928   1.161675   6.519578   0.000110   0.043567   0.002523
 244   1   9.732973   1.023369   5.829080   0.000101   0.043567   0.002320
 245   7   9.818094   1.025099   4.904441  -0.000056   0.072688  -0.000769
 246   7   9.347491   0.331934   4.097679  -0.000150   0.162898  -0.000922
 247   7   8.586232   0.226174   2.923795  -0.000120   0.162898  -0.000735
 248   1   9.475767   0.517873   4.932925  -0.000044   0.157960  -0.000281
 249   1   8.723808  -0.120837   3.704384   0.000271   0.157960   0.001715
 250   1   8.015825   0.049168   2.647312   0.000218   0.088804   0.002454
 251   1   6.091177  -0.961701   2.780086   0.000167   0.087951   0.001896
 252   8   5.934183  -1.160749   2.953732   0.000029   0.087951   0.000325
 253  10   5.391637  -0.971387   2.087212   0.000198   0.087951   0.002248
 254   1   7.316169  -1.144639   6.948037   0.000089   0.031247   0.002833
 255   8   7.089271  -1.292257   6.810411  -0.000008   0.031247  -0.000253
 256  20   7.652529  -0.920200   7.583227   0.000070   0.031247   0.002253
 257   8   6.453888  -1.421853   3.441896   0.000045   0.073084   0.000620
 258   8   7.090313  -1.612185   4.403913  -0.000127   0.163998  -0.000774
 259   8   7.133546  -1.647849   5.812707  -0.000338   0.163998  -0.002060
 260   1   7.004735  -1.226373   3.630583   0.000196   0.158631   0.001237
 261   1   7.566324  -1.404827   5.100067   0.000092   0.158631   0.000578
 262   1   7.345738  -1.366001   6.370615   0.000079   0.089289   0.000886
 263  10   5.239874  -1.077900   1.535501   0.000013   0.007909   0.001645
 264   1   6.230456  -0.999932   2.595789   0.000077   0.011219   0.006865
 265  20   8.300315  -0.813073   7.835222  -0.000235   0.206727  -0.001135
 266  20   9.393012   0.050408   7.316485  -0.001149   0.424061  -0.002709
 267   1   8.338535  -0.699861   6.596852   0.000909   0.565333   0.001608
 268   1   9.501789   0.407684   6.071611   0.000707   0.291180   0.002427
 269   3   0.616800   0.439405   1.684170   0.000165   0.064474   0.002557
 270   4   0.276407   0.596243   2.417899   0.000280   0.064474   0.004346
 271  10   0.776603   0.180387   1.665250  -0.000019   0.064474  -0.000295
 272   3  -0.252839   2.421593   1.498705   0.000283   0.066843   0.004239
 273   4  -0.722495   2.508443   2.170249   0.000183   0.066843   0.002737
 274  14  -0.852181   2.784330   2.177935  -0.000030   0.066843  -0.000444
 275   4  -0.501294   1.664155   2.332787   0.001567   0.521541   0.003005
 276   3   0.195761   1.176197   1.437017   0.001611   0.521541   0.003089
 277   3   5.559705   5.459294  -0.542171   0.000214   0.065200   0.003279
 278   5   5.689217   6.077332  -0.012336   0.000265   0.065200   0.004066
 279   9   5.805619   5.287977  -0.598501  -0.000023   0.065200  -0.000351
 280   3   3.764093   6.323346  -0.243418   0.000270   0.067224   0.004022
 281   5   3.921178   7.027536   0.155512   0.000202   0.067224   0.003006
 282  17   3.661190   7.175899   0.213800  -0.000034   0.067224  -0.000501
 283   5   5.043531   6.739166   0.048996   0.001495   0.473782   0.003156
 284   3   4.483032   5.883177  -0.626369   0.001546   0.473782   0.003262
 285   3   7.157234   0.865090   0.846866   0.000092   0.084328   0.001086
 286   7   7.751044   0.979363   1.584921   0.000198   0.084328   0.002349
 287   9   7.288832   1.079273   0.671785  -0.000073   0.084328  -0.000861
 288   7   8.063818   0.631041   2.025588   0.000101   0.082382   0.001228
 289   3   7.153537   0.546613   0.951825   0.000441   0.116543   0.003783
 290   9   7.057305   0.951913  -0.012352  -0.000021   0.068279  -0.000305
 291   9   6.499855   0.955305  -0.959908  -0.000145   0.151107  -0.000961
 292   9   5.846476   1.627808  -1.903216  -0.000248   0.151107  -0.001643
 293   9   5.456682   2.848074  -2.260994  -0.000274   0.151107  -0.001811
 294   9   5.487442   4.124706  -1.889167  -0.000117   0.151107  -0.000775
 295   9   5.797907   4.894513  -1.168310  -0.000042   0.068279  -0.000614
 296   3   6.599717   0.624111  -0.204814   0.000184   0.150146   0.001227
 297   3   5.825372   0.935943  -1.444187   0.000101   0.150146   0.000671
 298   3   5.207442   2.057135  -2.214893  -0.000026   0.150146  -0.000170
 299   3   4.994767   3.536188  -2.206571   0.000070   0.150146   0.000468
 300   3   5.272988   4.777491  -1.422572   0.000103   0.150146   0.000685
 301  10   0.905907  -0.080457   1.032447  -0.000043   0.069332  -0.000620
 302  10   1.290434  -0.149860  -0.011947  -0.000140   0.153915  -0.000910
 303  10   2.320506  -0.373086  -0.852507  -0.000246   0.153915  -0.001601
 304  10   3.633561  -0.677610  -0.876350  -0.000249   0.153915  -0.001618
 305  10   4.685053  -0.937139  -0.073588  -0.000135   0.153915  -0.000875
 306  10   5.096619  -1.052366   0.956350  -0.000071   0.069332  -0.001023
 307   3   0.857153   0.284791   0.560118   0.000065   0.152009   0.000430
 308   3   1.658066   0.123074  -0.714988   0.000031   0.152009   0.000205
 309   3   3.048201  -0.190030  -1.227823  -0.000042   0.152009  -0.000275
 310   3   4.451045  -0.524673  -0.765704   0.000010   0.152009   0.000068
 311   3   5.284813  -0.742071   0.479719   0.000048   0.152009   0.000315
 312   3  -0.105312   2.608547   0.964438   0.000127   0.086531   0.001464
 313  11  -0.130878   2.856082   0.785815  -0.000015   0.086531  -0.000178
 314  14  -0.577889   3.005621   1.719538   0.000170   0.086531   0.001966
 315   3   3.241711   5.979019  -0.552769   0.000094   0.086066   0.001094
 316  11   2.941628   5.948379  -0.605833   0.000023   0.086066   0.000264
 317  17   3.162618   6.750842   0.033294   0.000181   0.086066   0.002107
 318  11   2.878860   5.525852  -1.211706  -0.000010   0.068006  -0.000153
 319  11   2.778611   4.685537  -1.907777  -0.000150   0.150411  -0.001000
 320  11   2.212660   3.531903  -2.234485  -0.000252   0.150411  -0.001674
 321  11   1.324211   2.634431  -1.830613  -0.000273   0.150411  -0.001813
 322  11   0.468749   2.352216  -0.857757  -0.000084   0.150411  -0.000558
 323  11   0.000825   2.618588   0.096595  -0.000028   0.068006  -0.000415
 324   3   3.283065   5.176592  -1.470944   0.000150   0.149631   0.001000
 325   3   2.937863   3.931971  -2.213080   0.000065   0.149631   0.000435
 326   3   2.076629   2.717393  -2.167387  -0.000033   0.149631  -0.000218
 327   3   1.043959   2.018833  -1.352147   0.000034   0.149631   0.000230
 328   3   0.253042   2.115796  -0.093552   0.000043   0.149631   0.000287
 329  14  -1.027223   2.965293   2.105545   0.000024   0.034317   0.000714
 330   3  -0.254584   2.376255   1.042900   0.000248   0.048638   0.005099
 331  17   3.428313   7.321745   0.152712   0.000051   0.071086   0.000719
 332   3   3.508981   6.128572  -0.642737   0.000398   0.100720   0.003949
 333   4   0.190139   6.771096   4.827762   0.000215   0.064298   0.003345
 334   5   0.806512   7.261757   4.574454   0.000253   0.064298   0.003942
 335  14  -0.012828   6.687880   4.616301  -0.000032   0.064298  -0.000493
 336   4   1.571534   6.950882   6.620094   0.000252   0.065888   0.003819
 337   5   2.092649   7.561924   6.419893   0.000204   0.065888   0.003094
 338  15   2.305921   7.611710   6.630788  -0.000045   0.065888  -0.000686
 339   5   1.384773   7.666167   5.307871   0.001632   0.554083   0.002945
 340   4   0.758632   6.852599   6.015897   0.001584   0.554083   0.002858
 341   4   2.276465   0.387395   7.719498   0.000242   0.065457   0.003696
 342   6   3.243147   0.427800   8.112427   0.000155   0.065457   0.002367
 343  13   2.132623   0.202208   7.525908   0.000054   0.065457   0.000818
 344   4   2.756830   0.612396   8.125195   0.000314   0.091600   0.003425
 345   6   3.653646   0.458265   8.642747  -0.000060   0.091600  -0.000654
 346  19   3.493299   0.624274   8.843572  -0.000145   0.091600  -0.001581
 347   4   0.101634   0.415438   2.941108   0.000152   0.087705   0.001732
 348  10   0.721473   0.097351   2.231975   0.000237   0.087705   0.002706
 349  13   0.136108   0.188385   3.144114  -0.000057   0.087705  -0.000652
 350  10   0.797568  -0.076596   1.646192   0.000056   0.031018   0.001811
 351   4  -0.052432   0.469167   2.710636   0.000224   0.044042   0.005076
 352   4   1.316041   6.630062   6.962367   0.000112   0.087420   0.001278
 353  12   1.369427   6.530128   7.246137  -0.000001   0.087420  -0.000010
 354  15   2.131338   7.183067   6.895113   0.000189   0.087420   0.002160
 355   4   1.452533   2.109999   8.973586   0.000113   0.084471   0.001334
 356  12   1.489018   2.370023   9.129554  -0.000135   0.084471  -0.001603
 357  19   2.330623   2.117263   9.510318  -0.000156   0.084471  -0.001853
 358  12   0.703707   6.266997   7.506144  -0.000048   0.071401  -0.000673
 359  12  -0.179308   5.589467   7.794026  -0.000155   0.159752  -0.000973
 360  12  -0.611921   4.369981   8.295067  -0.000283   0.159752  -0.001774
 361  12  -0.121141   3.164764   8.776656  -0.000322   0.159752  -0.002016
 362  12   0.793714   2.515015   9.026664  -0.000055   0.071401  -0.000767
 363   4   0.194109   6.103433   7.219194   0.000095   0.155366   0.000609
 364   4  -0.756834   4.964368   7.695285   0.000115   0.155366   0.000740
 365   4  -0.722196   3.520476   8.280434  -0.000055   0.155366  -0.000351
 366   4   0.282672   2.411633   8.715325   0.000079   0.155366   0.000511
 367  13   1.381115   0.007720   7.491120  -0.000030   0.067282  -0.000452
 368  13   0.329170   0.267977   7.521472  -0.000166   0.148450  -0.001120
 369  13  -0.801557   0.504453   6.898596  -0.000226   0.148450  -0.001523
 370  13  -1.361586   0.563685   5.713144  -0.000236   0.148450  -0.001590
 371  13  -1.131903   0.422507   4.428717  -0.000064   0.148450  -0.000434
 372  13  -0.449676   0.201353   3.615761  -0.000031   0.067282  -0.000455
 373   4   1.093784   0.443215   7.768658   0.000129   0.148391   0.000867
 374   4  -0.319787   0.773085   7.508661   0.000110   0.148391   0.000739
 375   4  -1.319809   0.947986   6.439100  -0.000026   0.148391  -0.000172
 376   4  -1.515197   0.899517   4.978254   0.000158   0.148391   0.001065
 377   4  -0.829540   0.646635   3.697426   0.000159   0.148391   0.001068
 378  14  -1.396933   2.847938   2.604787  -0.000045   0.069269  -0.000647
 379  14  -2.008833   2.890981   3.535736  -0.000098   0.153790  -0.000637
 380  14  -2.361811   3.549039   4.657806  -0.000234   0.153790  -0.001522
 381  14  -2.123274   4.678366   5.353791  -0.000258   0.153790  -0.001679
 382  14  -1.392164   5.810532   5.335006  -0.000179   0.153790  -0.001162
 383  14  -0.635679   6.452014   4.825918  -0.000080   0.069269  -0.001152
 384   4  -1.490404   2.451827   3.043992   0.000204   0.151852   0.001341
 385   4  -2.173315   2.791124   4.352076   0.000134   0.151852   0.000883
 386   4  -2.241211   3.851558   5.430705  -0.000077   0.151852  -0.000507
 387   4  -1.665931   5.193274   5.832480   0.000079   0.151852   0.000521
 388   4  -0.686094   6.259746   5.390749   0.000157   0.151852   0.001031
 389  15   2.373909   7.723888   6.813634   0.000023   0.014169   0.001606
 390   4   1.219838   6.836360   6.880910   0.000112   0.020106   0.005559
 391  19   2.749830   1.591343   9.753518  -0.000699   0.252594  -0.002767
 392  19   3.208820   0.809749   9.218607  -0.000264   0.252594  -0.001045
 393   4   1.793543   1.135264   8.563968   0.002242   0.709297   0.003161
 394   5   6.191213   6.408623   0.326697   0.000100   0.087006   0.001144
 395   9   6.232743   5.537989  -0.141358   0.000206   0.087006   0.002363
 396  16   6.481186   6.433411   0.422908   0.000018   0.087006   0.000208
 397   9   6.061100   5.236444  -0.699516   0.000055   0.068786   0.000806
 398   5   5.999430   6.469268   0.082365   0.000356   0.097620   0.003650
 399   5   1.037704   7.626644   4.248799   0.000126   0.088279   0.001433
 400  14   0.320755   6.929029   4.266650   0.000208   0.088279   0.002354
 401  17   1.007831   7.723173   3.959649   0.000002   0.088279   0.000023
 402  14  -0.209973   6.728908   4.507715   0.000020   0.014530   0.001385
 403   5   0.912733   7.686400   4.450705   0.000113   0.020644   0.005497
 404   5   7.087156   7.892958   6.436637   0.000090   0.086127   0.001045
 405  15   6.912745   7.932874   6.684311  -0.000106   0.086127  -0.001233
 406  18   7.463645   7.306717   7.183052  -0.000133   0.086127  -0.001542
 407  15   6.621223   8.528231   6.406829  -0.000087   0.069432  -0.001249
 408  15   5.828379   9.259416   6.104657  -0.000294   0.154400  -0.001907
 409  15   4.513911   9.564054   5.995351  -0.000302   0.154400  -0.001958
 410  15   3.277345   9.066139   6.231070  -0.000154   0.154400  -0.000998
 411  15   2.636989   8.226369   6.604262  -0.000058   0.069432  -0.000836
 412   5   6.533751   8.846701   5.906702   0.000044   0.151963   0.000291
 413   5   5.254328   9.608952   5.599326  -0.000036   0.151963  -0.000238
 414   5   3.739854   9.494209   5.674374   0.000063   0.151963   0.000417
 415   5   2.626011   8.550634   6.100345   0.000075   0.151963   0.000492
 416   5   8.159699   7.020191   5.219009   0.000294   0.066143   0.004443
 417  16   8.257509   6.996456   4.931829   0.000027   0.066143   0.000409
 418  18   8.381614   6.499508   6.065918   0.000177   0.066143   0.002683
 419  16   6.621687   7.155731   0.590625  -0.000040   0.068226  -0.000593
 420  16   6.695214   8.128976   1.093918  -0.000118   0.150941  -0.000784
 421  16   7.063737   8.848679   2.148180  -0.000210   0.150941  -0.001388
 422  16   7.629886   8.762789   3.347075  -0.000234   0.150941  -0.001550
 423  16   8.166285   7.905801   4.209105  -0.000169   0.150941  -0.001121
 424   5   6.220882   7.585029   0.683997   0.000082   0.150080   0.000548
 425   5   6.452706   8.743488   1.596382   0.000053   0.150080   0.000355
 426   5   7.006287   9.118878   2.930866  -0.000026   0.150080  -0.000175
 427   5   7.659296   8.560437   4.151496   0.000008   0.150080   0.000054
 428   5   8.098549   7.616326   4.771839   0.000098   0.083353   0.001174
 429  17   1.339830   8.406978   3.899971  -0.000039   0.069150  -0.000559
 430  17   2.073055   9.233881   3.766933  -0.000168   0.153476  -0.001093
 431  17   3.067256   9.792099   3.051896  -0.000246   0.153476  -0.001604
 432  17   3.816437   9.617269   1.947594  -0.000275   0.153476  -0.001792
 433  17   4.010836   8.781676   0.910619  -0.000087   0.153476  -0.000565
 434  17   3.733959   7.848279   0.370994  -0.000051   0.069150  -0.000743
 435   5   1.732553   8.660163   4.273657   0.000110   0.151641   0.000728
 436   5   2.813546   9.620341   3.831636   0.000061   0.151641   0.000405
 437   5   3.847696   9.847761   2.752429  -0.000040   0.151641  -0.000261
 438   5   4.407414   9.248392   1.482254   0.000018   0.151641   0.000116
 439   5   4.261276   8.070054   0.546287   0.000063   0.151641   0.000417
 440  18   8.404619   6.716344   6.986413  -0.001427   0.411846  -0.003464
 441   5   7.704164   7.627401   5.977107   0.001934   0.585266   0.003304
 442   6   8.984239   4.647684   5.296527   0.000428   0.247055   0.001731
 443   7   9.050258   4.389769   4.587640   0.000065   0.247055   0.000263
 444  16   8.670991   5.369512   4.330535   0.000335   0.247055   0.001356
 445   7   9.608672   3.707161   4.772007  -0.000211   0.207129  -0.001019
 446   7   9.953012   2.281825   5.093772  -0.001086   0.425402  -0.002554
 447   6   9.821430   3.468355   5.967986   0.000924   0.566087   0.001632
 448   6  10.056525   1.809691   6.295164   0.000700   0.291875   0.002397
 449   6   3.917135  -0.127552   7.699639   0.000383   0.244198   0.001567
 450   8   3.821123  -0.543708   7.074154  -0.000033   0.244198  -0.000134
 451  13   2.816015  -0.206813   7.045359   0.000451   0.244198   0.001845
 452   6   7.429253  -0.958146   7.691749   0.000079   0.026444   0.002993
 453   8   7.085141  -1.192176   7.071655   0.000068   0.026444   0.002564
 454  20   7.673494  -0.905365   7.861874  -0.000012   0.026444  -0.000466
 455   8   6.508796  -1.533109   6.874958  -0.000175   0.205289  -0.000850
 456   8   5.082934  -1.233953   7.177961  -0.001071   0.421335  -0.002543
 457   6   6.303137  -1.006577   7.974844   0.000981   0.561324   0.001748
 458   6   4.689280  -0.552726   8.203591   0.000669   0.289275   0.002313
 459   6   4.072841   5.656649   8.828460   0.000713   0.292457   0.002437
 460  12   3.065985   5.707578   8.521513  -0.000432   0.292457  -0.001479
 461  15   3.790408   6.434327   8.204625  -0.000358   0.292457  -0.001222
 462   6   3.952427   4.921631   9.643653   0.000005   0.084054   0.000058
 463  12   2.981562   4.948764   9.263817  -0.000207   0.084054  -0.002460
 464  19   3.760018   4.723580   9.774001  -0.000188   0.084054  -0.002232
 465  12   2.569537   5.357676   9.059286  -0.000423   0.125173  -0.003382
 466   6   4.045564   5.357712   9.496979   0.000568   0.178638   0.003180
 467  13   2.107804  -0.211448   7.343942   0.000247   0.154438   0.001601
 468   6   3.675650  -0.011190   8.379115   0.000600   0.228319   0.002629
 469   6   5.676643   6.305893   9.115127   0.000052   0.086117   0.000609
 470  15   5.323629   6.984413   8.432585  -0.000151   0.086117  -0.001750
 471  18   5.909045   6.481510   9.023039  -0.000107   0.086117  -0.001239
 472  15   4.416746   7.127710   8.283416  -0.001032   0.296399  -0.003483
 473   6   5.067596   6.144223   9.248634   0.001359   0.421787   0.003221
 474   6   8.944902   5.200713   5.941500   0.000007   0.114986   0.000064
 475  16   8.554756   5.876025   4.980036   0.000362   0.114986   0.003147
 476  18   8.900661   5.460132   6.100178  -0.000197   0.114986  -0.001716
 477  16   8.782966   6.123240   4.274005   0.000041   0.094309   0.000438
 478   6   9.227896   5.022836   5.667741   0.000423   0.138539   0.003053
 479  18   6.313628   6.263719   9.582021  -0.000070   0.070804  -0.000992
 480  18   7.234678   5.881453  10.136086  -0.000295   0.158129  -0.001863
 481  18   8.522860   5.397686  10.072559  -0.000305   0.158129  -0.001930
 482  18   9.510233   5.078905   9.166494  -0.000184   0.158129  -0.001163
 483  18   9.766157   5.064146   7.813067  -0.000228   0.158129  -0.001443
 484  18   9.395919   5.268579   6.753548  -0.000171   0.070804  -0.002416
 485   6   6.391779   5.849798  10.016084   0.000042   0.154332   0.000269
 486   6   7.769278   5.301539  10.458242  -0.000047   0.154332  -0.000302
 487   6   9.123108   4.824068   9.881388   0.000049   0.154332   0.000315
 488   6   9.862802   4.625630   8.537114   0.000107   0.154332   0.000695
 489   6   9.665745   4.792774   7.011720  -0.000168   0.154332  -0.001092
 490  19   3.930184   0.454308   9.435272  -0.000143   0.071930  -0.001984
 491  19   4.608122   0.589956  10.363592  -0.000215   0.161201  -0.001334
 492  19   5.210157   1.467122  11.268277  -0.000191   0.161201  -0.001185
 493  19   5.311394   2.831299  11.549518  -0.000301   0.161201  -0.001868
 494  19   4.866325   4.069294  11.080899  -0.000295   0.161201  -0.001833
 495  19   4.241827   4.653758  10.301039  -0.000091   0.071930  -0.001269
 496   6   4.478455   0.237119   9.588984  -0.000123   0.156273  -0.000790
 497   6   5.333256   0.757440  10.796553   0.000082   0.156273   0.000527
 498   6   5.752398   2.093254  11.503351   0.000013   0.156273   0.000081
 499   6   5.547478   3.644118  11.391676  -0.000102   0.156273  -0.000654
 500   6   4.810607   4.712926  10.511724   0.000074   0.156273   0.000474
 501  20  10.138181   1.055157   7.388084  -0.000073   0.068120  -0.001071
 502  20  10.428114   1.831279   8.109792  -0.000240   0.150791  -0.001592
 503  20  10.282941   2.397236   9.303789  -0.000130   0.150791  -0.000864
 504  20   9.602148   2.313703  10.442453  -0.000225   0.150791  -0.001491
 505  20   8.659973   1.614328  11.067106  -0.000268   0.150791  -0.001777
 506  20   7.835943   0.580834  10.926126  -0.000165   0.150791  -0.001097
 507  20   7.461994  -0.370467  10.076303  -0.000186   0.150791  -0.001232
 508  20   7.688760  -0.856371   8.859962  -0.000308   0.150791  -0.002042
 509   6  10.200224   1.643617   7.334261  -0.000091   0.149754  -0.000604
 510   6  10.380157   2.563813   8.496695   0.000146   0.149754   0.000972
 511   6   9.890883   2.849585   9.878482   0.000103   0.149754   0.000687
 512   6   8.929493   2.385817  10.923010  -0.000061   0.149754  -0.000409
 513   6   7.883254   1.359326  11.209521  -0.000082   0.149754  -0.000546
 514   6   7.173613   0.183602  10.622604   0.000129   0.149754   0.000861
 515   6   7.086427  -0.667748   9.398679   0.000027   0.149754   0.000181
 516   6   7.453677  -0.935731   8.274364   0.000067   0.083223   0.000811
 517   7   8.351217   3.755334   1.967804  -0.000236   0.305243  -0.000772
 518   9   7.833256   3.909351   1.079002  -0.000279   0.305243  -0.000915
 519  16   8.050441   4.771099   1.725127  -0.000176   0.305243  -0.000575
 520   9   8.082380   3.317638   0.573906  -0.000205   0.226884  -0.000905
 521   9   8.033240   2.264760   0.419363  -0.000412   0.453692  -0.000908
 522   9   7.631513   1.280043   0.481018   0.000295   0.226884   0.001300
 523   7   8.814464   2.699100   1.758708  -0.000540   0.453692  -0.001189
 524   7   8.533087   1.427481   1.700739  -0.000121   0.453692  -0.000267
 525  16   8.943187   5.760541   3.606517   0.000005   0.262808   0.000018
 526  16   8.750394   5.432014   2.493241  -0.000681   0.525550  -0.001296
 527   7   9.311409   4.203267   3.526525  -0.000040   0.525550  -0.000075
 528   7   9.020161   3.853523   2.441475  -0.000035   0.262808  -0.000135
 529   8   3.303764  -1.199395   4.198278  -0.000242   0.303474  -0.000798
 530  10   2.798514  -1.067373   3.285658  -0.000264   0.303474  -0.000869
 531  13   2.274208  -0.925992   4.241278  -0.000208   0.303474  -0.000686
 532  10   5.000685  -1.363592   1.749027   0.000234   0.229836   0.001018
 533  10   4.088741  -1.668796   2.214677  -0.000427   0.459576  -0.000929
 534  10   3.167099  -1.555753   2.743277  -0.000210   0.229836  -0.000914
 535   8   5.375802  -1.682064   3.208695   0.000144   0.459576   0.000314
 536   8   4.231488  -1.801989   3.829191  -0.000455   0.459576  -0.000990
 537  13   1.973583  -1.233479   5.004002  -0.000250   0.290359  -0.000862
 538  13   2.098575  -0.945378   6.272371  -0.000625   0.581015  -0.001075
 539   8   3.471296  -1.533363   5.442595  -0.000702   0.581015  -0.001209
 540   8   3.625849  -1.123689   6.673719   0.000231   0.290359   0.000797
 541  20   7.841466  -1.051769   7.939995   0.000103   0.018222   0.005636
 542   8   7.026719  -1.521130   6.815294   0.000104   0.018222   0.005731
 543  16   8.096385   5.457054   1.217476  -0.000113   0.278438  -0.000408
 544  16   7.314300   6.146580   0.566782  -0.000069   0.556858  -0.000124
 545   9   7.502890   4.510285   0.037266  -0.000649   0.556858  -0.001165
 546   9   6.638706   5.166530  -0.539825   0.000180   0.278438   0.000645
 547  13   0.187135  -0.278143   3.272345   0.000346   0.281829   0.001228
 548  13   1.076851  -0.920682   3.853886  -0.000596   0.563664  -0.001058
 549  10   1.252877  -0.751337   2.136976  -0.000202   0.563664  -0.000358
 550  10   2.198477  -1.291351   2.734359  -0.000163   0.281829  -0.000577
 551  11   0.680124   5.622462   1.081888  -0.000371   0.305093  -0.001217
 552  14   0.162662   5.739466   1.996946  -0.000287   0.305093  -0.000941
 553  17   0.915696   6.477597   1.664393  -0.000273   0.305093  -0.000896
 554  14  -0.568887   5.379937   1.905419  -0.000220   0.230380  -0.000954
 555  14  -1.006894   4.416104   1.783651  -0.000509   0.460650  -0.001105
 556  14  -1.094337   3.358059   1.876093   0.000193   0.230380   0.000840
 557  11  -0.015951   4.850015   0.559205  -0.000604   0.460650  -0.001312
 558  11  -0.343888   3.588147   0.540903  -0.000060   0.460650  -0.000131
 559  17   2.785120   7.317923   0.127905   0.000112   0.299068   0.000374
 560  17   1.612315   7.191625   0.776777  -0.001088   0.598602  -0.001817
 561  11   1.992432   6.078791  -0.468873  -0.000454   0.598602  -0.000758
 562  11   0.887295   5.872780   0.271863  -0.000250   0.299068  -0.000836
 563  15   2.566318   7.575310   7.297811   0.000123   0.325812   0.000377
 564  15   3.308483   7.147565   8.010147  -0.000283   0.325812  -0.000869
 565  12   1.925715   6.307956   8.075431  -0.000782   0.652485  -0.001198
 566  19   3.452705   4.521686  10.079227  -0.000141   0.248721  -0.000569
 567  19   2.908800   3.451368  10.339790  -0.001741   0.497805  -0.003498
 568  19   2.604529   2.283323  10.110883  -0.000598   0.248721  -0.002404
 569  12   2.099339   4.545132   9.570018  -0.001844   0.497805  -0.003703
 570  12   1.570647   3.149897   9.589750  -0.001170   0.497805  -0.002351
 571  17   0.691507   7.211301   2.016286  -0.000123   0.277684  -0.000443
 572  17   0.693029   7.711465   3.129042  -0.000126   0.555311  -0.000227
 573  14  -0.398928   6.379404   2.904486  -0.000583   0.555311  -0.001050
 574  14  -0.314319   6.806951   4.043976   0.000300   0.277684   0.001080
 575  18   7.592757   7.291934   7.863634  -0.000665   0.269572  -0.002468
 576  18   6.628339   7.024444   8.701512  -0.001209   0.539730  -0.002241
 577  15   6.368575   8.014236   7.467066  -0.001188   0.539730  -0.002201
 578  15   5.375839   7.646639   8.230637  -0.000681   0.269572  -0.002524
 579  18   8.988009   5.974745   6.264329   0.000291   0.353362   0.000824
 580  16   8.635845   6.773045   4.688820   0.000681   0.353362   0.001927
 =====================================================

              3632661  WORDS OF DYNAMIC MEMORY USED
 EXECUTION OF GAMESS TERMINATED NORMALLY Wed Nov 23 02:46:29 2016
 DDI: 263640 bytes (0.3 MB / 0 MWords) used by master data server.

 ----------------------------------------
 CPU timing information for all processes
 ========================================
 0: 477.940 + 0.160 = 478.100
 ----------------------------------------
 ddikick.x: exited gracefully.
