----- GAMESS execution script -----

          ******************************************************
          *         GAMESS VERSION =  5 DEC 2014 (R1)          *
          *             FROM IOWA STATE UNIVERSITY             *
          * M.W.SCHMIDT, K.K.BALDRIDGE, J.A.BOATZ, S.T.ELBERT, *
          *   M.S.GORDON, J.H.JENSEN, S.KOSEKI, N.MATSUNAGA,   *
          *          K.A.NGUYEN, S.J.SU, T.L.WINDUS,           *
          *       TOGETHER WITH M.DUPUIS, J.A.MONTGOMERY       *
          *         J.COMPUT.CHEM.  14, 1347-1363(1993)        *
          **************** 64 BIT LINUX VERSION ****************

 EXECUTION OF GAMESS BEGUN Wed Nov 23 02:46:32 2016

            ECHO OF THE FIRST FEW INPUT CARDS -
 INPUT CARD>! SELECT RESTRICTED HARTREE-FOCK AS DEFAULT                                     
 INPUT CARD>$contrl scftyp=rhf $end                                                         
 INPUT CARD>                                                                                
 INPUT CARD>! THEORY: HF OR DFT                                                             
 INPUT CARD> $contrl mplevl=0 $end                                                          
 INPUT CARD>                                                                                
 INPUT CARD> $system timlim=10000 mwords=20 $end                                            
 INPUT CARD> $SCF DIRSCF=.TRUE. $end                                                        
 INPUT CARD>                                                                                
 INPUT CARD>                                                                                
 INPUT CARD>! BASIS SETS                                                                    
 INPUT CARD>! 6-311G(d,p)                                                                   
 INPUT CARD> $BASIS GBASIS=N311 NGAUSS=6 NDFUNC=1 NPFUNC=1 $END                             
 INPUT CARD>                                                                                
 INPUT CARD>! One of the following                                                          
 INPUT CARD> $guess guess=HUCKEL $end                                                       
 INPUT CARD>                                                                                
 INPUT CARD> $statpt projct=.FALSE. $end                                                    
 INPUT CARD> $STATPT IFREEZ(1)=1,2,3 $END                                                   
 INPUT CARD>                                                                                
 INPUT CARD>! Optimize the geometry with COSMO effects                                      
 INPUT CARD> $statpt opttol=0.0005 nstep=50 $end                                            
 INPUT CARD> $contrl nzvar=1 $end                                                           
 INPUT CARD> $zmat dlc=.t. auto=.t. $end                                                    
 INPUT CARD> $contrl runtyp=OPTIMIZE maxit=200 $end                                         
 INPUT CARD>                                                                                
 INPUT CARD>! Run COSMO on perfect conductor                                                
 INPUT CARD> $COSGMS PRFCND=.TRUE. $end                                                     
 INPUT CARD>                                                                                
 INPUT CARD>! Specifying RSOLV                                                              
 INPUT CARD> $COSGMS COSRAD = 1.4 $end                                                      
 INPUT CARD>                                                                                
 INPUT CARD>! available memory                                                              
 INPUT CARD> $SYSTEM MWORDS=40 $END                                                         
 INPUT CARD>                                                                                
 INPUT CARD> $DATA                                                                          
 INPUT CARD>Pentane, 2,3,4-trimethyl-, ID: C565753                                          
 INPUT CARD>C1                                                                              
 INPUT CARD>C      6.0      3.9928000000    2.5193000000    2.3545000000                    
 INPUT CARD>C      6.0      3.0903000000    2.0486000000    1.1910000000                    
 INPUT CARD>C      6.0      1.6145000000    2.4976000000    1.3297000000                    
 INPUT CARD>C      6.0      3.1138000000    0.5371000000    0.9982000000                    
 INPUT CARD>C      6.0      4.4944000000    3.9383000000    2.1172000000                    
 INPUT CARD>C      6.0      5.1986000000    1.6224000000    2.5927000000                    
 INPUT CARD>C      6.0      1.4262000000    3.9700000000    1.0028000000                    
 INPUT CARD>C      6.0      1.0232000000    2.1796000000    2.6933000000                    
 INPUT CARD>H      1.0      3.3736000000    2.5190000000    3.2918000000                    
 INPUT CARD>H      1.0      3.4871000000    2.5064000000    0.2495000000                    
 INPUT CARD>H      1.0      1.0304000000    1.9212000000    0.5668000000                    
 INPUT CARD>H      1.0      2.8249000000    0.0000000000    1.9122000000                    
   40000000 WORDS OF MEMORY AVAILABLE

     BASIS OPTIONS
     -------------
     GBASIS=N311         IGAUSS=       6      POLAR=POPN311 
     NDFUNC=       1     NFFUNC=       0     DIFFSP=       F
     NPFUNC=       1      DIFFS=       F     BASNAM=        


     RUN TITLE
     ---------
 Pentane, 2,3,4-trimethyl-, ID: C565753                                          

 THE POINT GROUP OF THE MOLECULE IS C1      
 THE ORDER OF THE PRINCIPAL AXIS IS     0

 ATOM      ATOMIC                      COORDINATES (BOHR)
           CHARGE         X                   Y                   Z
 C           6.0     7.5452979238        4.7607866809        4.4493598381
 C           6.0     5.8398202199        3.8712926584        2.2506636514
 C           6.0     3.0509626072        4.7197796269        2.5127686459
 C           6.0     5.8842287806        1.0149718280        1.8863244809
 C           6.0     8.4931844792        7.4423078574        4.0009278612
 C           6.0     9.8239295198        3.0658914425        4.8994925684
 C           6.0     2.6951272037        7.5022121713        1.8950172205
 C           6.0     1.9335676306        4.1188467628        5.0895990027
 H           1.0     6.3751795922        4.7602197631        6.2206000064
 H           1.0     6.5896634918        4.7364092156        0.4714866339
 H           1.0     1.9471736577        3.6305415676        1.0710966898
 H           1.0     5.3382869427        0.0000000000        3.6135340337
 H           1.0     4.5669007945        0.4316134156        0.3892835535
 H           1.0     7.7643171658        0.3354263628        1.3277214790
 H           1.0     9.6434606879        8.1093811311        5.5941558415
 H           1.0     9.6682160984        7.5670297726        2.2945052943
 H           1.0     6.9179088959        8.7836353635        3.7735938249
 H           1.0    10.9855440844        2.8616120632        3.1913692481
 H           1.0    11.0463932612        3.8514505356        6.3829274687
 H           1.0     9.2728854218        1.1629373728        5.5181888567
 H           1.0     0.6901279307        8.0328472286        1.9498192741
 H           1.0     3.6998945114        8.7305340633        3.2435256853
 H           1.0     3.4079318463        7.9570692165        0.0000000000
 H           1.0     3.0681591137        4.9556174302        6.6234895870
 H           1.0     0.0000000000        4.8482809941        5.2660994100
 H           1.0     1.8630808513        2.0722735181        5.4274820093

          INTERNUCLEAR DISTANCES (ANGS.)




     $CONTRL OPTIONS
     ---------------
 SCFTYP=RHF          RUNTYP=OPTIMIZE     EXETYP=RUN     
 MPLEVL=       0     CITYP =NONE         CCTYP =NONE         VBTYP =NONE    
 DFTTYP=NONE         TDDFT =NONE    
 MULT  =       1     ICHARG=       0     NZVAR =       1     COORD =UNIQUE  
 PP    =NONE         RELWFN=NONE         LOCAL =NONE         NUMGRD=       F
 ISPHER=      -1     NOSYM =       0     MAXIT =     200     UNITS =ANGS    
 PLTORB=       F     MOLPLT=       F     AIMPAC=       F     FRIEND=        
 NPRINT=       7     IREST =       0     GEOM  =INPUT   
 NORMF =       0     NORMP =       0     ITOL  =      20     ICUT  =       9
 INTTYP=BEST         GRDTYP=BEST         QMTTOL= 1.0E-06

     $SYSTEM OPTIONS
     ---------------
  REPLICATED MEMORY=    40000000 WORDS (ON EVERY NODE).
 DISTRIBUTED MEMDDI=           0 MILLION WORDS IN AGGREGATE,
 MEMDDI DISTRIBUTED OVER   1 PROCESSORS IS           0 WORDS/PROCESSOR.
 TOTAL MEMORY REQUESTED ON EACH PROCESSOR=    40000000 WORDS.
 TIMLIM=       10000.00 MINUTES, OR       6.9 DAYS.
 PARALL= F  BALTYP=  DLB     KDIAG=    0  COREFL= F
 MXSEQ2=     300 MXSEQ3=     150  mem10=         0

     $COSGMS OPTIONS
     ---------------
     EPSI  =   INFTY     NSPA  =      92     COSRAD=    1.40
     DISEX =   10.00     OUTCHG=DBLCAV       COSBUG=       F
     COSWRT=       F     DCOSMO=       F

     SYMMETRY COORDINATES WILL NOT BE USED FOR 
     THE COSMO CALCULATION, EVEN IF SPECIFIED:
         -- SWITCHING TO C1 POINT GROUP --


     DEFINITION OF CAVITY
     ---------------------------
     ATOM         COORDINATES           RADIUS 
     1    7.5453    4.7608    4.4494    2.0000
     2    5.8398    3.8713    2.2507    2.0000
     3    3.0510    4.7198    2.5128    2.0000
     4    5.8842    1.0150    1.8863    2.0000
     5    8.4932    7.4423    4.0009    2.0000
     6    9.8239    3.0659    4.8995    2.0000
     7    2.6951    7.5022    1.8950    2.0000
     8    1.9336    4.1188    5.0896    2.0000
     9    6.3752    4.7602    6.2206    1.3000
    10    6.5897    4.7364    0.4715    1.3000
    11    1.9472    3.6305    1.0711    1.3000
    12    5.3383    0.0000    3.6135    1.3000
    13    4.5669    0.4316    0.3893    1.3000
    14    7.7643    0.3354    1.3277    1.3000
    15    9.6435    8.1094    5.5942    1.3000
    16    9.6682    7.5670    2.2945    1.3000
    17    6.9179    8.7836    3.7736    1.3000
    18   10.9855    2.8616    3.1914    1.3000
    19   11.0464    3.8515    6.3829    1.3000
    20    9.2729    1.1629    5.5182    1.3000
    21    0.6901    8.0328    1.9498    1.3000
    22    3.6999    8.7305    3.2435    1.3000
    23    3.4079    7.9571    0.0000    1.3000
    24    3.0682    4.9556    6.6235    1.3000
    25    0.0000    4.8483    5.2661    1.3000
    26    1.8631    2.0723    5.4275    1.3000

          ----------------
          PROPERTIES INPUT
          ----------------

     MOMENTS            FIELD           POTENTIAL          DENSITY
 IEMOM =       1   IEFLD =       0   IEPOT =       0   IEDEN =       0
 WHERE =COMASS     WHERE =NUCLEI     WHERE =NUCLEI     WHERE =NUCLEI  
 OUTPUT=BOTH       OUTPUT=BOTH       OUTPUT=BOTH       OUTPUT=BOTH    
 IEMINT=       0   IEFINT=       0                     IEDINT=       0
                                                       MORB  =       0
          EXTRAPOLATION IN EFFECT
          SOSCF IN EFFECT
 ORBITAL PRINTING OPTION: NPREO=     1   260     2     1

     -------------------------------
     INTEGRAL TRANSFORMATION OPTIONS
     -------------------------------
     NWORD  =            0
     CUTOFF = 1.0E-09     MPTRAN =       0
     DIRTRF =       T     AOINTS =DUP     

          ----------------------
          INTEGRAL INPUT OPTIONS
          ----------------------
 NOPK  =       1 NORDER=       0 SCHWRZ=       T


 -----------------------------------------------
  STATISTICS ON AUTOMATIC COORDINATE GENERATION 
 -----------------------------------------------
  NUMBER OF USER SPECIFIED BONDS                             0
  NUMBER OF BONDS                                           25
  NUMBER OF ANGLES                                          48
  NUMBER OF TORSIONS                                        63
  NUMBER OF EXTRA COORD.                                     0
  NUMBER OF EXTRA COORD. FOR CONSTRAINTS                     0
  NUMBER OF CONSTRAINED COORD.                               0

  TOTAL NUMBER OF PRIMITIVES                               136
 -----------------------------------------------

   --- ENCODED Z MATRIX ---
 COORD  TYPE   I   J   K   L   M   N
    1      1    1   9
    2      1    1   6
    3      1    1   2
    4      1    1   5
    5      1    2   4
    6      1    2  10
    7      1    2   3
    8      1    3   8
    9      1    3   7
   10      1    3  11
   11      1    4  14
   12      1    4  13
   13      1    4  12
   14      1    5  16
   15      1    5  15
   16      1    5  17
   17      1    6  20
   18      1    6  19
   19      1    6  18
   20      1    7  23
   21      1    7  22
   22      1    7  21
   23      1    8  26
   24      1    8  25
   25      1    8  24
   26      2    1   2   4
   27      2    1   5  17
   28      2    1   5  15
   29      2    1   6  18
   30      2    1   6  19
   31      2    1   2   3
   32      2    1   5  16
   33      2    1   2  10
   34      2    1   6  20
   35      2    2   3   7
   36      2    2   4  13
   37      2    2   3  11
   38      2    2   3   8
   39      2    2   4  12
   40      2    2   1   6
   41      2    2   4  14
   42      2    2   1   5
   43      2    2   1   9
   44      2    3   7  23
   45      2    3   8  24
   46      2    3   8  25
   47      2    3   8  26
   48      2    3   2  10
   49      2    3   2   4
   50      2    3   7  21
   51      2    3   7  22
   52      2    4   2  10
   53      2    5   1   9
   54      2    5   1   6
   55      2    6   1   9
   56      2    7   3  11
   57      2    7   3   8
   58      2    8   3  11
   59      2   12   4  13
   60      2   12   4  14
   61      2   13   4  14
   62      2   15   5  17
   63      2   15   5  16
   64      2   16   5  17
   65      2   18   6  19
   66      2   18   6  20
   67      2   19   6  20
   68      2   21   7  22
   69      2   21   7  23
   70      2   22   7  23
   71      2   24   8  25
   72      2   24   8  26
   73      2   25   8  26
   74      3    1   2   3  11
   75      3    1   2   4  12
   76      3    1   2   3   7
   77      3    1   2   3   8
   78      3    1   2   4  13
   79      3    1   2   4  14
   80      3    2   1   6  18
   81      3    2   1   5  16
   82      3    2   3   8  24
   83      3    2   3   8  25
   84      3    2   3   8  26
   85      3    2   1   5  15
   86      3    2   3   7  21
   87      3    2   3   7  22
   88      3    2   3   7  23
   89      3    2   1   5  17
   90      3    2   1   6  19
   91      3    2   1   6  20
   92      3    3   2   4  14
   93      3    3   2   4  12
   94      3    3   2   4  13
   95      3    3   2   1   5
   96      3    3   2   1   6
   97      3    3   2   1   9
   98      3    4   2   1   5
   99      3    4   2   3   8
  100      3    4   2   3  11
  101      3    4   2   1   6
  102      3    4   2   3   7
  103      3    4   2   1   9
  104      3    5   1   6  18
  105      3    5   1   2  10
  106      3    5   1   6  19
  107      3    5   1   6  20
  108      3    6   1   2  10
  109      3    6   1   5  16
  110      3    6   1   5  15
  111      3    6   1   5  17
  112      3    7   3   8  26
  113      3    7   3   8  25
  114      3    7   3   8  24
  115      3    7   3   2  10
  116      3    8   3   7  22
  117      3    8   3   2  10
  118      3    8   3   7  21
  119      3    8   3   7  23
  120      3    9   1   6  20
  121      3    9   1   5  17
  122      3    9   1   2  10
  123      3    9   1   6  18
  124      3    9   1   5  16
  125      3    9   1   5  15
  126      3    9   1   6  19
  127      3   10   2   4  14
  128      3   10   2   4  12
  129      3   10   2   3  11
  130      3   10   2   4  13
  131      3   11   3   7  22
  132      3   11   3   7  21
  133      3   11   3   8  26
  134      3   11   3   8  25
  135      3   11   3   8  24
  136      3   11   3   7  23

          INDEP./SYM. INTERNAL COORDINATES
          --------------------------------
 CRD  1=   0.1724 (  7) -0.3144 ( 26)  0.4755 ( 31)  0.1230 ( 35) -0.2599 ( 40)
           0.2810 ( 42) -0.1118 ( 48) -0.1526 ( 49)  0.1393 ( 52)  0.1002 ( 55)
           0.1326 ( 74)  0.1296 ( 75)  0.1519 ( 76)  0.1312 ( 77)  0.1318 ( 78)
           0.1520 ( 79)  0.1241 ( 85)  0.1279 ( 89) -0.1229 ( 92) -0.1454 ( 93)
          -0.1431 ( 94) -0.1145 ( 95)
 CRD  2=  -0.1186 (  3) -0.1684 ( 26) -0.4115 ( 35)  0.4202 ( 38) -0.1029 ( 40)
          -0.1569 ( 48)  0.2714 ( 49)  0.1424 ( 56) -0.1296 ( 58) -0.1127 ( 82)
          -0.1417 ( 83) -0.1667 ( 84) -0.1176 ( 86) -0.1482 ( 88)  0.2485 ( 95)
           0.2256 ( 96)  0.1931 ( 97)  0.1017 (113)  0.1308 (114)  0.1250 (116)
           0.1024 (118)
 CRD  3=  -0.1627 (  3) -0.1458 (  7) -0.2143 ( 26) -0.2145 ( 31)  0.2082 ( 33)
          -0.2543 ( 38) -0.2841 ( 40)  0.2031 ( 42) -0.1049 ( 45)  0.3238 ( 49)
          -0.1234 ( 53)  0.1351 ( 54) -0.1020 ( 56)  0.1128 ( 57)  0.1726 ( 74)
          -0.1164 ( 75)  0.2079 ( 76)  0.2017 ( 77)  0.1091 ( 87)  0.1077 ( 88)
           0.1165 ( 90)  0.1238 ( 91)  0.1066 ( 92)  0.1035 ( 94)  0.1158 ( 95)
          -0.1020 (101) -0.1088 (118)
 CRD  4=  -0.1855 (  3)  0.2755 (  7) -0.1946 ( 26)  0.2955 ( 35) -0.1147 ( 37)
          -0.1019 ( 41) -0.2652 ( 42)  0.1434 ( 44)  0.2437 ( 49)  0.1804 ( 54)
          -0.1162 ( 55) -0.3559 ( 57)  0.1047 ( 77) -0.1397 ( 98) -0.2162 (101)
          -0.1768 (102) -0.1517 (103)  0.1199 (106) -0.1010 (113) -0.1155 (115)
 CRD  5=   0.2512 (  3)  0.1508 (  5)  0.2372 (  7) -0.1228 ( 28) -0.1085 ( 30)
          -0.1489 ( 31)  0.1166 ( 33)  0.1235 ( 34)  0.1157 ( 38)  0.2262 ( 40)
           0.2162 ( 42) -0.1779 ( 43)  0.1287 ( 47)  0.1398 ( 49) -0.1047 ( 52)
          -0.3680 ( 54) -0.2098 ( 57)  0.1875 ( 77)  0.1208 ( 80) -0.1221 ( 81)
           0.1757 ( 96)  0.2203 ( 99) -0.1030 (106) -0.1038 (107)  0.1257 (108)
           0.1097 (111)  0.1516 (117)
 CRD  6=   0.2798 (  2) -0.1001 (  8)  0.1147 ( 26) -0.2217 ( 27)  0.1088 ( 30)
           0.1113 ( 32)  0.1185 ( 35) -0.1446 ( 36)  0.1115 ( 41) -0.1966 ( 42)
          -0.1610 ( 49) -0.1037 ( 53)  0.2704 ( 54)  0.1113 ( 58)  0.1356 ( 77)
           0.2435 ( 95)  0.3066 ( 98)  0.2165 ( 99)  0.1255 (100)  0.1194 (101)
           0.1774 (102)  0.1243 (103)  0.2262 (105)  0.1348 (117)  0.1086 (128)
 CRD  7=   0.1755 (  2) -0.2687 (  4) -0.1094 (  5)  0.1365 (  7)  0.3046 (  9)
          -0.2412 ( 26)  0.1309 ( 31)  0.1602 ( 34)  0.1070 ( 37) -0.2131 ( 38)
           0.2397 ( 40) -0.1581 ( 42)  0.1256 ( 46) -0.1315 ( 47) -0.1298 ( 48)
           0.1174 ( 49)  0.1203 ( 50)  0.1294 ( 51) -0.1060 ( 54) -0.1158 ( 56)
           0.2909 ( 57)  0.1490 ( 76)  0.1571 ( 96) -0.1724 ( 99)  0.1122 (115)
 CRD  8=  -0.1052 (  2) -0.1410 (  3) -0.1260 (  4)  0.1311 (  5) -0.1770 (  7)
          -0.3374 (  8) -0.1354 ( 29)  0.1146 ( 34)  0.1376 ( 35)  0.1180 ( 36)
          -0.1824 ( 39)  0.1604 ( 41)  0.1843 ( 44) -0.1241 ( 51)  0.1584 ( 52)
          -0.1136 ( 54)  0.1127 ( 55) -0.1684 ( 57) -0.2057 ( 76)  0.1009 ( 95)
           0.1909 ( 96)  0.1691 ( 98) -0.1386 ( 99) -0.1384 (100)  0.2591 (101)
          -0.2851 (102)  0.1388 (103)  0.1167 (108) -0.1284 (115)
 CRD  9=   0.1672 (  2)  0.2841 (  3)  0.3628 (  4)  0.4488 (  5)  0.2571 (  7)
           0.2891 (  9)  0.1791 ( 32)  0.1540 ( 36)  0.1184 ( 41)  0.1156 ( 54)
          -0.1162 ( 59) -0.1105 ( 60) -0.1283 ( 61) -0.1125 ( 63) -0.1481 ( 77)
           0.1241 ( 95) -0.1080 ( 99)
 CRD 10=  -0.3339 (  2) -0.1749 (  3) -0.1891 (  4)  0.2922 (  5)  0.1682 (  8)
           0.2721 (  9)  0.1426 ( 26) -0.2732 ( 29) -0.1639 ( 32) -0.1066 ( 36)
           0.2340 ( 39) -0.1089 ( 40)  0.2166 ( 51) -0.1355 ( 60)  0.1073 ( 65)
           0.1203 ( 66) -0.1047 ( 70)  0.1102 ( 85) -0.1144 ( 90)  0.1194 ( 96)
           0.1477 (102)
 CRD 11=   0.3172 (  3)  0.1046 (  5) -0.4451 (  8) -0.1709 (  9)  0.1320 ( 28)
          -0.1432 ( 29) -0.1923 ( 32)  0.2681 ( 39) -0.2147 ( 41)  0.1223 ( 43)
          -0.2329 ( 45) -0.1137 ( 47) -0.1044 ( 59)  0.1222 ( 71)  0.1620 ( 72)
           0.1047 ( 78)  0.1270 ( 85) -0.1103 ( 90) -0.1013 ( 92) -0.1443 ( 98)
 CRD 12=   0.1957 (  2)  0.1423 (  4)  0.2510 (  8)  0.1602 ( 27)  0.1254 ( 28)
          -0.2365 ( 29)  0.1643 ( 30) -0.1684 ( 32)  0.2330 ( 34)  0.1691 ( 44)
          -0.2840 ( 45)  0.2385 ( 46)  0.2495 ( 47)  0.1529 ( 50) -0.2781 ( 51)
          -0.1110 ( 62) -0.1481 ( 67) -0.1184 ( 69) -0.1903 ( 73)  0.1067 (107)
          -0.1243 (111)  0.1047 (112) -0.1261 (119)
 CRD 13=   0.2533 (  2) -0.1472 (  3)  0.2386 (  4) -0.1429 (  9)  0.2530 ( 27)
          -0.1895 ( 29) -0.1524 ( 32)  0.3038 ( 34) -0.1524 ( 44)  0.2676 ( 45)
          -0.1432 ( 46) -0.1752 ( 47) -0.2455 ( 50)  0.2801 ( 51) -0.1451 ( 62)
          -0.1587 ( 67)  0.1538 ( 69)  0.1209 ( 73)  0.1086 (107) -0.1142 (111)
          -0.1128 (112)  0.1022 (119)
 CRD 14=  -0.1243 (  2)  0.1504 (  3) -0.1889 (  4)  0.3098 (  7) -0.3313 (  9)
          -0.2162 ( 27)  0.1636 ( 28) -0.1440 ( 29)  0.2107 ( 30) -0.1073 ( 32)
          -0.1673 ( 34) -0.2797 ( 39)  0.2673 ( 41) -0.1477 ( 44)  0.2106 ( 46)
          -0.1768 ( 47) -0.1004 ( 50) -0.1379 ( 61)  0.1456 ( 64)  0.1385 ( 66)
           0.1118 ( 69)  0.1097 ( 70) -0.1104 ( 71)
 CRD 15=  -0.2917 (  3)  0.1400 (  4)  0.2226 (  7) -0.1809 (  9) -0.1321 ( 28)
          -0.2844 ( 30)  0.2744 ( 32)  0.1917 ( 34) -0.2581 ( 36)  0.2111 ( 39)
          -0.1999 ( 44) -0.1374 ( 45)  0.3308 ( 46) -0.2417 ( 47) -0.1297 ( 60)
          -0.1182 ( 64) -0.1094 ( 66)  0.1067 ( 70)  0.1594 ( 72)
 CRD 16=  -0.2387 (  2)  0.2535 (  4) -0.1152 (  7) -0.1300 ( 27)  0.4183 ( 28)
          -0.4112 ( 30)  0.1334 ( 34)  0.2128 ( 36) -0.1666 ( 39) -0.1356 ( 45)
           0.1517 ( 47) -0.1377 ( 50)  0.1370 ( 51) -0.1266 ( 62) -0.1698 ( 63)
           0.1677 ( 65)  0.1189 ( 67)  0.1063 (109)
 CRD 17=  -0.1617 (  7)  0.2489 (  8) -0.1692 (  9)  0.1062 ( 20) -0.1165 ( 22)
          -0.1886 ( 28)  0.1497 ( 32)  0.2484 ( 36) -0.2985 ( 41)  0.3127 ( 44)
           0.2660 ( 46) -0.1091 ( 47) -0.4274 ( 50) -0.1478 ( 59)  0.2120 ( 68)
          -0.1067 ( 70) -0.1571 ( 71)
 CRD 18=  -0.1641 (  2)  0.1006 (  3)  0.1039 (  4) -0.2659 (  5)  0.1263 (  7)
          -0.1142 ( 16) -0.3631 ( 27)  0.1553 ( 28) -0.3231 ( 29)  0.2986 ( 32)
           0.1980 ( 34) -0.1745 ( 36)  0.1031 ( 37) -0.1361 ( 41)  0.1969 ( 44)
           0.1541 ( 45) -0.2033 ( 46)  0.1419 ( 61) -0.2020 ( 63)  0.1526 ( 65)
           0.1130 ( 86)  0.1039 ( 88)
 CRD 19=  -0.1099 ( 21) -0.1094 ( 23)  0.1069 ( 25)  0.2383 ( 28)  0.1684 ( 29)
          -0.1345 ( 30) -0.2495 ( 32) -0.1796 ( 36)  0.1427 ( 39)  0.2803 ( 44)
           0.3401 ( 45) -0.3331 ( 47) -0.3829 ( 51) -0.1077 ( 62)  0.1019 ( 64)
           0.1464 ( 68) -0.1442 ( 69) -0.1734 ( 71)  0.1271 ( 73)
 CRD 20=   0.1165 ( 12) -0.2095 ( 27) -0.1535 ( 29)  0.1474 ( 32)  0.3597 ( 36)
          -0.1624 ( 37) -0.2603 ( 41) -0.2740 ( 44)  0.1551 ( 45) -0.1518 ( 47)
           0.3681 ( 50) -0.1248 ( 51) -0.1627 ( 59)  0.1217 ( 60) -0.1053 ( 68)
           0.1691 ( 70)  0.1239 ( 82)  0.1350 ( 83)  0.1360 ( 84) -0.1176 ( 88)
 CRD 21=  -0.1001 (  3)  0.1143 ( 13) -0.2076 ( 27)  0.2529 ( 28)  0.2390 ( 30)
          -0.2714 ( 34) -0.1221 ( 36)  0.2579 ( 39) -0.1642 ( 41) -0.2143 ( 43)
          -0.2097 ( 45)  0.1893 ( 46) -0.1506 ( 50)  0.1850 ( 51) -0.1124 ( 54)
           0.1014 ( 55)  0.1415 ( 61) -0.1075 ( 63) -0.1392 ( 65) -0.1066 ( 70)
           0.1126 ( 72)  0.1209 ( 80) -0.1143 ( 81) -0.1370 ( 85) -0.1547 ( 89)
           0.1470 ( 90)  0.1601 ( 91)
 CRD 22=  -0.1024 (  3)  0.1253 (  7) -0.1166 (  9)  0.1468 ( 19)  0.1145 ( 28)
           0.2951 ( 29) -0.1131 ( 30) -0.1124 ( 32) -0.1769 ( 33) -0.1075 ( 34)
           0.1154 ( 36)  0.1246 ( 37) -0.1068 ( 38)  0.1626 ( 39) -0.2418 ( 41)
          -0.2284 ( 46)  0.2011 ( 47)  0.1280 ( 48)  0.1142 ( 55) -0.1079 ( 56)
          -0.1332 ( 59) -0.1019 ( 65)  0.1190 ( 67) -0.1333 ( 72)  0.1423 ( 75)
           0.1622 ( 78)  0.1613 ( 79)  0.1585 ( 92)  0.1396 ( 93)  0.1594 ( 94)
           0.1101 (101)  0.1233 (108)
 CRD 23=   0.1436 (  4)  0.1668 (  5) -0.1573 (  9)  0.1144 ( 14) -0.1071 ( 15)
           0.1033 ( 18) -0.1341 ( 26) -0.1202 ( 28) -0.1231 ( 29)  0.1973 ( 30)
           0.1054 ( 31)  0.1868 ( 32) -0.1696 ( 34) -0.1001 ( 38)  0.1217 ( 39)
           0.1690 ( 40)  0.1006 ( 41) -0.1276 ( 42) -0.1760 ( 46)  0.1736 ( 47)
          -0.1208 ( 48) -0.1674 ( 51)  0.1417 ( 52)  0.1948 ( 53) -0.1261 ( 55)
          -0.1441 ( 56) -0.1249 ( 60) -0.1537 ( 64)  0.1580 ( 66) -0.1323 ( 72)
           0.1276 ( 97) -0.1239 (100)  0.1228 (103)  0.1376 (104)  0.1560 (106)
           0.1426 (107)  0.1024 (110)  0.1154 (115)
 CRD 24=  -0.1750 (  2)  0.1862 (  4) -0.2056 (  5) -0.1463 (  6)  0.1076 (  7)
           0.1519 (  9)  0.2108 ( 27) -0.2512 ( 34) -0.1618 ( 39) -0.1593 ( 41)
          -0.2047 ( 47)  0.1004 ( 53)  0.1792 ( 60) -0.1469 ( 64)  0.1412 ( 66)
           0.1018 ( 72)  0.1161 ( 75)  0.1157 ( 78)  0.1131 ( 79)  0.1043 ( 92)
           0.1072 ( 93)  0.1069 ( 94)  0.1554 ( 97)  0.1088 ( 99)  0.1381 (100)
           0.1491 (103)  0.1220 (105)  0.1528 (108)  0.2232 (122)  0.1028 (129)
 CRD 25=  -0.1251 (  3)  0.2061 (  5)  0.1369 (  6) -0.1518 ( 10)  0.1129 ( 34)
          -0.1204 ( 35)  0.1419 ( 36)  0.1192 ( 44) -0.1411 ( 45) -0.1096 ( 50)
          -0.1824 ( 58) -0.1260 ( 59) -0.1030 ( 61)  0.1930 ( 74)  0.1195 ( 76)
           0.1152 ( 82)  0.1214 ( 83)  0.1413 ( 86)  0.1500 ( 87)  0.1292 ( 88)
          -0.1092 ( 95) -0.1269 ( 96)  0.1264 (100)  0.1365 (112)  0.1677 (113)
           0.1615 (114)  0.1295 (115)  0.1956 (116)  0.1869 (118)  0.1748 (119)
           0.2030 (129)  0.1311 (134)  0.1249 (135)
 CRD 26=   0.3419 (  1)  0.1065 (  2) -0.1281 (  3) -0.4152 (  6) -0.1271 ( 10)
           0.1021 ( 11) -0.1626 ( 13) -0.1125 ( 16) -0.1299 ( 27)  0.1802 ( 29)
           0.1666 ( 32) -0.1903 ( 39)  0.1689 ( 41)  0.1156 ( 44) -0.1249 ( 54)
           0.1164 ( 55) -0.1546 ( 61) -0.1284 ( 63) -0.1273 ( 65) -0.1960 ( 98)
           0.1381 (102) -0.1416 (103) -0.1255 (105) -0.1105 (109) -0.1139 (111)
 CRD 27=   0.2891 (  1)  0.1147 (  3)  0.1473 (  6) -0.1585 (  7)  0.4622 ( 10)
           0.1584 ( 21) -0.1047 ( 27) -0.1195 ( 36)  0.1052 ( 41)  0.1495 ( 45)
           0.1504 ( 51)  0.1127 ( 56) -0.1003 ( 60)  0.1120 ( 69)  0.1055 ( 81)
           0.1256 ( 85)  0.1104 ( 86)  0.1043 ( 89)  0.1122 ( 92)  0.1067 ( 94)
          -0.1338 (102)  0.1556 (112)  0.1339 (113)  0.1474 (114)
 CRD 28=   0.1695 (  1) -0.1227 ( 10) -0.2803 ( 14) -0.2451 ( 15) -0.2509 ( 16)
           0.1569 ( 17)  0.1693 ( 18)  0.2541 ( 19)  0.1913 ( 20)  0.2110 ( 21)
           0.1905 ( 22) -0.1670 ( 23) -0.1710 ( 24) -0.2507 ( 25)  0.1311 ( 27)
           0.1158 ( 32) -0.1220 ( 34) -0.1067 ( 44)  0.1121 ( 47) -0.1259 ( 62)
          -0.1112 ( 63) -0.1332 ( 64)  0.1229 ( 67)  0.1057 ( 70) -0.1195 ( 73)
 CRD 29=  -0.2678 (  1) -0.1892 (  6)  0.3934 ( 10) -0.2186 ( 11) -0.2194 ( 12)
          -0.2497 ( 13) -0.1328 ( 14)  0.2369 ( 17)  0.1944 ( 18)  0.2113 ( 19)
          -0.1053 ( 22)  0.1853 ( 25) -0.1103 ( 29)  0.1161 ( 36)  0.1119 ( 41)
          -0.1271 ( 61)  0.1043 ( 65)  0.1076 ( 66) -0.1162 ( 81) -0.1239 ( 85)
          -0.1087 ( 89)  0.1004 (117)
 CRD 30=  -0.3089 (  1) -0.2626 ( 14) -0.1698 ( 15) -0.2058 ( 16) -0.2402 ( 17)
          -0.2102 ( 18) -0.3063 ( 19)  0.2434 ( 20)  0.2674 ( 21)  0.2171 ( 22)
           0.1803 ( 23)  0.1563 ( 24)  0.1970 ( 25)  0.1231 ( 28)  0.1357 ( 30)
          -0.1140 ( 50) -0.1168 ( 62) -0.1039 ( 65) -0.1349 ( 67)  0.1064 ( 68)
           0.1104 ( 69)
 CRD 31=  -0.1538 (  6)  0.1024 (  9)  0.1567 ( 10)  0.1214 ( 11)  0.1174 ( 12)
           0.3075 ( 14)  0.2801 ( 15)  0.3015 ( 16)  0.1586 ( 17)  0.1353 ( 18)
           0.1498 ( 19)  0.3106 ( 20)  0.3574 ( 21)  0.2868 ( 22) -0.1059 ( 27)
          -0.1233 ( 28) -0.1113 ( 32) -0.1192 ( 44) -0.1449 ( 50) -0.1016 ( 51)
           0.1243 ( 62)  0.1269 ( 63)  0.1140 ( 64)  0.1317 ( 68)  0.1480 ( 69)
           0.1125 ( 70)
 CRD 32=  -0.3275 (  1) -0.3525 (  6) -0.1299 (  8) -0.1393 ( 13)  0.1074 ( 15)
          -0.1164 ( 17) -0.1180 ( 18) -0.1887 ( 19) -0.3729 ( 23) -0.3647 ( 24)
          -0.3765 ( 25)  0.1382 ( 45)  0.1376 ( 46)  0.1361 ( 47) -0.1482 ( 71)
          -0.1457 ( 72) -0.1466 ( 73)
 CRD 33=  -0.2283 (  1)  0.1992 (  5) -0.1231 (  6)  0.1486 ( 10)  0.4176 ( 11)
           0.3962 ( 12)  0.4017 ( 13) -0.1675 ( 20) -0.1531 ( 21) -0.2179 ( 22)
          -0.1216 ( 36) -0.1450 ( 39) -0.1056 ( 41)  0.1469 ( 59)  0.1365 ( 60)
           0.1179 ( 61)
 CRD 34=  -0.2689 (  1)  0.1955 (  2) -0.1055 (  6) -0.1531 (  7) -0.3300 ( 10)
           0.2272 ( 17)  0.3192 ( 18)  0.1009 ( 19)  0.1148 ( 75)  0.1446 ( 78)
           0.1400 ( 79)  0.1267 ( 81)  0.1551 ( 85)  0.1594 ( 89)  0.1401 ( 92)
           0.1149 ( 93)  0.1447 ( 94)  0.1656 (109)  0.1940 (110)  0.1984 (111)
           0.1735 (121)  0.1407 (124)  0.1691 (125)  0.1220 (127)  0.1266 (130)
 CRD 35=   0.1949 (  4)  0.1240 (  6) -0.1133 (  7) -0.2278 ( 10)  0.2970 ( 15)
           0.1770 ( 16) -0.1026 ( 17) -0.1139 ( 18)  0.1154 ( 24) -0.1825 ( 80)
          -0.1053 ( 81) -0.1148 ( 85) -0.1017 ( 89) -0.2219 ( 90) -0.2107 ( 91)
          -0.1593 (104) -0.1987 (106) -0.1875 (107) -0.2024 (120) -0.1005 (121)
          -0.1742 (123) -0.1042 (124) -0.1136 (125) -0.2135 (126)  0.1076 (127)
           0.1043 (130)  0.1045 (132)  0.1026 (136)
 CRD 36=  -0.4017 (  6)  0.1781 (  8) -0.1518 ( 22)  0.1935 ( 23)  0.2898 ( 24)
           0.1120 ( 35) -0.1073 ( 44) -0.1000 ( 68)  0.1165 ( 70) -0.1334 ( 74)
           0.1012 ( 84)  0.1998 ( 86)  0.1262 ( 87)  0.2022 ( 88) -0.1111 ( 94)
           0.1097 (116)  0.1833 (118)  0.1856 (119) -0.1244 (129)  0.1558 (131)
           0.2294 (132)  0.2318 (136)
 CRD 37=  -0.4130 ( 11)  0.5182 ( 12)  0.1536 ( 14) -0.2526 ( 16) -0.1234 ( 17)
           0.1634 ( 23)  0.2169 ( 59) -0.2658 ( 60)  0.1351 ( 63) -0.1545 ( 75)
           0.1293 ( 79) -0.1007 ( 85)  0.1261 ( 92) -0.1576 ( 93) -0.1040 (110)
          -0.1010 (125)  0.1256 (127) -0.1581 (128)
 CRD 38=  -0.1039 ( 12)  0.1594 ( 13)  0.1683 ( 14) -0.1805 ( 15)  0.1511 ( 17)
          -0.1689 ( 19)  0.4541 ( 20) -0.3919 ( 21)  0.1493 ( 23) -0.2086 ( 24)
          -0.2380 ( 68)  0.1975 ( 69) -0.1051 ( 71)  0.1411 ( 72) -0.1035 ( 84)
           0.1889 ( 86)  0.1938 (118)  0.1807 (132)
 CRD 39=   0.1694 ( 11) -0.1354 ( 12) -0.2493 ( 20)  0.1607 ( 22)  0.5473 ( 23)
          -0.3899 ( 24) -0.1288 ( 25)  0.1202 ( 68) -0.2783 ( 71)  0.2044 ( 72)
           0.1784 ( 82) -0.1220 ( 83) -0.1183 (113)  0.1821 (114) -0.1068 (134)
           0.1936 (135)
 CRD 40=   0.1130 ( 12) -0.1244 ( 13) -0.1484 ( 16)  0.4773 ( 17) -0.5440 ( 18)
          -0.1351 ( 22) -0.2388 ( 65)  0.2741 ( 66)  0.2053 ( 80)  0.2023 (104)
          -0.1005 (107)  0.2217 (123)
 CRD 41=  -0.1777 ( 11)  0.1874 ( 12) -0.4905 ( 15)  0.4937 ( 16) -0.1316 ( 18)
          -0.1631 ( 20)  0.1401 ( 22) -0.2490 ( 63)  0.2532 ( 64) -0.1899 ( 81)
          -0.1858 (109) -0.2062 (124)
 CRD 42=  -0.1743 ( 12)  0.2348 ( 13)  0.3639 ( 14) -0.1144 ( 15) -0.2604 ( 16)
           0.1689 ( 17) -0.2093 ( 19) -0.3066 ( 20)  0.2835 ( 22)  0.2087 ( 24)
          -0.1391 ( 25) -0.1238 ( 61) -0.1970 ( 62)  0.1347 ( 63)  0.1124 ( 67)
           0.1515 ( 68) -0.1378 ( 70) -0.1245 ( 85)  0.1201 ( 87) -0.1259 (110)
           0.1154 (116) -0.1202 (125)  0.1384 (131)
 CRD 43=  -0.1028 ( 13) -0.2168 ( 14)  0.1939 ( 15) -0.1022 ( 18) -0.4387 ( 21)
           0.5012 ( 22)  0.1606 ( 24)  0.1209 ( 62) -0.1045 ( 64)  0.2397 ( 69)
          -0.2480 ( 70)  0.1174 ( 86)  0.1309 ( 87) -0.1437 ( 88)  0.1183 (116)
           0.1048 (118) -0.1563 (119)  0.1401 (131)  0.1266 (132) -0.1346 (136)
 CRD 44=   0.3808 ( 11)  0.1449 ( 12) -0.5211 ( 13)  0.1963 ( 14) -0.1409 ( 15)
           0.1709 ( 18) -0.2065 ( 19) -0.2085 ( 59)  0.2888 ( 61) -0.1135 ( 62)
           0.1164 ( 67) -0.1796 ( 78)  0.1331 ( 79)  0.1447 ( 92) -0.1680 ( 94)
           0.1444 (127) -0.1683 (130)
 CRD 45=  -0.1194 ( 11) -0.3347 ( 14)  0.1715 ( 15)  0.1532 ( 16)  0.2843 ( 17)
           0.1908 ( 18) -0.4723 ( 19) -0.1768 ( 25)  0.1886 ( 62) -0.1535 ( 65)
          -0.1074 ( 66)  0.2618 ( 67)  0.1017 ( 85) -0.1016 ( 89) -0.1480 ( 90)
           0.1352 ( 91) -0.1229 (106)  0.1602 (107) -0.1315 (111)  0.1351 (120)
          -0.1006 (121)  0.1027 (125) -0.1481 (126)
 CRD 46=  -0.1014 (  6)  0.1657 ( 17) -0.1659 ( 19) -0.2071 ( 20) -0.1567 ( 23)
          -0.2769 ( 24)  0.5405 ( 25)  0.1057 ( 71)  0.1813 ( 72) -0.3168 ( 73)
           0.1806 ( 83) -0.1471 ( 84)  0.1103 ( 87) -0.1830 (112)  0.1447 (113)
           0.1328 (116)  0.1241 (131) -0.1545 (133)  0.1732 (134)
 CRD 47=   0.2407 (  7) -0.1405 (  9) -0.1431 ( 21) -0.1307 ( 22) -0.1335 ( 24)
          -0.1033 ( 50) -0.1226 ( 52)  0.1548 ( 69)  0.2066 ( 82)  0.2217 ( 83)
           0.2260 ( 84) -0.1574 ( 88)  0.1289 (105)  0.1266 (108)  0.2129 (112)
           0.2086 (113)  0.1935 (114) -0.1042 (115) -0.1218 (116) -0.1608 (117)
          -0.1967 (119)  0.1111 (122) -0.1486 (129) -0.1050 (131)  0.2382 (133)
           0.2339 (134)  0.2188 (135) -0.1800 (136)
 CRD 48=   0.1162 (  1) -0.2906 (  3)  0.1356 (  6)  0.1192 (  7)  0.1281 ( 10)
           0.1307 ( 15)  0.1181 ( 18) -0.1631 ( 75) -0.1439 ( 78) -0.1311 ( 79)
          -0.1015 ( 80)  0.1416 ( 81)  0.1121 ( 85)  0.1669 ( 89) -0.1306 ( 91)
          -0.1226 ( 92) -0.1546 ( 93) -0.1354 ( 94) -0.1285 (104) -0.1230 (106)
          -0.1576 (107)  0.1578 (109)  0.1283 (110)  0.1831 (111) -0.1709 (120)
           0.2181 (121) -0.1418 (123)  0.1928 (124)  0.1632 (125) -0.1363 (126)
          -0.2122 (127) -0.2441 (128) -0.2249 (130)
 CRD 49=   0.2861 (  1) -0.3267 (  6)  0.1833 ( 13) -0.1906 ( 14) -0.1127 ( 19)
          -0.1537 ( 20)  0.1602 ( 23) -0.1281 ( 32)  0.1339 ( 39) -0.1117 ( 44)
           0.1129 ( 47)  0.1178 ( 56) -0.1484 ( 58) -0.1568 ( 59) -0.1091 ( 60)
           0.1439 ( 63)  0.1349 ( 64)  0.1197 ( 69)  0.1267 ( 70) -0.1107 ( 72)
          -0.1411 ( 73)  0.1772 ( 74)  0.1091 (100)  0.1222 (103) -0.1411 (120)
           0.1222 (122) -0.1298 (123) -0.1352 (131) -0.1183 (136)
 CRD 50=   0.1892 (  1)  0.1136 (  5) -0.1477 (  6) -0.1389 (  9) -0.2743 ( 10)
          -0.1630 ( 11) -0.1622 ( 12) -0.1067 ( 14) -0.1196 ( 19)  0.2218 ( 21)
           0.1248 ( 22)  0.1055 ( 24)  0.1960 ( 25) -0.1013 ( 33) -0.1281 ( 36)
           0.1098 ( 37) -0.1220 ( 41)  0.1104 ( 44)  0.1157 ( 45)  0.1333 ( 50)
           0.1656 ( 51)  0.1574 ( 52)  0.1855 ( 61) -0.1897 ( 68) -0.1600 ( 70)
          -0.1823 ( 71) -0.1377 (108)  0.1760 (117) -0.1197 (122)  0.1083 (129)
          -0.1027 (131)  0.1333 (133)  0.1384 (135) -0.1172 (136)
 CRD 51=   0.2532 (  2) -0.1605 (  4)  0.1081 ( 15)  0.2082 ( 16) -0.2489 ( 17)
          -0.1918 ( 18) -0.2117 ( 19)  0.1456 ( 27)  0.1210 ( 28) -0.2114 ( 29)
          -0.2017 ( 30)  0.1226 ( 32) -0.2124 ( 34) -0.1161 ( 53)  0.1361 ( 55)
          -0.1752 ( 62) -0.1594 ( 64)  0.2001 ( 65)  0.2443 ( 66)  0.2281 ( 67)
          -0.1519 ( 97) -0.1579 (103)  0.1305 (121) -0.1971 (122)  0.1487 (124)
 CRD 52=   0.1321 (  1)  0.1507 (  2)  0.1703 (  4)  0.2233 (  8)  0.1094 ( 10)
          -0.1727 ( 14) -0.1480 ( 15) -0.1407 ( 18) -0.1668 ( 19)  0.1189 ( 20)
          -0.1708 ( 23) -0.1461 ( 24) -0.2040 ( 25) -0.1133 ( 27) -0.1347 ( 28)
          -0.1251 ( 29) -0.1222 ( 30) -0.1426 ( 32) -0.1039 ( 34) -0.1088 ( 43)
          -0.1754 ( 45) -0.1616 ( 46) -0.1675 ( 47)  0.1114 ( 62)  0.1780 ( 63)
           0.1296 ( 64)  0.1756 ( 65)  0.1121 ( 66) -0.1124 ( 69)  0.1830 ( 71)
           0.1991 ( 72)  0.1573 ( 73) -0.1069 ( 74) -0.1029 (100) -0.1125 (123)
           0.1096 (124)  0.1044 (128) -0.1417 (129)
 CRD 53=  -0.1136 (  4) -0.3173 (  5) -0.2659 (  9)  0.2121 ( 11)  0.2052 ( 12)
           0.2034 ( 13)  0.1508 ( 20)  0.1724 ( 21)  0.1830 ( 22)  0.2005 ( 36)
           0.2013 ( 39)  0.2010 ( 41)  0.1621 ( 44)  0.1699 ( 50)  0.1629 ( 51)
          -0.2128 ( 59) -0.2189 ( 60) -0.2181 ( 61) -0.1905 ( 68) -0.1750 ( 69)
          -0.1654 ( 70)
 CRD 54=  -0.2716 (  1)  0.2188 (  4)  0.2308 (  6) -0.2781 (  8)  0.1365 ( 10)
          -0.1432 ( 13) -0.2187 ( 15) -0.1250 ( 16) -0.1474 ( 18)  0.1669 ( 23)
           0.1775 ( 24) -0.1113 ( 27) -0.1311 ( 28)  0.1275 ( 45)  0.1485 ( 46)
           0.1371 ( 47)  0.2097 ( 62)  0.1067 ( 63)  0.1508 ( 67) -0.1248 ( 71)
          -0.1168 ( 72) -0.2001 ( 73)  0.1133 (107) -0.1090 (111) -0.1147 (123)
           0.1198 (124)  0.1316 (125) -0.1431 (126)
 CRD 55=   0.1357 (  1) -0.1805 (  2) -0.1445 (  3) -0.1631 (  4)  0.1521 (  5)
          -0.1033 (  9)  0.3340 ( 10) -0.1555 ( 11)  0.1204 ( 17) -0.1212 ( 21)
           0.1878 ( 22)  0.1363 ( 24) -0.1791 ( 25)  0.1174 ( 33) -0.1021 ( 48)
           0.1257 ( 60) -0.1133 ( 62) -0.1299 ( 67) -0.1722 ( 69) -0.1558 ( 73)
           0.1310 ( 83) -0.1139 ( 86) -0.1452 (112)  0.1389 (119)  0.1532 (127)
           0.2094 (128)  0.1368 (130) -0.1423 (131) -0.1622 (132)  0.1840 (134)
           0.1214 (135)
 CRD 56=  -0.1452 (  2)  0.1981 (  3) -0.2283 (  4) -0.1185 (  6)  0.1119 (  7)
           0.1389 (  8) -0.1399 ( 10) -0.1414 ( 11)  0.1808 ( 14) -0.1294 ( 15)
           0.1156 ( 16)  0.1356 ( 17) -0.1660 ( 18)  0.1347 ( 19) -0.1021 ( 23)
          -0.1301 ( 43)  0.1044 ( 53) -0.1036 ( 59) -0.2006 ( 64) -0.1899 ( 66)
          -0.1201 ( 78) -0.1401 ( 80)  0.1318 ( 81) -0.1087 (111) -0.2794 (123)
           0.2415 (124)  0.1942 (125) -0.1832 (126)  0.1444 (128)
 CRD 57=   0.1594 (  4) -0.2782 (  5) -0.1187 (  7)  0.3734 (  9) -0.1661 ( 20)
          -0.1161 ( 21) -0.2251 ( 23)  0.1711 ( 24)  0.1633 ( 37) -0.1319 ( 56)
           0.1794 ( 70) -0.1419 ( 71)  0.1529 ( 72)  0.1328 ( 82) -0.1129 (105)
          -0.1018 (108)  0.1410 (114) -0.1654 (122)  0.1028 (123) -0.1748 (131)
          -0.1005 (132)  0.1446 (133)  0.1152 (134)  0.3246 (135)
 CRD 58=   0.1481 (  1) -0.2410 (  2) -0.1253 (  3) -0.1232 (  5)  0.1531 (  6)
           0.2272 (  7) -0.2321 (  8)  0.1888 ( 12) -0.1062 ( 13) -0.1432 ( 14)
           0.1323 ( 16)  0.1106 ( 17) -0.1626 ( 22)  0.1488 ( 25) -0.1276 ( 48)
           0.1154 ( 58) -0.1290 ( 61)  0.1155 ( 63) -0.1282 ( 67) -0.1186 ( 72)
          -0.1238 ( 74)  0.1227 ( 75) -0.1335 ( 85)  0.1195 ( 87)  0.1114 ( 90)
          -0.1189 ( 92)  0.1178 (121) -0.1570 (122)  0.1245 (124)  0.1886 (128)
          -0.1114 (129)  0.1657 (130)  0.2137 (131)  0.1183 (132)
 CRD 59=   0.2703 (  2) -0.1164 (  3) -0.1584 (  4) -0.1600 (  8)  0.1117 (  9)
          -0.1631 ( 11)  0.1057 ( 12)  0.1525 ( 14)  0.1772 ( 15) -0.2477 ( 16)
          -0.1285 ( 19) -0.1092 ( 22) -0.1020 ( 55) -0.1222 ( 59) -0.2382 ( 63)
           0.1535 ( 65)  0.1076 ( 68) -0.1198 ( 74) -0.1004 ( 78) -0.1173 ( 81)
           0.1931 ( 85)  0.1208 ( 93)  0.1165 ( 97)  0.1169 (103) -0.1662 (109)
           0.1442 (110)  0.1035 (122) -0.2524 (124)  0.1500 (128) -0.1342 (129)
           0.1369 (131)
 CRD 60=   0.1870 (  3) -0.2008 (  8)  0.1061 (  9) -0.2409 ( 12)  0.1711 ( 13)
           0.2460 ( 20) -0.2010 ( 21)  0.1171 ( 24)  0.1142 ( 48) -0.1990 ( 60)
           0.1108 ( 61)  0.2177 ( 68) -0.1181 ( 69) -0.1137 ( 75)  0.1766 ( 79)
           0.1016 ( 82) -0.2387 ( 86)  0.2322 ( 92)  0.1272 (116) -0.1765 (118)
           0.1148 (124) -0.1903 (128)  0.1826 (131) -0.1211 (132)
 CRD 61=  -0.1956 (  4)  0.1083 (  6) -0.1688 (  7)  0.2178 ( 11) -0.2136 ( 13)
           0.2411 ( 17) -0.1308 ( 18) -0.1383 ( 19) -0.1287 ( 20) -0.1059 ( 43)
           0.1011 ( 53)  0.1845 ( 59) -0.1347 ( 61)  0.1970 ( 65)  0.2235 ( 78)
          -0.1049 ( 85)  0.2055 ( 90) -0.1181 ( 93)  0.1402 ( 94)  0.1109 ( 97)
          -0.1280 (104)  0.1543 (106)  0.1739 (122) -0.2093 (123) -0.1148 (127)
          -0.1473 (128)  0.1110 (130)  0.1046 (135)
 CRD 62=  -0.1829 (  5)  0.1347 ( 17) -0.1286 ( 18) -0.1552 ( 21)  0.2180 ( 22)
           0.1826 ( 23) -0.2693 ( 24)  0.1333 ( 46) -0.1066 ( 50) -0.1047 ( 66)
          -0.1110 ( 69)  0.1675 ( 70)  0.1296 ( 71) -0.2072 ( 72) -0.1044 ( 80)
          -0.1512 ( 82)  0.1951 ( 84) -0.1359 ( 87)  0.1452 ( 88) -0.1013 (104)
           0.2089 (112) -0.1373 (114)  0.1950 (119)  0.1943 (133) -0.1519 (135)
           0.1813 (136)
 CRD 63=   0.2131 ( 14) -0.2499 ( 15)  0.2364 ( 18) -0.2557 ( 19)  0.1048 ( 22)
           0.1327 ( 28)  0.1046 ( 29) -0.1240 ( 30)  0.1472 ( 62) -0.1965 ( 64)
           0.1870 ( 66) -0.1795 ( 67)  0.1166 ( 81) -0.2127 ( 89) -0.2177 ( 91)
          -0.2741 (107) -0.2652 (111) -0.2467 (120) -0.2416 (121)
 CRD 64=   0.2059 (  5) -0.1201 ( 14) -0.1231 ( 17)  0.1124 ( 19) -0.1562 ( 21)
           0.1440 ( 22) -0.2027 ( 23)  0.2678 ( 25) -0.1200 ( 45)  0.1020 ( 47)
          -0.1001 ( 52) -0.1150 ( 69)  0.1075 ( 70) -0.1577 ( 71)  0.1927 ( 73)
          -0.2168 ( 83)  0.1180 ( 84)  0.1607 ( 88) -0.1068 ( 96)  0.1696 (112)
          -0.1651 (113) -0.1499 (115) -0.1838 (117)  0.1843 (119)  0.1097 (122)
          -0.1261 (126) -0.1355 (129)  0.1272 (133) -0.2075 (134)  0.1556 (136)
 CRD 65=   0.1063 (  2) -0.1362 (  7) -0.1897 ( 11)  0.2278 ( 12)  0.1689 ( 16)
          -0.1162 ( 26) -0.1188 ( 27) -0.1021 ( 33) -0.1564 ( 36)  0.1426 ( 41)
           0.1400 ( 49) -0.1326 ( 54) -0.1493 ( 59)  0.1618 ( 60)  0.1300 ( 63)
           0.2296 ( 75)  0.1454 ( 81)  0.2317 ( 93) -0.1401 ( 98) -0.1059 (102)
           0.1407 (109) -0.1004 (110) -0.1116 (118) -0.2072 (125) -0.2765 (127)
          -0.2312 (130)
 CRD 66=   0.1694 (  8)  0.1373 ( 11)  0.1063 ( 12) -0.2293 ( 13)  0.1031 ( 14)
           0.2011 ( 20) -0.1275 ( 21)  0.1529 ( 39) -0.1397 ( 44)  0.1476 ( 52)
          -0.1177 ( 57) -0.1760 ( 61)  0.1421 ( 68) -0.1005 ( 69) -0.1040 ( 76)
           0.1122 ( 78) -0.2059 ( 79) -0.1147 ( 86)  0.1694 ( 87) -0.1310 ( 92)
           0.1871 ( 94)  0.1590 ( 98) -0.1118 ( 99) -0.2047 (102)  0.1034 (103)
           0.1124 (110)  0.1439 (116) -0.1402 (118)  0.1267 (125) -0.1612 (127)
           0.1111 (129)  0.1569 (130) -0.2640 (132)
 CRD 67=   0.1515 (  2) -0.1903 (  4)  0.2210 (  9)  0.1063 ( 16) -0.1504 ( 17)
           0.1603 ( 23) -0.1134 ( 24)  0.1171 ( 38)  0.1144 ( 46) -0.1316 ( 47)
           0.1383 ( 53) -0.1304 ( 55) -0.1390 ( 56) -0.1273 ( 57)  0.1103 ( 71)
          -0.1405 ( 74)  0.1650 ( 80)  0.1080 ( 81) -0.2171 ( 82) -0.1038 ( 95)
          -0.1309 ( 96) -0.1171 (100)  0.1500 (103)  0.1115 (104) -0.1014 (105)
          -0.1285 (108) -0.1827 (114)  0.1018 (122) -0.1399 (125) -0.2028 (126)
          -0.1143 (129)  0.1972 (133)  0.2515 (134)
 CRD 68=   0.2375 (  3) -0.1328 (  4)  0.1146 (  7) -0.1358 (  8)  0.1310 ( 22)
           0.1128 ( 24) -0.1044 ( 25)  0.1034 ( 34) -0.1137 ( 35) -0.1184 ( 37)
          -0.1182 ( 43)  0.1021 ( 45) -0.1232 ( 50)  0.1418 ( 54)  0.1498 ( 58)
           0.1575 ( 80) -0.1044 ( 81) -0.1085 ( 84) -0.1571 ( 87)  0.1133 ( 93)
          -0.1231 (100)  0.1406 (104) -0.1108 (109)  0.1714 (113)  0.1613 (114)
          -0.2243 (116) -0.1072 (118) -0.1622 (120)  0.1355 (121)  0.1323 (125)
          -0.1815 (126) -0.1330 (127)  0.1376 (132) -0.1770 (133)  0.2284 (136)
 CRD 69=  -0.1155 (  1)  0.1901 (  3) -0.1955 (  7)  0.1132 (  8) -0.1045 ( 14)
           0.1425 ( 15)  0.1294 ( 18) -0.1365 ( 19) -0.1363 ( 28)  0.1291 ( 29)
          -0.1064 ( 30) -0.1281 ( 42) -0.1097 ( 43)  0.1648 ( 55)  0.1034 ( 64)
          -0.1136 ( 67) -0.1209 ( 81)  0.1148 ( 87)  0.1064 ( 89) -0.1597 ( 91)
          -0.1214 ( 94) -0.1105 (103)  0.2030 (104)  0.2246 (106)  0.1180 (108)
          -0.2478 (109) -0.1800 (110)  0.1056 (116) -0.2233 (120)  0.2549 (121)
          -0.1332 (130) -0.1309 (132) -0.1215 (136)
 CRD 70=   0.1080 (  1) -0.1635 (  2)  0.1577 (  5) -0.2041 (  7)  0.1470 (  9)
          -0.1582 ( 26)  0.1281 ( 38)  0.1562 ( 40)  0.1729 ( 48) -0.1415 ( 53)
          -0.1317 ( 56)  0.1169 ( 75)  0.1624 ( 76)  0.1453 ( 77) -0.1661 ( 81)
          -0.1157 ( 82) -0.1826 ( 89)  0.1320 ( 93) -0.1236 ( 96) -0.2333 ( 97)
          -0.1592 (100) -0.1580 (103)  0.2643 (105)  0.1323 (108)  0.1558 (110)
          -0.1121 (114)  0.1003 (120)  0.1541 (125) -0.1301 (127) -0.1525 (129)
          -0.1049 (130)  0.1329 (133)  0.1153 (134)
 CRD 71=   0.1577 (  3) -0.1353 (  5)  0.2253 ( 10)  0.1120 ( 21)  0.1168 ( 25)
          -0.1209 ( 31) -0.1116 ( 33)  0.1177 ( 35) -0.1212 ( 37) -0.1245 ( 45)
           0.1296 ( 49) -0.1168 ( 51)  0.1007 ( 57) -0.1168 ( 58) -0.2243 ( 77)
           0.1886 ( 82)  0.2502 ( 84) -0.1366 ( 87) -0.2311 ( 88)  0.1104 ( 93)
           0.1128 ( 97) -0.2118 ( 99) -0.2389 (113) -0.1084 (114)  0.2623 (115)
           0.1349 (116)  0.2218 (118)  0.1465 (129) -0.1222 (134)
 CRD 72=  -0.1756 (  1)  0.1089 (  4) -0.1978 (  6) -0.1216 ( 31)  0.1244 ( 33)
           0.1001 ( 39) -0.1131 ( 42)  0.1292 ( 43) -0.1793 ( 75)  0.1942 ( 76)
           0.1380 ( 77) -0.2192 ( 79) -0.1863 ( 80)  0.1154 ( 81) -0.1053 ( 87)
           0.1663 ( 89) -0.2121 ( 91)  0.1867 ( 94) -0.2148 ( 95) -0.1541 ( 97)
          -0.1750 (100)  0.2770 (101)  0.1036 (103) -0.1221 (105)  0.1552 (106)
           0.1120 (108) -0.1368 (110)  0.1071 (126)

 THE DETERMINANT OF THE G MATRIX IS 10**(   -24)


                     --------------------
                     INTERNAL COORDINATES
                     --------------------

                 - - ATOMS - -         COORDINATE      COORDINATE
 NO.   TYPE    I  J  K  L  M  N        (BOHR,RAD)       (ANG,DEG)
 ----------------------------------------------------------------
   1 STRETCH   1  9                     2.1228445       1.1233610
   2 STRETCH   1  6                     2.8753176       1.5215527
   3 STRETCH   1  2                     2.9213214       1.5458968
   4 STRETCH   1  5                     2.8792596       1.5236387
   5 STRETCH   2  4                     2.8798062       1.5239279
   6 STRETCH   2 10                     2.1156943       1.1195773
   7 STRETCH   2  3                     2.9268338       1.5488138
   8 STRETCH   3  8                     2.8722372       1.5199226
   9 STRETCH   3  7                     2.8723103       1.5199613
  10 STRETCH   3 11                     2.1173586       1.1204580
  11 STRETCH   4 14                     2.0757051       1.0984159
  12 STRETCH   4 13                     2.0776890       1.0994658
  13 STRETCH   4 12                     2.0764087       1.0987883
  14 STRETCH   5 16                     2.0756042       1.0983625
  15 STRETCH   5 15                     2.0752102       1.0981540
  16 STRETCH   5 17                     2.0814258       1.1014432
  17 STRETCH   6 20                     2.0754924       1.0983034
  18 STRETCH   6 19                     2.0765596       1.0988681
  19 STRETCH   6 18                     2.0757562       1.0984429
  20 STRETCH   7 23                     2.0751086       1.0981003
  21 STRETCH   7 22                     2.0825002       1.1020117
  22 STRETCH   7 21                     2.0747527       1.0979119
  23 STRETCH   8 26                     2.0754747       1.0982940
  24 STRETCH   8 25                     2.0741047       1.0975690
  25 STRETCH   8 24                     2.0833395       1.1024558
  26 BEND      1  2  4                  1.9694932     112.8436480
  27 BEND      1  5 17                  1.9476801     111.5938486
  28 BEND      1  5 15                  1.9415092     111.2402857
  29 BEND      1  6 18                  1.9526767     111.8801318
  30 BEND      1  6 19                  1.9341089     110.8162743
  31 BEND      1  2  3                  1.9829810     113.6164398
  32 BEND      1  5 16                  1.9502125     111.7389450
  33 BEND      1  2 10                  1.8770711     107.5482524
  34 BEND      1  6 20                  1.9570537     112.1309166
  35 BEND      2  3  7                  1.9601737     112.3096783
  36 BEND      2  4 13                  1.9389184     111.0918391
  37 BEND      2  3 11                  1.8614945     106.6557797
  38 BEND      2  3  8                  1.9718430     112.9782844
  39 BEND      2  4 12                  1.9557668     112.0571861
  40 BEND      2  1  6                  1.9834007     113.6404912
  41 BEND      2  4 14                  1.9527405     111.8837867
  42 BEND      2  1  5                  1.9375079     111.0110249
  43 BEND      2  1  9                  1.8818936     107.8245627
  44 BEND      3  7 23                  1.9457067     111.4807822
  45 BEND      3  8 24                  1.9440419     111.3853957
  46 BEND      3  8 25                  1.9448993     111.4345195
  47 BEND      3  8 26                  1.9450461     111.4429303
  48 BEND      3  2 10                  1.8697065     107.1262899
  49 BEND      3  2  4                  1.8897346     108.2738160
  50 BEND      3  7 21                  1.9409880     111.2104205
  51 BEND      3  7 22                  1.9523189     111.8596319
  52 BEND      4  2 10                  1.8689044     107.0803358
  53 BEND      5  1  9                  1.8877369     108.1593545
  54 BEND      5  1  6                  1.8885878     108.2081103
  55 BEND      6  1  9                  1.8818255     107.8206610
  56 BEND      7  3 11                  1.8622192     106.6973019
  57 BEND      7  3  8                  1.9256259     110.3302376
  58 BEND      8  3 11                  1.8759286     107.4827891
  59 BEND     12  4 13                  1.8706783     107.1819711
  60 BEND     12  4 14                  1.8775619     107.5763754
  61 BEND     13  4 14                  1.8634120     106.7656454
  62 BEND     15  5 17                  1.8715148     107.2298989
  63 BEND     15  5 16                  1.8734735     107.3421265
  64 BEND     16  5 17                  1.8754193     107.4536117
  65 BEND     18  6 19                  1.8709207     107.1958578
  66 BEND     18  6 20                  1.8793142     107.6767713
  67 BEND     19  6 20                  1.8652298     106.8697963
  68 BEND     21  7 22                  1.8737096     107.3556547
  69 BEND     21  7 23                  1.8755034     107.4584313
  70 BEND     22  7 23                  1.8716365     107.2368694
  71 BEND     24  8 25                  1.8794673     107.6855461
  72 BEND     24  8 26                  1.8699262     107.1388812
  73 BEND     25  8 26                  1.8768256     107.5341845
  74 TORSION   1  2  3 11              -2.9320754    -167.9955447
  75 TORSION   1  2  4 12               0.9887764      56.6527119
  76 TORSION   1  2  3  7               1.3169921      75.4580873
  77 TORSION   1  2  3  8              -0.8748647     -50.1260531
  78 TORSION   1  2  4 13               3.0807547     176.5142441
  79 TORSION   1  2  4 14              -1.1217178     -64.2696957
  80 TORSION   2  1  6 18               0.9820946      56.2698758
  81 TORSION   2  1  5 16              -1.0877366     -62.3227179
  82 TORSION   2  3  8 24               0.9780468      56.0379512
  83 TORSION   2  3  8 25               3.0773413     176.3186659
  84 TORSION   2  3  8 26              -1.1092262     -63.5539821
  85 TORSION   2  1  5 15               3.1018981     177.7256680
  86 TORSION   2  3  7 21               3.0656874     175.6509491
  87 TORSION   2  3  7 22              -1.1225734     -64.3187192
  88 TORSION   2  3  7 23               0.9729594      55.7464644
  89 TORSION   2  1  5 17               1.0125479      58.0147235
  90 TORSION   2  1  6 19               3.0690216     175.8419853
  91 TORSION   2  1  6 20              -1.1315372     -64.8323053
  92 TORSION   3  2  4 14               2.9510416     169.0822261
  93 TORSION   3  2  4 12              -1.2216496     -69.9953662
  94 TORSION   3  2  4 13               0.8703288      49.8661659
  95 TORSION   3  2  1  5              -1.4700932     -84.2301354
  96 TORSION   3  2  1  6               2.6795458     153.5266627
  97 TORSION   3  2  1  9               0.5947473      34.0765129
  98 TORSION   4  2  1  5               2.6532922     152.0224447
  99 TORSION   4  2  3  8               1.3277156      76.0724984
 100 TORSION   4  2  3 11              -0.7294951     -41.7969933
 101 TORSION   4  2  1  6               0.5197458      29.7792428
 102 TORSION   4  2  3  7              -2.7636130    -158.3433612
 103 TORSION   4  2  1  9              -1.5650526     -89.6709070
 104 TORSION   5  1  6 18              -1.1782815     -67.5105562
 105 TORSION   5  1  2 10               0.5960610      34.1517821
 106 TORSION   5  1  6 19               0.9086455      52.0615533
 107 TORSION   5  1  6 20               2.9912720     171.3872627
 108 TORSION   6  1  2 10              -1.5374853     -88.0914198
 109 TORSION   6  1  5 16               1.0999981      63.0252507
 110 TORSION   6  1  5 15              -0.9935525     -56.9263635
 111 TORSION   6  1  5 17              -3.0829026    -176.6373079
 112 TORSION   7  3  8 26               2.9636198     169.8029063
 113 TORSION   7  3  8 25               0.8670020      49.6755543
 114 TORSION   7  3  8 24              -1.2322925     -70.6051604
 115 TORSION   7  3  2 10              -0.7533960     -43.1664111
 116 TORSION   8  3  7 22               1.0942662      62.6968326
 117 TORSION   8  3  2 10              -2.9452527    -168.7505514
 118 TORSION   8  3  7 21              -1.0006583     -57.3334990
 119 TORSION   8  3  7 23              -3.0933864    -177.2379837
 120 TORSION   9  1  6 20               0.9533000      54.6200660
 121 TORSION   9  1  5 17              -1.0487542     -60.0891915
 122 TORSION   9  1  2 10               2.6609016     152.4584304
 123 TORSION   9  1  6 18               3.0669318     175.7222472
 124 TORSION   9  1  5 16               3.1341465     179.5733671
 125 TORSION   9  1  5 15               1.0405959      59.6217530
 126 TORSION   9  1  6 19              -1.1293265     -64.7056433
 127 TORSION  10  2  4 14               0.9402999      53.8752155
 128 TORSION  10  2  4 12               3.0507940     174.7976232
 129 TORSION  10  2  3 11               1.2807219      73.3799569
 130 TORSION  10  2  4 13              -1.1404129     -65.3408447
 131 TORSION  11  3  7 22               3.1269288     179.1598240
 132 TORSION  11  3  7 21               1.0320043      59.1294924
 133 TORSION  11  3  8 26               0.9395164      53.8303241
 134 TORSION  11  3  8 25              -1.1571014     -66.2970279
 135 TORSION  11  3  8 24               3.0267894     173.4222574
 136 TORSION  11  3  7 23              -1.0607237     -60.7749923

     ------------------------------------------
     THE POINT GROUP IS C1 , NAXIS= 1, ORDER= 1
     ------------------------------------------

     DIMENSIONS OF THE SYMMETRY SUBSPACES ARE
 A   =  260

 ..... DONE SETTING UP THE RUN .....
 STEP CPU TIME =     0.02 TOTAL CPU TIME =        0.0 (    0.0 MIN)
 TOTAL WALL CLOCK TIME=        0.0 SECONDS, CPU UTILIZATION IS  66.67%


          -----------------------------
          STATIONARY POINT LOCATION RUN
          -----------------------------

 OBTAINING INITIAL HESSIAN, HESS=GUESS   
 DIAGONAL GUESS HESSIAN IN INTERNAL COORDS IS
     1  0.3246     2  0.3732     3  0.3560     4  0.3717     5  0.3715
     6  0.3270     7  0.3540     8  0.3744     9  0.3744    10  0.3265
    11  0.3407    12  0.3401    13  0.3405    14  0.3408    15  0.3409
    16  0.3387    17  0.3408    18  0.3404    19  0.3407    20  0.3410
    21  0.3384    22  0.3411    23  0.3408    24  0.3413    25  0.3381
    26  0.2478    27  0.2238    28  0.2240    29  0.2241    30  0.2241
    31  0.2461    32  0.2240    33  0.2214    34  0.2241    35  0.2479
    36  0.2239    37  0.2212    38  0.2479    39  0.2239    40  0.2480
    41  0.2239    42  0.2478    43  0.2212    44  0.2242    45  0.2239
    46  0.2242    47  0.2242    48  0.2212    49  0.2476    50  0.2242
    51  0.2240    52  0.2227    53  0.2225    54  0.2495    55  0.2226
    56  0.2229    57  0.2499    58  0.2229    59  0.2025    60  0.2025
    61  0.2025    62  0.2024    63  0.2026    64  0.2024    65  0.2025
    66  0.2026    67  0.2025    68  0.2024    69  0.2026    70  0.2024
    71  0.2024    72  0.2024    73  0.2026    74  0.2500    75  0.2500
    76  0.2500    77  0.2500    78  0.2500    79  0.2500    80  0.2500
    81  0.2500    82  0.2500    83  0.2500    84  0.2500    85  0.2500
    86  0.2500    87  0.2500    88  0.2500    89  0.2500    90  0.2500
    91  0.2500    92  0.2500    93  0.2500    94  0.2500    95  0.2500
    96  0.2500    97  0.2500    98  0.2500    99  0.2500   100  0.2500
   101  0.2500   102  0.2500   103  0.2500   104  0.2500   105  0.2500
   106  0.2500   107  0.2500   108  0.2500   109  0.2500   110  0.2500
   111  0.2500   112  0.2500   113  0.2500   114  0.2500   115  0.2500
   116  0.2500   117  0.2500   118  0.2500   119  0.2500   120  0.2500
   121  0.2500   122  0.2500   123  0.2500   124  0.2500   125  0.2500
   126  0.2500   127  0.2500   128  0.2500   129  0.2500   130  0.2500
   131  0.2500   132  0.2500   133  0.2500   134  0.2500   135  0.2500
   136  0.2500
 TRANSFORMING HESSIAN TO SYMMETRY COORDINATES

          PARAMETERS CONTROLLING GEOMETRY SEARCH ARE
          METHOD =QA                  UPHESS =BFGS    
          NNEG   =         0          NFRZ   =         3
          NSTEP  =        50          IFOLOW =         1
          HESS   =GUESS               RESTAR =         F
          IHREP  =         0          HSSEND =         F
          NPRT   =         0          NPUN   =         0
          OPTTOL = 5.000E-04          RMIN   = 1.500E-03
          RMAX   = 1.000E-01          RLIM   = 7.000E-02
          DXMAX  = 3.000E-01          PURIFY =         F
          MOVIE  =         F          TRUPD  =         T
          TRMAX  = 5.000E-01          TRMIN  = 5.000E-02
          ITBMAT =         5          STPT   =         F
          STSTEP = 1.000E-02          PROJCT=          F
          FROZEN COORD(S)=   1   2   3


      ***** EQUILIBRIUM GEOMETRY LOCATED *****
            (SUBJECT TO   3 CONSTRAINT(S))
 COORDINATES OF ALL ATOMS ARE (ANGS)
   ATOM   CHARGE       X              Y              Z
 ------------------------------------------------------------
 C           6.0   4.0086891666   2.4954268940   2.3474291327
 C           6.0   3.0866906052   2.0216171017   1.1876783455
 C           6.0   1.6137756282   2.5075101015   1.3523863848
 C           6.0   3.1205852449   0.5033728842   0.9319301057
 C           6.0   4.4709529614   3.9429234759   2.1334940124
 C           6.0   5.2348291210   1.6178550652   2.6162437761
 C           6.0   1.4027194807   3.9805759948   0.9702167530
 C           6.0   1.0211345687   2.2336670338   2.7424016544
 H           1.0   3.4306703350   2.4661888013   3.2625510113
 H           1.0   3.4614180891   2.4731312907   0.2692713311
 H           1.0   1.0311192253   1.9281562488   0.6394636203
 H           1.0   2.8097237601  -0.0824736529   1.7925790928
 H           1.0   2.4607914086   0.2519754892   0.1051485062
 H           1.0   4.1165187568   0.1738784500   0.6530276714
 H           1.0   5.0333770839   4.3001502474   2.9906186306
 H           1.0   5.1073341949   4.0126003415   1.2539404695
 H           1.0   3.6461290934   4.6214622682   1.9861300141
 H           1.0   5.9053637549   1.5747271118   1.7616729336
 H           1.0   5.7878411186   2.0354963386   3.4537047200
 H           1.0   4.9581882216   0.6038829760   2.8841132829
 H           1.0   0.3435227055   4.2042978158   0.8857782934
 H           1.0   1.8037792181   4.6572080755   1.7143710373
 H           1.0   1.8746240588   4.2128062514   0.0190279091
 H           1.0   1.5169334532   2.8178252873   3.5109551696
 H           1.0  -0.0287218670   2.5104677746   2.7669764555
 H           1.0   1.0982856616   1.1868090857   3.0212296380


                     --------------------
                     INTERNAL COORDINATES
                     --------------------

                 - - ATOMS - -         COORDINATE      COORDINATE
 NO.   TYPE    I  J  K  L  M  N        (BOHR,RAD)       (ANG,DEG)
 ----------------------------------------------------------------
   1 STRETCH   1  9                     2.0461542       1.0827782
   2 STRETCH   1  6                     2.8943131       1.5316047
   3 STRETCH   1  2                     2.9394801       1.5555060
   4 STRETCH   1  5                     2.8997920       1.5345040
   5 STRETCH   2  4                     2.9101912       1.5400070
   6 STRETCH   2 10                     2.0595041       1.0898427
   7 STRETCH   2  3                     2.9474269       1.5597113
   8 STRETCH   3  8                     2.9020408       1.5356939
   9 STRETCH   3  7                     2.9033728       1.5363989
  10 STRETCH   3 11                     2.0557216       1.0878411
  11 STRETCH   4 14                     2.0512335       1.0854661
  12 STRETCH   4 13                     2.0545905       1.0872426
  13 STRETCH   4 12                     2.0532616       1.0865393
  14 STRETCH   5 16                     2.0557669       1.0878651
  15 STRETCH   5 15                     2.0515449       1.0856309
  16 STRETCH   5 17                     2.0374589       1.0781769
  17 STRETCH   6 20                     2.0496547       1.0846307
  18 STRETCH   6 19                     2.0541481       1.0870084
  19 STRETCH   6 18                     2.0543052       1.0870916
  20 STRETCH   7 23                     2.0539722       1.0869154
  21 STRETCH   7 22                     2.0461863       1.0827952
  22 STRETCH   7 21                     2.0519667       1.0858541
  23 STRETCH   8 26                     2.0524276       1.0860980
  24 STRETCH   8 25                     2.0522643       1.0860116
  25 STRETCH   8 24                     2.0507941       1.0852336
  26 BEND      1  2  4                  1.9944230     114.2720228
  27 BEND      1  5 17                  1.9630281     112.4732273
  28 BEND      1  5 15                  1.9351925     110.8783610
  29 BEND      1  6 18                  1.9590336     112.2443550
  30 BEND      1  6 19                  1.8990147     108.8055287
  31 BEND      1  2  3                  1.9672194     112.7133674
  32 BEND      1  5 16                  1.9276857     110.4482541
  33 BEND      1  2 10                  1.8737062     107.3554574
  34 BEND      1  6 20                  1.9549857     112.0124307
  35 BEND      2  3  7                  1.9846539     113.7122933
  36 BEND      2  4 13                  1.9186560     109.9308937
  37 BEND      2  3 11                  1.8449003     105.7050020
  38 BEND      2  3  8                  1.9871936     113.8578081
  39 BEND      2  4 12                  1.9754772     113.1865044
  40 BEND      2  1  6                  2.0162259     115.5212323
  41 BEND      2  4 14                  1.9413438     111.2308041
  42 BEND      2  1  5                  1.9411479     111.2195840
  43 BEND      2  1  9                  1.8812496     107.7876619
  44 BEND      3  7 23                  1.9421668     111.2779599
  45 BEND      3  8 24                  1.9484272     111.6366550
  46 BEND      3  8 25                  1.9263352     110.3708797
  47 BEND      3  8 26                  1.9571724     112.1377211
  48 BEND      3  2 10                  1.8594154     106.5366522
  49 BEND      3  2  4                  1.9235114     110.2090824
  50 BEND      3  7 21                  1.9293083     110.5412202
  51 BEND      3  7 22                  1.9576793     112.1667636
  52 BEND      4  2 10                  1.8347760     105.1249228
  53 BEND      5  1  9                  1.8798059     107.7049461
  54 BEND      5  1  6                  1.9005300     108.8923469
  55 BEND      6  1  9                  1.8375012     105.2810654
  56 BEND      7  3 11                  1.8483733     105.9039878
  57 BEND      7  3  8                  1.9210146     110.0660275
  58 BEND      8  3 11                  1.8666147     106.9491467
  59 BEND     12  4 13                  1.8797374     107.7010203
  60 BEND     12  4 14                  1.8779616     107.5992738
  61 BEND     13  4 14                  1.8662962     106.9308935
  62 BEND     15  5 17                  1.8725056     107.2866700
  63 BEND     15  5 16                  1.8904137     108.3127264
  64 BEND     16  5 17                  1.8720375     107.2598506
  65 BEND     18  6 19                  1.8829182     107.8832659
  66 BEND     18  6 20                  1.8905971     108.3232371
  67 BEND     19  6 20                  1.8740945     107.3777048
  68 BEND     21  7 22                  1.8608394     106.6182452
  69 BEND     21  7 23                  1.8875013     108.1458597
  70 BEND     22  7 23                  1.8829467     107.8848983
  71 BEND     24  8 25                  1.8633817     106.7639060
  72 BEND     24  8 26                  1.8802811     107.7321698
  73 BEND     25  8 26                  1.8844442     107.9707007
  74 TORSION   1  2  3 11              -2.9075248    -166.5888989
  75 TORSION   1  2  4 12               1.0477261      60.0302846
  76 TORSION   1  2  3  7               1.3554898      77.6638447
  77 TORSION   1  2  3  8              -0.8638211     -49.4933030
  78 TORSION   1  2  4 13              -3.1327859    -179.4954090
  79 TORSION   1  2  4 14              -1.0690735     -61.2533983
  80 TORSION   2  1  6 18               1.0772857      61.7239259
  81 TORSION   2  1  5 16              -1.1421921     -65.4427879
  82 TORSION   2  3  8 24               1.1617803      66.5651105
  83 TORSION   2  3  8 25              -3.0519109    -174.8616142
  84 TORSION   2  3  8 26              -0.9501467     -54.4393962
  85 TORSION   2  1  5 15               3.0453074     174.4832622
  86 TORSION   2  3  7 21               2.9180744     167.1933496
  87 TORSION   2  3  7 22              -1.2908684     -73.9613116
  88 TORSION   2  3  7 23               0.8203986      47.0053775
  89 TORSION   2  1  5 17               0.9486510      54.3537012
  90 TORSION   2  1  6 19              -3.1232928    -178.9514969
  91 TORSION   2  1  6 20              -1.0541295     -60.3971739
  92 TORSION   3  2  4 14               2.9779596     170.6245159
  93 TORSION   3  2  4 12              -1.1884261     -68.0918012
  94 TORSION   3  2  4 13               0.9142472      52.3825051
  95 TORSION   3  2  1  5              -1.4138418     -81.0071666
  96 TORSION   3  2  1  6               2.6917157     154.2239465
  97 TORSION   3  2  1  9               0.6430524      36.8441899
  98 TORSION   4  2  1  5               2.6556033     152.1548590
  99 TORSION   4  2  3  8               1.3871719      79.4790967
 100 TORSION   4  2  3 11              -0.6565318     -37.6164991
 101 TORSION   4  2  1  6               0.4779754      27.3859721
 102 TORSION   4  2  3  7              -2.6767025    -153.3637556
 103 TORSION   4  2  1  9              -1.5706878     -89.9937846
 104 TORSION   5  1  6 18              -1.1212354     -64.2420541
 105 TORSION   5  1  2 10               0.6283103      35.9995277
 106 TORSION   5  1  6 19               0.9613714      55.0825230
 107 TORSION   5  1  6 20               3.0305347     173.6368460
 108 TORSION   6  1  2 10              -1.5493176     -88.7693592
 109 TORSION   6  1  5 16               1.0990983      62.9736958
 110 TORSION   6  1  5 15              -0.9965874     -57.1002541
 111 TORSION   6  1  5 17              -3.0932438    -177.2298151
 112 TORSION   7  3  8 26               3.0811008     176.5340740
 113 TORSION   7  3  8 25               0.9793366      56.1118560
 114 TORSION   7  3  8 24              -1.0901574     -62.4614193
 115 TORSION   7  3  2 10              -0.6951174     -39.8272945
 116 TORSION   8  3  7 22               0.9624484      55.1442311
 117 TORSION   8  3  2 10              -2.9144283    -166.9844422
 118 TORSION   8  3  7 21              -1.1117941     -63.7011077
 119 TORSION   8  3  7 23               3.0737154     176.1109202
 120 TORSION   9  1  6 20               1.0188828      58.3776848
 121 TORSION   9  1  5 17              -1.1091166     -63.5477013
 122 TORSION   9  1  2 10               2.6852045     153.8508841
 123 TORSION   9  1  6 18              -3.1328872    -179.5012153
 124 TORSION   9  1  5 16               3.0832255     176.6558096
 125 TORSION   9  1  5 15               0.9875397      56.5818597
 126 TORSION   9  1  6 19              -1.0502805     -60.1766382
 127 TORSION  10  2  4 14               0.9806719      56.1883637
 128 TORSION  10  2  4 12               3.0974715     177.4720467
 129 TORSION  10  2  3 11               1.3250533      75.9199620
 130 TORSION  10  2  4 13              -1.0830405     -62.0536470
 131 TORSION  11  3  7 22               2.9741898     170.4085240
 132 TORSION  11  3  7 21               0.8999474      51.5631852
 133 TORSION  11  3  8 26               1.0809280      61.9326132
 134 TORSION  11  3  8 25              -1.0208362     -58.4896049
 135 TORSION  11  3  8 24              -3.0903302    -177.0628802
 136 TORSION  11  3  7 23              -1.1977285     -68.6247869

          INTERNUCLEAR DISTANCES (ANGS.)


 =====================================================
   GAMESS/COSab RESULTS
 =====================================================

   Dielectric Constant                  = INFTY
   Basic Grid Size                      =                 1082
   Number of Segments                   =                   92
   Number of Segments located on spheres=                  279
   Number of Segments of the cavity     =                  758
   Solvent Radius (rsolv)               = 1.40
   Outlying Charge Error Method         = double cavity

 =====================================================

  Total solvated Energy (a.u.)          =  -313.4975354151
  Total Energy corrected (a.u.)         =  -313.4974437287

  Outlying charge effect (a.u.)         =     0.0000916864
  Outlying charge effect (kcal/mol)     =     0.0575341345

  Dielectric Energy (a.u.)              =    -0.0015852255
  Dielectric energy corr. (a.u.)        =    -0.0014935391

  Sum of polarization charges           =     0.0301463090
  Sum of polarization charges(cor.)     =    -0.0301463090

  Total surface area of cavity (A**2)   =  175.74
  Total volume of cavity (A**3)         =  186.33

 =====================================================
 NPS=                   758
NR.  ATOM  (X, Y, Z)(a.u.)                  CHARGE(e)  AREA(A**2) SIGMA(e/A**2)
   1   1   8.372095   5.718742   7.991725   0.000033   0.046456   0.000717
   2   2   4.996229   3.628215  -1.436267   0.000036   0.046456   0.000772
   3   2   4.651330   3.930197  -1.343909   0.000042   0.046456   0.000908
   4   3  -0.606532   4.367338   1.672871   0.000045   0.046456   0.000958
   5   3   3.427435   4.635027  -1.203449   0.000045   0.046456   0.000976
   6   3   3.150948   4.258374  -1.191817   0.000068   0.046456   0.001458
   7   4   6.765263  -1.244552  -1.189991   0.002600   0.464561   0.005597
   8   4   3.882002  -2.180580   1.116437   0.001930   0.418105   0.004617
   9   4   7.302435  -2.526590   2.223524   0.001376   0.325193   0.004233
  10   4   8.210518   1.693395  -1.133943   0.000431   0.139368   0.003092
  11   4   5.867838   2.035853  -1.859259   0.000547   0.185824   0.002944
  12   4   6.969799   1.536609  -1.815319   0.000998   0.278737   0.003582
  13   4   7.107902   0.510594  -1.791911   0.001868   0.371649   0.005027
  14   4   7.091198  -2.328147   3.211579   0.001463   0.325193   0.004499
  15   4   3.746440  -2.128450   2.179066   0.001261   0.278737   0.004523
  16   4   6.505456  -0.148487  -1.803262   0.001075   0.232280   0.004627
  17   4   7.338118  -0.392759  -1.463991   0.000894   0.185824   0.004813
  18   4   2.415420  -0.509858   1.927751   0.001186   0.232280   0.005107
  19   4   2.921775  -1.371470   1.568545   0.001732   0.325193   0.005326
  20   4   4.908616  -2.690104   1.542247   0.001745   0.511017   0.003416
  21   4   6.328497  -2.798033   1.963755   0.001137   0.371649   0.003059
  22   4   7.925665  -2.076965   2.760568   0.000876   0.185824   0.004716
  23   4   5.154786  -2.406761   0.193571   0.001211   0.371649   0.003260
  24   4   5.996005  -1.925495  -0.688156   0.001090   0.278737   0.003910
  25   4   6.904257  -2.131024  -0.180400   0.001455   0.371649   0.003916
  26   4   7.108465  -2.554643   1.036181   0.001414   0.418105   0.003383
  27   4   6.210714   1.444303  -1.972897   0.000608   0.185824   0.003273
  28   4   7.731798   1.334623  -1.520809   0.000704   0.185824   0.003787
  29   4   5.597143  -2.756191   2.431394   0.000683   0.232280   0.002940
  30   4   2.830450  -1.171210   2.373877   0.000917   0.185824   0.004935
  31   4   6.052707  -2.632970   0.572206   0.001097   0.418105   0.002623
  32   5   8.194442  10.110100   1.357960   0.002222   0.418105   0.005314
  33   5   6.804391   8.451087   7.284391   0.000860   0.278737   0.003087
  34   5  11.495935   9.611179   3.454186   0.002098   0.418105   0.005017
  35   5   8.200664  11.118480   4.910721   0.001602   0.371649   0.004311
  36   5   8.629399  10.796406   5.781090   0.001433   0.325193   0.004406
  37   5  11.591756   9.515719   4.410816   0.001352   0.278737   0.004852
  38   5   7.484362   8.713339   7.461096   0.000749   0.232280   0.003224
  39   5   8.289949   9.396276   0.795193   0.000604   0.139368   0.004336
  40   5  12.225532   7.559557   3.935034   0.001284   0.232280   0.005527
  41   5  12.086005   8.458583   3.830660   0.002267   0.371649   0.006099
  42   5  10.657470  10.517858   3.998789   0.001622   0.464561   0.003491
  43   5   9.260455  11.125029   4.388809   0.001478   0.464561   0.003181
  44   5   7.482642  10.550764   5.966263   0.001969   0.371649   0.005299
  45   5   6.706824   9.275307   6.846258   0.000918   0.232280   0.003950
  46   5  10.529816  10.316653   2.711763   0.001428   0.418105   0.003417
  47   5   9.308785  10.483606   1.946428   0.001640   0.418105   0.003922
  48   5   8.263473  10.822988   2.334680   0.001501   0.418105   0.003590
  49   5   8.262046  11.203168   3.618200   0.000988   0.325193   0.003038
  50   5  10.039657  10.773158   4.878658   0.000877   0.278737   0.003145
  51   5  12.132199   7.973339   4.698504   0.000714   0.139368   0.005124
  52   5   7.662994   7.833106   7.708769   0.000373   0.139368   0.002677
  53   5   7.612860   9.857673   6.823409   0.001575   0.325193   0.004844
  54   5   9.511919  10.969656   3.152154   0.001264   0.464561   0.002722
  55   5   6.556968   9.768087   6.341766   0.000893   0.232280   0.003846
  56   6  11.243890   1.185309   7.936192   0.002362   0.418105   0.005650
  57   6  13.622917   3.207538   5.531298   0.002044   0.418105   0.004888
  58   6  11.830691  -0.175338   4.665925   0.001476   0.371649   0.003972
  59   6   8.002669   1.889216   8.001544   0.000694   0.232280   0.002988
  60   6   8.961706   3.554183   8.573186   0.000631   0.232280   0.002717
  61   6   8.694348   2.434980   8.474078   0.000752   0.232280   0.003238
  62   6   9.568011   1.682121   8.449384   0.001578   0.325193   0.004852
  63   6  12.426634   0.445645   3.923605   0.001116   0.278737   0.004004
  64   6  13.648585   3.237454   4.565958   0.001296   0.278737   0.004649
  65   6  12.731621   5.167704   3.613820   0.000157   0.046456   0.003389
  66   6  10.461660   1.930035   8.506202   0.001091   0.232280   0.004695
  67   6  10.227855   1.097894   8.158385   0.000917   0.185824   0.004936
  68   6  12.986384   5.224653   4.825075   0.001201   0.232280   0.005169
  69   6  13.410509   4.436321   5.018105   0.002193   0.371649   0.005902
  70   6  13.494814   1.927973   5.121434   0.001635   0.464561   0.003520
  71   6  12.762626   0.600280   5.039349   0.001118   0.371649   0.003007
  72   6  11.578055  -0.009015   3.515510   0.002027   0.371649   0.005454
  73   6  13.264513   2.151256   6.390418   0.001418   0.418105   0.003391
  74   6  12.379990   1.375328   7.238994   0.001634   0.418105   0.003908
  75   6  11.709293   0.460719   7.003319   0.001753   0.464561   0.003773
  76   6  12.002696   0.039385   5.794310   0.000895   0.278737   0.003211
  77   6   9.407420   2.746920   8.679307   0.000852   0.232280   0.003666
  78   6   8.538149   1.525034   8.122401   0.000692   0.185824   0.003726
  79   6  13.156903   1.262624   4.306472   0.000872   0.278737   0.003129
  80   6  13.163138   4.757061   4.108884   0.000634   0.139368   0.004552
  81   6  12.840397   0.978566   6.071994   0.001287   0.464561   0.002771
  82   7   4.574421  10.557523   0.662748   0.001126   0.232280   0.004848
  83   7   0.662081   6.419110  -1.185274   0.000978   0.278737   0.003508
  84   7   1.441295  10.926935   2.942112   0.001636   0.371649   0.004403
  85   7   1.717888  10.071302  -0.796394   0.001546   0.371649   0.004159
  86   7   0.708041   9.731114  -0.539480   0.001662   0.371649   0.004472
  87   7   0.516963  10.464101   2.870901   0.001211   0.278737   0.004344
  88   7   0.032452   6.966576  -0.834896   0.000658   0.185824   0.003543
  89   7   0.741768   9.239450   4.606710   0.001466   0.278737   0.005258
  90   7   0.862139  10.120997   3.914616   0.001949   0.371649   0.005244
  91   7   1.214713  11.017218   1.751014   0.001520   0.464561   0.003272
  92   7   1.499982  10.744828   0.228895   0.001444   0.464561   0.003108
  93   7   1.095140   8.899662  -1.323595   0.002087   0.371649   0.005616
  94   7   0.876721   7.188330  -1.487039   0.000985   0.232280   0.004240
  95   7   1.733066   6.347686  -1.639691   0.001334   0.371649   0.003588
  96   7   2.465847  11.292641   2.017154   0.001134   0.371649   0.003051
  97   7   3.738342  11.124497   1.480180   0.001640   0.464561   0.003531
  98   7   3.721106  10.850625   0.398127   0.001362   0.371649   0.003666
  99   7   2.648746  10.649532  -0.288816   0.001002   0.325193   0.003081
 100   7   0.734268  10.623576   0.837090   0.000815   0.278737   0.002923
 101   7   0.186448   9.341453   4.047421   0.000604   0.139368   0.004331
 102   7  -0.042766   6.151430  -0.435966   0.000642   0.232280   0.002763
 103   7   0.376733   8.074986  -1.134299   0.001615   0.325193   0.004967
 104   7   2.652388   5.853944  -1.557903   0.000168   0.092912   0.001811
 105   7   2.460681  11.172221   0.871469   0.001068   0.418105   0.002555
 106   7   1.325715   7.710223  -1.701126   0.001093   0.232280   0.004706
 107   8  -0.919594   2.151219   6.554249   0.002387   0.418105   0.005709
 108   8  -0.158266   5.603809   8.013074   0.001673   0.371649   0.004502
 109   8   2.163236   2.592391   8.584937   0.001516   0.371649   0.004079
 110   8   0.461060   1.154633   3.531707   0.000496   0.185824   0.002667
 111   8  -1.023655   2.833149   3.275556   0.000865   0.232280   0.003723
 112   8  -0.527361   1.799418   3.638638   0.000892   0.278737   0.003200
 113   8  -0.791263   1.623693   4.815283   0.001659   0.325193   0.005101
 114   8   2.819959   3.449516   8.773554   0.001643   0.371649   0.004420
 115   8   0.698399   6.161449   8.182895   0.001250   0.278737   0.004484
 116   8  -1.255475   2.196227   5.380977   0.001160   0.232280   0.004994
 117   8  -0.685822   1.549151   5.734370   0.000922   0.185824   0.004964
 118   8   0.345476   7.388445   6.502259   0.001168   0.232280   0.005028
 119   8   0.188028   6.777175   7.354274   0.001999   0.371649   0.005379
 120   8   0.524414   4.816907   8.639921   0.001582   0.464561   0.003404
 121   8   1.323203   3.477077   8.837945   0.001458   0.464561   0.003138
 122   8   3.415114   2.619686   8.266779   0.001371   0.278737   0.004920
 123   8  -0.495806   4.218003   8.080912   0.001196   0.371649   0.003219
 124   8  -0.799193   3.070544   7.530601   0.001601   0.418105   0.003829
 125   8  -0.134958   2.121742   7.551928   0.001761   0.464561   0.003790
 126   8   1.003696   2.360791   8.339361   0.000977   0.325193   0.003003
[...]
 499  24   4.500943   7.057106   7.838903  -0.000670   0.237976  -0.002814
 500  24   4.071797   7.593736   7.356903  -0.000556   0.237976  -0.002334
 501   5   5.900385   8.170858   7.102136   0.001360   0.699090   0.001946
 502   6   8.949585   4.599489   8.279690   0.000042   0.025648   0.001647
 503   9   8.259275   4.815254   8.204664   0.000037   0.025648   0.001439
 504  19   9.245047   4.647167   8.324772  -0.000026   0.025648  -0.001008
 505   6   6.477946   2.020521   6.999488   0.000283   0.227492   0.001244
 506   9   5.886249   2.415276   7.175915  -0.000319   0.227492  -0.001401
 507  26   4.869056   2.003449   6.919613   0.000473   0.227492   0.002080
 508   9   6.453575   2.664737   7.662251  -0.000182   0.164370  -0.001109
 509   9   7.086248   3.566391   8.244848  -0.000768   0.334432  -0.002296
 510   9   7.650292   4.670382   8.370284  -0.000159   0.164370  -0.000966
 511   6   7.562492   2.348252   7.881551   0.000800   0.453472   0.001763
 512   6   8.418612   3.783071   8.388071   0.000753   0.453472   0.001660
 513   6  11.159074   0.429414   2.446410   0.000325   0.084310   0.003860
 514  14  10.501430   0.095347   1.825719   0.000107   0.084310   0.001265
 515  18  11.307407   0.628754   2.267665  -0.000008   0.084310  -0.000093
 516   6  10.314610  -0.521695   3.597021   0.000238   0.085260   0.002786
 517  14   9.737000  -0.776965   2.868219   0.000194   0.085260   0.002281
 518  20  10.133308  -0.664132   3.796891   0.000011   0.085260   0.000126
 519  14  10.031342  -0.621280   1.856135  -0.000954   0.348179  -0.002741
 520   6  10.765298  -0.266984   3.048100   0.001896   0.492218   0.003852
 521   6  12.432550   5.361589   3.211277   0.000156   0.086926   0.001789
 522  16  12.060411   6.173347   2.772442   0.000301   0.086926   0.003468
 523  18  12.478647   5.174253   2.973519  -0.000047   0.086926  -0.000537
 524  16  12.117564   6.782517   2.653882   0.000053   0.020922   0.002544
 525   6  12.569238   5.548177   3.309504   0.000144   0.029710   0.004837
 526  18  12.973972   4.623167   3.167900  -0.000045   0.069934  -0.000639
 527  18  13.439596   3.686047   3.580538  -0.000101   0.155580  -0.000646
 528  18  13.448815   2.328905   3.656258  -0.000204   0.155580  -0.001309
 529  18  12.798400   1.225317   3.201606  -0.000239   0.155580  -0.001538
 530  18  11.973648   0.784201   2.576730  -0.000035   0.069934  -0.000500
 531   6  13.129091   4.457530   3.724886   0.000204   0.153016   0.001334
 532   6  13.529477   3.035528   4.110804   0.000150   0.153016   0.000979
 533   6  13.148679   1.574132   3.885761   0.000016   0.153016   0.000107
 534   6  12.147599   0.690835   3.144846   0.000056   0.153016   0.000366
 535  19   9.727258   4.363254   8.600533  -0.000087   0.069641  -0.001245
 536  19  10.220678   3.371434   8.769320  -0.000204   0.154798  -0.001319
 537  19  11.248951   2.528823   8.510512  -0.000153   0.154798  -0.000991
 538  19  12.398457   2.428821   7.801317  -0.000197   0.154798  -0.001275
 539  19  13.187280   3.113353   6.939056  -0.000210   0.154798  -0.001359
 540  19  13.284718   4.295438   6.285218  -0.000080   0.154798  -0.000517
 541  19  12.857059   5.307089   6.063117  -0.000044   0.069641  -0.000638
 542   6   9.520721   3.799934   8.582313  -0.000162   0.152498  -0.001066
 543   6  10.413677   2.568399   8.606814   0.000095   0.152498   0.000623
 544   6  11.706476   2.008834   8.032177   0.000063   0.152498   0.000412
 545   6  12.857130   2.355829   7.099310   0.000028   0.152498   0.000185
 546   6  13.383243   3.463912   6.199306   0.000057   0.152498   0.000374
 547   6  13.064249   4.868534   5.709478   0.000065   0.152498   0.000427
 548   6   6.859848   1.409576   6.785946   0.000164   0.158198   0.001038
 549  20   6.958320   1.131985   6.696066  -0.000139   0.158198  -0.000877
 550  26   5.290904   1.529132   6.508217   0.000383   0.158198   0.002419
 551  20  10.557961  -0.731026   4.394094  -0.000047   0.069210  -0.000673
 552  20  11.029601  -0.594391   5.398363  -0.000224   0.153873  -0.001454
 553  20  10.911020  -0.220444   6.691360  -0.000273   0.153873  -0.001773
 554  20  10.020834   0.259209   7.587597  -0.000127   0.153873  -0.000827
 555  20   8.731533   0.643859   7.712050  -0.000270   0.153873  -0.001752
 556  20   7.727702   0.793982   7.243589  -0.000132   0.069210  -0.001904
 557   6  11.064942  -0.465961   4.569559   0.000068   0.151498   0.000448
 558   6  11.411626  -0.177655   6.018885  -0.000009   0.151498  -0.000061
 559   6  10.812852   0.329017   7.318349   0.000048   0.151498   0.000318
 560   6   9.519173   0.842042   7.924200   0.000149   0.151498   0.000985
 561   6   8.071920   1.146748   7.582924  -0.000155   0.151498  -0.001021
 562  26   4.272938   1.383864   7.126003   0.000066   0.069249   0.000947
 563   6   6.701600   1.462625   7.217484   0.000412   0.109021   0.003783
 564   7   1.643127   8.792835   5.290047   0.000180   0.065664   0.002738
 565   8   1.543492   8.160670   5.818927   0.000239   0.065664   0.003645
 566  22   1.904161   8.941771   5.326967  -0.000036   0.065664  -0.000553
 567   7   0.059949   7.955505   4.859540   0.000238   0.067081   0.003545
 568   8  -0.114438   7.433476   5.481216   0.000180   0.067081   0.002684
 569  25  -0.378816   7.289738   5.435061  -0.000033   0.067081  -0.000489
 570   8   0.755388   7.816898   5.936731   0.001298   0.424644   0.003056
 571   7   0.666807   8.565828   4.972395   0.001221   0.424644   0.002876
 572   7  -0.365966   5.762343   0.345954   0.000099   0.032606   0.003024
 573  11  -0.211657   5.045412   0.368708   0.000081   0.032606   0.002480
 574  21  -0.535924   5.989180   0.451224  -0.000030   0.032606  -0.000931
 575  11   0.017183   4.545956  -0.062676  -0.000257   0.202881  -0.001269
 576  11   1.246369   4.460479  -0.913282  -0.000952   0.416996  -0.002283
 577   7   0.415635   5.603081  -0.526683   0.000994   0.554528   0.001792
 578   7   1.895897   5.468789  -1.356464   0.000711   0.286182   0.002483
 579   7   4.658901  10.794580   2.273332  -0.000118   0.063147  -0.001868
 580  17   5.460728  10.753256   2.700469  -0.000508   0.063147  -0.008053
 581  22   4.704100  10.833523   2.570217  -0.000272   0.063147  -0.004300
 582  17   6.258145  10.511080   2.118839  -0.001209   0.347402  -0.003480
 583   7   4.989094  10.631187   1.622755   0.001002   0.489048   0.002048
 584   7  -0.318844   8.203884   4.175650   0.000086   0.086275   0.000996
 585  21  -0.530681   8.204913   3.955348  -0.000001   0.086275  -0.000008
 586  25  -0.637136   7.438904   4.703980   0.000153   0.086275   0.001778
 587  21  -0.521134   8.882351   3.619251  -0.000019   0.069436  -0.000277
 588  21  -0.284666   9.750597   2.953546  -0.000145   0.154363  -0.000938
 589  21  -0.083397  10.232384   1.705437  -0.000244   0.154363  -0.001582
 590  21  -0.058827   9.858089   0.405552  -0.000261   0.154363  -0.001692
 591  21  -0.221250   8.784507  -0.401570  -0.000113   0.154363  -0.000734
 592  21  -0.502623   7.461379  -0.377813  -0.000223   0.154363  -0.001448
 593  21  -0.743841   6.543242   0.215288  -0.000070   0.069436  -0.001013
 594   7  -0.091229   9.299664   3.636157   0.000170   0.152020   0.001121
 595   7   0.202561  10.260019   2.495489   0.000090   0.152020   0.000593
 596   7   0.336620  10.323827   0.982982  -0.000023   0.152020  -0.000153
 597   7   0.254790   9.464358  -0.267752   0.000100   0.152020   0.000658
 598   7  -0.008650   8.041655  -0.732762   0.000140   0.152020   0.000919
 599   7  -0.343341   6.651709  -0.217250  -0.000082   0.152020  -0.000542
 600  22   4.130478  11.043829   2.543652  -0.000136   0.067695  -0.002015
 601  22   3.125895  11.173537   2.967124  -0.000341   0.149988  -0.002276
 602  22   2.186733  10.788293   3.823561  -0.000187   0.149988  -0.001248
 603  22   1.919354   9.900723   4.774692  -0.000235   0.149988  -0.001569
 604   7   3.598583  11.105411   2.290656  -0.000096   0.148658  -0.000647
 605   7   2.312540  11.038742   3.044375   0.000027   0.148658   0.000180
 606   7   1.597720  10.284658   4.115277   0.000126   0.148658   0.000850
 607   7   1.573445   9.394816   4.937455   0.000118   0.082704   0.001423
 608  23   3.228588   6.417396  -1.846132  -0.000112   0.072225  -0.001552
 609  23   2.480828   7.289279  -2.004231  -0.000229   0.161846  -0.001418
 610  23   2.188093   8.644493  -1.818576  -0.000141   0.161846  -0.000872
 611  23   2.735985   9.805616  -1.263258  -0.000265   0.161846  -0.001637
 612  23   3.877833  10.249886  -0.588295  -0.000315   0.161846  -0.001945
 613  23   4.913922   9.989045  -0.137959  -0.000063   0.072225  -0.000875
 614   7   2.629727   6.480303  -1.744535  -0.000094   0.156946  -0.000599
 615   7   1.858264   7.847855  -1.793372   0.000071   0.156946   0.000452
 616   7   2.010349   9.347705  -1.351718   0.000121   0.156946   0.000773
 617   7   3.017511  10.304592  -0.618416  -0.000052   0.156946  -0.000329
 618   7   4.426304  10.287705   0.076389  -0.000100   0.156946  -0.000636
 619  25  -0.695051   7.257108   5.373420   0.000035   0.108110   0.000319
 620   7  -0.202677   8.318181   4.512260   0.000503   0.153314   0.003282
 621   8   4.078208   3.833156   8.357191   0.000059   0.070380   0.000839
 622   9   4.940555   3.994726   8.269161  -0.000250   0.070380  -0.003548
 623  24   4.152067   4.119000   8.431986  -0.000180   0.070380  -0.002560
 624   8   4.295952   2.194031   7.373552   0.000164   0.048734   0.003366
 625   9   5.107790   2.530811   7.336758   0.000056   0.048734   0.001144
 626  26   4.145048   1.948033   7.281621   0.000019   0.048734   0.000383
 627   9   5.483816   3.398504   8.031318  -0.001466   0.380499  -0.003853
 628   8   4.287887   2.818280   7.904519   0.001598   0.534611   0.002989
 629  11   0.572183   1.671135   1.844120  -0.000131   0.194530  -0.000673
 630  11  -0.254824   2.827577   1.672185  -0.000717   0.398447  -0.001799
 631   8  -0.050424   1.999742   2.837094   0.001098   0.532968   0.002061
 632   8  -0.864926   3.394624   2.630578   0.000762   0.274314   0.002779
 633   8   1.940686   7.853330   6.437590   0.000090   0.086677   0.001037
 634  22   2.322848   8.527663   5.821144   0.000168   0.086677   0.001934
 635  24   2.173707   7.815009   6.631131  -0.000081   0.086677  -0.000934
 636  22   2.127112   9.101674   5.482655   0.000063   0.102050   0.000614
 637   8   1.634817   8.032475   6.352384   0.000506   0.144830   0.003491
 638  24   1.915910   7.500512   7.267555  -0.000068   0.067938  -0.001008
 639  24   1.568398   6.791828   8.030399  -0.000122   0.150406  -0.000809
 640  24   1.765606   5.688101   8.742094  -0.000234   0.150406  -0.001558
 641  24   2.623939   4.694920   8.943259  -0.000292   0.150406  -0.001941
 642  24   3.575577   4.203462   8.702879  -0.000092   0.067938  -0.001348
 643   8   1.397784   7.221139   7.342223   0.000177   0.149329   0.001186
 644   8   1.192777   6.111269   8.318067   0.000123   0.149329   0.000826
 645   8   1.818021   4.869177   8.858794  -0.000014   0.149329  -0.000095
 646   8   3.021822   3.994869   8.746734   0.000014   0.149329   0.000092
 647  25  -1.520053   3.987745   3.410909  -0.000048   0.071559  -0.000674
 648  25  -1.690168   3.264497   4.289962  -0.000174   0.160117  -0.001087
 649  25  -1.710218   3.066401   5.664764  -0.000164   0.160117  -0.001025
 650  25  -1.502873   3.746889   6.857941  -0.000246   0.160117  -0.001534
 651  25  -1.160173   5.003891   7.339840  -0.000273   0.160117  -0.001702
 652  25  -0.834244   6.279425   6.896547  -0.000156   0.160117  -0.000977
 653  25  -0.667716   6.990038   6.006569  -0.000084   0.071559  -0.001180
 654   8  -1.318511   3.427633   3.534370  -0.000073   0.155705  -0.000467
 655   8  -1.472517   2.720810   4.916615   0.000156   0.155705   0.001002
 656   8  -1.360973   3.008098   6.445976   0.000067   0.155705   0.000430
 657   8  -1.033394   4.161971   7.443567  -0.000040   0.155705  -0.000254
 658   8  -0.635192   5.670223   7.466559   0.000101   0.155705   0.000647
 659   8  -0.343129   6.863342   6.504745   0.000110   0.155705   0.000708
 660  26   3.565773   1.617160   7.555675  -0.000012   0.072651  -0.000168
 661  26   2.484759   1.654280   7.994214  -0.000317   0.163115  -0.001946
 662  26   1.105333   1.491795   7.765889  -0.000333   0.163115  -0.002043
 663  26   0.207665   1.151456   6.736468  -0.000256   0.163115  -0.001569
 664  26   0.201988   0.788799   5.376396  -0.000190   0.163115  -0.001167
 665  26   0.824219   0.577736   4.411736  -0.000127   0.072651  -0.001748
 666   8   3.258051   2.030133   7.886989   0.000082   0.157575   0.000521
 667   8   1.700859   1.986665   8.154727  -0.000095   0.157575  -0.000604
 668   8   0.342397   1.686691   7.404385  -0.000111   0.157575  -0.000704
 669   8  -0.196518   1.267300   5.978867   0.000134   0.157575   0.000849
 670   8   0.330398   0.920152   4.529637  -0.000012   0.157575  -0.000078
 671  19   9.357326   4.738066   8.502596   0.000053   0.007527   0.006975
 672   9   7.945930   4.991489   8.389442   0.000057   0.007527   0.007614
 673  24   4.288144   4.546362   8.641036  -0.000401   0.233259  -0.001719
 674  24   4.502002   5.844076   8.451649  -0.002607   0.467733  -0.005573
 675   9   5.510001   4.841692   8.460020  -0.002185   0.467733  -0.004671
 676   9   5.703660   6.118047   8.145254  -0.000624   0.233259  -0.002676
 677  26   4.184449   1.674963   7.339513   0.000109   0.035548   0.003068
 678   9   5.586157   2.459390   7.499066   0.000120   0.035548   0.003378
 679  10   8.953060   3.290301   0.090186   0.000431   0.332737   0.001296
 680  14   9.264735   2.318367   0.216662   0.000052   0.332737   0.000157
 681  18   9.999113   2.903744   0.740886   0.000202   0.332737   0.000607
 682  14   9.087427   2.088793  -0.315056   0.000098   0.028134   0.003478
 683  10   8.704405   3.470241  -0.531455   0.000097   0.028134   0.003434
 684  10   9.343551   4.820626   0.350402   0.000309   0.348898   0.000885
 685  16  10.069036   5.468222   0.737033  -0.000134   0.348898  -0.000384
 686  18  10.387697   4.433670   1.005978   0.000200   0.348898   0.000574
 687  10   7.131308   7.032897  -0.433722  -0.000368   0.329366  -0.001118
 688  16   7.807820   7.626035   0.092299   0.000973   0.329366   0.002955
 689  23   6.399107   7.716892  -0.454630   0.000352   0.329366   0.001068
 690  16   9.947897   6.149182   0.152407  -0.000045   0.291677  -0.000155
 691  16   9.149492   7.181127  -0.126407  -0.000221   0.583839  -0.000378
 692  10   8.672049   5.628147  -0.582596  -0.000486   0.583839  -0.000833
 693  10   7.817997   6.641200  -0.738857   0.000003   0.291677   0.000011
 694  18  10.620897   3.504677   0.682119   0.000172   0.299929   0.000572
 695  10   9.154325   4.194977  -0.211192   0.000504   0.299929   0.001682
 696  23   5.839783   7.786108  -1.273061  -0.000277   0.247822  -0.001116
 697  23   5.095553   7.029703  -1.812383  -0.000887   0.495824  -0.001789
 698  23   4.219077   6.225091  -1.848249   0.000036   0.247822   0.000143
 699  10   6.516542   6.464520  -1.358637  -0.000677   0.495824  -0.001366
 700  10   5.505996   5.491191  -1.717279  -0.000299   0.495824  -0.000603
 701  13   2.039980   0.180916   0.361596   0.000160   0.245245   0.000651
 702  13   2.265364   0.716697  -0.716096  -0.000975   0.490870  -0.001986
 703  13   3.114565   1.680334  -1.466839  -0.000918   0.490870  -0.001869
 704  11   1.248276   1.367842   0.253168  -0.000757   0.490870  -0.001543
 705  11   1.766318   2.172756  -0.885734  -0.000855   0.490870  -0.001743
 706  11   2.591646   2.996088  -1.260216   0.000090   0.245245   0.000367
 707  21  -0.836066   5.985685   0.651444   0.000361   0.202486   0.001784
 708  11  -0.465421   4.599655   0.617605   0.000357   0.202486   0.001765
 709  12   5.502247   0.288407   5.902604  -0.000879   0.332370  -0.002645
 710  20   6.458609   0.639451   6.190137   0.000328   0.332370   0.000986
 711  26   4.738723   0.897057   6.255719   0.000036   0.332370   0.000110
 712  20   7.224564   0.067684   6.639184  -0.000143   0.235371  -0.000606
 713  20   7.726273  -0.773379   6.180531  -0.000930   0.470631  -0.001976
 714  20   8.282264  -1.305066   5.420502  -0.000254   0.235371  -0.001078
 715  12   6.119841  -0.680134   5.830455  -0.000434   0.470631  -0.000922
 716  12   6.779905  -1.536806   5.069929   0.000090   0.470631   0.000190
 717  26   1.843198  -0.242404   4.776540  -0.000331   0.257159  -0.001287
 718  26   2.495565  -0.324796   5.770368  -0.001580   0.514393  -0.003072
 719  26   3.528630   0.272640   6.592173  -0.001262   0.514393  -0.002453
 720  12   3.103506  -1.062886   4.428112  -0.000715   0.514393  -0.001390
 721  12   4.026616  -0.885615   5.530818  -0.001436   0.514393  -0.002792
 722  12   4.877949  -0.207710   6.016351  -0.000306   0.257159  -0.001191
 723  18  11.499663   0.754867   1.871355   0.000390   0.250777   0.001556
 724  18  11.320606   1.583814   1.112830  -0.000256   0.501471  -0.000510
 725  18  10.831314   2.528282   0.708915  -0.000044   0.250777  -0.000174
 726  14  10.377113   0.217641   0.897412  -0.000999   0.501471  -0.001991
 727  14   9.960173   1.323960   0.172240  -0.000569   0.501471  -0.001134
 728  20   9.783754  -1.067182   4.020993   0.000242   0.232759   0.001039
 729  14   9.392838  -1.263879   2.630788   0.000256   0.232759   0.001098
 730  19  12.451418   6.033066   6.512800   0.000184   0.256559   0.000717
 731  19  11.854429   6.047212   7.554615  -0.000794   0.513245  -0.001546
 732  19  10.595863   5.767870   8.239024  -0.000677   0.513245  -0.001320
 733  15  11.798010   7.406933   6.649639  -0.000173   0.513245  -0.000337
 734  15  10.826537   7.305063   7.734213  -0.000760   0.513245  -0.001481
 735  15   9.709908   6.997985   8.051730   0.000019   0.256559   0.000075
 736  18  11.299678   4.344026   1.012802   0.000034   0.250902   0.000136
 737  18  12.130929   4.743461   1.624167  -0.000095   0.501600  -0.000190
 738  18  12.624477   5.097632   2.548973   0.000434   0.250902   0.001729
 739  16  11.152422   5.966720   0.916786  -0.000204   0.501600  -0.000408
 740  16  11.979143   6.436996   1.875411   0.000214   0.501600   0.000426
 741  23   6.208078   8.486248  -0.768147   0.000293   0.186383   0.001573
 742  16   8.276644   8.285220  -0.006100   0.000625   0.186383   0.003355
 743  22   4.366599  10.146653   5.208934  -0.001121   0.203025  -0.005520
 744  22   4.528831  10.823129   4.198089  -0.002625   0.406867  -0.006451
 745  22   4.709374  11.004579   2.997995  -0.000593   0.203025  -0.002922
 746  17   5.516376  10.412195   5.001024  -0.002303   0.406867  -0.005660
 747  17   5.730011  10.946897   3.623056  -0.002586   0.406867  -0.006357
 748  26   4.347098   1.060870   7.014011   0.000240   0.107632   0.002226
 749  20   6.952522   0.702231   6.941657   0.000279   0.107632   0.002597
 750  25  -1.180117   7.165697   4.945009   0.000105   0.241248   0.000436
 751  25  -1.734278   6.528039   4.261207  -0.000488   0.482339  -0.001012
 752  25  -1.743882   5.542013   3.371493  -0.000329   0.482339  -0.000683
 753  21  -1.190622   7.954308   3.559655   0.000031   0.482339   0.000064
 754  21  -1.624203   7.065255   2.673358  -0.000402   0.482339  -0.000834
 755  21  -1.412851   6.252508   1.983387   0.000063   0.241248   0.000262
 756  24   3.293090   7.957139   6.999363  -0.000097   0.237057  -0.000408
 757  24   2.493247   7.977742   6.892754   0.000274   0.237057   0.001156
 758  22   3.067643   9.059024   5.848003  -0.000337   0.473915  -0.000711
 =====================================================

              6157928  WORDS OF DYNAMIC MEMORY USED
 EXECUTION OF GAMESS TERMINATED NORMALLY Wed Nov 23 03:46:24 2016
 DDI: 263640 bytes (0.3 MB / 0 MWords) used by master data server.

 ----------------------------------------
 CPU timing information for all processes
 ========================================
 0: 3590.96 + 0.884 = 3590.980
 ----------------------------------------
 ddikick.x: exited gracefully.
