----- GAMESS execution script -----

          ******************************************************
          *         GAMESS VERSION =  5 DEC 2014 (R1)          *
          *             FROM IOWA STATE UNIVERSITY             *
          * M.W.SCHMIDT, K.K.BALDRIDGE, J.A.BOATZ, S.T.ELBERT, *
          *   M.S.GORDON, J.H.JENSEN, S.KOSEKI, N.MATSUNAGA,   *
          *          K.A.NGUYEN, S.J.SU, T.L.WINDUS,           *
          *       TOGETHER WITH M.DUPUIS, J.A.MONTGOMERY       *
          *         J.COMPUT.CHEM.  14, 1347-1363(1993)        *
          **************** 64 BIT LINUX VERSION ****************

 EXECUTION OF GAMESS BEGUN Wed Nov 23 02:50:07 2016

            ECHO OF THE FIRST FEW INPUT CARDS -
 INPUT CARD>! SELECT RESTRICTED HARTREE-FOCK AS DEFAULT                                     
 INPUT CARD>$contrl scftyp=rhf $end                                                         
 INPUT CARD>                                                                                
 INPUT CARD>! THEORY: HF OR DFT                                                             
 INPUT CARD> $contrl mplevl=0 $end                                                          
 INPUT CARD>                                                                                
 INPUT CARD> $system timlim=10000 mwords=20 $end                                            
 INPUT CARD> $SCF DIRSCF=.TRUE. $end                                                        
 INPUT CARD>                                                                                
 INPUT CARD>                                                                                
 INPUT CARD>! BASIS SETS                                                                    
 INPUT CARD>! 6-311G(d,p)                                                                   
 INPUT CARD> $BASIS GBASIS=N311 NGAUSS=6 NDFUNC=1 NPFUNC=1 $END                             
 INPUT CARD>                                                                                
 INPUT CARD>! One of the following                                                          
 INPUT CARD> $guess guess=HUCKEL $end                                                       
 INPUT CARD>                                                                                
 INPUT CARD> $statpt projct=.FALSE. $end                                                    
 INPUT CARD> $STATPT IFREEZ(1)=1,2,3 $END                                                   
 INPUT CARD>                                                                                
 INPUT CARD>! Optimize the geometry with COSMO effects                                      
 INPUT CARD> $statpt opttol=0.0005 nstep=50 $end                                            
 INPUT CARD> $contrl nzvar=1 $end                                                           
 INPUT CARD> $zmat dlc=.t. auto=.t. $end                                                    
 INPUT CARD> $contrl runtyp=OPTIMIZE maxit=200 $end                                         
 INPUT CARD>                                                                                
 INPUT CARD>! Run COSMO on perfect conductor                                                
 INPUT CARD> $COSGMS PRFCND=.TRUE. $end                                                     
 INPUT CARD>                                                                                
 INPUT CARD>! Specifying RSOLV                                                              
 INPUT CARD> $COSGMS COSRAD = 1.4 $end                                                      
 INPUT CARD>                                                                                
 INPUT CARD>! available memory                                                              
 INPUT CARD> $SYSTEM MWORDS=40 $END                                                         
 INPUT CARD>                                                                                
 INPUT CARD> $DATA                                                                          
 INPUT CARD>2,3-Benzofluorene, ID: C243174                                                  
 INPUT CARD>C1                                                                              
 INPUT CARD>C      6.0      4.6434000000    4.5659000000    1.0765000000                    
 INPUT CARD>C      6.0      3.3662000000    5.2702000000    1.1634000000                    
 INPUT CARD>C      6.0      5.6821000000    5.5504000000    0.9394000000                    
 INPUT CARD>C      6.0      4.9295000000    3.2326000000    1.1066000000                    
 INPUT CARD>C      6.0      3.6118000000    6.6612000000    1.0816000000                    
 INPUT CARD>C      6.0      2.0778000000    4.7832000000    1.3016000000                    
 INPUT CARD>C      6.0      5.0833000000    6.9293000000    0.9361000000                    
 INPUT CARD>C      6.0      6.9884000000    5.1802000000    0.8352000000                    
 INPUT CARD>C      6.0      6.2917000000    2.8244000000    0.9989000000                    
 INPUT CARD>C      6.0      2.5667000000    7.5634000000    1.1388000000                    
 INPUT CARD>C      6.0      1.0267000000    5.7014000000    1.3586000000                    
 INPUT CARD>C      6.0      7.3132000000    3.7904000000    0.8644000000                    
   40000000 WORDS OF MEMORY AVAILABLE

     BASIS OPTIONS
     -------------
     GBASIS=N311         IGAUSS=       6      POLAR=POPN311 
     NDFUNC=       1     NFFUNC=       0     DIFFSP=       F
     NPFUNC=       1      DIFFS=       F     BASNAM=        


     RUN TITLE
     ---------
 2,3-Benzofluorene, ID: C243174                                                  

 THE POINT GROUP OF THE MOLECULE IS C1      
 THE ORDER OF THE PRINCIPAL AXIS IS     0

 ATOM      ATOMIC                      COORDINATES (BOHR)
           CHARGE         X                   Y                   Z
 C           6.0     8.7747536514        8.6282998873        2.0342900258
 C           6.0     6.3611956199        9.9592339005        2.1985072141
 C           6.0    10.7376120348       10.4887351223        1.7752085929
 C           6.0     9.3154042565        6.1087282279        2.0911707780
 C           6.0     6.8253123225       12.5878427494        2.0439276283
 C           6.0     3.9264726573        9.0389373445        2.4596673456
 C           6.0     9.6060441134       13.0944782867        1.7689724971
 C           6.0    13.2061610926        9.7891585616        1.5782991449
 C           6.0    11.8895889969        5.3373420797        1.8876472891
 C           6.0     4.8503596927       14.2927535355        2.1520199548
 C           6.0     1.9401816716       10.7740837464        2.5673817269
 C           6.0    13.8199440934        7.1628173839        1.6334791438
 C           6.0    12.5453239147        2.7365122028        1.9377250278
 C           6.0     2.3944717990       13.3563943086        2.4163926205
 C           6.0    16.3691844508        6.3525028803        1.4337351069
 C           6.0    15.0202980408        2.0049992730        1.7413824977
 C           6.0    16.9508421099        3.8306635497        1.4866474345
 H           1.0     7.8230876440        4.6867094221        2.2882691985
 H           1.0     3.5725269798        7.0042693735        2.5777752199
 H           1.0    10.3381239610       14.2598723033        3.3412245189
 H           1.0    10.0340670496       14.1207884707        0.0000000000
 H           1.0    14.7183198280       11.1883116829        1.3802558614
 H           1.0     5.1978803018       16.3276104791        2.0333451628
 H           1.0     0.0000000000       10.0850896513        2.7737398048
 H           1.0    11.0388343573        1.3294222324        2.1357683113
 H           1.0     0.8080468323       14.6822260616        2.5050207693
 H           1.0    17.8590444196        7.7771673025        1.2364477138
 H           1.0    15.5290122767        0.0000000000        1.7795549626
 H           1.0    18.9165350823        3.2030855492        1.3330127117

          INTERNUCLEAR DISTANCES (ANGS.)




     $CONTRL OPTIONS
     ---------------
 SCFTYP=RHF          RUNTYP=OPTIMIZE     EXETYP=RUN     
 MPLEVL=       0     CITYP =NONE         CCTYP =NONE         VBTYP =NONE    
 DFTTYP=NONE         TDDFT =NONE    
 MULT  =       1     ICHARG=       0     NZVAR =       1     COORD =UNIQUE  
 PP    =NONE         RELWFN=NONE         LOCAL =NONE         NUMGRD=       F
 ISPHER=      -1     NOSYM =       0     MAXIT =     200     UNITS =ANGS    
 PLTORB=       F     MOLPLT=       F     AIMPAC=       F     FRIEND=        
 NPRINT=       7     IREST =       0     GEOM  =INPUT   
 NORMF =       0     NORMP =       0     ITOL  =      20     ICUT  =       9
 INTTYP=BEST         GRDTYP=BEST         QMTTOL= 1.0E-06

     $SYSTEM OPTIONS
     ---------------
  REPLICATED MEMORY=    40000000 WORDS (ON EVERY NODE).
 DISTRIBUTED MEMDDI=           0 MILLION WORDS IN AGGREGATE,
 MEMDDI DISTRIBUTED OVER   1 PROCESSORS IS           0 WORDS/PROCESSOR.
 TOTAL MEMORY REQUESTED ON EACH PROCESSOR=    40000000 WORDS.
 TIMLIM=       10000.00 MINUTES, OR       6.9 DAYS.
 PARALL= F  BALTYP=  DLB     KDIAG=    0  COREFL= F
 MXSEQ2=     300 MXSEQ3=     150  mem10=         0

     $COSGMS OPTIONS
     ---------------
     EPSI  =   INFTY     NSPA  =      92     COSRAD=    1.40
     DISEX =   10.00     OUTCHG=DBLCAV       COSBUG=       F
     COSWRT=       F     DCOSMO=       F

     SYMMETRY COORDINATES WILL NOT BE USED FOR 
     THE COSMO CALCULATION, EVEN IF SPECIFIED:
         -- SWITCHING TO C1 POINT GROUP --


     DEFINITION OF CAVITY
     ---------------------------
     ATOM         COORDINATES           RADIUS 
     1    8.7748    8.6283    2.0343    2.0000
     2    6.3612    9.9592    2.1985    2.0000
     3   10.7376   10.4887    1.7752    2.0000
     4    9.3154    6.1087    2.0912    2.0000
     5    6.8253   12.5878    2.0439    2.0000
     6    3.9265    9.0389    2.4597    2.0000
     7    9.6060   13.0945    1.7690    2.0000
     8   13.2062    9.7892    1.5783    2.0000
     9   11.8896    5.3373    1.8876    2.0000
    10    4.8504   14.2928    2.1520    2.0000
    11    1.9402   10.7741    2.5674    2.0000
    12   13.8199    7.1628    1.6335    2.0000
    13   12.5453    2.7365    1.9377    2.0000
    14    2.3945   13.3564    2.4164    2.0000
    15   16.3692    6.3525    1.4337    2.0000
    16   15.0203    2.0050    1.7414    2.0000
    17   16.9508    3.8307    1.4866    2.0000
    18    7.8231    4.6867    2.2883    1.3000
    19    3.5725    7.0043    2.5778    1.3000
    20   10.3381   14.2599    3.3412    1.3000
    21   10.0341   14.1208    0.0000    1.3000
    22   14.7183   11.1883    1.3803    1.3000
    23    5.1979   16.3276    2.0333    1.3000
    24    0.0000   10.0851    2.7737    1.3000
    25   11.0388    1.3294    2.1358    1.3000
    26    0.8080   14.6822    2.5050    1.3000
    27   17.8590    7.7772    1.2364    1.3000
    28   15.5290    0.0000    1.7796    1.3000
    29   18.9165    3.2031    1.3330    1.3000

          ----------------
          PROPERTIES INPUT
          ----------------

     MOMENTS            FIELD           POTENTIAL          DENSITY
 IEMOM =       1   IEFLD =       0   IEPOT =       0   IEDEN =       0
 WHERE =COMASS     WHERE =NUCLEI     WHERE =NUCLEI     WHERE =NUCLEI  
 OUTPUT=BOTH       OUTPUT=BOTH       OUTPUT=BOTH       OUTPUT=BOTH    
 IEMINT=       0   IEFINT=       0                     IEDINT=       0
                                                       MORB  =       0
          EXTRAPOLATION IN EFFECT
          SOSCF IN EFFECT
 ORBITAL PRINTING OPTION: NPREO=     1   395     2     1

     -------------------------------
     INTEGRAL TRANSFORMATION OPTIONS
     -------------------------------
     NWORD  =            0
     CUTOFF = 1.0E-09     MPTRAN =       0
     DIRTRF =       T     AOINTS =DUP     

          ----------------------
          INTEGRAL INPUT OPTIONS
          ----------------------
 NOPK  =       1 NORDER=       0 SCHWRZ=       T


 -----------------------------------------------
  STATISTICS ON AUTOMATIC COORDINATE GENERATION 
 -----------------------------------------------
  NUMBER OF USER SPECIFIED BONDS                             0
  NUMBER OF BONDS                                           32
  NUMBER OF ANGLES                                          54
  NUMBER OF TORSIONS                                        84
  NUMBER OF EXTRA COORD.                                     0
  NUMBER OF EXTRA COORD. FOR CONSTRAINTS                     0
  NUMBER OF CONSTRAINED COORD.                               0

  TOTAL NUMBER OF PRIMITIVES                               170
 -----------------------------------------------

   --- ENCODED Z MATRIX ---
 COORD  TYPE   I   J   K   L   M   N
    1      1    1   2
    2      1    1   3
    3      1    1   4
    4      1    2   5
    5      1    2   6
    6      1    3   7
    7      1    3   8
    8      1    4  18
    9      1    4   9
   10      1    5  10
   11      1    5   7
   12      1    6  11
   13      1    6  19
   14      1    7  20
   15      1    7  21
   16      1    8  12
   17      1    8  22
   18      1    9  13
   19      1    9  12
   20      1   10  14
   21      1   10  23
   22      1   11  24
   23      1   11  14
   24      1   12  15
   25      1   13  25
   26      1   13  16
   27      1   14  26
   28      1   15  27
   29      1   15  17
   30      1   16  28
   31      1   16  17
   32      1   17  29
   33      2    1   2   6
   34      2    1   3   7
   35      2    1   3   8
   36      2    1   2   5
   37      2    1   4  18
   38      2    1   4   9
   39      2    2   1   3
   40      2    2   1   4
   41      2    2   6  19
   42      2    2   5   7
   43      2    2   6  11
   44      2    2   5  10
   45      2    3   1   4
   46      2    3   8  12
   47      2    3   8  22
   48      2    3   7  21
   49      2    3   7  20
   50      2    3   7   5
   51      2    4   9  13
   52      2    4   9  12
   53      2    5   7  21
   54      2    5  10  23
   55      2    5  10  14
   56      2    5   7  20
   57      2    5   2   6
   58      2    6  11  24
   59      2    6  11  14
   60      2    7   3   8
   61      2    7   5  10
   62      2    8  12  15
   63      2    8  12   9
   64      2    9   4  18
   65      2    9  12  15
   66      2    9  13  16
   67      2    9  13  25
   68      2   10  14  26
   69      2   10  14  11
   70      2   11   6  19
   71      2   11  14  26
   72      2   12  15  17
   73      2   12  15  27
   74      2   12   9  13
   75      2   12   8  22
   76      2   13  16  17
   77      2   13  16  28
   78      2   14  11  24
   79      2   14  10  23
   80      2   15  17  29
   81      2   15  17  16
   82      2   16  17  29
   83      2   16  13  25
   84      2   17  16  28
   85      2   17  15  27
   86      2   20   7  21
   87      3    1   3   7   5
   88      3    1   2   6  11
   89      3    1   3   8  22
   90      3    1   3   8  12
   91      3    1   4   9  12
   92      3    1   4   9  13
   93      3    1   2   6  19
   94      3    1   3   7  21
   95      3    1   2   5   7
   96      3    1   3   7  20
   97      3    1   2   5  10
   98      3    2   5  10  23
   99      3    2   5  10  14
  100      3    2   6  11  14
  101      3    2   6  11  24
  102      3    2   1   3   7
  103      3    2   1   4   9
  104      3    2   1   3   8
  105      3    2   5   7  21
  106      3    2   5   7  20
  107      3    2   1   4  18
  108      3    2   5   7   3
  109      3    3   1   2   5
  110      3    3   8  12  15
  111      3    3   8  12   9
  112      3    3   1   4   9
  113      3    3   1   4  18
  114      3    3   1   2   6
  115      3    3   7   5  10
  116      3    4   1   2   5
  117      3    4   1   3   7
  118      3    4   1   3   8
  119      3    4   1   2   6
  120      3    4   9  12  15
  121      3    4   9  12   8
  122      3    4   9  13  16
  123      3    4   9  13  25
  124      3    5   7   3   8
  125      3    5   2   6  11
  126      3    5  10  14  26
  127      3    5  10  14  11
  128      3    5   2   6  19
  129      3    6  11  14  26
  130      3    6  11  14  10
  131      3    6   2   5  10
  132      3    6   2   5   7
  133      3    7   3   8  22
  134      3    7   3   8  12
  135      3    7   5  10  14
  136      3    7   5  10  23
  137      3    8   3   7  20
  138      3    8   3   7  21
  139      3    8  12   9  13
  140      3    8  12  15  17
  141      3    8  12  15  27
  142      3    9  13  16  17
  143      3    9  13  16  28
  144      3    9  12  15  17
  145      3    9  12  15  27
  146      3    9  12   8  22
  147      3   10   5   7  20
  148      3   10   5   7  21
  149      3   10  14  11  24
  150      3   11  14  10  23
  151      3   12   9  13  25
  152      3   12   9  13  16
  153      3   12   9   4  18
  154      3   12  15  17  29
  155      3   12  15  17  16
  156      3   13   9  12  15
  157      3   13  16  17  29
  158      3   13  16  17  15
  159      3   13   9   4  18
  160      3   14  11   6  19
  161      3   15  12   8  22
  162      3   15  17  16  28
  163      3   16  17  15  27
  164      3   17  16  13  25
  165      3   19   6  11  24
  166      3   23  10  14  26
  167      3   24  11  14  26
  168      3   25  13  16  28
  169      3   27  15  17  29
  170      3   28  16  17  29

          INDEP./SYM. INTERNAL COORDINATES
          --------------------------------
 CRD  1=  -0.2941 (  1) -0.2344 (  3) -0.1178 (  5)  0.1733 (  6)  0.1640 (  7)
          -0.2484 (  9)  0.1704 ( 11) -0.1290 ( 12)  0.1945 ( 16) -0.1111 ( 18)
           0.1030 ( 20) -0.1134 ( 26) -0.2483 ( 33) -0.1262 ( 34) -0.1327 ( 35)
           0.1472 ( 39) -0.3082 ( 40) -0.1480 ( 44)  0.1610 ( 45) -0.2046 ( 51)
           0.1789 ( 57)  0.2589 ( 60)  0.2111 ( 61)  0.1870 ( 62) -0.1492 ( 65)
           0.1633 ( 74)
 CRD  2=  -0.1300 ( 87)  0.2134 ( 88)  0.1455 ( 90)  0.1415 ( 91)  0.2492 ( 92)
           0.1241 ( 93) -0.1497 ( 97) -0.3406 (103)  0.1668 (104) -0.1358 (107)
           0.1335 (108) -0.2864 (110) -0.1910 (111) -0.1904 (112) -0.1219 (114)
           0.1999 (115)  0.1389 (116)  0.1425 (120) -0.1889 (122) -0.2228 (124)
           0.2472 (134) -0.1059 (135)  0.1338 (140)
 CRD  3=   0.3303 (  1)  0.2109 (  5)  0.1587 (  6)  0.3423 (  7)  0.1087 (  9)
           0.1335 ( 10)  0.1307 ( 12)  0.2516 ( 16)  0.3174 ( 24)  0.1528 ( 29)
           0.1933 ( 33) -0.1208 ( 34)  0.1479 ( 38) -0.1549 ( 45)  0.1227 ( 50)
          -0.1228 ( 51) -0.1468 ( 57)  0.3027 ( 62) -0.1810 ( 63) -0.1150 ( 64)
          -0.1217 ( 65)  0.1012 ( 66) -0.1162 ( 85)
 CRD  4=  -0.2595 (  3) -0.2605 (  6) -0.2173 (  9) -0.2694 ( 10) -0.1642 ( 11)
          -0.3206 ( 18) -0.1055 ( 20) -0.1560 ( 26)  0.1878 ( 33)  0.1603 ( 35)
          -0.1762 ( 36)  0.1388 ( 42) -0.1194 ( 46) -0.3250 ( 51)  0.2110 ( 52)
          -0.1058 ( 54) -0.1297 ( 60) -0.2198 ( 61)  0.1489 ( 62) -0.1156 ( 63)
          -0.1072 ( 67) -0.1019 ( 72)  0.1140 ( 74)  0.1149 ( 75)  0.1107 ( 83)
 CRD  5=  -0.1159 ( 87) -0.1011 ( 89) -0.1521 ( 90) -0.1455 ( 91) -0.1525 ( 92)
           0.1511 ( 95)  0.1322 ( 97) -0.1152 ( 99)  0.2096 (102)  0.1951 (104)
          -0.1057 (107) -0.2223 (109) -0.1105 (113) -0.2142 (114) -0.2266 (116)
           0.2134 (117)  0.1989 (118) -0.2185 (119)  0.1455 (120)  0.1898 (121)
          -0.1003 (123)  0.1250 (131)  0.1439 (132) -0.1187 (133) -0.1698 (134)
          -0.1380 (135) -0.1026 (136)  0.1967 (139) -0.1535 (140) -0.1337 (141)
          -0.1090 (144) -0.1073 (151)  0.1524 (156)  0.1029 (158)
 CRD  6=   0.1143 (  1)  0.1593 (  5) -0.1976 (  6)  0.3208 ( 10)  0.3814 ( 11)
          -0.2604 ( 16) -0.2086 ( 18)  0.1907 ( 20)  0.1405 ( 35) -0.1239 ( 42)
          -0.1754 ( 44) -0.1391 ( 45) -0.1386 ( 48) -0.1385 ( 49)  0.1250 ( 52)
          -0.1409 ( 60)  0.2993 ( 61)  0.1276 ( 65) -0.1078 ( 70) -0.1387 ( 79)
 CRD  7=  -0.1517 (  2)  0.1645 (  3) -0.3288 (  5) -0.2206 (  7)  0.1590 ( 10)
          -0.1097 ( 11)  0.1135 ( 16)  0.1218 ( 24)  0.1157 ( 29) -0.1649 ( 33)
           0.1418 ( 34)  0.1881 ( 36)  0.1791 ( 37) -0.1971 ( 39)  0.2324 ( 40)
          -0.1354 ( 41) -0.1829 ( 42) -0.2651 ( 47) -0.1305 ( 51)  0.1253 ( 54)
          -0.1230 ( 55) -0.1088 ( 58) -0.2223 ( 60)  0.1060 ( 61)  0.1993 ( 62)
          -0.1110 ( 63) -0.1362 ( 64)  0.1015 ( 70)  0.2121 ( 75)
 CRD  8=  -0.1295 (  1) -0.1350 (  2) -0.2533 (  3) -0.2083 (  6)  0.3403 (  9)
           0.1101 ( 18)  0.1825 ( 19)  0.3021 ( 24)  0.1239 ( 26)  0.1401 ( 35)
          -0.3111 ( 37) -0.1107 ( 40) -0.1705 ( 47)  0.1608 ( 51)  0.1004 ( 57)
          -0.1143 ( 60)  0.1148 ( 62) -0.1611 ( 63)  0.3326 ( 64)  0.1314 ( 73)
          -0.1625 ( 74)  0.1453 ( 75) -0.1031 ( 84) -0.1366 ( 85)
 CRD  9=  -0.1120 (  2) -0.1014 (  3) -0.1739 (  4) -0.2834 (  5)  0.2007 (  7)
          -0.2360 ( 11) -0.2173 ( 16) -0.1996 ( 18) -0.2029 ( 34)  0.1135 ( 36)
          -0.1540 ( 41) -0.1598 ( 42)  0.1674 ( 44)  0.2087 ( 47)  0.2313 ( 50)
           0.1024 ( 52) -0.1454 ( 53) -0.1454 ( 56)  0.1845 ( 60)  0.1610 ( 65)
          -0.1113 ( 67) -0.1238 ( 69)  0.1247 ( 70) -0.1158 ( 74) -0.2380 ( 75)
          -0.1085 ( 81)  0.1182 ( 86)
 CRD 10=  -0.1243 ( 14)  0.1240 ( 15)  0.1327 ( 87) -0.2206 ( 88)  0.1006 ( 90)
           0.1219 ( 91)  0.2019 ( 92) -0.1701 ( 93)  0.1854 ( 95)  0.2085 ( 97)
          -0.1123 ( 98) -0.1941 (108) -0.1502 (110) -0.2197 (115) -0.1124 (116)
          -0.1767 (122)  0.1351 (124) -0.1790 (125) -0.1235 (126) -0.1385 (127)
          -0.1284 (128)  0.1189 (129)  0.1339 (130)  0.1751 (131)  0.1520 (132)
          -0.1184 (139)  0.2218 (140)  0.1109 (141)  0.1350 (142)  0.1638 (143)
           0.1443 (144) -0.1091 (147) -0.1092 (148) -0.1545 (154) -0.1097 (155)
           0.1330 (159)
 CRD 11=  -0.1119 (  1)  0.1291 (  2)  0.1380 (  3)  0.1915 (  4)  0.2374 (  6)
           0.1698 (  8) -0.2334 ( 12) -0.1018 ( 16) -0.1551 ( 17) -0.2308 ( 18)
           0.2424 ( 24) -0.1433 ( 27) -0.1005 ( 30)  0.1133 ( 32)  0.1336 ( 34)
          -0.1088 ( 35)  0.1201 ( 37) -0.1236 ( 38)  0.1816 ( 41)  0.1210 ( 42)
           0.1688 ( 46)  0.1128 ( 48)  0.1127 ( 49) -0.2009 ( 50)  0.1514 ( 52)
          -0.1123 ( 63)  0.1051 ( 65) -0.1315 ( 67)  0.1410 ( 69) -0.1099 ( 71)
          -0.1328 ( 74) -0.1621 ( 75)  0.1210 ( 76)  0.1143 ( 80) -0.1561 ( 81)
          -0.1080 ( 86)
 CRD 12=  -0.1243 (  2) -0.2170 ( 19)  0.2965 ( 26)  0.3020 ( 29)  0.2175 ( 30)
           0.3808 ( 31)  0.2215 ( 32)  0.1076 ( 46) -0.1014 ( 47)  0.1318 ( 66)
          -0.2967 ( 67)  0.1280 ( 72) -0.2947 ( 73) -0.1655 ( 76) -0.1706 ( 81)
           0.1980 ( 82)  0.1649 ( 83)  0.2003 ( 84)  0.1667 ( 85)
 CRD 13=  -0.1195 (  3) -0.1026 ( 11) -0.1918 ( 12) -0.3576 ( 20) -0.2311 ( 22)
          -0.4427 ( 23) -0.1782 ( 27)  0.1023 ( 31)  0.2099 ( 41)  0.1023 ( 50)
           0.3141 ( 54)  0.1666 ( 59) -0.1165 ( 70) -0.1528 ( 71) -0.2653 ( 78)
          -0.2279 ( 79)
 CRD 14=   0.3753 ( 12)  0.1168 ( 13) -0.3161 ( 20) -0.1008 ( 26) -0.2372 ( 41)
           0.2069 ( 54)  0.2939 ( 58) -0.1174 ( 59) -0.3186 ( 68)  0.1028 ( 69)
           0.3213 ( 70)  0.2158 ( 71) -0.1765 ( 78) -0.3011 ( 79)  0.1117 ( 80)
 CRD 15=  -0.3454 ( 26)  0.1149 ( 28)  0.3533 ( 29)  0.2362 ( 67)  0.1025 ( 68)
          -0.2296 ( 73)  0.1052 ( 76) -0.3137 ( 77)  0.2897 ( 80) -0.1912 ( 82)
          -0.3155 ( 83)  0.2085 ( 84)  0.3250 ( 85)
 CRD 16=   0.1731 (  2)  0.1879 (  8)  0.1311 ( 17)  0.3848 ( 19)  0.1083 ( 24)
           0.2196 ( 25)  0.2272 ( 28)  0.4752 ( 31) -0.1265 ( 38) -0.1104 ( 51)
          -0.1013 ( 62) -0.1464 ( 66) -0.1522 ( 72)  0.1417 ( 73) -0.2552 ( 77)
          -0.2505 ( 80)  0.1955 ( 82)  0.1683 ( 84)
 CRD 17=   0.1126 ( 53) -0.1126 ( 56) -0.1901 ( 88) -0.1020 ( 94) -0.1019 ( 96)
           0.1989 ( 99)  0.1753 (100)  0.1975 (101)  0.1136 (107) -0.1933 (110)
          -0.1565 (111)  0.1769 (114)  0.1913 (120)  0.1551 (121) -0.1476 (122)
          -0.1378 (123) -0.1753 (126) -0.1191 (127) -0.1622 (132)  0.2809 (135)
           0.1567 (136)  0.1619 (139) -0.1309 (145) -0.1341 (146) -0.1447 (151)
          -0.1545 (152) -0.1076 (155)  0.1982 (156)  0.1272 (157)  0.1542 (158)
          -0.1708 (161)  0.1092 (162)
 CRD 18=   0.2415 (  4)  0.1157 (  5)  0.1308 ( 10) -0.1022 ( 12)  0.2116 ( 13)
          -0.1057 ( 20)  0.2156 ( 21)  0.4211 ( 23)  0.2558 ( 41) -0.1707 ( 43)
           0.2502 ( 54) -0.1746 ( 55) -0.3367 ( 58)  0.1072 ( 59) -0.3140 ( 68)
           0.2374 ( 71)  0.2296 ( 78)
 CRD 19=   0.1191 (  2)  0.1278 (  8)  0.1207 ( 17)  0.1660 ( 19)  0.1330 ( 25)
           0.2798 ( 26)  0.1336 ( 28)  0.2777 ( 29) -0.1043 ( 66) -0.1573 ( 67)
          -0.1048 ( 72) -0.1538 ( 73)  0.2937 ( 77)  0.2955 ( 80) -0.3440 ( 82)
           0.2616 ( 83) -0.3463 ( 84)  0.2586 ( 85)
 CRD 20=   0.2212 (  4)  0.2429 ( 12)  0.2803 ( 13)  0.2360 ( 20)  0.2784 ( 21)
          -0.2468 ( 43)  0.1338 ( 44) -0.2461 ( 55)  0.1128 ( 57)  0.1915 ( 58)
           0.1344 ( 59)  0.2054 ( 68)  0.1118 ( 69)  0.2470 ( 70) -0.3172 ( 71)
          -0.3259 ( 78)  0.2536 ( 79)
 CRD 21=  -0.2467 (  2) -0.2708 (  8) -0.1071 (  9) -0.1036 ( 16) -0.2997 ( 17)
           0.2314 ( 25)  0.2342 ( 28)  0.1038 ( 31) -0.1218 ( 35) -0.1034 ( 37)
           0.2412 ( 38)  0.2653 ( 46) -0.1239 ( 47) -0.1413 ( 52) -0.1489 ( 63)
          -0.1378 ( 64)  0.1380 ( 65) -0.2577 ( 66)  0.1587 ( 67) -0.2592 ( 72)
           0.1717 ( 73)  0.1316 ( 74) -0.1414 ( 75)  0.1325 ( 76)  0.1148 ( 81)
          -0.1138 ( 82) -0.1223 ( 84)
 CRD 22=  -0.1053 (  3) -0.1131 (  7)  0.1729 ( 10)  0.1346 ( 11)  0.1697 ( 12)
           0.1808 ( 13) -0.1658 ( 21) -0.2844 ( 22)  0.3925 ( 27)  0.1030 ( 41)
          -0.1014 ( 47) -0.1070 ( 50)  0.1798 ( 55) -0.1078 ( 57) -0.1578 ( 58)
           0.3214 ( 59)  0.1199 ( 64)  0.1755 ( 68) -0.3529 ( 69)  0.1774 ( 71)
          -0.1636 ( 78)
 CRD 23=  -0.1031 (  8) -0.1724 (  9)  0.1748 ( 16)  0.1090 ( 17)  0.2499 ( 25)
          -0.2572 ( 28) -0.3563 ( 30)  0.3507 ( 32) -0.1273 ( 64) -0.1840 ( 66)
           0.1432 ( 67)  0.1840 ( 72) -0.1496 ( 73)  0.1463 ( 75)  0.3250 ( 76)
          -0.1452 ( 77)  0.1447 ( 80) -0.3250 ( 81)  0.1803 ( 82) -0.1798 ( 84)
 CRD 24=  -0.1413 ( 14)  0.1410 ( 15) -0.1024 ( 48)  0.1022 ( 49)  0.1634 ( 87)
           0.1724 ( 88)  0.1013 ( 89) -0.1130 ( 92)  0.1004 ( 94)  0.1003 ( 96)
          -0.1192 ( 98) -0.1564 ( 99) -0.1664 (100) -0.1699 (101) -0.1505 (102)
          -0.1925 (105) -0.1925 (106)  0.1078 (107) -0.1192 (108) -0.1004 (110)
           0.1006 (112)  0.1272 (113) -0.1660 (117) -0.1101 (118)  0.1016 (124)
           0.1187 (125)  0.1270 (126)  0.1095 (127)  0.1690 (133)  0.1535 (134)
          -0.1971 (135) -0.1599 (136) -0.1064 (144) -0.1185 (145) -0.1551 (147)
          -0.1551 (148) -0.1002 (153)  0.1321 (156)  0.1055 (157)  0.1258 (158)
          -0.1392 (159) -0.1156 (161)  0.1051 (162)
 CRD 25=   0.2780 ( 48) -0.2780 ( 49) -0.2260 ( 53)  0.2259 ( 56)  0.1475 ( 94)
           0.1475 ( 96)  0.2040 (105)  0.2041 (106)  0.1161 (107)  0.1111 (113)
          -0.1756 (122) -0.1328 (123)  0.1145 (125)  0.1062 (126)  0.1282 (127)
           0.1253 (128)  0.1621 (137)  0.1620 (138)  0.1538 (140)  0.1190 (142)
           0.1300 (143)  0.1187 (144)  0.1912 (147)  0.1912 (148) -0.1214 (151)
          -0.1642 (152) -0.1084 (153) -0.1635 (154) -0.1672 (155)
 CRD 26=   0.1066 (  1)  0.1708 (  5)  0.2386 (  6) -0.1849 (  7)  0.1925 ( 10)
          -0.1598 ( 11)  0.1035 ( 12) -0.1139 ( 13) -0.2443 ( 18)  0.1128 ( 20)
           0.1870 ( 21)  0.2532 ( 22) -0.1607 ( 24) -0.1000 ( 25) -0.1152 ( 26)
          -0.1120 ( 32) -0.1939 ( 37)  0.1662 ( 43)  0.1355 ( 45) -0.2330 ( 47)
           0.1042 ( 54) -0.1353 ( 57) -0.1234 ( 59)  0.2735 ( 64) -0.1081 ( 67)
          -0.1583 ( 70)  0.2057 ( 75)  0.1300 ( 83)
 CRD 27=  -0.1991 ( 48)  0.1994 ( 49)  0.2334 ( 53) -0.2335 ( 56) -0.1464 ( 89)
          -0.1116 ( 90) -0.2164 ( 94) -0.2166 ( 96)  0.1030 (103)  0.1042 (110)
           0.1058 (111) -0.1692 (122) -0.1184 (123) -0.1787 (133) -0.1439 (134)
          -0.1872 (137) -0.1870 (138)  0.1795 (140)  0.1482 (141)  0.1844 (142)
           0.1697 (143)  0.1780 (144)  0.1466 (145)  0.1399 (146) -0.1034 (147)
          -0.1031 (148) -0.1461 (152) -0.1390 (154) -0.1434 (155)  0.1384 (161)
          -0.1115 (163)  0.1327 (164)  0.1180 (168) -0.1071 (169)
 CRD 28=  -0.3086 ( 14)  0.3087 ( 15)  0.1063 ( 48) -0.1065 ( 49)  0.1215 ( 53)
          -0.1217 ( 56)  0.1128 ( 89)  0.1091 ( 90)  0.1302 ( 91)  0.1079 ( 92)
          -0.2254 ( 94) -0.2254 ( 96) -0.1366 ( 98) -0.1300 ( 99) -0.1156 (100)
           0.2073 (105)  0.2074 (106) -0.1159 (111) -0.1396 (112) -0.1811 (113)
          -0.1134 (116)  0.1153 (117)  0.1337 (125)  0.1488 (127)  0.1704 (128)
          -0.1038 (132) -0.1199 (137) -0.1198 (138) -0.1195 (146)  0.1048 (147)
           0.1048 (148)  0.1555 (150)  0.1711 (153)  0.1487 (159) -0.1524 (160)
 CRD 29=   0.1464 (  1) -0.1783 (  5)  0.1532 (  6)  0.2600 (  7)  0.2433 (  9)
          -0.1479 ( 10)  0.1966 ( 11) -0.1274 ( 12)  0.1456 ( 14)  0.1458 ( 15)
           0.1586 ( 16)  0.2060 ( 17) -0.1406 ( 18) -0.1761 ( 22) -0.2341 ( 24)
          -0.1120 ( 26) -0.1230 ( 27) -0.1476 ( 29) -0.1542 ( 30) -0.1982 ( 32)
          -0.1922 ( 37)  0.1438 ( 38)  0.1226 ( 40) -0.1080 ( 41) -0.1652 ( 45)
          -0.1372 ( 47)  0.1775 ( 70) -0.1368 ( 73)  0.1186 ( 75)  0.1228 ( 79)
           0.1382 ( 83)  0.2055 ( 85)
 CRD 30=  -0.1043 (  2)  0.2651 (  3)  0.1900 (  5)  0.2460 (  8)  0.1177 (  9)
          -0.1568 ( 10)  0.2835 ( 13) -0.4057 ( 14) -0.4065 ( 15)  0.1070 ( 16)
          -0.1087 ( 17) -0.2360 ( 21) -0.1219 ( 33)  0.1408 ( 41) -0.1076 ( 43)
          -0.1458 ( 47)  0.1232 ( 50) -0.1045 ( 54)  0.1010 ( 57)  0.1205 ( 60)
           0.1547 ( 61)
 CRD 31=   0.1364 ( 14) -0.1364 ( 15)  0.2361 ( 89)  0.1235 ( 90)  0.1264 ( 91)
          -0.1574 (107) -0.1242 (111) -0.1296 (112) -0.2268 (113) -0.1953 (120)
           0.1784 (133)  0.1959 (139)  0.1128 (142)  0.1147 (144)  0.2678 (145)
          -0.2344 (146) -0.2687 (151) -0.1142 (152)  0.2221 (153) -0.1188 (155)
          -0.1817 (157)  0.1905 (162) -0.2747 (163)  0.2702 (164)
 CRD 32=   0.1390 (  3)  0.1375 (  5)  0.1787 (  8)  0.1829 ( 13)  0.4450 ( 14)
           0.4442 ( 15) -0.1284 ( 17) -0.1409 ( 21) -0.1058 ( 34)  0.1059 ( 37)
           0.1062 ( 41) -0.1200 ( 48) -0.1198 ( 49)  0.1416 ( 50) -0.1287 ( 53)
          -0.1286 ( 56)  0.1092 ( 60)  0.1159 ( 61)  0.3299 ( 86)  0.1284 ( 94)
          -0.1281 ( 96) -0.1224 (105)  0.1221 (106) -0.1281 (137)  0.1284 (138)
           0.1221 (147) -0.1224 (148)
 CRD 33=   0.2421 ( 14) -0.2417 ( 15) -0.1039 ( 88) -0.2045 ( 98)  0.2097 (101)
          -0.1019 (105) -0.1019 (106)  0.2044 (127)  0.1201 (128) -0.1035 (129)
          -0.2177 (130) -0.1780 (136)  0.1087 (143) -0.1102 (145) -0.1263 (147)
          -0.1263 (148) -0.3300 (149)  0.3301 (150) -0.1593 (162)  0.1635 (163)
           0.1170 (165)  0.2163 (166) -0.2159 (167)
 CRD 34=  -0.2949 ( 14)  0.2949 ( 15) -0.1712 ( 93)  0.1288 ( 98)  0.2238 (100)
          -0.1087 (125)  0.2503 (126)  0.1104 (127) -0.2379 (128) -0.3693 (129)
          -0.2291 (130)  0.1085 (132) -0.1305 (135)  0.3535 (160)  0.2219 (165)
           0.1263 (166) -0.2373 (167)
 CRD 35=   0.1400 ( 14) -0.1399 ( 15)  0.1034 (122)  0.1660 (123)  0.1234 (140)
           0.1291 (141) -0.2115 (142) -0.1869 (143)  0.1361 (151)  0.1238 (153)
          -0.2289 (154) -0.1978 (155)  0.3067 (157)  0.2761 (158)  0.2518 (162)
          -0.2036 (163) -0.2753 (164) -0.2508 (168) -0.2347 (169)  0.2825 (170)
 CRD 36=  -0.1060 (  1) -0.2003 (  3)  0.2139 (  6) -0.1619 ( 16)  0.1302 ( 18)
           0.1414 ( 26)  0.1209 ( 27)  0.2046 ( 30) -0.1472 ( 34)  0.1823 ( 35)
           0.2112 ( 37)  0.1215 ( 39) -0.1627 ( 45) -0.2116 ( 47)  0.1226 ( 48)
           0.1225 ( 49)  0.2247 ( 52)  0.1026 ( 54) -0.1923 ( 63) -0.1775 ( 64)
           0.1681 ( 65)  0.1850 ( 67) -0.1302 ( 73) -0.1822 ( 74)  0.2298 ( 75)
          -0.1304 ( 79) -0.2155 ( 83)  0.1324 ( 85)
 CRD 37=  -0.3525 (  8) -0.1840 (  9)  0.1871 ( 16)  0.3692 ( 17) -0.1785 ( 18)
           0.1779 ( 24) -0.3799 ( 25)  0.3798 ( 28)  0.2118 ( 51) -0.2102 ( 62)
          -0.1529 ( 64)  0.1281 ( 65) -0.1040 ( 67)  0.1031 ( 73) -0.1277 ( 74)
           0.1465 ( 75)
 CRD 38=  -0.1342 (  1)  0.1059 (  4)  0.1419 (  7) -0.1189 (  8)  0.1537 (  9)
          -0.3582 ( 11)  0.1622 ( 13)  0.1934 ( 17)  0.1210 ( 20) -0.2595 ( 21)
           0.1883 ( 22)  0.1577 ( 25)  0.2540 ( 27) -0.1433 ( 28) -0.1320 ( 33)
           0.1320 ( 34) -0.1443 ( 37) -0.1491 ( 39)  0.2045 ( 40) -0.1279 ( 44)
           0.1707 ( 47)  0.1522 ( 54) -0.1710 ( 60)  0.1403 ( 68) -0.1465 ( 71)
          -0.1647 ( 75) -0.2224 ( 79)
 CRD 39=  -0.2332 (  1)  0.1345 (  3) -0.3147 (  6)  0.1475 (  8)  0.1423 (  9)
          -0.2540 ( 13)  0.2263 ( 16)  0.1015 ( 20)  0.2810 ( 21)  0.3299 ( 27)
           0.1121 ( 28) -0.2097 ( 30) -0.2070 ( 32)  0.1070 ( 33) -0.1812 ( 36)
           0.1072 ( 39)  0.1600 ( 42)  0.1768 ( 54)  0.1065 ( 58) -0.1206 ( 61)
          -0.1469 ( 64) -0.1143 ( 73) -0.1571 ( 79)  0.1305 ( 85)
 CRD 40=  -0.2469 (  1) -0.1737 (  2)  0.1896 (  7)  0.1481 ( 12) -0.1110 ( 13)
           0.1492 ( 17) -0.1495 ( 20)  0.3516 ( 22)  0.1004 ( 26) -0.1013 ( 29)
          -0.2147 ( 32)  0.1805 ( 36)  0.2697 ( 41) -0.1732 ( 42)  0.1523 ( 44)
           0.1020 ( 52) -0.1340 ( 54) -0.1401 ( 57)  0.1353 ( 58) -0.1334 ( 63)
          -0.2802 ( 70) -0.1244 ( 73) -0.1695 ( 78)  0.1590 ( 79)  0.1321 ( 85)
 CRD 41=   0.1145 (  8) -0.1103 ( 17)  0.1316 ( 18) -0.1391 ( 21)  0.1918 ( 22)
          -0.1112 ( 24) -0.2499 ( 25) -0.1438 ( 26)  0.2764 ( 28)  0.1514 ( 29)
          -0.3325 ( 30)  0.2832 ( 32) -0.1070 ( 51)  0.1129 ( 62)  0.1061 ( 67)
           0.1188 ( 68) -0.1048 ( 71) -0.1260 ( 73)  0.3002 ( 77) -0.3135 ( 80)
           0.2743 ( 82) -0.1010 ( 83) -0.2589 ( 84)  0.1134 ( 85)
 CRD 42=  -0.1331 (  6)  0.1603 ( 10)  0.1600 ( 12)  0.2476 ( 13)  0.1066 ( 16)
          -0.1273 ( 20) -0.1232 ( 21)  0.2197 ( 22)  0.1380 ( 24)  0.1636 ( 25)
           0.1132 ( 26) -0.3490 ( 27) -0.3130 ( 32)  0.1401 ( 33) -0.1296 ( 41)
          -0.2966 ( 58) -0.1287 ( 61)  0.2610 ( 68)  0.1089 ( 70) -0.2103 ( 71)
          -0.1342 ( 77)  0.2597 ( 78)  0.1186 ( 84)
 CRD 43=   0.1772 ( 14) -0.1771 ( 15)  0.1798 ( 89)  0.1795 ( 98) -0.2544 (101)
           0.1850 (103) -0.1437 (104) -0.1466 (113) -0.1076 (116) -0.1246 (119)
           0.1159 (123)  0.1416 (124)  0.2082 (126) -0.1061 (128) -0.1807 (129)
          -0.1393 (134)  0.1425 (136) -0.1235 (141)  0.2224 (143) -0.1393 (145)
          -0.1650 (146)  0.2136 (149) -0.1654 (150)  0.1230 (151)  0.1552 (153)
          -0.2189 (154)  0.1784 (157)  0.1624 (159)  0.1204 (160) -0.1810 (161)
          -0.1799 (162)  0.1401 (163) -0.1275 (164)
 CRD 44=   0.1159 (  3) -0.1333 (  5) -0.1178 (  6) -0.1498 ( 13)  0.1218 ( 16)
          -0.1122 ( 17) -0.1929 ( 18)  0.1500 ( 19) -0.1085 ( 20) -0.1943 ( 21)
           0.2573 ( 22)  0.1348 ( 23) -0.1002 ( 24) -0.2607 ( 25)  0.1392 ( 27)
          -0.2757 ( 28) -0.1560 ( 29)  0.3608 ( 30)  0.2007 ( 31)  0.2070 ( 32)
          -0.1008 ( 36)  0.1496 ( 54)  0.1135 ( 67)  0.1644 ( 68) -0.1747 ( 71)
           0.1122 ( 80) -0.1280 ( 82) -0.1033 ( 84)
 CRD 45=  -0.1926 (  1) -0.1484 (  2) -0.1901 (  4) -0.1237 (  6)  0.1361 (  7)
           0.1332 ( 10) -0.1379 ( 11)  0.1471 ( 12)  0.3166 ( 13)  0.1115 ( 16)
           0.1528 ( 17)  0.1123 ( 20)  0.3202 ( 21) -0.1826 ( 22) -0.2282 ( 23)
          -0.1718 ( 25) -0.2345 ( 27) -0.1679 ( 28) -0.1021 ( 29)  0.1923 ( 30)
           0.1397 ( 31)  0.1371 ( 32)  0.1010 ( 34)  0.1012 ( 43) -0.1151 ( 50)
           0.1020 ( 55)  0.1290 ( 67)  0.1051 ( 71) -0.1258 ( 75)  0.1204 ( 78)
          -0.1306 ( 84)
 CRD 46=   0.2026 (  1)  0.2297 (  4)  0.1454 (  5) -0.2406 (  9) -0.1433 ( 11)
          -0.1029 ( 13)  0.1773 ( 16) -0.1240 ( 17) -0.1337 ( 18)  0.1248 ( 20)
          -0.1365 ( 21) -0.2595 ( 22)  0.1696 ( 24)  0.1369 ( 26)  0.1478 ( 30)
          -0.2332 ( 32)  0.1321 ( 34) -0.1236 ( 35) -0.1195 ( 37) -0.1521 ( 39)
          -0.1525 ( 41)  0.1355 ( 45)  0.1043 ( 47)  0.1043 ( 52)  0.1745 ( 64)
           0.1791 ( 67)  0.1288 ( 70) -0.2182 ( 73) -0.1108 ( 75)  0.1630 ( 82)
          -0.1931 ( 83) -0.1234 ( 84)  0.1875 ( 85)
 CRD 47=   0.1066 (  1) -0.2612 (  2)  0.4454 (  8)  0.3869 ( 17) -0.4138 ( 19)
           0.2675 ( 25)  0.2773 ( 28)  0.1967 ( 30) -0.1117 ( 31)  0.1629 ( 32)
           0.1104 ( 67) -0.1003 ( 83)
 CRD 48=  -0.2210 (  1) -0.1139 (  3)  0.3094 (  4)  0.1557 (  5)  0.1078 (  8)
           0.1057 (  9)  0.2227 ( 10) -0.1312 ( 11)  0.1714 ( 12) -0.3686 ( 13)
           0.1044 ( 17)  0.1216 ( 18)  0.1324 ( 20) -0.3397 ( 21) -0.2804 ( 22)
           0.1866 ( 23) -0.3436 ( 27)  0.1053 ( 37) -0.1456 ( 64)
 CRD 49=  -0.1819 (  1)  0.3412 (  2)  0.1002 (  4) -0.1256 (  6)  0.1174 (  7)
          -0.2375 (  8)  0.1622 (  9)  0.1031 ( 10)  0.1309 ( 16) -0.2088 ( 17)
          -0.1727 ( 18) -0.1060 ( 19) -0.2042 ( 24)  0.3187 ( 25) -0.1122 ( 26)
          -0.1249 ( 27)  0.3125 ( 28) -0.1017 ( 29)  0.2409 ( 30) -0.2230 ( 31)
           0.2666 ( 32)
 CRD 50=  -0.1675 (  3)  0.1385 (  4)  0.1305 (  5)  0.1012 (  6)  0.3264 (  7)
          -0.2946 ( 10) -0.1081 ( 11) -0.1602 ( 17)  0.1347 ( 18)  0.1176 ( 21)
          -0.1063 ( 22) -0.1233 ( 23) -0.2220 ( 24)  0.1554 ( 27)  0.1263 ( 32)
           0.1187 ( 37) -0.1215 ( 41)  0.1354 ( 45) -0.1154 ( 47) -0.1412 ( 48)
          -0.1412 ( 49)  0.1350 ( 53)  0.1349 ( 56) -0.1560 ( 57) -0.1212 ( 74)
           0.1450 ( 75)  0.1675 ( 78) -0.1124 ( 79)  0.1350 ( 84)
 CRD 51=  -0.2329 ( 14)  0.2329 ( 15) -0.1593 ( 92)  0.1563 ( 93) -0.1036 ( 97)
           0.2100 (101) -0.1582 (107)  0.1680 (110)  0.1270 (115) -0.1058 (120)
           0.1537 (123) -0.2308 (126)  0.1936 (129)  0.1310 (133)  0.1053 (139)
          -0.1456 (141)  0.2596 (143) -0.1016 (146) -0.1876 (149) -0.2590 (154)
           0.2120 (157) -0.2159 (162)  0.1382 (165) -0.1681 (166)  0.1670 (168)
          -0.1774 (169)
 CRD 52=   0.2955 (  2) -0.2140 (  3)  0.3152 (  4) -0.2623 (  5)  0.2293 (  8)
           0.1701 ( 13)  0.1712 ( 18) -0.2559 ( 19)  0.1895 ( 22) -0.2731 ( 23)
          -0.1551 ( 25) -0.1300 ( 30)  0.2152 ( 31) -0.1011 ( 37) -0.1298 ( 44)
          -0.1100 ( 54)  0.1062 ( 61) -0.1008 ( 62) -0.1305 ( 68)  0.1342 ( 71)
           0.1125 ( 80)  0.1251 ( 86)
 CRD 53=  -0.3021 (  3)  0.1041 (  5) -0.2851 (  7)  0.2458 (  9) -0.1023 ( 12)
           0.2326 ( 16)  0.1731 ( 18) -0.1164 ( 19)  0.1535 ( 24) -0.3309 ( 26)
           0.1351 ( 27) -0.3201 ( 29)  0.1521 ( 30)  0.1769 ( 32)  0.2059 ( 37)
           0.1771 ( 47) -0.1499 ( 64) -0.1486 ( 67) -0.1352 ( 73) -0.1542 ( 75)
           0.1580 ( 83)  0.1642 ( 85)
 CRD 54=   0.1175 (  2)  0.1311 (  3) -0.1351 (  7) -0.2892 (  8)  0.1314 (  9)
          -0.1218 ( 10) -0.1620 ( 16)  0.3301 ( 17)  0.1086 ( 21)  0.2247 ( 25)
          -0.1416 ( 26) -0.2791 ( 28)  0.1893 ( 29) -0.1005 ( 30) -0.1427 ( 35)
          -0.1648 ( 38)  0.1941 ( 46) -0.1837 ( 47)  0.1761 ( 60)  0.1328 ( 66)
          -0.1501 ( 72)  0.1896 ( 77) -0.1256 ( 80) -0.1232 ( 83) -0.1013 ( 84)
 CRD 55=  -0.1075 (  4)  0.2464 (  5) -0.1386 (  6)  0.1116 (  7)  0.3790 ( 10)
          -0.4281 ( 12)  0.1045 ( 13) -0.3105 ( 20)  0.1489 ( 22)  0.1071 ( 23)
          -0.1795 ( 24)  0.1344 ( 26)  0.1075 ( 27) -0.1188 ( 30)  0.1012 ( 34)
          -0.1123 ( 35) -0.1017 ( 39) -0.2111 ( 41) -0.1962 ( 54) -0.1043 ( 63)
           0.1701 ( 70) -0.1074 ( 78)  0.2177 ( 79)
 CRD 56=   0.1608 (  2) -0.2901 (  4)  0.1236 ( 13)  0.2034 ( 18) -0.2821 ( 19)
           0.1005 ( 20) -0.1571 ( 21) -0.2114 ( 22)  0.2880 ( 23) -0.1465 ( 29)
          -0.1418 ( 30)  0.2793 ( 31)  0.1010 ( 36) -0.1190 ( 39)  0.1370 ( 44)
          -0.1193 ( 51)  0.1366 ( 52)  0.1649 ( 54) -0.1024 ( 55)  0.2017 ( 58)
          -0.1295 ( 59) -0.1643 ( 61)  0.1349 ( 64) -0.1556 ( 70)  0.1200 ( 80)
          -0.1245 ( 82)
 CRD 57=  -0.1317 (  1)  0.2930 (  5) -0.2734 ( 13)  0.1171 ( 18) -0.1508 ( 19)
          -0.3294 ( 20)  0.2996 ( 21) -0.1190 ( 25)  0.1455 ( 28) -0.1552 ( 29)
           0.1797 ( 31) -0.1134 ( 32) -0.1308 ( 33)  0.1007 ( 40) -0.1691 ( 43)
          -0.1111 ( 51) -0.1653 ( 54)  0.1996 ( 55) -0.1365 ( 58)  0.1124 ( 61)
           0.1844 ( 68)  0.1393 ( 70) -0.1275 ( 71)  0.1215 ( 72)  0.1430 ( 80)
 CRD 58=   0.1266 (  1) -0.1453 (  2)  0.1725 (  3)  0.1907 (  7) -0.3464 (  9)
          -0.2175 ( 16)  0.2786 ( 18)  0.1140 ( 19)  0.1295 ( 22)  0.2283 ( 24)
          -0.2310 ( 26) -0.1061 ( 27) -0.2396 ( 29)  0.1994 ( 32) -0.1216 ( 36)
          -0.1073 ( 47)  0.1043 ( 59)  0.1263 ( 64) -0.2282 ( 67)  0.1027 ( 71)
          -0.1604 ( 73) -0.1591 ( 74)  0.1296 ( 81)  0.1364 ( 83)  0.2004 ( 85)
 CRD 59=   0.1064 ( 87) -0.2234 ( 89)  0.1892 ( 93)  0.1225 ( 94)  0.1224 ( 96)
           0.2828 ( 98) -0.1474 (105) -0.1475 (106) -0.1508 (107) -0.1231 (108)
          -0.2295 (113)  0.2901 (128) -0.1228 (129) -0.1435 (133)  0.1729 (136)
          -0.1171 (145)  0.1902 (146) -0.2378 (150) -0.1151 (151)  0.1966 (153)
           0.1733 (159) -0.2460 (160)  0.1246 (161) -0.1758 (165) -0.1304 (166)
          -0.1933 (167)
 CRD 60=   0.1251 ( 89)  0.1819 ( 98)  0.1143 (107)  0.1194 (113)  0.1406 (121)
           0.1610 (123)  0.1775 (128)  0.1087 (136)  0.2049 (141)  0.2816 (145)
          -0.2137 (146) -0.1634 (150)  0.2847 (151) -0.2087 (153)  0.1347 (154)
          -0.1499 (157) -0.1597 (160) -0.1361 (161) -0.2532 (163) -0.2564 (164)
          -0.1030 (166) -0.1408 (167) -0.1815 (168) -0.1075 (169) -0.2238 (170)
 CRD 61=   0.2284 (  1) -0.2237 (  7) -0.1547 ( 10)  0.1340 ( 12) -0.1415 ( 13)
           0.2251 ( 16)  0.1278 ( 17)  0.1498 ( 21) -0.2319 ( 24)  0.2760 ( 26)
          -0.1439 ( 27) -0.1238 ( 29) -0.1759 ( 30)  0.1803 ( 32) -0.1239 ( 33)
           0.1513 ( 41) -0.1276 ( 43)  0.1229 ( 46)  0.1499 ( 52)  0.1178 ( 55)
           0.1346 ( 57)  0.1102 ( 62) -0.2177 ( 63)  0.1075 ( 65)  0.1110 ( 68)
          -0.1240 ( 69) -0.2089 ( 75) -0.1294 ( 76) -0.1367 ( 79)  0.1358 ( 81)
          -0.1607 ( 82)  0.2044 ( 84)
 CRD 62=  -0.1286 (  1)  0.1972 (  3) -0.1592 (  8)  0.1023 ( 11) -0.2591 ( 16)
           0.2452 ( 17)  0.1668 ( 18) -0.1306 ( 21) -0.2542 ( 25)  0.1250 ( 26)
           0.1365 ( 27)  0.2218 ( 28) -0.1696 ( 29) -0.1082 ( 38)  0.1835 ( 46)
          -0.1182 ( 47) -0.1646 ( 51) -0.1240 ( 55)  0.2152 ( 62)  0.1166 ( 64)
          -0.1430 ( 65) -0.1961 ( 66)  0.1264 ( 69)  0.1806 ( 72) -0.1608 ( 73)
           0.1015 ( 74)  0.1119 ( 76) -0.1726 ( 77)  0.1258 ( 83)
 CRD 63=  -0.1146 (  1) -0.2012 (  2)  0.2625 (  3) -0.1116 (  8)  0.1455 ( 12)
           0.1776 ( 16) -0.1400 ( 17) -0.1342 ( 21) -0.3011 ( 23)  0.1137 ( 25)
           0.1853 ( 27) -0.1714 ( 29) -0.2203 ( 30)  0.2528 ( 31)  0.1291 ( 35)
           0.1036 ( 39) -0.1130 ( 46)  0.1197 ( 47) -0.1329 ( 55) -0.1389 ( 58)
          -0.1122 ( 60)  0.1050 ( 64)  0.1281 ( 66) -0.1687 ( 68)  0.1535 ( 69)
          -0.1871 ( 76)  0.1491 ( 77)  0.1314 ( 78)  0.1351 ( 79)  0.1125 ( 80)
          -0.1605 ( 82) -0.1506 ( 83)
 CRD 64=  -0.2505 ( 89)  0.1320 ( 94)  0.1330 ( 96) -0.1204 ( 98) -0.1566 (101)
          -0.1247 (102) -0.1218 (107)  0.1328 (109) -0.2316 (113)  0.1429 (114)
           0.1419 (121)  0.1374 (123)  0.1323 (134)  0.1167 (135)  0.1618 (139)
          -0.1295 (140)  0.1921 (143)  0.1287 (145)  0.1322 (146)  0.1621 (149)
           0.1454 (150)  0.1175 (151)  0.1147 (153)  0.1049 (154)  0.1163 (156)
           0.1101 (160)  0.1783 (161) -0.1552 (162) -0.2095 (163) -0.1981 (164)
           0.1664 (166)  0.1411 (167) -0.1116 (169) -0.2517 (170)
 CRD 65=   0.1824 (  1) -0.1711 (  2) -0.1908 (  8)  0.2490 (  9) -0.1511 ( 11)
          -0.1973 ( 12)  0.2617 ( 20)  0.2398 ( 22) -0.1172 ( 24) -0.1890 ( 27)
           0.1416 ( 28)  0.1901 ( 31) -0.1772 ( 32)  0.1879 ( 37) -0.1702 ( 38)
          -0.1783 ( 40)  0.1621 ( 45)  0.2147 ( 59) -0.1758 ( 69)  0.1211 ( 70)
           0.2152 ( 71)  0.1378 ( 72) -0.1763 ( 78)  0.1435 ( 80) -0.1606 ( 81)
          -0.1070 ( 84) -0.1428 ( 85)
 CRD 66=   0.2430 (  1) -0.1488 (  5) -0.2219 (  6)  0.1325 (  7)  0.2218 ( 12)
           0.1678 ( 18) -0.1251 ( 20) -0.1000 ( 22) -0.2402 ( 24) -0.2615 ( 26)
           0.1126 ( 27)  0.1942 ( 29)  0.1398 ( 30) -0.1941 ( 32)  0.1452 ( 34)
          -0.1114 ( 35)  0.1354 ( 41)  0.1348 ( 45)  0.1152 ( 57) -0.1226 ( 67)
           0.1111 ( 69) -0.1206 ( 74)  0.1427 ( 76)  0.1208 ( 78) -0.1956 ( 81)
           0.1275 ( 82)  0.1045 ( 83) -0.1678 ( 84) -0.1626 ( 85)
 CRD 67=   0.1328 (  2) -0.2367 (  4)  0.2333 (  5) -0.1996 ( 13)  0.1618 ( 18)
          -0.1790 ( 19)  0.1809 ( 20) -0.1468 ( 21)  0.1414 ( 22) -0.2860 ( 23)
          -0.1310 ( 25) -0.1354 ( 28)  0.1578 ( 29)  0.1135 ( 30) -0.2304 ( 31)
          -0.1671 ( 33)  0.1080 ( 36) -0.1031 ( 39)  0.1119 ( 40) -0.1982 ( 43)
          -0.1450 ( 55) -0.1805 ( 58)  0.1466 ( 59) -0.1051 ( 62) -0.1359 ( 66)
          -0.1480 ( 68)  0.1423 ( 70)  0.1082 ( 71) -0.1359 ( 72)  0.1140 ( 76)
          -0.1359 ( 77) -0.1305 ( 80)  0.1137 ( 83)
 CRD 68=   0.1859 ( 88) -0.1442 ( 97)  0.2124 (103) -0.1066 (104) -0.1255 (113)
           0.1233 (115) -0.1337 (119)  0.1561 (120) -0.1847 (122) -0.1958 (126)
           0.2205 (129) -0.1422 (134)  0.1006 (137)  0.1006 (138)  0.1488 (140)
           0.1044 (141) -0.1064 (143) -0.1230 (149)  0.1142 (153)  0.1826 (154)
          -0.2074 (157)  0.2266 (159)  0.1390 (160) -0.1471 (161)  0.1639 (162)
           0.2330 (165) -0.1980 (166)  0.1263 (167) -0.2295 (168)  0.2278 (169)
 CRD 69=  -0.2805 (  1)  0.1958 (  3)  0.1127 (  4)  0.1531 (  5) -0.1045 (  7)
          -0.2294 (  9) -0.2393 ( 10)  0.1738 ( 11) -0.2125 ( 12)  0.1915 ( 16)
           0.2001 ( 18)  0.1200 ( 20) -0.1892 ( 24) -0.1516 ( 26) -0.1120 ( 27)
           0.1484 ( 29) -0.1284 ( 37) -0.1471 ( 41) -0.1503 ( 42)  0.1168 ( 44)
          -0.1250 ( 45)  0.1396 ( 52) -0.1867 ( 57) -0.1316 ( 63)  0.1104 ( 64)
           0.1396 ( 65) -0.1004 ( 67) -0.1222 ( 69) -0.1425 ( 74) -0.1094 ( 78)
          -0.1143 ( 79)
 CRD 70=  -0.2186 (  2)  0.1714 (  3)  0.1717 (  4) -0.1889 (  5) -0.1697 (  8)
           0.1182 (  9) -0.1181 ( 11)  0.1599 ( 16) -0.1238 ( 17)  0.1663 ( 18)
          -0.3072 ( 19) -0.1257 ( 20)  0.1087 ( 23) -0.1454 ( 25) -0.1345 ( 28)
           0.1242 ( 29) -0.1954 ( 31)  0.1293 ( 33) -0.1419 ( 36) -0.1847 ( 38)
           0.1089 ( 39) -0.1763 ( 40) -0.1105 ( 44) -0.1398 ( 46) -0.1847 ( 51)
           0.1175 ( 52) -0.1606 ( 62)  0.1097 ( 64)  0.1055 ( 65) -0.1607 ( 66)
          -0.1525 ( 72) -0.1238 ( 77) -0.1145 ( 80)
 CRD 71=   0.1064 (  3)  0.3447 (  6) -0.2801 (  7) -0.1643 (  9)  0.2331 ( 10)
          -0.3235 ( 11)  0.1322 ( 16) -0.1576 ( 24) -0.1816 ( 34)  0.1142 ( 35)
           0.1621 ( 42) -0.1325 ( 45) -0.1727 ( 48) -0.1727 ( 49)  0.1697 ( 53)
           0.1696 ( 56) -0.1261 ( 63) -0.1078 ( 74) -0.1213 ( 75) -0.1166 ( 94)
           0.1167 ( 96) -0.1185 (105)  0.1187 (106)  0.1166 (137) -0.1167 (138)
           0.1186 (147) -0.1186 (148)
 CRD 72=  -0.2469 ( 14)  0.2472 ( 15) -0.1218 ( 48)  0.1218 ( 49) -0.1293 ( 53)
           0.1293 ( 56) -0.1181 ( 87) -0.1206 ( 88) -0.1467 ( 90)  0.1620 ( 99)
          -0.1636 (101)  0.1004 (104) -0.1094 (105) -0.1096 (106)  0.1022 (110)
           0.1337 (117)  0.1381 (118) -0.1230 (124) -0.1182 (129) -0.1294 (131)
          -0.1435 (132) -0.1414 (134)  0.1791 (135) -0.1242 (143)  0.1017 (144)
          -0.1337 (146) -0.1252 (147) -0.1251 (148)  0.1986 (149)  0.1368 (150)
          -0.1154 (156) -0.1109 (161)  0.1066 (162)  0.1033 (163) -0.2393 (165)
           0.1985 (166)  0.1367 (167) -0.1077 (168)  0.1409 (170)
 CRD 73=  -0.1537 (  2) -0.1500 (  4)  0.2821 (  6)  0.2796 ( 11) -0.2397 ( 14)
          -0.2396 ( 15)  0.1164 ( 34)  0.1172 ( 42) -0.2533 ( 50) -0.1963 ( 60)
          -0.1927 ( 61)  0.3430 ( 86)  0.1995 ( 94) -0.1993 ( 96) -0.1993 (105)
           0.1991 (106) -0.1994 (137)  0.1994 (138)  0.1991 (147) -0.1992 (148)
 CRD 74=  -0.1745 ( 92)  0.1702 ( 93) -0.1281 ( 98)  0.1103 (101) -0.2192 (107)
           0.1114 (111)  0.1673 (112) -0.1328 (114)  0.1824 (116) -0.1265 (117)
          -0.1116 (118)  0.1366 (123) -0.1809 (125)  0.1035 (126) -0.1727 (127)
          -0.1329 (129)  0.1442 (130)  0.1525 (131)  0.1127 (133)  0.1079 (135)
           0.1411 (140)  0.1033 (142) -0.1161 (145) -0.1763 (152)  0.1142 (153)
          -0.1756 (155) -0.1547 (157) -0.1510 (160)  0.1241 (162) -0.1252 (164)
           0.2579 (166) -0.2084 (167) -0.1757 (168)  0.2759 (169) -0.1048 (170)
 CRD 75=  -0.1044 ( 91) -0.1060 (100)  0.1225 (110) -0.1269 (111)  0.1871 (121)
          -0.1618 (122)  0.1475 (134)  0.1120 (139) -0.2026 (141)  0.2912 (142)
           0.1504 (144)  0.1726 (151) -0.1588 (154) -0.1339 (156) -0.2761 (158)
           0.1850 (161)  0.1085 (162)  0.1598 (163)  0.1356 (165) -0.3624 (168)
           0.3162 (170)
 CRD 76=  -0.1341 ( 88)  0.1027 ( 91)  0.1186 ( 95)  0.1770 (100) -0.1196 (101)
          -0.1235 (103) -0.1376 (120)  0.2059 (123) -0.1047 (126)  0.2174 (127)
          -0.2938 (130) -0.1343 (135)  0.1016 (139) -0.1781 (141)  0.1376 (144)
          -0.1138 (145) -0.1346 (152) -0.2168 (155)  0.1189 (158) -0.1907 (159)
           0.1053 (160)  0.1076 (161) -0.1089 (164) -0.1913 (165) -0.2374 (166)
           0.3267 (167)  0.2599 (169) -0.1289 (170)
 CRD 77=   0.1440 ( 91) -0.2274 ( 93) -0.2868 (100)  0.1234 (107) -0.1449 (112)
           0.1290 (114) -0.1052 (120)  0.1009 (122)  0.1942 (125)  0.1015 (126)
          -0.1119 (128)  0.2062 (130) -0.1547 (132)  0.1949 (136) -0.1592 (147)
          -0.1594 (148) -0.1239 (150) -0.1986 (155)  0.1936 (158) -0.1514 (159)
           0.3097 (165) -0.2109 (167)  0.2163 (169) -0.1924 (170)
 CRD 78=  -0.2012 ( 90) -0.1557 ( 91) -0.1218 ( 93)  0.1411 ( 97) -0.1799 ( 99)
           0.1633 (104) -0.2332 (107)  0.1723 (111)  0.1299 (112) -0.1643 (115)
           0.1322 (116) -0.1280 (117)  0.2043 (119) -0.1646 (123) -0.1791 (124)
           0.1987 (127) -0.1132 (130)  0.2935 (133)  0.2159 (136) -0.1818 (137)
          -0.1819 (138) -0.1257 (139)  0.1173 (141) -0.1117 (142) -0.1194 (147)
          -0.1194 (148)  0.1020 (152)  0.1966 (159) -0.1917 (161) -0.1882 (166)
           0.1044 (168)
 CRD 79=  -0.1462 ( 87)  0.1062 ( 91) -0.1240 ( 92) -0.1019 ( 93)  0.1432 (102)
          -0.1112 (103) -0.1009 (107) -0.1278 (110) -0.1509 (118)  0.1405 (119)
          -0.1855 (121)  0.1899 (123) -0.1307 (133) -0.1225 (134)  0.1649 (136)
           0.1258 (137)  0.1259 (138)  0.1811 (141)  0.2198 (142) -0.2484 (144)
           0.1031 (146) -0.1311 (147) -0.1312 (148) -0.2515 (152)  0.2168 (155)
           0.2613 (156) -0.2034 (158) -0.1342 (159) -0.1198 (161) -0.1767 (168)
          -0.1738 (169)  0.1489 (170)
 CRD 80=  -0.1363 ( 87)  0.1679 ( 90)  0.1715 ( 93) -0.1694 ( 95) -0.2337 ( 99)
           0.1418 (100) -0.1171 (104)  0.1864 (108) -0.1877 (111) -0.1287 (114)
          -0.1164 (118) -0.1295 (119)  0.1520 (121) -0.2040 (125)  0.1726 (127)
          -0.1286 (130)  0.2566 (131) -0.2123 (133)  0.2521 (136)  0.1604 (137)
           0.1605 (138) -0.1293 (141)  0.1222 (144) -0.1938 (147) -0.1939 (148)
           0.1118 (152) -0.1344 (156)  0.1592 (161) -0.1028 (165) -0.1293 (166)
 CRD 81=  -0.2063 ( 90)  0.2036 ( 91)  0.2390 ( 93) -0.1450 ( 95) -0.1207 ( 99)
           0.1191 (100) -0.1771 (102)  0.2859 (107)  0.1984 (109)  0.1663 (111)
          -0.2451 (112)  0.2550 (118) -0.3337 (119) -0.1644 (121)  0.1118 (123)
          -0.1070 (124) -0.1713 (125)  0.1765 (131)  0.1641 (133) -0.1105 (137)
          -0.1106 (138) -0.1008 (152)  0.1184 (156) -0.1522 (159) -0.1243 (161)

 THE DETERMINANT OF THE G MATRIX IS 10**(   -40)


                     --------------------
                     INTERNAL COORDINATES
                     --------------------

                 - - ATOMS - -         COORDINATE      COORDINATE
 NO.   TYPE    I  J  K  L  M  N        (BOHR,RAD)       (ANG,DEG)
 ----------------------------------------------------------------
   1 STRETCH   1  2                     2.7610895       1.4611057
   2 STRETCH   1  3                     2.7168282       1.4376837
   3 STRETCH   1  4                     2.5775531       1.3639824
   4 STRETCH   2  5                     2.6737396       1.4148822
   5 STRETCH   2  6                     2.6159179       1.3842842
   6 STRETCH   3  7                     2.8408418       1.5033089
   7 STRETCH   3  8                     2.5733082       1.3617362
   8 STRETCH   4 18                     2.0707472       1.0957923
   9 STRETCH   4  9                     2.6949741       1.4261190
  10 STRETCH   5 10                     2.6112914       1.3818360
  11 STRETCH   5  7                     2.8398502       1.5027841
  12 STRETCH   6 11                     2.6396377       1.3968362
  13 STRETCH   6 19                     2.0685987       1.0946554
  14 STRETCH   7 20                     2.0895120       1.1057222
  15 STRETCH   7 21                     2.0894449       1.1056867
  16 STRETCH   8 12                     2.6976735       1.4275474
  17 STRETCH   8 22                     2.0696557       1.0952147
  18 STRETCH   9 13                     2.6826875       1.4196172
  19 STRETCH   9 12                     2.6689384       1.4123415
  20 STRETCH  10 14                     2.6415993       1.3978743
  21 STRETCH  10 23                     2.0677275       1.0941944
  22 STRETCH  11 24                     2.0692031       1.0949752
  23 STRETCH  11 14                     2.6263102       1.3897836
  24 STRETCH  12 15                     2.6823746       1.4194516
  25 STRETCH  13 25                     2.0709018       1.0958741
  26 STRETCH  13 16                     2.5882733       1.3696553
  27 STRETCH  14 26                     2.0694030       1.0950810
  28 STRETCH  15 27                     2.0708148       1.0958281
  29 STRETCH  15 17                     2.5885901       1.3698230
  30 STRETCH  16 28                     2.0688812       1.0948049
  31 STRETCH  16 17                     2.6692584       1.4125108
  32 STRETCH  17 29                     2.0691560       1.0949503
  33 BEND      1  2  6                  2.2783023     130.5371035
  34 BEND      1  3  7                  1.9182888     109.9098544
  35 BEND      1  3  8                  2.1108738     120.9441612
  36 BEND      1  2  5                  1.8951777     108.5856829
  37 BEND      1  4 18                  2.1202349     121.4805109
  38 BEND      1  4  9                  2.0697173     118.5860683
  39 BEND      2  1  3                  1.8829714     107.8863154
  40 BEND      2  1  4                  2.2826373     130.7854846
  41 BEND      2  6 19                  2.1071304     120.7296779
  42 BEND      2  5  7                  1.9293906     110.5459383
  43 BEND      2  6 11                  2.0636943     118.2409735
  44 BEND      2  5 10                  2.1038928     120.5441774
  45 BEND      3  1  4                  2.1175764     121.3281925
  46 BEND      3  8 12                  2.0730085     118.7746390
  47 BEND      3  8 22                  2.1228370     121.6296024
  48 BEND      3  7 21                  1.9506679     111.7650374
  49 BEND      3  7 20                  1.9502052     111.7385244
  50 BEND      3  7  5                  1.7989491     103.0721904
  51 BEND      4  9 13                  2.1054748     120.6348177
  52 BEND      4  9 12                  2.0970160     120.1501670
  53 BEND      5  7 21                  1.9500044     111.7270235
  54 BEND      5 10 23                  2.1095097     120.8660014
  55 BEND      5 10 14                  2.0667304     118.4149306
  56 BEND      5  7 20                  1.9494980     111.6980073
  57 BEND      5  2  6                  2.1097053     120.8772077
  58 BEND      6 11 24                  2.0837545     119.3903368
  59 BEND      6 11 14                  2.1104296     120.9187097
  60 BEND      7  3  8                  2.2540226     129.1459837
  61 BEND      7  5 10                  2.2499018     128.9098782
  62 BEND      8 12 15                  2.1045958     120.5844562
  63 BEND      8 12  9                  2.0981785     120.2167699
  64 BEND      9  4 18                  2.0932331     119.9334207
  65 BEND      9 12 15                  2.0804110     119.1987717
  66 BEND      9 13 16                  2.1017063     120.4189015
  67 BEND      9 13 25                  2.0745276     118.8616785
  68 BEND     10 14 26                  2.0827720     119.3340465
  69 BEND     10 14 11                  2.1119181     121.0039962
  70 BEND     11  6 19                  2.1123606     121.0293472
  71 BEND     11 14 26                  2.0884951     119.6619565
  72 BEND     12 15 17                  2.1017136     120.4193187
  73 BEND     12 15 27                  2.0748886     118.8823610
  74 BEND     12  9 13                  2.0806945     119.2150147
  75 BEND     12  8 22                  2.0873398     119.5957584
  76 BEND     13 16 17                  2.1007882     120.3662947
  77 BEND     13 16 28                  2.1032217     120.5057249
  78 BEND     14 11 24                  2.0890012     119.6909535
  79 BEND     14 10 23                  2.1069452     120.7190669
  80 BEND     15 17 29                  2.1029932     120.4926343
  81 BEND     15 17 16                  2.1010569     120.3816954
  82 BEND     16 17 29                  2.0791351     119.1256656
  83 BEND     16 13 25                  2.1069514     120.7194201
  84 BEND     17 16 28                  2.0791755     119.1279803
  85 BEND     17 15 27                  2.1065831     120.6983181
  86 BEND     20  7 21                  1.8663998     106.9368343
  87 TORSION   1  3  7  5              -0.0007267      -0.0416377
  88 TORSION   1  2  6 11              -3.1414092    -179.9894881
  89 TORSION   1  3  8 22              -3.1415345    -179.9966679
  90 TORSION   1  3  8 12              -0.0000489      -0.0027990
  91 TORSION   1  4  9 12               0.0000164       0.0009381
  92 TORSION   1  4  9 13               3.1414550     179.9921111
  93 TORSION   1  2  6 19              -0.0000461      -0.0026386
  94 TORSION   1  3  7 21              -2.0973307    -120.1681999
  95 TORSION   1  2  5  7              -0.0004621      -0.0264750
  96 TORSION   1  3  7 20               2.0950450     120.0372342
  97 TORSION   1  2  5 10               3.1415829     179.9994438
  98 TORSION   2  5 10 23              -3.1415431    -179.9971606
  99 TORSION   2  5 10 14              -0.0001622      -0.0092942
 100 TORSION   2  6 11 14               0.0000476       0.0027299
 101 TORSION   2  6 11 24              -3.1415236    -179.9960432
 102 TORSION   2  1  3  7               0.0004865       0.0278772
 103 TORSION   2  1  4  9               3.1411515     179.9747213
 104 TORSION   2  1  3  8              -3.1412654    -179.9812483
 105 TORSION   2  5  7 21               2.0977818     120.1940441
 106 TORSION   2  5  7 20              -2.0955358    -120.0653546
 107 TORSION   2  1  4 18              -0.0005096      -0.0291976
 108 TORSION   2  5  7  3               0.0007220       0.0413661
 109 TORSION   3  1  2  5              -0.0000164      -0.0009381
 110 TORSION   3  8 12 15               3.1415369     179.9968048
 111 TORSION   3  8 12  9               0.0002413       0.0138241
 112 TORSION   3  1  4  9               0.0001786       0.0102321
 113 TORSION   3  1  4 18              -3.1414825    -179.9936868
 114 TORSION   3  1  2  6               3.1410805     179.9706530
 115 TORSION   3  7  5 10              -3.1413714    -179.9873208
 116 TORSION   4  1  2  5              -3.1410527    -179.9690641
 117 TORSION   4  1  3  7               3.1415861     179.9996243
 118 TORSION   4  1  3  8              -0.0001658      -0.0095012
 119 TORSION   4  1  2  6               0.0000441       0.0025270
 120 TORSION   4  9 12 15              -3.1415277    -179.9962771
 121 TORSION   4  9 12  8              -0.0002280      -0.0130613
 122 TORSION   4  9 13 16               3.1414888     179.9940501
 123 TORSION   4  9 13 25              -0.0000824      -0.0047202
 124 TORSION   5  7  3  8               3.1410421     179.9684542
 125 TORSION   5  2  6 11              -0.0003641      -0.0208621
 126 TORSION   5 10 14 26              -3.1415615    -179.9982143
 127 TORSION   5 10 14 11              -0.0001538      -0.0088118
 128 TORSION   5  2  6 19               3.1409990     179.9659874
 129 TORSION   6 11 14 26              -3.1415633    -179.9983195
 130 TORSION   6 11 14 10               0.0002149       0.0123124
 131 TORSION   6  2  5 10               0.0004293       0.0245995
 132 TORSION   6  2  5  7               3.1415696     179.9986807
 133 TORSION   7  3  8 22              -0.0001349      -0.0077312
 134 TORSION   7  3  8 12               3.1413507     179.9861377
 135 TORSION   7  5 10 14              -3.1412105    -179.9781041
 136 TORSION   7  5 10 23               0.0005939       0.0340296
 137 TORSION   8  3  7 20              -1.0463716     -59.9526739
 138 TORSION   8  3  7 21               1.0444380      59.8418920
 139 TORSION   8 12  9 13               3.1415166     179.9956406
 140 TORSION   8 12 15 17              -3.1412452    -179.9800907
 141 TORSION   8 12 15 27               0.0000448       0.0025673
 142 TORSION   9 13 16 17               0.0000255       0.0014593
 143 TORSION   9 13 16 28              -3.1415153    -179.9955688
 144 TORSION   9 12 15 17               0.0000534       0.0030618
 145 TORSION   9 12 15 27               3.1413434     179.9857198
 146 TORSION   9 12  8 22              -3.1414562    -179.9921796
 147 TORSION  10  5  7 20               1.0455562      59.9059586
 148 TORSION  10  5  7 21              -1.0443115     -59.8346428
 149 TORSION  10 14 11 24              -3.1413992    -179.9889183
 150 TORSION  11 14 10 23               3.1412274     179.9790731
 151 TORSION  12  9 13 25               3.1413576     179.9865346
 152 TORSION  12  9 13 16              -0.0002565      -0.0146951
 153 TORSION  12  9  4 18              -3.1415090    -179.9952054
 154 TORSION  12 15 17 29              -3.1414421    -179.9913729
 155 TORSION  12 15 17 16              -0.0002881      -0.0165061
 156 TORSION  13  9 12 15               0.0002169       0.0124248
 157 TORSION  13 16 17 29               3.1414105     179.9895645
 158 TORSION  13 16 17 15               0.0002506       0.0143564
 159 TORSION  13  9  4 18              -0.0000704      -0.0040323
 160 TORSION  14 11  6 19              -3.1413148    -179.9840785
 161 TORSION  15 12  8 22              -0.0001605      -0.0091988
 162 TORSION  15 17 16 28              -3.1413932    -179.9885748
 163 TORSION  16 17 15 27              -3.1415725    -179.9988465
 164 TORSION  17 16 13 25              -3.1415890    -179.9997934
 165 TORSION  19  6 11 24               0.0002993       0.0171485
 166 TORSION  23 10 14 26              -0.0001803      -0.0103294
 167 TORSION  24 11 14 26               0.0000079       0.0004499
 168 TORSION  25 13 16 28               0.0000555       0.0031785
 169 TORSION  27 15 17 29               0.0004588       0.0262867
 170 TORSION  28 16 17 29              -0.0002333      -0.0133668

     ------------------------------------------
     THE POINT GROUP IS C1 , NAXIS= 1, ORDER= 1
     ------------------------------------------

     DIMENSIONS OF THE SYMMETRY SUBSPACES ARE
 A   =  395

 ..... DONE SETTING UP THE RUN .....
 STEP CPU TIME =     0.03 TOTAL CPU TIME =        0.0 (    0.0 MIN)
 TOTAL WALL CLOCK TIME=        0.0 SECONDS, CPU UTILIZATION IS  75.00%


          -----------------------------
          STATIONARY POINT LOCATION RUN
          -----------------------------

 OBTAINING INITIAL HESSIAN, HESS=GUESS   
 DIAGONAL GUESS HESSIAN IN INTERNAL COORDS IS
     1  0.4198     2  0.4393     3  0.5070     4  0.4593     5  0.4874
     6  0.3867     7  0.5092     8  0.3425     9  0.4493    10  0.4897
    11  0.3871    12  0.4757    13  0.3432    14  0.3359    15  0.3360
    16  0.4481    17  0.3429    18  0.4550    19  0.4615    20  0.4747
    21  0.3436    22  0.3430    23  0.4822    24  0.4552    25  0.3424
    26  0.5015    27  0.3430    28  0.3425    29  0.5013    30  0.3431
    31  0.4614    32  0.3431    33  0.2643    34  0.2571    35  0.2679
    36  0.2619    37  0.2339    38  0.2686    39  0.2602    40  0.2659
    41  0.2327    42  0.2588    43  0.2693    44  0.2681    45  0.2677
    46  0.2687    47  0.2341    48  0.2247    49  0.2247    50  0.2523
    51  0.2643    52  0.2648    53  0.2248    54  0.2329    55  0.2694
    56  0.2248    57  0.2679    58  0.2319    59  0.2689    60  0.2628
    61  0.2613    62  0.2642    63  0.2647    64  0.2300    65  0.2653
    66  0.2687    67  0.2304    68  0.2318    69  0.2688    70  0.2319
    71  0.2324    72  0.2687    73  0.2304    74  0.2653    75  0.2300
    76  0.2692    77  0.2336    78  0.2324    79  0.2319    80  0.2336
    81  0.2692    82  0.2309    83  0.2336    84  0.2309    85  0.2336
    86  0.2018    87  0.2500    88  0.2500    89  0.2500    90  0.2500
    91  0.2500    92  0.2500    93  0.2500    94  0.2500    95  0.2500
    96  0.2500    97  0.2500    98  0.2500    99  0.2500   100  0.2500
   101  0.2500   102  0.2500   103  0.2500   104  0.2500   105  0.2500
   106  0.2500   107  0.2500   108  0.2500   109  0.2500   110  0.2500
   111  0.2500   112  0.2500   113  0.2500   114  0.2500   115  0.2500
   116  0.2500   117  0.2500   118  0.2500   119  0.2500   120  0.2500
   121  0.2500   122  0.2500   123  0.2500   124  0.2500   125  0.2500
   126  0.2500   127  0.2500   128  0.2500   129  0.2500   130  0.2500
   131  0.2500   132  0.2500   133  0.2500   134  0.2500   135  0.2500
   136  0.2500   137  0.2500   138  0.2500   139  0.2500   140  0.2500
   141  0.2500   142  0.2500   143  0.2500   144  0.2500   145  0.2500
   146  0.2500   147  0.2500   148  0.2500   149  0.2500   150  0.2500
   151  0.2500   152  0.2500   153  0.2500   154  0.2500   155  0.2500
   156  0.2500   157  0.2500   158  0.2500   159  0.2500   160  0.2500
   161  0.2500   162  0.2500   163  0.2500   164  0.2500   165  0.2500
   166  0.2500   167  0.2500   168  0.2500   169  0.2500   170  0.2500
 TRANSFORMING HESSIAN TO SYMMETRY COORDINATES

          PARAMETERS CONTROLLING GEOMETRY SEARCH ARE
          METHOD =QA                  UPHESS =BFGS    
          NNEG   =         0          NFRZ   =         3
          NSTEP  =        50          IFOLOW =         1
          HESS   =GUESS               RESTAR =         F
          IHREP  =         0          HSSEND =         F
          NPRT   =         0          NPUN   =         0
          OPTTOL = 5.000E-04          RMIN   = 1.500E-03
          RMAX   = 1.000E-01          RLIM   = 7.000E-02
          DXMAX  = 3.000E-01          PURIFY =         F
          MOVIE  =         F          TRUPD  =         T
          TRMAX  = 5.000E-01          TRMIN  = 5.000E-02
          ITBMAT =         5          STPT   =         F
          STSTEP = 1.000E-02          PROJCT=          F
          FROZEN COORD(S)=   1   2   3


      ***** EQUILIBRIUM GEOMETRY LOCATED *****
            (SUBJECT TO   3 CONSTRAINT(S))
 COORDINATES OF ALL ATOMS ARE (ANGS)
   ATOM   CHARGE       X              Y              Z
 ------------------------------------------------------------
 C           6.0   4.6518938882   4.5711431624   1.0754194068
 C           6.0   3.3657409463   5.2854932605   1.1627322288
 C           6.0   5.6839969370   5.5466151642   0.9394318765
 C           6.0   4.9390722264   3.2435305732   1.1052494894
 C           6.0   3.6064507797   6.6558932587   1.0823730773
 C           6.0   2.0743332489   4.7976226546   1.3013600928
 C           6.0   5.0863439058   6.9372756462   0.9355208603
 C           6.0   6.9789754018   5.1693060155   0.8365663775
 C           6.0   6.2924008252   2.8205073837   0.9990159866
 C           6.0   2.5559151432   7.5538882587   1.1401785300
 C           6.0   1.0243575828   5.6996477025   1.3589242693
 C           6.0   7.3142678712   3.7856936079   0.8644376116
 C           6.0   6.6484055831   1.4439570801   1.0246515824
 C           6.0   1.2631376139   7.0678111661   1.2789960790
 C           6.0   8.6621365635   3.3519766705   0.7590587130
 C           6.0   7.9481101316   1.0589294459   0.9216368522
 C           6.0   8.9726090549   2.0289843313   0.7864461557
 H           1.0   4.1648047291   2.5033357101   1.2075500610
 H           1.0   1.8850326599   3.7406138423   1.3634329672
 H           1.0   5.4658612798   7.5411467286   1.7545801966
 H           1.0   5.3074179269   7.4684918939   0.0144074851
 H           1.0   7.7667164219   5.8954452048   0.7335398448
 H           1.0   2.7331598980   8.6134755863   1.0788032362
 H           1.0   0.0168357609   5.3393930412   1.4662324122
 H           1.0   5.8696403557   0.7083646556   1.1273270514
 H           1.0   0.4374013195   7.7552703729   1.3252366734
 H           1.0   9.4357065273   4.0927521626   0.6566430826
 H           1.0   8.2065171506   0.0153066432   0.9421234562
 H           1.0   9.9971218281   1.7127972784   0.7058238697


                     --------------------
                     INTERNAL COORDINATES
                     --------------------

                 - - ATOMS - -         COORDINATE      COORDINATE
 NO.   TYPE    I  J  K  L  M  N        (BOHR,RAD)       (ANG,DEG)
 ----------------------------------------------------------------
   1 STRETCH   1  2                     2.7850926       1.4738076
   2 STRETCH   1  3                     2.6959410       1.4266306
   3 STRETCH   1  4                     2.5674669       1.3586451
   4 STRETCH   2  5                     2.6337079       1.3936983
   5 STRETCH   2  6                     2.6218675       1.3874326
   6 STRETCH   3  7                     2.8603867       1.5136516
   7 STRETCH   3  8                     2.5563130       1.3527427
   8 STRETCH   4 18                     2.0334049       1.0760316
   9 STRETCH   4  9                     2.6869568       1.4218764
  10 STRETCH   5 10                     2.6139505       1.3832432
  11 STRETCH   5  7                     2.8601896       1.5135473
  12 STRETCH   6 11                     2.6180800       1.3854284
  13 STRETCH   6 19                     2.0326244       1.0756186
  14 STRETCH   7 20                     2.0523781       1.0860718
  15 STRETCH   7 21                     2.0523453       1.0860545
  16 STRETCH   8 12                     2.6908405       1.4239316
  17 STRETCH   8 22                     2.0339181       1.0763032
  18 STRETCH   9 13                     2.6873254       1.4220715
  19 STRETCH   9 12                     2.6684029       1.4120581
  20 STRETCH  10 14                     2.6231241       1.3880976
  21 STRETCH  10 23                     2.0334610       1.0760613
  22 STRETCH  11 24                     2.0321353       1.0753598
  23 STRETCH  11 14                     2.6288769       1.3911419
  24 STRETCH  12 15                     2.6831215       1.4198469
  25 STRETCH  13 25                     2.0336417       1.0761569
  26 STRETCH  13 16                     2.5689782       1.3594448
  27 STRETCH  14 26                     2.0322936       1.0754435
  28 STRETCH  15 27                     2.0332326       1.0759404
  29 STRETCH  15 17                     2.5685346       1.3592101
  30 STRETCH  16 28                     2.0320859       1.0753336
  31 STRETCH  16 17                     2.6784031       1.4173500
  32 STRETCH  17 29                     2.0318734       1.0752212
  33 BEND      1  2  6                  2.2754343     130.3727819
  34 BEND      1  3  7                  1.9206887     110.0473583
  35 BEND      1  3  8                  2.1049299     120.6036001
  36 BEND      1  2  5                  1.8991197     108.8115412
  37 BEND      1  4 18                  2.1201953     121.4782439
  38 BEND      1  4  9                  2.0831796     119.3573972
  39 BEND      2  1  3                  1.8813344     107.7925228
  40 BEND      2  1  4                  2.2873415     131.0550146
  41 BEND      2  6 19                  2.1119552     121.0061180
  42 BEND      2  5  7                  1.9361380     110.9325370
  43 BEND      2  6 11                  2.0721656     118.7263423
  44 BEND      2  5 10                  2.0999030     120.3155814
  45 BEND      3  1  4                  2.1145093     121.1524590
  46 BEND      3  8 12                  2.0885736     119.6664544
  47 BEND      3  8 22                  2.1173472     121.3150565
  48 BEND      3  7 21                  1.9510972     111.7896330
  49 BEND      3  7 20                  1.9507883     111.7719356
  50 BEND      3  7  5                  1.7874969     102.4160274
  51 BEND      4  9 13                  2.1234101     121.6624363
  52 BEND      4  9 12                  2.0858105     119.5081385
  53 BEND      5  7 21                  1.9522322     111.8546645
  54 BEND      5 10 23                  2.1080464     120.7821609
  55 BEND      5 10 14                  2.0762077     118.9579378
  56 BEND      5  7 20                  1.9518160     111.8308208
  57 BEND      5  2  6                  2.1086313     120.8156745
  58 BEND      6 11 24                  2.0898861     119.7416542
  59 BEND      6 11 14                  2.1034897     120.5210800
  60 BEND      7  3  8                  2.2575667     129.3490414
  61 BEND      7  5 10                  2.2471442     128.7518790
  62 BEND      8 12 15                  2.1163574     121.2583478
  63 BEND      8 12  9                  2.0893677     119.7119505
  64 BEND      9  4 18                  2.0798104     119.1643589
  65 BEND      9 12 15                  2.0774602     119.0297012
  66 BEND      9 13 16                  2.1084629     120.8060248
  67 BEND      9 13 25                  2.0739774     118.8301511
  68 BEND     10 14 26                  2.0892542     119.7054462
  69 BEND     10 14 11                  2.1059733     120.6633832
  70 BEND     11  6 19                  2.0990645     120.2675395
  71 BEND     11 14 26                  2.0879578     119.6311705
  72 BEND     12 15 17                  2.1090927     120.8421097
  73 BEND     12 15 27                  2.0706263     118.6381459
  74 BEND     12  9 13                  2.0739647     118.8294251
  75 BEND     12  8 22                  2.0772645     119.0184890
  76 BEND     13 16 17                  2.0995386     120.2947022
  77 BEND     13 16 28                  2.0980622     120.2101073
  78 BEND     14 11 24                  2.0898095     119.7372659
  79 BEND     14 10 23                  2.0989312     120.2599010
  80 BEND     15 17 29                  2.0971329     120.1568620
  81 BEND     15 17 16                  2.0978515     120.1980361
  82 BEND     16 17 29                  2.0882009     119.6451008
  83 BEND     16 13 25                  2.1007450     120.3638242
  84 BEND     17 16 28                  2.0855845     119.4951904
  85 BEND     17 15 27                  2.1034663     120.5197440
  86 BEND     20  7 21                  1.8718464     107.2488986
  87 TORSION   1  3  7  5              -0.0006114      -0.0350326
  88 TORSION   1  2  6 11              -3.1414019    -179.9890694
  89 TORSION   1  3  8 22               3.1415783     179.9991753
  90 TORSION   1  3  8 12              -0.0000722      -0.0041367
  91 TORSION   1  4  9 12              -0.0000103      -0.0005913
  92 TORSION   1  4  9 13               3.1415532     179.9977420
  93 TORSION   1  2  6 19               0.0000878       0.0050296
  94 TORSION   1  3  7 21              -2.0932840    -119.9363392
  95 TORSION   1  2  5  7              -0.0004040      -0.0231451
  96 TORSION   1  3  7 20               2.0914205     119.8295705
  97 TORSION   1  2  5 10               3.1414879     179.9940000
  98 TORSION   2  5 10 23              -3.1415357    -179.9967341
  99 TORSION   2  5 10 14              -0.0000568      -0.0032522
 100 TORSION   2  6 11 14               0.0000245       0.0014018
 101 TORSION   2  6 11 24              -3.1415721    -179.9988203
 102 TORSION   2  1  3  7               0.0004062       0.0232722
 103 TORSION   2  1  4  9               3.1412049     179.9777824
 104 TORSION   2  1  3  8              -3.1412519    -179.9804785
 105 TORSION   2  5  7 21               2.0924978     119.8912944
 106 TORSION   2  5  7 20              -2.0906991    -119.7882370
 107 TORSION   2  1  4 18              -0.0003497      -0.0200357
 108 TORSION   2  5  7  3               0.0006163       0.0353117
 109 TORSION   3  1  2  5              -0.0000028      -0.0001628
 110 TORSION   3  8 12 15               3.1415518     179.9976598
 111 TORSION   3  8 12  9               0.0000996       0.0057075
 112 TORSION   3  1  4  9               0.0000390       0.0022335
 113 TORSION   3  1  4 18              -3.1415156    -179.9955846
 114 TORSION   3  1  2  6               3.1412740     179.9817418
 115 TORSION   3  7  5 10              -3.1413076    -179.9836668
 116 TORSION   4  1  2  5              -3.1412119    -179.9781866
 117 TORSION   4  1  3  7              -3.1415244    -179.9960920
 118 TORSION   4  1  3  8               0.0000027       0.0001572
 119 TORSION   4  1  2  6               0.0000649       0.0037180
 120 TORSION   4  9 12 15              -3.1415135    -179.9954648
 121 TORSION   4  9 12  8              -0.0000582      -0.0033327
 122 TORSION   4  9 13 16               3.1415148     179.9955375
 123 TORSION   4  9 13 25              -0.0000896      -0.0051311
 124 TORSION   5  7  3  8               3.1410541     179.9691420
 125 TORSION   5  2  6 11              -0.0001573      -0.0090140
 126 TORSION   5 10 14 26               3.1415682     179.9986012
 127 TORSION   5 10 14 11              -0.0000755      -0.0043272
 128 TORSION   5  2  6 19               3.1413323     179.9850850
 129 TORSION   6 11 14 26              -3.1415513    -179.9976330
 130 TORSION   6 11 14 10               0.0000924       0.0052933
 131 TORSION   6  2  5 10               0.0001754       0.0100521
 132 TORSION   6  2  5  7               3.1414689     179.9929070
 133 TORSION   7  3  8 22              -0.0000939      -0.0053811
 134 TORSION   7  3  8 12               3.1414409     179.9913069
 135 TORSION   7  5 10 14              -3.1412910    -179.9827184
 136 TORSION   7  5 10 23               0.0004154       0.0237997
 137 TORSION   8  3  7 20              -1.0500992     -60.1662548
 138 TORSION   8  3  7 21               1.0483815      60.0678355
 139 TORSION   8 12  9 13               3.1415627     179.9982866
 140 TORSION   8 12 15 17              -3.1414283    -179.9905805
 141 TORSION   8 12 15 27               0.0000234       0.0013424
 142 TORSION   9 13 16 17              -0.0000257      -0.0014740
 143 TORSION   9 13 16 28              -3.1415881    -179.9997367
 144 TORSION   9 12 15 17               0.0000249       0.0014256
 145 TORSION   9 12 15 27               3.1414766     179.9933485
 146 TORSION   9 12  8 22              -3.1415495    -179.9975283
 147 TORSION  10  5  7 20               1.0505623      60.1927844
 148 TORSION  10  5  7 21              -1.0494261     -60.1276841
 149 TORSION  10 14 11 24              -3.1414964    -179.9944846
 150 TORSION  11 14 10 23               3.1414040     179.9891897
 151 TORSION  12  9 13 25               3.1414742     179.9932132
 152 TORSION  12  9 13 16              -0.0001068      -0.0061182
 153 TORSION  12  9  4 18               3.1415451     179.9972778
 154 TORSION  12 15 17 29              -3.1415440    -179.9972144
 155 TORSION  12 15 17 16              -0.0001592      -0.0091218
 156 TORSION  13  9 12 15               0.0001074       0.0061545
 157 TORSION  13 16 17 29               3.1415468     179.9973735
 158 TORSION  13 16 17 15               0.0001609       0.0092198
[...]
 874  14  -1.386872  13.148301   2.299799  -0.000073   0.006625  -0.011011
 875  26  -1.407802  13.443095   2.331711  -0.000110   0.006625  -0.016586
 876  11  -1.339054  12.736913   3.248379  -0.000093   0.006625  -0.013976
 877  14  -1.301727  13.187891   3.231832  -0.000066   0.006625  -0.009947
 878  26  -1.330348  13.479109   3.179554  -0.000120   0.006625  -0.018137
 879  14   2.681533  12.091764  -1.125861   0.001583   0.201940   0.007839
 880  14   0.721857  12.458711  -0.699098   0.002350   0.413209   0.005686
 881  14  -0.963245  12.856166   1.070149  -0.000991   0.413209  -0.002398
 882  11   1.805770  11.592182  -0.981131   0.003403   0.413209   0.008236
 883  11  -0.392898  12.037060   0.065632   0.000870   0.413209   0.002106
 884  11  -1.419926  12.317885   1.804441  -0.000621   0.201940  -0.003074
 885  14  -1.126710  13.041585   3.755685  -0.000631   0.201930  -0.003127
 886  14   0.199912  12.900120   5.297372   0.000850   0.413187   0.002056
 887  14   2.554868  12.528000   5.962935   0.003377   0.413187   0.008173
 888  11  -0.772057  12.357735   4.422020  -0.000973   0.413187  -0.002355
 889  11   1.208130  12.097570   5.884360   0.002374   0.413187   0.005746
 890  11   3.215341  11.752792   5.979082   0.001574   0.201930   0.007797
 891  11  -1.434069  12.385297   3.222360  -0.000160   0.015222  -0.010529
 892  24  -1.546776  12.111548   3.201602  -0.000170   0.015222  -0.011171
 893  26  -1.327830  13.115941   3.131581  -0.000149   0.015222  -0.009799
 894  11  -1.509137  12.350387   2.400300  -0.000151   0.015222  -0.009913
 895  24  -1.614129  12.080227   2.464036  -0.000185   0.015222  -0.012130
 896  26  -1.393850  13.085240   2.408615  -0.000149   0.015222  -0.009814
 897  24  -0.355117   7.805301   3.576225  -0.000492   0.071212  -0.006913
 898  24  -0.510632   8.511717   4.487717  -0.000948   0.160389  -0.005912
 899  24  -0.913126   9.774478   4.948066  -0.000897   0.160389  -0.005592
 900  24  -1.401820  10.996108   4.460945  -0.000951   0.160389  -0.005927
 901  24  -1.724496  11.622760   3.535086  -0.000469   0.071212  -0.006588
 902  11  -0.012086   7.962822   4.050672  -0.000976   0.153876  -0.006341
 903  11  -0.330437   9.147565   5.039142  -0.000628   0.153876  -0.004081
 904  11  -0.862357  10.630413   5.023162  -0.000573   0.153876  -0.003723
 905  11  -1.362807  11.728265   4.010095  -0.000965   0.153876  -0.006269
 906  24  -1.845457  11.566509   2.210476  -0.000491   0.071212  -0.006892
 907  24  -1.690692  10.861768   1.297557  -0.000986   0.160389  -0.006146
 908  24  -1.288758   9.599787   0.834578  -0.000764   0.160389  -0.004765
 909  24  -0.799981   8.377150   1.319090  -0.000985   0.160389  -0.006141
 910  24  -0.476811   7.748704   2.243563  -0.000474   0.071212  -0.006654
 911  11  -1.576430  11.628920   1.670741  -0.000980   0.153877  -0.006371
 912  11  -1.258977  10.445963   0.679842  -0.000563   0.153877  -0.003660
 913  11  -0.727341   8.962979   0.692695  -0.000604   0.153877  -0.003923
 914  11  -0.226434   7.863135   1.703377  -0.001039   0.153877  -0.006750
 915  11  -1.561697  12.508102   2.350928  -0.000018   0.007279  -0.002417
 916  11  -1.476842  12.547426   3.271767  -0.000023   0.007334  -0.003072
 917  12  13.966836   5.108460  -1.612417   0.000500   0.107305   0.004656
 918  13  13.745877   4.341900  -1.500384   0.000429   0.107305   0.004001
 919  15  14.411835   4.970927  -1.629176   0.000607   0.107305   0.005659
 920  12  14.570063   5.386502   4.958882   0.000489   0.107305   0.004557
 921  13  14.338324   4.614973   4.953485   0.000434   0.107305   0.004045
 922  15  15.011741   5.247438   4.905951   0.000579   0.107305   0.005394
 923  15  15.990817   7.607696   4.961981   0.000954   0.216751   0.004401
 924  15  15.498308   6.045893   5.090487   0.001328   0.216751   0.006126
 925  12  15.109800   7.026708   5.023107   0.002112   0.445244   0.004742
 926  15  14.850568   5.747231  -1.965284   0.001339   0.216702   0.006180
 927  15  15.346087   7.310135  -2.059833   0.000963   0.216702   0.004445
 928  12  14.473185   6.733034  -1.910905   0.002216   0.445132   0.004979
 929  13  14.464436   4.152641   5.006146   0.000693   0.100990   0.006859
 930  15  15.130723   4.781020   4.877399   0.000514   0.100990   0.005089
 931  16  14.893400   4.031765   4.991662   0.000724   0.100990   0.007172
 932  13  13.863883   3.875811  -1.536170   0.000669   0.100990   0.006620
 933  15  14.537621   4.507624  -1.583755   0.000522   0.100990   0.005171
 934  16  14.289253   3.753278  -1.589810   0.000734   0.100990   0.007264
 935  16  14.647308   3.207991   5.291807   0.001733   0.202366   0.008564
 936  16  14.046016   1.215385   5.153078   0.003305   0.415549   0.007954
 937  16  13.368231  -0.654771   3.591591  -0.000788   0.415549  -0.001896
 938  13  13.812422   2.617465   5.346832   0.003923   0.415549   0.009441
 939  13  13.071850   0.315961   4.605382   0.001593   0.415549   0.003834
 940  13  12.584636  -0.892935   2.976743  -0.000694   0.202366  -0.003430
 941  16  13.030267  -1.147359   1.168699  -0.000695   0.202377  -0.003435
 942  16  13.204042  -0.083002  -0.616983   0.001612   0.415575   0.003878
 943  16  13.779824   2.142601  -1.670969   0.003949   0.415575   0.009503
 944  13  12.472795  -0.607846   0.500117  -0.000825   0.415575  -0.001985
 945  13  12.841095   1.119636  -1.309822   0.003298   0.415575   0.007936
 946  13  13.391841   3.089023  -1.722023   0.001778   0.202377   0.008784
 947  13  12.425848  -1.059773   1.829832  -0.000136   0.010111  -0.013474
 948  25  12.135211  -1.030455   1.884016  -0.000149   0.010111  -0.014728
 949  28  13.126812  -1.279256   1.808314  -0.000152   0.010111  -0.015068
 950  13  12.476691  -1.036307   2.383528  -0.000127   0.010111  -0.012564
 951  25  12.180830  -1.009400   2.380816  -0.000151   0.010111  -0.014946
 952  28  13.171557  -1.258605   2.295597  -0.000161   0.010111  -0.015948
 953  25  11.684019  -0.972107   2.710165  -0.000552   0.069224  -0.007981
 954  25  11.347313  -0.481223   3.673029  -0.001000   0.154802  -0.006457
 955  25  10.554109   0.444822   4.291058  -0.000914   0.154802  -0.005905
 956  25   9.772985   1.258975   4.199158  -0.000367   0.069224  -0.005297
 957  13  11.978465  -0.739786   3.175992  -0.000994   0.150608  -0.006600
 958  13  11.326404   0.104684   4.280095  -0.000636   0.150608  -0.004221
 959  13  10.296203   1.224211   4.486737  -0.000697   0.150608  -0.004627
 960  25   9.419607   1.095750   0.349830  -0.000415   0.069222  -0.006001
 961  25  10.177244   0.270787   0.186163  -0.000898   0.154796  -0.005801
 962  25  11.076656  -0.606180   0.725206  -0.001004   0.154796  -0.006485
 963  25  11.586537  -1.017103   1.648531  -0.000545   0.069222  -0.007876
 964  13   9.882085   1.032949  -0.024103  -0.000687   0.150604  -0.004560
 965  13  10.941249  -0.073156   0.085071  -0.000619   0.150604  -0.004107
 966  13  11.789607  -0.826969   1.119127  -0.001058   0.150604  -0.007026
 967  28  13.614866  -1.560089   2.309213  -0.000100   0.008468  -0.011812
 968  13  12.602996  -1.149182   2.420133  -0.000055   0.011959  -0.004569
 969  28  13.562703  -1.584585   1.748437  -0.000106   0.008490  -0.012506
 970  13  12.544136  -1.175959   1.772391  -0.000062   0.011991  -0.005181
 971  26   1.122861  16.955021   1.702278  -0.000493   0.070861  -0.006956
 972  26   0.591687  16.374149   0.852732  -0.000955   0.159399  -0.005993
 973  26  -0.284361  15.345780   0.497748  -0.000904   0.159399  -0.005673
 974  26  -1.076778  14.354724   1.081613  -0.000949   0.159399  -0.005953
 975  26  -1.445603  13.846284   2.054620  -0.000467   0.070861  -0.006592
 976  14   1.310487  16.703797   1.185084  -0.000977   0.153297  -0.006376
 977  14   0.453800  15.734458   0.298132  -0.000642   0.153297  -0.004187
 978  14  -0.541449  14.529861   0.434660  -0.000583   0.153297  -0.003802
 979  14  -1.221344  13.639399   1.532401  -0.000954   0.153297  -0.006223
 980  26  -1.320499  13.904457   3.424017  -0.000489   0.070864  -0.006896
 981  26  -0.785651  14.490115   4.268021  -0.000986   0.159408  -0.006186
 982  26   0.091707  15.520702   4.613427  -0.000777   0.159408  -0.004874
 983  26   0.881171  16.508819   4.020514  -0.000987   0.159408  -0.006195
 984  26   1.245393  17.012032   3.043007  -0.000473   0.070864  -0.006675
 985  14  -1.003886  13.740524   3.912591  -0.000974   0.153303  -0.006355
 986  14  -0.143465  14.714962   4.790404  -0.000574   0.153303  -0.003744
 987  14   0.850809  15.919135   4.642764  -0.000619   0.153303  -0.004038
 988  14   1.525424  16.803794   3.537014  -0.001038   0.153303  -0.006774
 989  15  14.898288   4.603723  -1.711248   0.000463   0.047903   0.009656
 990  16  14.663466   3.847803  -1.656149   0.000431   0.047903   0.008991
 991  17  14.985098   4.169899  -1.736623   0.000506   0.047903   0.010558
 992  15  15.508653   4.884429   4.928820   0.000447   0.047903   0.009332
 993  16  15.273547   4.128378   4.980835   0.000421   0.047903   0.008795
 994  17  15.601966   4.453595   4.974191   0.000489   0.047903   0.010204
 995  17  20.237089   5.608584   2.021959  -0.000690   0.201511  -0.003422
 996  17  19.238846   5.411842   3.834197   0.001615   0.413625   0.003904
 997  17  17.036248   4.918158   4.955060   0.003906   0.413625   0.009444
 998  15  19.759575   6.163664   2.734352  -0.000775   0.413625  -0.001875
 999  15  18.093046   5.811028   4.591723   0.003277   0.413625   0.007922
1000  15  16.120905   5.358038   5.065918   0.001736   0.201511   0.008614
1001  17  15.616867   4.441412  -1.983838   0.001737   0.201554   0.008620
1002  17  17.639211   4.917409  -1.915818   0.003283   0.413723   0.007936
1003  17  19.613165   5.411441  -0.428128  -0.000759   0.413723  -0.001834
1004  15  16.250523   5.241538  -2.030512   0.003894   0.413723   0.009412
1005  15  18.616777   5.810425  -1.374010   0.001606   0.413723   0.003882
1006  15  19.926411   6.150431   0.204067  -0.000657   0.201554  -0.003261
1007  15  20.158428   6.250404   1.311338  -0.000109   0.008000  -0.013622
1008  27  20.143296   6.545040   1.277490  -0.000131   0.008000  -0.016364
1009  29  20.336274   5.537888   1.298595  -0.000137   0.008000  -0.017085
1010  15  20.118161   6.231847   0.872952  -0.000104   0.008000  -0.012968
1011  27  20.107169   6.528390   0.884175  -0.000132   0.008000  -0.016471
1012  29  20.300838   5.521558   0.912809  -0.000143   0.008000  -0.017910
1013  27  20.089310   7.037226   0.578984  -0.000556   0.069681  -0.007984
1014  27  19.586715   7.431651  -0.364406  -0.001005   0.156082  -0.006437
1015  27  18.681146   8.299238  -0.929176  -0.000932   0.156082  -0.005970
1016  27  17.910276   9.124866  -0.780000  -0.000360   0.069681  -0.005166
1017  15  19.826872   6.771081   0.109716  -0.001018   0.151362  -0.006726
1018  15  18.981595   7.506799  -0.953474  -0.000645   0.151362  -0.004261
1019  15  17.908040   8.609432  -1.086990  -0.000717   0.151362  -0.004738
1020  27  18.265562   9.288849   3.089759  -0.000410   0.069686  -0.005877
1021  27  19.057088   8.472682   3.165045  -0.000912   0.156094  -0.005844
1022  27  19.851588   7.553794   2.519789  -0.001026   0.156094  -0.006576
1023  27  20.177313   7.077791   1.537121  -0.000553   0.069686  -0.007931
1024  15  18.323155   8.800996   3.434177  -0.000687   0.151369  -0.004536
1025  15  19.363068   7.682753   3.200669  -0.000624   0.151369  -0.004121
1026  15  20.006625   6.853958   2.066939  -0.001087   0.151369  -0.007178
1027  29  20.567600   5.057991   0.823695  -0.000212   0.024190  -0.008754
1028  15  20.216578   6.097393   0.794745  -0.000123   0.034165  -0.003589
1029  29  20.618116   5.081995   1.351392  -0.000215   0.024356  -0.008835
1030  15  20.270667   6.121632   1.404789  -0.000135   0.034399  -0.003921
1031  16  18.187834  -0.050665   1.973342  -0.000072   0.006273  -0.011431
1032  17  18.490165   0.294583   1.925208  -0.000097   0.006273  -0.015442
1033  28  18.029622  -0.301827   1.959061  -0.000108   0.006273  -0.017269
1034  16  18.108620  -0.087212   1.110747  -0.000082   0.006273  -0.013051
1035  17  18.411995   0.258517   1.073982  -0.000099   0.006273  -0.015776
1036  28  17.957581  -0.335065   1.174571  -0.000105   0.006273  -0.016729
1037  17  18.540435   0.551359   0.507588  -0.000730   0.207004  -0.003529
1038  17  17.569238   1.351500  -1.111008   0.000087   0.423446   0.000207
1039  17  15.893079   3.011499  -1.901955   0.002836   0.423446   0.006698
1040  16  17.718473   0.369159  -0.085762  -0.001404   0.423446  -0.003316
1041  16  16.287626   1.661102  -1.658740   0.001563   0.423446   0.003691
1042  16  14.870884   3.129723  -1.856977   0.001461   0.207004   0.007057
1043  17  15.998201   3.881358   5.136785   0.001396   0.206974   0.006744
1044  17  17.366315   2.390629   4.807845   0.001565   0.423380   0.003695
1045  17  18.496981   0.960603   3.114971  -0.001393   0.423380  -0.003291
1046  16  16.054951   2.853030   5.131108   0.002782   0.423380   0.006570
1047  16  17.571805   1.119967   4.190444   0.000080   0.423380   0.000190
1048  16  18.238509   0.179624   2.495312  -0.000739   0.206974  -0.003571
1049  28  17.819010  -0.634455   2.263382  -0.000494   0.072386  -0.006822
1050  28  17.206094  -0.766557   3.264733  -0.001062   0.163683  -0.006487
1051  28  15.948619  -1.066222   3.860260  -0.000812   0.163683  -0.004963
1052  28  14.619721  -1.402775   3.477559  -0.001017   0.163683  -0.006216
1053  28  13.868780  -1.606166   2.588437  -0.000515   0.072386  -0.007108
1054  16  17.755245  -0.303503   2.773267  -0.001063   0.155828  -0.006822
1055  16  16.651561  -0.554636   3.901213  -0.000626   0.155828  -0.004020
1056  16  15.104797  -0.935122   4.028492  -0.000605   0.155828  -0.003880
1057  16  13.850573  -1.264007   3.094573  -0.001046   0.155828  -0.006715
1058  28  13.761845  -1.655508   1.423716  -0.000521   0.072385  -0.007202
1059  28  14.337065  -1.533197   0.399050  -0.000960   0.163679  -0.005866
1060  28  15.571607  -1.240177  -0.245687  -0.000941   0.163679  -0.005750
1061  28  16.914026  -0.901316   0.084050  -0.001024   0.163679  -0.006253
1062  28  17.697723  -0.690415   0.942606  -0.000480   0.072385  -0.006635
1063  16  13.649304  -1.356876   0.902443  -0.000981   0.155826  -0.006294
1064  16  14.710288  -1.117152  -0.268123  -0.000624   0.155826  -0.004002
1065  16  16.251421  -0.739260  -0.456506  -0.000640   0.155826  -0.004107
1066  16  17.539782  -0.402915   0.426883  -0.001042   0.155826  -0.006690
1067  17  18.703627   0.489247   1.099900  -0.000150   0.013680  -0.010996
1068  28  18.174926  -0.033915   1.215277  -0.000154   0.013680  -0.011233
1069  29  18.956396   0.644319   1.108058  -0.000181   0.013680  -0.013237
1070  17  18.770429   0.520102   1.827771  -0.000161   0.013680  -0.011781
1071  28  18.233610  -0.006810   1.854697  -0.000149   0.013680  -0.010904
1072  29  19.016307   0.671990   1.760836  -0.000172   0.013680  -0.012565
1073  28  17.916429  -0.514117   1.212893  -0.000074   0.008176  -0.009048
1074  17  18.643624   0.328243   1.061780  -0.000031   0.011531  -0.002698
1075  28  17.983933  -0.483903   1.935939  -0.000087   0.008115  -0.010746
1076  17  18.719265   0.364022   1.896855  -0.000039   0.011445  -0.003411
1077  29  20.690833   4.859925   1.710381  -0.000515   0.072566  -0.007093
1078  29  20.575795   4.232697   2.708390  -0.000967   0.164203  -0.005886
1079  29  20.234725   2.977943   3.295160  -0.000946   0.164203  -0.005761
1080  29  19.802192   1.676983   2.900884  -0.001036   0.164203  -0.006312
1081  29  19.510499   0.960513   2.004080  -0.000496   0.072566  -0.006839
1082  17  20.420856   4.958428   2.250673  -0.000988   0.156113  -0.006327
1083  17  20.165041   3.843659   3.371810  -0.000631   0.156113  -0.004041
1084  17  19.702239   2.314721   3.486968  -0.000646   0.156113  -0.004139
1085  17  19.253715   1.102600   2.541090  -0.001066   0.156113  -0.006826
1086  29  19.395931   0.907611   0.755697  -0.000515   0.072574  -0.007093
1087  29  19.514325   1.544145  -0.236160  -0.001071   0.164227  -0.006522
1088  29  19.858054   2.804251  -0.810124  -0.000812   0.164227  -0.004944
1089  29  20.290426   4.101201  -0.402174  -0.001019   0.164227  -0.006206
1090  29  20.580023   4.808897   0.502411  -0.000505   0.072574  -0.006958
1091  17  19.044773   1.006154   0.264243  -0.001078   0.156127  -0.006907
1092  17  19.304678   2.131329  -0.845733  -0.000638   0.156127  -0.004086
1093  17  19.768981   3.661092  -0.945051  -0.000609   0.156127  -0.003899
1094  17  20.215649   4.863897   0.013784  -0.001056   0.156127  -0.006762
1095  19   4.292073   5.114372   0.882094  -0.000976   0.268291  -0.003638
1096  19   4.071906   4.578802   1.913100  -0.003566   0.536469  -0.006648
1097  19   4.202575   4.639388   3.343239  -0.003590   0.536469  -0.006692
1098  19   4.601508   5.257846   4.268791  -0.000932   0.268291  -0.003474
1099  18   5.566764   4.139275   1.166820  -0.003192   0.536469  -0.005950
1100  18   5.448598   3.747931   2.544836  -0.003760   0.536469  -0.007009
1101  18   5.811096   4.252563   3.840978  -0.003185   0.536469  -0.005937
1102  25   9.032042   1.511230   3.813697  -0.000926   0.265947  -0.003481
1103  25   8.575316   1.125025   2.748934  -0.003290   0.532009  -0.006184
1104  25   8.638481   1.250964   1.273300  -0.003039   0.532009  -0.005713
1105  18   7.812888   2.418588   3.470696  -0.003121   0.532009  -0.005867
1106  18   7.484024   2.169872   2.046851  -0.003492   0.532009  -0.006564
1107  18   7.737016   2.461933   0.888330  -0.000988   0.265947  -0.003713
1108  24  -0.159866   7.416621   2.854452  -0.000204   0.158651  -0.001285
1109  19   0.968593   6.462140   2.886103  -0.000302   0.158651  -0.001904
1110  22  14.491983  13.508904   2.798306  -0.000264   0.234428  -0.001126
1111  20  13.076590  14.461165   3.522171  -0.000078   0.234428  -0.000334
1112  23   7.348812  17.299433   3.386573  -0.000188   0.246773  -0.000764
1113  20   9.071620  16.680460   3.698803  -0.000082   0.246773  -0.000332
1114  22  14.204346  13.317074  -0.248915  -0.000210   0.237596  -0.000884
1115  21  12.709348  14.353037  -0.600997  -0.000059   0.237596  -0.000250
1116  23   7.121713  17.216071   0.330396  -0.000319   0.249554  -0.001279
1117  21   8.645501  16.462164  -0.416027  -0.000108   0.249554  -0.000434
1118  27  17.724349   9.865466  -0.351062  -0.000921   0.266153  -0.003459
1119  27  18.190670  10.251525   0.719745  -0.003282   0.532464  -0.006164
1120  27  18.123782  10.126223   2.205457  -0.003044   0.532464  -0.005717
1121  22  16.924818  11.115238   0.088285  -0.003140   0.532464  -0.005897
1122  22  17.259591  11.364055   1.521301  -0.003410   0.532464  -0.006404
1123  22  16.998587  11.072663   2.687531  -0.000922   0.266153  -0.003465
1124  26   1.554086  17.233238   2.375503  -0.000209   0.160350  -0.001305
1125  23   2.921831  17.743738   2.133578  -0.000262   0.160350  -0.001634
1126  26  -1.552595  13.469590   2.697573  -0.000585   0.250710  -0.002332
1127  24  -1.791230  12.027802   2.929324  -0.000551   0.250710  -0.002198
1128  28  13.401457  -1.593957   2.092646  -0.000329   0.167550  -0.001962
1129  25  11.992197  -1.182911   2.104469  -0.000310   0.167550  -0.001851
1130  29  20.626979   5.261974   1.049058  -0.000186   0.132602  -0.001400
1131  27  20.297799   6.691318   1.098085  -0.000197   0.132602  -0.001487
1132  29  19.211873   0.585616   1.482665  -0.000465   0.223742  -0.002079
1133  28  18.125854  -0.438108   1.494051  -0.000444   0.223742  -0.001985
 =====================================================

             12809545  WORDS OF DYNAMIC MEMORY USED
 EXECUTION OF GAMESS TERMINATED NORMALLY Wed Nov 23 03:56:28 2016
 DDI: 263640 bytes (0.3 MB / 0 MWords) used by master data server.

 ----------------------------------------
 CPU timing information for all processes
 ========================================
 0: 3978.720 + 0.840 = 3979.560
 ----------------------------------------
 ddikick.x: exited gracefully.
