----- GAMESS execution script -----

          ******************************************************
          *         GAMESS VERSION =  5 DEC 2014 (R1)          *
          *             FROM IOWA STATE UNIVERSITY             *
          * M.W.SCHMIDT, K.K.BALDRIDGE, J.A.BOATZ, S.T.ELBERT, *
          *   M.S.GORDON, J.H.JENSEN, S.KOSEKI, N.MATSUNAGA,   *
          *          K.A.NGUYEN, S.J.SU, T.L.WINDUS,           *
          *       TOGETHER WITH M.DUPUIS, J.A.MONTGOMERY       *
          *         J.COMPUT.CHEM.  14, 1347-1363(1993)        *
          **************** 64 BIT LINUX VERSION ****************

 EXECUTION OF GAMESS BEGUN Wed Nov 23 03:33:54 2016

            ECHO OF THE FIRST FEW INPUT CARDS -
 INPUT CARD>! SELECT RESTRICTED HARTREE-FOCK AS DEFAULT                                     
 INPUT CARD>$contrl scftyp=rhf $end                                                         
 INPUT CARD>                                                                                
 INPUT CARD>! THEORY: HF OR DFT                                                             
 INPUT CARD> $contrl mplevl=0 $end                                                          
 INPUT CARD>                                                                                
 INPUT CARD> $system timlim=10000 mwords=20 $end                                            
 INPUT CARD> $SCF DIRSCF=.TRUE. $end                                                        
 INPUT CARD>                                                                                
 INPUT CARD>                                                                                
 INPUT CARD>! BASIS SETS                                                                    
 INPUT CARD>! 6-311G(d,p)                                                                   
 INPUT CARD> $BASIS GBASIS=N311 NGAUSS=6 NDFUNC=1 NPFUNC=1 $END                             
 INPUT CARD>                                                                                
 INPUT CARD>! One of the following                                                          
 INPUT CARD> $guess guess=HUCKEL $end                                                       
 INPUT CARD>                                                                                
 INPUT CARD> $statpt projct=.FALSE. $end                                                    
 INPUT CARD> $STATPT IFREEZ(1)=1,2,3 $END                                                   
 INPUT CARD>                                                                                
 INPUT CARD>! Optimize the geometry with COSMO effects                                      
 INPUT CARD> $statpt opttol=0.0005 nstep=50 $end                                            
 INPUT CARD> $contrl nzvar=1 $end                                                           
 INPUT CARD> $zmat dlc=.t. auto=.t. $end                                                    
 INPUT CARD> $contrl runtyp=OPTIMIZE maxit=200 $end                                         
 INPUT CARD>                                                                                
 INPUT CARD>! Run COSMO on perfect conductor                                                
 INPUT CARD> $COSGMS PRFCND=.TRUE. $end                                                     
 INPUT CARD>                                                                                
 INPUT CARD>! Specifying RSOLV                                                              
 INPUT CARD> $COSGMS COSRAD = 1.4 $end                                                      
 INPUT CARD>                                                                                
 INPUT CARD>! available memory                                                              
 INPUT CARD> $SYSTEM MWORDS=40 $END                                                         
 INPUT CARD>                                                                                
 INPUT CARD> $DATA                                                                          
 INPUT CARD>http://cactus.nci.nih.gov/chemical/structure/2,3-DIMETHYL-3-PENTANOL/file?format
 INPUT CARD>C1                                                                              
 INPUT CARD>C      6.0      2.2132000000   -0.8232000000    0.0342000000                    
 INPUT CARD>C      6.0      1.1647000000    0.1660000000    0.5471000000                    
 INPUT CARD>C      6.0      1.5268000000    1.5786000000    0.0843000000                    
 INPUT CARD>C      6.0     -0.2098000000   -0.2154000000   -0.0060000000                    
 INPUT CARD>C      6.0     -1.2583000000    0.7738000000    0.5069000000                    
 INPUT CARD>C      6.0     -2.6490000000    0.3220000000    0.0567000000                    
 INPUT CARD>O      8.0     -0.1762000000   -0.1760000000   -1.4341000000                    
 INPUT CARD>C      6.0     -0.5719000000   -1.6280000000    0.4568000000                    
 INPUT CARD>H      1.0      3.1925000000   -0.5516000000    0.4283000000                    
 INPUT CARD>H      1.0      1.9553000000   -1.8296000000    0.3640000000                    
 INPUT CARD>H      1.0      2.2389000000   -0.7932000000   -1.0550000000                    
 INPUT CARD>H      1.0      1.1391000000    0.1359000000    1.6364000000                    
   40000000 WORDS OF MEMORY AVAILABLE

     BASIS OPTIONS
     -------------
     GBASIS=N311         IGAUSS=       6      POLAR=POPN311 
     NDFUNC=       1     NFFUNC=       0     DIFFSP=       F
     NPFUNC=       1      DIFFS=       F     BASNAM=        


     RUN TITLE
     ---------
 http://cactus.nci.nih.gov/chemical/structure/2,3-DIMETHYL-3-PENTANOL/file?format

 THE POINT GROUP OF THE MOLECULE IS C1      
 THE ORDER OF THE PRINCIPAL AXIS IS     0

 ATOM      ATOMIC                      COORDINATES (BOHR)
           CHARGE         X                   Y                   Z
 C           6.0     4.1823415560       -1.5556224331        0.0646286288
 C           6.0     2.2009638579        0.3136945140        1.0338690879
 C           6.0     2.8852336381        2.9831214442        0.1593039008
 C           6.0    -0.3964645122       -0.4070469778       -0.0113383559
 C           6.0    -2.3778422104        1.4622699693        0.9579021032
 C           6.0    -5.0058841415        0.6084917680        0.1071474635
 O           8.0    -0.3329697190       -0.3325917738       -2.7100560390
 C           6.0    -1.0807342924       -3.0764739080        0.8632268312
 H           1.0     6.0329502158       -1.0423728548        0.8093696405
 H           1.0     3.6949812238       -3.4574426671        0.6878602595
 H           1.0     4.2309075139       -1.4989306535       -1.9936609170
 H           1.0     2.1525868726        0.2568137617        3.0923476063
 H           1.0     2.9337995959        3.0398132238       -1.8991746177
 H           1.0     1.4737972978        4.3148113478        0.8498097767
 H           1.0     4.7358422978        3.4963710225        0.9040449125
 H           1.0    -2.3103789926        1.5289772967        3.0154357586
 H           1.0    -1.9847792049        3.3355553409        0.1969094479
 H           1.0    -5.3991361195       -1.2647936036        0.8681401188
 H           1.0    -6.4175094543        1.9401816716        0.7976533394
 H           1.0    -5.0735363318        0.5417844407       -1.9505751645
 H           1.0     0.0895730118        1.3063675753       -3.3986721889
 H           1.0    -1.1293002503       -3.1331656876        2.9217053496
 H           1.0    -2.9313429522       -3.5897234863        0.1184858194
 H           1.0     0.3307020479       -4.4081638116        0.1727209553

          INTERNUCLEAR DISTANCES (ANGS.)




     $CONTRL OPTIONS
     ---------------
 SCFTYP=RHF          RUNTYP=OPTIMIZE     EXETYP=RUN     
 MPLEVL=       0     CITYP =NONE         CCTYP =NONE         VBTYP =NONE    
 DFTTYP=NONE         TDDFT =NONE    
 MULT  =       1     ICHARG=       0     NZVAR =       1     COORD =UNIQUE  
 PP    =NONE         RELWFN=NONE         LOCAL =NONE         NUMGRD=       F
 ISPHER=      -1     NOSYM =       0     MAXIT =     200     UNITS =ANGS    
 PLTORB=       F     MOLPLT=       F     AIMPAC=       F     FRIEND=        
 NPRINT=       7     IREST =       0     GEOM  =INPUT   
 NORMF =       0     NORMP =       0     ITOL  =      20     ICUT  =       9
 INTTYP=BEST         GRDTYP=BEST         QMTTOL= 1.0E-06

     $SYSTEM OPTIONS
     ---------------
  REPLICATED MEMORY=    40000000 WORDS (ON EVERY NODE).
 DISTRIBUTED MEMDDI=           0 MILLION WORDS IN AGGREGATE,
 MEMDDI DISTRIBUTED OVER   1 PROCESSORS IS           0 WORDS/PROCESSOR.
 TOTAL MEMORY REQUESTED ON EACH PROCESSOR=    40000000 WORDS.
 TIMLIM=       10000.00 MINUTES, OR       6.9 DAYS.
 PARALL= F  BALTYP=  DLB     KDIAG=    0  COREFL= F
 MXSEQ2=     300 MXSEQ3=     150  mem10=         0

     $COSGMS OPTIONS
     ---------------
     EPSI  =   INFTY     NSPA  =      92     COSRAD=    1.40
     DISEX =   10.00     OUTCHG=DBLCAV       COSBUG=       F
     COSWRT=       F     DCOSMO=       F

     SYMMETRY COORDINATES WILL NOT BE USED FOR 
     THE COSMO CALCULATION, EVEN IF SPECIFIED:
         -- SWITCHING TO C1 POINT GROUP --


     DEFINITION OF CAVITY
     ---------------------------
     ATOM         COORDINATES           RADIUS 
     1    4.1823   -1.5556    0.0646    2.0000
     2    2.2010    0.3137    1.0339    2.0000
     3    2.8852    2.9831    0.1593    2.0000
     4   -0.3965   -0.4070   -0.0113    2.0000
     5   -2.3778    1.4623    0.9579    2.0000
     6   -5.0059    0.6085    0.1071    2.0000
     7   -0.3330   -0.3326   -2.7101    1.7200
     8   -1.0807   -3.0765    0.8632    2.0000
     9    6.0330   -1.0424    0.8094    1.3000
    10    3.6950   -3.4574    0.6879    1.3000
    11    4.2309   -1.4989   -1.9937    1.3000
    12    2.1526    0.2568    3.0923    1.3000
    13    2.9338    3.0398   -1.8992    1.3000
    14    1.4738    4.3148    0.8498    1.3000
    15    4.7358    3.4964    0.9040    1.3000
    16   -2.3104    1.5290    3.0154    1.3000
    17   -1.9848    3.3356    0.1969    1.3000
    18   -5.3991   -1.2648    0.8681    1.3000
    19   -6.4175    1.9402    0.7977    1.3000
    20   -5.0735    0.5418   -1.9506    1.3000
    21    0.0896    1.3064   -3.3987    1.3000
    22   -1.1293   -3.1332    2.9217    1.3000
    23   -2.9313   -3.5897    0.1185    1.3000
    24    0.3307   -4.4082    0.1727    1.3000

          ----------------
          PROPERTIES INPUT
          ----------------

     MOMENTS            FIELD           POTENTIAL          DENSITY
 IEMOM =       1   IEFLD =       0   IEPOT =       0   IEDEN =       0
 WHERE =COMASS     WHERE =NUCLEI     WHERE =NUCLEI     WHERE =NUCLEI  
 OUTPUT=BOTH       OUTPUT=BOTH       OUTPUT=BOTH       OUTPUT=BOTH    
 IEMINT=       0   IEFINT=       0                     IEDINT=       0
                                                       MORB  =       0
          EXTRAPOLATION IN EFFECT
          SOSCF IN EFFECT
 ORBITAL PRINTING OPTION: NPREO=     1   248     2     1

     -------------------------------
     INTEGRAL TRANSFORMATION OPTIONS
     -------------------------------
     NWORD  =            0
     CUTOFF = 1.0E-09     MPTRAN =       0
     DIRTRF =       T     AOINTS =DUP     

          ----------------------
          INTEGRAL INPUT OPTIONS
          ----------------------
 NOPK  =       1 NORDER=       0 SCHWRZ=       T


 -----------------------------------------------
  STATISTICS ON AUTOMATIC COORDINATE GENERATION 
 -----------------------------------------------
  NUMBER OF USER SPECIFIED BONDS                             0
  NUMBER OF BONDS                                           23
  NUMBER OF ANGLES                                          43
  NUMBER OF TORSIONS                                        57
  NUMBER OF EXTRA COORD.                                     0
  NUMBER OF EXTRA COORD. FOR CONSTRAINTS                     0
  NUMBER OF CONSTRAINED COORD.                               0

  TOTAL NUMBER OF PRIMITIVES                               123
 -----------------------------------------------

   --- ENCODED Z MATRIX ---
 COORD  TYPE   I   J   K   L   M   N
    1      1    1   9
    2      1    1   2
    3      1    1  11
    4      1    1  10
    5      1    2   4
    6      1    2   3
    7      1    2  12
    8      1    3  14
    9      1    3  13
   10      1    3  15
   11      1    4   8
   12      1    4   7
   13      1    4   5
   14      1    5  16
   15      1    5   6
   16      1    5  17
   17      1    6  20
   18      1    6  19
   19      1    6  18
   20      1    7  21
   21      1    8  24
   22      1    8  23
   23      1    8  22
   24      2    1   2   3
   25      2    1   2   4
   26      2    1   2  12
   27      2    2   1  11
   28      2    2   4   8
   29      2    2   3  13
   30      2    2   3  15
   31      2    2   4   5
   32      2    2   1   9
   33      2    2   3  14
   34      2    2   4   7
   35      2    2   1  10
   36      2    3   2   4
   37      2    3   2  12
   38      2    4   5   6
   39      2    4   5  16
   40      2    4   7  21
   41      2    4   8  22
   42      2    4   8  23
   43      2    4   8  24
   44      2    4   2  12
   45      2    4   5  17
   46      2    5   4   7
   47      2    5   4   8
   48      2    5   6  18
   49      2    5   6  19
   50      2    5   6  20
   51      2    6   5  17
   52      2    6   5  16
   53      2    7   4   8
   54      2    9   1  10
   55      2    9   1  11
   56      2   10   1  11
   57      2   13   3  15
   58      2   13   3  14
   59      2   14   3  15
   60      2   16   5  17
   61      2   18   6  19
   62      2   18   6  20
   63      2   19   6  20
   64      2   22   8  23
   65      2   22   8  24
   66      2   23   8  24
   67      3    1   2   3  15
   68      3    1   2   4   5
   69      3    1   2   4   7
   70      3    1   2   4   8
   71      3    1   2   3  14
   72      3    1   2   3  13
   73      3    2   4   8  22
   74      3    2   4   7  21
   75      3    2   4   8  23
   76      3    2   4   8  24
   77      3    2   4   5  17
   78      3    2   4   5   6
   79      3    2   4   5  16
   80      3    3   2   1   9
   81      3    3   2   1  10
   82      3    3   2   4   7
   83      3    3   2   1  11
   84      3    3   2   4   8
   85      3    3   2   4   5
   86      3    4   5   6  19
   87      3    4   5   6  20
   88      3    4   2   1   9
   89      3    4   2   3  15
   90      3    4   2   3  13
   91      3    4   2   3  14
   92      3    4   2   1  10
   93      3    4   2   1  11
   94      3    4   5   6  18
   95      3    5   4   8  24
   96      3    5   4   8  23
   97      3    5   4   8  22
   98      3    5   4   7  21
   99      3    5   4   2  12
  100      3    6   5   4   7
  101      3    6   5   4   8
  102      3    7   4   2  12
  103      3    7   4   5  17
  104      3    7   4   8  24
  105      3    7   4   8  23
  106      3    7   4   8  22
  107      3    7   4   5  16
  108      3    8   4   5  17
  109      3    8   4   2  12
  110      3    8   4   7  21
  111      3    8   4   5  16
  112      3    9   1   2  12
  113      3   10   1   2  12
  114      3   11   1   2  12
  115      3   12   2   3  15
  116      3   12   2   3  13
  117      3   12   2   3  14
  118      3   16   5   6  20
  119      3   16   5   6  19
  120      3   16   5   6  18
  121      3   17   5   6  20
  122      3   17   5   6  19
  123      3   17   5   6  18

          INDEP./SYM. INTERNAL COORDINATES
          --------------------------------
 CRD  1=   0.2828 ( 25)  0.1690 ( 28) -0.3569 ( 31) -0.2684 ( 36)  0.4553 ( 38)
          -0.1442 ( 39) -0.1466 ( 45)  0.1023 ( 46)  0.1655 ( 47) -0.1294 ( 51)
          -0.1098 ( 52) -0.1532 ( 53) -0.1114 ( 73)  0.1685 ( 74) -0.1198 ( 76)
          -0.1005 ( 77) -0.1138 ( 89) -0.1262 ( 91) -0.1044 ( 92)  0.1125 ( 95)
           0.1340 ( 96)  0.1208 ( 97) -0.1610 ( 98)
 CRD  2=   0.1972 ( 13)  0.1374 ( 15) -0.1841 ( 25) -0.3128 ( 28)  0.1418 ( 34)
           0.3093 ( 36)  0.4408 ( 38) -0.1007 ( 39)  0.1122 ( 42) -0.1430 ( 45)
          -0.1105 ( 46)  0.2245 ( 47) -0.1294 ( 51) -0.1477 ( 52) -0.1367 ( 74)
           0.1072 ( 77)  0.1310 ( 78)  0.1584 ( 79) -0.1073 ( 83)  0.1280 ( 88)
           0.1345 ( 92)  0.1188 ( 93) -0.1060 (108)  0.1570 (110)
 CRD  3=  -0.4010 (  5) -0.1091 ( 13) -0.1315 ( 15)  0.3892 ( 24) -0.2597 ( 25)
          -0.1437 ( 28) -0.1188 ( 33) -0.1875 ( 36)  0.1702 ( 44)  0.2487 ( 47)
          -0.1348 ( 67) -0.1378 ( 70) -0.1228 ( 71)  0.1104 ( 81)  0.1131 ( 82)
           0.2419 ( 85)  0.1259 ( 90) -0.1047 ( 93) -0.1183 ( 98)  0.1258 ( 99)
          -0.1469 (101)  0.1316 (110)
 CRD  4=  -0.1771 (  2)  0.1021 (  6)  0.1167 ( 12) -0.2028 ( 13) -0.1816 ( 15)
          -0.1293 ( 25) -0.2516 ( 31)  0.1839 ( 34) -0.1443 ( 35)  0.1594 ( 36)
          -0.1293 ( 38)  0.1780 ( 40)  0.1557 ( 46) -0.1821 ( 48)  0.1765 ( 51)
          -0.2116 ( 53) -0.1969 ( 68) -0.1467 ( 70) -0.1179 ( 73) -0.1073 ( 75)
          -0.1528 ( 76)  0.1164 ( 77)  0.2629 ( 78)  0.1241 ( 79)  0.1422 ( 88)
           0.1056 ( 92)  0.1251 ( 96)  0.1145 ( 97)  0.2321 (101)
 CRD  5=   0.1256 (  6) -0.1799 ( 11)  0.1569 ( 13)  0.1671 ( 15)  0.2294 ( 24)
          -0.1140 ( 25) -0.1287 ( 26)  0.1182 ( 27)  0.1177 ( 30)  0.1430 ( 31)
          -0.1838 ( 34) -0.1602 ( 35) -0.1377 ( 36)  0.2200 ( 38) -0.1220 ( 39)
           0.1122 ( 44)  0.1494 ( 46) -0.1904 ( 47)  0.1069 ( 50) -0.1117 ( 52)
          -0.3396 ( 68) -0.1816 ( 69) -0.2158 ( 70)  0.1127 ( 75)  0.1070 ( 80)
          -0.2127 ( 85) -0.1127 ( 86) -0.1009 ( 87)  0.1334 ( 98) -0.1810 ( 99)
           0.1019 (100)
 CRD  6=   0.2121 (  6)  0.2030 ( 11) -0.2796 ( 25)  0.1503 ( 26) -0.1593 ( 27)
           0.2809 ( 28)  0.1282 ( 29) -0.1996 ( 34)  0.1579 ( 36) -0.1584 ( 37)
           0.2021 ( 38)  0.1815 ( 43)  0.1758 ( 46) -0.1731 ( 47) -0.1270 ( 67)
           0.1477 ( 69)  0.1717 ( 70) -0.1006 ( 72)  0.1657 ( 74) -0.1529 ( 77)
          -0.1499 ( 78) -0.1175 ( 79)  0.1410 ( 82)  0.1650 ( 84)  0.1112 ( 90)
           0.1279 ( 91)  0.1132 (109)
 CRD  7=  -0.3649 (  2) -0.1450 (  5)  0.1775 ( 11) -0.1020 ( 12) -0.2187 ( 24)
          -0.1222 ( 27) -0.1744 ( 29)  0.2396 ( 33)  0.1234 ( 36)  0.1115 ( 37)
          -0.1262 ( 40)  0.1607 ( 41) -0.1372 ( 50)  0.1001 ( 55) -0.1154 ( 70)
          -0.1105 ( 77) -0.1831 ( 78) -0.1107 ( 79) -0.2567 ( 82) -0.3367 ( 84)
          -0.2226 ( 85)  0.1414 ( 89) -0.1350 (109)
 CRD  8=   0.2113 (  2)  0.4061 (  5)  0.3856 (  6)  0.2779 ( 11)  0.1090 ( 13)
           0.1394 ( 24)  0.1618 ( 27)  0.1330 ( 29)  0.1262 ( 30) -0.1260 ( 38)
           0.2031 ( 41)  0.1150 ( 47) -0.1078 ( 50) -0.1209 ( 53) -0.1148 ( 57)
          -0.1048 ( 59) -0.1445 ( 69) -0.2056 ( 70) -0.1198 ( 78) -0.1034 ( 95)
          -0.1558 (100)
 CRD  9=   0.1764 ( 12) -0.1401 ( 13) -0.2279 ( 39)  0.2600 ( 40) -0.2510 ( 41)
           0.1141 ( 42)  0.1757 ( 45) -0.1268 ( 47)  0.2131 ( 48) -0.1983 ( 50)
          -0.1986 ( 51)  0.2086 ( 52) -0.1564 ( 68) -0.1351 ( 75) -0.1263 ( 78)
           0.1093 ( 84) -0.1750 ( 87) -0.1686 ( 94)  0.1045 ( 95) -0.1165 ( 99)
          -0.2447 (100) -0.2883 (101) -0.1252 (103) -0.1125 (107) -0.1688 (108)
          -0.1561 (111)
 CRD 10=   0.2007 (  6)  0.1572 ( 11) -0.2036 ( 12) -0.3739 ( 13)  0.1501 ( 27)
           0.1220 ( 29) -0.4550 ( 40) -0.1291 ( 41)  0.1094 ( 42)  0.1503 ( 43)
          -0.1467 ( 46) -0.1524 ( 49)  0.1290 ( 50)  0.2148 ( 53) -0.2208 ( 69)
          -0.1594 ( 82)  0.1330 (100) -0.1567 (102)  0.1169 (107)
 CRD 11=  -0.1237 (  2)  0.2037 (  5) -0.4348 ( 11) -0.1331 ( 12) -0.3837 ( 13)
           0.1459 ( 15) -0.1052 ( 20)  0.1116 ( 34) -0.2764 ( 42) -0.1160 ( 43)
          -0.1500 ( 45) -0.1021 ( 46)  0.2574 ( 48) -0.1320 ( 49) -0.1072 ( 62)
           0.1212 ( 64)  0.1613 ( 66)  0.1113 ( 86) -0.1220 ( 95) -0.1501 (100)
          -0.1089 (103) -0.1344 (110)
 CRD 12=  -0.3734 (  2)  0.2247 (  5) -0.3023 (  6)  0.2877 ( 11)  0.1972 ( 12)
           0.1531 ( 15)  0.1396 ( 20) -0.2694 ( 33) -0.3250 ( 35)  0.1256 ( 40)
           0.2185 ( 43)  0.1146 ( 44)  0.1540 ( 50)  0.1326 ( 54)  0.1615 ( 56)
           0.1572 ( 58) -0.1015 ( 65) -0.1087 ( 66) -0.1022 ( 69)
 CRD 13=  -0.1458 (  2) -0.1359 (  5) -0.1063 (  6) -0.1538 ( 12)  0.1341 ( 13)
           0.1215 ( 15)  0.3239 ( 27)  0.4234 ( 29) -0.3142 ( 30) -0.2939 ( 32)
          -0.2047 ( 33) -0.1611 ( 35) -0.1327 ( 40) -0.1109 ( 42)  0.1023 ( 48)
           0.1379 ( 49) -0.1310 ( 50)  0.1669 ( 54)  0.1801 ( 59)  0.1280 ( 71)
          -0.1410 ( 81)
 CRD 14=   0.1108 (  2)  0.1487 (  5) -0.2266 (  6) -0.5072 ( 15)  0.1411 ( 27)
          -0.2068 ( 30)  0.1333 ( 32) -0.1717 ( 35)  0.1008 ( 41) -0.1203 ( 43)
          -0.4282 ( 49) -0.1543 ( 51) -0.1197 ( 52) -0.1162 ( 55)  0.2034 ( 61)
           0.2021 ( 63)  0.1039 (108)
 CRD 15=   0.2344 (  2) -0.2268 (  6) -0.1230 ( 12)  0.1946 ( 15) -0.3544 ( 30)
           0.4451 ( 32)  0.2133 ( 33) -0.2227 ( 35) -0.1450 ( 39) -0.1253 ( 40)
          -0.1151 ( 42)  0.1187 ( 43)  0.1892 ( 49)  0.1335 ( 52) -0.1920 ( 55)
           0.1865 ( 57) -0.1095 ( 63)
 CRD 16=  -0.1960 (  5)  0.2250 ( 12)  0.1590 ( 20) -0.1192 ( 22)  0.1792 ( 27)
          -0.1581 ( 29)  0.2416 ( 33)  0.1574 ( 39)  0.1904 ( 40) -0.4040 ( 42)
           0.3858 ( 43) -0.1276 ( 45)  0.2252 ( 48) -0.1931 ( 50) -0.1110 ( 52)
           0.1052 ( 63)  0.1193 ( 64) -0.1869 ( 65)  0.1541 ( 86)  0.1222 ( 87)
           0.1357 ( 94)
 CRD 17=   0.1081 (  2)  0.1188 ( 11)  0.2434 ( 12) -0.2807 ( 13)  0.2114 ( 15)
           0.1652 ( 20) -0.1188 ( 21)  0.1077 ( 23)  0.1388 ( 27) -0.2127 ( 30)
          -0.1547 ( 32)  0.2108 ( 33)  0.1193 ( 35)  0.2524 ( 40)  0.3140 ( 41)
           0.1591 ( 42) -0.3595 ( 43)  0.1955 ( 50) -0.1017 ( 56)  0.1003 ( 57)
          -0.1265 ( 62) -0.1990 ( 64)
 CRD 18=   0.1047 (  5) -0.1010 ( 17)  0.1305 ( 22)  0.1030 ( 27) -0.1070 ( 29)
           0.1643 ( 32) -0.2597 ( 35)  0.1733 ( 39) -0.3286 ( 41)  0.4176 ( 42)
          -0.1356 ( 43) -0.2123 ( 45)  0.1977 ( 48)  0.1230 ( 49) -0.2894 ( 50)
           0.1599 ( 51) -0.1005 ( 52) -0.1079 ( 55) -0.1365 ( 61)  0.1911 ( 65)
          -0.1112 ( 66)  0.1813 ( 86)  0.1705 ( 87)  0.1521 ( 94)
 CRD 19=   0.1348 (  9)  0.1312 ( 12)  0.1363 ( 20) -0.3453 ( 27)  0.3487 ( 29)
           0.3240 ( 32) -0.2786 ( 33)  0.2561 ( 41) -0.1344 ( 43) -0.1279 ( 44)
           0.2238 ( 48) -0.1334 ( 50) -0.1267 ( 54)  0.1348 ( 56) -0.1343 ( 57)
           0.1398 ( 59) -0.1432 ( 89) -0.1160 ( 90) -0.1219 ( 91)
 CRD 20=  -0.1383 (  3) -0.1035 ( 10) -0.1253 ( 26) -0.3193 ( 27)  0.2597 ( 29)
          -0.4015 ( 30)  0.1999 ( 33)  0.2353 ( 35) -0.1116 ( 36) -0.2817 ( 41)
           0.1769 ( 43)  0.1692 ( 44) -0.1128 ( 54)  0.1438 ( 55) -0.1828 ( 58)
           0.1008 ( 64) -0.1013 ( 66) -0.1508 ( 88)  0.1156 ( 91) -0.1431 ( 92)
          -0.1332 ( 93)
 CRD 21=  -0.1873 ( 13) -0.1653 ( 14) -0.1945 ( 15) -0.1481 ( 16)  0.1682 ( 18)
           0.2365 ( 38) -0.1416 ( 39)  0.1553 ( 41) -0.1170 ( 45) -0.3108 ( 48)
           0.4718 ( 49) -0.3691 ( 50)  0.1382 ( 60)  0.3006 ( 62)
 CRD 22=  -0.1114 (  2)  0.1985 (  6) -0.1208 ( 11)  0.1244 ( 14) -0.1825 ( 16)
           0.1143 ( 17) -0.1344 ( 19)  0.1070 ( 25)  0.1343 ( 29)  0.1442 ( 32)
           0.1091 ( 33) -0.3205 ( 35)  0.1495 ( 37)  0.1082 ( 39)  0.1747 ( 40)
          -0.1137 ( 45) -0.3455 ( 48)  0.2597 ( 50)  0.1292 ( 56) -0.1287 ( 58)
           0.1466 ( 61) -0.1409 ( 63) -0.1264 ( 78) -0.1095 ( 79)  0.1091 ( 80)
           0.1010 ( 81)  0.1024 ( 86)  0.1128 ( 87)  0.1106 ( 94)  0.1078 ( 99)
          -0.1093 (100) -0.1276 (101)  0.1046 (102)  0.1119 (109) -0.1107 (111)
 CRD 23=  -0.1049 (  1)  0.1761 (  2) -0.1088 (  6)  0.1896 ( 14) -0.1678 ( 16)
           0.1725 ( 26)  0.1247 ( 27) -0.2450 ( 33)  0.1351 ( 35)  0.1123 ( 36)
          -0.1053 ( 37)  0.1038 ( 39) -0.1318 ( 45) -0.1462 ( 48)  0.1676 ( 50)
          -0.1460 ( 56)  0.1210 ( 58) -0.1644 ( 67) -0.1545 ( 71) -0.1674 ( 72)
          -0.1336 ( 77) -0.1246 ( 78) -0.1097 ( 79) -0.1354 ( 80) -0.1134 ( 81)
          -0.1346 ( 82) -0.1331 ( 83) -0.1130 ( 84) -0.1039 ( 85)  0.1041 ( 86)
           0.1031 ( 87)  0.1020 ( 94) -0.1804 ( 99) -0.2111 (102) -0.1895 (109)
 CRD 24=   0.1025 (  4) -0.4531 (  7)  0.1102 (  8) -0.1368 (  9)  0.1088 ( 13)
          -0.1190 ( 16)  0.1135 ( 24) -0.1601 ( 27) -0.1741 ( 29)  0.1156 ( 33)
          -0.1132 ( 37) -0.1081 ( 40)  0.1142 ( 55)  0.1048 ( 57) -0.1866 ( 73)
          -0.1934 ( 75) -0.1824 ( 76) -0.1041 ( 80) -0.1153 ( 81) -0.1173 ( 83)
           0.1437 ( 84) -0.1632 ( 89) -0.1418 ( 90) -0.1248 ( 91) -0.1647 ( 95)
          -0.1757 ( 96) -0.1689 ( 97) -0.1740 (104) -0.1850 (105) -0.1782 (106)
 CRD 25=  -0.2152 (  3) -0.4645 (  7)  0.1842 (  8)  0.1859 (  9)  0.1720 ( 10)
           0.1960 ( 14) -0.1372 ( 16) -0.1078 ( 23) -0.1366 ( 29) -0.1256 ( 33)
           0.1394 ( 35) -0.1287 ( 54)  0.1080 ( 57)  0.1296 ( 58)  0.1028 ( 59)
           0.1345 ( 67)  0.1334 ( 71)  0.1353 ( 72)  0.1235 ( 73)  0.1253 ( 75)
           0.1218 ( 76)  0.1678 ( 88)  0.1345 ( 92)  0.1507 ( 93)  0.1184 ( 95)
           0.1219 ( 96)  0.1202 ( 97)  0.1007 (105)  0.1082 (112)
 CRD 26=  -0.2186 (  1) -0.1881 (  3) -0.2054 (  4)  0.2951 (  7)  0.1459 (  8)
           0.2278 (  9)  0.1196 ( 10) -0.1995 ( 14) -0.1630 ( 21) -0.1963 ( 22)
          -0.2121 ( 23)  0.1084 ( 27) -0.1030 ( 33)  0.1087 ( 35)  0.1033 ( 43)
          -0.1125 ( 56)  0.1097 ( 59) -0.1030 ( 66) -0.1775 ( 73) -0.1708 ( 75)
          -0.1766 ( 76) -0.1945 ( 95) -0.1887 ( 96) -0.1955 ( 97) -0.1880 (104)
          -0.1822 (105) -0.1890 (106)
 CRD 27=   0.2705 (  1)  0.3308 (  3)  0.2979 (  4) -0.1053 ( 11) -0.3783 ( 21)
          -0.3694 ( 22) -0.3518 ( 23) -0.1038 ( 27) -0.1327 ( 32) -0.1108 ( 35)
           0.1403 ( 41)  0.1519 ( 42)  0.1324 ( 43)  0.1274 ( 54)  0.1182 ( 55)
           0.1016 ( 56) -0.1486 ( 64) -0.1362 ( 65) -0.1399 ( 66)
 CRD 28=  -0.2086 (  1) -0.2747 (  3) -0.2478 (  4) -0.1238 (  6) -0.1969 (  7)
          -0.3726 (  8) -0.4118 (  9) -0.3330 ( 10) -0.1873 ( 21) -0.2024 ( 22)
          -0.1923 ( 23)  0.1139 ( 29)  0.1658 ( 30)  0.1193 ( 32)  0.1271 ( 33)
          -0.1046 ( 54) -0.1404 ( 57) -0.1125 ( 58) -0.1539 ( 59)
 CRD 29=  -0.1801 ( 15) -0.5071 ( 17) -0.4860 ( 18) -0.5080 ( 19)  0.1699 ( 48)
           0.1866 ( 49)  0.1697 ( 50) -0.1796 ( 61) -0.1669 ( 62) -0.1797 ( 63)
 CRD 30=  -0.1878 (  7) -0.3157 ( 14)  0.3236 ( 16) -0.1409 ( 20)  0.1125 ( 21)
           0.1976 ( 23)  0.1364 ( 39) -0.1435 ( 45)  0.2777 ( 51) -0.2729 ( 52)
          -0.2301 ( 77) -0.2259 ( 79) -0.1176 ( 86) -0.1012 ( 87) -0.1014 ( 94)
          -0.2352 (103) -0.2310 (107) -0.2378 (108) -0.2336 (111) -0.1026 (118)
          -0.1189 (119) -0.1027 (120) -0.1057 (121) -0.1221 (122) -0.1058 (123)
 CRD 31=  -0.2611 (  1) -0.1917 (  2) -0.1397 (  3) -0.2318 (  4)  0.2053 (  6)
           0.2379 (  8)  0.1446 (  9)  0.2953 ( 10) -0.1129 ( 11)  0.1071 ( 13)
           0.1569 ( 16) -0.1838 ( 21) -0.1320 ( 22) -0.1006 ( 67) -0.1270 ( 80)
          -0.1161 ( 81) -0.1093 ( 83) -0.1617 ( 88) -0.1307 ( 89) -0.1156 ( 90)
          -0.1187 ( 91) -0.1508 ( 92) -0.1440 ( 93)  0.1032 ( 99)  0.1125 (104)
           0.1018 (105)  0.1125 (106)  0.1162 (109) -0.1575 (112) -0.1466 (113)
          -0.1398 (114) -0.1472 (115) -0.1321 (116) -0.1351 (117)
 CRD 32=  -0.2655 (  1) -0.1236 (  2) -0.1052 (  4)  0.1692 (  5) -0.1126 (  6)
          -0.1008 (  8) -0.2524 ( 10)  0.1436 ( 14) -0.1018 ( 20)  0.1083 ( 22)
           0.1360 ( 24) -0.1237 ( 30) -0.1226 ( 32)  0.1075 ( 55)  0.1112 ( 57)
          -0.2189 ( 67) -0.1847 ( 71) -0.1649 ( 72)  0.2189 ( 80)  0.1859 ( 81)
           0.1682 ( 83)  0.1608 ( 88) -0.1561 ( 89) -0.1021 ( 90) -0.1219 ( 91)
           0.1278 ( 92)  0.1102 ( 93) -0.1351 (110)  0.1896 (112)  0.1566 (113)
           0.1389 (114) -0.1930 (115) -0.1390 (116) -0.1588 (117)
 CRD 33=  -0.1430 (  1) -0.3005 ( 14) -0.2835 ( 16) -0.2634 ( 17)  0.5618 ( 18)
          -0.2213 ( 19)  0.1483 ( 61) -0.2952 ( 62)  0.1263 ( 63)  0.1465 ( 87)
          -0.1475 ( 94)  0.1213 (118) -0.1726 (120)  0.1857 (121) -0.1083 (123)
 CRD 34=  -0.2597 (  1) -0.1631 (  3)  0.4547 (  4) -0.3625 (  8)  0.1345 (  9)
           0.2006 ( 10) -0.1222 ( 18) -0.2527 ( 21)  0.2134 ( 22) -0.2323 ( 55)
           0.1371 ( 56)  0.1818 ( 57) -0.1048 ( 58)  0.1388 ( 64) -0.1065 ( 65)
           0.1080 ( 72) -0.1083 ( 80)  0.1351 ( 83) -0.1106 ( 88)  0.1034 ( 90)
           0.1328 ( 93) -0.1049 (112)  0.1385 (114)  0.1126 (116)
 CRD 35=   0.2465 (  1) -0.1380 (  3) -0.1121 (  4)  0.1809 (  8) -0.2226 ( 10)
           0.1206 ( 18) -0.5124 ( 21)  0.3643 ( 22)  0.1328 ( 23) -0.1281 ( 56)
           0.1237 ( 58)  0.2695 ( 64) -0.1972 ( 65) -0.1665 ( 73)  0.1176 ( 75)
           0.1190 ( 96) -0.1651 ( 97)  0.1066 (105) -0.1775 (106)
 CRD 36=   0.3876 (  1) -0.1160 (  3) -0.2497 (  4) -0.4273 (  8)  0.1636 (  9)
           0.2691 ( 10) -0.2126 ( 22)  0.2366 ( 23)  0.1324 ( 55) -0.1995 ( 56)
           0.2233 ( 57) -0.1350 ( 58)  0.1040 ( 65) -0.1197 ( 66) -0.1162 ( 67)
           0.1225 ( 72) -0.1201 ( 83) -0.1061 ( 89)  0.1326 ( 90) -0.1215 ( 93)
          -0.1276 (114)  0.1419 (116)
 CRD 37=   0.1135 (  4)  0.5042 ( 17) -0.5453 ( 19) -0.2745 ( 61)  0.2955 ( 63)
          -0.2147 ( 86)  0.1032 (118) -0.2080 (119) -0.2113 (122)
 CRD 38=  -0.2376 (  3)  0.2533 (  4)  0.1100 (  8)  0.2344 (  9) -0.3563 ( 10)
          -0.1500 ( 17)  0.1127 ( 19) -0.3843 ( 22)  0.3309 ( 23)  0.1290 ( 54)
          -0.1337 ( 55)  0.1877 ( 58) -0.1284 ( 59)  0.2050 ( 65) -0.1733 ( 66)
           0.1014 ( 71) -0.1347 ( 76) -0.1082 ( 80)  0.1062 ( 91) -0.1341 ( 95)
          -0.1262 (104) -0.1010 (116)
 CRD 39=  -0.2059 (  1)  0.2960 (  3)  0.1006 (  8) -0.3047 (  9)  0.1783 ( 10)
          -0.2661 ( 21) -0.1751 ( 22)  0.4547 ( 23) -0.1669 ( 54)  0.1147 ( 56)
           0.1711 ( 59)  0.1525 ( 64) -0.2512 ( 66)  0.1058 ( 67)  0.1431 ( 75)
          -0.1213 ( 76)  0.1042 ( 89) -0.1263 ( 95)  0.1382 ( 96) -0.1295 (104)
           0.1349 (105)
 CRD 40=  -0.1456 (  1)  0.3946 (  3) -0.2026 (  4) -0.1523 (  8)  0.4329 (  9)
          -0.2149 ( 10) -0.1595 ( 14) -0.1053 ( 16)  0.1146 ( 17) -0.2280 ( 54)
           0.1198 ( 56)  0.1602 ( 58) -0.2510 ( 59)  0.1990 ( 71) -0.1946 ( 81)
          -0.1027 ( 89)  0.1554 ( 91) -0.1586 ( 92) -0.1716 (113)  0.1684 (117)
 CRD 41=  -0.1151 (  1)  0.1550 (  3)  0.1419 ( 12)  0.4864 ( 14)  0.4637 ( 16)
          -0.1978 ( 17)  0.2425 ( 18) -0.1626 ( 19) -0.1657 ( 40) -0.1066 ( 54)
           0.1024 ( 56)  0.1619 ( 60) -0.1184 ( 62) -0.1083 (111)  0.1295 (118)
          -0.1734 (123)
 CRD 42=  -0.1249 (  5) -0.1831 (  7) -0.4447 ( 12) -0.1462 ( 13)  0.3086 ( 16)
           0.1166 ( 31) -0.1243 ( 39)  0.5226 ( 40) -0.1224 ( 51)  0.1530 ( 60)
          -0.1097 ( 66) -0.1393 ( 95)  0.1673 (108)  0.1435 (118)  0.1275 (119)
           0.1365 (120)
 CRD 43=  -0.1938 ( 12)  0.3477 ( 14) -0.3300 ( 16)  0.1250 ( 40) -0.1186 ( 45)
           0.1086 ( 77) -0.1712 ( 86) -0.1682 ( 87) -0.1684 ( 94) -0.2648 (118)
          -0.2678 (119) -0.2650 (120) -0.2922 (121) -0.2952 (122) -0.2924 (123)
 CRD 44=   0.1161 (  5) -0.1385 (  7)  0.1124 ( 16)  0.7377 ( 20) -0.1170 ( 21)
          -0.1357 ( 22) -0.1562 ( 23) -0.1237 ( 41) -0.1263 ( 42) -0.1165 ( 43)
           0.1412 ( 64)  0.1247 ( 65)  0.1006 ( 66)  0.1040 (112)  0.1317 (113)
           0.1246 (114) -0.1013 (120)
 CRD 45=  -0.2967 (  5)  0.1610 ( 13)  0.1355 ( 18) -0.1579 ( 21)  0.1584 ( 22)
           0.1196 ( 28)  0.1001 ( 39) -0.1388 ( 51) -0.1150 ( 52) -0.1032 ( 63)
          -0.1226 ( 64)  0.1461 ( 65) -0.2669 ( 74) -0.1013 ( 75) -0.1144 ( 76)
          -0.1089 ( 95) -0.2811 ( 98)  0.1349 (106)  0.1400 (108) -0.4361 (110)
           0.1348 (115)  0.1492 (116)  0.1449 (117) -0.1288 (118) -0.1044 (119)
 CRD 46=  -0.1221 (  2)  0.1626 (  3) -0.2080 (  7)  0.1267 (  9)  0.2172 ( 12)
          -0.1896 ( 13) -0.2345 ( 15)  0.1920 ( 17)  0.2333 ( 18)  0.1761 ( 19)
           0.1323 ( 27)  0.1006 ( 32)  0.1981 ( 48)  0.2204 ( 49)  0.2095 ( 50)
          -0.1342 ( 51) -0.1045 ( 52) -0.1390 ( 55) -0.1259 ( 56) -0.1025 ( 57)
          -0.2169 ( 61) -0.1825 ( 62) -0.2286 ( 63)  0.1140 ( 74)  0.1200 ( 77)
           0.1072 (103) -0.1014 (107)  0.1330 (108)  0.1229 (110)
 CRD 47=  -0.1511 (  1)  0.2534 (  2) -0.2310 (  3) -0.1744 (  4)  0.1917 (  7)
          -0.1945 ( 12) -0.1641 ( 15)  0.1390 ( 18)  0.1237 ( 19)  0.1491 ( 20)
           0.1008 ( 23) -0.2159 ( 27) -0.1847 ( 32) -0.1867 ( 35)  0.1315 ( 48)
           0.1348 ( 49)  0.1139 ( 50)  0.1598 ( 54)  0.2037 ( 55)  0.2238 ( 56)
          -0.1439 ( 61) -0.1118 ( 62) -0.1246 ( 63) -0.1175 ( 65)  0.1258 ( 74)
           0.1026 ( 95)  0.1373 ( 98) -0.1086 ( 99) -0.1111 (107)  0.1541 (110)
          -0.1241 (111)  0.1010 (117)
 CRD 48=   0.1075 (  2) -0.1369 (  4) -0.3321 (  6) -0.1233 (  7)  0.2327 (  8)
           0.2501 (  9)  0.2037 ( 10)  0.1088 ( 12) -0.2350 ( 20)  0.1054 ( 26)
           0.2525 ( 29)  0.2342 ( 30)  0.2408 ( 33) -0.1037 ( 37)  0.1272 ( 54)
          -0.2388 ( 57) -0.2629 ( 58) -0.2259 ( 59) -0.1298 ( 99) -0.1655 (102)
          -0.1390 (109)  0.1167 (113)  0.1195 (114)
 CRD 49=  -0.1253 (  2) -0.1244 (  6) -0.3931 ( 11)  0.3417 ( 20)  0.2118 ( 21)
           0.2234 ( 22)  0.2204 ( 23) -0.1342 ( 40)  0.2383 ( 41)  0.2348 ( 42)
           0.2327 ( 43) -0.2406 ( 64) -0.2310 ( 65) -0.2342 ( 66)  0.1070 (102)
          -0.1053 (103)
 CRD 50=   0.2026 (  1) -0.2647 (  2)  0.1369 (  4) -0.1900 (  6)  0.3071 (  7)
           0.1054 (  8)  0.1730 ( 10)  0.1464 ( 11) -0.3481 ( 12)  0.1386 ( 14)
          -0.1298 ( 21) -0.1319 ( 22)  0.1041 ( 30)  0.1389 ( 32)  0.1252 ( 35)
           0.1240 ( 40) -0.2188 ( 54) -0.1843 ( 59)  0.1807 ( 66)  0.1173 ( 71)
          -0.1153 ( 81)  0.1203 ( 95) -0.1011 (108)  0.1199 (112) -0.1041 (115)
           0.1131 (123)
 CRD 51=   0.1330 (  2)  0.1745 ( 13) -0.3888 ( 15)  0.1851 ( 17)  0.1662 ( 19)
          -0.1137 ( 34) -0.1632 ( 39) -0.1795 ( 45)  0.1045 ( 50)  0.1246 ( 51)
           0.1483 ( 52) -0.2411 ( 62) -0.2700 ( 74) -0.2562 ( 98)  0.1005 (102)
          -0.1423 (104) -0.1361 (105) -0.1582 (106)  0.1387 (107) -0.1880 (110)
          -0.1212 (116)  0.1948 (118)  0.1167 (119) -0.1353 (122) -0.2277 (123)
 CRD 52=  -0.1434 (  1)  0.1798 (  3)  0.2160 (  5) -0.1882 (  7)  0.1380 (  9)
          -0.1629 ( 10)  0.1065 ( 11) -0.1608 ( 12)  0.2146 ( 14) -0.2221 ( 16)
          -0.1379 ( 17)  0.2118 ( 19) -0.1034 ( 39)  0.1237 ( 54) -0.1310 ( 56)
          -0.1311 ( 58)  0.1053 ( 59) -0.1416 ( 61)  0.1346 ( 63)  0.1110 ( 66)
          -0.1075 ( 71) -0.1104 ( 75)  0.1187 ( 81) -0.1438 ( 86) -0.1470 ( 88)
           0.1030 ( 89)  0.1306 ( 90) -0.1214 ( 93) -0.1042 (103) -0.1791 (112)
          -0.1535 (114)  0.1497 (115)  0.1773 (116)  0.1940 (118)  0.1532 (120)
           0.1489 (121)  0.1081 (123)
 CRD 53=   0.2119 (  4) -0.2649 (  6)  0.1352 (  7)  0.1775 (  8)  0.2123 ( 11)
          -0.1275 ( 14)  0.1413 ( 17) -0.1488 ( 18)  0.1110 ( 20) -0.1254 ( 23)
           0.1021 ( 37) -0.1251 ( 40) -0.1667 ( 44) -0.1250 ( 45)  0.1347 ( 55)
          -0.1128 ( 58)  0.1540 ( 60)  0.1186 ( 61) -0.1098 ( 62)  0.1094 ( 65)
          -0.1092 ( 83)  0.1263 ( 88) -0.1096 ( 89)  0.1667 ( 98) -0.1203 (100)
           0.1108 (102) -0.1516 (107) -0.1464 (113) -0.2489 (114)  0.1589 (116)
           0.1345 (118)  0.1427 (119) -0.2011 (123)
 CRD 54=  -0.2009 (  2)  0.1924 (  5) -0.1423 ( 10) -0.2535 ( 11)  0.1769 ( 13)
          -0.1817 ( 15)  0.1838 ( 16)  0.1824 ( 17) -0.1438 ( 20)  0.1670 ( 23)
           0.1219 ( 26)  0.1723 ( 40)  0.1234 ( 53) -0.1118 ( 56) -0.1284 ( 63)
          -0.1201 ( 64) -0.1267 ( 69)  0.1264 ( 74)  0.1192 ( 79) -0.1263 ( 82)
           0.1191 ( 86) -0.1047 ( 99) -0.2131 (102)  0.2176 (107)  0.1088 (111)
           0.1132 (115)  0.2112 (116) -0.1341 (120) -0.1219 (123)
 CRD 55=  -0.1759 (  1)  0.2154 (  2)  0.1754 (  4)  0.1342 (  5) -0.2570 (  6)
          -0.1228 (  8)  0.1753 (  9) -0.1579 ( 13)  0.1297 ( 16)  0.1601 ( 18)
          -0.1613 ( 19) -0.1006 ( 22)  0.1230 ( 37)  0.1029 ( 39)  0.2018 ( 55)
          -0.1731 ( 57) -0.1189 ( 60)  0.1180 ( 62) -0.1338 ( 63)  0.1080 ( 67)
          -0.1361 ( 83)  0.1010 ( 86)  0.1028 ( 88)  0.1349 ( 89) -0.1225 ( 93)
           0.1252 ( 99)  0.1914 (102) -0.1214 (105)  0.1500 (109) -0.2294 (114)
          -0.1089 (116) -0.2042 (118)  0.1062 (122)
 CRD 56=   0.1164 (  2) -0.1090 (  5) -0.2580 (  8)  0.1321 (  9)  0.1241 ( 10)
           0.1669 ( 13) -0.1681 ( 18) -0.2586 ( 21)  0.1186 ( 22)  0.1448 ( 23)
           0.1138 ( 34) -0.2010 ( 57)  0.1048 ( 59) -0.1179 ( 62) -0.2049 ( 64)
           0.1103 ( 66)  0.1485 ( 67) -0.1477 ( 72)  0.2094 ( 74) -0.2003 ( 75)
           0.1992 ( 89) -0.1418 ( 96)  0.1486 ( 97)  0.1527 ( 98)  0.2236 (106)
           0.1417 (110)  0.1107 (115) -0.1855 (116)  0.1255 (118) -0.1269 (123)
 CRD 57=  -0.1701 (  1)  0.2054 (  4) -0.1072 (  9)  0.1412 ( 10) -0.1608 ( 11)
          -0.1593 ( 15) -0.1970 ( 17)  0.1508 ( 19)  0.1887 ( 22) -0.1174 ( 23)
          -0.1030 ( 46)  0.1068 ( 50)  0.1177 ( 52)  0.1543 ( 55) -0.1391 ( 56)
           0.1121 ( 58) -0.1881 ( 61)  0.1111 ( 65) -0.1260 ( 66)  0.1176 ( 71)
          -0.1070 ( 76) -0.1581 ( 77)  0.1311 ( 80) -0.1172 ( 83) -0.1747 ( 86)
           0.1309 ( 88) -0.1174 ( 93) -0.1617 ( 95) -0.1045 (104) -0.1179 (108)
           0.1259 (112) -0.1224 (114)  0.1234 (117) -0.1400 (119)  0.1165 (120)
          -0.1339 (122)  0.1226 (123)
 CRD 58=   0.2242 (  1) -0.1890 (  3)  0.1781 (  9) -0.2167 ( 10) -0.1595 ( 15)
           0.1473 ( 18) -0.1269 ( 21)  0.1768 ( 22)  0.1072 ( 30) -0.1097 ( 32)
          -0.1389 ( 54)  0.1826 ( 56) -0.1769 ( 58)  0.1304 ( 59)  0.1424 ( 65)
          -0.2176 ( 71)  0.1262 ( 73) -0.2212 ( 81)  0.1030 ( 90) -0.1702 ( 91)
          -0.1755 ( 92)  0.1064 ( 93) -0.1223 ( 95) -0.1190 (103) -0.1025 (104)
           0.1156 (106) -0.1125 (108) -0.2032 (113) -0.1967 (117)  0.1133 (120)
 CRD 59=  -0.2318 (  3)  0.1626 (  4)  0.1115 (  9) -0.1129 ( 10) -0.1687 ( 11)
           0.1443 ( 15) -0.1637 ( 18)  0.1997 ( 19)  0.1224 ( 21) -0.1241 ( 22)
           0.1041 ( 27) -0.1269 ( 48) -0.1524 ( 51) -0.1801 ( 54)  0.1258 ( 55)
           0.1848 ( 63) -0.1307 ( 65)  0.1133 ( 68) -0.1355 ( 71) -0.1038 ( 78)
          -0.1151 ( 79)  0.1366 ( 80) -0.1473 ( 81) -0.1340 ( 86)  0.1371 ( 87)
           0.1790 ( 88) -0.1116 ( 91) -0.1048 ( 92) -0.1073 ( 98)  0.1498 (103)
           0.1093 (108)  0.1769 (112) -0.1069 (113) -0.1039 (117) -0.1732 (119)
           0.1647 (121) -0.1064 (122)
 CRD 60=  -0.1057 (  2) -0.1797 (  8)  0.1534 (  9) -0.1075 ( 12)  0.1251 ( 14)
           0.1244 ( 17)  0.2001 ( 21) -0.2393 ( 23)  0.1012 ( 24)  0.1132 ( 33)
           0.1424 ( 41) -0.1249 ( 43) -0.1048 ( 47)  0.1196 ( 53) -0.1377 ( 57)
           0.1187 ( 59) -0.1126 ( 60)  0.1553 ( 64) -0.1830 ( 66)  0.1565 ( 67)
           0.1163 ( 70) -0.1236 ( 73)  0.1418 ( 75) -0.1708 ( 76)  0.2144 ( 84)
           0.1279 ( 89) -0.1111 ( 90) -0.1117 ( 94) -0.1122 ( 95)  0.2004 ( 96)
           0.2356 (105) -0.1494 (108)  0.2214 (115) -0.1336 (120)  0.1302 (121)
           0.1707 (122)
 CRD 61=  -0.1195 (  2) -0.1302 (  8)  0.2650 ( 13) -0.1151 ( 14) -0.1068 ( 17)
           0.1868 ( 18)  0.1075 ( 21) -0.1645 ( 22) -0.1093 ( 38) -0.1045 ( 39)
           0.1145 ( 42) -0.1150 ( 45) -0.1511 ( 49)  0.1623 ( 60)  0.1423 ( 62)
          -0.1248 ( 65) -0.1136 ( 72) -0.1214 ( 73)  0.1042 ( 76) -0.1216 ( 87)
          -0.1195 ( 90)  0.1489 ( 94) -0.1581 ( 97)  0.1928 (104)  0.1209 (105)
           0.1146 (108)  0.1694 (115)  0.1255 (119)  0.2836 (120) -0.2876 (121)
          -0.1753 (122)
 CRD 62=  -0.1103 (  1)  0.1587 (  4)  0.2014 (  6) -0.1938 ( 16) -0.1487 ( 19)
          -0.1374 ( 24)  0.1029 ( 25)  0.1025 ( 32) -0.1358 ( 35) -0.1334 ( 37)
           0.1268 ( 44)  0.1124 ( 48) -0.1193 ( 52)  0.1209 ( 55)  0.1158 ( 60)
          -0.1012 ( 63)  0.1318 ( 68)  0.1217 ( 69)  0.1058 ( 70)  0.1044 ( 72)
           0.1399 ( 78) -0.1918 ( 83) -0.1667 ( 87) -0.2077 ( 93) -0.1217 ( 98)
           0.1556 (100) -0.1701 (111)  0.2657 (112)  0.2002 (113) -0.1329 (117)
           0.2339 (119)  0.1015 (120)  0.1151 (122)
 CRD 63=   0.1498 (  3)  0.1611 (  7)  0.1176 (  9) -0.1805 ( 14)  0.1034 ( 15)
          -0.1063 ( 17) -0.1540 ( 26) -0.1311 ( 27)  0.1008 ( 30)  0.1186 ( 36)
          -0.1094 ( 38) -0.1007 ( 51)  0.1176 ( 54)  0.1227 ( 60)  0.1936 ( 67)
          -0.1345 ( 68) -0.1339 ( 69)  0.1821 ( 72)  0.1037 ( 77) -0.1150 ( 78)
          -0.2357 ( 80) -0.1433 ( 83) -0.1264 ( 91)  0.1845 ( 92)  0.1479 ( 94)
           0.1596 ( 96)  0.1337 ( 97) -0.1802 (101)  0.1804 (103) -0.1313 (111)
           0.1319 (113) -0.1732 (117) -0.1040 (121) -0.1903 (122)
 CRD 64=  -0.1252 (  2)  0.3401 (  5)  0.1359 ( 15)  0.1059 ( 22)  0.1053 ( 24)
           0.1127 ( 26) -0.1003 ( 30) -0.1177 ( 34) -0.1231 ( 38) -0.1004 ( 42)
          -0.1361 ( 44)  0.1278 ( 47)  0.1149 ( 60) -0.1793 ( 72)  0.1345 ( 73)
          -0.1109 ( 74) -0.1318 ( 79)  0.1561 ( 83) -0.1334 ( 90)  0.1911 ( 97)
          -0.2097 ( 98)  0.1230 (100)  0.2031 (103) -0.1887 (104) -0.1372 (105)
          -0.2052 (111) -0.1051 (112) -0.1804 (113)  0.1667 (115)  0.2099 (117)
 CRD 65=   0.1915 (  2) -0.1522 (  6) -0.1662 ( 11)  0.2009 ( 13) -0.1362 ( 16)
          -0.1627 ( 25)  0.1165 ( 28) -0.1545 ( 31)  0.1039 ( 36)  0.1632 ( 37)
          -0.1129 ( 46)  0.1133 ( 53) -0.1158 ( 67) -0.1744 ( 69) -0.1529 ( 73)
           0.2084 ( 74) -0.1255 ( 76) -0.1523 ( 79) -0.2443 ( 82) -0.1312 ( 87)
           0.1549 ( 90)  0.1511 ( 91)  0.2489 ( 99)  0.1442 (100)  0.1219 (105)
           0.2565 (109) -0.1017 (112) -0.1052 (113) -0.1509 (115)  0.1416 (119)
 CRD 66=   0.1689 (  7) -0.1070 ( 11)  0.2021 ( 12)  0.1198 ( 14)  0.1011 ( 28)
          -0.1332 ( 34) -0.1130 ( 39) -0.1385 ( 44)  0.1022 ( 45) -0.1004 ( 46)
           0.1174 ( 47)  0.1300 ( 67) -0.1253 ( 69) -0.2216 ( 70)  0.1347 ( 73)
           0.1844 ( 76) -0.2226 ( 77) -0.1861 ( 79) -0.1333 ( 80)  0.2440 ( 85)
          -0.1448 ( 87) -0.1339 ( 90) -0.1728 ( 91)  0.1867 ( 92)  0.1518 ( 93)
          -0.1547 ( 94) -0.1642 ( 96)  0.1543 ( 99)  0.1216 (100)  0.1879 (101)
           0.1052 (122)

 THE DETERMINANT OF THE G MATRIX IS 10**(   -24)


                     --------------------
                     INTERNAL COORDINATES
                     --------------------

                 - - ATOMS - -         COORDINATE      COORDINATE
 NO.   TYPE    I  J  K  L  M  N        (BOHR,RAD)       (ANG,DEG)
 ----------------------------------------------------------------
   1 STRETCH   1  9                     2.0598099       1.0900045
   2 STRETCH   1  2                     2.8913026       1.5300115
   3 STRETCH   1 11                     2.0596428       1.0899161
   4 STRETCH   1 10                     2.0598199       1.0900098
   5 STRETCH   2  4                     2.8911176       1.5299137
   6 STRETCH   2  3                     2.8911813       1.5299474
   7 STRETCH   2 12                     2.0598324       1.0900164
   8 STRETCH   3 14                     2.0596963       1.0899444
   9 STRETCH   3 13                     2.0598316       1.0900160
  10 STRETCH   3 15                     2.0598099       1.0900045
  11 STRETCH   4  8                     2.8911813       1.5299474
  12 STRETCH   4  7                     2.7004911       1.4290385
  13 STRETCH   4  5                     2.8913026       1.5300115
  14 STRETCH   5 16                     2.0597199       1.0899569
  15 STRETCH   5  6                     2.8912497       1.5299836
  16 STRETCH   5 17                     2.0598074       1.0900032
  17 STRETCH   6 20                     2.0599148       1.0900601
  18 STRETCH   6 19                     2.0598258       1.0900130
  19 STRETCH   6 18                     2.0598434       1.0900223
  20 STRETCH   7 21                     1.8272718       0.9669507
  21 STRETCH   8 24                     2.0596963       1.0899444
  22 STRETCH   8 23                     2.0598099       1.0900045
  23 STRETCH   8 22                     2.0598316       1.0900160
  24 BEND      1  2  3                  1.9106481     109.4720747
  25 BEND      1  2  4                  1.9106040     109.4695468
  26 BEND      1  2 12                  1.9105417     109.4659760
  27 BEND      2  1 11                  1.9106712     109.4733971
  28 BEND      2  4  8                  1.9107548     109.4781859
  29 BEND      2  3 13                  1.9105842     109.4684126
  30 BEND      2  3 15                  1.9106294     109.4710027
  31 BEND      2  4  5                  1.9106040     109.4695468
  32 BEND      2  1  9                  1.9106898     109.4744617
  33 BEND      2  3 14                  1.9106632     109.4729359
  34 BEND      2  4  7                  1.9105863     109.4685316
  35 BEND      2  1 10                  1.9106708     109.4733746
  36 BEND      3  2  4                  1.9107548     109.4781859
  37 BEND      3  2 12                  1.9106509     109.4722332
  38 BEND      4  5  6                  1.9106438     109.4718255
  39 BEND      4  5 16                  1.9106654     109.4730655
  40 BEND      4  7 21                  1.9897162     114.0023411
  41 BEND      4  8 22                  1.9105842     109.4684126
  42 BEND      4  8 23                  1.9106294     109.4710027
  43 BEND      4  8 24                  1.9106632     109.4729359
  44 BEND      4  2 12                  1.9105998     109.4693064
  45 BEND      4  5 17                  1.9106684     109.4732360
  46 BEND      5  4  7                  1.9105908     109.4687886
  47 BEND      5  4  8                  1.9106481     109.4720747
  48 BEND      5  6 18                  1.9106797     109.4738832
  49 BEND      5  6 19                  1.9106750     109.4736153
  50 BEND      5  6 20                  1.9106547     109.4724491
  51 BEND      6  5 17                  1.9105974     109.4691702
  52 BEND      6  5 16                  1.9105711     109.4676581
  53 BEND      7  4  8                  1.9106153     109.4701957
  54 BEND      9  1 10                  1.9105323     109.4654401
  55 BEND      9  1 11                  1.9105736     109.4678043
  56 BEND     10  1 11                  1.9106616     109.4728457
  57 BEND     13  3 15                  1.9105764     109.4679632
  58 BEND     13  3 14                  1.9106918     109.4745751
  59 BEND     14  3 15                  1.9106544     109.4724342
  60 BEND     16  5 17                  1.9106533     109.4723683
  61 BEND     18  6 19                  1.9105669     109.4674198
  62 BEND     18  6 20                  1.9106278     109.4709089
  63 BEND     19  6 20                  1.9105953     109.4690472
  64 BEND     22  8 23                  1.9105764     109.4679632
  65 BEND     22  8 24                  1.9106918     109.4745751
  66 BEND     23  8 24                  1.9106544     109.4724342
  67 TORSION   1  2  3 15              -1.0471215     -59.9956409
  68 TORSION   1  2  4  5               3.1415927     180.0000000
  69 TORSION   1  2  4  7              -1.0472962     -60.0056499
  70 TORSION   1  2  4  8               1.0471227      59.9957134
  71 TORSION   1  2  3 14              -3.1415585    -179.9980441
  72 TORSION   1  2  3 13               1.0471717      59.9985168
  73 TORSION   2  4  8 22               1.0472712      60.0042221
  74 TORSION   2  4  7 21              -1.0471462     -59.9970606
  75 TORSION   2  4  8 23               3.1415644     179.9983798
  76 TORSION   2  4  8 24              -1.0471839     -59.9992170
  77 TORSION   2  4  5 17               1.1344021      64.9964523
  78 TORSION   2  4  5  6              -3.0544039    -175.0044544
  79 TORSION   2  4  5 16              -0.9600588     -55.0073174
  80 TORSION   3  2  1  9               1.0471584      59.9977590
  81 TORSION   3  2  1 10               3.1414876     179.9939831
  82 TORSION   3  2  4  7               1.0471738      59.9986367
  83 TORSION   3  2  1 11              -1.0472215     -60.0013745
  84 TORSION   3  2  4  8               3.1415927     180.0000000
  85 TORSION   3  2  4  5              -1.0471227     -59.9957134
  86 TORSION   4  5  6 19               3.1415767     179.9990866
  87 TORSION   4  5  6 20              -1.0472212     -60.0013565
  88 TORSION   4  2  1  9              -3.1414916    -179.9942122
  89 TORSION   4  2  3 15              -3.1415644    -179.9983798
  90 TORSION   4  2  3 13              -1.0472712     -60.0042221
  91 TORSION   4  2  3 14               1.0471839      59.9992170
  92 TORSION   4  2  1 10              -1.0471624     -59.9979881
  93 TORSION   4  2  1 11               1.0473137      60.0066544
  94 TORSION   4  5  6 18               1.0472088      60.0006446
  95 TORSION   5  4  8 24               3.1415585     179.9980441
  96 TORSION   5  4  8 23               1.0471215      59.9956409
  97 TORSION   5  4  8 22              -1.0471717     -59.9985168
  98 TORSION   5  4  7 21               1.0471583      59.9977539
  99 TORSION   5  4  2 12               1.0473480      60.0086201
 100 TORSION   6  5  4  7               1.1344876      65.0013529
 101 TORSION   6  5  4  8              -0.9598687     -54.9964255
 102 TORSION   7  4  2 12              -3.1415408    -179.9970298
 103 TORSION   7  4  5 17              -0.9598917     -54.9977404
 104 TORSION   7  4  8 24               1.0472172      60.0011274
 105 TORSION   7  4  8 23              -1.0472198     -60.0012759
 106 TORSION   7  4  8 22              -3.1415130    -179.9954335
 107 TORSION   7  4  5 16              -3.0543525    -175.0015102
 108 TORSION   8  4  5 17              -3.0542480    -174.9955188
 109 TORSION   8  4  2 12              -1.0471219     -59.9956666
 110 TORSION   8  4  7 21               3.1415348     179.9966831
 111 TORSION   8  4  5 16               1.1344764      65.0007114
 112 TORSION   9  1  2 12              -1.0472114     -60.0007926
 113 TORSION  10  1  2 12               1.0471178      59.9954315
 114 TORSION  11  1  2 12              -3.1415914    -179.9999260
 115 TORSION  12  2  3 15               1.0471815      59.9990788
 116 TORSION  12  2  3 13               3.1414746     179.9932365
 117 TORSION  12  2  3 14              -1.0472556     -60.0033244
 118 TORSION  16  5  6 20               3.1415612     179.9981952
 119 TORSION  16  5  6 19               1.0471738      59.9986383
 120 TORSION  16  5  6 18              -1.0471941     -59.9998037
 121 TORSION  17  5  6 20               1.0472015      60.0002265
 122 TORSION  17  5  6 19              -1.0471859     -59.9993304
 123 TORSION  17  5  6 18              -3.1415538    -179.9977724

     ------------------------------------------
     THE POINT GROUP IS C1 , NAXIS= 1, ORDER= 1
     ------------------------------------------

     DIMENSIONS OF THE SYMMETRY SUBSPACES ARE
 A   =  248

 ..... DONE SETTING UP THE RUN .....
 STEP CPU TIME =     0.02 TOTAL CPU TIME =        0.0 (    0.0 MIN)
 TOTAL WALL CLOCK TIME=        0.0 SECONDS, CPU UTILIZATION IS 100.00%


          -----------------------------
          STATIONARY POINT LOCATION RUN
          -----------------------------

 OBTAINING INITIAL HESSIAN, HESS=GUESS   
 DIAGONAL GUESS HESSIAN IN INTERNAL COORDS IS
     1  0.3464     2  0.3672     3  0.3464     4  0.3464     5  0.3672
     6  0.3672     7  0.3464     8  0.3464     9  0.3464    10  0.3464
    11  0.3672    12  0.3608    13  0.3672    14  0.3464    15  0.3672
    16  0.3464    17  0.3463    18  0.3464    19  0.3464    20  0.3553
    21  0.3464    22  0.3464    23  0.3464    24  0.2485    25  0.2485
    26  0.2241    27  0.2241    28  0.2485    29  0.2241    30  0.2241
    31  0.2485    32  0.2241    33  0.2241    34  0.2430    35  0.2241
    36  0.2485    37  0.2241    38  0.2485    39  0.2241    40  0.2143
    41  0.2241    42  0.2241    43  0.2241    44  0.2241    45  0.2241
    46  0.2430    47  0.2485    48  0.2241    49  0.2241    50  0.2241
    51  0.2241    52  0.2241    53  0.2430    54  0.2034    55  0.2034
    56  0.2034    57  0.2034    58  0.2034    59  0.2034    60  0.2034
    61  0.2034    62  0.2034    63  0.2034    64  0.2034    65  0.2034
    66  0.2034    67  0.2500    68  0.2500    69  0.2500    70  0.2500
    71  0.2500    72  0.2500    73  0.2500    74  0.2500    75  0.2500
    76  0.2500    77  0.2500    78  0.2500    79  0.2500    80  0.2500
    81  0.2500    82  0.2500    83  0.2500    84  0.2500    85  0.2500
    86  0.2500    87  0.2500    88  0.2500    89  0.2500    90  0.2500
    91  0.2500    92  0.2500    93  0.2500    94  0.2500    95  0.2500
    96  0.2500    97  0.2500    98  0.2500    99  0.2500   100  0.2500
   101  0.2500   102  0.2500   103  0.2500   104  0.2500   105  0.2500
   106  0.2500   107  0.2500   108  0.2500   109  0.2500   110  0.2500
   111  0.2500   112  0.2500   113  0.2500   114  0.2500   115  0.2500
   116  0.2500   117  0.2500   118  0.2500   119  0.2500   120  0.2500
   121  0.2500   122  0.2500   123  0.2500
 TRANSFORMING HESSIAN TO SYMMETRY COORDINATES

          PARAMETERS CONTROLLING GEOMETRY SEARCH ARE
          METHOD =QA                  UPHESS =BFGS    
          NNEG   =         0          NFRZ   =         3
          NSTEP  =        50          IFOLOW =         1
          HESS   =GUESS               RESTAR =         F
          IHREP  =         0          HSSEND =         F
          NPRT   =         0          NPUN   =         0
          OPTTOL = 5.000E-04          RMIN   = 1.500E-03
          RMAX   = 1.000E-01          RLIM   = 7.000E-02
          DXMAX  = 3.000E-01          PURIFY =         F
          MOVIE  =         F          TRUPD  =         T
          TRMAX  = 5.000E-01          TRMIN  = 5.000E-02
          ITBMAT =         5          STPT   =         F
          STSTEP = 1.000E-02          PROJCT=          F
          FROZEN COORD(S)=   1   2   3


      ***** EQUILIBRIUM GEOMETRY LOCATED *****
            (SUBJECT TO   3 CONSTRAINT(S))
 COORDINATES OF ALL ATOMS ARE (ANGS)
   ATOM   CHARGE       X              Y              Z
 ------------------------------------------------------------
 C           6.0   2.2829897820  -0.7770167472  -0.0474197893
 C           6.0   1.2104453746   0.1703645327   0.5131302953
 C           6.0   1.5530330126   1.6209013180   0.1329284828
 C           6.0  -0.2134113812  -0.2406458052   0.0464286507
 C           6.0  -1.3077201260   0.7162097974   0.5629856063
 C           6.0  -2.6649143733   0.4380621588  -0.0870132944
 O           8.0  -0.2388022241  -0.2705562410  -1.3745571004
 C           6.0  -0.5697642471  -1.6575199376   0.5004760567
 H           1.0   3.2754251812  -0.4219666060   0.2122571957
 H           1.0   2.1858816176  -1.7820222071   0.3475768712
 H           1.0   2.2184775304  -0.8358716911  -1.1287896699
 H           1.0   1.2335470358   0.0978088093   1.5990071685
 H           1.0   1.4145241471   1.8021429884  -0.9308710935
 H           1.0   0.9493554794   2.3406758533   0.6727162063
 H           1.0   2.5922559691   1.8360599280   0.3576108888
 H           1.0  -1.3738219384   0.6199787104   1.6447045375
 H           1.0  -1.0371798095   1.7461950085   0.3593292806
 H           1.0  -3.0444156763  -0.5418724880   0.1778417465
 H           1.0  -3.4036069275   1.1716092757   0.2145497321
 H           1.0  -2.5689203404   0.4718996668  -1.1657933793
 H           1.0  -0.0996906479   0.6001521838  -1.7073277920
 H           1.0  -0.5890068037  -1.7106303906   1.5850450590
 H           1.0  -1.5518408755  -1.9258893023   0.1342427085
 H           1.0   0.1271459396  -2.3943616146   0.1269706513


                     --------------------
                     INTERNAL COORDINATES
                     --------------------

                 - - ATOMS - -         COORDINATE      COORDINATE
 NO.   TYPE    I  J  K  L  M  N        (BOHR,RAD)       (ANG,DEG)
 ----------------------------------------------------------------
   1 STRETCH   1  9                     2.0513938       1.0855509
   2 STRETCH   1  2                     2.9043430       1.5369122
   3 STRETCH   1 11                     2.0501450       1.0848901
   4 STRETCH   1 10                     2.0488398       1.0841994
   5 STRETCH   2  4                     2.9361429       1.5537400
   6 STRETCH   2  3                     2.9067258       1.5381732
   7 STRETCH   2 12                     2.0570486       1.0885433
   8 STRETCH   3 14                     2.0474313       1.0834541
   9 STRETCH   3 13                     2.0559861       1.0879811
  10 STRETCH   3 15                     2.0499475       1.0847856
  11 STRETCH   4  8                     2.8911441       1.5299277
  12 STRETCH   4  7                     2.6862971       1.4215273
  13 STRETCH   4  5                     2.9152754       1.5426974
  14 STRETCH   5 16                     2.0560234       1.0880008
  15 STRETCH   5  6                     2.8918618       1.5303075
  16 STRETCH   5 17                     2.0488826       1.0842221
  17 STRETCH   6 20                     2.0476524       1.0835711
  18 STRETCH   6 19                     2.0481512       1.0838350
  19 STRETCH   6 18                     2.0479271       1.0837164
  20 STRETCH   7 21                     1.7809818       0.9424551
  21 STRETCH   8 24                     2.0424133       1.0807987
  22 STRETCH   8 23                     2.0445957       1.0819536
  23 STRETCH   8 22                     2.0523163       1.0860391
  24 BEND      1  2  3                  1.9131632     109.6161784
  25 BEND      1  2  4                  1.9464767     111.5248992
  26 BEND      1  2 12                  1.8838175     107.9347917
  27 BEND      2  1 11                  1.9342285     110.8231316
  28 BEND      2  4  8                  1.9490402     111.6717790
  29 BEND      2  3 13                  1.9502612     111.7417334
  30 BEND      2  3 15                  1.9275294     110.4393003
  31 BEND      2  4  5                  1.9664370     112.6685380
  32 BEND      2  1  9                  1.9274478     110.4346232
  33 BEND      2  3 14                  1.9597712     112.2866177
  34 BEND      2  4  7                  1.8988416     108.7956097
  35 BEND      2  1 10                  1.9562844     112.0868400
  36 BEND      3  2  4                  1.9598556     112.2914550
  37 BEND      3  2 12                  1.8804215     107.7402161
  38 BEND      4  5  6                  1.9542705     111.9714503
  39 BEND      4  5 16                  1.8977335     108.7321194
  40 BEND      4  7 21                  1.9080312     109.3221324
  41 BEND      4  8 22                  1.9238785     110.2301172
  42 BEND      4  8 23                  1.9184318     109.9180468
  43 BEND      4  8 24                  1.9591090     112.2486798
  44 BEND      4  2 12                  1.8770133     107.5449425
  45 BEND      4  5 17                  1.9276483     110.4461117
  46 BEND      5  4  7                  1.9125004     109.5781988
  47 BEND      5  4  8                  1.8858003     108.0483980
  48 BEND      5  6 18                  1.9510082     111.7845366
  49 BEND      5  6 19                  1.9425582     111.3003883
  50 BEND      5  6 20                  1.9162544     109.7932915
  51 BEND      6  5 17                  1.8903904     108.3113923
  52 BEND      6  5 16                  1.9308660     110.6304747
  53 BEND      7  4  8                  1.8473245     105.8438978
  54 BEND      9  1 10                  1.8733016     107.3322747
  55 BEND      9  1 11                  1.8865606     108.0919577
  56 BEND     10  1 11                  1.8833881     107.9101867
  57 BEND     13  3 15                  1.8665262     106.9440758
  58 BEND     13  3 14                  1.8812969     107.7903708
  59 BEND     14  3 15                  1.8742534     107.3868109
  60 BEND     16  5 17                  1.8607783     106.6147422
  61 BEND     18  6 19                  1.8810737     107.7775860
  62 BEND     18  6 20                  1.8781893     107.6123205
  63 BEND     19  6 20                  1.8925712     108.4363418
  64 BEND     22  8 23                  1.8858022     108.0485045
  65 BEND     22  8 24                  1.8999053     108.8565542
  66 BEND     23  8 24                  1.8746564     107.4099012
  67 TORSION   1  2  3 15              -0.8417683     -48.2297695
  68 TORSION   1  2  4  5              -3.1142565    -178.4337535
  69 TORSION   1  2  4  7              -0.9898626     -56.7149471
  70 TORSION   1  2  4  8               1.0427523      59.7453070
  71 TORSION   1  2  3 14              -2.9331500    -168.0571185
  72 TORSION   1  2  3 13               1.2336305      70.6818206
  73 TORSION   2  4  8 22               1.0961866      62.8068679
  74 TORSION   2  4  7 21              -1.1311756     -64.8115896
  75 TORSION   2  4  8 23              -3.1101421    -178.1980152
  76 TORSION   2  4  8 24              -1.0248752     -58.7210209
  77 TORSION   2  4  5 17               0.8690256      49.7914982
  78 TORSION   2  4  5  6               2.9773050     170.5870121
  79 TORSION   2  4  5 16              -1.1670263     -66.8656788
  80 TORSION   3  2  1  9               0.8685788      49.7659012
  81 TORSION   3  2  1 10               2.9563912     169.3887357
  82 TORSION   3  2  4  7               1.1653671      66.7706172
  83 TORSION   3  2  1 11              -1.2215031     -69.9869747
  84 TORSION   3  2  4  8              -3.0852033    -176.7691286
  85 TORSION   3  2  4  5              -0.9590268     -54.9481891
  86 TORSION   4  5  6 19              -3.0513084    -174.8270906
  87 TORSION   4  5  6 20              -0.9556781     -54.7563190
  88 TORSION   4  2  1  9               3.0500841     174.7569472
  89 TORSION   4  2  3 15              -3.0155230    -172.7767412
  90 TORSION   4  2  3 13              -0.9401242     -53.8651511
  91 TORSION   4  2  3 14               1.1762805      67.3959098
  92 TORSION   4  2  1 10              -1.1452889     -65.6202183
  93 TORSION   4  2  1 11               0.9600021      55.0040714
  94 TORSION   4  5  6 18               1.1273655      64.5932847
  95 TORSION   5  4  8 24               3.0862772     176.8306577
  96 TORSION   5  4  8 23               1.0010103      57.3536635
  97 TORSION   5  4  8 22              -1.0758463     -61.6414535
  98 TORSION   5  4  7 21               1.0257430      58.7707456
  99 TORSION   5  4  2 12               1.1067237      63.4105954
 100 TORSION   6  5  4  7               0.8606684      49.3126654
 101 TORSION   6  5  4  8              -1.1442985     -65.5634765
 102 TORSION   7  4  2 12              -3.0520677    -174.8705983
 103 TORSION   7  4  5 17              -1.2476111     -71.4828486
 104 TORSION   7  4  8 24               1.0388033      59.5190421
 105 TORSION   7  4  8 23              -1.0464637     -59.9579521
 106 TORSION   7  4  8 22              -3.1233203    -178.9530691
 107 TORSION   7  4  5 16               2.9995224     171.8599745
 108 TORSION   8  4  5 17               3.0306073     173.6410096
 109 TORSION   8  4  2 12              -1.0194528     -58.4103441
 110 TORSION   8  4  7 21               3.0552052     175.0503649
 111 TORSION   8  4  5 16               0.9945555      56.9838326
 112 TORSION   9  1  2 12              -1.1749832     -67.3215779
 113 TORSION  10  1  2 12               0.9128291      52.3012566
 114 TORSION  11  1  2 12               3.0181201     172.9255462
 115 TORSION  12  2  3 15               1.2039248      68.9798089
 116 TORSION  12  2  3 13              -3.0038618    -172.1086010
 117 TORSION  12  2  3 14              -0.8874570     -50.8475401
 118 TORSION  16  5  6 20              -3.0755684    -176.2170876
 119 TORSION  16  5  6 19               1.1119866      63.7121408
 120 TORSION  16  5  6 18              -0.9925248     -56.8674840
 121 TORSION  17  5  6 20               1.1740638      67.2689018
 122 TORSION  17  5  6 19              -0.9215665     -52.8018698
 123 TORSION  17  5  6 18              -3.0260779    -173.3814946

          INTERNUCLEAR DISTANCES (ANGS.)


 =====================================================
   GAMESS/COSab RESULTS
 =====================================================

   Dielectric Constant                  = INFTY
   Basic Grid Size                      =                 1082
   Number of Segments                   =                   92
   Number of Segments located on spheres=                  269
   Number of Segments of the cavity     =                  687
   Solvent Radius (rsolv)               = 1.40
   Outlying Charge Error Method         = double cavity

 =====================================================

  Total solvated Energy (a.u.)          =  -349.3505610739
  Total Energy corrected (a.u.)         =  -349.3504325589

  Outlying charge effect (a.u.)         =     0.0001285150
  Outlying charge effect (kcal/mol)     =     0.0806444326

  Dielectric Energy (a.u.)              =    -0.0087682196
  Dielectric energy corr. (a.u.)        =    -0.0086397046

  Sum of polarization charges           =     0.0272607123
  Sum of polarization charges(cor.)     =    -0.0272607123

  Total surface area of cavity (A**2)   =  167.02
  Total volume of cavity (A**3)         =  174.13

 =====================================================
 NPS=                   687
NR.  ATOM  (X, Y, Z)(a.u.)                  CHARGE(e)  AREA(A**2) SIGMA(e/A**2)
   1   1   4.284969  -4.692628  -2.061285   0.002343   0.418105   0.005604
   2   1   5.564061  -1.875811   3.453848   0.001062   0.325193   0.003267
   3   1   6.950121  -4.056332   0.709577   0.001799   0.418105   0.004303
   4   1   7.010687  -2.113559  -2.658100   0.001597   0.371649   0.004297
   5   1   7.579509  -1.453778  -1.992777   0.001681   0.371649   0.004522
   6   1   7.485394  -3.187232   1.038850   0.001170   0.278737   0.004196
   7   1   6.390208  -1.903996   3.038446   0.001107   0.278737   0.003970
   8   1   3.560845  -4.314176  -2.459845   0.000654   0.139368   0.004694
   9   1   5.962394  -0.790124   3.243220   0.000631   0.232280   0.002718
  10   1   5.834972  -2.973826   3.025691   0.001595   0.371649   0.004293
  11   1   6.736371  -3.539794   1.941792   0.001975   0.371649   0.005314
  12   1   7.413917  -3.617078  -0.332927   0.001689   0.511017   0.003305
  13   1   7.366823  -2.921525  -1.779069   0.001446   0.464561   0.003113
  14   1   6.951743  -0.687208  -2.681452   0.002142   0.371649   0.005762
  15   1   6.429386   0.373261  -2.623160   0.000663   0.139368   0.004755
  16   1   4.636522  -2.747367   3.452204   0.000992   0.325193   0.003050
  17   1   6.429783  -4.537821  -0.711773   0.001163   0.371649   0.003130
  18   1   5.328647  -4.806339  -1.543264   0.001245   0.325193   0.003829
  19   1   5.469554  -4.154400  -2.484332   0.001750   0.464561   0.003766
  20   1   6.491382  -3.203808  -2.645490   0.001038   0.325193   0.003191
  21   1   7.795123  -2.680728  -0.924963   0.000802   0.278737   0.002876
  22   1   6.753501  -2.738006   2.503102   0.001379   0.278737   0.004946
  23   1   7.026442   0.246724  -2.086286   0.001676   0.325193   0.005153
  24   1   6.598593  -4.055291  -1.630304   0.001373   0.511017   0.002687
  25   1   6.013391   0.290661  -2.971108   0.000528   0.139368   0.003786
  26   2   5.173372   1.101185   3.282301   0.000005   0.046456   0.000117
  27   2   4.964373   0.742110   3.604360   0.000069   0.139368   0.000493
  28   3   4.207577   6.137616   2.043226   0.002394   0.464561   0.005154
  29   3   1.603126   6.446041  -0.781404   0.001259   0.325193   0.003872
  30   3   5.413486   5.350011  -1.454725   0.001024   0.278737   0.003672
  31   3   4.710303   3.047085   3.587607   0.000683   0.278737   0.002452
  32   3   2.615178   3.802304   3.943845   0.000696   0.232280   0.002997
  33   3   3.814547   3.774930   3.857244   0.000802   0.278737   0.002878
  34   3   4.146137   4.785377   3.389756   0.001173   0.278737   0.004209
  35   3   4.878408   5.166419  -2.215067   0.001322   0.325193   0.004067
  36   3   1.919585   6.148361  -1.681271   0.001050   0.278737   0.003768
  37   3   5.163415   2.883279  -2.795963   0.000662   0.185824   0.003561
  38   3   3.678716   5.513350   3.030929   0.000973   0.232280   0.004187
  39   3   4.610309   5.242288   2.845014   0.001192   0.278737   0.004278
  40   3   1.003669   5.907986  -1.317661   0.001139   0.232280   0.004905
  41   3   2.906890   6.508805  -1.301297   0.001162   0.418105   0.002780
  42   3   4.295279   6.104831  -1.532313   0.001089   0.418105   0.002605
  43   3   5.734261   4.343107  -1.941680   0.001277   0.278737   0.004580
  44   3   5.866435   3.287311  -2.123557   0.001507   0.325193   0.004633
  45   3   2.661706   6.818527  -0.074496   0.001134   0.418105   0.002711
  46   3   3.644207   6.701790   0.986443   0.001373   0.418105   0.003283
  47   3   4.655753   6.382666   0.801419   0.001054   0.325193   0.003240
  48   3   4.931211   6.176745  -0.525657   0.001324   0.464561   0.002849
  49   3   3.233652   4.466128   3.747819   0.000758   0.232280   0.003265
  50   3   4.784750   3.963917   3.421437   0.000854   0.278737   0.003066
  51   3   3.536862   6.042575  -1.994731   0.000540   0.232280   0.002327
  52   3   0.637063   5.334080  -1.710196   0.000303   0.092912   0.003263
  53   3   5.265992   4.036187  -2.559991   0.000764   0.185824   0.004114
  54   3   3.855866   6.687839  -0.293599   0.000915   0.418105   0.002190
  55   5  -3.081874   4.415184   3.193952   0.001052   0.278737   0.003773
  56   5  -3.016748   3.789891   3.901218   0.000658   0.185824   0.003538
  57   5  -2.117254   4.278307   3.431203   0.001217   0.278737   0.004368
  58   5  -3.963054   3.948453   3.371420   0.001042   0.371649   0.002803
  59   5  -4.645616   3.547845   3.241262   0.000254   0.139368   0.001822
  60   5  -3.930109   4.611789   2.304523   0.000833   0.325193   0.002561
  61   5  -4.510964   2.998080   3.787665   0.000265   0.185824   0.001428
  62   5  -1.817201   3.720369   3.936902   0.000592   0.139368   0.004251
  63   6  -7.399167   2.731411  -2.417394   0.002348   0.418105   0.005616
  64   6  -6.404266   0.166020   3.295904   0.000891   0.278737   0.003195
  65   6  -8.737963   0.405061   0.468506   0.001852   0.418105   0.004429
  66   6  -7.022104  -0.941956  -2.849089   0.001543   0.371649   0.004152
  67   6  -4.168990   3.759665  -2.386360   0.000553   0.232280   0.002383
  68   6  -5.208003   4.569118  -0.671735   0.000743   0.232280   0.003199
  69   6  -4.924957   4.236815  -1.792536   0.000897   0.278737   0.003217
  70   6  -5.919362   3.790944  -2.337857   0.001570   0.325193   0.004828
  71   6  -7.023286  -1.714920  -2.131474   0.001430   0.325193   0.004396
  72   6  -8.466711  -0.486943   0.721854   0.001205   0.278737   0.004322
  73   6  -6.958676  -0.379764   2.857002   0.001117   0.278737   0.004006
  74   6  -6.761053   3.668688  -1.963814   0.001124   0.232280   0.004840
  75   6  -6.438761   3.117108  -2.824429   0.001416   0.278737   0.005081
  76   6  -5.849633  -0.748444   3.172858   0.000560   0.232280   0.002410
  77   6  -7.479782   0.690641   2.715336   0.001470   0.325193   0.004519
  78   6  -8.295584   0.362864   1.691050   0.001788   0.325193   0.005499
  79   6  -8.611032  -0.281386  -0.686640   0.001520   0.464561   0.003271
  80   6  -7.944321  -0.670908  -2.056381   0.001469   0.464561   0.003162
  81   6  -5.830872  -1.802058  -2.759840   0.001885   0.371649   0.005072
  82   6  -6.662061   1.219653   3.224730   0.001064   0.325193   0.003273
  83   6  -8.756801   1.014367  -0.800613   0.001260   0.418105   0.003015
  84   6  -8.247451   1.830723  -1.886270   0.001576   0.418105   0.003770
  85   6  -7.624883   1.549274  -2.821729   0.001878   0.464561   0.004043
  86   6  -7.530260   0.151169  -2.922122   0.001052   0.325193   0.003234
  87   6  -5.737883   4.331420  -1.395837   0.000867   0.232280   0.003734
  88   6  -4.959093   3.637763  -2.690817   0.001004   0.278737   0.003601
  89   6  -8.105189  -1.121933  -1.195208   0.000817   0.278737   0.002931
  90   6  -7.783399  -0.151381   2.239085   0.001366   0.278737   0.004901
  91   6  -6.029821  -2.222938  -2.161776   0.000600   0.139368   0.004307
  92   6  -6.303853   2.057897   3.176754   0.000370   0.139368   0.002657
  93   6  -8.366953   0.520909  -1.923551   0.001229   0.464561   0.002646
  94   7  -1.857710  -2.533936  -4.717786   0.004479   0.240512   0.018621
  95   7   0.358789  -0.392032  -5.743048   0.001651   0.274871   0.006005
  96   7  -1.604014  -3.121927  -4.153294   0.004315   0.240512   0.017940
  97   7   0.401944  -3.113365  -4.348498   0.006959   0.309230   0.022504
  98   7  -0.754144  -2.957936  -4.715749   0.004976   0.274871   0.018102
  99   7  -2.567936  -2.474957  -4.090305   0.007635   0.309230   0.024689
 100   7  -0.720961  -0.032731  -5.801113   0.001120   0.274871   0.004076
 101   7  -1.818820   0.221613  -5.453637   0.001858   0.274871   0.006759
 102   7   1.338457  -0.155086  -5.287269   0.001984   0.240512   0.008249
 103   7   0.929978  -2.282927  -4.946601   0.006033   0.274871   0.021948
 104   7   0.708442  -1.434367  -5.490226   0.002811   0.206154   0.013638
 105   7  -0.357880  -1.226957  -5.766724   0.004962   0.412307   0.012035
 106   7  -1.219997  -2.044888  -5.358292   0.006351   0.377948   0.016804
 107   7  -2.359416  -1.635870  -4.976387   0.007079   0.377948   0.018731
 108   7  -2.169778  -0.718114  -5.348645   0.003757   0.240512   0.015623
 109   7  -0.338625  -3.400474  -4.082310   0.004359   0.206154   0.021142
 110   7  -0.017478  -2.320363  -5.262817   0.006473   0.377948   0.017127
 111   7  -1.375621  -0.843700  -5.695879   0.003468   0.309230   0.011214
 112   7   1.212729  -1.041057  -5.338907   0.002853   0.206154   0.013839
 113   8  -2.087742  -6.391886  -0.678083   0.002074   0.418105   0.004960
 114   8  -3.781219  -5.186391   2.604213   0.001516   0.371649   0.004079
 115   8  -0.068451  -6.452818   2.442961   0.001270   0.371649   0.003418
 116   8  -1.716701  -4.817204  -2.376220   0.000650   0.139368   0.004663
 117   8  -1.692386  -5.471781  -1.957991   0.000897   0.185824   0.004830
 118   8  -0.099975  -5.864652   3.367402   0.001329   0.371649   0.003577
 119   8  -3.244165  -4.937735   3.461055   0.000591   0.185824   0.003179
 120   8  -2.271752  -5.741203  -1.513810   0.000764   0.185824   0.004111
 121   8  -1.485060  -6.027898  -1.448552   0.000798   0.185824   0.004295
 122   8  -3.964371  -4.241909   3.117025   0.001510   0.325193   0.004644
 123   8  -2.735765  -5.901739   2.910913   0.001220   0.464561   0.002626
 124   8  -1.288975  -6.477351   2.692075   0.001096   0.464561   0.002358
 125   8   0.935177  -5.746636   2.790120   0.001406   0.325193   0.004325
 126   8  -3.294512  -6.087222   1.741891   0.001086   0.418105   0.002598
 127   8  -2.620173  -6.559091   0.547265   0.001271   0.418105   0.003040
 128   8  -1.512114  -6.840683   0.360723   0.001374   0.464561   0.002957
 129   8  -0.815733  -6.848821   1.580852   0.000769   0.325193   0.002365
 130   8  -2.350662  -4.880094  -2.153643   0.000415   0.139368   0.002978
 131   8  -1.086623  -5.191115  -2.223656   0.000580   0.139368   0.004161
 132   8  -1.738840  -5.941473   3.385888   0.000567   0.278737   0.002035
 133   8  -3.918552  -3.253170   3.434459   0.000637   0.185824   0.003427
 134   8   1.111981  -4.852933   3.501782   0.001128   0.278737   0.004047
 135   8  -2.143847  -6.663144   1.769382   0.000934   0.464561   0.002010
 136   9   8.562647  -0.607337   1.007647  -0.001926   0.392554  -0.004907
 137   9   7.937364   0.302703  -0.929458  -0.000699   0.333671  -0.002094
 138   9   8.414088  -0.995304  -0.622527  -0.000783   0.372926  -0.002100
 139   9   8.177083  -1.826434   1.414173  -0.000741   0.353299  -0.002097
 140   9   7.282157  -0.260343   2.534911  -0.001122   0.431809  -0.002599
 141   9   8.271601   0.475625   0.684003  -0.002118   0.372926  -0.005680
 142   9   8.453680  -0.061723  -0.205591  -0.001459   0.353299  -0.004129
 143   9   8.490512  -1.654782   0.323404  -0.001115   0.412182  -0.002705
 144   9   7.905976  -1.159214   2.121116  -0.001097   0.412182  -0.002661
 145   9   7.969358   0.166438   1.793512  -0.001811   0.353299  -0.005127
 146  10   4.249222  -5.590283   1.696265  -0.002015   0.353299  -0.005702
 147  10   4.399970  -5.586742  -0.361876  -0.000723   0.294415  -0.002457
 148  10   4.295795  -4.258397   2.940282  -0.000836   0.314043  -0.002662
 149  10   5.499436  -4.700684   2.200982  -0.000595   0.353299  -0.001683
 150  10   5.449590  -5.409441   0.301398  -0.000701   0.372926  -0.001879
 151  10   4.335520  -5.001622   2.479703  -0.001692   0.353299  -0.004790
 152  10   5.469667  -5.288926   1.398839  -0.001295   0.412182  -0.003142
 153  10   4.346184  -5.814711   0.660051  -0.001925   0.372926  -0.005163
 154  11   4.214836  -2.213319  -4.506483  -0.002389   0.431809  -0.005533
 155  11   4.819979  -3.217829  -3.852766  -0.000788   0.353299  -0.002229
 156  11   5.850348  -1.304859  -3.924895  -0.000475   0.314043  -0.001512
 157  11   5.216289  -0.356611  -4.001497  -0.000868   0.333671  -0.002602
 158  11   3.781662  -3.340636  -3.795967  -0.001018   0.392554  -0.002594
 159  11   5.573578  -2.467269  -3.960445  -0.000981   0.392554  -0.002498
 160  11   5.020096  -1.446883  -4.442266  -0.001363   0.333671  -0.004084
 161  11   4.278159  -0.753561  -4.445115  -0.001622   0.294415  -0.005508
 162  12   2.663110   0.185030   5.455790  -0.001582   0.353299  -0.004477
 163  12   1.762324   1.530218   4.996936  -0.001083   0.314043  -0.003447
 164  12   3.629562   1.188897   4.849492  -0.000877   0.294415  -0.002979
 165  12   3.761833  -0.648250   4.836613  -0.000723   0.314043  -0.002301
 166  12   1.604139   0.438788   5.354541  -0.001825   0.353299  -0.005164
 167  12   2.710619   1.362053   5.144237  -0.000923   0.333671  -0.002767
 168  12   3.498483   0.137249   5.182698  -0.001003   0.255160  -0.003932
 169  12   2.877632  -1.338806   4.869624  -0.001460   0.392554  -0.003719
 170  12   2.029606  -0.636479   5.317264  -0.001775   0.333671  -0.005319
 171  12   4.193687   0.436169   4.603635  -0.000453   0.215905  -0.002100
 172  13   2.637367   4.220537  -4.076348  -0.002544   0.431809  -0.005892
 173  13   4.244333   3.245708  -3.640773  -0.000651   0.274788  -0.002371
 174  13   3.630766   4.972178  -3.391162  -0.000825   0.314043  -0.002629
 175  13   1.754118   5.336428  -2.968381  -0.000435   0.235532  -0.001846
 176  13   3.400056   3.202753  -4.096935  -0.002136   0.333671  -0.006401
 177  13   3.975229   4.180844  -3.692600  -0.000992   0.353299  -0.002806
 178  13   2.681121   5.293736  -3.330666  -0.001263   0.392554  -0.003216
 179  13   1.422891   4.801028  -3.348065  -0.001628   0.333671  -0.004880
 180  14   0.706905   6.237291   2.521237  -0.002320   0.392554  -0.005910
 181  14   2.307782   6.058347   3.031235  -0.000683   0.314043  -0.002176
 182  14   1.419268   4.725928   3.680203  -0.000825   0.274788  -0.003002
 183  14   0.806951   6.554899   0.552388  -0.000663   0.294415  -0.002251
 184  14   1.865534   6.876816   1.370679  -0.000686   0.333671  -0.002055
 185  14   1.729827   5.625644   3.412556  -0.001018   0.314043  -0.003242
 186  14   0.740588   5.454657   3.236334  -0.001766   0.294415  -0.005998
 187  14   0.771632   6.644524   1.507192  -0.001945   0.372926  -0.005215
 188  14   1.951718   6.628633   2.341962  -0.001309   0.372926  -0.003509
 189  15   7.081407   4.441196   1.247434  -0.002701   0.490692  -0.005504
 190  15   6.039141   4.121479   2.751724  -0.000717   0.353299  -0.002030
 191  15   6.154249   5.503132   1.244606  -0.000943   0.372926  -0.002528
 192  15   6.682736   4.645524  -0.536427  -0.000643   0.294415  -0.002183
 193  15   6.645788   3.304619   2.394906  -0.002349   0.490692  -0.004786
[...]
 430  19  -6.072539   2.957484   2.816037  -0.000002   0.025250  -0.000098
 431   6  -5.762500   2.355894   3.260892   0.000270   0.127698   0.002117
 432   5  -5.125600   2.624430   3.500023   0.000227   0.127698   0.001777
 433   5   0.095579   2.752428   3.788410   0.000249   0.275234   0.000905
 434  12   1.031751   2.376815   3.987730  -0.000133   0.275234  -0.000482
 435  14   0.910989   3.327734   3.597599  -0.000159   0.275234  -0.000576
 436   5  -0.412636   2.403294   4.137385   0.000014   0.089506   0.000156
 437  12   0.499406   1.966583   4.249204  -0.000015   0.089506  -0.000169
 438  16  -0.583403   2.245656   4.337624  -0.000110   0.089506  -0.001234
 439  12   1.102575   2.017826   4.425572  -0.000023   0.010007  -0.002259
 440   5  -0.263578   2.590338   4.180397   0.000083   0.014244   0.005859
 441   5  -1.432820   4.683466   2.758082  -0.000050   0.072598  -0.000683
 442  14  -0.517125   5.072254   2.608546  -0.000358   0.072598  -0.004932
 443  17  -1.366022   4.882659   2.538439  -0.000260   0.072598  -0.003584
 444  14   0.044862   5.072222   3.031577  -0.001122   0.281885  -0.003980
 445  14   0.652112   4.193027   3.556541  -0.000661   0.281885  -0.002345
 446   5  -0.902666   3.902899   3.519200   0.001665   0.786510   0.002116
 447  16  -1.221235   2.648636   4.508693  -0.000098   0.069592  -0.001411
 448  16  -2.241223   3.106464   4.487100  -0.000266   0.154567  -0.001723
 449  16  -3.580246   2.948252   4.391206  -0.000381   0.154567  -0.002467
 450  16  -4.458893   2.266089   4.276828  -0.000144   0.069592  -0.002062
 451   5  -1.451956   3.106726   4.197117   0.000049   0.152514   0.000323
 452   5  -2.935724   3.423429   4.134631  -0.000021   0.152514  -0.000137
 453   5  -4.299248   2.770303   3.993209  -0.000225   0.152514  -0.001476
 454   5  -4.323089   4.669076   1.029770   0.000011   0.034481   0.000309
 455  17  -4.066764   4.796682   0.935028  -0.000077   0.034481  -0.002234
 456  19  -5.046895   4.511186   0.868573   0.000043   0.034481   0.001257
 457  17  -3.522545   5.078985   1.280519  -0.000198   0.085471  -0.002316
 458  17  -2.534971   5.003257   2.209444  -0.000607   0.201019  -0.003022
 459   5  -3.432929   4.825012   1.890361  -0.000413   0.177888  -0.002322
 460   5  -2.249072   4.693572   2.798264   0.000034   0.104421   0.000329
 461  19  -6.137308   3.341663   2.614997  -0.000176   0.189226  -0.000928
 462  19  -5.784738   4.200396   1.616580  -0.000888   0.386023  -0.002300
 463   5  -4.968149   3.719002   2.697170   0.000632   0.519703   0.001216
 464   5  -4.575718   4.591416   1.476871   0.000519   0.266502   0.001947
 465   6  -4.554604  -1.491885  -3.214366   0.000369   0.082480   0.004478
 466   7  -3.647478  -1.631898  -3.555802   0.002106   0.082480   0.025536
 467  20  -4.517551  -1.295628  -3.444192   0.000272   0.082480   0.003300
 468   6  -4.221898  -2.254382  -2.530948   0.001762   0.248674   0.007086
 469   7  -3.333696  -2.430524  -2.925770   0.004409   0.248674   0.017731
 470  23  -3.759242  -3.029789  -2.237535   0.000543   0.248674   0.002183
 471   7  -3.291830  -2.168646  -3.563595   0.002668   0.146648   0.018193
 472   6  -4.574484  -1.849072  -3.079103   0.000949   0.163582   0.005799
 473   6  -4.660897  -1.102153   3.247075   0.000159   0.205294   0.000775
 474   8  -3.942755  -1.793502   3.416218   0.000146   0.205294   0.000712
 475  16  -4.100131  -0.889788   3.721679  -0.000265   0.205294  -0.001289
 476   6  -5.219503  -1.592071   2.840485  -0.000107   0.086824  -0.001234
 477   8  -4.485970  -2.268506   2.962761   0.000114   0.086824   0.001316
 478  18  -5.338645  -1.841929   2.712808  -0.000195   0.086824  -0.002245
 479   8  -4.105735  -2.385209   3.425327   0.000291   0.110370   0.002636
 480   6  -5.138019  -1.435377   3.114095   0.000259   0.110370   0.002345
 481  16  -4.791789   1.639388   4.199304  -0.000265   0.192073  -0.001381
 482  16  -4.562824   0.273139   4.172120  -0.001174   0.392218  -0.002992
 483   6  -5.654737   1.011927   3.583420   0.000839   0.527114   0.001592
 484   6  -5.285903  -0.515832   3.468923   0.000589   0.270536   0.002176
 485   6  -4.982538   4.558129   0.529828   0.000027   0.024972   0.001079
 486  17  -4.271449   4.729977   0.659453   0.000017   0.024972   0.000685
 487  19  -5.273501   4.532141   0.602751  -0.000035   0.024972  -0.001416
 488   6  -2.938065   3.461663  -2.228978  -0.000218   0.232289  -0.000939
 489  17  -2.363189   3.801012  -1.879514  -0.000832   0.232289  -0.003581
 490  21  -1.952214   3.263634  -2.715626  -0.002561   0.232289  -0.011025
 491  17  -2.773292   4.423224  -1.383619  -0.000508   0.204065  -0.002491
 492  17  -3.495442   4.910526  -0.178275  -0.001603   0.418923  -0.003827
 493   6  -3.992176   4.246838  -1.392888   0.000596   0.557978   0.001068
 494   6  -4.740139   4.681811   0.059957   0.000610   0.287633   0.002121
 495   6  -5.680440  -2.694606  -1.615794   0.000009   0.072619   0.000129
 496  18  -5.772465  -2.863930  -1.380836  -0.000207   0.072619  -0.002848
 497  23  -5.117109  -3.398709  -1.347535  -0.000328   0.072619  -0.004521
 498  18  -6.026171  -1.591213   2.708940  -0.000141   0.070662  -0.002000
 499  18  -7.060336  -1.293403   2.328968  -0.000242   0.157913  -0.001530
 500  18  -7.949156  -1.233327   1.277679  -0.000181   0.157913  -0.001144
 501  18  -8.059374  -1.551778  -0.058458  -0.000277   0.157913  -0.001757
 502  18  -7.342772  -2.109447  -1.094946  -0.000313   0.157913  -0.001982
 503  18  -6.369769  -2.583970  -1.456414  -0.000007   0.070662  -0.000095
 504   6  -6.352242  -1.084500   2.753598  -0.000083   0.153911  -0.000540
 505   6  -7.641963  -0.803401   1.945619   0.000180   0.153911   0.001170
 506   6  -8.236438  -0.957146   0.524989   0.000082   0.153911   0.000530
 507   6  -7.875611  -1.478479  -0.886834  -0.000032   0.153911  -0.000211
 508   6  -6.717327  -2.139341  -1.672244   0.000035   0.153911   0.000225
 509  19  -5.837389   4.596330   0.337156  -0.000088   0.068792  -0.001276
 510  19  -6.413609   4.398969  -0.594244  -0.000192   0.152830  -0.001256
 511  19  -7.368811   3.700047  -1.233950  -0.000185   0.152830  -0.001212
 512  19  -8.271261   2.718162  -1.056148  -0.000211   0.152830  -0.001379
 513  19  -8.746459   1.860779  -0.134623  -0.000292   0.152830  -0.001910
 514  19  -8.597207   1.483696   1.148210  -0.000162   0.152830  -0.001061
 515  19  -7.885440   1.743395   2.259998  -0.000200   0.152830  -0.001306
 516  19  -6.906530   2.532107   2.739370  -0.000305   0.152830  -0.001997
 517   6  -5.669166   4.505849  -0.228116  -0.000153   0.150687  -0.001018
 518   6  -6.598732   4.016467  -1.314723   0.000091   0.150687   0.000601
 519   6  -7.700882   3.019240  -1.588772   0.000053   0.150687   0.000352
 520   6  -8.518245   1.927997  -0.936538  -0.000026   0.150687  -0.000170
 521   6  -8.711629   1.195585   0.371314  -0.000012   0.150687  -0.000077
 522   6  -8.200784   1.125941   1.792049   0.000032   0.150687   0.000212
 523   6  -7.197701   1.747966   2.736088   0.000054   0.150687   0.000357
 524   6  -6.302761   2.562192   2.947713   0.000034   0.084045   0.000407
 525   6  -3.507434   2.990696  -3.001065  -0.000144   0.095619  -0.001507
 526  20  -3.551426   2.821843  -3.251512  -0.000229   0.095619  -0.002390
 527  21  -2.502920   2.779900  -3.424774  -0.000657   0.095619  -0.006876
 528  20  -5.216495  -1.164356  -3.493821   0.000055   0.071197   0.000778
 529  20  -6.192640  -0.560915  -3.561746  -0.000233   0.159398  -0.001459
 530  20  -6.807542   0.682755  -3.577448  -0.000230   0.159398  -0.001444
 531  20  -6.508104   2.035763  -3.508367  -0.000150   0.159398  -0.000941
 532  20  -5.427343   2.897069  -3.385190  -0.000207   0.159398  -0.001299
 533  20  -4.289593   3.023838  -3.279982  -0.000154   0.071197  -0.002170
 534   6  -5.749944  -1.202634  -3.208038   0.000197   0.154810   0.001271
 535   6  -6.864260  -0.115391  -3.273082   0.000005   0.154810   0.000033
 536   6  -7.052143   1.431127  -3.241290   0.000025   0.154810   0.000159
 537   6  -6.230130   2.749919  -3.126786   0.000166   0.154810   0.001071
 538   6  -4.763379   3.255145  -2.980435  -0.000147   0.154810  -0.000948
 539  21  -1.901623   3.108383  -3.531243  -0.001567   0.153082  -0.010234
 540   6  -3.312546   3.411056  -2.752443   0.000352   0.220381   0.001595
 541  23  -4.545459  -3.659624  -1.701663  -0.001107   0.291884  -0.003792
 542   6  -5.124775  -2.504597  -2.252007   0.001226   0.412009   0.002976
 543   7  -2.444769  -3.351987  -2.964072   0.001196   0.058178   0.020555
 544   8  -2.644646  -3.924767  -2.436335   0.000331   0.058178   0.005682
 545  23  -2.919034  -3.940245  -2.311496   0.000113   0.058178   0.001936
 546   7  -0.063489  -3.961539  -2.984568   0.001227   0.055342   0.022164
 547   8  -0.148958  -4.564612  -2.459864   0.000304   0.055342   0.005498
 548  24   0.073945  -4.723060  -2.333917   0.000065   0.055342   0.001177
 549   8  -2.111674  -4.157593  -2.654503   0.001881   0.330702   0.005688
 550   8  -0.726043  -4.508173  -2.669244   0.001896   0.330702   0.005732
 551   7  -1.221133  -3.517704  -3.463098   0.010713   0.607640   0.017631
 552   7   2.111991   0.255838  -4.526674   0.000549   0.075804   0.007240
 553  11   2.968102  -0.065640  -4.201236   0.000737   0.075804   0.009722
 554  21   2.022890   0.565880  -4.517284  -0.000089   0.075804  -0.001174
 555  11   2.784179  -3.249088  -3.561739   0.000721   0.220483   0.003272
 556  11   3.061095  -2.358532  -4.281976   0.000532   0.443478   0.001199
 557  11   3.398735  -0.977330  -4.480785   0.000089   0.443478   0.000202
 558   7   1.524493  -2.776225  -4.157260   0.009960   0.542243   0.018367
 559   7   1.907808  -1.412668  -4.853326   0.008179   0.542243   0.015083
 560   7   2.188358  -0.161760  -4.781025   0.002590   0.273095   0.009484
 561   7  -2.413164   1.012151  -4.785003   0.000465   0.085582   0.005438
 562  20  -3.274460   1.221936  -4.475159   0.000386   0.085582   0.004508
 563  21  -2.255395   1.294812  -4.773274  -0.000295   0.085582  -0.003448
 564  20  -3.914623   0.986018  -4.624898  -0.000120   0.212509  -0.000566
 565  20  -4.252382  -0.122193  -4.453498   0.000298   0.427654   0.000696
 566  20  -4.506912  -1.091435  -3.847383   0.000749   0.212509   0.003526
 567   7  -2.799058   0.152101  -4.928802   0.005961   0.520858   0.011445
 568   7  -3.203609  -1.266863  -4.397735   0.008935   0.520858   0.017154
 569  21   1.466404   0.850406  -5.013424  -0.000784   0.085042  -0.009221
 570  21   0.316590   0.835230  -5.533803  -0.002250   0.185435  -0.012132
 571  21  -1.176761   1.127869  -5.392390  -0.002067   0.185435  -0.011148
 572   7   1.067764   0.376700  -5.246578  -0.000852   0.181595  -0.004689
 573   7  -0.540004   0.493326  -5.613541  -0.001281   0.181595  -0.007053
 574   7  -1.787302   0.838486  -5.231839  -0.000320   0.097371  -0.003291
 575  23  -3.445283  -3.721087  -2.313362   0.000339   0.222271   0.001526
 576   7  -2.720876  -3.005276  -3.347208   0.003665   0.276024   0.013277
 577  24   0.523675  -4.814027  -2.343794   0.000398   0.257222   0.001546
 578   7   0.544269  -3.732016  -3.341194   0.004543   0.319815   0.014204
 579   8   1.713789  -5.569392   2.070910  -0.000018   0.077152  -0.000227
 580  10   2.667336  -5.365784   1.859422  -0.000290   0.077152  -0.003763
 581  24   1.828284  -5.687846   1.816952  -0.000245   0.077152  -0.003176
 582  10   3.267086  -4.140607   2.943183  -0.000471   0.277026  -0.001700
 583  10   3.186373  -5.112460   2.279906  -0.001041   0.277026  -0.003756
 584   8   1.817452  -4.740868   2.950565   0.001860   0.772295   0.002408
 585   8   1.442752  -3.246272   3.847356   0.000019   0.087244   0.000217
 586  12   1.952858  -2.415238   4.019576   0.000026   0.087244   0.000301
 587  22   1.234444  -3.220551   4.069732  -0.000164   0.087244  -0.001883
 588  12   2.471644  -2.149310   4.173928  -0.000003   0.012086  -0.000274
 589   8   1.673915  -3.329768   3.847771   0.000083   0.017154   0.004823
 590   8  -3.444508  -2.221158   3.833626  -0.000054   0.084858  -0.000632
 591  16  -3.519159  -1.285210   4.036827  -0.000061   0.084858  -0.000715
 592  22  -3.249821  -2.281523   4.061487  -0.000206   0.084858  -0.002429
 593  16  -3.896345  -0.829398   4.132010  -0.000054   0.039144  -0.001371
 594   8  -3.711167  -2.194393   3.792585   0.000166   0.055409   0.002990
 595   8  -4.705949  -3.909467   2.061428  -0.000053   0.069311  -0.000766
 596  18  -5.448398  -3.325002   1.780104  -0.000334   0.069311  -0.004818
 597  23  -4.874374  -3.945886   1.812592  -0.000258   0.069311  -0.003716
 598  18  -5.715057  -2.669538   2.219547  -0.001623   0.414929  -0.003912
 599   8  -4.485169  -3.190324   2.859819   0.001294   0.587393   0.002203
 600  22  -3.269292  -3.011123   4.152504  -0.000113   0.068119  -0.001665
 601  22  -3.067779  -4.090511   4.103218  -0.000340   0.150811  -0.002257
 602  22  -2.194650  -5.092836   4.069620  -0.000425   0.150811  -0.002821
 603  22  -0.893835  -5.368386   4.079200  -0.000437   0.150811  -0.002896
 604  22   0.310127  -4.806051   4.128096  -0.000247   0.150811  -0.001637
 605  22   0.931249  -3.900921   4.183440  -0.000120   0.068119  -0.001756
 606   8  -3.474506  -3.437096   3.792729  -0.000037   0.149728  -0.000248
 607   8  -2.901956  -4.815751   3.735369  -0.000096   0.149728  -0.000641
 608   8  -1.614118  -5.572761   3.721141  -0.000207   0.149728  -0.001383
 609   8  -0.130295  -5.402871   3.755782  -0.000083   0.149728  -0.000554
 610   8   0.951180  -4.374586   3.825324  -0.000056   0.149728  -0.000377
 611  23  -3.154071  -4.536951  -2.017922  -0.000063   0.073550  -0.000854
 612  23  -3.178633  -5.462330  -1.273983  -0.000346   0.166123  -0.002084
 613  23  -3.532208  -5.942893   0.026264  -0.000429   0.166123  -0.002580
 614  23  -4.115876  -5.466791   1.242511  -0.000426   0.166123  -0.002562
 615  23  -4.585012  -4.543761   1.824150  -0.000084   0.073550  -0.001135
 616   8  -2.740269  -4.957043  -1.839605   0.000007   0.158588   0.000047
 617   8  -2.924833  -5.967143  -0.604540  -0.000117   0.158588  -0.000736
 618   8  -3.485413  -5.969812   0.900616  -0.000181   0.158588  -0.001142
 619   8  -4.154892  -4.963777   1.958654  -0.000181   0.158588  -0.001140
 620  24   1.287572  -6.088326   1.819831  -0.000120   0.066883  -0.001794
 621  24   0.463863  -6.638304   1.367879  -0.000351   0.148011  -0.002371
 622  24  -0.324910  -6.861535   0.336522  -0.000376   0.148011  -0.002539
 623  24  -0.581945  -6.479006  -0.897697  -0.000228   0.148011  -0.001538
 624  24  -0.204934  -5.642972  -1.843532  -0.000288   0.148011  -0.001949
 625   8   0.745693  -6.213495   2.013226  -0.000076   0.147031  -0.000519
 626   8  -0.317141  -6.783808   1.155217  -0.000146   0.147031  -0.000991
 627   8  -0.936256  -6.689504  -0.185997  -0.000119   0.147031  -0.000808
 628   8  -0.865230  -5.968118  -1.476581  -0.000002   0.147031  -0.000013
 629   8  -0.362560  -5.135160  -2.181884   0.000118   0.081712   0.001444
 630  15   6.413452   2.214936   2.457796  -0.000104   0.223119  -0.000468
 631  15   7.094252   2.472484   1.656669  -0.001097   0.446250  -0.002458
 632  15   7.343624   2.631012   0.366079  -0.001001   0.446250  -0.002243
 633  15   7.016914   2.598560  -0.665344   0.000012   0.223119   0.000056
 634   9   7.100393   0.968172   2.083517  -0.000702   0.446250  -0.001572
 635   9   7.727325   1.230989   0.947373  -0.000933   0.446250  -0.002090
 636   9   7.573917   1.269194  -0.367140  -0.000460   0.446250  -0.001031
 637  24   2.228659  -5.934938  -0.716793  -0.000699   0.218281  -0.003204
 638  24   2.182920  -6.184798   0.403608  -0.001921   0.436855  -0.004396
 639  24   2.002263  -5.979394   1.519401  -0.000285   0.218281  -0.001306
 640  10   3.444191  -5.693937  -0.163617  -0.001238   0.436855  -0.002834
 641  10   3.303008  -5.721660   1.230893  -0.001804   0.436855  -0.004130
 642  11   3.321891   0.550859  -3.832375   0.000772   0.297066   0.002598
 643  13   2.996694   1.684489  -3.809219  -0.001454   0.297066  -0.004894
 644  21   2.356329   1.177078  -4.134956  -0.001756   0.297066  -0.005912
 645  13   4.054758   2.109255  -3.644560  -0.000031   0.458076  -0.000068
 646  11   4.334029   0.452291  -3.863945   0.000210   0.458076   0.000458
 647  21   2.158751   0.891531  -4.622109  -0.000022   0.097090  -0.000228
 648  11   3.548033  -0.021250  -4.294677   0.000149   0.097090   0.001531
 649  12   0.227055  -0.440988   4.724269  -0.000648   0.314593  -0.002060
 650  16  -0.884484  -0.219521   4.753813  -0.000860   0.314593  -0.002733
 651  22  -0.549756  -1.209140   4.737329  -0.000969   0.314593  -0.003079
 652  16  -0.948490   0.512713   5.140898  -0.000274   0.269362  -0.001017
 653  16  -0.728032   1.633327   4.914809  -0.000390   0.538510  -0.000724
 654  12   0.712306   0.631916   5.058163  -0.000654   0.538510  -0.001215
 655  12   0.926252   1.728794   4.731696   0.000114   0.269362   0.000422
 656  22   1.074787  -3.101831   4.530345   0.000066   0.297346   0.000220
 657  22   0.211407  -2.235327   4.997910  -0.001331   0.594899  -0.002238
 658  12   1.849141  -1.690443   4.756720  -0.000788   0.594899  -0.001325
 659  12   0.957473  -0.794462   5.098797  -0.000333   0.297346  -0.001121
 660  21  -0.241949   3.719463  -3.501597  -0.004062   0.236686  -0.017162
 661  21   0.571157   3.256123  -4.370014  -0.008194   0.474160  -0.017281
 662  21   1.609170   2.150873  -4.683332  -0.007222   0.474160  -0.015230
 663  13   0.959571   4.282193  -3.397105  -0.003759   0.474160  -0.007929
 664  13   2.010803   3.474727  -4.197184  -0.004378   0.474160  -0.009233
 665  13   2.799930   2.471213  -4.182626  -0.001593   0.236686  -0.006729
 666  17  -1.366970   5.256323   2.301493  -0.000306   0.208727  -0.001466
 667  17  -1.337966   5.706383   1.263891  -0.001864   0.417759  -0.004462
 668  17  -1.168283   5.728914   0.145538  -0.000703   0.208727  -0.003369
 669  14  -0.185340   5.806009   2.102247  -0.002018   0.417759  -0.004831
 670  14  -0.061428   6.100741   0.757683  -0.001495   0.417759  -0.003580
 671  22  -1.150247  -1.624626   5.125122  -0.000481   0.235722  -0.002042
 672  22  -2.188891  -1.971682   5.019803  -0.001051   0.471390  -0.002229
 673  22  -3.104731  -2.266425   4.486242   0.000049   0.235722   0.000207
 674  16  -2.019064  -0.361350   5.148392  -0.001168   0.471390  -0.002478
 675  16  -3.238562  -0.761800   4.749763  -0.000777   0.471390  -0.001648
 676  19  -5.429792   4.682620   0.755157   0.000170   0.055094   0.003083
 677  17  -4.011140   5.030819   0.809248   0.000139   0.055094   0.002516
 678  21  -1.292106   3.571196  -3.063562  -0.003011   0.253616  -0.011871
 679  17  -1.724568   4.313255  -1.791091  -0.000451   0.253616  -0.001779
 680  23  -5.163677  -4.142201   1.470165  -0.000559   0.241432  -0.002314
 681  23  -5.352240  -4.304517   0.167446  -0.002906   0.483961  -0.006005
 682  23  -5.110162  -4.003484  -1.101317  -0.000981   0.241432  -0.004062
 683  18  -6.147955  -3.412420   1.002515  -0.002760   0.483961  -0.005702
 684  18  -6.114623  -3.326020  -0.599141  -0.002074   0.483961  -0.004285
 685  21  -2.236261   1.833439  -4.774649  -0.001318   0.331502  -0.003975
 686  21  -2.133247   2.730109  -4.092585  -0.002067   0.331502  -0.006236
 687  20  -3.659471   2.177003  -4.073149  -0.001230   0.663990  -0.001853
 =====================================================


   1 warning(s) detected.
     A line exceeding 80 characters begins with "http://cactus.nci.ni".
 There may be a problem in your input file.

              5552099  WORDS OF DYNAMIC MEMORY USED
 EXECUTION OF GAMESS TERMINATED NORMALLY Wed Nov 23 04:29:58 2016
 DDI: 263640 bytes (0.3 MB / 0 MWords) used by master data server.

 ----------------------------------------
 CPU timing information for all processes
 ========================================
 0: 3361.984 + 0.872 = 3362.856
 ----------------------------------------
 ddikick.x: exited gracefully.
