----- GAMESS execution script -----

          ******************************************************
          *         GAMESS VERSION =  5 DEC 2014 (R1)          *
          *             FROM IOWA STATE UNIVERSITY             *
          * M.W.SCHMIDT, K.K.BALDRIDGE, J.A.BOATZ, S.T.ELBERT, *
          *   M.S.GORDON, J.H.JENSEN, S.KOSEKI, N.MATSUNAGA,   *
          *          K.A.NGUYEN, S.J.SU, T.L.WINDUS,           *
          *       TOGETHER WITH M.DUPUIS, J.A.MONTGOMERY       *
          *         J.COMPUT.CHEM.  14, 1347-1363(1993)        *
          **************** 64 BIT LINUX VERSION ****************

 EXECUTION OF GAMESS BEGUN Wed Nov 23 03:56:31 2016

            ECHO OF THE FIRST FEW INPUT CARDS -
 INPUT CARD>! SELECT RESTRICTED HARTREE-FOCK AS DEFAULT                                     
 INPUT CARD>$contrl scftyp=rhf $end                                                         
 INPUT CARD>                                                                                
 INPUT CARD>! THEORY: HF OR DFT                                                             
 INPUT CARD> $contrl mplevl=0 $end                                                          
 INPUT CARD>                                                                                
 INPUT CARD> $system timlim=10000 mwords=20 $end                                            
 INPUT CARD> $SCF DIRSCF=.TRUE. $end                                                        
 INPUT CARD>                                                                                
 INPUT CARD>                                                                                
 INPUT CARD>! BASIS SETS                                                                    
 INPUT CARD>! 6-311G(d,p)                                                                   
 INPUT CARD> $BASIS GBASIS=N311 NGAUSS=6 NDFUNC=1 NPFUNC=1 $END                             
 INPUT CARD>                                                                                
 INPUT CARD>! One of the following                                                          
 INPUT CARD> $guess guess=HUCKEL $end                                                       
 INPUT CARD>                                                                                
 INPUT CARD> $statpt projct=.FALSE. $end                                                    
 INPUT CARD> $STATPT IFREEZ(1)=1,2,3 $END                                                   
 INPUT CARD>                                                                                
 INPUT CARD>! Optimize the geometry with COSMO effects                                      
 INPUT CARD> $statpt opttol=0.0005 nstep=50 $end                                            
 INPUT CARD> $contrl nzvar=1 $end                                                           
 INPUT CARD> $zmat dlc=.t. auto=.t. $end                                                    
 INPUT CARD> $contrl runtyp=OPTIMIZE maxit=200 $end                                         
 INPUT CARD>                                                                                
 INPUT CARD>! Run COSMO on perfect conductor                                                
 INPUT CARD> $COSGMS PRFCND=.TRUE. $end                                                     
 INPUT CARD>                                                                                
 INPUT CARD>! Specifying RSOLV                                                              
 INPUT CARD> $COSGMS COSRAD = 1.4 $end                                                      
 INPUT CARD>                                                                                
 INPUT CARD>! available memory                                                              
 INPUT CARD> $SYSTEM MWORDS=40 $END                                                         
 INPUT CARD>                                                                                
 INPUT CARD> $DATA                                                                          
 INPUT CARD>http://cactus.nci.nih.gov/chemical/structure/2,3-DIMETHYLHEPTANE/file?format=sdf
 INPUT CARD>C1                                                                              
 INPUT CARD>C      6.0      2.1435000000    1.7507000000    0.1325000000                    
 INPUT CARD>C      6.0      2.1052000000    0.2844000000   -0.3027000000                    
 INPUT CARD>C      6.0      3.3180000000   -0.4501000000    0.2723000000                    
 INPUT CARD>C      6.0      0.8215000000   -0.3678000000    0.2147000000                    
 INPUT CARD>C      6.0     -0.3912000000    0.3667000000   -0.3602000000                    
 INPUT CARD>C      6.0     -1.6713000000   -0.2042000000    0.2533000000                    
 INPUT CARD>C      6.0     -2.8841000000    0.5303000000   -0.3217000000                    
 INPUT CARD>C      6.0     -4.1641000000   -0.0407000000    0.2918000000                    
 INPUT CARD>C      6.0      0.7832000000   -1.8341000000   -0.2204000000                    
 INPUT CARD>H      1.0      3.0581000000    2.2153000000   -0.2361000000                    
 INPUT CARD>H      1.0      1.2795000000    2.2740000000   -0.2771000000                    
 INPUT CARD>H      1.0      2.1203000000    1.8075000000    1.2208000000                    
   40000000 WORDS OF MEMORY AVAILABLE

     BASIS OPTIONS
     -------------
     GBASIS=N311         IGAUSS=       6      POLAR=POPN311 
     NDFUNC=       1     NFFUNC=       0     DIFFSP=       F
     NPFUNC=       1      DIFFS=       F     BASNAM=        


     RUN TITLE
     ---------
 http://cactus.nci.nih.gov/chemical/structure/2,3-DIMETHYLHEPTANE/file?format=sdf

 THE POINT GROUP OF THE MOLECULE IS C1      
 THE ORDER OF THE PRINCIPAL AXIS IS     0

 ATOM      ATOMIC                      COORDINATES (BOHR)
           CHARGE         X                   Y                   Z
 C           6.0     4.0506276547        3.3083432867        0.2503886934
 C           6.0     3.9782511494        0.5374380709       -0.5720200565
 C           6.0     6.2701108273       -0.8505656671        0.5145723865
 C           6.0     1.5524098989       -0.6950412183        0.4057241696
 C           6.0    -0.7392608064        0.6929625197       -0.6806793008
 C           6.0    -3.1582990433       -0.3858820467        0.4786675927
 C           6.0    -5.4501587212        1.0021216913       -0.6079248503
 C           6.0    -7.8690079855       -0.0769118477        0.5514220432
 C           6.0     1.4800333936       -3.4659464341       -0.4164956077
 H           1.0     5.7789710431        4.1863099806       -0.4461643057
 H           1.0     2.4179044013        4.2972368961       -0.5236430712
 H           1.0     4.0067860118        3.4156797228        2.3069774858
 H           1.0     4.0220927923        0.4302906074       -2.6286088489
 H           1.0     6.2262691843       -0.7432292310        2.5711611789
 H           1.0     6.2185213078       -2.8245734338       -0.0714316423
 H           1.0     7.9982652430        0.0274010268       -0.1819806126
 H           1.0     1.5085682560       -0.5877047822        2.4623129620
 H           1.0    -0.6009328641        2.6996625461       -0.2365936937
 H           1.0    -0.7872598465        0.4438966345       -2.7247959017
 H           1.0    -3.2968159582       -2.3925820731        0.0343930130
 H           1.0    -3.1103000032       -0.1368161615        2.5227841936
 H           1.0    -5.3116418063        3.0086327451       -0.1638392431
 H           1.0    -5.4979687887        0.7530558061       -2.6520414512
 H           1.0    -8.0075249004       -2.0836118741        0.1073364361
 H           1.0    -7.8211979180        0.1721540375        2.5955386441
 H           1.0    -9.5017312389        0.9117927891       -0.2226097214
 H           1.0     3.1127566470       -4.4546510709        0.3575361569
 H           1.0    -0.2481210222       -4.3439131280        0.2800573914
 H           1.0     1.5238750365       -3.5730938976       -2.4730844001

          INTERNUCLEAR DISTANCES (ANGS.)




     $CONTRL OPTIONS
     ---------------
 SCFTYP=RHF          RUNTYP=OPTIMIZE     EXETYP=RUN     
 MPLEVL=       0     CITYP =NONE         CCTYP =NONE         VBTYP =NONE    
 DFTTYP=NONE         TDDFT =NONE    
 MULT  =       1     ICHARG=       0     NZVAR =       1     COORD =UNIQUE  
 PP    =NONE         RELWFN=NONE         LOCAL =NONE         NUMGRD=       F
 ISPHER=      -1     NOSYM =       0     MAXIT =     200     UNITS =ANGS    
 PLTORB=       F     MOLPLT=       F     AIMPAC=       F     FRIEND=        
 NPRINT=       7     IREST =       0     GEOM  =INPUT   
 NORMF =       0     NORMP =       0     ITOL  =      20     ICUT  =       9
 INTTYP=BEST         GRDTYP=BEST         QMTTOL= 1.0E-06

     $SYSTEM OPTIONS
     ---------------
  REPLICATED MEMORY=    40000000 WORDS (ON EVERY NODE).
 DISTRIBUTED MEMDDI=           0 MILLION WORDS IN AGGREGATE,
 MEMDDI DISTRIBUTED OVER   1 PROCESSORS IS           0 WORDS/PROCESSOR.
 TOTAL MEMORY REQUESTED ON EACH PROCESSOR=    40000000 WORDS.
 TIMLIM=       10000.00 MINUTES, OR       6.9 DAYS.
 PARALL= F  BALTYP=  DLB     KDIAG=    0  COREFL= F
 MXSEQ2=     300 MXSEQ3=     150  mem10=         0

     $COSGMS OPTIONS
     ---------------
     EPSI  =   INFTY     NSPA  =      92     COSRAD=    1.40
     DISEX =   10.00     OUTCHG=DBLCAV       COSBUG=       F
     COSWRT=       F     DCOSMO=       F

     SYMMETRY COORDINATES WILL NOT BE USED FOR 
     THE COSMO CALCULATION, EVEN IF SPECIFIED:
         -- SWITCHING TO C1 POINT GROUP --


     DEFINITION OF CAVITY
     ---------------------------
     ATOM         COORDINATES           RADIUS 
     1    4.0506    3.3083    0.2504    2.0000
     2    3.9783    0.5374   -0.5720    2.0000
     3    6.2701   -0.8506    0.5146    2.0000
     4    1.5524   -0.6950    0.4057    2.0000
     5   -0.7393    0.6930   -0.6807    2.0000
     6   -3.1583   -0.3859    0.4787    2.0000
     7   -5.4502    1.0021   -0.6079    2.0000
     8   -7.8690   -0.0769    0.5514    2.0000
     9    1.4800   -3.4659   -0.4165    2.0000
    10    5.7790    4.1863   -0.4462    1.3000
    11    2.4179    4.2972   -0.5236    1.3000
    12    4.0068    3.4157    2.3070    1.3000
    13    4.0221    0.4303   -2.6286    1.3000
    14    6.2263   -0.7432    2.5712    1.3000
    15    6.2185   -2.8246   -0.0714    1.3000
    16    7.9983    0.0274   -0.1820    1.3000
    17    1.5086   -0.5877    2.4623    1.3000
    18   -0.6009    2.6997   -0.2366    1.3000
    19   -0.7873    0.4439   -2.7248    1.3000
    20   -3.2968   -2.3926    0.0344    1.3000
    21   -3.1103   -0.1368    2.5228    1.3000
    22   -5.3116    3.0086   -0.1638    1.3000
    23   -5.4980    0.7531   -2.6520    1.3000
    24   -8.0075   -2.0836    0.1073    1.3000
    25   -7.8212    0.1722    2.5955    1.3000
    26   -9.5017    0.9118   -0.2226    1.3000
    27    3.1128   -4.4547    0.3575    1.3000
    28   -0.2481   -4.3439    0.2801    1.3000
    29    1.5239   -3.5731   -2.4731    1.3000

          ----------------
          PROPERTIES INPUT
          ----------------

     MOMENTS            FIELD           POTENTIAL          DENSITY
 IEMOM =       1   IEFLD =       0   IEPOT =       0   IEDEN =       0
 WHERE =COMASS     WHERE =NUCLEI     WHERE =NUCLEI     WHERE =NUCLEI  
 OUTPUT=BOTH       OUTPUT=BOTH       OUTPUT=BOTH       OUTPUT=BOTH    
 IEMINT=       0   IEFINT=       0                     IEDINT=       0
                                                       MORB  =       0
          EXTRAPOLATION IN EFFECT
          SOSCF IN EFFECT
 ORBITAL PRINTING OPTION: NPREO=     1   291     2     1

     -------------------------------
     INTEGRAL TRANSFORMATION OPTIONS
     -------------------------------
     NWORD  =            0
     CUTOFF = 1.0E-09     MPTRAN =       0
     DIRTRF =       T     AOINTS =DUP     

          ----------------------
          INTEGRAL INPUT OPTIONS
          ----------------------
 NOPK  =       1 NORDER=       0 SCHWRZ=       T


 -----------------------------------------------
  STATISTICS ON AUTOMATIC COORDINATE GENERATION 
 -----------------------------------------------
  NUMBER OF USER SPECIFIED BONDS                             0
  NUMBER OF BONDS                                           28
  NUMBER OF ANGLES                                          54
  NUMBER OF TORSIONS                                        72
  NUMBER OF EXTRA COORD.                                     0
  NUMBER OF EXTRA COORD. FOR CONSTRAINTS                     0
  NUMBER OF CONSTRAINED COORD.                               0

  TOTAL NUMBER OF PRIMITIVES                               154
 -----------------------------------------------

   --- ENCODED Z MATRIX ---
 COORD  TYPE   I   J   K   L   M   N
    1      1    1  11
    2      1    1   2
    3      1    1  12
    4      1    1  10
    5      1    2   4
    6      1    2   3
    7      1    2  13
    8      1    3  16
    9      1    3  15
   10      1    3  14
   11      1    4   5
   12      1    4  17
   13      1    4   9
   14      1    5   6
   15      1    5  19
   16      1    5  18
   17      1    6   7
   18      1    6  21
   19      1    6  20
   20      1    7   8
   21      1    7  23
   22      1    7  22
   23      1    8  26
   24      1    8  25
   25      1    8  24
   26      1    9  29
   27      1    9  28
   28      1    9  27
   29      2    1   2  13
   30      2    1   2   3
   31      2    1   2   4
   32      2    2   3  14
   33      2    2   4   9
   34      2    2   1  12
   35      2    2   4   5
   36      2    2   4  17
   37      2    2   3  15
   38      2    2   1  10
   39      2    2   1  11
   40      2    2   3  16
   41      2    3   2  13
   42      2    3   2   4
   43      2    4   9  27
   44      2    4   9  28
   45      2    4   9  29
   46      2    4   5  18
   47      2    4   5  19
   48      2    4   5   6
   49      2    4   2  13
   50      2    5   4  17
   51      2    5   6  20
   52      2    5   4   9
   53      2    5   6  21
   54      2    5   6   7
   55      2    6   5  19
   56      2    6   7   8
   57      2    6   7  22
   58      2    6   7  23
   59      2    6   5  18
   60      2    7   8  25
   61      2    7   8  26
   62      2    7   6  20
   63      2    7   6  21
   64      2    7   8  24
   65      2    8   7  22
   66      2    8   7  23
   67      2    9   4  17
   68      2   10   1  11
   69      2   10   1  12
   70      2   11   1  12
   71      2   14   3  15
   72      2   14   3  16
   73      2   15   3  16
   74      2   18   5  19
   75      2   20   6  21
   76      2   22   7  23
   77      2   24   8  25
   78      2   24   8  26
   79      2   25   8  26
   80      2   27   9  28
   81      2   27   9  29
   82      2   28   9  29
   83      3    1   2   3  16
   84      3    1   2   4   9
   85      3    1   2   4  17
   86      3    1   2   4   5
   87      3    1   2   3  14
   88      3    1   2   3  15
   89      3    2   4   5   6
   90      3    2   4   9  27
   91      3    2   4   9  28
   92      3    2   4   9  29
   93      3    2   4   5  18
   94      3    2   4   5  19
   95      3    3   2   4   5
   96      3    3   2   1  10
   97      3    3   2   1  12
   98      3    3   2   4   9
   99      3    3   2   4  17
  100      3    3   2   1  11
  101      3    4   2   1  10
  102      3    4   2   3  16
  103      3    4   2   1  12
  104      3    4   2   1  11
  105      3    4   5   6  20
  106      3    4   5   6  21
  107      3    4   5   6   7
  108      3    4   2   3  15
  109      3    4   2   3  14
  110      3    5   4   9  28
  111      3    5   4   2  13
  112      3    5   4   9  27
  113      3    5   6   7  22
  114      3    5   6   7  23
  115      3    5   6   7   8
  116      3    5   4   9  29
  117      3    6   7   8  24
  118      3    6   7   8  25
  119      3    6   7   8  26
  120      3    6   5   4   9
  121      3    6   5   4  17
  122      3    7   6   5  18
  123      3    7   6   5  19
  124      3    8   7   6  20
  125      3    8   7   6  21
  126      3    9   4   2  13
  127      3    9   4   5  19
  128      3    9   4   5  18
  129      3   10   1   2  13
  130      3   11   1   2  13
  131      3   12   1   2  13
  132      3   13   2   3  16
  133      3   13   2   3  15
  134      3   13   2   4  17
  135      3   13   2   3  14
  136      3   17   4   9  28
  137      3   17   4   9  27
  138      3   17   4   5  19
  139      3   17   4   5  18
  140      3   17   4   9  29
  141      3   18   5   6  21
  142      3   18   5   6  20
  143      3   19   5   6  21
  144      3   19   5   6  20
  145      3   20   6   7  23
  146      3   20   6   7  22
  147      3   21   6   7  23
  148      3   21   6   7  22
  149      3   22   7   8  26
  150      3   22   7   8  25
  151      3   22   7   8  24
  152      3   23   7   8  26
  153      3   23   7   8  25
  154      3   23   7   8  24

          INDEP./SYM. INTERNAL COORDINATES
          --------------------------------
 CRD  1=   0.1343 ( 31)  0.2967 ( 35) -0.1499 ( 42)  0.1647 ( 46)  0.1344 ( 47)
          -0.5103 ( 48) -0.1250 ( 51) -0.1712 ( 52) -0.1140 ( 53)  0.3965 ( 54)
           0.1356 ( 55) -0.2389 ( 56)  0.1626 ( 59) -0.1248 ( 62)  0.1164 (110)
           0.1106 (112)  0.1040 (116)
 CRD  2=  -0.1891 (  5) -0.1361 ( 11) -0.1977 ( 14) -0.1257 ( 17)  0.1100 ( 30)
          -0.2976 ( 31)  0.2198 ( 33) -0.2385 ( 35)  0.1167 ( 42) -0.2178 ( 48)
           0.1568 ( 55) -0.2842 ( 56)  0.1318 ( 66) -0.1524 ( 86) -0.1048 ( 87)
          -0.1026 ( 88)  0.2708 ( 89)  0.1363 ( 93)  0.1552 ( 94) -0.1285 ( 95)
           0.1348 (102) -0.1500 (107)  0.1230 (108)  0.1209 (109)  0.1397 (115)
 CRD  3=  -0.1534 ( 11) -0.1476 ( 14) -0.1113 ( 17)  0.2925 ( 33) -0.1175 ( 35)
           0.1899 ( 42) -0.1146 ( 44)  0.1127 ( 46)  0.1914 ( 50) -0.2793 ( 52)
          -0.1084 ( 56)  0.1146 ( 59)  0.1089 ( 63)  0.1983 ( 86) -0.1401 ( 89)
           0.1077 ( 90)  0.2044 ( 95)  0.1309 (105)  0.1391 (106)  0.2591 (107)
           0.1899 (111) -0.1611 (115) -0.2553 (120) -0.1172 (121)  0.1094 (122)
          -0.1045 (128)
 CRD  4=  -0.2441 (  5) -0.1244 (  6) -0.3196 ( 11) -0.2497 ( 14) -0.2225 ( 17)
          -0.1405 ( 20) -0.1311 ( 29)  0.1935 ( 30)  0.1236 ( 31) -0.3128 ( 42)
          -0.1621 ( 48)  0.1560 ( 53) -0.3892 ( 54)  0.1540 ( 62)  0.1045 ( 63)
          -0.1138 ( 86) -0.1143 ( 89)  0.1227 ( 96)
 CRD  5=  -0.1212 ( 11)  0.1039 ( 33)  0.1966 ( 35) -0.1729 ( 36)  0.1392 ( 46)
          -0.1118 ( 48)  0.1974 ( 51) -0.2891 ( 52) -0.2555 ( 54)  0.1663 ( 55)
           0.2986 ( 56) -0.1631 ( 58) -0.1201 ( 59)  0.1578 ( 63)  0.1288 ( 64)
          -0.1563 ( 65)  0.1204 ( 67)  0.1241 ( 86)  0.2324 ( 89)  0.1020 ( 93)
           0.1317 ( 94)  0.1696 (113)  0.1149 (114)  0.2092 (115)  0.1617 (120)
           0.1662 (121)  0.1090 (124)
 CRD  6=   0.2454 (  5) -0.2636 ( 30)  0.1299 ( 31)  0.1939 ( 33)  0.1532 ( 37)
           0.1033 ( 41)  0.1363 ( 42)  0.1097 ( 43)  0.1844 ( 47) -0.1719 ( 48)
          -0.1090 ( 52)  0.1808 ( 56) -0.1403 ( 57)  0.1234 ( 59)  0.1422 ( 62)
           0.1062 ( 83) -0.1049 ( 84) -0.2463 ( 95) -0.2647 ( 98) -0.1651 ( 99)
          -0.1354 (105) -0.1425 (106) -0.2263 (107) -0.1407 (120) -0.1218 (123)
          -0.1096 (126) -0.1163 (127) -0.1439 (128)
 CRD  7=  -0.1652 (  6)  0.1289 ( 13) -0.1213 ( 14) -0.1381 ( 17) -0.1758 ( 20)
          -0.3092 ( 30)  0.3138 ( 31) -0.1196 ( 38)  0.1604 ( 39)  0.1254 ( 41)
           0.1778 ( 48) -0.1295 ( 49)  0.1356 ( 51) -0.1163 ( 54) -0.4058 ( 56)
           0.1358 ( 57) -0.1317 ( 59) -0.1565 ( 60)  0.1752 ( 66)  0.1104 ( 83)
           0.1147 ( 84)  0.1187 ( 85)  0.1399 ( 86) -0.1153 (109)  0.1236 (115)
 CRD  8=   0.3514 (  2)  0.1012 (  5) -0.1804 (  6)  0.2172 ( 13)  0.1460 ( 31)
           0.2494 ( 33) -0.1852 ( 35) -0.1831 ( 37)  0.1582 ( 39) -0.2318 ( 42)
           0.2244 ( 45)  0.1182 ( 50)  0.1470 ( 54)  0.1245 ( 56) -0.1790 ( 67)
          -0.1014 ( 68)  0.1575 ( 84)  0.1073 ( 93)  0.1234 ( 95)  0.1989 ( 98)
           0.1122 ( 99) -0.1057 (101) -0.1255 (120)  0.1003 (126) -0.1372 (127)
          -0.1029 (128)
 CRD  9=   0.2429 (  2)  0.2540 (  5)  0.2872 (  6) -0.1507 ( 29)  0.2494 ( 30)
           0.1087 ( 33)  0.1928 ( 34)  0.1175 ( 38) -0.1185 ( 39)  0.1683 ( 40)
          -0.1482 ( 42)  0.1669 ( 43)  0.2587 ( 48) -0.1909 ( 52) -0.2417 ( 56)
          -0.2700 ( 84) -0.1730 ( 85) -0.1585 ( 86) -0.1222 (126)
 CRD 10=  -0.1529 (  5) -0.1264 (  6) -0.1336 ( 11)  0.3159 ( 13)  0.1215 ( 17)
           0.1239 ( 20) -0.1227 ( 32)  0.1022 ( 34) -0.1786 ( 35)  0.1136 ( 41)
           0.2191 ( 43)  0.1250 ( 44) -0.1585 ( 47)  0.2069 ( 54)  0.1113 ( 55)
           0.1087 ( 56) -0.1135 ( 58)  0.1172 ( 60) -0.1358 ( 62) -0.1130 ( 80)
          -0.1783 ( 84) -0.1372 ( 86)  0.1269 ( 91) -0.1444 ( 95) -0.1854 ( 98)
           0.1234 (105)  0.2134 (107) -0.1188 (112)  0.1116 (118)  0.1318 (119)
           0.1638 (122) -0.1107 (126)  0.1004 (128)
 CRD 11=  -0.1971 (  2) -0.1653 (  6)  0.1236 ( 11)  0.1046 ( 13) -0.2801 ( 32)
          -0.2728 ( 34)  0.1108 ( 35) -0.1576 ( 36)  0.1100 ( 40) -0.1066 ( 42)
           0.1756 ( 45)  0.1207 ( 48)  0.1518 ( 49)  0.1155 ( 53)  0.1370 ( 60)
          -0.1978 ( 64)  0.1059 ( 65)  0.1206 ( 84) -0.1120 ( 90) -0.1560 ( 91)
          -0.1436 ( 92)  0.1108 ( 93)  0.1261 ( 94) -0.1287 ( 95)  0.1025 (100)
          -0.1750 (101)  0.1741 (102) -0.1436 (103) -0.1048 (104)  0.1400 (109)
          -0.1974 (115) -0.1231 (124) -0.1004 (125)
 CRD 12=   0.1762 (  2)  0.2094 (  5)  0.2343 (  6)  0.2126 ( 11)  0.4014 ( 13)
          -0.1331 ( 14) -0.1177 ( 17)  0.1445 ( 32) -0.1023 ( 33)  0.2267 ( 44)
           0.1879 ( 45)  0.1862 ( 46) -0.2244 ( 48) -0.1139 ( 50)  0.1651 ( 52)
          -0.1559 ( 54)  0.1018 ( 63) -0.1067 ( 64) -0.1605 ( 82)  0.1118 ( 98)
          -0.1015 (115)  0.1098 (123)
 CRD 13=   0.3499 (  2) -0.1861 (  5)  0.1821 (  6) -0.1204 ( 11) -0.1070 ( 13)
           0.2221 ( 37)  0.3154 ( 39)  0.1115 ( 44) -0.1923 ( 45) -0.1160 ( 57)
           0.1108 ( 58)  0.2478 ( 60) -0.2268 ( 64)  0.1401 ( 65) -0.1383 ( 66)
          -0.1576 ( 68) -0.1204 ( 70) -0.1205 (115)  0.1384 (120) -0.1037 (123)
          -0.1179 (124) -0.1266 (125)  0.1167 (128)
 CRD 14=   0.3227 (  6) -0.1088 ( 14) -0.2681 ( 32) -0.1837 ( 34)  0.3009 ( 37)
           0.2025 ( 39)  0.2565 ( 40)  0.1208 ( 41)  0.1049 ( 45) -0.2238 ( 60)
           0.2184 ( 64) -0.1350 ( 65) -0.2051 ( 73) -0.1025 ( 88) -0.1240 ( 89)
           0.1131 ( 97)  0.1323 (100) -0.1204 (120) -0.1006 (121)  0.1207 (124)
 CRD 15=  -0.2100 (  5)  0.3401 ( 11)  0.1354 ( 13) -0.2366 ( 14)  0.2121 ( 17)
          -0.3496 ( 20)  0.3286 ( 43) -0.1180 ( 45) -0.1096 ( 51)  0.1509 ( 58)
          -0.1214 ( 60) -0.1717 ( 61)  0.1197 ( 62) -0.1612 ( 66)  0.1308 ( 79)
          -0.1193 (122) -0.1055 (148)
 CRD 16=  -0.2618 (  5)  0.1726 (  6)  0.1689 ( 20)  0.1813 ( 32)  0.2709 ( 34)
           0.1059 ( 37) -0.4399 ( 38)  0.1279 ( 39) -0.1274 ( 40) -0.3074 ( 44)
           0.2972 ( 45)  0.2044 ( 61) -0.1226 ( 64)  0.1098 ( 68) -0.1407 ( 70)
          -0.1233 ( 71) -0.1139 ( 79)  0.1366 ( 80)
 CRD 17=   0.1420 ( 11)  0.1461 ( 13) -0.1917 ( 14)  0.1101 ( 17)  0.4546 ( 20)
          -0.1218 ( 34) -0.1178 ( 37)  0.1139 ( 38)  0.1701 ( 43) -0.1324 ( 45)
          -0.1585 ( 54) -0.1135 ( 57) -0.1200 ( 60)  0.4651 ( 61)  0.1451 ( 62)
           0.1286 ( 65)  0.1053 ( 66) -0.2341 ( 78) -0.1631 ( 79) -0.1100 ( 80)
           0.1021 (146) -0.1145 (147)
 CRD 18=   0.2740 (  2) -0.1188 (  5) -0.2247 (  6) -0.1154 (  8)  0.1108 (  9)
           0.1268 ( 34)  0.3344 ( 37)  0.3375 ( 38) -0.2050 ( 39) -0.4757 ( 40)
           0.1017 ( 43) -0.1920 ( 44) -0.2014 ( 69)  0.2321 ( 72)
 CRD 19=  -0.1831 (  5)  0.1525 ( 11)  0.1304 ( 13)  0.1646 ( 14) -0.4800 ( 17)
           0.1749 ( 20) -0.1057 ( 23)  0.1208 ( 32)  0.1053 ( 39)  0.2850 ( 43)
          -0.1966 ( 44)  0.1157 ( 53)  0.1318 ( 60) -0.2623 ( 61) -0.1473 ( 63)
           0.2975 ( 64) -0.1906 ( 77) -0.1409 ( 81)
 CRD 20=  -0.1005 (  1)  0.1277 (  3) -0.1079 ( 10)  0.2018 ( 11) -0.1423 ( 14)
          -0.1598 ( 17)  0.1214 ( 20) -0.4112 ( 32)  0.4304 ( 34)  0.1378 ( 37)
          -0.3071 ( 39)  0.2133 ( 40) -0.1024 ( 43)  0.1711 ( 60) -0.1187 ( 61)
           0.1570 ( 68) -0.1444 ( 69)  0.1089 ( 71) -0.1332 ( 73) -0.1057 ( 77)
 CRD 21=  -0.1136 ( 11)  0.1288 ( 13)  0.1079 ( 25) -0.1087 ( 36)  0.1760 ( 37)
          -0.1110 ( 38) -0.1981 ( 40) -0.2582 ( 43)  0.2954 ( 44) -0.1347 ( 47)
          -0.1327 ( 51)  0.1083 ( 53) -0.1241 ( 57)  0.1372 ( 58) -0.2994 ( 60)
          -0.1192 ( 63)  0.3501 ( 64) -0.1256 ( 78)  0.1423 ( 79) -0.1667 ( 82)
           0.1115 (105)  0.1126 (106) -0.1020 (113) -0.1201 (117) -0.1136 (118)
          -0.1517 (119)
 CRD 22=   0.1397 (  5)  0.1195 ( 11) -0.1007 ( 13) -0.1393 ( 14) -0.1561 ( 26)
           0.1553 ( 37) -0.2118 ( 38)  0.2398 ( 39) -0.1941 ( 40)  0.1558 ( 43)
           0.1782 ( 44) -0.4349 ( 45)  0.1303 ( 47)  0.1872 ( 49) -0.1210 ( 55)
           0.1018 ( 57) -0.1139 ( 58) -0.1443 ( 80)  0.1263 ( 81)  0.1188 ( 82)
          -0.1392 (101)  0.1246 (102) -0.1113 (103) -0.1509 (104)  0.1421 (108)
           0.1093 (109)
 CRD 23=   0.1170 ( 10) -0.3469 ( 14) -0.1228 ( 18)  0.1242 ( 20)  0.2725 ( 32)
          -0.1328 ( 34)  0.2488 ( 38) -0.1766 ( 39) -0.1285 ( 40)  0.1008 ( 41)
          -0.2382 ( 43)  0.1118 ( 44)  0.1149 ( 48) -0.1366 ( 53) -0.1295 ( 55)
           0.2855 ( 60) -0.2002 ( 61)  0.1333 ( 70) -0.1410 ( 77) -0.1010 ( 90)
          -0.1097 ( 91)
 CRD 24=   0.2158 (  5) -0.1696 ( 14) -0.1298 ( 15) -0.1215 ( 29) -0.1724 ( 34)
           0.1485 ( 36)  0.1725 ( 37) -0.2084 ( 44)  0.1375 ( 46) -0.1090 ( 47)
           0.1178 ( 51) -0.1999 ( 53)  0.1073 ( 55) -0.1915 ( 57)  0.2345 ( 58)
          -0.1663 ( 59)  0.1211 ( 63)  0.1952 ( 65) -0.1842 ( 66)  0.1019 ( 90)
          -0.1223 ( 93)  0.1386 (113)  0.1338 (114) -0.1562 (117) -0.1471 (118)
          -0.1343 (119)  0.1138 (121) -0.1255 (125)
 CRD 25=  -0.1575 ( 11) -0.2568 ( 14) -0.1578 ( 16)  0.2005 ( 17)  0.1014 ( 20)
           0.1612 ( 22)  0.1065 ( 39) -0.1798 ( 44) -0.1117 ( 50) -0.2458 ( 51)
           0.1218 ( 53) -0.1076 ( 56)  0.1953 ( 57) -0.1480 ( 59)  0.1079 ( 60)
          -0.2045 ( 61)  0.2172 ( 62) -0.1099 ( 63)  0.2080 ( 64) -0.1032 ( 65)
           0.1356 ( 66) -0.1398 ( 77)  0.1039 (110)  0.1013 (112) -0.1311 (113)
          -0.1321 (114)  0.1030 (124)
 CRD 26=  -0.1285 (  2)  0.1064 (  6) -0.1378 ( 17) -0.1372 ( 29) -0.1115 ( 34)
           0.1809 ( 37) -0.1215 ( 39) -0.1013 ( 42)  0.1964 ( 46) -0.1716 ( 47)
          -0.1893 ( 51)  0.1884 ( 53)  0.1657 ( 55) -0.1573 ( 58) -0.1372 ( 59)
           0.1092 ( 61)  0.1963 ( 62) -0.2601 ( 63) -0.1713 ( 64) -0.1595 ( 65)
           0.1345 ( 66)  0.1233 ( 70) -0.1080 ( 71)  0.1157 ( 83)  0.1058 ( 87)
           0.1041 ( 88)  0.1100 (105)  0.1415 (106)  0.1232 (111) -0.1765 (122)
          -0.1648 (123)  0.1182 (124)  0.1253 (125)  0.1070 (126)
 CRD 27=   0.3184 ( 14)  0.1338 ( 16)  0.3592 ( 17)  0.1582 ( 18)  0.2355 ( 19)
           0.1941 ( 21)  0.1243 ( 22)  0.1003 ( 44) -0.1509 ( 48)  0.1042 ( 53)
          -0.2472 ( 54) -0.2366 ( 56)  0.1443 ( 57)  0.1399 ( 58)  0.1052 ( 59)
           0.2146 ( 60) -0.2199 ( 61)  0.1243 ( 62) -0.1555 ( 75) -0.1341 ( 76)
          -0.1451 ( 77)
 CRD 28=   0.1655 ( 12)  0.2092 ( 13) -0.1786 ( 15)  0.1387 ( 16) -0.1644 ( 18)
           0.1229 ( 19)  0.1578 ( 21) -0.1902 ( 22)  0.1295 ( 24) -0.1362 ( 25)
          -0.1024 ( 31) -0.1384 ( 32) -0.1130 ( 38)  0.1053 ( 39) -0.1213 ( 41)
           0.1083 ( 44)  0.1636 ( 45)  0.2118 ( 60) -0.2394 ( 64)  0.1234 ( 78)
          -0.1273 ( 79) -0.1406 ( 82) -0.1611 ( 89)  0.2122 (115) -0.1485 (121)
           0.1429 (124)  0.1404 (125) -0.1023 (126)
 CRD 29=  -0.1372 (  2)  0.1035 (  6) -0.2361 ( 11)  0.1732 ( 13) -0.1494 ( 16)
           0.1874 ( 37) -0.1500 ( 39)  0.1708 ( 43) -0.2308 ( 46)  0.1251 ( 47)
          -0.1944 ( 55)  0.1471 ( 59)  0.1322 ( 67)  0.1040 ( 70) -0.1005 ( 80)
          -0.1289 ( 81)  0.1899 ( 85)  0.1025 ( 94)  0.1259 ( 95)  0.2170 ( 99)
           0.1190 (110)  0.1623 (111)  0.1117 (112)  0.1230 (116)  0.1296 (126)
           0.1332 (127)  0.1158 (128)  0.2534 (134)
 CRD 30=   0.1143 (  1) -0.1155 (  3) -0.1156 (  6) -0.4486 (  7)  0.1068 (  9)
           0.2226 ( 11)  0.3373 ( 12)  0.2159 ( 15) -0.1365 ( 21)  0.1366 ( 22)
           0.1051 ( 26)  0.1251 ( 30) -0.1659 ( 32) -0.1612 ( 34)  0.1388 ( 39)
          -0.1563 ( 43)  0.1115 ( 45)  0.1074 ( 47) -0.1133 ( 52)  0.1116 ( 69)
           0.1263 ( 72) -0.1832 ( 84) -0.1288 ( 85)  0.1048 ( 95)  0.1054 (101)
 CRD 31=   0.1647 (  3) -0.1728 ( 10) -0.1094 ( 11) -0.1894 ( 18)  0.2061 ( 19)
          -0.2864 ( 21)  0.2898 ( 22) -0.1391 ( 26)  0.1315 ( 37) -0.1304 ( 39)
           0.1154 ( 43) -0.1031 ( 47)  0.1442 ( 55)  0.1084 ( 68) -0.1134 ( 73)
          -0.1247 ( 94) -0.1039 ( 96) -0.1091 (101) -0.1117 (102) -0.1001 (103)
          -0.1019 (109)  0.1018 (117)  0.1017 (118)  0.1213 (119) -0.1180 (123)
          -0.1265 (124) -0.1277 (125) -0.1178 (127) -0.1070 (138)
 CRD 32=   0.1901 (  1)  0.1428 (  3)  0.2017 (  4) -0.4878 (  7) -0.1003 (  9)
          -0.2351 ( 10) -0.3487 ( 12)  0.1945 ( 18) -0.1945 ( 19)  0.1715 ( 21)
          -0.1714 ( 22)  0.1141 ( 27)  0.1306 ( 28) -0.1186 ( 34)  0.1121 ( 70)
          -0.1152 ( 73) -0.1102 ( 96) -0.1122 ( 97) -0.1197 (100) -0.1157 (102)
          -0.1069 (109)
 CRD 33=   0.1061 (  5)  0.2600 (  7) -0.2017 (  8) -0.2426 (  9) -0.2299 ( 10)
           0.5782 ( 12)  0.2089 ( 15)  0.1246 ( 18)  0.1959 ( 26)  0.1075 ( 32)
          -0.1182 ( 44) -0.1053 ( 72) -0.1154 (101) -0.1070 (103) -0.1057 (104)
          -0.1134 (112)  0.1273 (128)
 CRD 34=   0.3852 (  1)  0.1277 (  2)  0.4352 (  3)  0.3382 (  4)  0.2672 (  7)
           0.2055 (  8)  0.2475 (  9)  0.2876 ( 10)  0.1179 ( 26)  0.1106 ( 27)
          -0.1128 ( 34) -0.1782 ( 38) -0.1319 ( 39) -0.1276 ( 40)  0.1644 ( 68)
           0.1459 ( 69)  0.1126 ( 70)  0.1111 ( 73)
 CRD 35=  -0.1817 ( 20) -0.4902 ( 23) -0.5104 ( 24) -0.5103 ( 25)  0.1711 ( 60)
           0.1868 ( 61)  0.1711 ( 64) -0.1684 ( 77) -0.1803 ( 78) -0.1803 ( 79)
 CRD 36=  -0.1772 ( 13)  0.2053 ( 15) -0.1500 ( 16)  0.2164 ( 18) -0.2075 ( 19)
           0.1525 ( 21) -0.1510 ( 22) -0.4242 ( 26) -0.4240 ( 27) -0.4201 ( 28)
           0.1393 ( 43)  0.1213 ( 44)  0.1464 ( 45) -0.1297 ( 80) -0.1441 ( 81)
          -0.1332 ( 82)
 CRD 37=  -0.2177 (  1) -0.1231 (  2) -0.1672 (  3) -0.1570 (  4)  0.2188 (  6)
          -0.1330 (  7)  0.3907 (  8)  0.3392 (  9)  0.2340 ( 10) -0.1435 ( 11)
           0.1016 ( 12)  0.1516 ( 15) -0.1038 ( 16)  0.1220 ( 26)  0.1843 ( 28)
          -0.1005 ( 44) -0.1180 ( 90) -0.1209 ( 91) -0.1022 ( 92) -0.1139 ( 96)
          -0.1105 (100) -0.1366 (110) -0.1336 (112) -0.1179 (116) -0.1080 (136)
          -0.1050 (137)
 CRD 38=  -0.1251 (  1) -0.1257 (  2) -0.2310 (  4)  0.1633 (  7)  0.1166 ( 13)
           0.1399 ( 15) -0.2946 ( 16)  0.1535 ( 18) -0.1831 ( 19) -0.1087 ( 22)
           0.2114 ( 27)  0.1096 ( 28) -0.1717 ( 59) -0.1230 ( 62) -0.1371 ( 83)
          -0.1191 ( 87) -0.1399 ( 88) -0.1377 ( 93) -0.1036 ( 94)  0.1002 (100)
          -0.1023 (102) -0.1287 (105) -0.1154 (106) -0.1052 (108)  0.1094 (110)
           0.1169 (112) -0.1417 (127) -0.1758 (128) -0.1018 (133) -0.1091 (138)
          -0.1432 (139) -0.1141 (141) -0.1274 (142)
 CRD 39=  -0.1216 (  2) -0.2207 (  4)  0.1029 ( 47) -0.1210 ( 55) -0.1036 ( 67)
          -0.1612 ( 83) -0.1353 ( 87) -0.1571 ( 88)  0.1451 ( 90)  0.1520 ( 91)
           0.1320 ( 92)  0.1270 ( 94) -0.1183 (101) -0.1957 (102) -0.1090 (103)
          -0.1173 (104) -0.1916 (108) -0.1698 (109)  0.1151 (110)  0.1081 (112)
          -0.1209 (129) -0.1199 (130) -0.1116 (131) -0.1972 (132) -0.1931 (133)
          -0.1713 (135)  0.1455 (136)  0.1386 (137)  0.1580 (138)  0.1224 (139)
           0.1255 (140)  0.1295 (143)  0.1227 (144)
 CRD 40=  -0.2580 ( 21) -0.2584 ( 22)  0.6033 ( 23) -0.2699 ( 24) -0.2677 ( 25)
          -0.3182 ( 77)  0.1509 ( 78)  0.1497 ( 79)  0.1600 (117) -0.1600 (118)
          -0.1897 (150)  0.1303 (151) -0.1305 (153)  0.1895 (154)
 CRD 41=   0.3081 (  1) -0.1811 (  3)  0.1701 (  8) -0.1065 ( 15) -0.4843 ( 27)
           0.3857 ( 28) -0.1700 ( 69)  0.2550 ( 81) -0.2030 ( 82)  0.1227 ( 90)
          -0.1434 ( 92) -0.1112 ( 96) -0.1154 (101)  0.1202 (112) -0.1459 (116)
          -0.1166 (129)  0.1235 (137) -0.1427 (140)
 CRD 42=   0.4192 (  1) -0.1091 (  3) -0.2791 (  4)  0.2639 (  8) -0.3620 (  9)
           0.2822 ( 27) -0.2549 ( 28) -0.2169 ( 69)  0.1505 ( 70) -0.1394 ( 71)
           0.1843 ( 72) -0.1502 ( 81)  0.1373 ( 82)  0.1311 ( 87)  0.1424 ( 97)
           0.1395 (103)  0.1298 (109)  0.1489 (131)  0.1379 (135)  0.1023 (140)
 CRD 43=   0.3664 (  1) -0.1584 (  3) -0.2165 (  4) -0.3889 (  8)  0.4456 (  9)
          -0.1595 ( 26)  0.1469 ( 27) -0.1968 ( 69)  0.1142 ( 70)  0.2072 ( 71)
          -0.2377 ( 72) -0.1543 ( 87) -0.1132 ( 96) -0.1087 (101)  0.1000 (103)
          -0.1546 (109) -0.1002 (129)  0.1086 (131) -0.1656 (135)
 CRD 44=   0.2700 (  3) -0.2634 (  4)  0.1003 (  8)  0.2444 (  9) -0.3346 ( 10)
          -0.1362 ( 24)  0.1352 ( 25)  0.3755 ( 26) -0.3024 ( 28) -0.1460 ( 68)
           0.1429 ( 70) -0.1290 ( 72)  0.1809 ( 73) -0.2019 ( 80)  0.1532 ( 82)
           0.1242 ( 83) -0.1166 ( 91)  0.1142 (102) -0.1033 (104) -0.1137 (110)
           0.1028 (112) -0.1010 (130)  0.1092 (132) -0.1119 (136)  0.1046 (137)
 CRD 45=  -0.5266 ( 24)  0.5267 ( 25) -0.1188 ( 26)  0.2861 ( 78) -0.2862 ( 79)
          -0.2155 (119) -0.2075 (149) -0.2077 (152)
 CRD 46=  -0.1184 (  3) -0.3342 (  8)  0.4318 ( 10)  0.4174 ( 26) -0.1901 ( 27)
          -0.2264 ( 28)  0.1794 ( 71) -0.2404 ( 73) -0.2320 ( 80)  0.1009 ( 81)
           0.1308 ( 82) -0.1197 ( 83)  0.1324 ( 88)  0.1099 ( 90) -0.1352 ( 91)
          -0.1268 (102)  0.1253 (108) -0.1296 (110)  0.1155 (112) -0.1280 (132)
           0.1241 (133) -0.1307 (136)  0.1144 (137)
 CRD 47=  -0.4754 (  3)  0.4160 (  4)  0.1537 (  8)  0.1272 (  9) -0.2529 ( 10)
           0.1374 ( 26) -0.2215 ( 28)  0.2669 ( 68) -0.2297 ( 70)  0.1394 ( 73)
           0.1118 ( 82) -0.1213 ( 88) -0.1008 ( 96)  0.1789 (100) -0.1287 (101)
           0.1510 (104) -0.1339 (129)  0.1458 (130) -0.1018 (131)
 CRD 48=   0.2207 ( 15)  0.2497 ( 16) -0.4848 ( 18) -0.4763 ( 19)  0.2964 ( 21)
           0.2903 ( 22)  0.1717 ( 23) -0.1158 ( 24) -0.1257 ( 25) -0.1634 ( 75)
           0.1023 (142) -0.1194 (143) -0.1349 (146)  0.1060 (147) -0.1007 (153)
 CRD 49=  -0.3260 ( 15) -0.3866 ( 16)  0.1597 ( 18)  0.1405 ( 19)  0.4324 ( 21)
           0.4434 ( 22)  0.1615 ( 23) -0.1350 ( 24) -0.1240 ( 25) -0.1366 ( 74)
           0.1748 ( 76)  0.1093 (143)  0.1054 (145)  0.1499 (151) -0.1108 (153)
 CRD 50=   0.1112 ( 14) -0.3530 ( 15) -0.4594 ( 16) -0.3321 ( 18) -0.3695 ( 19)
          -0.2120 ( 21) -0.1944 ( 22) -0.1817 ( 74) -0.1673 ( 75) -0.1032 ( 94)
          -0.1031 (138)  0.1464 (144)  0.1443 (148)
 CRD 51=  -0.1008 (  5) -0.3277 ( 15)  0.1041 ( 16) -0.1202 ( 18) -0.1048 ( 26)
           0.1045 ( 27)  0.1156 ( 51)  0.1094 ( 57) -0.1040 ( 58) -0.1275 ( 65)
           0.1285 ( 66)  0.1168 ( 92)  0.1050 ( 93) -0.1124 ( 97) -0.1227 (100)
          -0.1104 (103) -0.1207 (104) -0.1149 (113) -0.1161 (114) -0.1036 (122)
          -0.1176 (124) -0.1004 (125)  0.1009 (128) -0.1396 (130) -0.1293 (131)
           0.1121 (136)  0.1420 (140) -0.1270 (141) -0.1222 (142) -0.2097 (145)
          -0.2084 (146) -0.1925 (147) -0.1912 (148) -0.1184 (149) -0.1435 (150)
          -0.1445 (151) -0.1144 (152) -0.1395 (153) -0.1406 (154)
 CRD 52=  -0.3049 (  5)  0.1148 ( 12)  0.1015 ( 15)  0.1023 ( 18) -0.1096 ( 59)
           0.1149 ( 83)  0.1166 ( 87)  0.1551 ( 88)  0.1222 ( 90)  0.1017 ( 92)
          -0.1202 ( 93) -0.1223 ( 96) -0.1270 ( 97) -0.1624 (100) -0.1046 (103)
          -0.1400 (104)  0.1277 (108)  0.1150 (110)  0.1416 (112)  0.1210 (116)
          -0.1466 (128) -0.1517 (129) -0.1919 (130) -0.1565 (131)  0.1345 (132)
           0.1747 (133)  0.1362 (135)  0.1433 (136)  0.1698 (137) -0.1119 (138)
          -0.1789 (139)  0.1493 (140)  0.1017 (145)  0.1096 (147)  0.1028 (148)
           0.1003 (150)  0.1030 (153)  0.1016 (154)
 CRD 53=   0.3231 ( 15) -0.3177 ( 16) -0.3065 ( 18)  0.3060 ( 19)  0.1494 (105)
           0.1553 (106)  0.1532 (122)  0.1577 (123)  0.2492 (141)  0.2432 (142)
           0.2537 (143)  0.2478 (144) -0.1075 (150) -0.1079 (151) -0.1059 (153)
          -0.1064 (154)
 CRD 54=   0.2104 ( 18) -0.2107 ( 19) -0.3663 ( 21)  0.3662 ( 22)  0.1162 (113)
           0.1171 (114) -0.1506 (117) -0.1505 (118) -0.1651 (119)  0.1073 (124)
           0.1091 (125)  0.1486 (145)  0.1477 (146)  0.1504 (147)  0.1495 (148)
          -0.2613 (149) -0.2466 (150) -0.2468 (151) -0.2607 (152) -0.2460 (153)
          -0.2462 (154)
 CRD 55=   0.1150 ( 11)  0.1148 ( 20) -0.2771 ( 23) -0.1601 ( 24) -0.1625 ( 25)
          -0.1008 ( 46) -0.1543 ( 51) -0.1574 ( 53) -0.1634 ( 57) -0.1609 ( 58)
          -0.1861 ( 60) -0.2305 ( 61)  0.1323 ( 62)  0.1383 ( 63) -0.1863 ( 64)
           0.2043 ( 65)  0.2035 ( 66)  0.1365 ( 77)  0.2343 ( 78)  0.2321 ( 79)
           0.1411 (113) -0.1359 (114)  0.1362 (142) -0.1471 (143)  0.2336 (146)
          -0.2286 (147)  0.1165 (151) -0.1159 (153)
 CRD 56=   0.1392 (  2) -0.2289 (  3)  0.1269 (  6)  0.3396 (  7) -0.2138 ( 10)
          -0.3058 ( 12) -0.1433 ( 13)  0.2162 ( 26) -0.1599 ( 32) -0.1690 ( 34)
          -0.1175 ( 38) -0.1053 ( 39) -0.1069 ( 40)  0.1139 ( 43)  0.1200 ( 44)
           0.1693 ( 45)  0.1863 ( 69)  0.1589 ( 70)  0.1471 ( 71)  0.1709 ( 72)
          -0.1702 ( 81) -0.1688 ( 82)  0.1137 (133)  0.1127 (139)
 CRD 57=   0.2110 (  1) -0.2262 (  2)  0.1266 (  3)  0.1473 (  4)  0.2767 (  6)
          -0.1763 (  8) -0.2327 (  9) -0.1841 ( 10) -0.1362 ( 29) -0.2085 ( 32)
           0.1629 ( 34) -0.2170 ( 37)  0.1656 ( 38)  0.1840 ( 39) -0.2015 ( 40)
           0.1337 ( 41) -0.2000 ( 68) -0.1302 ( 69) -0.1823 ( 70)  0.2263 ( 71)
           0.1799 ( 72)  0.2209 ( 73)  0.1688 (111)  0.1662 (126) -0.1052 (130)
          -0.1160 (131)  0.2114 (134) -0.1008 (135)
 CRD 58=   0.1239 (  1) -0.2236 (  2)  0.1510 (  3)  0.1326 (  4) -0.1115 (  6)
           0.1053 ( 10) -0.3566 ( 13)  0.1977 ( 26)  0.2180 ( 27)  0.2342 ( 28)
           0.1549 ( 34)  0.1452 ( 38)  0.1356 ( 39)  0.2348 ( 43)  0.2322 ( 44)
           0.2279 ( 45) -0.1340 ( 68) -0.1538 ( 69) -0.1480 ( 70) -0.1080 ( 72)
          -0.2473 ( 80) -0.2306 ( 81) -0.2170 ( 82) -0.1174 ( 99)  0.1008 (138)
 CRD 59=  -0.1765 ( 11)  0.1508 ( 12)  0.1567 ( 17)  0.3134 ( 20) -0.1364 ( 23)
          -0.1706 ( 24) -0.1620 ( 25)  0.1074 ( 27)  0.1386 ( 46)  0.1453 ( 47)
           0.1104 ( 51)  0.1171 ( 53) -0.1373 ( 55) -0.1544 ( 59) -0.1704 ( 60)
          -0.1672 ( 61) -0.1356 ( 62) -0.1577 ( 63) -0.1716 ( 64)  0.1862 ( 77)
           0.1577 ( 78)  0.1652 ( 79) -0.1306 (128) -0.1399 (136)  0.1707 (138)
          -0.1522 (140) -0.1439 (142)  0.1876 (143) -0.1160 (145)
 CRD 60=   0.1033 (  1) -0.1948 (  2)  0.1685 (  4) -0.2464 (  6)  0.2911 (  7)
           0.1879 (  8)  0.1329 (  9) -0.2902 ( 12)  0.1402 ( 13)  0.1165 ( 15)
           0.1603 ( 20) -0.1195 ( 27) -0.1260 ( 28)  0.1156 ( 37)  0.1045 ( 38)
           0.1289 ( 40) -0.1780 ( 68) -0.2080 ( 73)  0.1693 ( 80)  0.1099 ( 88)
          -0.1091 (100) -0.1277 (112) -0.1152 (132) -0.1612 (142)
 CRD 61=   0.1057 (  2)  0.1424 (  6) -0.1112 (  9) -0.2284 ( 14) -0.1167 ( 17)
           0.2875 ( 20) -0.1603 ( 24) -0.1134 ( 25) -0.1246 ( 27)  0.1376 ( 28)
          -0.1328 ( 36) -0.1034 ( 47)  0.1118 ( 50)  0.1014 ( 53)  0.1207 ( 55)
           0.1372 ( 57)  0.1233 ( 58)  0.1033 ( 59) -0.1189 ( 66)  0.1889 ( 77)
          -0.1192 ( 81) -0.1007 (121)  0.1185 (131) -0.1071 (135)  0.1492 (136)
           0.1401 (137) -0.1555 (138)  0.2677 (140) -0.1361 (144)  0.1177 (147)
          -0.1175 (149) -0.2057 (151)  0.1423 (153)
 CRD 62=  -0.1371 (  4)  0.1655 (  5) -0.1250 (  7)  0.1424 ( 10) -0.1297 ( 12)
           0.1773 ( 15) -0.1385 ( 16) -0.2081 ( 18)  0.1922 ( 19)  0.1750 ( 21)
          -0.1818 ( 22)  0.1203 ( 25)  0.1045 ( 26) -0.1022 ( 70) -0.1124 ( 71)
           0.1007 ( 91)  0.1034 (102) -0.1098 (103) -0.1289 (129) -0.1658 (131)
           0.1259 (132)  0.1134 (135) -0.1837 (141) -0.1879 (142) -0.1306 (143)
          -0.1348 (144)  0.1737 (145)  0.1837 (146)  0.1591 (147)  0.1692 (148)
          -0.1215 (150) -0.1025 (151) -0.1438 (153) -0.1248 (154)
 CRD 63=  -0.1223 (  2)  0.1201 (  3) -0.1359 (  4)  0.1891 (  5) -0.1509 (  8)
           0.1019 ( 10)  0.1030 ( 11) -0.1181 ( 12) -0.1183 ( 17)  0.1055 ( 20)
          -0.1554 ( 21)  0.2174 ( 22) -0.2192 ( 25) -0.1006 ( 49)  0.1399 ( 58)
           0.1102 ( 59) -0.1515 ( 70) -0.1478 ( 71)  0.1007 ( 77)  0.1024 ( 78)
          -0.1334 ( 79) -0.1106 (103)  0.1189 (109) -0.1265 (119) -0.1441 (129)
          -0.2018 (131)  0.1483 (132)  0.2234 (135) -0.1171 (146) -0.1181 (147)
          -0.1407 (148)  0.1230 (150)  0.2425 (153)  0.1436 (154)
 CRD 64=  -0.1116 (  1)  0.1409 (  2) -0.1245 (  7) -0.1608 (  9) -0.1480 ( 11)
           0.1385 ( 15)  0.2162 ( 17) -0.1899 ( 21) -0.1464 ( 23)  0.2512 ( 24)
          -0.1499 ( 27)  0.1296 ( 46)  0.1123 ( 49) -0.1673 ( 57) -0.1037 ( 62)
           0.1022 ( 73) -0.1468 ( 77)  0.1655 ( 78) -0.1196 ( 81)  0.1164 ( 92)
           0.1417 (102) -0.1077 (112) -0.1541 (119) -0.1097 (121) -0.1293 (135)
           0.1448 (140) -0.1251 (142)  0.1035 (150)  0.2725 (151) -0.1349 (152)
           0.1120 (154)
 CRD 65=  -0.1031 (  1)  0.1733 (  2) -0.2706 ( 13)  0.2076 ( 16) -0.1282 ( 19)
           0.1813 ( 26) -0.1234 ( 28) -0.1106 ( 50)  0.1496 ( 67) -0.1571 ( 74)
           0.1155 ( 75) -0.1794 ( 82)  0.1799 ( 85)  0.1562 ( 91) -0.1359 ( 94)
           0.1650 ( 99) -0.1081 (101)  0.1017 (110)  0.1132 (123) -0.1022 (125)
          -0.1224 (127)  0.2490 (134) -0.1165 (135) -0.2411 (138) -0.1018 (139)
          -0.1168 (140)  0.1901 (143)  0.1284 (144) -0.1335 (147)
 CRD 66=  -0.1631 (  1) -0.2378 (  2)  0.1756 (  3)  0.2141 (  6) -0.1698 (  8)
           0.1950 (  9) -0.1184 ( 10)  0.1259 ( 16)  0.1172 ( 17) -0.1022 ( 23)
           0.1371 ( 25)  0.1147 ( 26)  0.1060 ( 29) -0.1969 ( 69)  0.2149 ( 72)
           0.1092 ( 79) -0.1082 ( 83)  0.1425 ( 87) -0.1253 ( 96) -0.1555 (101)
          -0.1302 (102)  0.1204 (109) -0.1299 (111) -0.1476 (126)  0.1399 (131)
          -0.1547 (134)  0.2175 (135)  0.1275 (136)  0.1048 (143) -0.1379 (153)
 CRD 67=   0.2218 (  1) -0.1525 (  4)  0.1514 (  5) -0.2026 (  6) -0.1241 ( 13)
          -0.1853 ( 14)  0.1329 ( 16)  0.1174 ( 17)  0.1160 ( 18) -0.1006 ( 22)
          -0.1659 ( 23)  0.1383 ( 25)  0.1361 ( 28) -0.1090 ( 36)  0.1896 ( 69)
          -0.1027 ( 70)  0.1286 ( 76) -0.1051 ( 77)  0.1332 ( 79) -0.1036 ( 81)
           0.1098 ( 96) -0.1418 ( 97)  0.1477 (101) -0.1038 (103)  0.1058 (111)
          -0.2290 (131)  0.1283 (134) -0.1711 (138) -0.1098 (139)  0.1255 (140)
          -0.1470 (146)  0.1090 (149)  0.1071 (151) -0.1700 (153)
 CRD 68=   0.1007 (  1) -0.2460 ( 11)  0.1639 ( 14) -0.1070 ( 18) -0.1392 ( 19)
          -0.2367 ( 20)  0.1030 ( 21)  0.1282 ( 23) -0.1514 ( 27)  0.2171 ( 28)
           0.1022 ( 66) -0.1065 ( 74)  0.2091 ( 75) -0.1688 ( 76) -0.1124 ( 81)
           0.1753 ( 82) -0.1333 ( 91)  0.1137 ( 92) -0.1147 (110)  0.1140 (113)
          -0.1082 (114)  0.1324 (116) -0.1051 (125)  0.2008 (140) -0.1620 (142)
           0.1903 (143)  0.2056 (146) -0.2163 (147) -0.1026 (151)
 CRD 69=   0.2078 ( 14) -0.1338 ( 15) -0.1805 ( 17)  0.1680 ( 18)  0.1414 ( 23)
          -0.1338 ( 24)  0.1625 ( 26) -0.2274 ( 27) -0.1412 ( 55) -0.1467 ( 59)
           0.1286 ( 62)  0.1616 ( 74) -0.1798 ( 75)  0.1139 ( 77) -0.1012 ( 78)
           0.1264 ( 80) -0.1771 ( 81) -0.1556 ( 90)  0.1202 ( 92) -0.1818 ( 93)
           0.1045 ( 94)  0.1454 (105) -0.1265 (106) -0.2179 (112) -0.2019 (128)
          -0.1760 (137) -0.1894 (139)  0.1877 (142) -0.1059 (143)  0.1660 (144)
          -0.1271 (154)
 CRD 70=  -0.2154 (  3)  0.2525 (  4) -0.2759 (  8)  0.1352 (  9)  0.1607 ( 10)
          -0.1161 ( 13) -0.1282 ( 38)  0.1403 ( 40) -0.1545 ( 68)  0.2095 ( 70)
          -0.2286 ( 71)  0.1114 ( 73)  0.1070 ( 87) -0.2438 ( 88) -0.2490 (100)
           0.1281 (103) -0.1928 (104) -0.2009 (108)  0.1499 (109) -0.2393 (130)
          -0.2347 (133)  0.1021 (134)  0.1160 (135)
 CRD 71=   0.1131 (  4) -0.1824 (  9)  0.2360 ( 10)  0.2067 ( 13)  0.1239 ( 18)
          -0.1687 ( 19) -0.1657 ( 24)  0.1836 ( 25) -0.1092 ( 32) -0.1005 ( 63)
          -0.1385 ( 72)  0.1864 ( 73) -0.1386 ( 78)  0.1331 ( 79)  0.1508 ( 83)
          -0.1406 ( 88) -0.1070 ( 89)  0.1294 ( 95) -0.1265 (100)  0.1952 (102)
          -0.1052 (104)  0.1317 (115)  0.1710 (119)  0.1971 (132) -0.1005 (134)
           0.1046 (139)  0.1053 (141)  0.1649 (149)  0.1758 (152)
 CRD 72=   0.1249 ( 11) -0.2338 ( 14)  0.2701 ( 17) -0.2706 ( 20)  0.1892 ( 23)
           0.1389 ( 51)  0.1686 ( 53) -0.1547 ( 57) -0.1490 ( 58) -0.1500 ( 62)
          -0.1346 ( 63)  0.1783 ( 65)  0.1516 ( 66) -0.1180 ( 79)  0.1206 (113)
          -0.1455 (114)  0.1211 (118)  0.1110 (122) -0.1369 (124)  0.1286 (125)
           0.1410 (141) -0.1452 (144) -0.2554 (145)  0.2763 (148)  0.1774 (150)
          -0.1639 (154)
 CRD 73=  -0.1228 ( 14)  0.1453 ( 15) -0.1117 ( 21)  0.1619 ( 23) -0.1248 ( 24)
          -0.1938 ( 26)  0.1004 ( 27)  0.1135 ( 45)  0.1022 ( 48) -0.1006 ( 56)
          -0.1312 ( 61)  0.1023 ( 67) -0.1801 ( 74) -0.1186 ( 75)  0.1536 ( 76)
           0.1332 ( 77) -0.1501 ( 80) -0.1099 ( 84)  0.1646 ( 90)  0.1046 (105)
          -0.1279 (110)  0.1244 (112) -0.1409 (117) -0.1416 (122)  0.1689 (128)
          -0.1120 (136)  0.1403 (137) -0.2081 (141)  0.1932 (144) -0.1163 (146)
           0.1647 (149)  0.2313 (150) -0.2429 (154)
 CRD 74=  -0.2131 (  1)  0.1357 (  3) -0.1746 (  6)  0.2291 ( 11)  0.1853 ( 28)
          -0.1104 ( 29)  0.1017 ( 30)  0.1352 ( 39)  0.1087 ( 41) -0.1290 ( 43)
          -0.1009 ( 52)  0.1150 ( 68) -0.1538 ( 69)  0.1416 ( 82) -0.1957 ( 84)
          -0.1097 ( 86) -0.1060 ( 91)  0.1484 ( 92) -0.1453 ( 96)  0.1381 ( 97)
          -0.1072 ( 98) -0.1194 (101)  0.1641 (103) -0.1190 (110)  0.1354 (116)
          -0.2731 (129)  0.1395 (134) -0.2502 (136) -0.1205 (137)  0.1168 (141)
          -0.1281 (144)
 CRD 75=  -0.1666 (  2) -0.1623 (  9) -0.1067 ( 15)  0.1604 ( 16) -0.1500 ( 22)
           0.1136 ( 24) -0.1538 ( 25)  0.1334 ( 30)  0.1283 ( 37) -0.1031 ( 46)
          -0.1050 ( 52)  0.1083 ( 55)  0.1146 ( 64)  0.1059 ( 65) -0.1256 ( 72)
          -0.1144 ( 79) -0.1479 ( 87)  0.1476 ( 95)  0.1033 ( 99) -0.1200 (105)
          -0.1775 (109) -0.1624 (115)  0.1497 (118)  0.1603 (121) -0.1079 (125)
          -0.1403 (127)  0.2454 (132)  0.1414 (133) -0.1152 (137) -0.1452 (149)
          -0.2221 (152)
 CRD 76=   0.2084 ( 17)  0.1186 ( 20) -0.1712 ( 21) -0.1018 ( 24)  0.1022 ( 26)
          -0.1449 ( 54) -0.1764 ( 56) -0.1124 ( 61)  0.1601 ( 75)  0.2011 ( 76)
          -0.1214 ( 83) -0.1126 ( 90)  0.1259 (106)  0.1351 (110) -0.1254 (113)
           0.1086 (114)  0.1246 (116) -0.1297 (117) -0.1231 (120)  0.1450 (124)
          -0.1084 (127) -0.1522 (137)  0.1128 (139)  0.1107 (141) -0.1418 (144)
           0.1998 (145) -0.2334 (148)  0.1885 (149)  0.2016 (150) -0.1978 (154)
 CRD 77=  -0.1187 (  3)  0.1202 (  4)  0.1250 (  5) -0.1160 (  7)  0.1247 (  8)
          -0.1057 ( 10) -0.1414 ( 14)  0.1196 ( 15) -0.1107 ( 17)  0.1210 ( 22)
           0.1405 ( 29)  0.1071 ( 34) -0.1022 ( 38) -0.1164 ( 40) -0.1095 ( 42)
           0.1067 ( 48)  0.1176 ( 54) -0.1188 ( 74) -0.1195 ( 75) -0.1784 ( 83)
          -0.2136 ( 87)  0.1162 ( 93)  0.1978 ( 96)  0.1955 ( 97) -0.1399 (104)
           0.1081 (105)  0.1129 (108)  0.1050 (110) -0.1026 (118)  0.1417 (125)
          -0.1085 (127) -0.2000 (130)  0.2229 (133) -0.1656 (141)  0.1199 (144)
          -0.1491 (145)  0.1180 (148)  0.1323 (152)
 CRD 78=  -0.3235 (  5)  0.1492 (  6)  0.1197 ( 11) -0.1544 ( 14) -0.1086 ( 27)
          -0.1066 ( 30)  0.1168 ( 33)  0.1460 ( 36) -0.1135 ( 41)  0.1114 ( 44)
           0.1188 ( 48)  0.1300 ( 49) -0.1371 ( 50) -0.1149 ( 52) -0.1009 ( 74)
           0.1142 ( 85)  0.1197 ( 87)  0.1607 ( 92) -0.1581 ( 97) -0.1533 (103)
           0.2070 (116)  0.1133 (121) -0.1083 (126) -0.1909 (127)  0.1847 (129)
           0.1919 (130) -0.1422 (133) -0.1863 (136) -0.2302 (137)  0.2066 (139)
 CRD 79=  -0.1830 (  2)  0.1364 (  6)  0.1792 ( 11) -0.1876 ( 13) -0.1084 ( 21)
           0.1192 ( 29)  0.1283 ( 31)  0.1098 ( 33) -0.1520 ( 35) -0.1250 ( 41)
          -0.1232 ( 42)  0.1500 ( 67)  0.2101 ( 85)  0.1642 ( 94)  0.2500 ( 99)
           0.1082 (107) -0.1116 (108) -0.1525 (109) -0.2223 (111) -0.1173 (117)
          -0.1011 (118) -0.1112 (121)  0.1129 (122)  0.1389 (124) -0.2220 (126)
           0.1097 (127)  0.1588 (132) -0.1474 (139) -0.1258 (144)  0.1174 (149)
 CRD 80=   0.1424 (  7) -0.1111 ( 11)  0.1029 ( 16) -0.1299 ( 18)  0.1491 ( 19)
          -0.1191 ( 21)  0.1262 ( 22)  0.1032 ( 35)  0.1023 ( 42) -0.1031 ( 51)
          -0.1122 ( 57)  0.1090 ( 58) -0.1107 ( 62)  0.1149 ( 63)  0.1196 ( 83)
          -0.1605 ( 85)  0.1331 ( 89) -0.1430 ( 90) -0.1232 ( 92) -0.1378 ( 96)
           0.1511 ( 98)  0.1239 (103)  0.1622 (104) -0.1244 (106) -0.1119 (108)
          -0.1792 (113) -0.1880 (114) -0.1620 (117) -0.1647 (118)  0.1281 (121)
           0.1521 (122)  0.2001 (123)  0.1669 (124)  0.1831 (125)  0.1302 (126)
          -0.1053 (127)  0.1180 (149)  0.1241 (152)
 CRD 81=   0.1359 (  7)  0.1747 ( 12) -0.1128 ( 13)  0.1415 ( 15) -0.1048 ( 16)
          -0.1246 ( 36)  0.1022 ( 46) -0.1213 ( 47) -0.1194 ( 49) -0.1043 ( 50)
           0.1202 ( 52)  0.1017 ( 59)  0.1053 ( 83) -0.2240 ( 86) -0.1494 ( 90)
          -0.1099 ( 92)  0.2232 ( 93)  0.1769 ( 94) -0.1006 ( 96)  0.1848 ( 98)
           0.1229 ( 99)  0.1079 (103)  0.1377 (104)  0.1888 (105)  0.1775 (106)
          -0.1587 (108) -0.1344 (109)  0.1394 (110) -0.1606 (111)  0.1357 (113)
           0.1322 (114) -0.2014 (120) -0.1697 (121) -0.1576 (122) -0.1313 (123)

 THE DETERMINANT OF THE G MATRIX IS 10**(   -28)


                     --------------------
                     INTERNAL COORDINATES
                     --------------------

                 - - ATOMS - -         COORDINATE      COORDINATE
 NO.   TYPE    I  J  K  L  M  N        (BOHR,RAD)       (ANG,DEG)
 ----------------------------------------------------------------
   1 STRETCH   1 11                     2.0598109       1.0900051
   2 STRETCH   1  2                     2.8912818       1.5300005
   3 STRETCH   1 12                     2.0598545       1.0900282
   4 STRETCH   1 10                     2.0598987       1.0900515
   5 STRETCH   2  4                     2.8913137       1.5300174
   6 STRETCH   2  3                     2.8913420       1.5300324
   7 STRETCH   2 13                     2.0598447       1.0900229
   8 STRETCH   3 16                     2.0597401       1.0899676
   9 STRETCH   3 15                     2.0597983       1.0899984
  10 STRETCH   3 14                     2.0598545       1.0900282
  11 STRETCH   4  5                     2.8911211       1.5299155
  12 STRETCH   4 17                     2.0598545       1.0900282
  13 STRETCH   4  9                     2.8912280       1.5299721
  14 STRETCH   5  6                     2.8913209       1.5300213
  15 STRETCH   5 19                     2.0597938       1.0899960
  16 STRETCH   5 18                     2.0599009       1.0900527
  17 STRETCH   6  7                     2.8913420       1.5300324
  18 STRETCH   6 21                     2.0597938       1.0899960
  19 STRETCH   6 20                     2.0599543       1.0900810
  20 STRETCH   7  8                     2.8912334       1.5299749
  21 STRETCH   7 23                     2.0597894       1.0899937
  22 STRETCH   7 22                     2.0597295       1.0899620
  23 STRETCH   8 26                     2.0597202       1.0899571
  24 STRETCH   8 25                     2.0597894       1.0899937
  25 STRETCH   8 24                     2.0599136       1.0900594
  26 STRETCH   9 29                     2.0598447       1.0900229
  27 STRETCH   9 28                     2.0597401       1.0899676
  28 STRETCH   9 27                     2.0597202       1.0899571
  29 BEND      1  2 13                  1.9106122     109.4700151
  30 BEND      1  2  3                  1.9106289     109.4709695
  31 BEND      1  2  4                  1.9106355     109.4713488
  32 BEND      2  3 14                  1.9106268     109.4708496
  33 BEND      2  4  9                  1.9106655     109.4730686
  34 BEND      2  1 12                  1.9107038     109.4752615
  35 BEND      2  4  5                  1.9106255     109.4707799
  36 BEND      2  4 17                  1.9105713     109.4676721
  37 BEND      2  3 15                  1.9105892     109.4686999
  38 BEND      2  1 10                  1.9105893     109.4687057
  39 BEND      2  1 11                  1.9106732     109.4735125
  40 BEND      2  3 16                  1.9106438     109.4718277
  41 BEND      3  2 13                  1.9106752     109.4736228
  42 BEND      3  2  4                  1.9106333     109.4712223
  43 BEND      4  9 27                  1.9106282     109.4709305
  44 BEND      4  9 28                  1.9106441     109.4718451
  45 BEND      4  9 29                  1.9105496     109.4664259
  46 BEND      4  5 18                  1.9107593     109.4784445
  47 BEND      4  5 19                  1.9106317     109.4711308
  48 BEND      4  5  6                  1.9106705     109.4733573
  49 BEND      4  2 13                  1.9106145     109.4701453
  50 BEND      5  4 17                  1.9105860     109.4685153
  51 BEND      5  6 20                  1.9105615     109.4671095
  52 BEND      5  4  9                  1.9107099     109.4756151
  53 BEND      5  6 21                  1.9106066     109.4696939
  54 BEND      5  6  7                  1.9106737     109.4735407
  55 BEND      6  5 19                  1.9106066     109.4696939
  56 BEND      6  7  8                  1.9105962     109.4690991
  57 BEND      6  7 22                  1.9106183     109.4703636
  58 BEND      6  7 23                  1.9105987     109.4692419
  59 BEND      6  5 18                  1.9105283     109.4652061
  60 BEND      7  8 25                  1.9106927     109.4746274
  61 BEND      7  8 26                  1.9106423     109.4717385
  62 BEND      7  6 20                  1.9105898     109.4687339
  63 BEND      7  6 21                  1.9106751     109.4736181
  64 BEND      7  8 24                  1.9106811     109.4739615
  65 BEND      8  7 22                  1.9106764     109.4736914
  66 BEND      8  7 23                  1.9106927     109.4746274
  67 BEND      9  4 17                  1.9106411     109.4716723
  68 BEND     10  1 11                  1.9106839     109.4741244
  69 BEND     10  1 12                  1.9105570     109.4668500
  70 BEND     11  1 12                  1.9105922     109.4688697
  71 BEND     14  3 15                  1.9107571     109.4783191
  72 BEND     14  3 16                  1.9105821     109.4682903
  73 BEND     15  3 16                  1.9106004     109.4693372
  74 BEND     18  5 19                  1.9106030     109.4694907
  75 BEND     20  6 21                  1.9106927     109.4746276
  76 BEND     22  7 23                  1.9106172     109.4703002
  77 BEND     24  8 25                  1.9105973     109.4691640
  78 BEND     24  8 26                  1.9105971     109.4691524
  79 BEND     25  8 26                  1.9105889     109.4686796
  80 BEND     27  9 28                  1.9106911     109.4745333
  81 BEND     27  9 29                  1.9106612     109.4728253
  82 BEND     28  9 29                  1.9106253     109.4707635
  83 TORSION   1  2  3 16              -1.0472172     -60.0011236
  84 TORSION   1  2  4  9              -3.1415343    -179.9966573
  85 TORSION   1  2  4 17              -1.0471477     -59.9971456
  86 TORSION   1  2  4  5               1.0471469      59.9970986
  87 TORSION   1  2  3 14               1.0471178      59.9954320
  88 TORSION   1  2  3 15              -3.1415516    -179.9976450
  89 TORSION   2  4  5  6              -3.0542670    -174.9966087
  90 TORSION   2  4  9 27               1.0471230      59.9957302
  91 TORSION   2  4  9 28               3.1415925     179.9999922
  92 TORSION   2  4  9 29              -1.0472520     -60.0031214
  93 TORSION   2  4  5 18              -0.9599004     -54.9982425
  94 TORSION   2  4  5 19               1.1345340      65.0040078
  95 TORSION   3  2  4  5               3.1415380     179.9968705
  96 TORSION   3  2  1 10               1.0471530      59.9974477
  97 TORSION   3  2  1 12              -1.0471650     -59.9981336
  98 TORSION   3  2  4  9              -1.0471432     -59.9968854
  99 TORSION   3  2  4 17               1.0472434      60.0026263
 100 TORSION   3  2  1 11              -3.1415775    -179.9991326
 101 TORSION   4  2  1 10               3.1415468     179.9973744
 102 TORSION   4  2  3 16               3.1415730     179.9988722
 103 TORSION   4  2  1 12               1.0472288      60.0017931
 104 TORSION   4  2  1 11              -1.0471837     -59.9992059
 105 TORSION   4  5  6 20              -1.0472147     -60.0009838
 106 TORSION   4  5  6 21               1.0471930      59.9997365
 107 TORSION   4  5  6  7              -3.1415375    -179.9968414
 108 TORSION   4  2  3 15               1.0472386      60.0023508
 109 TORSION   4  2  3 14              -1.0472774     -60.0045722
 110 TORSION   5  4  9 28              -1.0471404     -59.9967245
 111 TORSION   5  4  2 13              -1.0472123     -60.0008450
 112 TORSION   5  4  9 27               3.1415754     179.9990136
 113 TORSION   5  6  7 22              -1.0472192     -60.0012414
 114 TORSION   5  6  7 23               1.0471259      59.9958949
 115 TORSION   5  6  7  8               3.1415500     179.9975565
 116 TORSION   5  4  9 29               1.0472004      60.0001620
 117 TORSION   6  7  8 24              -1.0471907     -59.9996097
 118 TORSION   6  7  8 25               1.0472261      60.0016365
 119 TORSION   6  7  8 26              -3.1415765    -179.9990723
 120 TORSION   6  5  4  9               1.1344414      64.9987066
 121 TORSION   6  5  4 17              -0.9599814     -55.0028809
 122 TORSION   7  6  5 18               1.0471397      59.9966861
 123 TORSION   7  6  5 19              -1.0471378     -59.9965779
 124 TORSION   8  7  6 20               1.0472446      60.0026936
 125 TORSION   8  7  6 21              -1.0472224     -60.0014244
 126 TORSION   9  4  2 13               1.0472918      60.0053991
 127 TORSION   9  4  5 19              -0.9599429     -55.0006770
 128 TORSION   9  4  5 18              -3.0543773    -175.0029272
 129 TORSION  10  1  2 13              -1.0472779     -60.0046022
 130 TORSION  11  1  2 13               1.0471769      59.9988175
 131 TORSION  12  1  2 13               3.1415894     179.9998164
 132 TORSION  13  2  3 16               1.0471752      59.9987171
 133 TORSION  13  2  3 15              -1.0471592     -59.9978043
 134 TORSION  13  2  4 17              -3.1415069    -179.9950891
 135 TORSION  13  2  3 14               3.1415101     179.9952727
 136 TORSION  17  4  9 28               1.0472487      60.0029300
 137 TORSION  17  4  9 27              -1.0472208     -60.0013320
 138 TORSION  17  4  5 19              -3.0543657    -175.0022645
 139 TORSION  17  4  5 18               1.1343852      64.9954853
 140 TORSION  17  4  9 29               3.1415894     179.9998164
 141 TORSION  18  5  6 21              -1.0473151     -60.0067360
 142 TORSION  18  5  6 20               3.1414625     179.9925437
 143 TORSION  19  5  6 21               3.1415927     180.0000000
 144 TORSION  19  5  6 20               1.0471850      59.9992797
 145 TORSION  20  6  7 23              -1.0471795     -59.9989680
 146 TORSION  20  6  7 22              -3.1415247    -179.9961043
 147 TORSION  21  6  7 23               3.1415388     179.9969140
 148 TORSION  21  6  7 22               1.0471937      59.9997777
 149 TORSION  22  7  8 26               1.0472283      60.0017635
 150 TORSION  22  7  8 25              -1.0471544     -59.9975277
 151 TORSION  22  7  8 24              -3.1415713    -179.9987739
 152 TORSION  23  7  8 26              -1.0472099     -60.0007087
 153 TORSION  23  7  8 25               3.1415927     180.0000000
 154 TORSION  23  7  8 24               1.0471758      59.9987538

     ------------------------------------------
     THE POINT GROUP IS C1 , NAXIS= 1, ORDER= 1
     ------------------------------------------

     DIMENSIONS OF THE SYMMETRY SUBSPACES ARE
 A   =  291

 ..... DONE SETTING UP THE RUN .....
 STEP CPU TIME =     0.03 TOTAL CPU TIME =        0.0 (    0.0 MIN)
 TOTAL WALL CLOCK TIME=        0.0 SECONDS, CPU UTILIZATION IS  75.00%


          -----------------------------
          STATIONARY POINT LOCATION RUN
          -----------------------------

 OBTAINING INITIAL HESSIAN, HESS=GUESS   
 DIAGONAL GUESS HESSIAN IN INTERNAL COORDS IS
     1  0.3464     2  0.3672     3  0.3463     4  0.3463     5  0.3672
     6  0.3671     7  0.3464     8  0.3464     9  0.3464    10  0.3463
    11  0.3672    12  0.3463    13  0.3672    14  0.3672    15  0.3464
    16  0.3463    17  0.3671    18  0.3464    19  0.3463    20  0.3672
    21  0.3464    22  0.3464    23  0.3464    24  0.3464    25  0.3463
    26  0.3464    27  0.3464    28  0.3464    29  0.2241    30  0.2485
    31  0.2485    32  0.2241    33  0.2485    34  0.2241    35  0.2485
    36  0.2241    37  0.2241    38  0.2241    39  0.2241    40  0.2241
    41  0.2241    42  0.2485    43  0.2241    44  0.2241    45  0.2241
    46  0.2241    47  0.2241    48  0.2485    49  0.2241    50  0.2241
    51  0.2241    52  0.2485    53  0.2241    54  0.2485    55  0.2241
    56  0.2485    57  0.2241    58  0.2241    59  0.2241    60  0.2241
    61  0.2241    62  0.2241    63  0.2241    64  0.2241    65  0.2241
    66  0.2241    67  0.2241    68  0.2034    69  0.2034    70  0.2034
    71  0.2034    72  0.2034    73  0.2034    74  0.2034    75  0.2034
    76  0.2034    77  0.2034    78  0.2034    79  0.2034    80  0.2034
    81  0.2034    82  0.2034    83  0.2500    84  0.2500    85  0.2500
    86  0.2500    87  0.2500    88  0.2500    89  0.2500    90  0.2500
    91  0.2500    92  0.2500    93  0.2500    94  0.2500    95  0.2500
    96  0.2500    97  0.2500    98  0.2500    99  0.2500   100  0.2500
   101  0.2500   102  0.2500   103  0.2500   104  0.2500   105  0.2500
   106  0.2500   107  0.2500   108  0.2500   109  0.2500   110  0.2500
   111  0.2500   112  0.2500   113  0.2500   114  0.2500   115  0.2500
   116  0.2500   117  0.2500   118  0.2500   119  0.2500   120  0.2500
   121  0.2500   122  0.2500   123  0.2500   124  0.2500   125  0.2500
   126  0.2500   127  0.2500   128  0.2500   129  0.2500   130  0.2500
   131  0.2500   132  0.2500   133  0.2500   134  0.2500   135  0.2500
   136  0.2500   137  0.2500   138  0.2500   139  0.2500   140  0.2500
   141  0.2500   142  0.2500   143  0.2500   144  0.2500   145  0.2500
   146  0.2500   147  0.2500   148  0.2500   149  0.2500   150  0.2500
   151  0.2500   152  0.2500   153  0.2500   154  0.2500
 TRANSFORMING HESSIAN TO SYMMETRY COORDINATES

          PARAMETERS CONTROLLING GEOMETRY SEARCH ARE
          METHOD =QA                  UPHESS =BFGS    
          NNEG   =         0          NFRZ   =         3
          NSTEP  =        50          IFOLOW =         1
          HESS   =GUESS               RESTAR =         F
          IHREP  =         0          HSSEND =         F
          NPRT   =         0          NPUN   =         0
          OPTTOL = 5.000E-04          RMIN   = 1.500E-03
          RMAX   = 1.000E-01          RLIM   = 7.000E-02
          DXMAX  = 3.000E-01          PURIFY =         F
          MOVIE  =         F          TRUPD  =         T
          TRMAX  = 5.000E-01          TRMIN  = 5.000E-02
          ITBMAT =         5          STPT   =         F
          STSTEP = 1.000E-02          PROJCT=          F
          FROZEN COORD(S)=   1   2   3


      ***** EQUILIBRIUM GEOMETRY LOCATED *****
            (SUBJECT TO   3 CONSTRAINT(S))
 COORDINATES OF ALL ATOMS ARE (ANGS)
   ATOM   CHARGE       X              Y              Z
 ------------------------------------------------------------
 C           6.0   2.2194979291   1.7605838506   0.2844902767
 C           6.0   2.1393920573   0.3280042997  -0.2649848319
 C           6.0   3.4007717637  -0.4297661910   0.1731931752
 C           6.0   0.8299786854  -0.3800939299   0.1650382613
 C           6.0  -0.4179739253   0.2846376410  -0.4511413180
 C           6.0  -1.7256757581  -0.1482226873   0.2154914531
 C           6.0  -2.9848263613   0.4729041641  -0.3863292833
 C           6.0  -4.2393937789   0.0252961166   0.3637622399
 C           6.0   0.8311777071  -1.8812244544  -0.1620705757
 H           1.0   3.1629435134   2.2218027971   0.0059305151
 H           1.0   1.4265460664   2.3996340057  -0.0850455866
 H           1.0   2.1640370905   1.7545963809   1.3716692283
 H           1.0   2.1498216755   0.3825730686  -1.3545299037
 H           1.0   3.4171631879  -0.5641543957   1.2536796616
 H           1.0   3.4792048827  -1.4079068144  -0.2862757205
 H           1.0   4.2895052358   0.1308701455  -0.1026591248
 H           1.0   0.7572287737  -0.2762480138   1.2490985654
 H           1.0  -0.3481862319   1.3639670726  -0.3687375856
 H           1.0  -0.4484497704   0.0583741765  -1.5176116608
 H           1.0  -1.8340283642  -1.2274094235   0.1727616252
 H           1.0  -1.6761194990   0.1138989764   1.2721673333
 H           1.0  -2.9124241081   1.5590263106  -0.3625627798
 H           1.0  -3.0655365174   0.1886269898  -1.4343870689
 H           1.0  -4.3306335088  -1.0584734053   0.3472593188
 H           1.0  -4.1951735350   0.3352144631   1.4053096805
 H           1.0  -5.1419536869   0.4433151512  -0.0719751342
 H           1.0   1.6431914436  -2.4077683976   0.3234717848
 H           1.0  -0.0884478170  -2.3517836630   0.1649730903
 H           1.0   0.9189091075  -2.0416682170  -1.2354927963


                     --------------------
                     INTERNAL COORDINATES
                     --------------------

                 - - ATOMS - -         COORDINATE      COORDINATE
 NO.   TYPE    I  J  K  L  M  N        (BOHR,RAD)       (ANG,DEG)
 ----------------------------------------------------------------
   1 STRETCH   1 11                     2.0472933       1.0833811
   2 STRETCH   1  2                     2.9034359       1.5364322
   3 STRETCH   1 12                     2.0571730       1.0886091
   4 STRETCH   1 10                     2.0531227       1.0864658
   5 STRETCH   2  4                     2.9280914       1.5494794
   6 STRETCH   2  3                     2.9013879       1.5353484
   7 STRETCH   2 13                     2.0616166       1.0909606
   8 STRETCH   3 16                     2.0529895       1.0863953
   9 STRETCH   3 15                     2.0475619       1.0835232
  10 STRETCH   3 14                     2.0577892       1.0889352
  11 STRETCH   4  5                     2.9146725       1.5423784
  12 STRETCH   4 17                     2.0625416       1.0914501
  13 STRETCH   4  9                     2.9032948       1.5363575
  14 STRETCH   5  6                     2.8918682       1.5303109
  15 STRETCH   5 19                     2.0609998       1.0906342
  16 STRETCH   5 18                     2.0498194       1.0847178
  17 STRETCH   6  7                     2.8866744       1.5275624
  18 STRETCH   6 21                     2.0594784       1.0898291
  19 STRETCH   6 20                     2.0512104       1.0854539
  20 STRETCH   7  8                     2.8888278       1.5287020
  21 STRETCH   7 23                     2.0577656       1.0889228
  22 STRETCH   7 22                     2.0575187       1.0887921
  23 STRETCH   8 26                     2.0520905       1.0859196
  24 STRETCH   8 25                     2.0552244       1.0875780
  25 STRETCH   8 24                     2.0555089       1.0877286
  26 STRETCH   9 29                     2.0576975       1.0888867
  27 STRETCH   9 28                     2.0476248       1.0835565
  28 STRETCH   9 27                     2.0461171       1.0827586
  29 BEND      1  2 13                  1.8860210     108.0610407
  30 BEND      1  2  3                  1.8915579     108.3782845
  31 BEND      1  2  4                  1.9507839     111.7716835
  32 BEND      2  3 14                  1.9352681     110.8826924
  33 BEND      2  4  9                  1.9679166     112.7533158
  34 BEND      2  1 12                  1.9277015     110.4491620
  35 BEND      2  4  5                  1.9561921     112.0815517
  36 BEND      2  4 17                  1.8634514     106.7679024
  37 BEND      2  3 15                  1.9649170     112.5814490
  38 BEND      2  1 10                  1.9277269     110.4506163
  39 BEND      2  1 11                  1.9712636     112.9450837
  40 BEND      2  3 16                  1.9229494     110.1768877
  41 BEND      3  2 13                  1.8774348     107.5690908
  42 BEND      3  2  4                  1.9709069     112.9246454
  43 BEND      4  9 27                  1.9608708     112.3496189
  44 BEND      4  9 28                  1.9384117     111.0628085
  45 BEND      4  9 29                  1.9325545     110.7272139
  46 BEND      4  5 18                  1.9245617     110.2692602
  47 BEND      4  5 19                  1.9005887     108.8957100
  48 BEND      4  5  6                  1.9773820     113.2956432
  49 BEND      4  2 13                  1.8839963     107.9450352
  50 BEND      5  4 17                  1.8774380     107.5692764
  51 BEND      5  6 20                  1.9277032     110.4492554
  52 BEND      5  4  9                  1.9141741     109.6740994
  53 BEND      5  6 21                  1.8917572     108.3897025
  54 BEND      5  6  7                  2.0017579     114.6922817
  55 BEND      6  5 19                  1.9213389     110.0846121
  56 BEND      6  7  8                  1.9434651     111.3523499
  57 BEND      6  7 22                  1.9200566     110.0111421
  58 BEND      6  7 23                  1.9114822     109.5198601
  59 BEND      6  5 18                  1.8789900     107.6581942
  60 BEND      7  8 25                  1.9316780     110.6769973
  61 BEND      7  8 26                  1.9524997     111.8699932
  62 BEND      7  6 20                  1.8822828     107.8468583
  63 BEND      7  6 21                  1.8982935     108.7642044
  64 BEND      7  8 24                  1.9317125     110.6789748
  65 BEND      8  7 22                  1.9134070     109.6301460
  66 BEND      8  7 23                  1.9123916     109.5719656
  67 BEND      9  4 17                  1.8801948     107.7272274
  68 BEND     10  1 11                  1.8730943     107.3203966
  69 BEND     10  1 12                  1.8782459     107.6155615
  70 BEND     11  1 12                  1.8824176     107.8545865
  71 BEND     14  3 15                  1.8841614     107.9544987
  72 BEND     14  3 16                  1.8789696     107.6570252
  73 BEND     15  3 16                  1.8744108     107.3958300
  74 BEND     18  5 19                  1.8572086     106.4102129
  75 BEND     20  6 21                  1.8565025     106.3697554
  76 BEND     22  7 23                  1.8612224     106.6401887
  77 BEND     24  8 25                  1.8774447     107.5696594
  78 BEND     24  8 26                  1.8836113     107.9229793
  79 BEND     25  8 26                  1.8842834     107.9614839
  80 BEND     27  9 28                  1.8649770     106.8553113
  81 BEND     27  9 29                  1.8859730     108.0582957
  82 BEND     28  9 29                  1.8775123     107.5735329
  83 TORSION   1  2  3 16              -0.9169991     -52.5401764
  84 TORSION   1  2  4  9              -2.9690073    -170.1115875
  85 TORSION   1  2  4 17              -0.9075465     -51.9985864
  86 TORSION   1  2  4  5               1.1440100      65.5469464
  87 TORSION   1  2  3 14               1.1613785      66.5420878
  88 TORSION   1  2  3 15              -3.0088425    -172.3939768
  89 TORSION   2  4  5  6              -2.8867975    -165.4013111
  90 TORSION   2  4  9 27               1.0367572      59.4018117
  91 TORSION   2  4  9 28               3.1245738     179.0248909
  92 TORSION   2  4  9 29              -1.0738066     -61.5245888
  93 TORSION   2  4  5 18              -0.7795643     -44.6657434
  94 TORSION   2  4  5 19               1.2520996      71.7400245
  95 TORSION   3  2  4  5              -3.0008666    -171.9369903
  96 TORSION   3  2  1 10               0.9168908      52.5339731
  97 TORSION   3  2  1 12              -1.1588439     -66.3968658
  98 TORSION   3  2  4  9              -0.8306986     -47.5955242
  99 TORSION   3  2  4 17               1.2307622      70.5174770
 100 TORSION   3  2  1 11               3.0146457     172.7264778
 101 TORSION   4  2  1 10               3.0998955     177.6109275
 102 TORSION   4  2  3 16              -3.0880717    -176.9334734
 103 TORSION   4  2  1 12               1.0241608      58.6800885
 104 TORSION   4  2  1 11              -1.0855349     -62.1965678
 105 TORSION   4  5  6 20              -0.9928242     -56.8846363
 106 TORSION   4  5  6 21               1.0346202      59.2793737
 107 TORSION   4  5  6  7              -3.1239272    -178.9878465
 108 TORSION   4  2  3 15               1.1032702      63.2127262
 109 TORSION   4  2  3 14              -1.0096941     -57.8512091
 110 TORSION   5  4  9 28              -0.9655507     -55.3219799
 111 TORSION   5  4  2 13              -0.9277412     -53.1556562
 112 TORSION   5  4  9 27              -3.0533673    -174.9450591
 113 TORSION   5  6  7 22              -0.9843700     -56.4002472
 114 TORSION   5  6  7 23               1.0559401      60.5009088
 115 TORSION   5  6  7  8              -3.1093607    -178.1532425
 116 TORSION   5  4  9 29               1.1192542      64.1285405
 117 TORSION   6  7  8 24              -1.0165589     -58.2445358
 118 TORSION   6  7  8 25               1.0632551      60.9200302
 119 TORSION   6  7  8 26              -3.1178295    -178.6384696
 120 TORSION   6  5  4  9               1.1966318      68.5619543
 121 TORSION   6  5  4 17              -0.8436111     -48.3353531
 122 TORSION   7  6  5 18               1.0264367      58.8104909
 123 TORSION   7  6  5 19              -0.9911544     -56.7889634
 124 TORSION   8  7  6 20               1.0182510      58.3414822
 125 TORSION   8  7  6 21              -0.9882894     -56.6248110
 126 TORSION   9  4  2 13               1.2424268      71.1858099
 127 TORSION   9  4  5 19              -0.9476564     -54.2967101
 128 TORSION   9  4  5 18              -2.9793203    -170.7024780
 129 TORSION  10  1  2 13              -1.1127420     -63.7554201
 130 TORSION  11  1  2 13               0.9850129      56.4370846
 131 TORSION  12  1  2 13               3.0947086     177.3137409
 132 TORSION  13  2  3 16               1.1181804      64.0670164
 133 TORSION  13  2  3 15              -0.9736631     -55.7867839
 134 TORSION  13  2  4 17              -2.9792978    -170.7011890
 135 TORSION  13  2  3 14              -3.0866273    -176.8507193
 136 TORSION  17  4  9 28               1.0729595      61.4760519
 137 TORSION  17  4  9 27              -1.0148571     -58.1470273
 138 TORSION  17  4  5 19              -2.9878993    -171.1940175
 139 TORSION  17  4  5 18               1.2636221      72.4002146
 140 TORSION  17  4  9 29              -3.1254209    -179.0734278
 141 TORSION  18  5  6 21              -1.0982011     -62.9222889
 142 TORSION  18  5  6 20              -3.1256456    -179.0862990
 143 TORSION  19  5  6 21              -3.1157922    -178.5217432
 144 TORSION  19  5  6 20               1.1399487      65.3142467
 145 TORSION  20  6  7 23              -1.0996336     -63.0043666
 146 TORSION  20  6  7 22              -3.1399437    -179.9055225
 147 TORSION  21  6  7 23              -3.1061740    -177.9706598
 148 TORSION  21  6  7 22               1.1367013      65.1281843
 149 TORSION  22  7  8 26               1.0365092      59.3876034
 150 TORSION  22  7  8 25              -1.0655915     -61.0538967
 151 TORSION  22  7  8 24               3.1377798     179.7815373
 152 TORSION  23  7  8 26              -1.0004752     -57.3230090
 153 TORSION  23  7  8 25              -3.1025760    -177.7645091
 154 TORSION  23  7  8 24               1.1007953      63.0709249

          INTERNUCLEAR DISTANCES (ANGS.)


 =====================================================
   GAMESS/COSab RESULTS
 =====================================================

   Dielectric Constant                  = INFTY
   Basic Grid Size                      =                 1082
   Number of Segments                   =                   92
   Number of Segments located on spheres=                  322
   Number of Segments of the cavity     =                  884
   Solvent Radius (rsolv)               = 1.40
   Outlying Charge Error Method         = double cavity

 =====================================================

  Total solvated Energy (a.u.)          =  -352.5526914030
  Total Energy corrected (a.u.)         =  -352.5525815395

  Outlying charge effect (a.u.)         =     0.0001098635
  Outlying charge effect (kcal/mol)     =     0.0689404158

  Dielectric Energy (a.u.)              =    -0.0016589358
  Dielectric energy corr. (a.u.)        =    -0.0015490723

  Sum of polarization charges           =     0.0333277354
  Sum of polarization charges(cor.)     =    -0.0333277354

  Total surface area of cavity (A**2)   =  202.32
  Total volume of cavity (A**3)         =  209.21

 =====================================================
 NPS=                   884
NR.  ATOM  (X, Y, Z)(a.u.)                  CHARGE(e)  AREA(A**2) SIGMA(e/A**2)
   1   1   2.006119   5.634329   2.580305   0.002355   0.418105   0.005633
   2   1   4.788252   4.503094  -3.004752   0.000942   0.278737   0.003380
   3   1   4.179671   7.028442  -0.226260   0.001795   0.418105   0.004294
   4   1   5.789166   5.720160   2.989814   0.001640   0.371649   0.004413
   5   1   1.277825   4.172166   2.788033   0.000783   0.139368   0.005617
   6   1   6.598263   5.588493   2.378983   0.001452   0.325193   0.004466
   7   1   5.166230   6.803573  -0.581799   0.001207   0.278737   0.004330
   8   1   5.263709   5.142020  -2.600277   0.001113   0.278737   0.003992
   9   1   1.310829   5.050111   2.269965   0.000648   0.139368   0.004647
  10   1   1.637555   4.727692   2.942943   0.000940   0.185824   0.005059
  11   1   5.752243   4.057841  -2.827338   0.000683   0.232280   0.002941
  12   1   4.142189   5.556822  -2.513549   0.001420   0.325193   0.004367
  13   1   4.367777   6.525555  -1.468264   0.001950   0.371649   0.005246
  14   1   4.915290   7.027118   0.808882   0.001539   0.464561   0.003312
  15   1   5.340933   6.505878   2.229994   0.001465   0.464561   0.003154
  16   1   6.642994   4.716602   3.058899   0.001840   0.325193   0.005658
  17   1   6.959005   3.733704   3.082199   0.001372   0.278737   0.004922
  18   1   3.712259   4.653389  -2.968491   0.001015   0.325193   0.003122
  19   1   3.640218   7.022719   1.102472   0.001137   0.371649   0.003060
  20   1   2.825810   6.531743   2.000934   0.001546   0.418105   0.003699
  21   1   3.149160   6.011508   2.984137   0.001747   0.464561   0.003760
  22   1   4.546941   6.071617   3.111900   0.001024   0.325193   0.003149
  23   1   5.792079   6.650411   1.365993   0.000837   0.278737   0.003002
  24   1   4.937349   5.980787  -2.048818   0.001386   0.278737   0.004973
[...]
 627   7  -8.248450   3.657512  -1.227017   0.000196   0.074610   0.002631
 628   7  -3.923687   1.757295  -4.063284   0.000146   0.090332   0.001618
 629  19  -2.968221   1.436565  -4.186935   0.000281   0.090332   0.003109
 630  23  -4.067063   1.541457  -4.228544  -0.000048   0.090332  -0.000537
 631  19  -2.379158   1.588818  -4.383115   0.000102   0.053675   0.001898
 632   7  -3.774055   2.050809  -4.087916   0.000331   0.076380   0.004340
 633   7  -5.998092  -2.860080  -1.548921   0.000085   0.165442   0.000512
 634  20  -5.479408  -3.256577  -1.188218  -0.000074   0.165442  -0.000447
 635  24  -6.531972  -3.183675  -1.113118  -0.000132   0.165442  -0.000796
 636  20  -4.784998  -3.374858  -1.518970  -0.000201   0.158829  -0.001264
 637   7  -5.396996  -2.707977  -2.168651   0.000427   0.224041   0.001905
 638   7  -5.339132   2.556633   2.738317   0.000121   0.166990   0.000725
 639  21  -4.817500   2.208163   3.152907  -0.000047   0.166990  -0.000282
 640  25  -5.880538   2.300407   3.208309  -0.000068   0.166990  -0.000404
 641  21  -4.019632   2.479140   3.087407  -0.000083   0.128102  -0.000650
 642   7  -4.854414   2.933005   2.495850   0.000367   0.180665   0.002033
 643  22  -4.480262   4.099180  -2.597512  -0.000009   0.069698  -0.000124
 644  22  -5.586085   4.176167  -2.747135  -0.000065   0.154773  -0.000418
 645  22  -6.825779   4.247090  -2.211960  -0.000208   0.154773  -0.001344
 646  22  -7.477862   4.270673  -1.303451  -0.000065   0.069698  -0.000937
 647   7  -4.863102   3.794623  -2.945947   0.000234   0.152783   0.001531
 648   7  -6.374183   3.892747  -2.827029   0.000189   0.152783   0.001239
 649   7  -7.499252   3.945438  -1.807923  -0.000031   0.152783  -0.000201
 650  22  -5.744401   4.094411   1.470553  -0.000058   0.072689  -0.000800
 651  22  -4.841976   4.035533   1.412202  -0.000070   0.072689  -0.000963
 652   7  -5.300660   3.722739   1.671145  -0.000179   0.157953  -0.001130
 653  23  -5.555266  -2.014138  -3.308018  -0.000064   0.069991  -0.000916
 654  23  -6.424979  -1.953225  -3.257561  -0.000064   0.069991  -0.000919
 655   7  -5.977672  -2.127435  -2.894651  -0.000146   0.153307  -0.000951
 656  23  -7.852782   0.918104  -3.926400  -0.000042   0.069121  -0.000604
 657  23  -7.117565   1.704235  -4.196245  -0.000144   0.153211  -0.000942
 658  23  -5.842126   2.071534  -4.394093  -0.000051   0.153211  -0.000335
 659  23  -4.764389   1.807496  -4.405477  -0.000043   0.069121  -0.000619
 660   7  -7.778072   1.479842  -3.734408  -0.000073   0.151782  -0.000480
 661   7  -6.566282   2.317447  -4.054917   0.000226   0.151782   0.001489
 662   7  -5.063116   2.261692  -4.155557   0.000222   0.151782   0.001461
 663  24  -7.288667  -3.198881  -1.372522  -0.000141   0.113946  -0.001239
 664   7  -6.443941  -2.723932  -1.956305   0.000296   0.160612   0.001845
 665  25  -6.557485   2.649166   3.257973  -0.000229   0.150395  -0.001525
 666   7  -5.898368   3.113455   2.459584   0.000418   0.211928   0.001974
 667  26  -9.516897   2.981532  -1.402529  -0.000159   0.192663  -0.000824
 668  26  -9.631292   1.927021  -2.286765  -0.000861   0.393237  -0.002190
 669   7  -8.549566   2.881586  -2.168169   0.000896   0.528837   0.001694
 670   7  -8.662743   1.597633  -3.065642   0.000714   0.271288   0.002632
 671   8  -6.369639  -3.001909   2.358867   0.000143   0.086946   0.001642
 672  20  -5.467098  -3.231086   2.055610   0.000188   0.086946   0.002167
 673  24  -6.512111  -3.215717   2.191489  -0.000028   0.086946  -0.000320
 674   8  -6.214568  -1.010806   3.916925   0.000108   0.086688   0.001251
 675  21  -5.253769  -0.821864   3.959713   0.000232   0.086688   0.002673
 676  25  -6.309673  -0.773937   4.086629  -0.000086   0.086688  -0.000993
 677  21  -4.693367  -1.053694   4.085668   0.000113   0.063915   0.001760
 678   8  -6.101476  -1.340928   3.912381   0.000372   0.090627   0.004106
 679  22  -7.596483   4.278798  -0.559510  -0.000153   0.214601  -0.000714
 680  22  -6.836649   4.256156   0.780868  -0.001035   0.441472  -0.002343
 681   8  -8.220049   3.804220   0.414862   0.001039   0.585717   0.001774
 682   8  -7.252953   3.655717   1.868128   0.000805   0.302285   0.002663
 683  23  -7.119304  -1.658770  -3.301942  -0.000140   0.215127  -0.000651
 684  23  -7.851961  -0.347088  -3.661083  -0.001015   0.442650  -0.002293
 685   8  -8.228973  -1.482196  -2.752608   0.001055   0.587072   0.001797
 686   8  -8.936093   0.093579  -3.071088   0.000789   0.303030   0.002605
 687  24  -7.183833  -3.295668   2.490490  -0.000052   0.067025  -0.000778
 688  24  -8.231824  -3.211204   2.736996  -0.000120   0.147754  -0.000813
 689  24  -9.479506  -3.100459   2.361738  -0.000192   0.147754  -0.001302
 690  24 -10.262957  -3.018610   1.318043  -0.000241   0.147754  -0.001633
 691  24 -10.278308  -2.997401   0.010714  -0.000147   0.147754  -0.000998
 692  24  -9.519607  -3.045060  -1.053192  -0.000167   0.147754  -0.001133
 693  24  -8.281121  -3.143101  -1.461032  -0.000289   0.147754  -0.001959
 694   8  -7.468362  -2.940120   2.865589   0.000166   0.147948   0.001125
 695   8  -8.932026  -2.817483   2.903112   0.000124   0.147948   0.000840
 696   8 -10.132869  -2.703617   2.064201   0.000002   0.147948   0.000010
 697   8 -10.605136  -2.642687   0.674233   0.000064   0.147948   0.000432
 698   8 -10.165654  -2.658325  -0.727685   0.000132   0.147948   0.000890
 699   8  -8.984880  -2.744465  -1.597807  -0.000083   0.147948  -0.000564
 700   8  -7.806096  -2.841440  -1.745765   0.000024   0.081885   0.000296
 701  25  -7.266398   2.944380   3.171446  -0.000071   0.066605  -0.001062
 702  25  -8.339124   2.939217   3.218526  -0.000196   0.146662  -0.001335
 703  25  -9.456706   2.316224   3.451352  -0.000155   0.146662  -0.001055
 704  25  -9.969731   1.176945   3.812135  -0.000178   0.146662  -0.001211
 705  25  -9.681517  -0.041845   4.162561  -0.000223   0.146662  -0.001521
 706  25  -8.702559  -0.872890   4.368283  -0.000137   0.146662  -0.000931
 707  25  -7.408168  -0.997585   4.350432  -0.000213   0.146662  -0.001456
 708   8  -7.671865   3.123394   2.784576  -0.000110   0.147182  -0.000749
 709   8  -9.096623   2.833358   2.931369   0.000112   0.147182   0.000758
 710   8 -10.060109   1.792074   3.282118   0.000109   0.147182   0.000740
 711   8 -10.192945   0.398747   3.702355   0.000009   0.147182   0.000063
 712   8  -9.444203  -0.812452   4.030969   0.000063   0.147182   0.000428
 713   8  -8.100935  -1.377176   4.141978   0.000149   0.147182   0.001013
 714   8  -6.923017  -1.273468   4.061109   0.000138   0.081372   0.001697
 715  26  -9.968702   0.821580  -2.578748  -0.000086   0.070083  -0.001221
 716  26 -10.561602  -0.059696  -2.196118  -0.000278   0.156103  -0.001780
 717  26 -11.302934  -0.618844  -1.197021  -0.000143   0.156103  -0.000919
 718  26 -11.787308  -0.362627   0.052038  -0.000282   0.156103  -0.001805
 719  26 -11.808172   0.599697   1.018429  -0.000300   0.156103  -0.001925
 720  26 -11.356631   1.857768   1.290058  -0.000173   0.156103  -0.001107
 721  26 -10.625233   2.875112   0.751094  -0.000209   0.156103  -0.001338
 722  26  -9.925865   3.217907  -0.368634  -0.000312   0.156103  -0.002000
 723   8  -9.851922   0.231631  -2.552411  -0.000112   0.153151  -0.000729
 724   8 -10.697750  -0.775653  -1.766780  -0.000013   0.153151  -0.000082
 725   8 -11.426051  -0.955651  -0.430950   0.000109   0.153151   0.000711
 726   8 -11.726258  -0.231608   0.885446  -0.000077   0.153151  -0.000502
 727   8 -11.470355   1.087727   1.621064  -0.000062   0.153151  -0.000407
 728   8 -10.767465   2.439753   1.462216   0.000102   0.153151   0.000665
 729   8  -9.917320   3.247933   0.476640  -0.000034   0.153151  -0.000220
 730   8  -9.345426   3.332099  -0.627163   0.000010   0.085621   0.000116
 731   9   3.144479  -2.902559   3.274697   0.000538   0.252619   0.002130
 732  14   4.152778  -2.310142   3.529511   0.000442   0.252619   0.001751
 733  17   3.021819  -2.231652   3.600764   0.000193   0.252619   0.000766
 734   9   3.526795  -3.663298   3.055637  -0.000034   0.105056  -0.000324
 735  14   4.516932  -3.039092   3.266401   0.000295   0.105056   0.002804
 736  27   3.755593  -3.857088   2.997432  -0.000199   0.105056  -0.001899
 737  14   4.795626  -2.581380   3.792650   0.000024   0.100818   0.000242
 738   9   3.361391  -3.498505   3.361115   0.000449   0.146900   0.003056
 739   9   4.740731  -5.618940  -1.092006   0.000123   0.079255   0.001555
 740  15   5.603673  -5.180138  -1.042836  -0.000150   0.079255  -0.001892
 741  27   4.868439  -5.664170  -0.820002  -0.000155   0.079255  -0.001961
 742   9   4.369067  -4.697212  -2.643994   0.000267   0.065019   0.004107
 743  15   5.230394  -4.319481  -2.417985   0.000090   0.065019   0.001382
 744  29   4.183050  -4.635919  -2.877816   0.000058   0.065019   0.000898
 745  15   5.995991  -4.807046  -1.693584  -0.001685   0.392285  -0.004295
 746   9   4.646498  -5.190827  -2.081359   0.001942   0.554573   0.003502
 747  17   0.462631  -2.320397   3.800304  -0.000060   0.171935  -0.000348
 748  17   1.727055  -2.362765   3.914752  -0.000426   0.349821  -0.001217
 749   9   0.906476  -3.378224   3.449308   0.001045   0.473748   0.002206
 750   9   2.350421  -3.349871   3.492731   0.000695   0.242416   0.002868
 751   9  -0.698731  -3.442187  -3.404042   0.000164   0.085267   0.001921
 752  19  -0.998203  -2.562516  -3.673858   0.000202   0.085267   0.002374
 753  29  -0.473435  -3.481126  -3.608959  -0.000052   0.085267  -0.000611
 754  19  -1.538567  -2.216049  -3.776108   0.000038   0.117365   0.000328
 755   9  -1.133278  -3.477194  -3.234554   0.000575   0.166206   0.003462
 756   9  -1.859472  -4.865701  -1.549751  -0.000061   0.071558  -0.000847
 757  20  -2.707451  -4.433976  -1.247245  -0.000207   0.071558  -0.002889
 758  28  -2.019409  -4.952590  -1.306796  -0.000188   0.071558  -0.002634
 759  20  -3.115855  -3.906116  -1.672603  -0.000217   0.236201  -0.000920
 760   9  -1.858042  -4.603509  -2.026964   0.000944   0.335278   0.002815
 761  27   3.277037  -4.473512   3.062106  -0.000134   0.066097  -0.002021
 762  27   2.802100  -5.410437   2.840323  -0.000202   0.145750  -0.001387
 763  27   2.620596  -6.423206   2.045565  -0.000146   0.145750  -0.001003
 764  27   2.970337  -6.936898   0.903600  -0.000235   0.145750  -0.001613
 765  27   3.716445  -6.753410  -0.145179  -0.000264   0.145750  -0.001812
 766  27   4.426623  -6.162001  -0.691499  -0.000080   0.066097  -0.001217
 767   9   2.714940  -4.637310   3.083318  -0.000053   0.145826  -0.000366
 768   9   2.227765  -5.898635   2.530207   0.000174   0.145826   0.001191
 769   9   2.327201  -6.800848   1.385509   0.000106   0.145826   0.000725
 770   9   2.974902  -6.996015   0.090671  -0.000012   0.145826  -0.000082
 771   9   3.921084  -6.408870  -0.854957   0.000037   0.145826   0.000256
 772  28  -1.631672  -5.483400  -1.362796  -0.000062   0.070060  -0.000884
 773  28  -1.035061  -6.326378  -0.898065  -0.000283   0.156289  -0.001809
 774  28  -0.387662  -6.831152   0.196101  -0.000307   0.156289  -0.001966
 775  28  -0.079717  -6.530561   1.494536  -0.000186   0.156289  -0.001191
 776  28  -0.243804  -5.554016   2.438229  -0.000200   0.156289  -0.001278
 777  28  -0.664726  -4.539545   2.714280  -0.000099   0.070060  -0.001413
 778   9  -1.146796  -5.790261  -1.544053   0.000040   0.152857   0.000263
 779   9  -0.340925  -6.740044  -0.644566  -0.000022   0.152857  -0.000146
 780   9   0.227034  -6.861432   0.777854   0.000061   0.152857   0.000401
 781   9   0.312559  -6.102165   2.110817   0.000144   0.152857   0.000944
 782   9  -0.121171  -4.789127   2.780445  -0.000017   0.152857  -0.000110
 783  29   3.664114  -5.117611  -3.182194  -0.000018   0.073663  -0.000245
 784  29   2.756026  -5.866375  -3.144489  -0.000279   0.165595  -0.001684
 785  29   1.350213  -6.042638  -3.233040  -0.000324   0.165595  -0.001958
 786  29   0.167553  -5.285979  -3.442805  -0.000128   0.165595  -0.000771
 787  29  -0.308115  -4.226945  -3.639986  -0.000009   0.073663  -0.000126
 788   9   3.491785  -5.559628  -2.788408   0.000158   0.159620   0.000987
 789   9   2.069065  -6.278370  -2.797251  -0.000071   0.159620  -0.000442
 790   9   0.523438  -5.931805  -2.975382  -0.000051   0.159620  -0.000320
 791   9  -0.428100  -4.680699  -3.240167   0.000107   0.159620   0.000673
 792  16   8.290624   2.186838  -2.000705  -0.000020   0.220918  -0.000090
 793  16   8.941839   2.496869  -1.214436  -0.000790   0.441821  -0.001789
 794  16   9.230921   2.586645   0.055951  -0.000645   0.441821  -0.001460
 795  16   8.991571   2.404523   1.079651   0.000190   0.220918   0.000859
 796  10   7.881457   3.564871  -1.653817  -0.000569   0.441821  -0.001287
 797  10   8.501178   3.840812  -0.537880  -0.000814   0.441821  -0.001842
 798  10   8.431172   3.735590   0.761942  -0.000293   0.441821  -0.000663
 799  18  -0.561351   4.684984   0.834424  -0.000435   0.205150  -0.002123
 800  18  -0.625521   5.082523  -0.215396  -0.001756   0.410608  -0.004277
 801  18  -0.339594   4.959157  -1.553723  -0.001602   0.410608  -0.003901
 802  18   0.129704   4.386822  -2.400169  -0.000155   0.205150  -0.000757
 803  11   0.453128   5.473643   0.611685  -0.001336   0.410608  -0.003254
 804  11   0.517923   5.731876  -0.736355  -0.001976   0.410608  -0.004812
 805  11   0.995511   5.239627  -1.927024  -0.001660   0.410608  -0.004043
 806  12   4.037092   1.062628   4.152874  -0.000179   0.324877  -0.000550
 807  14   4.573392   0.076272   4.083216   0.000054   0.324877   0.000167
 808  17   3.438587   0.199821   4.097130   0.000001   0.324877   0.000004
 809  14   6.827780   0.977733   4.079028   0.000437   0.290547   0.001505
 810  14   5.778100   0.392155   4.438654  -0.000320   0.581040  -0.000551
 811  12   5.678659   2.155713   4.324089  -0.000003   0.581040  -0.000005
 812  12   4.600865   1.560919   4.566244  -0.000020   0.290547  -0.000070
 813  17   2.726138   0.394270   4.509881  -0.000001   0.234816  -0.000005
 814  17   1.832897   1.017114   4.442294  -0.000218   0.469558  -0.000464
 815  17   1.047062   1.591241   3.949115   0.000167   0.234816   0.000712
 816  12   3.227180   1.849503   4.584902  -0.000483   0.469558  -0.001029
 817  12   2.179447   2.596406   4.234987  -0.000051   0.469558  -0.000109
 818  21  -1.245214   1.945129   3.663700   0.000191   0.060523   0.003158
 819  12   1.451625   3.115869   3.721724   0.000346   0.060523   0.005716
 820  13   2.366537  -0.755806  -4.214779   0.000225   0.333402   0.000675
 821  19   1.260412  -0.898221  -4.303617   0.000046   0.333402   0.000139
 822  29   1.840451  -1.792126  -4.173832  -0.000024   0.333402  -0.000071
 823  19   0.814718   1.321639  -4.606686   0.000537   0.262413   0.002048
 824  19   0.966107   0.194986  -4.778903   0.000133   0.524644   0.000254
 825  13   2.440796   1.091411  -4.604743  -0.000019   0.524644  -0.000036
 826  13   2.587364  -0.046635  -4.677486   0.000085   0.262413   0.000324
 827  29   2.376864  -2.327285  -4.482899   0.000050   0.240080   0.000210
 828  29   3.269745  -2.768160  -4.228576   0.000028   0.479834   0.000059
 829  13   3.466903  -1.030548  -4.482219   0.000223   0.479834   0.000465
 830  13   4.341006  -1.458134  -4.151461   0.000409   0.240080   0.001705
 831  17   3.030106  -1.697661   4.167516   0.000430   0.349438   0.001232
 832  17   3.148498  -0.599814   4.421726   0.000222   0.349438   0.000635
 833  14   4.698105  -1.312199   4.251298  -0.000673   0.699500  -0.000962
 834  27   4.715672  -4.618902   2.791804  -0.000074   0.257834  -0.000286
 835  27   4.083611  -4.172217   3.111890   0.000218   0.257834   0.000844
 836  14   5.472058  -3.266107   3.493337   0.000673   0.515340   0.001307
 837  27   5.112445  -5.833749  -0.485304  -0.000061   0.214463  -0.000284
 838  27   5.399067  -5.703519   0.591293  -0.001263   0.429147  -0.002942
 839  15   6.327299  -5.214179  -0.437870  -0.001337   0.429147  -0.003117
 840  15   6.569823  -5.004066   0.636935  -0.000036   0.214463  -0.000170
 841  29   4.151047  -3.772510  -3.599407   0.000411   0.249934   0.001643
 842  29   4.212689  -4.496695  -3.282148   0.000612   0.249934   0.002447
 843  15   5.729178  -3.741403  -2.843882  -0.000055   0.499454  -0.000110
 844  21  -1.762983  -1.174572   4.201714   0.000420   0.227736   0.001845
 845  21  -1.597561  -0.158770   4.471097  -0.000023   0.455383  -0.000050
 846  21  -1.401434   1.084193   4.137042  -0.000205   0.455383  -0.000450
 847  17  -0.241897  -1.028193   4.315560  -0.000019   0.455383  -0.000041
 848  17  -0.035433   0.255047   4.390948  -0.000196   0.455383  -0.000431
 849  17   0.111323   1.198121   3.920990   0.000099   0.227736   0.000433
 850  22  -3.727703   4.416774   0.692521   0.000193   0.251148   0.000770
 851  22  -3.698670   4.831508  -0.350750  -0.000202   0.502151  -0.000401
 852  22  -3.720017   4.593590  -1.699512   0.000114   0.502151   0.000227
 853  18  -2.171287   4.484883   0.301427  -0.000212   0.502151  -0.000422
 854  18  -2.157335   4.711112  -1.049442  -0.000206   0.502151  -0.000410
 855  18  -2.192072   4.287361  -2.088908   0.000389   0.251148   0.001548
 856  23  -4.117191   1.289995  -4.604500   0.000455   0.247261   0.001842
 857  23  -4.176650   0.219851  -4.799266   0.000010   0.494302   0.000020
 858  23  -4.223678  -1.024546  -4.330421   0.000067   0.494302   0.000135
 859  19  -2.562339   0.808462  -4.756145   0.000249   0.494302   0.000504
 860  19  -2.627300  -0.520067  -4.719523  -0.000011   0.494302  -0.000022
 861  19  -2.654390  -1.438351  -4.134118   0.000280   0.247261   0.001131
 862  29  -0.309807  -3.465370  -4.020789   0.000384   0.233620   0.001642
 863  29   0.518444  -2.990412  -4.499584  -0.000193   0.467105  -0.000414
 864  29   1.415888  -2.415669  -4.570965  -0.000095   0.233620  -0.000407
 865  19  -0.824260  -2.031587  -4.395950  -0.000008   0.467105  -0.000018
 866  19   0.252783  -1.376445  -4.739327  -0.000250   0.467105  -0.000535
 867  24  -6.779609  -3.718224  -0.836070   0.000028   0.254796   0.000111
 868  24  -6.732223  -4.136712   0.247084  -0.000581   0.509563  -0.001140
 869  24  -6.616538  -3.854140   1.628718  -0.000144   0.509563  -0.000283
 870  20  -5.265182  -4.008807  -0.537902  -0.000380   0.509563  -0.000747
 871  20  -5.181832  -4.219647   0.858788  -0.000404   0.509563  -0.000794
 872  20  -5.075978  -3.745932   1.914718   0.000336   0.254796   0.001318
 873  28  -2.006936  -4.827995   2.106789  -0.000715   0.237814  -0.003008
 874  28  -2.387349  -5.411088   1.025543  -0.002516   0.476467  -0.005280
 875  28  -2.362480  -5.361676  -0.532303  -0.001773   0.476467  -0.003721
 876  20  -3.206100  -4.410849   1.716565  -0.001486   0.476467  -0.003119
 877  20  -3.490816  -4.842674   0.246052  -0.002169   0.476467  -0.004552
 878  20  -3.309552  -4.552663  -0.993642  -0.000503   0.237814  -0.002115
 879  25  -6.291906  -0.497853   4.451270   0.000333   0.248048   0.001343
 880  25  -6.185770   0.609392   4.618844  -0.000391   0.495995  -0.000789
 881  25  -6.103465   1.869327   4.081776  -0.000349   0.495995  -0.000704
 882  21  -4.736414  -0.212682   4.464184   0.000055   0.495995   0.000110
 883  21  -4.621055   1.151875   4.378559  -0.000259   0.495995  -0.000522
 884  21  -4.574645   2.070079   3.730421   0.000152   0.248048   0.000612
 =====================================================


   1 warning(s) detected.
     A line exceeding 80 characters begins with "http://cactus.nci.ni".
 There may be a problem in your input file.

              7674369  WORDS OF DYNAMIC MEMORY USED
 EXECUTION OF GAMESS TERMINATED NORMALLY Wed Nov 23 05:14:43 2016
 DDI: 263640 bytes (0.3 MB / 0 MWords) used by master data server.

 ----------------------------------------
 CPU timing information for all processes
 ========================================
 0: 4688.544 + 1.280 = 4689.824
 ----------------------------------------
 ddikick.x: exited gracefully.
