----- GAMESS execution script -----

          ******************************************************
          *         GAMESS VERSION =  5 DEC 2014 (R1)          *
          *             FROM IOWA STATE UNIVERSITY             *
          * M.W.SCHMIDT, K.K.BALDRIDGE, J.A.BOATZ, S.T.ELBERT, *
          *   M.S.GORDON, J.H.JENSEN, S.KOSEKI, N.MATSUNAGA,   *
          *          K.A.NGUYEN, S.J.SU, T.L.WINDUS,           *
          *       TOGETHER WITH M.DUPUIS, J.A.MONTGOMERY       *
          *         J.COMPUT.CHEM.  14, 1347-1363(1993)        *
          **************** 64 BIT LINUX VERSION ****************

 EXECUTION OF GAMESS BEGUN Wed Nov 23 03:46:28 2016

            ECHO OF THE FIRST FEW INPUT CARDS -
 INPUT CARD>! SELECT RESTRICTED HARTREE-FOCK AS DEFAULT                                     
 INPUT CARD>$contrl scftyp=rhf $end                                                         
 INPUT CARD>                                                                                
 INPUT CARD>! THEORY: HF OR DFT                                                             
 INPUT CARD> $contrl mplevl=0 $end                                                          
 INPUT CARD>                                                                                
 INPUT CARD> $system timlim=10000 mwords=20 $end                                            
 INPUT CARD> $SCF DIRSCF=.TRUE. $end                                                        
 INPUT CARD>                                                                                
 INPUT CARD>                                                                                
 INPUT CARD>! BASIS SETS                                                                    
 INPUT CARD>! 6-311G(d,p)                                                                   
 INPUT CARD> $BASIS GBASIS=N311 NGAUSS=6 NDFUNC=1 NPFUNC=1 $END                             
 INPUT CARD>                                                                                
 INPUT CARD>! One of the following                                                          
 INPUT CARD> $guess guess=HUCKEL $end                                                       
 INPUT CARD>                                                                                
 INPUT CARD> $statpt projct=.FALSE. $end                                                    
 INPUT CARD> $STATPT IFREEZ(1)=1,2,3 $END                                                   
 INPUT CARD>                                                                                
 INPUT CARD>! Optimize the geometry with COSMO effects                                      
 INPUT CARD> $statpt opttol=0.0005 nstep=50 $end                                            
 INPUT CARD> $contrl nzvar=1 $end                                                           
 INPUT CARD> $zmat dlc=.t. auto=.t. $end                                                    
 INPUT CARD> $contrl runtyp=OPTIMIZE maxit=200 $end                                         
 INPUT CARD>                                                                                
 INPUT CARD>! Run COSMO on perfect conductor                                                
 INPUT CARD> $COSGMS PRFCND=.TRUE. $end                                                     
 INPUT CARD>                                                                                
 INPUT CARD>! Specifying RSOLV                                                              
 INPUT CARD> $COSGMS COSRAD = 1.4 $end                                                      
 INPUT CARD>                                                                                
 INPUT CARD>! available memory                                                              
 INPUT CARD> $SYSTEM MWORDS=40 $END                                                         
 INPUT CARD>                                                                                
 INPUT CARD> $DATA                                                                          
 INPUT CARD>Butane, 2,3-dimethyl-, ID: C79298                                               
 INPUT CARD>C1                                                                              
 INPUT CARD>C      6.0      3.2166000000    2.3471000000    1.8851000000                    
 INPUT CARD>C      6.0      3.7822000000    3.7473000000    1.7010000000                    
 INPUT CARD>C      6.0      4.2614000000    1.3207000000    1.4738000000                    
 INPUT CARD>C      6.0      1.9148000000    2.1656000000    1.0806000000                    
 INPUT CARD>C      6.0      1.3491000000    0.7652000000    1.2636000000                    
 INPUT CARD>C      6.0      0.8697000000    3.1917000000    1.4924000000                    
 INPUT CARD>H      1.0      2.9732000000    2.1978000000    2.9658000000                    
 INPUT CARD>H      1.0      3.0141000000    4.5124000000    1.9007000000                    
 INPUT CARD>H      1.0      4.1409000000    3.9089000000    0.6753000000                    
 INPUT CARD>H      1.0      4.6255000000    3.9290000000    2.3786000000                    
 INPUT CARD>H      1.0      4.6196000000    1.4936000000    0.4498000000                    
 INPUT CARD>H      1.0      3.8455000000    0.3002000000    1.5045000000                    
   40000000 WORDS OF MEMORY AVAILABLE

     BASIS OPTIONS
     -------------
     GBASIS=N311         IGAUSS=       6      POLAR=POPN311 
     NDFUNC=       1     NFFUNC=       0     DIFFSP=       F
     NPFUNC=       1      DIFFS=       F     BASNAM=        


     RUN TITLE
     ---------
 Butane, 2,3-dimethyl-, ID: C79298                                               

 THE POINT GROUP OF THE MOLECULE IS C1      
 THE ORDER OF THE PRINCIPAL AXIS IS     0

 ATOM      ATOMIC                      COORDINATES (BOHR)
           CHARGE         X                   Y                   Z
 C           6.0     6.0784926121        4.4353758658        3.5623224595
 C           6.0     7.1473216308        7.0813701938        3.2144239051
 C           6.0     8.0528783241        2.4957611120        2.7850781607
 C           6.0     3.6184473213        4.0923905990        2.0420379023
 C           6.0     2.5494293300        1.4460183258        2.3878577581
 C           6.0     1.6434946915        6.0314384350        2.8202270641
 H           1.0     5.6185333067        4.1532397758        5.6045493344
 H           1.0     5.6958230996        8.5271995470        3.5918021849
 H           1.0     7.8251663426        7.3867499134        1.2761319595
 H           1.0     8.7409275562        7.4247334058        4.4949022344
 H           1.0     8.7297781729        2.8224947353        0.8499987493
 H           1.0     7.2669412858        0.5672957415        2.8430927485
 H           1.0     9.7009083580        2.5530198094        4.0411790247
 H           1.0     4.0787845719        4.3756605246        0.0000000000
 H           1.0     4.0037624502        0.0000000000        2.0206839987
 H           1.0     0.9637602537        1.1001984701        1.0984977167
 H           1.0     1.8602462623        1.1427173048        4.3221812791
 H           1.0     0.9594138840        5.6986576886        4.7515270235
 H           1.0     0.0000000000        5.9802268607        1.5582680495
 H           1.0     2.4316994010        7.9591479151        2.7720390514

          INTERNUCLEAR DISTANCES (ANGS.)




     $CONTRL OPTIONS
     ---------------
 SCFTYP=RHF          RUNTYP=OPTIMIZE     EXETYP=RUN     
 MPLEVL=       0     CITYP =NONE         CCTYP =NONE         VBTYP =NONE    
 DFTTYP=NONE         TDDFT =NONE    
 MULT  =       1     ICHARG=       0     NZVAR =       1     COORD =UNIQUE  
 PP    =NONE         RELWFN=NONE         LOCAL =NONE         NUMGRD=       F
 ISPHER=      -1     NOSYM =       0     MAXIT =     200     UNITS =ANGS    
 PLTORB=       F     MOLPLT=       F     AIMPAC=       F     FRIEND=        
 NPRINT=       7     IREST =       0     GEOM  =INPUT   
 NORMF =       0     NORMP =       0     ITOL  =      20     ICUT  =       9
 INTTYP=BEST         GRDTYP=BEST         QMTTOL= 1.0E-06

     $SYSTEM OPTIONS
     ---------------
  REPLICATED MEMORY=    40000000 WORDS (ON EVERY NODE).
 DISTRIBUTED MEMDDI=           0 MILLION WORDS IN AGGREGATE,
 MEMDDI DISTRIBUTED OVER   1 PROCESSORS IS           0 WORDS/PROCESSOR.
 TOTAL MEMORY REQUESTED ON EACH PROCESSOR=    40000000 WORDS.
 TIMLIM=       10000.00 MINUTES, OR       6.9 DAYS.
 PARALL= F  BALTYP=  DLB     KDIAG=    0  COREFL= F
 MXSEQ2=     300 MXSEQ3=     150  mem10=         0

     $COSGMS OPTIONS
     ---------------
     EPSI  =   INFTY     NSPA  =      92     COSRAD=    1.40
     DISEX =   10.00     OUTCHG=DBLCAV       COSBUG=       F
     COSWRT=       F     DCOSMO=       F

     SYMMETRY COORDINATES WILL NOT BE USED FOR 
     THE COSMO CALCULATION, EVEN IF SPECIFIED:
         -- SWITCHING TO C1 POINT GROUP --


     DEFINITION OF CAVITY
     ---------------------------
     ATOM         COORDINATES           RADIUS 
     1    6.0785    4.4354    3.5623    2.0000
     2    7.1473    7.0814    3.2144    2.0000
     3    8.0529    2.4958    2.7851    2.0000
     4    3.6184    4.0924    2.0420    2.0000
     5    2.5494    1.4460    2.3879    2.0000
     6    1.6435    6.0314    2.8202    2.0000
     7    5.6185    4.1532    5.6045    1.3000
     8    5.6958    8.5272    3.5918    1.3000
     9    7.8252    7.3867    1.2761    1.3000
    10    8.7409    7.4247    4.4949    1.3000
    11    8.7298    2.8225    0.8500    1.3000
    12    7.2669    0.5673    2.8431    1.3000
    13    9.7009    2.5530    4.0412    1.3000
    14    4.0788    4.3757    0.0000    1.3000
    15    4.0038    0.0000    2.0207    1.3000
    16    0.9638    1.1002    1.0985    1.3000
    17    1.8602    1.1427    4.3222    1.3000
    18    0.9594    5.6987    4.7515    1.3000
    19    0.0000    5.9802    1.5583    1.3000
    20    2.4317    7.9591    2.7720    1.3000

          ----------------
          PROPERTIES INPUT
          ----------------

     MOMENTS            FIELD           POTENTIAL          DENSITY
 IEMOM =       1   IEFLD =       0   IEPOT =       0   IEDEN =       0
 WHERE =COMASS     WHERE =NUCLEI     WHERE =NUCLEI     WHERE =NUCLEI  
 OUTPUT=BOTH       OUTPUT=BOTH       OUTPUT=BOTH       OUTPUT=BOTH    
 IEMINT=       0   IEFINT=       0                     IEDINT=       0
                                                       MORB  =       0
          EXTRAPOLATION IN EFFECT
          SOSCF IN EFFECT
 ORBITAL PRINTING OPTION: NPREO=     1   198     2     1

     -------------------------------
     INTEGRAL TRANSFORMATION OPTIONS
     -------------------------------
     NWORD  =            0
     CUTOFF = 1.0E-09     MPTRAN =       0
     DIRTRF =       T     AOINTS =DUP     

          ----------------------
          INTEGRAL INPUT OPTIONS
          ----------------------
 NOPK  =       1 NORDER=       0 SCHWRZ=       T


 -----------------------------------------------
  STATISTICS ON AUTOMATIC COORDINATE GENERATION 
 -----------------------------------------------
  NUMBER OF USER SPECIFIED BONDS                             0
  NUMBER OF BONDS                                           19
  NUMBER OF ANGLES                                          36
  NUMBER OF TORSIONS                                        45
  NUMBER OF EXTRA COORD.                                     0
  NUMBER OF EXTRA COORD. FOR CONSTRAINTS                     0
  NUMBER OF CONSTRAINED COORD.                               0

  TOTAL NUMBER OF PRIMITIVES                               100
 -----------------------------------------------

   --- ENCODED Z MATRIX ---
 COORD  TYPE   I   J   K   L   M   N
    1      1    1   3
    2      1    1   4
    3      1    1   2
    4      1    1   7
    5      1    2   8
    6      1    2  10
    7      1    2   9
    8      1    3  13
    9      1    3  12
   10      1    3  11
   11      1    4  14
   12      1    4   6
   13      1    4   5
   14      1    5  16
   15      1    5  15
   16      1    5  17
   17      1    6  20
   18      1    6  19
   19      1    6  18
   20      2    1   4   6
   21      2    1   3  11
   22      2    1   3  12
   23      2    1   2   8
   24      2    1   2  10
   25      2    1   4  14
   26      2    1   4   5
   27      2    1   3  13
   28      2    1   2   9
   29      2    2   1   7
   30      2    2   1   4
   31      2    2   1   3
   32      2    3   1   4
   33      2    3   1   7
   34      2    4   5  17
   35      2    4   5  15
   36      2    4   5  16
   37      2    4   6  19
   38      2    4   6  20
   39      2    4   1   7
   40      2    4   6  18
   41      2    5   4   6
   42      2    5   4  14
   43      2    6   4  14
   44      2    8   2   9
   45      2    8   2  10
   46      2    9   2  10
   47      2   11   3  12
   48      2   11   3  13
   49      2   12   3  13
   50      2   15   5  16
   51      2   15   5  17
   52      2   16   5  17
   53      2   18   6  19
   54      2   18   6  20
   55      2   19   6  20
   56      3    1   4   5  17
   57      3    1   4   5  15
   58      3    1   4   5  16
   59      3    1   4   6  18
   60      3    1   4   6  19
   61      3    1   4   6  20
   62      3    2   1   3  13
   63      3    2   1   4   5
   64      3    2   1   3  12
   65      3    2   1   4  14
   66      3    2   1   4   6
   67      3    2   1   3  11
   68      3    3   1   2   9
   69      3    3   1   2   8
   70      3    3   1   4   5
   71      3    3   1   4  14
   72      3    3   1   4   6
   73      3    3   1   2  10
   74      3    4   1   2   8
   75      3    4   1   3  13
   76      3    4   1   3  11
   77      3    4   1   3  12
   78      3    4   1   2  10
   79      3    4   1   2   9
   80      3    5   4   1   7
   81      3    5   4   6  18
   82      3    5   4   6  20
   83      3    5   4   6  19
   84      3    6   4   5  15
   85      3    6   4   5  17
   86      3    6   4   1   7
   87      3    6   4   5  16
   88      3    7   1   2   8
   89      3    7   1   3  13
   90      3    7   1   3  12
   91      3    7   1   4  14
   92      3    7   1   3  11
   93      3    7   1   2  10
   94      3    7   1   2   9
   95      3   14   4   5  15
   96      3   14   4   5  17
   97      3   14   4   6  18
   98      3   14   4   6  20
   99      3   14   4   6  19
  100      3   14   4   5  16

          INDEP./SYM. INTERNAL COORDINATES
          --------------------------------
 CRD  1=   0.3711 ( 20) -0.3712 ( 26) -0.1291 ( 29)  0.3711 ( 30) -0.3712 ( 32)
           0.1291 ( 33)  0.1291 ( 42) -0.1291 ( 43)  0.1481 ( 57)  0.1273 ( 58)
           0.1274 ( 60)  0.1481 ( 61) -0.1212 ( 67) -0.1212 ( 68)  0.1482 ( 74)
           0.1272 ( 75)  0.1481 ( 77)  0.1272 ( 78) -0.1213 ( 81) -0.1212 ( 85)
 CRD  2=  -0.3661 (  2) -0.1969 ( 20) -0.1140 ( 22) -0.1140 ( 23)  0.1291 ( 25)
          -0.1968 ( 26) -0.1968 ( 30)  0.3859 ( 31) -0.1967 ( 32) -0.1142 ( 35)
          -0.1142 ( 38)  0.1291 ( 39)  0.3860 ( 41)  0.1029 ( 62)  0.1096 ( 65)
           0.2193 ( 66) -0.2193 ( 70) -0.1096 ( 71) -0.1028 ( 73) -0.1097 ( 80)
          -0.1030 ( 83)  0.1096 ( 86)  0.1030 ( 87)
 CRD  3=   0.1396 (  1)  0.1392 (  3) -0.1393 ( 12) -0.1396 ( 13)  0.1997 ( 20)
           0.1466 ( 24) -0.1843 ( 25)  0.1992 ( 26)  0.1464 ( 27) -0.1997 ( 30)
           0.3628 ( 31) -0.1992 ( 32)  0.1001 ( 35) -0.1459 ( 36) -0.1460 ( 37)
           0.1002 ( 38)  0.1843 ( 39) -0.3628 ( 41)  0.1162 ( 56) -0.1161 ( 59)
           0.1860 ( 63) -0.1860 ( 72) -0.1163 ( 76)  0.1162 ( 79)
 CRD  4=  -0.2769 (  1)  0.2772 (  3) -0.2764 ( 12)  0.2761 ( 13) -0.2723 ( 20)
          -0.1262 ( 22)  0.1259 ( 23)  0.2725 ( 26) -0.1152 ( 29)  0.2723 ( 30)
          -0.2725 ( 32)  0.1150 ( 33)  0.1254 ( 35) -0.1252 ( 38) -0.1158 ( 42)
           0.1160 ( 43) -0.1054 ( 67) -0.1053 ( 68)  0.1054 ( 81)  0.1054 ( 85)
 CRD  5=  -0.1223 (  1)  0.1223 (  3)  0.1241 ( 12) -0.1242 ( 13)  0.1344 ( 21)
          -0.1677 ( 22)  0.1679 ( 23) -0.1343 ( 28)  0.1178 ( 29) -0.1178 ( 33)
           0.1341 ( 34) -0.1681 ( 35)  0.1681 ( 38) -0.1342 ( 40) -0.1170 ( 42)
           0.1171 ( 43) -0.3280 ( 63) -0.1817 ( 65) -0.3281 ( 66) -0.3279 ( 70)
          -0.1817 ( 71) -0.3280 ( 72) -0.1817 ( 80) -0.1818 ( 86)
 CRD  6=   0.3358 (  1)  0.4006 (  2)  0.3358 (  3)  0.3355 ( 12)  0.3355 ( 13)
           0.1684 ( 21)  0.1683 ( 28)  0.1199 ( 31)  0.1681 ( 34)  0.1681 ( 40)
           0.1197 ( 41) -0.1092 ( 46) -0.1091 ( 48) -0.1090 ( 52) -0.1090 ( 53)
           0.1357 ( 66) -0.1358 ( 70)
 CRD  7=   0.1625 (  1)  0.1621 (  3) -0.1627 ( 12) -0.1631 ( 13)  0.2606 ( 21)
          -0.1051 ( 24)  0.1437 ( 25) -0.1054 ( 27)  0.2606 ( 28) -0.2607 ( 34)
           0.1058 ( 36)  0.1059 ( 37) -0.1438 ( 39) -0.2605 ( 40) -0.1452 ( 56)
          -0.1005 ( 57) -0.1793 ( 58)  0.1452 ( 59)  0.1794 ( 60)  0.1006 ( 61)
           0.1944 ( 63) -0.1944 ( 72) -0.1007 ( 74)  0.1794 ( 75)  0.1450 ( 76)
           0.1006 ( 77) -0.1795 ( 78) -0.1449 ( 79) -0.1002 ( 82)  0.1002 ( 84)
 CRD  8=   0.1739 (  1) -0.1712 (  2)  0.1740 (  3)  0.1737 ( 12)  0.1737 ( 13)
          -0.2281 ( 21)  0.1638 ( 22)  0.1642 ( 23)  0.2071 ( 24)  0.2074 ( 27)
          -0.2281 ( 28) -0.2279 ( 34)  0.1627 ( 35)  0.2082 ( 36)  0.2084 ( 37)
           0.1624 ( 38) -0.2279 ( 40) -0.1385 ( 45) -0.1385 ( 49) -0.1383 ( 50)
          -0.1383 ( 55)  0.1575 ( 64)  0.1034 ( 67) -0.1035 ( 68) -0.1575 ( 69)
          -0.1031 ( 81) -0.1575 ( 82)  0.1575 ( 84)  0.1032 ( 85)
 CRD  9=   0.2961 (  1)  0.2961 (  3) -0.2961 ( 12) -0.2960 ( 13) -0.1182 ( 21)
           0.2928 ( 22)  0.2930 ( 23) -0.1179 ( 28)  0.1191 ( 34) -0.2924 ( 35)
          -0.2923 ( 38)  0.1190 ( 40) -0.1614 ( 45) -0.1615 ( 49)  0.1618 ( 50)
           0.1618 ( 55)
 CRD 10=  -0.1163 (  1)  0.4788 (  2) -0.1165 (  3) -0.1171 ( 12) -0.1162 ( 13)
          -0.1535 ( 21) -0.1985 ( 22) -0.1980 ( 23)  0.2491 ( 24)  0.2488 ( 27)
          -0.1545 ( 28) -0.1524 ( 34) -0.1997 ( 35)  0.2490 ( 36)  0.2482 ( 37)
          -0.1994 ( 38) -0.1525 ( 40)  0.1592 ( 44)  0.1590 ( 47)  0.1591 ( 51)
           0.1591 ( 54)
 CRD 11=  -0.2129 (  1)  0.2132 (  3) -0.2129 ( 12)  0.2131 ( 13)  0.3249 ( 24)
          -0.3255 ( 27)  0.1144 ( 29) -0.1144 ( 33)  0.3250 ( 36) -0.3252 ( 37)
           0.1144 ( 42) -0.1143 ( 43) -0.1133 ( 45) -0.1137 ( 46)  0.1139 ( 48)
           0.1132 ( 49) -0.1128 ( 50) -0.1142 ( 52)  0.1143 ( 53)  0.1127 ( 55)
           0.1032 ( 67)  0.1032 ( 68) -0.1034 ( 81) -0.1033 ( 85)
 CRD 12=  -0.2371 (  1)  0.2370 (  3)  0.2369 ( 12) -0.2372 ( 13) -0.1800 ( 21)
           0.2108 ( 22) -0.2113 ( 23)  0.2387 ( 24) -0.2378 ( 27)  0.1794 ( 28)
          -0.1807 ( 34)  0.2108 ( 35) -0.2370 ( 36)  0.2372 ( 37) -0.2113 ( 38)
           0.1808 ( 40) -0.1976 ( 46)  0.1974 ( 48)  0.1974 ( 52) -0.1975 ( 53)
 CRD 13=  -0.3156 ( 21)  0.3018 ( 22) -0.3012 ( 23)  0.3160 ( 28)  0.3163 ( 34)
          -0.3015 ( 35)  0.3003 ( 38) -0.3171 ( 40)  0.1117 ( 45) -0.1480 ( 46)
           0.1483 ( 48) -0.1115 ( 49)  0.1117 ( 50) -0.1481 ( 52)  0.1476 ( 53)
          -0.1120 ( 55)
 CRD 14=  -0.1098 ( 21) -0.1716 ( 22) -0.1732 ( 23)  0.2836 ( 24)  0.1846 ( 25)
           0.2832 ( 27) -0.1085 ( 28)  0.1090 ( 34)  0.1725 ( 35) -0.2831 ( 36)
          -0.2837 ( 37)  0.1746 ( 38) -0.1847 ( 39)  0.1071 ( 40)  0.1097 ( 44)
           0.1096 ( 47) -0.1097 ( 51) -0.1097 ( 54) -0.1128 ( 56) -0.1630 ( 57)
          -0.1403 ( 58)  0.1128 ( 59)  0.1406 ( 60)  0.1630 ( 61) -0.1631 ( 74)
           0.1403 ( 75)  0.1130 ( 76)  0.1630 ( 77) -0.1405 ( 78) -0.1131 ( 79)
 CRD 15=  -0.1064 (  7)  0.1062 ( 10)  0.1060 ( 16) -0.1061 ( 19)  0.3044 ( 21)
           0.2734 ( 24) -0.2739 ( 27) -0.3049 ( 28)  0.3039 ( 34) -0.2746 ( 36)
           0.2744 ( 37) -0.3040 ( 40)  0.1526 ( 44) -0.1086 ( 45) -0.1529 ( 47)
           0.1084 ( 49)  0.1083 ( 50) -0.1531 ( 51)  0.1530 ( 54) -0.1083 ( 55)
 CRD 16=  -0.2214 (  2)  0.1729 ( 21) -0.2485 ( 22) -0.2482 ( 23)  0.1052 ( 24)
          -0.1720 ( 25)  0.1045 ( 27)  0.1720 ( 28) -0.1221 ( 31)  0.1736 ( 34)
          -0.2483 ( 35)  0.1036 ( 36)  0.1036 ( 37) -0.2481 ( 38) -0.1718 ( 39)
           0.1734 ( 40) -0.1221 ( 41) -0.1313 ( 46) -0.1314 ( 48) -0.1312 ( 52)
          -0.1310 ( 53)  0.1103 ( 57)  0.1045 ( 58) -0.1045 ( 60) -0.1103 ( 61)
          -0.1103 ( 74)  0.1044 ( 75)  0.1103 ( 77) -0.1043 ( 78)
 CRD 17=  -0.1282 (  1)  0.1283 (  3) -0.1159 (  6)  0.1161 (  8) -0.1284 ( 12)
           0.1283 ( 13) -0.1163 ( 14)  0.1163 ( 18)  0.1545 ( 20) -0.1551 ( 21)
          -0.1599 ( 22)  0.1594 ( 23) -0.1823 ( 24) -0.1545 ( 26)  0.1825 ( 27)
           0.1555 ( 28)  0.1639 ( 29) -0.1544 ( 30)  0.1545 ( 32) -0.1639 ( 33)
           0.1546 ( 34)  0.1606 ( 35) -0.1826 ( 36)  0.1825 ( 37) -0.1606 ( 38)
          -0.1545 ( 40)  0.1639 ( 42) -0.1639 ( 43) -0.1683 ( 44)  0.1684 ( 47)
          -0.1686 ( 51)  0.1686 ( 54)  0.1185 ( 62)  0.1008 ( 64) -0.1102 ( 65)
           0.1030 ( 67)  0.1029 ( 68)  0.1008 ( 69) -0.1102 ( 71)  0.1185 ( 73)
           0.1102 ( 80) -0.1029 ( 81) -0.1008 ( 82) -0.1185 ( 83) -0.1008 ( 84)
          -0.1029 ( 85)  0.1102 ( 86) -0.1185 ( 87)
 CRD 18=  -0.1649 (  1)  0.1648 (  3)  0.1648 ( 12) -0.1649 ( 13) -0.2154 ( 22)
           0.2155 ( 23) -0.2154 ( 35)  0.2155 ( 38) -0.1257 ( 44) -0.1129 ( 45)
           0.1256 ( 47)  0.1129 ( 49)  0.1132 ( 50)  0.1254 ( 51) -0.1253 ( 54)
          -0.1132 ( 55)  0.1015 ( 62)  0.1103 ( 63)  0.1009 ( 64)  0.1938 ( 65)
           0.1103 ( 66)  0.1103 ( 67)  0.1104 ( 68)  0.1009 ( 69)  0.1103 ( 70)
           0.1937 ( 71)  0.1103 ( 72)  0.1015 ( 73)  0.1937 ( 80)  0.1104 ( 81)
           0.1010 ( 82)  0.1015 ( 83)  0.1010 ( 84)  0.1103 ( 85)  0.1937 ( 86)
           0.1015 ( 87)  0.2771 ( 91)
 CRD 19=   0.4115 (  4) -0.1129 (  5) -0.1128 (  9) -0.4114 ( 11)  0.1125 ( 15)
           0.1125 ( 17)  0.1975 ( 21)  0.1973 ( 28) -0.1535 ( 31) -0.1978 ( 34)
          -0.1978 ( 40)  0.1535 ( 41) -0.1457 ( 46) -0.1455 ( 48)  0.1452 ( 52)
           0.1452 ( 53) -0.1786 ( 63)  0.1786 ( 72)
 CRD 20=  -0.1994 (  7)  0.1993 ( 10)  0.1992 ( 16) -0.1992 ( 19) -0.1523 ( 22)
           0.1524 ( 23) -0.1521 ( 35)  0.1521 ( 38) -0.1429 ( 45)  0.1428 ( 49)
           0.1428 ( 50) -0.1429 ( 55) -0.1336 ( 56) -0.1201 ( 57) -0.1454 ( 58)
          -0.1337 ( 59) -0.1455 ( 60) -0.1202 ( 61) -0.1366 ( 62) -0.1113 ( 64)
          -0.1247 ( 67) -0.1246 ( 68) -0.1112 ( 69) -0.1365 ( 73) -0.1203 ( 74)
          -0.1455 ( 75) -0.1337 ( 76) -0.1202 ( 77) -0.1456 ( 78) -0.1337 ( 79)
          -0.1246 ( 81) -0.1111 ( 82) -0.1364 ( 83) -0.1112 ( 84) -0.1247 ( 85)
          -0.1365 ( 87) -0.1091 ( 89) -0.1092 ( 93) -0.1090 ( 99) -0.1090 (100)
 CRD 21=  -0.5458 (  4)  0.1485 (  5)  0.1608 (  6)  0.1602 (  8)  0.1477 (  9)
          -0.5465 ( 11)  0.1600 ( 14)  0.1470 ( 15)  0.1470 ( 17)  0.1601 ( 18)
          -0.1003 ( 21) -0.1006 ( 28) -0.1001 ( 34) -0.1001 ( 40)
 CRD 22=  -0.2322 (  5) -0.2250 (  6) -0.2620 (  7)  0.2264 (  8)  0.2340 (  9)
           0.2637 ( 10) -0.2262 ( 14) -0.2342 ( 15) -0.2640 ( 16)  0.2324 ( 17)
           0.2249 ( 18)  0.2619 ( 19) -0.1043 ( 22)  0.1038 ( 23)  0.1044 ( 35)
          -0.1038 ( 38) -0.1005 ( 44) -0.1083 ( 45)  0.1011 ( 47)  0.1090 ( 49)
          -0.1092 ( 50) -0.1011 ( 51)  0.1007 ( 54)  0.1082 ( 55)
 CRD 23=  -0.1790 (  4) -0.2381 (  5) -0.1894 (  6) -0.2638 (  7) -0.1877 (  8)
          -0.2365 (  9) -0.2618 ( 10)  0.1773 ( 11)  0.1884 ( 14)  0.2375 ( 15)
           0.2623 ( 16)  0.2392 ( 17)  0.1900 ( 18)  0.2642 ( 19)  0.1244 ( 24)
           0.1237 ( 27) -0.1239 ( 36) -0.1246 ( 37) -0.1121 ( 45) -0.1073 ( 46)
          -0.1067 ( 48) -0.1113 ( 49)  0.1114 ( 50)  0.1072 ( 52)  0.1079 ( 53)
           0.1121 ( 55)
 CRD 24=   0.3117 (  4)  0.2087 (  5)  0.1821 (  6)  0.2561 (  7)  0.1825 (  8)
           0.2092 (  9)  0.2565 ( 10)  0.3115 ( 11)  0.1818 ( 14)  0.2088 ( 15)
           0.2559 ( 16)  0.2089 ( 17)  0.1818 ( 18)  0.2560 ( 19) -0.1107 ( 24)
          -0.1109 ( 27) -0.1107 ( 36) -0.1108 ( 37)  0.1079 ( 45)  0.1080 ( 49)
           0.1077 ( 50)  0.1077 ( 55)
 CRD 25=  -0.1701 (  1)  0.1701 (  3)  0.2509 (  5)  0.2642 (  6)  0.1706 (  7)
          -0.2644 (  8) -0.2509 (  9) -0.1705 ( 10)  0.1700 ( 12) -0.1700 ( 13)
          -0.2644 ( 14) -0.2505 ( 15) -0.1705 ( 16)  0.2505 ( 17)  0.2644 ( 18)
           0.1706 ( 19)
 CRD 26=  -0.1038 (  1) -0.1039 (  3)  0.2057 (  4) -0.1997 (  6) -0.1995 (  8)
          -0.2056 ( 11)  0.1039 ( 12)  0.1039 ( 13)  0.1995 ( 14)  0.1996 ( 18)
           0.1007 ( 31) -0.1008 ( 41) -0.1193 ( 57) -0.1114 ( 58)  0.1114 ( 60)
           0.1192 ( 61)  0.1630 ( 62)  0.1711 ( 64)  0.1328 ( 67) -0.1327 ( 68)
          -0.1710 ( 69) -0.1629 ( 73) -0.1193 ( 74)  0.1113 ( 75)  0.1194 ( 77)
          -0.1112 ( 78)  0.1327 ( 81)  0.1710 ( 82)  0.1631 ( 83) -0.1710 ( 84)
          -0.1326 ( 85) -0.1631 ( 87) -0.1145 ( 88)  0.1065 ( 89)  0.1146 ( 90)
          -0.1063 ( 93) -0.1145 ( 95)  0.1144 ( 98)  0.1066 ( 99) -0.1066 (100)
 CRD 27=   0.1815 (  6) -0.1817 (  8)  0.1823 ( 14) -0.1819 ( 18)  0.1278 ( 56)
           0.1675 ( 57)  0.1631 ( 58)  0.1280 ( 59)  0.1632 ( 60)  0.1675 ( 61)
          -0.1138 ( 62) -0.1182 ( 64) -0.1184 ( 69) -0.1139 ( 73) -0.1675 ( 74)
          -0.1629 ( 75) -0.1280 ( 76) -0.1673 ( 77) -0.1630 ( 78) -0.1281 ( 79)
           0.1183 ( 82)  0.1141 ( 83)  0.1184 ( 84)  0.1140 ( 87) -0.1759 ( 88)
          -0.1713 ( 89) -0.1758 ( 90) -0.1364 ( 92) -0.1714 ( 93) -0.1365 ( 94)
           0.1759 ( 95)  0.1363 ( 96)  0.1364 ( 97)  0.1759 ( 98)  0.1716 ( 99)
           0.1716 (100)
 CRD 28=   0.2407 (  5) -0.3055 (  7) -0.2367 (  9)  0.3034 ( 10)  0.2354 ( 15)
          -0.3051 ( 16) -0.2323 ( 17)  0.3012 ( 19)  0.1608 ( 45) -0.1180 ( 46)
           0.1159 ( 48) -0.1597 ( 49)  0.1606 ( 50) -0.1153 ( 52)  0.1136 ( 53)
          -0.1585 ( 55) -0.1039 ( 58) -0.1024 ( 60)  0.1094 ( 62)  0.1107 ( 73)
           0.1036 ( 75)  0.1049 ( 78) -0.1083 ( 83) -0.1096 ( 87)  0.1004 ( 89)
           0.1016 ( 93) -0.1007 (100)
 CRD 29=   0.2973 (  5) -0.2477 (  7)  0.3005 (  9) -0.2514 ( 10)  0.2908 ( 15)
          -0.2458 ( 16)  0.2923 ( 17) -0.2497 ( 19)  0.1311 ( 45) -0.1607 ( 46)
          -0.1622 ( 48)  0.1331 ( 49)  0.1301 ( 50) -0.1574 ( 52) -0.1581 ( 53)
           0.1323 ( 55) -0.1155 ( 58)  0.1167 ( 60) -0.1125 ( 62)  0.1111 ( 73)
          -0.1185 ( 75)  0.1171 ( 78)  0.1108 ( 83) -0.1095 ( 87) -0.1153 ( 89)
           0.1140 ( 93)  0.1138 ( 99) -0.1127 (100)
 CRD 30=  -0.3254 (  5)  0.1232 (  6)  0.1887 (  7) -0.1230 (  8)  0.3211 (  9)
          -0.1844 ( 10) -0.1193 ( 14)  0.3248 ( 15) -0.1926 ( 16) -0.3195 ( 17)
           0.1138 ( 18)  0.1924 ( 19) -0.1021 ( 45)  0.1682 ( 46) -0.1660 ( 48)
           0.1041 ( 50) -0.1679 ( 52)  0.1653 ( 53) -0.1040 ( 55) -0.1009 ( 58)
          -0.1000 ( 60)
 CRD 31=   0.2908 (  5) -0.3128 (  6) -0.3116 (  8)  0.2963 (  9)  0.2364 ( 14)
          -0.2695 ( 15) -0.2703 ( 17)  0.2320 ( 18)  0.1601 ( 44) -0.1489 ( 46)
           0.1595 ( 47) -0.1518 ( 48) -0.1185 ( 51)  0.1378 ( 52)  0.1384 ( 53)
          -0.1160 ( 54)  0.1074 ( 67) -0.1066 ( 68)  0.1140 ( 76) -0.1130 ( 79)
           0.1254 ( 92) -0.1242 ( 94) -0.1047 ( 96)  0.1034 ( 97)
 CRD 32=  -0.2350 (  6)  0.2241 (  7)  0.3247 (  8) -0.2739 ( 10)  0.3347 ( 14)
          -0.2839 ( 16) -0.2162 ( 18)  0.2080 ( 19)  0.1289 ( 44) -0.1276 ( 45)
          -0.1777 ( 47)  0.1560 ( 49)  0.1618 ( 50) -0.1835 ( 51)  0.1183 ( 54)
          -0.1186 ( 55)  0.1073 ( 57)  0.1021 ( 77)  0.1055 ( 84)  0.1035 ( 90)
           0.1087 ( 95)
 CRD 33=  -0.3172 (  6)  0.2211 (  7) -0.2201 (  8)  0.1384 ( 10) -0.2965 ( 14)
           0.1417 ( 15)  0.1450 ( 16)  0.1626 ( 17) -0.3903 ( 18)  0.2264 ( 19)
           0.1748 ( 44) -0.1257 ( 45)  0.1216 ( 47)  0.1612 ( 51)  0.2125 ( 54)
          -0.1292 ( 55) -0.1060 ( 59)  0.1238 ( 61)  0.1240 ( 69)  0.1083 ( 74)
           0.1414 ( 82) -0.1139 ( 84)  0.1040 ( 88) -0.1127 ( 97)  0.1172 ( 98)
 CRD 34=  -0.1423 (  5) -0.1573 (  6)  0.3109 (  7) -0.1685 (  8) -0.1399 (  9)
           0.3211 ( 10)  0.1454 ( 14)  0.1464 ( 15) -0.3036 ( 16)  0.1489 ( 17)
           0.1535 ( 18) -0.3145 ( 19)  0.1012 ( 44) -0.1738 ( 45)  0.1074 ( 47)
          -0.1796 ( 49)  0.1697 ( 50)  0.1757 ( 55)  0.1021 ( 57) -0.1056 ( 61)
          -0.1332 ( 64)  0.1300 ( 69)  0.1066 ( 74) -0.1098 ( 77) -0.1281 ( 82)
           0.1249 ( 84)  0.1107 ( 88) -0.1141 ( 90)  0.1065 ( 95) -0.1102 ( 98)
 CRD 35=  -0.2332 (  5)  0.2675 (  6) -0.2652 (  8)  0.2331 (  9)  0.2709 ( 14)
          -0.2389 ( 15)  0.2411 ( 17) -0.2748 ( 18) -0.1505 ( 44)  0.1115 ( 46)
           0.1492 ( 47) -0.1114 ( 48) -0.1522 ( 51)  0.1142 ( 52) -0.1154 ( 53)
           0.1544 ( 54) -0.1508 ( 56) -0.1519 ( 59)  0.1400 ( 67)  0.1404 ( 68)
           0.1483 ( 76)  0.1487 ( 79) -0.1437 ( 81) -0.1428 ( 85)  0.1557 ( 92)
           0.1562 ( 94) -0.1583 ( 96) -0.1595 ( 97)
 CRD 36=  -0.3310 (  2)  0.1059 (  4)  0.1101 (  6)  0.1101 (  8)  0.1061 ( 11)
           0.1102 ( 14)  0.1101 ( 18) -0.1001 ( 56) -0.1300 ( 57)  0.1001 ( 59)
           0.1301 ( 61) -0.1231 ( 62) -0.1565 ( 64) -0.1265 ( 67)  0.1265 ( 68)
           0.1565 ( 69)  0.1230 ( 73)  0.1300 ( 74) -0.1001 ( 76) -0.1301 ( 77)
           0.1001 ( 79)  0.1264 ( 81)  0.1565 ( 82)  0.1231 ( 83) -0.1564 ( 84)
          -0.1264 ( 85) -0.1231 ( 87)  0.1924 ( 88) -0.1590 ( 89) -0.1924 ( 90)
          -0.1624 ( 92)  0.1589 ( 93)  0.1624 ( 94) -0.1923 ( 95) -0.1623 ( 96)
           0.1623 ( 97)  0.1924 ( 98)  0.1590 ( 99) -0.1590 (100)
 CRD 37=  -0.3885 (  4)  0.2198 (  7)  0.2198 ( 10)  0.3884 ( 11) -0.2197 ( 16)
          -0.2198 ( 19)  0.1333 ( 21)  0.1334 ( 28) -0.1332 ( 34) -0.1333 ( 40)
          -0.1388 ( 44) -0.1466 ( 46) -0.1388 ( 47) -0.1463 ( 48)  0.1390 ( 51)
           0.1459 ( 52)  0.1459 ( 53)  0.1392 ( 54) -0.1017 ( 63)  0.1108 ( 64)
          -0.1108 ( 69)  0.1017 ( 72)  0.1109 ( 82) -0.1109 ( 84) -0.1136 ( 88)
           0.1137 ( 90) -0.1137 ( 95)  0.1136 ( 98)
 CRD 38=  -0.1419 (  1)  0.1421 (  3) -0.1571 (  5) -0.1173 (  6) -0.1158 (  7)
           0.1173 (  8)  0.1571 (  9)  0.1158 ( 10)  0.1416 ( 12) -0.1416 ( 13)
           0.1170 ( 14)  0.1567 ( 15)  0.1155 ( 16) -0.1567 ( 17) -0.1171 ( 18)
          -0.1155 ( 19)  0.1173 ( 21)  0.1379 ( 22) -0.1380 ( 23) -0.1202 ( 24)
           0.1202 ( 27) -0.1174 ( 28)  0.1246 ( 29) -0.1246 ( 33)  0.1170 ( 34)
           0.1376 ( 35)  0.1200 ( 36) -0.1200 ( 37) -0.1377 ( 38) -0.1170 ( 40)
          -0.1244 ( 42)  0.1244 ( 43)  0.1415 ( 44)  0.1453 ( 45)  0.1137 ( 46)
          -0.1415 ( 47) -0.1137 ( 48) -0.1453 ( 49) -0.1449 ( 50) -0.1411 ( 51)
          -0.1135 ( 52)  0.1135 ( 53)  0.1411 ( 54)  0.1450 ( 55)  0.1298 ( 65)
           0.1298 ( 71)  0.1300 ( 80)  0.1300 ( 86)  0.2861 ( 91)
 CRD 39=  -0.1804 (  1)  0.1804 (  3) -0.1838 (  5) -0.1277 (  6) -0.1067 (  7)
           0.1279 (  8)  0.1838 (  9)  0.1068 ( 10) -0.1805 ( 12)  0.1807 ( 13)
          -0.1283 ( 14) -0.1841 ( 15) -0.1070 ( 16)  0.1840 ( 17)  0.1281 ( 18)
           0.1067 ( 19)  0.1372 ( 21)  0.1371 ( 22) -0.1371 ( 23) -0.1322 ( 24)
           0.1323 ( 27) -0.1372 ( 28) -0.1376 ( 34) -0.1375 ( 35) -0.1326 ( 36)
           0.1324 ( 37)  0.1374 ( 38)  0.1373 ( 40)  0.1517 ( 44)  0.1735 ( 45)
           0.1084 ( 46) -0.1517 ( 47) -0.1085 ( 48) -0.1736 ( 49)  0.1740 ( 50)
           0.1520 ( 51)  0.1089 ( 52) -0.1086 ( 53) -0.1517 ( 54) -0.1739 ( 55)
          -0.1191 ( 65) -0.1191 ( 71)  0.1188 ( 80)  0.1188 ( 86)
 CRD 40=  -0.2233 (  1) -0.2232 (  3)  0.1062 (  5)  0.1531 (  6)  0.1579 (  7)
           0.1532 (  8)  0.1063 (  9)  0.1581 ( 10) -0.2233 ( 12) -0.2232 ( 13)
           0.1530 ( 14)  0.1063 ( 15)  0.1583 ( 16)  0.1063 ( 17)  0.1530 ( 18)
           0.1584 ( 19)  0.1390 ( 21)  0.1309 ( 22)  0.1308 ( 23)  0.1415 ( 24)
           0.1416 ( 27)  0.1389 ( 28)  0.1391 ( 34)  0.1309 ( 35)  0.1416 ( 36)
           0.1416 ( 37)  0.1310 ( 38)  0.1391 ( 40) -0.1338 ( 44) -0.1331 ( 45)
          -0.1714 ( 46) -0.1340 ( 47) -0.1714 ( 48) -0.1331 ( 49) -0.1329 ( 50)
          -0.1341 ( 51) -0.1716 ( 52) -0.1716 ( 53) -0.1342 ( 54) -0.1330 ( 55)
 CRD 41=   0.1683 (  1)  0.1684 (  3) -0.2587 (  4) -0.2049 (  6) -0.2050 (  8)
           0.2587 ( 11) -0.1683 ( 12) -0.1681 ( 13)  0.2052 ( 14)  0.2052 ( 18)
          -0.1091 ( 24)  0.1045 ( 25) -0.1091 ( 27)  0.1091 ( 36)  0.1092 ( 37)
          -0.1045 ( 39)  0.1772 ( 45)  0.1770 ( 49) -0.1767 ( 50) -0.1768 ( 55)
           0.1100 ( 64) -0.1100 ( 69)  0.1100 ( 82) -0.1100 ( 84) -0.1366 ( 89)
          -0.1419 ( 92)  0.1368 ( 93)  0.1418 ( 94)  0.1422 ( 96) -0.1421 ( 97)
          -0.1364 ( 99)  0.1365 (100)
 CRD 42=  -0.2219 (  1) -0.2218 (  3)  0.1882 (  5)  0.1883 (  9)  0.2219 ( 12)
           0.2218 ( 13) -0.1884 ( 15) -0.1884 ( 17)  0.1529 ( 25) -0.1530 ( 39)
          -0.1455 ( 44) -0.1454 ( 47)  0.1448 ( 51)  0.1448 ( 54)  0.1269 ( 88)
          -0.1090 ( 89) -0.1271 ( 90) -0.2346 ( 92)  0.1091 ( 93)  0.2346 ( 94)
           0.1274 ( 95)  0.2341 ( 96) -0.2341 ( 97) -0.1274 ( 98) -0.1084 ( 99)
           0.1084 (100)
 CRD 43=   0.3312 (  2) -0.1892 (  4) -0.1741 (  6)  0.1657 (  7) -0.1743 (  8)
           0.1654 ( 10) -0.1890 ( 11) -0.1748 ( 14)  0.1651 ( 16) -0.1747 ( 18)
           0.1650 ( 19) -0.1414 ( 44)  0.1128 ( 45) -0.1415 ( 47)  0.1127 ( 49)
           0.1122 ( 50) -0.1420 ( 51) -0.1421 ( 54)  0.1120 ( 55) -0.1395 ( 56)
          -0.1227 ( 58)  0.1394 ( 59)  0.1226 ( 60)  0.1164 ( 64) -0.1164 ( 69)
          -0.1232 ( 75) -0.1389 ( 76)  0.1233 ( 78)  0.1387 ( 79) -0.1164 ( 82)
           0.1164 ( 84) -0.1492 ( 89) -0.1650 ( 92)  0.1493 ( 93)  0.1646 ( 94)
          -0.1659 ( 96)  0.1658 ( 97)  0.1490 ( 99) -0.1491 (100)
 CRD 44=  -0.2642 (  1)  0.2640 (  3) -0.1070 (  6) -0.1144 (  7)  0.1066 (  8)
           0.1147 ( 10)  0.2643 ( 12) -0.2645 ( 13)  0.1061 ( 14)  0.1154 ( 16)
          -0.1063 ( 18) -0.1154 ( 19) -0.1351 ( 29)  0.1352 ( 33)  0.1353 ( 42)
          -0.1352 ( 43)  0.1493 ( 46) -0.1492 ( 48) -0.1494 ( 52)  0.1495 ( 53)
          -0.1571 ( 65) -0.1571 ( 71) -0.1569 ( 80) -0.1569 ( 86) -0.3216 ( 91)
           0.1532 ( 92)  0.1536 ( 94)  0.1532 ( 96)  0.1535 ( 97)
 CRD 45=   0.1648 (  1) -0.1647 (  3) -0.1744 (  5)  0.1625 (  7)  0.1742 (  9)
          -0.1627 ( 10)  0.1644 ( 12) -0.1644 ( 13) -0.1740 ( 15)  0.1634 ( 16)
           0.1739 ( 17) -0.1635 ( 19) -0.1842 ( 46)  0.1841 ( 48) -0.1839 ( 52)
           0.1838 ( 53) -0.1656 ( 58) -0.1656 ( 60)  0.1274 ( 62) -0.1091 ( 67)
          -0.1094 ( 68)  0.1274 ( 73)  0.1654 ( 75)  0.1655 ( 78)  0.1086 ( 81)
          -0.1275 ( 83)  0.1087 ( 85) -0.1275 ( 87) -0.1378 ( 92) -0.1380 ( 94)
           0.1372 ( 96)  0.1371 ( 97)
 CRD 46=   0.1174 (  1) -0.1527 (  2)  0.1176 (  3) -0.1037 (  4) -0.2188 (  5)
           0.1121 (  7) -0.2190 (  9)  0.1127 ( 10) -0.1037 ( 11)  0.1176 ( 12)
           0.1175 ( 13) -0.2188 ( 15)  0.1133 ( 16) -0.2187 ( 17)  0.1133 ( 19)
           0.1518 ( 25)  0.1518 ( 39)  0.1209 ( 45) -0.1283 ( 46) -0.1285 ( 48)
           0.1212 ( 49)  0.1217 ( 50) -0.1283 ( 52) -0.1282 ( 53)  0.1218 ( 55)
          -0.1888 ( 58)  0.1887 ( 60) -0.1280 ( 62)  0.1277 ( 73) -0.1886 ( 75)
           0.1883 ( 78)  0.1282 ( 83) -0.1282 ( 87)  0.1635 ( 92) -0.1635 ( 94)
           0.1632 ( 96) -0.1631 ( 97)
 CRD 47=  -0.2068 (  6)  0.1623 (  7)  0.2069 (  8) -0.1620 ( 10) -0.2016 ( 14)
           0.1577 ( 16)  0.2016 ( 18) -0.1576 ( 19)  0.1003 ( 24) -0.1003 ( 27)
          -0.1576 ( 44)  0.1166 ( 45)  0.1577 ( 47) -0.1164 ( 49)  0.1137 ( 50)
          -0.1533 ( 51)  0.1533 ( 54) -0.1137 ( 55)  0.1581 ( 57)  0.1581 ( 61)
          -0.2039 ( 64) -0.2040 ( 69) -0.1624 ( 74)  0.1007 ( 76) -0.1623 ( 77)
           0.1005 ( 79)  0.1986 ( 82)  0.1986 ( 84) -0.1737 ( 88) -0.1736 ( 90)
           0.1683 ( 95)  0.1683 ( 98)
 CRD 48=   0.1977 (  6) -0.1324 (  7) -0.1978 (  8)  0.1321 ( 10) -0.2037 ( 14)
           0.1358 ( 16)  0.2037 ( 18) -0.1357 ( 19) -0.1081 ( 24)  0.1081 ( 27)
           0.1108 ( 36) -0.1108 ( 37)  0.1613 ( 44) -0.1613 ( 47) -0.1657 ( 51)
           0.1658 ( 54) -0.1204 ( 56)  0.1481 ( 57) -0.1204 ( 59)  0.1481 ( 61)
           0.1837 ( 64)  0.1838 ( 69)  0.1440 ( 74) -0.1171 ( 76)  0.1439 ( 77)
          -0.1170 ( 79)  0.1890 ( 82)  0.1890 ( 84)  0.1806 ( 88)  0.1804 ( 90)
           0.1849 ( 95)  0.1849 ( 98)
 CRD 49=  -0.1307 (  1)  0.1306 (  3) -0.1596 (  5)  0.1372 (  7)  0.1592 (  9)
          -0.1371 ( 10)  0.1307 ( 12) -0.1307 ( 13)  0.1590 ( 15) -0.1374 ( 16)
          -0.1589 ( 17)  0.1375 ( 19)  0.1005 ( 21) -0.1005 ( 28) -0.1254 ( 29)
           0.1253 ( 33)  0.1008 ( 34) -0.1009 ( 40)  0.1253 ( 42) -0.1254 ( 43)
           0.1259 ( 45) -0.1258 ( 49) -0.1261 ( 50)  0.1262 ( 55)  0.1065 ( 58)
           0.1066 ( 60)  0.1188 ( 62)  0.1611 ( 63)  0.1611 ( 66)  0.1610 ( 70)
           0.1610 ( 72)  0.1191 ( 73)  0.1066 ( 75)  0.1068 ( 78)  0.1190 ( 83)
           0.1189 ( 87)  0.1967 ( 89) -0.1684 ( 91)  0.1970 ( 93)  0.1968 ( 99)
           0.1968 (100)
 CRD 50=  -0.1003 (  1) -0.1004 (  3) -0.1518 (  5) -0.1519 (  9)  0.1003 ( 12)
           0.1004 ( 13)  0.1517 ( 15)  0.1518 ( 17)  0.1276 ( 22)  0.1275 ( 23)
           0.1809 ( 31) -0.1275 ( 35) -0.1276 ( 38) -0.1809 ( 41) -0.1290 ( 46)
          -0.1291 ( 48)  0.1290 ( 52)  0.1291 ( 53) -0.1383 ( 56)  0.1383 ( 59)
          -0.1107 ( 62)  0.1538 ( 63)  0.1215 ( 67) -0.1215 ( 68) -0.1540 ( 72)
           0.1105 ( 73)  0.1386 ( 76) -0.1386 ( 79)  0.1212 ( 81) -0.1110 ( 83)
          -0.1211 ( 85)  0.1109 ( 87) -0.2225 ( 89)  0.2222 ( 93) -0.2227 ( 99)
           0.2225 (100)
 CRD 51=  -0.1357 (  4)  0.1222 (  6) -0.1262 (  7)  0.1224 (  8) -0.1261 ( 10)
           0.1357 ( 11) -0.1227 ( 14)  0.1258 ( 16) -0.1228 ( 18)  0.1257 ( 19)
           0.1050 ( 21) -0.1075 ( 24) -0.1075 ( 27)  0.1050 ( 28)  0.1139 ( 29)
           0.1141 ( 33) -0.1047 ( 34)  0.1077 ( 36)  0.1078 ( 37) -0.1046 ( 40)
          -0.1141 ( 42) -0.1139 ( 43)  0.1434 ( 57) -0.1432 ( 61)  0.2018 ( 62)
          -0.1216 ( 63)  0.2007 ( 67) -0.2006 ( 68)  0.1216 ( 72) -0.2018 ( 73)
           0.1432 ( 74) -0.1434 ( 77)  0.2014 ( 81)  0.2010 ( 83) -0.2012 ( 85)
          -0.2012 ( 87)  0.1837 ( 88) -0.1837 ( 90)  0.1836 ( 95) -0.1837 ( 98)
 CRD 52=  -0.1016 (  1)  0.3624 (  2) -0.1013 (  3)  0.1074 (  6)  0.1074 (  8)
          -0.1016 ( 12) -0.1013 ( 13)  0.1073 ( 14)  0.1073 ( 18) -0.1454 ( 25)
           0.1279 ( 31) -0.1454 ( 39)  0.1279 ( 41)  0.1342 ( 56) -0.1339 ( 59)
           0.1908 ( 67) -0.1909 ( 68)  0.1338 ( 76) -0.1339 ( 79) -0.1909 ( 81)
           0.1910 ( 85)  0.2013 ( 88) -0.1621 ( 89) -0.2011 ( 90)  0.1621 ( 93)
          -0.2009 ( 95)  0.2007 ( 98)  0.1624 ( 99) -0.1627 (100)
 CRD 53=   0.1925 (  1) -0.1926 (  3)  0.1924 ( 12) -0.1926 ( 13) -0.1520 ( 20)
           0.1520 ( 26)  0.1431 ( 29)  0.1519 ( 30) -0.1521 ( 32) -0.1428 ( 33)
           0.1428 ( 42) -0.1429 ( 43) -0.1487 ( 56) -0.1141 ( 57) -0.1489 ( 59)
          -0.1143 ( 61) -0.2621 ( 65) -0.2620 ( 71)  0.1139 ( 74)  0.1491 ( 76)
           0.1137 ( 77)  0.1490 ( 79)  0.2621 ( 80)  0.2622 ( 86) -0.1570 ( 89)
          -0.1568 ( 93)  0.1571 ( 99)  0.1568 (100)
 CRD 54=  -0.1969 (  4) -0.1969 ( 11)  0.1407 ( 25) -0.1007 ( 31)  0.1407 ( 39)
          -0.1006 ( 41) -0.1483 ( 56) -0.2137 ( 57)  0.1482 ( 59)  0.2136 ( 61)
           0.1630 ( 62) -0.1259 ( 65) -0.2518 ( 66)  0.2519 ( 70)  0.1259 ( 71)
          -0.1630 ( 73)  0.2133 ( 74) -0.1486 ( 76) -0.2135 ( 77)  0.1487 ( 79)
           0.1259 ( 80) -0.1627 ( 83) -0.1260 ( 86)  0.1627 ( 87)

 THE DETERMINANT OF THE G MATRIX IS 10**(   -16)


                     --------------------
                     INTERNAL COORDINATES
                     --------------------

                 - - ATOMS - -         COORDINATE      COORDINATE
 NO.   TYPE    I  J  K  L  M  N        (BOHR,RAD)       (ANG,DEG)
 ----------------------------------------------------------------
   1 STRETCH   1  3                     2.8747892       1.5212730
   2 STRETCH   1  4                     2.9121688       1.5410535
   3 STRETCH   1  2                     2.8748417       1.5213008
   4 STRETCH   1  7                     2.1123101       1.1177864
   5 STRETCH   2  8                     2.0831910       1.1023773
   6 STRETCH   2 10                     2.0729455       1.0969556
   7 STRETCH   2  9                     2.0759831       1.0985630
   8 STRETCH   3 13                     2.0729378       1.0969515
   9 STRETCH   3 12                     2.0832766       1.1024226
  10 STRETCH   3 11                     2.0759289       1.0985343
  11 STRETCH   4 14                     2.1123615       1.1178136
  12 STRETCH   4  6                     2.8750518       1.5214120
  13 STRETCH   4  5                     2.8750091       1.5213894
  14 STRETCH   5 16                     2.0727728       1.0968642
  15 STRETCH   5 15                     2.0834756       1.1025279
  16 STRETCH   5 17                     2.0757101       1.0984185
  17 STRETCH   6 20                     2.0831833       1.1023732
  18 STRETCH   6 19                     2.0727368       1.0968452
  19 STRETCH   6 18                     2.0757238       1.0984258
  20 BEND      1  4  6                  1.9385765     111.0722534
  21 BEND      1  3 11                  1.9495612     111.7016262
  22 BEND      1  3 12                  1.9368481     110.9732220
  23 BEND      1  2  8                  1.9367348     110.9667319
  24 BEND      1  2 10                  1.9428391     111.3164811
  25 BEND      1  4 14                  1.8805038     107.7449329
  26 BEND      1  4  5                  1.9387635     111.0829642
  27 BEND      1  3 13                  1.9428724     111.3183874
  28 BEND      1  2  9                  1.9495631     111.7017359
  29 BEND      2  1  7                  1.8974677     108.7168889
  30 BEND      2  1  4                  1.9383053     111.0567125
  31 BEND      2  1  3                  1.9102062     109.4467515
  32 BEND      3  1  4                  1.9385922     111.0731504
  33 BEND      3  1  7                  1.8973999     108.7130078
  34 BEND      4  5 17                  1.9498559     111.7185156
  35 BEND      4  5 15                  1.9370277     110.9835111
  36 BEND      4  5 16                  1.9424955     111.2967914
  37 BEND      4  6 19                  1.9425125     111.2977665
  38 BEND      4  6 20                  1.9368498     110.9733169
  39 BEND      4  1  7                  1.8807857     107.7610851
  40 BEND      4  6 18                  1.9499091     111.7215615
  41 BEND      5  4  6                  1.9100947     109.4403640
  42 BEND      5  4 14                  1.8973159     108.7081907
  43 BEND      6  4 14                  1.8974913     108.7182452
  44 BEND      8  2  9                  1.8697813     107.1305768
  45 BEND      8  2 10                  1.8847137     107.9861399
  46 BEND      9  2 10                  1.8769137     107.5392331
  47 BEND     11  3 12                  1.8699037     107.1375922
  48 BEND     11  3 13                  1.8768081     107.5331827
  49 BEND     12  3 13                  1.8845433     107.9763747
  50 BEND     15  5 16                  1.8844926     107.9734697
  51 BEND     15  5 17                  1.8698095     107.1321909
  52 BEND     16  5 17                  1.8768520     107.5356985
  53 BEND     18  6 19                  1.8767482     107.5297529
  54 BEND     18  6 20                  1.8698047     107.1319187
  55 BEND     19  6 20                  1.8847166     107.9863048
  56 TORSION   1  4  5 17               1.1903098      68.1997251
  57 TORSION   1  4  5 15              -0.8953065     -51.2972840
  58 TORSION   1  4  5 16              -2.9945879    -171.5772495
  59 TORSION   1  4  6 18              -1.1908329     -68.2296969
  60 TORSION   1  4  6 19               2.9941491     171.5521060
  61 TORSION   1  4  6 20               0.8946928      51.2621193
  62 TORSION   2  1  3 13               1.1376403      65.1819893
  63 TORSION   2  1  4  5               3.1409760     179.9646702
  64 TORSION   2  1  3 12              -3.0460675    -174.5268095
  65 TORSION   2  1  4 14               1.0646146      60.9979211
  66 TORSION   2  1  4  6              -1.0118524     -57.9748731
  67 TORSION   2  1  3 11              -0.9606492     -55.0411456
  68 TORSION   3  1  2  9               0.9626814      55.1575814
  69 TORSION   3  1  2  8               3.0478697     174.6300686
  70 TORSION   3  1  4  5               1.0107847      57.9136960
  71 TORSION   3  1  4 14              -1.0655768     -61.0530531
  72 TORSION   3  1  4  6               3.1411415     179.9741527
  73 TORSION   3  1  2 10              -1.1357212     -65.0720312
  74 TORSION   4  1  2  8               0.9012446      51.6375108
  75 TORSION   4  1  3 13              -2.9990901    -171.8352067
  76 TORSION   4  1  3 11               1.1858056      67.9416583
  77 TORSION   4  1  3 12              -0.8996126     -51.5440056
  78 TORSION   4  1  2 10               3.0008390     171.9354110
  79 TORSION   4  1  2  9              -1.1839437     -67.8349765
  80 TORSION   5  4  1  7              -1.0657542     -61.0632151
  81 TORSION   5  4  6 18               0.9561141      54.7813004
  82 TORSION   5  4  6 20               3.0416397     174.2731166
  83 TORSION   5  4  6 19              -1.1420893     -65.4368967
  84 TORSION   6  4  5 15              -3.0421425    -174.3019265
  85 TORSION   6  4  5 17              -0.9565263     -54.8049174
  86 TORSION   6  4  1  7               1.0646027      60.9972416
  87 TORSION   6  4  5 16               1.1417614      65.4181080
  88 TORSION   7  1  2  8              -1.1651628     -66.7589100
  89 TORSION   7  1  3 13              -0.9325546     -53.4314423
  90 TORSION   7  1  3 12               1.1669229      66.8597589
  91 TORSION   7  1  4 14               3.1410697     179.9700358
  92 TORSION   7  1  3 11              -3.0308441    -173.6545772
  93 TORSION   7  1  2 10               0.9344317      53.5389902
  94 TORSION   7  1  2  9               3.0328343     173.7686027
  95 TORSION  14  4  5 15               1.1709331      67.0895246
  96 TORSION  14  4  5 17              -3.0266360    -173.4134663
  97 TORSION  14  4  6 18               3.0261148     173.3836040
  98 TORSION  14  4  6 20              -1.1715449     -67.1245799
  99 TORSION  14  4  6 19               0.9279114      53.1654068
 100 TORSION  14  4  5 16              -0.9283483     -53.1904409

     ------------------------------------------
     THE POINT GROUP IS C1 , NAXIS= 1, ORDER= 1
     ------------------------------------------

     DIMENSIONS OF THE SYMMETRY SUBSPACES ARE
 A   =  198

 ..... DONE SETTING UP THE RUN .....
 STEP CPU TIME =     0.02 TOTAL CPU TIME =        0.0 (    0.0 MIN)
 TOTAL WALL CLOCK TIME=        0.0 SECONDS, CPU UTILIZATION IS  66.67%


          -----------------------------
          STATIONARY POINT LOCATION RUN
          -----------------------------

 OBTAINING INITIAL HESSIAN, HESS=GUESS   
 DIAGONAL GUESS HESSIAN IN INTERNAL COORDS IS
     1  0.3735     2  0.3594     3  0.3734     4  0.3282     5  0.3381
     6  0.3417     7  0.3406     8  0.3417     9  0.3381    10  0.3407
    11  0.3281    12  0.3734    13  0.3734    14  0.3418    15  0.3380
    16  0.3407    17  0.3381    18  0.3418    19  0.3407    20  0.2483
    21  0.2241    22  0.2239    23  0.2239    24  0.2242    25  0.2218
    26  0.2483    27  0.2242    28  0.2241    29  0.2229    30  0.2483
    31  0.2497    32  0.2483    33  0.2229    34  0.2241    35  0.2238
    36  0.2242    37  0.2242    38  0.2239    39  0.2218    40  0.2241
    41  0.2497    42  0.2229    43  0.2229    44  0.2024    45  0.2024
    46  0.2026    47  0.2024    48  0.2026    49  0.2024    50  0.2024
    51  0.2024    52  0.2026    53  0.2026    54  0.2024    55  0.2024
    56  0.2500    57  0.2500    58  0.2500    59  0.2500    60  0.2500
    61  0.2500    62  0.2500    63  0.2500    64  0.2500    65  0.2500
    66  0.2500    67  0.2500    68  0.2500    69  0.2500    70  0.2500
    71  0.2500    72  0.2500    73  0.2500    74  0.2500    75  0.2500
    76  0.2500    77  0.2500    78  0.2500    79  0.2500    80  0.2500
    81  0.2500    82  0.2500    83  0.2500    84  0.2500    85  0.2500
    86  0.2500    87  0.2500    88  0.2500    89  0.2500    90  0.2500
    91  0.2500    92  0.2500    93  0.2500    94  0.2500    95  0.2500
    96  0.2500    97  0.2500    98  0.2500    99  0.2500   100  0.2500
 TRANSFORMING HESSIAN TO SYMMETRY COORDINATES

          PARAMETERS CONTROLLING GEOMETRY SEARCH ARE
          METHOD =QA                  UPHESS =BFGS    
          NNEG   =         0          NFRZ   =         3
          NSTEP  =        50          IFOLOW =         1
          HESS   =GUESS               RESTAR =         F
          IHREP  =         0          HSSEND =         F
          NPRT   =         0          NPUN   =         0
          OPTTOL = 5.000E-04          RMIN   = 1.500E-03
          RMAX   = 1.000E-01          RLIM   = 7.000E-02
          DXMAX  = 3.000E-01          PURIFY =         F
          MOVIE  =         F          TRUPD  =         T
          TRMAX  = 5.000E-01          TRMIN  = 5.000E-02
          ITBMAT =         5          STPT   =         F
          STSTEP = 1.000E-02          PROJCT=          F
          FROZEN COORD(S)=   1   2   3


      ***** EQUILIBRIUM GEOMETRY LOCATED *****
            (SUBJECT TO   3 CONSTRAINT(S))
 COORDINATES OF ALL ATOMS ARE (ANGS)
   ATOM   CHARGE       X              Y              Z
 ------------------------------------------------------------
 C           6.0   3.2206014040   2.3483177818   1.8809554678
 C           6.0   3.7859424646   3.7654374615   1.7247194852
 C           6.0   4.2724177331   1.3013128083   1.4940657457
 C           6.0   1.9109781684   2.1644825673   1.0847279658
 C           6.0   1.3453539922   0.7474034482   1.2397925024
 C           6.0   0.8585989112   3.2106476333   1.4721938127
 H           1.0   2.9867720312   2.2032858879   2.9368592539
 H           1.0   3.1126908707   4.5112227091   2.1318773213
 H           1.0   3.9563904487   4.0060915785   0.6771225663
 H           1.0   4.7310616579   3.8640534884   2.2506073966
 H           1.0   4.4845857372   1.3345158366   0.4271500197
 H           1.0   3.9443681099   0.2969567168   1.7367280968
 H           1.0   5.2026190136   1.4734850251   2.0275496895
 H           1.0   2.1449363246   2.3102820044   0.0289583761
 H           1.0   2.0194627756   0.0013748890   0.8345798391
 H           1.0   0.4016687643   0.6490424323   0.7112776181
 H           1.0   1.1718959014   0.5070974972   2.2869612891
 H           1.0   0.6443649621   3.1745889995   2.5385906459
 H           1.0  -0.0705361690   3.0396282070   0.9364556675
 H           1.0   1.1869161238   4.2156544822   1.2327182701


                     --------------------
                     INTERNAL COORDINATES
                     --------------------

                 - - ATOMS - -         COORDINATE      COORDINATE
 NO.   TYPE    I  J  K  L  M  N        (BOHR,RAD)       (ANG,DEG)
 ----------------------------------------------------------------
   1 STRETCH   1  3                     2.8982635       1.5336951
   2 STRETCH   1  4                     2.9170947       1.5436601
   3 STRETCH   1  2                     2.8982806       1.5337041
   4 STRETCH   1  7                     2.0620047       1.0911660
   5 STRETCH   2  8                     2.0486241       1.0840853
   6 STRETCH   2 10                     2.0523621       1.0860633
   7 STRETCH   2  9                     2.0566143       1.0883135
   8 STRETCH   3 13                     2.0523528       1.0860584
   9 STRETCH   3 12                     2.0486170       1.0840815
  10 STRETCH   3 11                     2.0566148       1.0883138
  11 STRETCH   4 14                     2.0620048       1.0911660
  12 STRETCH   4  6                     2.8981850       1.5336536
  13 STRETCH   4  5                     2.8981823       1.5336522
  14 STRETCH   5 16                     2.0523718       1.0860685
  15 STRETCH   5 15                     2.0485698       1.0840565
  16 STRETCH   5 17                     2.0565890       1.0883001
  17 STRETCH   6 20                     2.0485706       1.0840570
  18 STRETCH   6 19                     2.0523808       1.0860732
  19 STRETCH   6 18                     2.0565903       1.0883008
  20 BEND      1  4  6                  1.9504577     111.7529948
  21 BEND      1  3 11                  1.9392478     111.1107128
  22 BEND      1  3 12                  1.9481574     111.6211954
  23 BEND      1  2  8                  1.9481557     111.6211007
  24 BEND      1  2 10                  1.9340825     110.8147628
  25 BEND      1  4 14                  1.8768060     107.5330650
  26 BEND      1  4  5                  1.9506443     111.7636883
  27 BEND      1  3 13                  1.9339795     110.8088625
  28 BEND      1  2  9                  1.9391766     111.1066330
  29 BEND      2  1  7                  1.8758857     107.4803342
  30 BEND      2  1  4                  1.9500414     111.7291444
  31 BEND      2  1  3                  1.9308048     110.6269669
  32 BEND      3  1  4                  1.9502500     111.7410962
  33 BEND      3  1  7                  1.8758398     107.4777018
  34 BEND      4  5 17                  1.9391649     111.1059658
  35 BEND      4  5 15                  1.9484499     111.6379567
  36 BEND      4  5 16                  1.9336439     110.7896332
  37 BEND      4  6 19                  1.9337094     110.7933852
  38 BEND      4  6 20                  1.9484786     111.6395985
  39 BEND      4  1  7                  1.8770654     107.5479281
  40 BEND      4  6 18                  1.9391008     111.1022910
  41 BEND      5  4  6                  1.9301533     110.5896353
  42 BEND      5  4 14                  1.8758732     107.4796201
  43 BEND      6  4 14                  1.8759375     107.4832988
  44 BEND      8  2  9                  1.8824875     107.8585905
  45 BEND      8  2 10                  1.8714153     107.2241966
  46 BEND      9  2 10                  1.8857042     108.0428936
  47 BEND     11  3 12                  1.8825190     107.8603939
  48 BEND     11  3 13                  1.8857183     108.0437011
  49 BEND     12  3 13                  1.8714006     107.2233543
  50 BEND     15  5 16                  1.8713937     107.2229634
  51 BEND     15  5 17                  1.8826471     107.8677353
  52 BEND     16  5 17                  1.8857291     108.0443179
  53 BEND     18  6 19                  1.8857032     108.0428348
  54 BEND     18  6 20                  1.8826212     107.8662496
  55 BEND     19  6 20                  1.8714146     107.2241575
  56 TORSION   1  4  5 17               0.9997506      57.2814896
  57 TORSION   1  4  5 15              -1.1026713     -63.1784108
  58 TORSION   1  4  5 16               3.0961017     177.3935613
  59 TORSION   1  4  6 18              -1.0003741     -57.3172155
  60 TORSION   1  4  6 19              -3.0966938    -177.4274829
  61 TORSION   1  4  6 20               1.1019902      63.1393861
  62 TORSION   2  1  3 13               0.9094660      52.1085614
  63 TORSION   2  1  4  5               3.1410505     179.9689391
  64 TORSION   2  1  3 12               2.9939186     171.5388984
  65 TORSION   2  1  4 14               1.0862708      62.2387338
  66 TORSION   2  1  4  6              -0.9684812     -55.4898873
  67 TORSION   2  1  3 11              -1.1871503     -68.0187002
  68 TORSION   3  1  2  9               1.1879820      68.0663544
  69 TORSION   3  1  2  8              -2.9931769    -171.4964053
  70 TORSION   3  1  4  5               0.9671539      55.4138384
  71 TORSION   3  1  4 14              -1.0876258     -62.3163669
  72 TORSION   3  1  4  6               3.1408075     179.9550119
  73 TORSION   3  1  2 10              -0.9086379     -52.0611172
  74 TORSION   4  1  2  8               1.1052948      63.3287243
  75 TORSION   4  1  3 13               3.0940616     177.2766702
  76 TORSION   4  1  3 11               0.9974453      57.1494087
  77 TORSION   4  1  3 12              -1.1046711     -63.2929927
  78 TORSION   4  1  2 10              -3.0933515    -177.2359876
  79 TORSION   4  1  2  9              -0.9967316     -57.1085160
  80 TORSION   5  4  1  7              -1.0875216     -62.3103966
  81 TORSION   5  4  6 18               1.1846728      67.8767517
  82 TORSION   5  4  6 20              -2.9961482    -171.6666467
  83 TORSION   5  4  6 19              -0.9116468     -52.2335158
  84 TORSION   6  4  5 15               2.9955727     171.6336745
  85 TORSION   6  4  5 17              -1.1851907     -67.9064251
  86 TORSION   6  4  1  7               1.0861320      62.2307769
  87 TORSION   6  4  5 16               0.9111604      52.2056466
  88 TORSION   7  1  2  8              -0.9500263     -54.4324983
  89 TORSION   7  1  3 13              -1.1337130     -64.9569680
  90 TORSION   7  1  3 12               0.9507396      54.4733690
  91 TORSION   7  1  4 14               3.1408840     179.9593981
  92 TORSION   7  1  3 11               3.0528561     174.9157704
  93 TORSION   7  1  2 10               1.1345127      65.0027898
  94 TORSION   7  1  2  9              -3.0520527    -174.8697386
  95 TORSION  14  4  5 15               0.9526677      54.5838408
  96 TORSION  14  4  5 17               3.0550896     175.0437412
  97 TORSION  14  4  6 18              -3.0556471    -175.0756838
  98 TORSION  14  4  6 20              -0.9532828     -54.6190822
  99 TORSION  14  4  6 19               1.1312186      64.8140488
 100 TORSION  14  4  5 16              -1.1317446     -64.8441871

          INTERNUCLEAR DISTANCES (ANGS.)


 =====================================================
   GAMESS/COSab RESULTS
 =====================================================

   Dielectric Constant                  = INFTY
   Basic Grid Size                      =                 1082
   Number of Segments                   =                   92
   Number of Segments located on spheres=                  231
   Number of Segments of the cavity     =                  588
   Solvent Radius (rsolv)               = 1.40
   Outlying Charge Error Method         = double cavity

 =====================================================

  Total solvated Energy (a.u.)          =  -235.4248991776
  Total Energy corrected (a.u.)         =  -235.4248093944

  Outlying charge effect (a.u.)         =     0.0000897832
  Outlying charge effect (kcal/mol)     =     0.0563398508

  Dielectric Energy (a.u.)              =    -0.0012668882
  Dielectric energy corr. (a.u.)        =    -0.0011771051

  Sum of polarization charges           =     0.0280322856
  Sum of polarization charges(cor.)     =    -0.0280322856

  Total surface area of cavity (A**2)   =  146.18
  Total volume of cavity (A**3)         =  144.64

 =====================================================
 NPS=                   588
NR.  ATOM  (X, Y, Z)(a.u.)                  CHARGE(e)  AREA(A**2) SIGMA(e/A**2)
   1   1   8.104438   4.519333   6.748811   0.000172   0.092912   0.001847
   2   2   8.181587   9.121754   6.293155   0.001094   0.232280   0.004712
   3   2   8.157286  10.685821   2.529691   0.001001   0.371649   0.002694
   4   2  10.765361   6.820384   2.183134   0.000661   0.139368   0.004746
   5   2   7.198709  10.891543   3.101711   0.001358   0.418105   0.003247
   6   2   7.360557   9.310324   6.329275   0.001767   0.371649   0.004755
   7   2   5.739536   7.671078   6.719577   0.000445   0.185824   0.002395
   8   2  10.524960   8.274965   2.002458   0.001800   0.325193   0.005535
   9   2  10.256128   8.049857   1.312261   0.001182   0.232280   0.005087
  10   2   6.800398   7.561372   6.995586   0.000908   0.278737   0.003257
  11   2   7.707696   8.187078   6.841159   0.001422   0.325193   0.004372
  12   2   8.336685  10.008994   5.384077   0.002545   0.511017   0.004981
  13   2   8.363242  10.645373   3.862485   0.001335   0.418105   0.003193
  14   2   7.321713  10.561448   1.715662   0.001506   0.371649   0.004053
  15   2   6.113171  10.117301   1.212266   0.001757   0.325193   0.005402
  16   2   8.367778   6.366417   6.759333   0.000293   0.139368   0.002102
  17   2  10.081046   9.449950   2.739673   0.001424   0.371649   0.003833
  18   2   9.197293  10.244858   2.694623   0.001370   0.464561   0.002948
  19   2   8.532541  10.217632   1.597140   0.000885   0.278737   0.003174
  20   2  10.440488   6.984352   1.396819   0.001751   0.371649   0.004712
  21   2   6.312158  10.578385   2.000568   0.001430   0.325193   0.004398
  22   2   7.796611  10.574904   4.639561   0.001044   0.278737   0.003746
  23   2   6.575972   8.368882   6.777631   0.000845   0.232280   0.003638
  24   2   9.700067   9.437952   1.706613   0.001806   0.418105   0.004320
  25   2   7.715219   7.090188   6.996767   0.000893   0.278737   0.003205
  26   2   9.272706  10.164446   3.967599   0.001038   0.325193   0.003193
  27   3  11.483918   3.553362   1.616214   0.001203   0.232280   0.005178
  28   3  10.287961  -0.342705   1.586016   0.000995   0.371649   0.002678
  29   3   8.748429   1.824433   6.487553   0.001475   0.418105   0.003528
  30   3   9.497503   1.110203   6.054084   0.000724   0.185824   0.003898
  31   3   7.734278   1.068396   6.321229   0.000743   0.232280   0.003198
  32   3   8.152327   0.642171   6.136502   0.000693   0.185824   0.003729
  33   3   7.554916   0.106161  -0.088447   0.000370   0.092912   0.003983
  34   3  10.186127   0.205888   0.645114   0.001222   0.371649   0.003289
  35   3  11.191335   3.352557   0.882677   0.001206   0.232280   0.005194
  36   3  10.091987   0.167167   5.049972   0.001860   0.371649   0.005006
  37   3   9.484858  -0.227930   5.075634   0.001120   0.232280   0.004822
  38   3  11.099871   4.277882   1.474827   0.001017   0.185824   0.005473
  39   3  11.578884   2.292382   1.419782   0.002669   0.511017   0.005223
  40   3  11.120482   0.707884   1.432510   0.001350   0.418105   0.003228
  41   3   9.166723  -0.778602   1.208844   0.001694   0.418105   0.004051
  42   3   7.966223  -0.587165   0.588905   0.001589   0.325193   0.004886
  43   3  10.927891   0.155180   3.734253   0.001375   0.371649   0.003700
  44   3  10.882343  -0.057891   2.577586   0.001352   0.464561   0.002910
  45   3   9.840512  -0.859651   2.438167   0.001025   0.325193   0.003153
  46   3   8.927360   2.787660   6.490472   0.000373   0.185824   0.002008
  47   3   8.954544   0.496712   5.931004   0.001753   0.371649   0.004717
  48   3   6.893208   0.752212   5.982049   0.000344   0.139368   0.002470
  49   3   8.947455  -0.281557   0.371950   0.001430   0.325193   0.004397
  50   3  11.147576   1.479429   0.854698   0.001093   0.278737   0.003920
  51   3  10.687067   4.213403   0.731250   0.000589   0.139368   0.004229
  52   3  10.119218  -0.591880   3.713043   0.001724   0.418105   0.004123
  53   3  11.555890   1.068399   2.349605   0.001070   0.325193   0.003290
  54   4   1.565591   3.853335  -1.119305   0.000169   0.092912   0.001824
  55   4   1.576546   4.251850  -1.131075   0.000067   0.046456   0.001452
  56   5   3.744168  -1.386370   4.580455   0.000939   0.185824   0.005052
  57   5   1.084406  -2.069552   2.156635   0.000999   0.371649   0.002687
  58   5   1.840489   0.045266  -1.110042   0.001761   0.371649   0.004738
  59   5  -0.635904   1.521698   4.385177   0.001371   0.278737   0.004919
  60   5   2.541326  -0.659810  -0.817860   0.001258   0.278737   0.004514
  61   5   2.103334  -2.287091   1.706235   0.001344   0.418105   0.003213
  62   5   3.933797  -1.810043   3.744302   0.000624   0.139368   0.004478
  63   5  -0.587172   0.206726   4.085486   0.001788   0.325193   0.005498
  64   5  -0.952451   0.554709   3.498293   0.001181   0.232280   0.005084
  65   5   3.042792  -1.912880   4.068079   0.001520   0.325193   0.004674
  66   5   2.016192  -2.249595   3.115672   0.001333   0.418105   0.003188
  67   5   0.961689  -1.725392   0.950014   0.001671   0.418105   0.003996
  68   5   1.478971  -1.033044  -0.335431   0.001961   0.371649   0.005277
  69   5   2.732878   0.550406  -1.332035   0.001606   0.418105   0.003840
  70   5   3.361249   1.093350  -1.332979   0.000376   0.139368   0.002695
  71   5   0.175921  -1.030202   3.991499   0.001447   0.371649   0.003894
  72   5   0.710406  -1.767649   3.245947   0.001358   0.464561   0.002922
  73   5   0.153138  -1.503932   2.076512   0.001002   0.325193   0.003081
  74   5   1.620427   1.435808  -1.322340   0.000556   0.185824   0.002992
  75   5   1.398886   2.280586  -1.153270   0.000161   0.092912   0.001728
  76   5  -1.040860   1.646515   3.521878   0.001180   0.232280   0.005078
  77   5   3.951439   0.639954  -1.077956   0.000443   0.185824   0.002383
  78   5   1.795079  -1.742456   0.400514   0.001426   0.325193   0.004386
  79   5   2.980191  -2.256210   3.139029   0.001072   0.278737   0.003848
  80   5  -0.408556  -0.831126   3.079767   0.001792   0.418105   0.004286
  81   5   1.709305  -1.819828   4.115725   0.001204   0.371649   0.003240
  82   5   2.236846   1.611267  -1.418961   0.000511   0.185824   0.002752
  83   6  -1.308358   8.197895   3.856516   0.001000   0.371649   0.002691
  84   6  -1.629788   4.501313   3.902104   0.001576   0.325193   0.004848
  85   6   1.824636   7.592690  -0.669986   0.001177   0.325193   0.003620
  86   6   1.137403   8.296701  -0.231013   0.000737   0.185824   0.003965
  87   6   1.251699   6.619897  -0.938359   0.000610   0.232280   0.002625
  88   6   0.646675   6.949533  -0.761064   0.000865   0.232280   0.003723
  89   6  -1.412591   4.971445   4.749656   0.000924   0.185824   0.004972
  90   6  -1.040331   7.754856   4.866602   0.001383   0.418105   0.003307
  91   6   1.736330   8.768732   5.422731   0.001383   0.278737   0.004961
  92   6   0.005130   8.735986   0.649871   0.001879   0.371649   0.005056
  93   6  -0.394960   8.189249   0.392240   0.001104   0.232280   0.004752
  94   6   1.146276   9.251732   4.761047   0.001775   0.371649   0.004777
  95   6  -0.294188   8.874027   4.435046   0.001348   0.418105   0.003224
  96   6  -1.863409   7.065960   3.847438   0.001732   0.418105   0.004144
  97   6  -1.885975   5.635791   4.119389   0.001857   0.325193   0.005712
  98   6  -1.013968   4.176878   4.721017   0.000921   0.185824   0.004955
  99   6  -0.288877   9.253576   2.090584   0.001361   0.371649   0.003663
 100   6  -0.773188   8.970182   3.125225   0.001354   0.464561   0.002914
 101   6  -1.623603   8.002372   2.828898   0.001016   0.325193   0.003125
 102   6   2.524280   7.899871  -0.397996   0.000337   0.139368   0.002416
 103   6   0.492318   7.799139  -0.381420   0.001770   0.371649   0.004763
 104   6   0.675033   5.786974  -0.865974   0.000387   0.139368   0.002780
 105   6  -1.655881   6.467790   4.619387   0.001508   0.325193   0.004637
 106   6   0.317763   8.699562   5.159589   0.001117   0.278737   0.004007
 107   6  -1.049265   8.533381   1.750541   0.001722   0.418105   0.004118
 108   6   0.290714   9.468396   3.752970   0.001065   0.325193   0.003274
 109   7   5.345865   3.879019   7.971657  -0.001314   0.372926  -0.003524
 110   7   5.945035   2.430743   7.265025  -0.000564   0.274788  -0.002052
 111   7   5.141103   5.480329   7.561876  -0.000481   0.235532  -0.002041
 112   7   7.009837   4.270923   7.589114  -0.000500   0.353299  -0.001415
 113   7   5.242535   2.821163   7.567688  -0.001014   0.294415  -0.003443
 114   7   4.359335   3.606286   7.568189  -0.001401   0.314043  -0.004461
 115   7   4.708441   4.701291   7.756747  -0.001050   0.294415  -0.003565
 116   7   6.074320   4.905308   7.852017  -0.001033   0.431809  -0.002393
 117   7   6.439258   3.391216   7.742203  -0.000904   0.412182  -0.002192
 118   8   4.719288  10.516029   4.876382  -0.002162   0.392554  -0.005507
 119   8   5.920412   9.946975   6.031557  -0.000682   0.353299  -0.001930
 120   8   5.199553   9.092061   6.319440  -0.000937   0.314043  -0.002985
 121   8   6.031918  10.958727   4.327842  -0.000783   0.372926  -0.002099
 122   8   4.695164   9.802604   5.758959  -0.001961   0.392554  -0.004995
 123   8   5.188385  10.837655   3.575544  -0.001778   0.490692  -0.003623
 124   8   5.934730  10.643411   5.271474  -0.001199   0.392554  -0.003054
 125   9   8.242401   8.437602  -0.887562  -0.001731   0.372926  -0.004643
 126   9   9.424220   7.340914  -0.199878  -0.000720   0.333671  -0.002156
 127   9   9.034190   9.043798   0.080471  -0.000745   0.372926  -0.001997
 128   9   6.844087   9.487525  -0.120384  -0.000548   0.314043  -0.001745
 129   9   6.254517   8.576856  -0.598979  -0.001134   0.314043  -0.003611
 130   9   8.396645   7.204310  -0.968618  -0.002162   0.431809  -0.005007
 131   9   9.245217   8.208929  -0.301255  -0.000909   0.333671  -0.002724
 132   9   8.002576   9.549525  -0.077442  -0.001109   0.431809  -0.002567
 133   9   7.198313   8.768325  -0.847100  -0.001443   0.353299  -0.004085
 134   9   7.224098   7.615671  -1.163649  -0.002214   0.412182  -0.005371
 135  10  10.969503   8.123078   5.368258  -0.002327   0.471065  -0.004941
 136  10  11.287639   7.204389   3.534598  -0.000727   0.333671  -0.002179
 137  10   9.729548   6.656693   6.488185  -0.000964   0.314043  -0.003068
 138  10   9.747419   8.620897   6.162043  -0.000775   0.353299  -0.002193
 139  10  10.567336   9.135059   4.420766  -0.000690   0.353299  -0.001952
 140  10  11.363121   7.186047   4.643116  -0.001927   0.392554  -0.004909
 141  10  10.791601   6.940494   5.827042  -0.002382   0.451437  -0.005276
 142  10   9.826157   7.670901   6.514544  -0.001239   0.431809  -0.002869
 143  10  10.194128   9.062074   5.421548  -0.000969   0.372926  -0.002599
 144  10  11.145387   8.315920   3.871991  -0.001155   0.471065  -0.002452
 145  11   9.249802   2.369062  -1.518924  -0.002253   0.471065  -0.004783
 146  11  10.384229   3.409667  -0.457845  -0.000535   0.353299  -0.001515
 147  11   8.114738   0.948634  -1.044966  -0.000773   0.353299  -0.002189
 148  11  10.081445   1.352716  -0.637220  -0.000716   0.372926  -0.001920
 149  11   9.619821   3.621729  -1.067346  -0.001746   0.412182  -0.004235
 150  11   8.461307   3.309483  -1.519721  -0.002265   0.412182  -0.005496
 151  11   7.941885   1.917584  -1.513601  -0.002130   0.451437  -0.004718
 152  11   9.145089   1.034130  -1.029164  -0.001164   0.431809  -0.002696
 153  11  10.374037   2.341962  -0.740376  -0.001169   0.431809  -0.002707
 154  12   7.083162  -1.742722   4.049934  -0.002411   0.412182  -0.005850
 155  12   7.269491  -0.599911   5.439030  -0.000731   0.314043  -0.002328
 156  12   8.567883  -1.505147   4.005933  -0.000762   0.333671  -0.002282
 157  12   7.803750  -1.623043   2.213394  -0.000658   0.294415  -0.002236
 158  12   6.796898  -1.140094   4.927941  -0.001352   0.294415  -0.004591
 159  12   8.091506  -1.201329   4.870015  -0.001015   0.412182  -0.002463
 160  12   8.330039  -1.728477   3.124650  -0.000901   0.333671  -0.002700
 161  12   7.280357  -1.881639   3.087822  -0.001589   0.294415  -0.005398
 162  13  12.027592   2.751713   4.932120  -0.002153   0.431809  -0.004987
 163  13  10.870772   1.586378   5.707569  -0.000484   0.314043  -0.001540
 164  13  10.381104   3.314663   6.166451  -0.000978   0.333671  -0.002931
 165  13  12.057159   3.570671   3.150620  -0.000848   0.412182  -0.002057
 166  13  11.967206   1.575767   3.945570  -0.000773   0.372926  -0.002072
 167  13  10.922806   2.506438   6.014830  -0.001303   0.412182  -0.003162
 168  13  11.434940   3.604701   5.502261  -0.002073   0.392554  -0.005281
 169  13  12.038173   3.780940   4.247339  -0.002081   0.431809  -0.004820
 170  13  12.247943   2.484183   3.506103  -0.001107   0.412182  -0.002687
 171  13  11.627650   1.560190   4.976131  -0.001436   0.471065  -0.003048
 172  14   4.342787   4.743206  -2.355432  -0.001318   0.372926  -0.003535
 173  14   3.118955   5.497762  -1.915213  -0.000524   0.333671  -0.001569
 174  14   2.750934   3.961226  -1.988594  -0.000293   0.294415  -0.000995
 175  14   4.663544   3.039499  -1.921049  -0.000583   0.235532  -0.002474
 176  14   3.183206   4.685127  -2.220352  -0.000932   0.353299  -0.002637
 177  14   3.813484   3.499835  -2.231685  -0.000912   0.412182  -0.002213
 178  14   5.050870   3.952303  -2.151865  -0.001108   0.294415  -0.003763
 179  14   5.308986   4.995214  -1.960780  -0.001387   0.314043  -0.004416
 180  14   4.210819   5.928215  -1.834485  -0.001264   0.431809  -0.002927
 181  15   5.018680  -1.970887   0.743750  -0.002387   0.372926  -0.006402
 182  15   4.515512  -0.605297  -0.698072  -0.001061   0.353299  -0.003002
 183  15   3.702124  -1.527530  -0.341400  -0.000688   0.353299  -0.001946
 184  15   3.698217  -2.441053   1.354197  -0.000825   0.392554  -0.002102
 185  15   5.026395  -1.275562  -0.136600  -0.001775   0.372926  -0.004759
 186  15   3.859830  -2.132812   0.363384  -0.001348   0.412182  -0.003269
 187  15   4.517725  -2.305808   2.039966  -0.001392   0.412182  -0.003378
 188  16  -1.215488   0.465025   0.096543  -0.002235   0.451437  -0.004952
 189  16  -1.580237   1.283219   2.092175  -0.000712   0.333671  -0.002135
 190  16  -1.251698  -0.162901   1.592122  -0.000883   0.392554  -0.002249
 191  16  -0.145272  -0.376707  -0.282846  -0.000739   0.353299  -0.002091
 192  16   0.060407   1.738982  -0.954664  -0.001020   0.392554  -0.002599
 193  16  -1.612140   1.478259   0.753211  -0.002027   0.392554  -0.005164
 194  16  -1.624382   0.645762   1.474732  -0.001041   0.314043  -0.003316
 195  16  -0.750140  -0.590515   0.668942  -0.001080   0.412182  -0.002619
 196  16  -0.052924   0.535718  -0.869167  -0.001229   0.471065  -0.002608
 197  16  -0.924012   1.597494  -0.406535  -0.002198   0.431809  -0.005091
 198  17   1.631883   0.111926   6.553172  -0.002252   0.471065  -0.004781
 199  17   0.154343   0.820295   5.652748  -0.000536   0.353299  -0.001516
 200  17   3.202158  -0.667223   5.876575  -0.000768   0.353299  -0.002174
 201  17   1.215808  -0.967556   5.474474  -0.000719   0.372926  -0.001927
 202  17   0.802257   1.191984   6.318208  -0.001745   0.412182  -0.004234
 203  17   2.007363   1.263526   6.750522  -0.002267   0.412182  -0.005500
 204  17   3.012553   0.194928   6.516189  -0.002129   0.451437  -0.004717
 205  17   2.215651  -0.974627   5.837987  -0.001163   0.431809  -0.002693
 206  17   0.575563  -0.196909   5.741023  -0.001166   0.431809  -0.002701
 207  18   0.470081   6.152115   7.132361  -0.002041   0.431809  -0.004728
 208  18   1.600941   7.571432   6.645486  -0.000837   0.372926  -0.002244
 209  18  -0.749156   5.321116   6.103762  -0.000582   0.372926  -0.001561
 210  18  -0.291425   7.333247   6.203585  -0.000615   0.372926  -0.001650
 211  18   1.816408   6.518337   7.122539  -0.002027   0.451437  -0.004489
 212  18   1.180203   5.232918   7.131042  -0.002364   0.431809  -0.005476
 213  18   0.031104   4.819245   6.595867  -0.001741   0.412182  -0.004223
 214  18  -0.602521   6.264158   6.425657  -0.001289   0.431809  -0.002984
 215  18   0.606905   7.361661   6.748014  -0.001333   0.431809  -0.003087
 216  19  -2.320174   5.801664   0.651916  -0.002580   0.510320  -0.005057
 217  19  -0.871165   6.331939  -0.498626  -0.000652   0.372926  -0.001748
 218  19  -1.984945   7.178168   1.028165  -0.000783   0.372926  -0.002100
 219  19  -2.498753   5.780687   2.431701  -0.000515   0.294415  -0.001748
 220  19  -1.095023   5.211383  -0.427272  -0.002251   0.549575  -0.004096
 221  19  -1.613435   6.780150   0.105077  -0.001343   0.451437  -0.002975
 222  19  -2.470360   6.500955   1.786737  -0.001180   0.412182  -0.002863
 223  19  -2.365639   4.775311   2.106143  -0.001672   0.529948  -0.003156
 224  19  -2.092950   4.770747   0.652730  -0.002287   0.412182  -0.005547
 225  20   2.540011  10.367066   1.900780  -0.002162   0.392554  -0.005508
 226  20   1.605230   9.607469   0.616199  -0.000681   0.353299  -0.001927
 227  20   2.585536   9.154839   0.206913  -0.000949   0.314043  -0.003022
 228  20   1.176122  10.174956   2.468913  -0.000783   0.372926  -0.002100
 229  20   2.773925   9.898462   0.908096  -0.001882   0.372926  -0.005046
 230  20   2.027161  10.246153   3.219127  -0.001778   0.490692  -0.003623
 231  20   1.354107  10.096585   1.488357  -0.001199   0.392554  -0.003054
 232   1   7.710996   5.219942   6.886239   0.000050   0.030528   0.001646
 233   2   7.878077   5.683006   6.797741   0.000100   0.030528   0.003264
 234   7   7.473739   5.109661   7.043673   0.000008   0.030528   0.000263
 235   1   8.476479   5.353800   6.481921   0.000031   0.026125   0.001176
 236   2   8.680509   5.810158   6.469442   0.000007   0.026125   0.000251
 237  10   8.943875   5.947634   6.411249  -0.000034   0.026125  -0.001312
 238   2   8.298445   5.856986   6.689787   0.000194   0.094444   0.002059
 239   1   8.127055   5.152280   6.714444   0.000177   0.094444   0.001877
 240   1   8.002479   3.743792   6.748046   0.000036   0.030530   0.001186
 241   3   8.328515   3.401705   6.584187   0.000066   0.030530   0.002159
 242   7   7.746870   3.726450   6.914183   0.000015   0.030530   0.000490
 243   1   8.745206   3.980371   6.355028   0.000025   0.026133   0.000947
 244   3   9.105568   3.644691   6.268425   0.000007   0.026133   0.000263
 245  13   9.399138   3.629441   6.196096  -0.000032   0.026133  -0.001211
 246   3   8.846384   3.501888   6.425910   0.000166   0.093843   0.001766
 247   1   8.286940   3.909622   6.643162   0.000178   0.093843   0.001901
 248   7   7.454215   4.248578   7.172437  -0.000142   0.098466  -0.001440
 249   1   7.745107   4.548114   6.928043  -0.000012   0.120298  -0.000102
 250   1   8.902396   4.747778   6.186078   0.000101   0.169134   0.000597
 251  10   9.330543   5.370145   6.073948  -0.000096   0.169134  -0.000567
 252  13   9.529163   4.363245   5.980002  -0.000059   0.169134  -0.000348
 253  10   9.194875   5.955608   6.380127  -0.000082   0.065796  -0.001249
 254   1   8.586202   5.010922   6.508060   0.000195   0.092755   0.002106
 255  13   9.660898   3.780922   6.150881  -0.000074   0.066546  -0.001105
 256   1   8.694872   4.278313   6.464956   0.000212   0.093812   0.002263
 257   2  10.802276   6.131703   2.691489   0.000189   0.068125   0.002777
 258   3  10.885312   5.305940   2.633049   0.000241   0.068125   0.003541
 259  10  10.890328   6.223385   2.968259  -0.000006   0.068125  -0.000081
 260   2   9.749947   5.569582   0.605928   0.000260   0.060398   0.004307
 261   3   9.973543   4.780419   0.469513   0.000109   0.060398   0.001810
 262  11   9.878502   4.619646   0.228469   0.000012   0.060398   0.000204
 263   3  10.360187   4.926054   0.859432   0.001012   0.299612   0.003377
 264   3  10.965025   4.938026   2.007213   0.001021   0.299612   0.003407
 265   2  10.403493   6.084630   1.557843   0.001720   0.600385   0.002865
 266   2   4.685093   6.907261   6.377076   0.000422   0.245271   0.001719
 267   7   4.490134   6.237063   6.659588   0.000037   0.245271   0.000150
 268  18   3.497972   6.603516   6.410856   0.000391   0.245271   0.001595
 269   7   7.080350   5.251130   7.264844  -0.000103   0.199025  -0.000517
 270   7   5.768004   5.879877   7.209909  -0.000867   0.408015  -0.002124
 271   2   7.092145   6.443523   6.984024   0.001004   0.544805   0.001842
 272   2   5.572741   7.073826   6.794580   0.000726   0.280571   0.002587
 273   2   4.655568   7.611753   6.200790  -0.000039   0.110849  -0.000354
 274   8   4.525536   7.879640   6.128350  -0.000184   0.110849  -0.001659
 275  18   3.482724   7.284180   6.164844   0.000313   0.110849   0.002826
 276   2   4.994130  10.146707   2.220633   0.000098   0.077920   0.001251
 277   8   4.841913  10.222150   2.473231  -0.000169   0.077920  -0.002168
[...]
 329   3   7.180290   1.665057   6.415118   0.001055   0.544867   0.001935
 330   3   8.301720   2.856791   6.669379   0.000667   0.280605   0.002377
 331   3  11.080854   4.859329   2.720283   0.000133   0.086707   0.001530
 332  10  10.947270   5.748349   3.101269   0.000206   0.086707   0.002381
 333  13  11.219122   4.766334   2.976817  -0.000093   0.086707  -0.001069
 334   3   7.013324   0.359821  -0.183843   0.000260   0.058378   0.004454
 335  11   7.160329   0.563472  -0.355569   0.000032   0.058378   0.000544
 336  15   6.106165   0.043780  -0.113690   0.000119   0.058378   0.002034
 337  11  10.221085   4.048449   0.000742  -0.000042   0.070502  -0.000594
 338  11  10.700914   3.025837   0.064338  -0.000138   0.156989  -0.000879
 339  11  10.565759   1.667467  -0.004812  -0.000221   0.156989  -0.001407
 340  11   9.635742   0.689258  -0.220200  -0.000259   0.156989  -0.001651
 341  11   8.307972   0.508896  -0.489856  -0.000172   0.156989  -0.001095
 342   3  10.585304   3.792211   0.408464   0.000085   0.154134   0.000555
 343   3  10.931305   2.296594   0.430726   0.000179   0.154134   0.001162
 344   3  10.298345   0.908121   0.261644  -0.000037   0.154134  -0.000241
 345   3   8.956693   0.219660  -0.026585   0.000107   0.154134   0.000695
 346   3   7.734521   0.307290  -0.266901   0.000159   0.086133   0.001850
 347   3   7.181053  -0.923509   1.182098   0.000014   0.077940   0.000179
 348  12   7.077272  -1.094625   1.411470  -0.000168   0.077940  -0.002151
 349  15   6.249735  -1.155959   1.077947  -0.000274   0.077940  -0.003519
 350   3   6.051826   0.538897   5.537729  -0.000020   0.110752  -0.000179
 351  12   6.029718   0.259451   5.413913  -0.000206   0.110752  -0.001863
 352  17   4.842144   0.400333   5.518942   0.000325   0.110752   0.002936
 353  12   7.715969  -1.212328   1.601692  -0.000104   0.067744  -0.001538
 354  12   8.565733  -1.324634   2.285645  -0.000258   0.149997  -0.001721
 355  12   9.078925  -1.198248   3.502513  -0.000256   0.149997  -0.001703
 356  12   8.793702  -0.806675   4.737595  -0.000135   0.149997  -0.000902
 357  12   7.824814  -0.307452   5.493995  -0.000211   0.149997  -0.001405
 358  12   6.794078   0.053305   5.593695  -0.000175   0.067744  -0.002589
 359   3   8.283692  -1.048515   1.557957   0.000039   0.148871   0.000262
 360   3   9.242275  -1.085987   2.698752  -0.000035   0.148871  -0.000233
 361   3   9.377307  -0.779186   4.151107   0.000122   0.148871   0.000821
 362   3   8.634464  -0.251544   5.330715   0.000140   0.148871   0.000940
 363   3   7.312603   0.284659   5.762997  -0.000068   0.148871  -0.000459
 364  13   9.744739   3.228453   6.247800  -0.000082   0.066453  -0.001229
 365  13   9.988274   2.186330   6.159495  -0.000222   0.146397  -0.001518
 366  13  10.543424   1.207598   5.507375  -0.000171   0.146397  -0.001167
 367  13  11.214323   0.906717   4.434652  -0.000156   0.146397  -0.001063
 368  13  11.743226   1.399279   3.353443  -0.000210   0.146397  -0.001437
 369  13  11.926941   2.496052   2.679125  -0.000114   0.146397  -0.000776
 370  13  11.694889   3.775681   2.670755  -0.000182   0.146397  -0.001245
 371   3   9.412096   2.747091   6.301509  -0.000095   0.146771  -0.000647
 372   3   9.873780   1.411981   5.927382   0.000093   0.146771   0.000633
 373   3  10.598298   0.655810   4.908108   0.000167   0.146771   0.001136
 374   3  11.307306   0.769082   3.635270  -0.000011   0.146771  -0.000074
 375   3  11.728419   1.708279   2.597864  -0.000002   0.146771  -0.000015
 376   3  11.699854   3.112583   2.194437   0.000205   0.146771   0.001395
 377   3  11.382796   4.238895   2.383773   0.000176   0.081187   0.002174
 378  15   5.725591  -0.761498   0.161468  -0.001689   0.403470  -0.004187
 379   3   7.120535  -0.507630   0.473330   0.001628   0.570118   0.002855
 380  17   4.246300   0.368284   5.954958   0.000036   0.056693   0.000628
 381   3   6.018321   0.669485   5.881437   0.000295   0.082999   0.003556
 382   4   1.986393   3.311012  -1.282668   0.000035   0.030528   0.001152
 383   5   1.819216   2.847930  -1.194556   0.000065   0.030528   0.002124
 384  14   2.223691   3.421355  -1.439996   0.000014   0.030528   0.000445
 385   4   1.230274   3.172659  -0.884794   0.000025   0.026159   0.000946
 386   5   1.026285   2.716290  -0.872746   0.000007   0.026159   0.000286
 387  16   0.762640   2.579071  -0.815207  -0.000031   0.026159  -0.001204
 388   5   1.311859   2.713560  -1.042076   0.000166   0.092361   0.001796
 389   4   1.667094   3.334444  -1.161708   0.000169   0.092361   0.001831
 390   4   1.695087   4.785565  -1.143580   0.000048   0.030524   0.001571
 391   6   1.368862   5.127357  -0.979529   0.000099   0.030524   0.003251
 392  14   1.950720   4.803097  -1.309659   0.000007   0.030524   0.000227
 393   4   0.958047   4.555473  -0.755033   0.000032   0.026155   0.001222
 394   6   0.597589   4.890992  -0.668284   0.000020   0.026155   0.000772
 395  19   0.303867   4.905915  -0.596480  -0.000029   0.026155  -0.001096
 396   6   0.921177   5.111460  -0.859386   0.000220   0.092130   0.002388
 397   4   1.346394   4.542295  -1.004922   0.000167   0.092130   0.001816
 398  14   2.288798   4.051941  -1.589870  -0.000162   0.098342  -0.001646
 399   4   1.915269   4.170358  -1.306295  -0.000025   0.120146  -0.000206
 400   4   0.798450   3.783003  -0.585787   0.000097   0.169088   0.000576
 401  16   0.370471   3.160472  -0.474943  -0.000061   0.169088  -0.000360
 402  19   0.171579   4.167384  -0.380095  -0.000096   0.169088  -0.000565
 403  16   0.463230   2.611351  -0.752437  -0.000083   0.067311  -0.001240
 404   4   1.159679   3.483019  -0.937177   0.000201   0.094891   0.002120
 405  19   0.068222   4.810069  -0.572940  -0.000069   0.067623  -0.001017
 406   4   0.982621   4.202569  -0.844760   0.000196   0.095330   0.002057
 407   5  -1.107125   2.395406   2.901623   0.000178   0.068089   0.002621
 408   6  -1.190212   3.220882   2.960877   0.000274   0.068089   0.004024
 409  16  -1.194390   2.303903   2.624548  -0.000051   0.068089  -0.000751
 410   5  -0.062213   2.954122   4.989414   0.000267   0.060507   0.004406
 411   6  -0.286014   3.742965   5.126031   0.000196   0.060507   0.003235
 412  18  -0.191145   3.902720   5.367827  -0.000020   0.060507  -0.000336
 413   6  -1.011411   3.606129   3.939650   0.001767   0.598360   0.002953
 414   5  -0.583780   2.449939   4.209853   0.001757   0.598360   0.002936
 415   5   5.009425   1.621675  -0.776157   0.000449   0.245075   0.001831
 416  11   6.195656   1.923494  -0.809325   0.000372   0.245075   0.001519
 417  14   5.204651   2.292120  -1.057810   0.000108   0.245075   0.000440
 418   5   5.040803   0.909736  -0.597774  -0.000018   0.110630  -0.000166
 419  11   6.212542   1.236297  -0.561937   0.000325   0.110630   0.002939
 420  15   5.171235   0.642245  -0.524732  -0.000204   0.110630  -0.001843
 421  11   6.759508   1.511383  -0.975776   0.000037   0.058708   0.000625
 422   5   5.009244   1.106011  -0.912296   0.000305   0.085937   0.003553
 423   5   4.700712  -1.617929   3.387855   0.000021   0.077932   0.000270
 424  12   5.654340  -1.497010   3.481729  -0.000276   0.077932  -0.003545
 425  15   4.853457  -1.693560   3.135654  -0.000160   0.077932  -0.002050
 426   5   4.419876  -0.627848   4.967036   0.000277   0.058075   0.004766
 427  12   5.376483  -0.561341   4.873249   0.000120   0.058075   0.002071
 428  17   4.212208  -0.529244   5.166309   0.000046   0.058075   0.000798
 429  12   6.023087  -1.102135   4.472852  -0.001761   0.404557  -0.004353
 430   5   4.624803  -1.341663   4.161946   0.001793   0.571663   0.003137
 431  14   4.451286   2.465987  -1.500641  -0.000142   0.198853  -0.000714
 432  14   3.114335   3.012229  -1.678451  -0.000803   0.407643  -0.001969
 433   5   3.540369   1.672204  -1.299591   0.001070   0.544356   0.001965
 434   5   2.045914   2.378321  -1.375052   0.000673   0.280330   0.002400
 435  15   4.300144  -2.007259   2.905183  -0.000064   0.067696  -0.000941
 436  15   3.533002  -2.308007   2.182676  -0.000232   0.149871  -0.001551
 437  15   2.968490  -2.170743   0.990846  -0.000245   0.149871  -0.001637
 438  15   3.041332  -1.488637  -0.143790  -0.000155   0.149871  -0.001032
 439  15   3.722261  -0.535755  -0.765341  -0.000227   0.149871  -0.001514
 440  15   4.535707   0.198599  -0.764107  -0.000169   0.067696  -0.002498
 441   5   3.714639  -2.080159   2.957133   0.000082   0.148785   0.000553
 442   5   2.802779  -2.272929   1.795077  -0.000030   0.148785  -0.000201
 443   5   2.511569  -1.787628   0.417143   0.000134   0.148785   0.000898
 444   5   2.958017  -0.819246  -0.623023   0.000112   0.148785   0.000751
 445   5   3.962742   0.243124  -0.907487  -0.000069   0.148785  -0.000466
 446  16   0.592153   2.093674  -0.950093  -0.000087   0.066435  -0.001316
 447  16   0.762145   1.039103  -1.057340  -0.000199   0.146349  -0.001359
 448  16   0.638637  -0.175719  -0.610717  -0.000113   0.146349  -0.000771
 449  16   0.166711  -0.893270   0.365461  -0.000215   0.146349  -0.001471
 450  16  -0.472430  -0.838038   1.496374  -0.000243   0.146349  -0.001664
 451  16  -1.033379  -0.031228   2.347792  -0.000128   0.146349  -0.000876
 452  16  -1.300750   1.217372   2.592799  -0.000131   0.146349  -0.000892
 453   5   1.079626   1.790909  -1.076059  -0.000086   0.146738  -0.000584
 454   5   1.167570   0.336970  -0.962481   0.000140   0.146738   0.000954
 455   5   0.815716  -0.804909  -0.121718   0.000017   0.146738   0.000118
 456   5   0.159163  -1.196288   1.123406   0.000024   0.146738   0.000161
 457   5  -0.549995  -0.686889   2.294807   0.000053   0.146738   0.000364
 458   5  -1.039467   0.527696   2.942707   0.000227   0.146738   0.001549
 459   5  -1.176992   1.704384   2.969257   0.000126   0.081165   0.001552
 460   5   0.070965   2.457737   5.093923   0.000212   0.088832   0.002390
 461  17   0.222421   2.305738   5.313115   0.000017   0.088832   0.000193
 462  18   0.077063   3.449221   5.366733   0.000250   0.088832   0.002818
 463  17   0.047497   1.539613   5.320113  -0.000046   0.070526  -0.000651
 464  17  -0.010547   0.440127   5.058178  -0.000129   0.157055  -0.000822
 465  17   0.632264  -0.754872   4.890419  -0.000222   0.157055  -0.001417
 466  17   1.870963  -1.328984   4.963853  -0.000257   0.157055  -0.001634
 467  17   3.176270  -1.036900   5.247104  -0.000181   0.157055  -0.001155
 468   5  -0.205648   1.241450   4.860025   0.000166   0.154174   0.001079
 469   5   0.041010  -0.244355   4.559907   0.000182   0.154174   0.001179
 470   5   1.159108  -1.295659   4.503854  -0.000030   0.154174  -0.000192
 471   5   2.670898  -1.463256   4.715816   0.000098   0.154174   0.000638
 472   5   3.775739  -0.962539   5.013739   0.000185   0.086162   0.002151
 473   6   2.688726   8.152068   5.796981   0.000221   0.057803   0.003825
 474   8   3.595613   8.470083   5.725336   0.000062   0.057803   0.001068
 475  18   2.540176   7.948474   5.967358   0.000092   0.057803   0.001598
 476   6   2.516048   9.445075   4.433075   0.000099   0.077903   0.001274
 477   8   3.447799   9.678403   4.536304  -0.000218   0.077903  -0.002793
 478  20   2.619874   9.616977   4.204332  -0.000169   0.077903  -0.002175
 479   8   3.917925   9.491925   5.227471  -0.001841   0.405383  -0.004541
 480   6   2.632202   8.826844   5.349874   0.001831   0.572837   0.003196
 481   6   3.872606   7.368341  -0.235242   0.000425   0.244953   0.001735
 482   9   5.083194   7.547002  -0.280979   0.000387   0.244953   0.001582
 483  14   4.296205   6.883694  -0.625926   0.000043   0.244953   0.000176
 484   6   3.639445   7.996782   0.070727  -0.000038   0.110649  -0.000343
 485   9   4.848490   8.134676   0.087861   0.000313   0.110649   0.002832
 486  20   3.662063   8.275717   0.195558  -0.000181   0.110649  -0.001637
 487   9   5.447723   8.131610  -0.366882   0.000028   0.059424   0.000464
 488   6   3.668872   7.894098  -0.259455   0.000304   0.086986   0.003490
 489  14   2.253296   5.119299  -1.487713  -0.000068   0.198750  -0.000343
 490  14   3.230800   6.175059  -1.275122  -0.000830   0.407416  -0.002037
 491   6   1.801563   6.147320  -0.998663   0.000995   0.544087   0.001828
 492   6   2.974524   7.258705  -0.646567   0.000762   0.280183   0.002718
 493   6  -1.385105   3.667257   2.874689   0.000178   0.086703   0.002057
 494  16  -1.250603   2.778782   2.492902   0.000185   0.086703   0.002135
 495  19  -1.522798   3.760772   2.618030  -0.000012   0.086703  -0.000143
 496  18   1.819882   7.933222   6.185475  -0.000031   0.070588  -0.000441
 497  18   0.713118   8.033668   5.966522  -0.000144   0.157223  -0.000915
 498  18  -0.484990   7.426553   5.705296  -0.000280   0.157223  -0.001782
 499  18  -1.053553   6.191767   5.549324  -0.000125   0.157223  -0.000793
 500  18  -0.749215   4.857822   5.565365  -0.000226   0.157223  -0.001435
 501   6   1.509345   8.269291   5.791027   0.000121   0.154282   0.000782
 502   6   0.015869   8.075129   5.484423  -0.000008   0.154282  -0.000055
 503   6  -1.034086   6.980464   5.236477   0.000002   0.154282   0.000012
 504   6  -1.191119   5.453833   5.153314   0.000200   0.154282   0.001299
 505   6  -0.678212   4.315647   5.217875   0.000079   0.086238   0.000919
 506  19  -1.872205   4.365539   2.827490  -0.000016   0.066437  -0.000234
 507  19  -2.165287   5.381826   3.011354  -0.000097   0.146352  -0.000660
 508  19  -2.189931   6.632006   2.654994  -0.000187   0.146352  -0.001277
 509  19  -1.813454   7.469717   1.734638  -0.000246   0.146352  -0.001680
 510  19  -1.180413   7.573303   0.603674  -0.000107   0.146352  -0.000731
 511  19  -0.533875   6.902990  -0.303641  -0.000168   0.146352  -0.001148
 512  19  -0.122093   5.716158  -0.638926  -0.000283   0.146352  -0.001935
 513   6  -1.818308   4.703724   3.304875   0.000116   0.146742   0.000787
 514   6  -2.078872   6.141316   3.297848   0.000101   0.146742   0.000685
 515   6  -1.870967   7.375095   2.543409   0.000022   0.146742   0.000152
 516   6  -1.274421   7.931328   1.331240   0.000084   0.146742   0.000570
 517   6  -0.518290   7.596437   0.126778   0.000147   0.146742   0.001002
 518   6   0.107093   6.499010  -0.607501   0.000006   0.146742   0.000040
 519   6   0.382990   5.352058  -0.719847  -0.000004   0.081167  -0.000054
 520  20   2.897996   8.482825   0.018292  -0.000169   0.067687  -0.002494
 521  20   1.868493   8.843680   0.121308  -0.000190   0.149849  -0.001269
 522  20   0.901799   9.340371   0.880520  -0.000149   0.149849  -0.000991
 523  20   0.618334   9.727449   2.116408  -0.000236   0.149849  -0.001577
 524  20   1.131966   9.849424   3.332511  -0.000229   0.149849  -0.001528
 525  20   1.981215   9.734710   4.015388  -0.000014   0.067687  -0.000209
 526   6   2.379270   8.252414  -0.150890  -0.000107   0.148770  -0.000722
 527   6   1.059499   8.787521   0.285484   0.000161   0.148770   0.001082
 528   6   0.319055   9.310960   1.467141   0.000102   0.148770   0.000682
 529   6   0.455378   9.612462   2.919404  -0.000002   0.148770  -0.000015
 530   6   1.413706   9.570912   4.058895   0.000042   0.148770   0.000284
 531   7   3.199364   3.576468   6.638182   0.000003   0.333325   0.000008
 532  17   2.431442   2.854417   6.345763  -0.000003   0.333325  -0.000008
 533  18   2.205962   3.994520   6.453388  -0.000008   0.333325  -0.000024
 534  17   3.905126   0.857897   6.395986   0.000088   0.288545   0.000305
 535  17   3.003449   1.710421   6.688952  -0.000694   0.577198  -0.001203
 536   7   4.649991   2.193125   6.935715  -0.000053   0.577198  -0.000092
 537   7   3.754784   3.084042   7.110412   0.000098   0.288545   0.000341
 538  18   2.134798   4.733688   6.971363  -0.000131   0.289020  -0.000453
 539  18   2.621127   5.914528   6.990910  -0.000400   0.578154  -0.000691
 540   7   3.725469   4.604862   7.256565  -0.000275   0.578154  -0.000476
 541   7   4.228098   5.774419   7.152726   0.000309   0.289020   0.001071
 542  18   2.742046   7.535875   6.433049   0.000633   0.354339   0.001785
 543   8   4.156886   8.493970   6.122431   0.000051   0.354339   0.000144
 544  20   2.745760   9.984000   3.905876  -0.000198   0.246797  -0.000804
 545  20   3.245404  10.256619   2.746149  -0.001985   0.494370  -0.004015
 546   8   4.074360  10.301108   4.000119  -0.001986   0.494370  -0.004018
 547   8   4.597802  10.453562   2.828923  -0.000197   0.246797  -0.000798
 548   9   7.263790   5.671105  -0.742268  -0.000005   0.333259  -0.000015
 549  11   7.489544   4.529136  -0.848978   0.000000   0.333259   0.000000
 550  14   6.497551   4.949251  -1.034392   0.000002   0.333259   0.000005
 551  11   8.309684   4.462597  -1.078934   0.000034   0.272231   0.000125
 552  11   9.331866   4.617766  -0.577424   0.000225   0.544136   0.000414
 553   9   8.393326   6.146009  -0.763782  -0.000130   0.544136  -0.000240
 554   9   9.369636   6.283815  -0.173634   0.000456   0.272231   0.001674
 555  14   4.696261   6.650362  -1.183993   0.000330   0.288966   0.001141
 556  14   5.600628   5.796292  -1.476931  -0.000269   0.578052  -0.000465
 557   9   6.134464   7.355523  -0.942854  -0.000414   0.578052  -0.000717
 558   9   7.032333   6.462969  -1.116944  -0.000125   0.288966  -0.000434
 559  20   3.773136   8.973698   0.329739   0.000039   0.356183   0.000110
 560   9   5.429338   8.692593  -0.100667   0.000633   0.356183   0.001777
 561  13  11.524548   4.779332   3.350384   0.000255   0.266171   0.000957
 562  13  11.467021   4.653487   4.577479  -0.000777   0.532526  -0.001460
 563  13  10.573983   4.368310   5.745853  -0.000659   0.532526  -0.001238
 564  10  11.254648   6.170135   3.956879  -0.000369   0.532526  -0.000694
 565  10  10.847994   5.956876   5.382744  -0.000889   0.532526  -0.001669
 566  10   9.909615   5.700788   6.143516  -0.000014   0.266171  -0.000052
 567  14   6.153153   4.376833  -1.606476   0.000081   0.288548   0.000282
 568  14   5.665171   3.198330  -1.627157  -0.000038   0.577208  -0.000066
 569  11   7.379113   3.335035  -1.412773  -0.000697   0.577208  -0.001207
 570  11   6.874846   2.167706  -1.310391   0.000085   0.288548   0.000295
 571  15   5.453952   0.168569  -0.577422   0.000216   0.358633   0.000602
 572  11   7.044376   0.834539  -0.760949   0.000690   0.358633   0.001925
 573  15   5.806668  -1.636032   1.173987  -0.000806   0.246270  -0.003272
 574  15   5.305753  -1.905123   2.330949  -0.001593   0.493303  -0.003230
 575  12   6.766530  -1.600228   2.149510  -0.001594   0.493303  -0.003231
 576  12   6.242021  -1.749651   3.317606  -0.000719   0.246270  -0.002918
 577  17   4.230768  -0.312395   5.616314   0.000694   0.357408   0.001942
 578  12   5.948992  -0.286140   5.373196   0.000219   0.357408   0.000612
 579  19  -0.491103   4.262343  -0.410779   0.000019   0.265984   0.000072
 580  19  -1.429860   4.005462   0.347756  -0.000890   0.532150  -0.001673
 581  19  -1.838960   3.790537   1.771574  -0.000346   0.532150  -0.000650
 582  16  -0.590020   2.729675  -0.282562  -0.000685   0.532150  -0.001288
 583  16  -1.484324   2.443217   0.883190  -0.000775   0.532150  -0.001456
 584  16  -1.544384   2.315881   2.109079   0.000213   0.265984   0.000802
 585  18  -0.003111   3.856959   5.922783   0.000462   0.273618   0.001689
 586  18   0.977931   3.994817   6.518081  -0.000174   0.546919  -0.000319
 587  17   0.676031   2.287903   6.024970   0.000245   0.546919   0.000447
 588  17   1.703619   2.443420   6.530644   0.000032   0.273618   0.000116
 =====================================================

              3632661  WORDS OF DYNAMIC MEMORY USED
 EXECUTION OF GAMESS TERMINATED NORMALLY Wed Nov 23 04:11:49 2016
 DDI: 263640 bytes (0.3 MB / 0 MWords) used by master data server.

 ----------------------------------------
 CPU timing information for all processes
 ========================================
 0: 1519.748 + 0.552 = 1520.300
 ----------------------------------------
 ddikick.x: exited gracefully.
