----- GAMESS execution script -----

          ******************************************************
          *         GAMESS VERSION =  5 DEC 2014 (R1)          *
          *             FROM IOWA STATE UNIVERSITY             *
          * M.W.SCHMIDT, K.K.BALDRIDGE, J.A.BOATZ, S.T.ELBERT, *
          *   M.S.GORDON, J.H.JENSEN, S.KOSEKI, N.MATSUNAGA,   *
          *          K.A.NGUYEN, S.J.SU, T.L.WINDUS,           *
          *       TOGETHER WITH M.DUPUIS, J.A.MONTGOMERY       *
          *         J.COMPUT.CHEM.  14, 1347-1363(1993)        *
          **************** 64 BIT LINUX VERSION ****************

 EXECUTION OF GAMESS BEGUN Wed Nov 23 04:11:52 2016

            ECHO OF THE FIRST FEW INPUT CARDS -
 INPUT CARD>! SELECT RESTRICTED HARTREE-FOCK AS DEFAULT                                     
 INPUT CARD>$contrl scftyp=rhf $end                                                         
 INPUT CARD>                                                                                
 INPUT CARD>! THEORY: HF OR DFT                                                             
 INPUT CARD> $contrl mplevl=0 $end                                                          
 INPUT CARD>                                                                                
 INPUT CARD> $system timlim=10000 mwords=20 $end                                            
 INPUT CARD> $SCF DIRSCF=.TRUE. $end                                                        
 INPUT CARD>                                                                                
 INPUT CARD>                                                                                
 INPUT CARD>! BASIS SETS                                                                    
 INPUT CARD>! 6-311G(d,p)                                                                   
 INPUT CARD> $BASIS GBASIS=N311 NGAUSS=6 NDFUNC=1 NPFUNC=1 $END                             
 INPUT CARD>                                                                                
 INPUT CARD>! One of the following                                                          
 INPUT CARD> $guess guess=HUCKEL $end                                                       
 INPUT CARD>                                                                                
 INPUT CARD> $statpt projct=.FALSE. $end                                                    
 INPUT CARD> $STATPT IFREEZ(1)=1,2,3 $END                                                   
 INPUT CARD>                                                                                
 INPUT CARD>! Optimize the geometry with COSMO effects                                      
 INPUT CARD> $statpt opttol=0.0005 nstep=50 $end                                            
 INPUT CARD> $contrl nzvar=1 $end                                                           
 INPUT CARD> $zmat dlc=.t. auto=.t. $end                                                    
 INPUT CARD> $contrl runtyp=OPTIMIZE maxit=200 $end                                         
 INPUT CARD>                                                                                
 INPUT CARD>! Run COSMO on perfect conductor                                                
 INPUT CARD> $COSGMS PRFCND=.TRUE. $end                                                     
 INPUT CARD>                                                                                
 INPUT CARD>! Specifying RSOLV                                                              
 INPUT CARD> $COSGMS COSRAD = 1.4 $end                                                      
 INPUT CARD>                                                                                
 INPUT CARD>! available memory                                                              
 INPUT CARD> $SYSTEM MWORDS=40 $END                                                         
 INPUT CARD>                                                                                
 INPUT CARD> $DATA                                                                          
 INPUT CARD>http://cactus.nci.nih.gov/chemical/structure/2,3-DIMETHYLHEXANE/file?format=sdf&
 INPUT CARD>C1                                                                              
 INPUT CARD>C      6.0      1.6017000000    1.7648000000    0.0852000000                    
 INPUT CARD>C      6.0      1.5634000000    0.2960000000   -0.3412000000                    
 INPUT CARD>C      6.0      2.8140000000   -0.4180000000    0.1757000000                    
 INPUT CARD>C      6.0      0.3168000000   -0.3721000000    0.2424000000                    
 INPUT CARD>C      6.0     -0.9338000000    0.3418000000   -0.2746000000                    
 INPUT CARD>C      6.0     -2.1731000000   -0.2446000000    0.4044000000                    
 INPUT CARD>C      6.0     -3.4237000000    0.4694000000   -0.1125000000                    
 INPUT CARD>C      6.0      0.2785000000   -1.8410000000   -0.1841000000                    
 INPUT CARD>H      1.0      2.4898000000    2.2408000000   -0.3305000000                    
 INPUT CARD>H      1.0      0.7108000000    2.2735000000   -0.2830000000                    
 INPUT CARD>H      1.0      1.6319000000    1.8267000000    1.1731000000                    
 INPUT CARD>H      1.0      1.5332000000    0.2341000000   -1.4290000000                    
   40000000 WORDS OF MEMORY AVAILABLE

     BASIS OPTIONS
     -------------
     GBASIS=N311         IGAUSS=       6      POLAR=POPN311 
     NDFUNC=       1     NFFUNC=       0     DIFFSP=       F
     NPFUNC=       1      DIFFS=       F     BASNAM=        


     RUN TITLE
     ---------
 http://cactus.nci.nih.gov/chemical/structure/2,3-DIMETHYLHEXANE/file?format=sdf&

 THE POINT GROUP OF THE MOLECULE IS C1      
 THE ORDER OF THE PRINCIPAL AXIS IS     0

 ATOM      ATOMIC                      COORDINATES (BOHR)
           CHARGE         X                   Y                   Z
 C           6.0     3.0267741145        3.3349884231        0.1610046542
 C           6.0     2.9543976092        0.5593588924       -0.6447745070
 C           6.0     5.3176889294       -0.7899054629        0.3320248560
 C           6.0     0.5986651929       -0.7031670400        0.4580695794
 C           6.0    -1.7646261273        0.6459083426       -0.5189187562
 C           6.0    -4.1065635439       -0.4622269766        0.7642051894
 C           6.0    -6.4698548642        0.8870373786       -0.2125941736
 C           6.0     0.5262886876       -3.4789855434       -0.3478985543
 H           1.0     4.7050397642        4.2344979933       -0.6245544389
 H           1.0     1.3432172321        4.2962920331       -0.5347924545
 H           1.0     3.0838438394        3.4519624618        2.2168375562
 H           1.0     2.8973278844        0.4423848537       -2.7004184365
 H           1.0     5.2660994100       -2.7673147364       -0.2420738990
 H           1.0     6.9959545791        0.1096041073       -0.4535342371
 H           1.0     5.3745696817       -0.6729314242        2.3878577581
 H           1.0     0.6557349177       -0.5863819740        2.5137135089
 H           1.0    -1.6336681164        2.6565767935       -0.0907068474
 H           1.0    -1.9105129736        0.3858820467       -2.5569882340
 H           1.0    -4.2375215549       -2.4727064549        0.3361822532
 H           1.0    -3.9606766977       -0.2022006807        2.8022746672
 H           1.0    -6.3390858258        2.8975168570        0.2154287626
 H           1.0    -6.6159306830        0.6270110827       -2.2506636514
 H           1.0    -8.1384829113        0.0975098610        0.7014662866
 H           1.0     2.2098455700       -4.4401001808        0.3480875269
 H           1.0    -1.1519769621       -4.3784951136        0.4378495114
 H           1.0     0.4692189628       -3.5959595820       -2.4035424838

          INTERNUCLEAR DISTANCES (ANGS.)




     $CONTRL OPTIONS
     ---------------
 SCFTYP=RHF          RUNTYP=OPTIMIZE     EXETYP=RUN     
 MPLEVL=       0     CITYP =NONE         CCTYP =NONE         VBTYP =NONE    
 DFTTYP=NONE         TDDFT =NONE    
 MULT  =       1     ICHARG=       0     NZVAR =       1     COORD =UNIQUE  
 PP    =NONE         RELWFN=NONE         LOCAL =NONE         NUMGRD=       F
 ISPHER=      -1     NOSYM =       0     MAXIT =     200     UNITS =ANGS    
 PLTORB=       F     MOLPLT=       F     AIMPAC=       F     FRIEND=        
 NPRINT=       7     IREST =       0     GEOM  =INPUT   
 NORMF =       0     NORMP =       0     ITOL  =      20     ICUT  =       9
 INTTYP=BEST         GRDTYP=BEST         QMTTOL= 1.0E-06

     $SYSTEM OPTIONS
     ---------------
  REPLICATED MEMORY=    40000000 WORDS (ON EVERY NODE).
 DISTRIBUTED MEMDDI=           0 MILLION WORDS IN AGGREGATE,
 MEMDDI DISTRIBUTED OVER   1 PROCESSORS IS           0 WORDS/PROCESSOR.
 TOTAL MEMORY REQUESTED ON EACH PROCESSOR=    40000000 WORDS.
 TIMLIM=       10000.00 MINUTES, OR       6.9 DAYS.
 PARALL= F  BALTYP=  DLB     KDIAG=    0  COREFL= F
 MXSEQ2=     300 MXSEQ3=     150  mem10=         0

     $COSGMS OPTIONS
     ---------------
     EPSI  =   INFTY     NSPA  =      92     COSRAD=    1.40
     DISEX =   10.00     OUTCHG=DBLCAV       COSBUG=       F
     COSWRT=       F     DCOSMO=       F

     SYMMETRY COORDINATES WILL NOT BE USED FOR 
     THE COSMO CALCULATION, EVEN IF SPECIFIED:
         -- SWITCHING TO C1 POINT GROUP --


     DEFINITION OF CAVITY
     ---------------------------
     ATOM         COORDINATES           RADIUS 
     1    3.0268    3.3350    0.1610    2.0000
     2    2.9544    0.5594   -0.6448    2.0000
     3    5.3177   -0.7899    0.3320    2.0000
     4    0.5987   -0.7032    0.4581    2.0000
     5   -1.7646    0.6459   -0.5189    2.0000
     6   -4.1066   -0.4622    0.7642    2.0000
     7   -6.4699    0.8870   -0.2126    2.0000
     8    0.5263   -3.4790   -0.3479    2.0000
     9    4.7050    4.2345   -0.6246    1.3000
    10    1.3432    4.2963   -0.5348    1.3000
    11    3.0838    3.4520    2.2168    1.3000
    12    2.8973    0.4424   -2.7004    1.3000
    13    5.2661   -2.7673   -0.2421    1.3000
    14    6.9960    0.1096   -0.4535    1.3000
    15    5.3746   -0.6729    2.3879    1.3000
    16    0.6557   -0.5864    2.5137    1.3000
    17   -1.6337    2.6566   -0.0907    1.3000
    18   -1.9105    0.3859   -2.5570    1.3000
    19   -4.2375   -2.4727    0.3362    1.3000
    20   -3.9607   -0.2022    2.8023    1.3000
    21   -6.3391    2.8975    0.2154    1.3000
    22   -6.6159    0.6270   -2.2507    1.3000
    23   -8.1385    0.0975    0.7015    1.3000
    24    2.2098   -4.4401    0.3481    1.3000
    25   -1.1520   -4.3785    0.4378    1.3000
    26    0.4692   -3.5960   -2.4035    1.3000

          ----------------
          PROPERTIES INPUT
          ----------------

     MOMENTS            FIELD           POTENTIAL          DENSITY
 IEMOM =       1   IEFLD =       0   IEPOT =       0   IEDEN =       0
 WHERE =COMASS     WHERE =NUCLEI     WHERE =NUCLEI     WHERE =NUCLEI  
 OUTPUT=BOTH       OUTPUT=BOTH       OUTPUT=BOTH       OUTPUT=BOTH    
 IEMINT=       0   IEFINT=       0                     IEDINT=       0
                                                       MORB  =       0
          EXTRAPOLATION IN EFFECT
          SOSCF IN EFFECT
 ORBITAL PRINTING OPTION: NPREO=     1   260     2     1

     -------------------------------
     INTEGRAL TRANSFORMATION OPTIONS
     -------------------------------
     NWORD  =            0
     CUTOFF = 1.0E-09     MPTRAN =       0
     DIRTRF =       T     AOINTS =DUP     

          ----------------------
          INTEGRAL INPUT OPTIONS
          ----------------------
 NOPK  =       1 NORDER=       0 SCHWRZ=       T


 -----------------------------------------------
  STATISTICS ON AUTOMATIC COORDINATE GENERATION 
 -----------------------------------------------
  NUMBER OF USER SPECIFIED BONDS                             0
  NUMBER OF BONDS                                           25
  NUMBER OF ANGLES                                          48
  NUMBER OF TORSIONS                                        63
  NUMBER OF EXTRA COORD.                                     0
  NUMBER OF EXTRA COORD. FOR CONSTRAINTS                     0
  NUMBER OF CONSTRAINED COORD.                               0

  TOTAL NUMBER OF PRIMITIVES                               136
 -----------------------------------------------

   --- ENCODED Z MATRIX ---
 COORD  TYPE   I   J   K   L   M   N
    1      1    1   9
    2      1    1  11
    3      1    1  10
    4      1    1   2
    5      1    2   4
    6      1    2   3
    7      1    2  12
    8      1    3  14
    9      1    3  13
   10      1    3  15
   11      1    4  16
   12      1    4   8
   13      1    4   5
   14      1    5   6
   15      1    5  18
   16      1    5  17
   17      1    6   7
   18      1    6  20
   19      1    6  19
   20      1    7  23
   21      1    7  22
   22      1    7  21
   23      1    8  26
   24      1    8  25
   25      1    8  24
   26      2    1   2   3
   27      2    1   2  12
   28      2    1   2   4
   29      2    2   4  16
   30      2    2   4   5
   31      2    2   4   8
   32      2    2   3  14
   33      2    2   1  10
   34      2    2   1   9
   35      2    2   1  11
   36      2    2   3  13
   37      2    2   3  15
   38      2    3   2   4
   39      2    3   2  12
   40      2    4   5  17
   41      2    4   5   6
   42      2    4   2  12
   43      2    4   8  25
   44      2    4   8  26
   45      2    4   8  24
   46      2    4   5  18
   47      2    5   4   8
   48      2    5   4  16
   49      2    5   6  19
   50      2    5   6  20
   51      2    5   6   7
   52      2    6   5  18
   53      2    6   7  22
   54      2    6   7  23
   55      2    6   7  21
   56      2    6   5  17
   57      2    7   6  19
   58      2    7   6  20
   59      2    8   4  16
   60      2    9   1  10
   61      2    9   1  11
   62      2   10   1  11
   63      2   13   3  15
   64      2   13   3  14
   65      2   14   3  15
   66      2   17   5  18
   67      2   19   6  20
   68      2   21   7  22
   69      2   21   7  23
   70      2   22   7  23
   71      2   24   8  25
   72      2   24   8  26
   73      2   25   8  26
   74      3    1   2   4   5
   75      3    1   2   4   8
   76      3    1   2   3  15
   77      3    1   2   4  16
   78      3    1   2   3  13
   79      3    1   2   3  14
   80      3    2   4   8  24
   81      3    2   4   8  25
   82      3    2   4   8  26
   83      3    2   4   5  17
   84      3    2   4   5  18
   85      3    2   4   5   6
   86      3    3   2   1  10
   87      3    3   2   1   9
   88      3    3   2   4   8
   89      3    3   2   4   5
   90      3    3   2   4  16
   91      3    3   2   1  11
   92      3    4   2   1  10
   93      3    4   2   3  15
   94      3    4   2   1  11
   95      3    4   2   3  13
   96      3    4   2   1   9
   97      3    4   5   6  19
   98      3    4   5   6  20
   99      3    4   5   6   7
  100      3    4   2   3  14
  101      3    5   6   7  21
  102      3    5   6   7  22
  103      3    5   6   7  23
  104      3    5   4   2  12
  105      3    5   4   8  24
  106      3    5   4   8  26
  107      3    5   4   8  25
  108      3    6   5   4   8
  109      3    6   5   4  16
  110      3    7   6   5  17
  111      3    7   6   5  18
  112      3    8   4   5  17
  113      3    8   4   2  12
  114      3    8   4   5  18
  115      3    9   1   2  12
  116      3   10   1   2  12
  117      3   11   1   2  12
  118      3   12   2   3  15
  119      3   12   2   3  13
  120      3   12   2   4  16
  121      3   12   2   3  14
  122      3   16   4   5  17
  123      3   16   4   5  18
  124      3   16   4   8  24
  125      3   16   4   8  26
  126      3   16   4   8  25
  127      3   17   5   6  20
  128      3   17   5   6  19
  129      3   18   5   6  20
  130      3   18   5   6  19
  131      3   19   6   7  21
  132      3   19   6   7  23
  133      3   19   6   7  22
  134      3   20   6   7  21
  135      3   20   6   7  23
  136      3   20   6   7  22

          INDEP./SYM. INTERNAL COORDINATES
          --------------------------------
 CRD  1=  -0.1976 ( 28) -0.3695 ( 30)  0.1407 ( 31)  0.1960 ( 38) -0.1635 ( 40)
           0.4840 ( 41) -0.1262 ( 46)  0.1979 ( 47)  0.1032 ( 49) -0.3206 ( 51)
          -0.1257 ( 52) -0.1516 ( 56) -0.1139 ( 59)  0.1177 ( 80)  0.1065 ( 81)
           0.1195 ( 82) -0.1275 (105) -0.1257 (106) -0.1387 (107)
 CRD  2=   0.1006 (  5)  0.2066 ( 13)  0.1693 ( 14)  0.1108 ( 17)  0.3159 ( 28)
           0.1586 ( 30) -0.3657 ( 31) -0.1905 ( 38) -0.1223 ( 40)  0.4024 ( 41)
           0.1688 ( 47) -0.1630 ( 52) -0.1030 ( 56)  0.1079 ( 76) -0.1335 ( 83)
          -0.1708 ( 84) -0.1788 ( 85) -0.1182 ( 93) -0.1345 ( 95) -0.1310 (100)
           0.1140 (112)
 CRD  3=   0.2590 (  5) -0.2099 ( 26)  0.1694 ( 31)  0.2080 ( 38)  0.1440 ( 41)
          -0.1120 ( 42) -0.1451 ( 46) -0.3357 ( 47)  0.1682 ( 48)  0.3148 ( 74)
           0.1037 ( 77) -0.1421 ( 85) -0.1134 ( 87)  0.2262 ( 89)  0.1048 ( 94)
           0.1406 ( 97)  0.1569 ( 98)  0.2527 ( 99)  0.2264 (104) -0.1808 (108)
           0.1026 (111)
 CRD  4=  -0.1764 (  5) -0.1331 (  6) -0.3459 ( 13) -0.2295 ( 14) -0.2169 ( 17)
           0.1459 ( 26)  0.1261 ( 28) -0.1100 ( 36) -0.2607 ( 38) -0.1045 ( 47)
           0.1251 ( 49)  0.1466 ( 50) -0.4960 ( 51) -0.1442 ( 53)  0.1275 ( 57)
           0.1924 ( 58) -0.1013 ( 85)  0.1369 ( 89)  0.1056 ( 99)
 CRD  5=  -0.2449 (  5) -0.1436 ( 12)  0.1065 ( 13)  0.3343 ( 26) -0.2429 ( 28)
          -0.1395 ( 31)  0.1043 ( 34) -0.1602 ( 36)  0.1130 ( 37) -0.1561 ( 39)
           0.1202 ( 42) -0.1164 ( 45) -0.1366 ( 46)  0.1786 ( 51)  0.1345 ( 55)
          -0.1287 ( 57) -0.1455 ( 79)  0.2911 ( 88)  0.2783 ( 89)  0.1919 ( 90)
           0.1362 ( 97)  0.1153 ( 98)  0.1983 ( 99)  0.1055 (104)  0.1012 (112)
           0.1183 (113)
 CRD  6=  -0.1026 ( 14)  0.1921 ( 29) -0.2462 ( 30) -0.1405 ( 41)  0.1210 ( 46)
           0.1901 ( 47) -0.2132 ( 49)  0.2021 ( 51) -0.1291 ( 52)  0.2601 ( 56)
          -0.1782 ( 59)  0.1425 ( 80)  0.1103 ( 82) -0.1329 ( 83) -0.1464 ( 84)
          -0.3164 ( 85)  0.1333 ( 88) -0.1022 (100) -0.1511 (101) -0.1247 (102)
          -0.1301 (103) -0.2952 (108) -0.2127 (109) -0.1117 (112) -0.1252 (114)
 CRD  7=   0.1363 (  5)  0.3737 (  6) -0.2144 ( 12)  0.1141 ( 14)  0.2459 ( 26)
          -0.2000 ( 28)  0.1602 ( 30)  0.1073 ( 32) -0.2296 ( 33)  0.1144 ( 35)
           0.1194 ( 37) -0.1011 ( 43) -0.1257 ( 44) -0.1371 ( 47)  0.1211 ( 50)
          -0.1311 ( 52) -0.1029 ( 65) -0.1950 ( 74) -0.2954 ( 75) -0.2129 ( 77)
          -0.1662 ( 85)  0.1078 ( 96) -0.1190 (108) -0.1103 (109) -0.1146 (113)
 CRD  8=  -0.4190 (  4) -0.2457 (  5) -0.2564 ( 12) -0.1049 ( 14) -0.2079 ( 26)
           0.1338 ( 27) -0.2641 ( 31) -0.1496 ( 32) -0.1313 ( 34) -0.1508 ( 35)
           0.1341 ( 36)  0.2705 ( 38) -0.1331 ( 41) -0.1106 ( 42) -0.1543 ( 44)
          -0.1157 ( 45) -0.1101 ( 51)  0.1130 ( 60)  0.1208 ( 61) -0.1272 ( 83)
          -0.1166 ( 85)  0.1039 ( 92)  0.1004 ( 94)  0.1046 (108)  0.1264 (114)
 CRD  9=  -0.1492 (  5)  0.1930 ( 12) -0.1483 ( 13) -0.1021 ( 27) -0.1520 ( 30)
          -0.1098 ( 33)  0.1773 ( 35)  0.1249 ( 43) -0.2073 ( 44)  0.2380 ( 45)
          -0.1831 ( 46)  0.2273 ( 51)  0.2161 ( 55) -0.1499 ( 57) -0.1366 ( 74)
          -0.2624 ( 75) -0.1236 ( 77)  0.1618 ( 81) -0.1994 ( 88)  0.1230 ( 97)
           0.1982 ( 99) -0.1437 (105) -0.1126 (106)  0.1397 (110)  0.1191 (112)
          -0.1533 (113)
 CRD 10=   0.2741 (  4)  0.1692 (  5)  0.2921 (  6)  0.2601 ( 12)  0.1052 ( 13)
          -0.1590 ( 14) -0.1423 ( 17)  0.1099 ( 29) -0.1321 ( 31)  0.1856 ( 35)
           0.2824 ( 37)  0.1428 ( 38)  0.1578 ( 40) -0.2272 ( 41)  0.2558 ( 43)
           0.1347 ( 47) -0.1236 ( 51) -0.1004 ( 62) -0.1146 ( 63) -0.1154 ( 73)
          -0.1080 ( 86)  0.1198 ( 88)  0.1046 ( 90)  0.1050 ( 94)  0.1166 ( 96)
          -0.1095 (100)  0.1074 (108)
 CRD 11=  -0.1973 (  4)  0.1075 (  5)  0.3453 ( 12)  0.2127 ( 13)  0.1155 ( 16)
           0.1253 ( 32) -0.1575 ( 35) -0.1744 ( 37)  0.1021 ( 40)  0.2597 ( 44)
           0.1023 ( 47)  0.1039 ( 50) -0.1025 ( 51) -0.2931 ( 53)  0.2308 ( 55)
           0.1038 ( 58) -0.1206 ( 72) -0.1145 ( 73) -0.1480 ( 89)  0.1988 ( 99)
           0.1070 (100) -0.1132 (102) -0.1805 (103) -0.1349 (108) -0.1083 (109)
           0.1647 (111)
 CRD 12=   0.2784 (  4) -0.1698 (  5)  0.3637 (  6) -0.1434 ( 14)  0.1967 ( 32)
           0.3469 ( 33)  0.1222 ( 34) -0.2209 ( 35)  0.3698 ( 36) -0.2423 ( 37)
           0.1095 ( 39) -0.1763 ( 60) -0.2124 ( 64) -0.1347 ( 78)  0.1486 ( 86)
           0.1217 ( 91)
 CRD 13=  -0.2539 (  5)  0.1322 ( 12)  0.3158 ( 13) -0.3002 ( 14)  0.3579 ( 17)
          -0.1772 ( 34)  0.1331 ( 37)  0.1239 ( 40) -0.1450 ( 43)  0.2723 ( 45)
          -0.1020 ( 51)  0.2330 ( 53)  0.1478 ( 54)  0.1848 ( 57) -0.1107 ( 68)
          -0.1559 ( 70) -0.1135 ( 72) -0.1054 (110) -0.1186 (127)  0.1111 (130)
 CRD 14=  -0.1273 (  5)  0.1007 (  6) -0.1513 ( 12) -0.1848 ( 13)  0.1812 ( 14)
           0.2885 ( 17) -0.1533 ( 32)  0.1100 ( 33) -0.2414 ( 34)  0.2018 ( 35)
           0.2011 ( 36) -0.2092 ( 43)  0.2871 ( 44) -0.2179 ( 45) -0.2130 ( 53)
           0.3204 ( 54)  0.1592 ( 55)  0.1393 ( 58) -0.1176 ( 62) -0.1920 ( 69)
           0.1673 ( 71)  0.1072 (110)
 CRD 15=  -0.1480 (  4) -0.1087 (  5)  0.1710 (  6)  0.1069 ( 13) -0.1148 ( 14)
          -0.3661 ( 17) -0.3853 ( 34)  0.1876 ( 35)  0.1102 ( 37)  0.1321 ( 41)
          -0.2163 ( 43)  0.2050 ( 44) -0.3946 ( 54) -0.1320 ( 57)  0.1213 ( 60)
           0.1576 ( 69)  0.1689 ( 70)
 CRD 16=   0.2535 (  4) -0.2146 (  5) -0.1880 (  6) -0.1237 (  8)  0.1656 ( 13)
          -0.1652 ( 17) -0.4881 ( 32) -0.1124 ( 33)  0.2437 ( 34)  0.1083 ( 35)
           0.2852 ( 36) -0.2461 ( 43)  0.2195 ( 45) -0.1570 ( 61) -0.1057 ( 63)
           0.1979 ( 65) -0.1175 ( 72)
 CRD 17=   0.1759 (  5) -0.1104 (  6) -0.1564 ( 12) -0.3676 ( 14)  0.1760 ( 17)
          -0.2985 ( 33)  0.1043 ( 34)  0.2536 ( 35)  0.1753 ( 36) -0.2171 ( 37)
           0.1556 ( 43) -0.2871 ( 45) -0.1032 ( 50)  0.1466 ( 53) -0.2216 ( 54)
           0.2437 ( 55)  0.1157 ( 58) -0.1469 ( 61)  0.1157 ( 65) -0.1729 ( 68)
           0.1373 ( 72)
 CRD 18=  -0.1822 ( 13) -0.1318 ( 14)  0.1104 ( 17) -0.3085 ( 32)  0.2819 ( 33)
          -0.2970 ( 35)  0.3978 ( 37)  0.1139 ( 42)  0.1565 ( 43) -0.1057 ( 49)
          -0.1704 ( 54)  0.2725 ( 55) -0.1113 ( 60)  0.1276 ( 61) -0.1287 ( 63)
           0.1374 ( 64) -0.1196 ( 68) -0.1140 ( 92) -0.1073 ( 94) -0.1416 ( 96)
 CRD 19=   0.1132 (  5) -0.1915 ( 12)  0.1369 ( 13)  0.1130 ( 25) -0.1406 ( 36)
          -0.2077 ( 43) -0.2800 ( 44)  0.2969 ( 45)  0.2105 ( 46)  0.1662 ( 49)
          -0.1747 ( 50) -0.2753 ( 53)  0.3127 ( 55) -0.1375 ( 57)  0.1773 ( 58)
          -0.1034 ( 69)  0.1132 ( 70)  0.2154 ( 73) -0.1625 ( 97) -0.1724 ( 98)
           0.1289 (101)  0.1293 (102)  0.1060 (111)
 CRD 20=   0.1273 ( 13) -0.1284 ( 23)  0.1788 ( 33) -0.3580 ( 34)  0.2196 ( 35)
           0.1938 ( 36) -0.2114 ( 37)  0.1561 ( 42)  0.2507 ( 43) -0.3757 ( 44)
           0.1019 ( 45) -0.1090 ( 49)  0.1133 ( 50) -0.1319 ( 53)  0.1156 ( 54)
          -0.1576 ( 62)  0.1146 ( 65) -0.1500 ( 71)  0.1118 ( 72) -0.1124 ( 92)
           0.1203 ( 93)  0.1331 ( 95)  0.1368 (100)
 CRD 21=  -0.1063 (  2) -0.1057 (  4)  0.1686 (  5) -0.1302 ( 15)  0.1340 ( 16)
           0.1223 ( 21) -0.1281 ( 22) -0.1353 ( 27) -0.2076 ( 32) -0.2007 ( 35)
           0.2554 ( 36)  0.1307 ( 42)  0.1795 ( 49) -0.1985 ( 50)  0.2679 ( 53)
          -0.2950 ( 55) -0.1602 ( 57)  0.1705 ( 58) -0.1024 ( 63)  0.1301 ( 69)
          -0.1381 ( 70)  0.1001 ( 78)  0.1414 ( 99)  0.1379 (101)  0.1344 (102)
           0.1443 (103)  0.1008 (110)  0.1042 (111)
 CRD 22=  -0.1245 (  5)  0.1066 ( 10)  0.1627 ( 13) -0.1263 ( 17) -0.1252 ( 18)
          -0.1416 ( 29)  0.1185 ( 31) -0.1076 ( 32) -0.1669 ( 33)  0.1316 ( 34)
           0.2068 ( 37)  0.1168 ( 39) -0.1213 ( 40)  0.2579 ( 43) -0.1876 ( 45)
           0.1285 ( 46)  0.1553 ( 48) -0.1516 ( 50)  0.1066 ( 51) -0.1185 ( 52)
          -0.2337 ( 53)  0.2491 ( 54) -0.1485 ( 55)  0.1086 ( 56) -0.1424 ( 57)
           0.1693 ( 68)  0.1232 ( 72) -0.1311 ( 80) -0.1279 ( 81) -0.1080 ( 82)
          -0.1012 ( 97) -0.1494 (105) -0.1263 (106) -0.1462 (107)
 CRD 23=  -0.1557 (  5)  0.1492 ( 12)  0.2303 ( 14)  0.1373 ( 16)  0.1032 ( 19)
           0.1106 ( 21)  0.1292 ( 27) -0.1129 ( 28) -0.1177 ( 34)  0.1106 ( 35)
          -0.1021 ( 36) -0.1906 ( 40)  0.1710 ( 43)  0.1699 ( 46)  0.2293 ( 49)
          -0.1250 ( 51) -0.1480 ( 52)  0.2294 ( 53) -0.1711 ( 54)  0.2399 ( 56)
          -0.1613 ( 57)  0.1897 ( 58)  0.1003 ( 59) -0.1135 ( 62) -0.1107 ( 68)
          -0.1168 ( 76) -0.1156 ( 78) -0.1237 ( 79) -0.1001 ( 97) -0.1750 (109)
           0.1418 (110)  0.1293 (111)
 CRD 24=   0.1169 (  6)  0.1125 ( 13)  0.3672 ( 14)  0.1964 ( 15)  0.1062 ( 16)
           0.1430 ( 18)  0.1726 ( 19) -0.1133 ( 30) -0.1507 ( 33)  0.1196 ( 36)
           0.1307 ( 39) -0.1737 ( 41) -0.1135 ( 44)  0.1044 ( 49)  0.1712 ( 50)
          -0.2163 ( 51)  0.1443 ( 52)  0.1206 ( 53) -0.2255 ( 54)  0.2087 ( 55)
          -0.1086 ( 63) -0.1167 ( 66) -0.1296 ( 67) -0.1517 ( 68)  0.1063 ( 86)
           0.1187 ( 87)  0.1118 ( 91)  0.1176 (104)  0.1346 (113)
 CRD 25=  -0.1508 (  4) -0.1097 (  7)  0.1166 ( 11)  0.1913 ( 12) -0.2167 ( 13)
          -0.1380 ( 16) -0.1345 ( 33)  0.2026 ( 36) -0.2199 ( 40)  0.1582 ( 45)
           0.1192 ( 46) -0.1834 ( 52)  0.1371 ( 56)  0.1402 ( 59)  0.1081 ( 62)
          -0.1004 ( 71) -0.1355 ( 72)  0.1733 ( 77)  0.1498 ( 89)  0.2249 ( 90)
           0.1700 (104)  0.1015 (105)  0.1122 (106)  0.1103 (107)  0.1077 (112)
           0.1136 (113)  0.1234 (114)  0.2452 (120)
 CRD 26=   0.1033 (  3) -0.3185 (  7)  0.3215 ( 11)  0.1517 ( 13) -0.2325 ( 18)
           0.2574 ( 19) -0.1012 ( 21)  0.1047 ( 22)  0.1288 ( 26)  0.1064 ( 33)
          -0.1437 ( 35) -0.1590 ( 37)  0.1421 ( 44) -0.1169 ( 47) -0.1190 ( 53)
           0.1273 ( 55)  0.1171 ( 61)  0.1171 ( 65) -0.1199 ( 73) -0.1523 ( 75)
          -0.1187 ( 77) -0.1057 ( 83) -0.1142 ( 84)  0.1263 ( 89) -0.1303 ( 99)
           0.1161 (101)  0.1161 (102)  0.1400 (103) -0.1676 (110) -0.1309 (111)
          -0.1029 (113)
 CRD 27=   0.1542 (  2)  0.1048 (  6)  0.3031 (  7) -0.1656 ( 11) -0.2131 ( 13)
          -0.1638 ( 15) -0.2313 ( 18)  0.2375 ( 19) -0.1509 ( 23) -0.1515 ( 33)
           0.1027 ( 37)  0.1730 ( 45) -0.1627 ( 46)  0.1105 ( 52)  0.1169 ( 60)
          -0.1281 ( 71)  0.1415 ( 75) -0.1018 ( 76)  0.1024 ( 77) -0.1014 ( 79)
          -0.1074 ( 81) -0.1272 ( 84) -0.1112 ( 94) -0.1302 ( 96)  0.1192 (103)
          -0.1587 (111) -0.1293 (114) -0.1098 (123)
 CRD 28=   0.2163 (  1)  0.2034 (  2)  0.2021 (  3) -0.3808 (  7) -0.1133 (  8)
          -0.1524 (  9) -0.3069 ( 10) -0.1193 ( 11)  0.2038 ( 15) -0.1671 ( 16)
           0.1897 ( 18) -0.1738 ( 19)  0.1247 ( 32) -0.1363 ( 33) -0.1228 ( 35)
           0.1394 ( 36)  0.1328 ( 62) -0.1558 ( 64) -0.1496 ( 86) -0.1480 ( 87)
          -0.1456 ( 91) -0.1327 ( 93) -0.1139 ( 95) -0.1430 (100)
 CRD 29=   0.1199 (  5)  0.4003 (  7) -0.1658 (  8) -0.1941 (  9) -0.1441 ( 10)
           0.6640 ( 11)  0.1975 ( 15)  0.1440 ( 23)  0.1019 ( 37) -0.1027 ( 96)
          -0.1117 (105)  0.1201 (112)
 CRD 30=   0.3358 (  1)  0.4340 (  2)  0.3834 (  3)  0.1271 (  4)  0.2726 (  7)
           0.2109 (  8)  0.2536 (  9)  0.2949 ( 10)  0.1030 ( 23) -0.1305 ( 32)
          -0.1311 ( 33) -0.1782 ( 34) -0.1116 ( 35)  0.1641 ( 60)  0.1454 ( 61)
           0.1115 ( 62)  0.1138 ( 64)
 CRD 31=   0.1815 ( 17)  0.4896 ( 20)  0.5103 ( 21)  0.5091 ( 22) -0.1706 ( 53)
          -0.1865 ( 54) -0.1712 ( 55)  0.1682 ( 68)  0.1803 ( 69)  0.1798 ( 70)
 CRD 32=  -0.1175 (  8) -0.1108 (  9) -0.1255 ( 10)  0.1726 ( 12) -0.1951 ( 15)
           0.1540 ( 16) -0.1440 ( 18)  0.1424 ( 19)  0.4566 ( 23)  0.4410 ( 24)
           0.4469 ( 25) -0.1425 ( 43) -0.1580 ( 44) -0.1538 ( 45)  0.1489 ( 71)
           0.1555 ( 72)  0.1499 ( 73)
 CRD 33=  -0.1615 (  1) -0.1695 (  2) -0.2214 (  3) -0.1253 (  4)  0.2187 (  6)
          -0.1300 (  7)  0.3895 (  8)  0.3400 (  9)  0.2348 ( 10)  0.1015 ( 11)
          -0.1444 ( 13)  0.1501 ( 15) -0.1045 ( 16)  0.1275 ( 23)  0.1075 ( 24)
           0.1902 ( 25) -0.1007 ( 43) -0.1171 ( 80) -0.1203 ( 81) -0.1016 ( 82)
          -0.1084 ( 86) -0.1121 ( 87) -0.1320 (105) -0.1165 (106) -0.1352 (107)
          -0.1043 (124) -0.1075 (126)
 CRD 34=   0.2443 (  1)  0.1313 (  3)  0.1333 (  4) -0.1699 (  7)  0.1003 (  8)
          -0.1196 ( 12) -0.1484 ( 15)  0.3107 ( 16) -0.1426 ( 18)  0.1747 ( 19)
          -0.2177 ( 24) -0.1122 ( 25)  0.1762 ( 56)  0.1219 ( 57)  0.1270 ( 76)
           0.1489 ( 78)  0.1462 ( 79)  0.1417 ( 83)  0.1060 ( 84) -0.1029 ( 86)
           0.1136 ( 95)  0.1314 ( 97)  0.1184 ( 98)  0.1109 (100) -0.1227 (105)
          -0.1028 (106) -0.1151 (107)  0.1824 (112)  0.1468 (114)  0.1100 (119)
           0.1073 (121)  0.1466 (122)  0.1109 (123)  0.1145 (127)  0.1276 (128)
 CRD 35=  -0.2085 (  1) -0.1139 (  4)  0.1036 (  8) -0.1023 ( 15)  0.1028 ( 46)
          -0.1309 ( 52) -0.1069 ( 59) -0.1271 ( 76) -0.1488 ( 78) -0.1527 ( 79)
           0.1467 ( 80)  0.1539 ( 81)  0.1330 ( 82)  0.1084 ( 83)  0.1434 ( 84)
          -0.1272 ( 92) -0.1656 ( 93) -0.1160 ( 94) -0.1873 ( 95) -0.1279 ( 96)
          -0.1912 (100)  0.1052 (105)  0.1124 (107) -0.1306 (115) -0.1299 (116)
          -0.1188 (117) -0.1677 (118) -0.1894 (119) -0.1933 (121)  0.1398 (122)
           0.1748 (123)  0.1413 (124)  0.1276 (125)  0.1485 (126)  0.1316 (129)
           0.1260 (130)
 CRD 36=  -0.2562 ( 18) -0.2569 ( 19)  0.6039 ( 20) -0.2699 ( 21) -0.2690 ( 22)
          -0.3186 ( 68)  0.1507 ( 69)  0.1503 ( 70)  0.1601 (101) -0.1604 (102)
           0.1305 (131) -0.1900 (133)  0.1895 (134) -0.1309 (136)
 CRD 37=  -0.2272 (  2)  0.2984 (  3) -0.4517 ( 24)  0.4973 ( 25)  0.1183 ( 60)
          -0.1612 ( 61)  0.2415 ( 72) -0.2588 ( 73) -0.1728 ( 82) -0.1104 ( 87)
          -0.1084 ( 96) -0.1721 (106) -0.1086 (115) -0.1765 (125)
 CRD 38=  -0.2736 (  1) -0.1606 (  2)  0.4689 (  3)  0.2339 (  8) -0.3638 (  9)
           0.1015 ( 10)  0.2542 ( 24) -0.1726 ( 25) -0.2429 ( 61)  0.1481 ( 62)
          -0.1226 ( 63)  0.1842 ( 65) -0.1350 ( 72)  0.1258 ( 76) -0.1055 ( 87)
           0.1491 ( 91)  0.1260 ( 93)  0.1480 ( 94) -0.1065 ( 96)  0.1578 (117)
           0.1341 (118)
 CRD 39=   0.2896 (  1) -0.3133 (  3)  0.3297 (  8) -0.5117 (  9)  0.1799 ( 10)
          -0.1166 ( 24)  0.1109 ( 25)  0.1697 ( 61) -0.1537 ( 62) -0.1750 ( 63)
           0.2719 ( 65)  0.1511 ( 76) -0.1367 ( 79) -0.1037 ( 91)  0.1553 ( 93)
          -0.1037 ( 94) -0.1325 (100) -0.1123 (117)  0.1676 (118) -0.1202 (121)
 CRD 40=  -0.1910 (  1)  0.2137 (  2)  0.2110 (  8) -0.2363 ( 10) -0.3514 ( 21)
           0.3545 ( 22)  0.3295 ( 23) -0.1884 ( 24) -0.1538 ( 25) -0.1164 ( 60)
           0.1054 ( 62) -0.1134 ( 63)  0.1287 ( 64)  0.1903 ( 69) -0.1921 ( 70)
          -0.1783 ( 71)  0.1033 ( 72) -0.1513 (103)  0.1047 (105)  0.1019 (124)
          -0.1501 (132) -0.1495 (135)
 CRD 41=  -0.1730 (  1)  0.1665 (  2)  0.2195 (  8) -0.1869 ( 10)  0.4153 ( 21)
          -0.4181 ( 22)  0.2623 ( 23) -0.1915 ( 24) -0.1178 ( 63)  0.1021 ( 64)
          -0.2261 ( 69)  0.2275 ( 70) -0.1428 ( 71)  0.1050 ( 72)  0.1659 (103)
           0.1570 (132)  0.1573 (135)
 CRD 42=  -0.1133 (  2) -0.3311 (  8)  0.4299 ( 10)  0.4219 ( 23) -0.2019 ( 24)
          -0.2180 ( 25)  0.1775 ( 63) -0.2392 ( 64) -0.2346 ( 71)  0.1074 ( 72)
           0.1266 ( 73)  0.1324 ( 78) -0.1187 ( 79)  0.1122 ( 80) -0.1355 ( 81)
           0.1253 ( 95) -0.1258 (100)  0.1183 (105) -0.1294 (107)  0.1241 (119)
          -0.1270 (121)  0.1164 (124) -0.1313 (126)
 CRD 43=  -0.3945 (  1)  0.4748 (  2) -0.1776 (  8) -0.1147 (  9)  0.2694 ( 10)
          -0.1728 ( 23)  0.2121 ( 25) -0.2667 ( 60)  0.2189 ( 62) -0.1490 ( 64)
          -0.1077 ( 73)  0.1283 ( 78) -0.1796 ( 86)  0.1002 ( 87) -0.1515 ( 92)
           0.1047 ( 95)  0.1283 ( 96)  0.1327 (115) -0.1471 (116)  0.1007 (119)
 CRD 44=   0.3335 ( 15)  0.3420 ( 16) -0.4688 ( 18) -0.4753 ( 19) -0.2194 ( 20)
           0.1666 ( 21)  0.1626 ( 22)  0.1158 ( 66) -0.1659 ( 67)  0.1025 ( 68)
           0.1242 (128) -0.1382 (129) -0.1461 (131)  0.1352 (136)
 CRD 45=  -0.1195 ( 14)  0.4841 ( 15)  0.4953 ( 16)  0.3146 ( 18)  0.3068 ( 19)
           0.2147 ( 66)  0.1437 ( 67) -0.1018 (112)  0.1177 (127) -0.1273 (130)
 CRD 46=  -0.2382 (  5)  0.1432 ( 11) -0.1396 ( 15)  0.1986 ( 16) -0.1097 ( 57)
           0.1359 ( 78)  0.1010 ( 80)  0.1163 ( 81)  0.1311 ( 82) -0.1705 ( 86)
          -0.1272 ( 87) -0.1409 ( 91) -0.1600 ( 92) -0.1304 ( 94) -0.1167 ( 96)
           0.1197 (106)  0.1049 (107) -0.1044 (110) -0.1570 (115) -0.2003 (116)
          -0.1708 (117)  0.1262 (119)  0.1458 (124)  0.1760 (125)  0.1612 (126)
          -0.1660 (127) -0.1812 (128) -0.1546 (129) -0.1698 (130) -0.1316 (131)
          -0.1145 (132) -0.1291 (133) -0.1304 (134) -0.1133 (135) -0.1279 (136)
 CRD 47=   0.2288 (  5) -0.2757 ( 15)  0.2451 ( 16) -0.1104 ( 78)  0.1630 ( 83)
           0.1097 ( 84)  0.1017 ( 86) -0.1008 ( 95) -0.1206 (101) -0.1241 (102)
          -0.1046 (103) -0.1188 (105) -0.1049 (111)  0.1816 (112)  0.1283 (114)
           0.1191 (116) -0.1187 (118) -0.1404 (119) -0.1202 (121)  0.1932 (122)
           0.1399 (123) -0.1166 (124) -0.1578 (127) -0.1419 (128) -0.1630 (129)
          -0.1471 (130) -0.1633 (131) -0.1473 (132) -0.1667 (133) -0.1712 (134)
          -0.1552 (135) -0.1746 (136)
 CRD 48=   0.2419 ( 15) -0.2391 ( 16) -0.3699 ( 18)  0.3696 ( 19)  0.1145 ( 97)
           0.1151 ( 98) -0.1413 (101) -0.1411 (102) -0.1564 (103)  0.1109 (110)
           0.1140 (111)  0.1522 (127)  0.1516 (128)  0.1553 (129)  0.1546 (130)
          -0.2360 (131) -0.2510 (132) -0.2357 (133) -0.2355 (134) -0.2506 (135)
          -0.2353 (136)
 CRD 49=   0.1437 ( 13)  0.1669 ( 17) -0.3020 ( 20) -0.1875 ( 21) -0.1870 ( 22)
          -0.1247 ( 40) -0.1223 ( 46) -0.1628 ( 49) -0.1659 ( 50) -0.2145 ( 53)
          -0.2577 ( 54) -0.2161 ( 55)  0.2000 ( 57)  0.2070 ( 58)  0.1661 ( 68)
           0.2607 ( 69)  0.2615 ( 70)  0.1354 ( 97) -0.1513 ( 98)  0.2056 (128)
          -0.2222 (129)  0.1168 (131) -0.1074 (136)
 CRD 50=  -0.2302 (  2)  0.1429 (  4)  0.1279 (  6)  0.3372 (  7) -0.2137 ( 10)
          -0.2985 ( 11) -0.1441 ( 12)  0.2139 ( 23) -0.1073 ( 32) -0.1080 ( 33)
          -0.1204 ( 34) -0.1713 ( 35) -0.1595 ( 37)  0.1210 ( 43)  0.1682 ( 44)
           0.1136 ( 45)  0.1885 ( 61)  0.1610 ( 62)  0.1463 ( 63)  0.1718 ( 65)
          -0.1676 ( 72) -0.1694 ( 73)  0.1154 (119)  0.1092 (122)
 CRD 51=   0.1464 (  1)  0.1250 (  2)  0.2102 (  3) -0.2245 (  4)  0.2779 (  6)
          -0.1770 (  8) -0.2332 (  9) -0.1854 ( 10) -0.1362 ( 27) -0.2022 ( 32)
           0.1829 ( 33)  0.1646 ( 34)  0.1615 ( 35) -0.2178 ( 36) -0.2095 ( 37)
           0.1336 ( 39) -0.1993 ( 60) -0.1288 ( 61) -0.1810 ( 62)  0.2272 ( 63)
           0.2213 ( 64)  0.1810 ( 65)  0.1688 (104)  0.1660 (113) -0.1056 (116)
          -0.1163 (117) -0.1004 (118)  0.2112 (120)
 CRD 52=  -0.1316 (  1) -0.1500 (  2) -0.1235 (  3)  0.2223 (  4)  0.1089 (  6)
          -0.1035 ( 10)  0.3586 ( 12) -0.1984 ( 23) -0.2197 ( 24) -0.2350 ( 25)
          -0.1349 ( 33) -0.1443 ( 34) -0.1539 ( 35) -0.2336 ( 43) -0.2290 ( 44)
          -0.2359 ( 45)  0.1333 ( 60)  0.1526 ( 61)  0.1474 ( 62)  0.1059 ( 65)
           0.2488 ( 71)  0.2313 ( 72)  0.2184 ( 73)  0.1169 ( 90) -0.1021 (123)
 CRD 53=   0.1706 (  1) -0.1821 (  4) -0.2137 (  6)  0.2672 (  7)  0.1838 (  8)
           0.1094 (  9) -0.3106 ( 11)  0.1314 ( 12)  0.1229 ( 13)  0.1193 ( 15)
          -0.1657 ( 17) -0.1621 ( 24)  0.1220 ( 32)  0.1065 ( 34)  0.1067 ( 36)
           0.1211 ( 56) -0.1728 ( 60) -0.1886 ( 64)  0.1720 ( 71)  0.1043 ( 78)
          -0.1049 ( 86) -0.1115 (105)  0.1481 (112)  0.1154 (115)  0.1046 (117)
          -0.1082 (118) -0.1216 (121) -0.1365 (123)  0.1012 (125)  0.1267 (126)
 CRD 54=   0.1125 (  4)  0.1088 (  5)  0.1624 (  6) -0.1661 (  7)  0.1033 ( 11)
          -0.3759 ( 17)  0.1782 ( 21)  0.1553 ( 22)  0.1141 ( 25) -0.1616 ( 40)
          -0.1823 ( 46)  0.1750 ( 52)  0.1445 ( 53)  0.1318 ( 54)  0.1466 ( 55)
           0.1386 ( 56)  0.1220 ( 64) -0.2070 ( 68) -0.1175 ( 70) -0.1077 ( 84)
           0.1263 (110) -0.1136 (114) -0.1510 (123)  0.1556 (124)  0.1828 (125)
           0.1073 (126)  0.1036 (127)  0.1389 (128) -0.1191 (129)  0.1210 (131)
          -0.1087 (136)
 CRD 55=  -0.1483 (  5)  0.1499 (  7) -0.1259 ( 10) -0.2123 ( 15)  0.1808 ( 16)
          -0.1010 ( 17)  0.2372 ( 18) -0.2634 ( 19) -0.1157 ( 21)  0.2161 ( 22)
           0.1270 ( 24) -0.1251 ( 40) -0.1162 ( 50)  0.1191 ( 57) -0.1019 ( 64)
          -0.1307 ( 69)  0.1289 ( 70) -0.1300 (100)  0.1160 (103) -0.1103 (125)
           0.1931 (127)  0.2218 (128)  0.1583 (129)  0.1870 (130) -0.1065 (131)
          -0.1649 (133) -0.1817 (134) -0.2401 (136)
 CRD 56=  -0.1477 (  1)  0.1003 (  2)  0.1280 (  3) -0.1361 (  4)  0.1107 (  5)
          -0.1833 (  6) -0.1373 (  8)  0.1450 (  9)  0.1007 ( 10) -0.1017 ( 11)
           0.1330 ( 13)  0.1328 ( 14) -0.1534 ( 17) -0.1635 ( 25)  0.1343 ( 29)
           0.1050 ( 39) -0.1447 ( 42) -0.1069 ( 50) -0.1684 ( 62) -0.1788 ( 63)
          -0.1304 ( 68) -0.1018 ( 73)  0.1186 ( 93) -0.1285 ( 94) -0.1827 (115)
          -0.1057 (116) -0.2740 (117)  0.2562 (118)  0.1502 (121)  0.1160 (122)
          -0.1268 (124) -0.2131 (125)  0.1395 (131) -0.1366 (136)
 CRD 57=  -0.1214 (  2)  0.1272 (  4) -0.2280 (  5)  0.1435 (  8)  0.1216 ( 11)
           0.2512 ( 14) -0.1152 ( 17) -0.1931 ( 18) -0.1640 ( 20)  0.2541 ( 21)
           0.1473 ( 24) -0.1037 ( 48) -0.1687 ( 49)  0.1057 ( 62)  0.1034 ( 63)
          -0.1663 ( 68)  0.1620 ( 69) -0.1045 ( 93)  0.1105 (101) -0.1347 (103)
           0.1035 (105) -0.1790 (118)  0.1012 (123) -0.1538 (125) -0.1239 (126)
          -0.1010 (127)  0.2895 (131)  0.1130 (134) -0.1322 (135)
 CRD 58=  -0.1419 (  3)  0.1936 (  4) -0.1263 (  7) -0.1322 (  9) -0.2246 ( 12)
           0.1549 ( 16) -0.1364 ( 19) -0.1099 ( 20)  0.2093 ( 23)  0.1059 ( 42)
           0.1035 ( 46)  0.1315 ( 59)  0.1206 ( 60) -0.1699 ( 66)  0.1209 ( 67)
          -0.1281 ( 73)  0.1480 ( 77)  0.1650 ( 81) -0.1189 ( 84)  0.1210 ( 90)
          -0.1442 ( 96)  0.1089 (100) -0.1032 (105) -0.1329 (109)  0.1324 (111)
          -0.1405 (118) -0.1102 (119)  0.1994 (120) -0.1151 (122) -0.2147 (123)
           0.2121 (129)  0.1202 (130) -0.1576 (136)
 CRD 59=   0.1699 (  1)  0.1750 (  2) -0.2486 (  3) -0.2251 (  4)  0.2943 (  6)
          -0.1281 (  8)  0.1322 (  9) -0.1299 ( 10)  0.1074 ( 27)  0.1026 ( 33)
          -0.1357 ( 39) -0.2585 ( 61)  0.1871 ( 65) -0.1509 ( 87)  0.1575 ( 91)
           0.1193 ( 94) -0.1891 ( 96) -0.1749 (104) -0.1723 (113)  0.1016 (116)
           0.2528 (117)  0.1534 (118) -0.2220 (120)  0.1021 (131)
 CRD 60=   0.1208 (  3)  0.1280 ( 12) -0.2672 ( 13)  0.1589 ( 14)  0.1114 ( 17)
          -0.1310 ( 19) -0.2132 ( 20)  0.1754 ( 22) -0.1967 ( 24)  0.2353 ( 25)
           0.1111 ( 48)  0.1519 ( 67) -0.1367 ( 68)  0.1673 ( 70) -0.1195 ( 72)
           0.2187 ( 73) -0.1032 ( 77) -0.1462 ( 81)  0.1381 ( 82) -0.1039 ( 90)
           0.1009 ( 98)  0.1046 (101) -0.1155 (102)  0.1478 (106) -0.1365 (107)
          -0.1147 (120)  0.2348 (125) -0.1408 (128)  0.1292 (129)  0.1248 (131)
           0.1190 (132) -0.2160 (136)
 CRD 61=  -0.1233 (  5) -0.2294 (  9)  0.1105 ( 10)  0.2176 ( 12) -0.2212 ( 16)
          -0.1087 ( 17) -0.1733 ( 21)  0.1878 ( 22) -0.1162 ( 25)  0.1398 ( 29)
          -0.1363 ( 52) -0.1024 ( 59)  0.1009 ( 64) -0.1652 ( 65)  0.1078 ( 66)
          -0.1633 ( 69)  0.1200 ( 70) -0.1244 ( 76)  0.1336 ( 79) -0.1439 ( 85)
           0.1898 (100)  0.2024 (103)  0.1197 (114) -0.1501 (118)  0.1079 (121)
           0.1129 (122)  0.2277 (123) -0.1348 (129)  0.1251 (132)  0.1509 (135)
 CRD 62=   0.2708 ( 14) -0.1358 ( 15) -0.2884 ( 17)  0.1550 ( 23) -0.2284 ( 24)
           0.1168 ( 43) -0.1294 ( 52) -0.1752 ( 56)  0.1415 ( 57)  0.1160 ( 58)
           0.1541 ( 66) -0.1517 ( 67)  0.1052 ( 71) -0.1933 ( 72) -0.1623 ( 80)
           0.1289 ( 82) -0.1583 ( 83)  0.1295 ( 84)  0.1400 ( 97) -0.1439 ( 98)
          -0.2107 (105) -0.2108 (112) -0.2163 (122) -0.1918 (124) -0.1173 (127)
           0.1666 (128) -0.1194 (129)  0.1645 (130)
 CRD 63=  -0.2758 (  1)  0.2345 (  2)  0.2735 (  8) -0.2388 ( 10) -0.1348 ( 32)
           0.1359 ( 34)  0.1720 ( 60) -0.2250 ( 62)  0.2232 ( 63) -0.1753 ( 64)
           0.2777 ( 78)  0.2775 ( 86)  0.2190 ( 92) -0.1266 ( 93) -0.1284 ( 94)
           0.2179 ( 95)  0.2523 (116)  0.2523 (119)
 CRD 64=   0.1561 ( 13) -0.1257 ( 14) -0.1660 ( 15)  0.1430 ( 17) -0.2453 ( 20)
           0.1506 ( 21)  0.1496 ( 23) -0.1029 ( 40) -0.1123 ( 41)  0.1350 ( 49)
           0.1455 ( 50) -0.1196 ( 53)  0.1350 ( 54) -0.1056 ( 57) -0.1572 ( 58)
           0.1983 ( 66) -0.1651 ( 68)  0.1437 ( 69)  0.1182 ( 71) -0.1086 ( 80)
          -0.1045 ( 83)  0.1745 (101) -0.1401 (102) -0.1055 (105)  0.1409 (110)
          -0.1448 (111) -0.1277 (112)  0.1052 (126)  0.2264 (127)  0.1123 (128)
          -0.1734 (130) -0.1638 (132) -0.2589 (133)  0.2745 (134)
 CRD 65=   0.1370 (  4)  0.1888 (  9) -0.1438 ( 10) -0.1544 ( 12)  0.1284 ( 13)
          -0.1404 ( 16)  0.1077 ( 19) -0.1242 ( 21)  0.1949 ( 22) -0.1047 ( 27)
          -0.1048 ( 36)  0.1194 ( 39) -0.1094 ( 46) -0.1080 ( 48) -0.1295 ( 55)
          -0.1294 ( 57)  0.1014 ( 59) -0.1265 ( 64)  0.1302 ( 65)  0.1548 ( 70)
          -0.1224 ( 74)  0.1009 ( 76) -0.1407 ( 79) -0.1231 ( 88) -0.1676 ( 89)
           0.1168 ( 93)  0.1695 ( 99) -0.1248 (100) -0.1398 (102)  0.1247 (103)
          -0.1128 (109) -0.1008 (115)  0.1607 (120) -0.2259 (121) -0.1093 (129)
          -0.1125 (130)  0.1395 (132) -0.1250 (133)  0.2388 (135)
 CRD 66=   0.1369 (  2) -0.2058 (  3) -0.1486 (  6)  0.1655 ( 13) -0.1224 ( 23)
           0.1892 ( 25)  0.1606 ( 26)  0.1458 ( 33) -0.1415 ( 45) -0.1519 ( 47)
           0.1014 ( 60) -0.1626 ( 61)  0.1549 ( 73) -0.2070 ( 75) -0.1115 ( 81)
           0.1549 ( 82) -0.1547 ( 87)  0.1295 ( 91)  0.1620 ( 94) -0.1221 ( 96)
           0.1254 (106) -0.1410 (107) -0.2746 (115)  0.1187 (121) -0.2573 (126)
          -0.1150 (132)
 CRD 67=   0.1173 ( 13)  0.1086 ( 14)  0.1534 ( 17) -0.1712 ( 18) -0.1151 ( 19)
           0.1181 ( 20) -0.1078 ( 21)  0.1351 ( 23) -0.1345 ( 24)  0.1027 ( 43)
          -0.1955 ( 51) -0.1356 ( 54) -0.1085 ( 59)  0.2349 ( 67)  0.1139 ( 68)
           0.1067 ( 71) -0.1002 ( 72) -0.1523 ( 80) -0.1400 ( 97)  0.1352 ( 98)
          -0.1300 (101)  0.1333 (106)  0.1313 (107) -0.1050 (108)  0.1143 (110)
          -0.1122 (112) -0.1031 (114) -0.2057 (124)  0.2140 (127) -0.2363 (130)
           0.1828 (132)  0.2359 (133) -0.2374 (134)
 CRD 68=   0.1180 (  1) -0.1087 (  2) -0.1469 (  4)  0.1087 (  5)  0.1321 (  8)
          -0.1457 ( 14)  0.1479 ( 19)  0.1712 ( 27) -0.1274 ( 32)  0.1042 ( 35)
          -0.1346 ( 38)  0.1042 ( 41) -0.1122 ( 42) -0.1012 ( 60)  0.1050 ( 63)
          -0.1184 ( 66) -0.1033 ( 67) -0.2303 ( 76) -0.1037 ( 79)  0.1207 ( 83)
           0.1733 ( 87)  0.1668 ( 91) -0.1314 ( 92) -0.1576 ( 93) -0.1311 (102)
          -0.1137 (104)  0.1089 (106)  0.1502 (111) -0.1484 (114) -0.1810 (116)
           0.2450 (119)  0.1692 (121) -0.1485 (127)  0.1015 (130)  0.1070 (134)
           0.1723 (135)
 CRD 69=   0.1013 (  1)  0.2538 (  5) -0.1764 (  6) -0.1846 ( 13) -0.1690 ( 28)
          -0.1432 ( 31) -0.1196 ( 34)  0.1069 ( 37)  0.1923 ( 39)  0.1197 ( 48)
          -0.1212 ( 76) -0.1568 ( 77) -0.1692 ( 79) -0.1541 ( 82) -0.1839 ( 90)
           0.2040 ( 91)  0.1591 ( 94)  0.1499 ( 95)  0.1359 (104) -0.1297 (106)
           0.1926 (113) -0.1798 (115) -0.2263 (116)  0.1259 (119)  0.1722 (124)
           0.1910 (126)
 CRD 70=   0.1574 (  4) -0.2174 (  5)  0.1348 ( 12) -0.1661 ( 14)  0.1341 ( 15)
           0.1334 ( 18) -0.1104 ( 26)  0.1375 ( 29)  0.1214 ( 30)  0.1513 ( 41)
           0.1055 ( 42) -0.1310 ( 59) -0.1444 ( 66) -0.1606 ( 84) -0.1125 ( 85)
          -0.1639 ( 90)  0.1574 ( 93)  0.1082 ( 95)  0.1232 (101)  0.1685 (106)
           0.1413 (107) -0.1480 (108) -0.1634 (110) -0.1961 (114) -0.1887 (121)
           0.2626 (122) -0.1548 (124) -0.1089 (127)  0.1358 (130) -0.1462 (132)
 CRD 71=  -0.1330 (  6)  0.1273 (  7)  0.1116 ( 12) -0.1572 ( 13)  0.1528 ( 16)
          -0.1064 ( 18)  0.1358 ( 19) -0.1289 ( 27)  0.1405 ( 30)  0.1395 ( 38)
          -0.1099 ( 49)  0.1004 ( 52) -0.1005 ( 56) -0.1287 ( 59) -0.2274 ( 77)
           0.1022 ( 79) -0.1476 ( 80) -0.1374 ( 82)  0.1034 ( 85) -0.1489 ( 87)
           0.1212 ( 88)  0.1739 ( 92)  0.1387 ( 94) -0.1298 ( 97) -0.1684 ( 98)
          -0.1496 (101) -0.1613 (102)  0.1460 (104)  0.1904 (109)  0.1283 (110)
           0.1981 (111)  0.1858 (113) -0.1261 (114) -0.1151 (115)  0.1032 (126)
           0.1130 (132)  0.1372 (135)
 CRD 72=   0.1506 (  7)  0.1871 ( 11) -0.1165 ( 12)  0.1391 ( 15) -0.1341 ( 29)
           0.1016 ( 40) -0.1294 ( 42) -0.1222 ( 46)  0.1238 ( 47) -0.1053 ( 48)
          -0.2368 ( 74)  0.1175 ( 79) -0.1632 ( 80) -0.1210 ( 82)  0.2320 ( 83)
           0.1810 ( 84) -0.1128 ( 87)  0.2017 ( 88)  0.1301 ( 90)  0.1524 ( 92)
          -0.1447 ( 93)  0.1190 ( 94) -0.1728 ( 95)  0.1785 ( 97)  0.1657 ( 98)
           0.1068 (101)  0.1032 (102) -0.1639 (104)  0.1486 (107) -0.1968 (108)
          -0.1596 (109) -0.1336 (110) -0.1040 (111)

 THE DETERMINANT OF THE G MATRIX IS 10**(   -24)


                     --------------------
                     INTERNAL COORDINATES
                     --------------------

                 - - ATOMS - -         COORDINATE      COORDINATE
 NO.   TYPE    I  J  K  L  M  N        (BOHR,RAD)       (ANG,DEG)
 ----------------------------------------------------------------
   1 STRETCH   1  9                     2.0598049       1.0900019
   2 STRETCH   1 11                     2.0599487       1.0900780
   3 STRETCH   1 10                     2.0597578       1.0899769
   4 STRETCH   1  2                     2.8911309       1.5299207
   5 STRETCH   2  4                     2.8913167       1.5300190
   6 STRETCH   2  3                     2.8913314       1.5300268
   7 STRETCH   2 12                     2.0597601       1.0899782
   8 STRETCH   3 14                     2.0598049       1.0900019
   9 STRETCH   3 13                     2.0597083       1.0899508
  10 STRETCH   3 15                     2.0599435       1.0900752
  11 STRETCH   4 16                     2.0597494       1.0899725
  12 STRETCH   4  8                     2.8913650       1.5300446
  13 STRETCH   4  5                     2.8913071       1.5300139
  14 STRETCH   5  6                     2.8912008       1.5299577
  15 STRETCH   5 18                     2.0597631       1.0899797
  16 STRETCH   5 17                     2.0599279       1.0900670
  17 STRETCH   6  7                     2.8913314       1.5300268
  18 STRETCH   6 20                     2.0597631       1.0899797
  19 STRETCH   6 19                     2.0597042       1.0899486
  20 STRETCH   7 23                     2.0598980       1.0900512
  21 STRETCH   7 22                     2.0597764       1.0899868
  22 STRETCH   7 21                     2.0596922       1.0899422
  23 STRETCH   8 26                     2.0597601       1.0899782
  24 STRETCH   8 25                     2.0598770       1.0900400
  25 STRETCH   8 24                     2.0597334       1.0899641
  26 BEND      1  2  3                  1.9106993     109.4750072
  27 BEND      1  2 12                  1.9106671     109.4731606
  28 BEND      1  2  4                  1.9106032     109.4695016
  29 BEND      2  4 16                  1.9106404     109.4716319
  30 BEND      2  4  5                  1.9106348     109.4713086
  31 BEND      2  4  8                  1.9105784     109.4680810
  32 BEND      2  3 14                  1.9106382     109.4715063
  33 BEND      2  1 10                  1.9107587     109.4784068
  34 BEND      2  1  9                  1.9106564     109.4725475
  35 BEND      2  1 11                  1.9106618     109.4728596
  36 BEND      2  3 13                  1.9106774     109.4737487
  37 BEND      2  3 15                  1.9105276     109.4651672
  38 BEND      3  2  4                  1.9106280     109.4709187
  39 BEND      3  2 12                  1.9106057     109.4696436
  40 BEND      4  5 17                  1.9105261     109.4650846
  41 BEND      4  5  6                  1.9105921     109.4688612
  42 BEND      4  2 12                  1.9105961     109.4690919
  43 BEND      4  8 25                  1.9105921     109.4688642
  44 BEND      4  8 26                  1.9107116     109.4757099
  45 BEND      4  8 24                  1.9106226     109.4706106
  46 BEND      4  5 18                  1.9106354     109.4713465
  47 BEND      5  4  8                  1.9105967     109.4691286
  48 BEND      5  4 16                  1.9107291     109.4767107
  49 BEND      5  6 19                  1.9106985     109.4749578
  50 BEND      5  6 20                  1.9106743     109.4735752
  51 BEND      5  6  7                  1.9105933     109.4689312
  52 BEND      6  5 18                  1.9106743     109.4735752
  53 BEND      6  7 22                  1.9106324     109.4711700
  54 BEND      6  7 23                  1.9106398     109.4715940
  55 BEND      6  7 21                  1.9107127     109.4757741
  56 BEND      6  5 17                  1.9106542     109.4724197
  57 BEND      7  6 19                  1.9106311     109.4710986
  58 BEND      7  6 20                  1.9105551     109.4667446
  59 BEND      8  4 16                  1.9106200     109.4704627
  60 BEND      9  1 10                  1.9106160     109.4702339
  61 BEND      9  1 11                  1.9105374     109.4657302
  62 BEND     10  1 11                  1.9105691     109.4675448
  63 BEND     13  3 15                  1.9106824     109.4740403
  64 BEND     13  3 14                  1.9106562     109.4725372
  65 BEND     14  3 15                  1.9106176     109.4703238
  66 BEND     17  5 18                  1.9107173     109.4760360
  67 BEND     19  6 20                  1.9106471     109.4720161
  68 BEND     21  7 22                  1.9106462     109.4719615
  69 BEND     21  7 23                  1.9106440     109.4718362
  70 BEND     22  7 23                  1.9105244     109.4649874
  71 BEND     24  8 25                  1.9105803     109.4681891
  72 BEND     24  8 26                  1.9106754     109.4736362
  73 BEND     25  8 26                  1.9106174     109.4703135
  74 TORSION   1  2  4  5               1.0472356      60.0021785
  75 TORSION   1  2  4  8               3.1415533     179.9977477
  76 TORSION   1  2  3 15               1.0471886      59.9994890
  77 TORSION   1  2  4 16              -1.0472822     -60.0048513
  78 TORSION   1  2  3 13              -3.1415790    -179.9992166
  79 TORSION   1  2  3 14              -1.0471257     -59.9958810
  80 TORSION   2  4  8 24               1.0472596      60.0035534
  81 TORSION   2  4  8 25               3.1415582     179.9980243
  82 TORSION   2  4  8 26              -1.0472286     -60.0017808
  83 TORSION   2  4  5 17              -0.9600150     -55.0048062
  84 TORSION   2  4  5 18               1.1344188      64.9974109
  85 TORSION   2  4  5  6              -3.0543449    -175.0010732
  86 TORSION   3  2  1 10              -3.1415835    -179.9994761
  87 TORSION   3  2  1  9               1.0471368      59.9965185
  88 TORSION   3  2  4  8              -1.0471775     -59.9988523
  89 TORSION   3  2  4  5              -3.1414953    -179.9944215
  90 TORSION   3  2  4 16               1.0471722      59.9985487
  91 TORSION   3  2  1 11              -1.0471727     -59.9985733
  92 TORSION   4  2  1 10              -1.0471728     -59.9985798
  93 TORSION   4  2  3 15              -1.0472070     -60.0005395
  94 TORSION   4  2  1 11               1.0472381      60.0023230
  95 TORSION   4  2  3 13               1.0472107      60.0007548
  96 TORSION   4  2  1  9               3.1415475     179.9974148
  97 TORSION   4  5  6 19              -1.0472823     -60.0048563
  98 TORSION   4  5  6 20               1.0471949      59.9998489
  99 TORSION   4  5  6  7               3.1414950     179.9944067
 100 TORSION   4  2  3 14              -3.1415213    -179.9959095
 101 TORSION   5  6  7 21              -1.0471875     -59.9994235
 102 TORSION   5  6  7 22               1.0472716      60.0042416
 103 TORSION   5  6  7 23               3.1415369     179.9968053
 104 TORSION   5  4  2 12              -1.0471599     -59.9978413
 105 TORSION   5  4  8 24              -3.1415847    -179.9995423
 106 TORSION   5  4  8 26               1.0471124      59.9951235
 107 TORSION   5  4  8 25              -1.0472861     -60.0050715
 108 TORSION   6  5  4  8               1.1345338      65.0039992
 109 TORSION   6  5  4 16              -0.9598814     -54.9971533
 110 TORSION   7  6  5 17               1.0472435      60.0026321
 111 TORSION   7  6  5 18              -1.0472925     -60.0054421
 112 TORSION   8  4  5 17              -3.0543215    -174.9997339
 113 TORSION   8  4  2 12               1.0471579      59.9977279
 114 TORSION   8  4  5 18              -0.9598877     -54.9975168
 115 TORSION   9  1  2 12              -1.0472858     -60.0050571
 116 TORSION  10  1  2 12               1.0471792      59.9989483
 117 TORSION  11  1  2 12               3.1415901     179.9998511
 118 TORSION  12  2  3 15              -3.1415365    -179.9967819
 119 TORSION  12  2  3 13              -1.0471188     -59.9954875
 120 TORSION  12  2  4 16               3.1415076     179.9951289
 121 TORSION  12  2  3 14               1.0473345      60.0078481
 122 TORSION  16  4  5 17               1.1344485      64.9991136
 123 TORSION  16  4  5 18              -3.0543030    -174.9986693
 124 TORSION  16  4  8 24              -1.0471027     -59.9945637
 125 TORSION  16  4  8 26              -3.1415909    -179.9998979
 126 TORSION  16  4  8 25               1.0471959      59.9999071
 127 TORSION  17  5  6 20              -1.0470566     -59.9919257
 128 TORSION  17  5  6 19              -3.1415339    -179.9966309
 129 TORSION  18  5  6 20               3.1415927     180.0000000
 130 TORSION  18  5  6 19               1.0471154      59.9952949
 131 TORSION  19  6  7 21               3.1415486     179.9974763
 132 TORSION  19  6  7 23               1.0470877      59.9937050
 133 TORSION  19  6  7 22              -1.0471776     -59.9988586
 134 TORSION  20  6  7 21               1.0471856      59.9993176
 135 TORSION  20  6  7 23              -1.0472753     -60.0044536
 136 TORSION  20  6  7 22              -3.1415406    -179.9970173

     ------------------------------------------
     THE POINT GROUP IS C1 , NAXIS= 1, ORDER= 1
     ------------------------------------------

     DIMENSIONS OF THE SYMMETRY SUBSPACES ARE
 A   =  260

 ..... DONE SETTING UP THE RUN .....
 STEP CPU TIME =     0.02 TOTAL CPU TIME =        0.0 (    0.0 MIN)
 TOTAL WALL CLOCK TIME=        0.0 SECONDS, CPU UTILIZATION IS  66.67%


          -----------------------------
          STATIONARY POINT LOCATION RUN
          -----------------------------

 OBTAINING INITIAL HESSIAN, HESS=GUESS   
 DIAGONAL GUESS HESSIAN IN INTERNAL COORDS IS
     1  0.3464     2  0.3463     3  0.3464     4  0.3672     5  0.3672
     6  0.3671     7  0.3464     8  0.3464     9  0.3464    10  0.3463
    11  0.3464    12  0.3671    13  0.3672    14  0.3672    15  0.3464
    16  0.3463    17  0.3671    18  0.3464    19  0.3464    20  0.3463
    21  0.3464    22  0.3464    23  0.3464    24  0.3463    25  0.3464
    26  0.2485    27  0.2241    28  0.2485    29  0.2241    30  0.2485
    31  0.2485    32  0.2241    33  0.2241    34  0.2241    35  0.2241
    36  0.2241    37  0.2241    38  0.2485    39  0.2241    40  0.2241
    41  0.2485    42  0.2241    43  0.2241    44  0.2241    45  0.2241
    46  0.2241    47  0.2485    48  0.2241    49  0.2241    50  0.2241
    51  0.2485    52  0.2241    53  0.2241    54  0.2241    55  0.2241
    56  0.2241    57  0.2241    58  0.2241    59  0.2241    60  0.2034
    61  0.2034    62  0.2034    63  0.2034    64  0.2034    65  0.2034
    66  0.2034    67  0.2034    68  0.2034    69  0.2034    70  0.2034
    71  0.2034    72  0.2034    73  0.2034    74  0.2500    75  0.2500
    76  0.2500    77  0.2500    78  0.2500    79  0.2500    80  0.2500
    81  0.2500    82  0.2500    83  0.2500    84  0.2500    85  0.2500
    86  0.2500    87  0.2500    88  0.2500    89  0.2500    90  0.2500
    91  0.2500    92  0.2500    93  0.2500    94  0.2500    95  0.2500
    96  0.2500    97  0.2500    98  0.2500    99  0.2500   100  0.2500
   101  0.2500   102  0.2500   103  0.2500   104  0.2500   105  0.2500
   106  0.2500   107  0.2500   108  0.2500   109  0.2500   110  0.2500
   111  0.2500   112  0.2500   113  0.2500   114  0.2500   115  0.2500
   116  0.2500   117  0.2500   118  0.2500   119  0.2500   120  0.2500
   121  0.2500   122  0.2500   123  0.2500   124  0.2500   125  0.2500
   126  0.2500   127  0.2500   128  0.2500   129  0.2500   130  0.2500
   131  0.2500   132  0.2500   133  0.2500   134  0.2500   135  0.2500
   136  0.2500
 TRANSFORMING HESSIAN TO SYMMETRY COORDINATES

          PARAMETERS CONTROLLING GEOMETRY SEARCH ARE
          METHOD =QA                  UPHESS =BFGS    
          NNEG   =         0          NFRZ   =         3
          NSTEP  =        50          IFOLOW =         1
          HESS   =GUESS               RESTAR =         F
          IHREP  =         0          HSSEND =         F
          NPRT   =         0          NPUN   =         0
          OPTTOL = 5.000E-04          RMIN   = 1.500E-03
          RMAX   = 1.000E-01          RLIM   = 7.000E-02
          DXMAX  = 3.000E-01          PURIFY =         F
          MOVIE  =         F          TRUPD  =         T
          TRMAX  = 5.000E-01          TRMIN  = 5.000E-02
          ITBMAT =         5          STPT   =         F
          STSTEP = 1.000E-02          PROJCT=          F
          FROZEN COORD(S)=   1   2   3


      ***** EQUILIBRIUM GEOMETRY LOCATED *****
            (SUBJECT TO   3 CONSTRAINT(S))
 COORDINATES OF ALL ATOMS ARE (ANGS)
   ATOM   CHARGE       X              Y              Z
 ------------------------------------------------------------
 C           6.0   1.6398061412   1.7841621889   0.1208830994
 C           6.0   1.5992950515   0.3111829272  -0.3142611606
 C           6.0   2.8811398659  -0.3744318076   0.1817797432
 C           6.0   0.3185458753  -0.4104141762   0.1754176189
 C           6.0  -0.9744706107   0.2525982337  -0.3385498036
 C           6.0  -2.2344828485  -0.1891831729   0.4125836911
 C           6.0  -3.5013663459   0.5158162341  -0.0683020666
 C           6.0   0.3120919833  -1.9032488907  -0.1883659893
 H           1.0   2.5810866609   2.2396610610  -0.1732428047
 H           1.0   0.8465486038   2.3755894356  -0.3196487808
 H           1.0   1.5560262615   1.8662343740   1.2033085632
 H           1.0   1.6092433520   0.2818983048  -1.4049033467
 H           1.0   2.9879409455  -1.3846233687  -0.1950649376
 H           1.0   3.7552853203   0.1847150467  -0.1401703738
 H           1.0   2.8990642131  -0.4182589131   1.2696113629
 H           1.0   0.3141276154  -0.3326633558   1.2642086221
 H           1.0  -0.9063997580   1.3303807232  -0.2460942158
 H           1.0  -1.0846615605   0.0420505797  -1.4033486067
 H           1.0  -2.3782457336  -1.2609827573   0.3203723489
 H           1.0  -2.0923435923   0.0137508649   1.4729193354
 H           1.0  -3.4129672271   1.5953313350   0.0269273318
 H           1.0  -3.7038489736   0.2883955460  -1.1121612226
 H           1.0  -4.3627449828   0.1998975678   0.5140932304
 H           1.0   1.1543041732  -2.4363434565   0.2349404194
 H           1.0  -0.5844900804  -2.3889899296   0.1793496288
 H           1.0   0.3383634587  -2.0351362909  -1.2688332406


                     --------------------
                     INTERNAL COORDINATES
                     --------------------

                 - - ATOMS - -         COORDINATE      COORDINATE
 NO.   TYPE    I  J  K  L  M  N        (BOHR,RAD)       (ANG,DEG)
 ----------------------------------------------------------------
   1 STRETCH   1  9                     2.0527664       1.0862773
   2 STRETCH   1 11                     2.0574593       1.0887607
   3 STRETCH   1 10                     2.0467678       1.0831030
   4 STRETCH   1  2                     2.9034578       1.5364438
   5 STRETCH   2  4                     2.9280425       1.5494535
   6 STRETCH   2  3                     2.9025910       1.5359851
   7 STRETCH   2 12                     2.0618434       1.0910806
   8 STRETCH   3 14                     2.0531395       1.0864747
   9 STRETCH   3 13                     2.0474598       1.0834691
  10 STRETCH   3 15                     2.0576502       1.0888617
  11 STRETCH   4 16                     2.0627730       1.0915725
  12 STRETCH   4  8                     2.9036276       1.5365336
  13 STRETCH   4  5                     2.9126555       1.5413110
  14 STRETCH   5  6                     2.8950474       1.5319932
  15 STRETCH   5 18                     2.0616805       1.0909944
  16 STRETCH   5 17                     2.0482370       1.0838804
  17 STRETCH   6  7                     2.8865644       1.5275042
  18 STRETCH   6 20                     2.0577176       1.0888974
  19 STRETCH   6 19                     2.0509622       1.0853226
  20 STRETCH   7 23                     2.0536045       1.0867208
  21 STRETCH   7 22                     2.0548208       1.0873644
  22 STRETCH   7 21                     2.0547118       1.0873067
  23 STRETCH   8 26                     2.0575410       1.0888039
  24 STRETCH   8 25                     2.0484303       1.0839827
  25 STRETCH   8 24                     2.0464079       1.0829125
  26 BEND      1  2  3                  1.8906870     108.3283866
  27 BEND      1  2 12                  1.8845091     107.9744198
  28 BEND      1  2  4                  1.9592556     112.2570742
  29 BEND      2  4 16                  1.8602220     106.5828691
  30 BEND      2  4  5                  1.9689414     112.8120314
  31 BEND      2  4  8                  1.9617984     112.4027682
  32 BEND      2  3 14                  1.9241334     110.2447230
  33 BEND      2  1 10                  1.9703318     112.8916957
  34 BEND      2  1  9                  1.9264072     110.3749994
  35 BEND      2  1 11                  1.9302960     110.5978133
  36 BEND      2  3 13                  1.9672156     112.7131492
  37 BEND      2  3 15                  1.9330101     110.7533230
  38 BEND      3  2  4                  1.9604596     112.3260603
  39 BEND      3  2 12                  1.8788735     107.6515217
  40 BEND      4  5 17                  1.9247521     110.2801696
  41 BEND      4  5  6                  1.9849674     113.7302518
  42 BEND      4  2 12                  1.8869816     108.1160800
  43 BEND      4  8 25                  1.9374824     111.0095654
  44 BEND      4  8 26                  1.9310670     110.6419864
  45 BEND      4  8 24                  1.9632584     112.4864181
  46 BEND      4  5 18                  1.9041025     109.0970364
  47 BEND      5  4  8                  1.9128845     109.6002069
  48 BEND      5  4 16                  1.8739969     107.3721108
  49 BEND      5  6 19                  1.9305729     110.6136804
  50 BEND      5  6 20                  1.8926594     108.4413945
  51 BEND      5  6  7                  1.9765265     113.2466237
  52 BEND      6  5 18                  1.9175055     109.8649695
  53 BEND      6  7 22                  1.9392089     111.1084834
  54 BEND      6  7 23                  1.9331877     110.7634956
  55 BEND      6  7 21                  1.9425257     111.2985262
  56 BEND      6  5 17                  1.8719043     107.2522168
  57 BEND      7  6 19                  1.8956582     108.6132117
  58 BEND      7  6 20                  1.9058381     109.1964788
  59 BEND      8  4 16                  1.8810900     107.7785165
  60 BEND      9  1 10                  1.8708117     107.1896131
  61 BEND      9  1 11                  1.8799568     107.7135922
  62 BEND     10  1 11                  1.8826729     107.8692136
  63 BEND     13  3 15                  1.8842367     107.9588084
  64 BEND     13  3 14                  1.8728292     107.3052106
  65 BEND     14  3 15                  1.8791761     107.6688599
  66 BEND     17  5 18                  1.8561499     106.3495530
  67 BEND     19  6 20                  1.8588314     106.5031968
  68 BEND     21  7 22                  1.8826967     107.8705736
  69 BEND     21  7 23                  1.8819216     107.8261649
  70 BEND     22  7 23                  1.8818646     107.8228999
  71 BEND     24  8 25                  1.8651043     106.8626027
  72 BEND     24  8 26                  1.8854716     108.0295623
  73 BEND     25  8 26                  1.8779082     107.5962138
  74 TORSION   1  2  4  5               1.0252230      58.7409525
  75 TORSION   1  2  4  8              -3.0842894    -176.7167641
  76 TORSION   1  2  3 15               1.1578637      66.3407019
  77 TORSION   1  2  4 16              -1.0271993     -58.8541846
  78 TORSION   1  2  3 13              -3.0122794    -172.5908987
  79 TORSION   1  2  3 14              -0.9200997     -52.7178284
  80 TORSION   2  4  8 24               1.0353897      59.3234596
  81 TORSION   2  4  8 25               3.1243416     179.0115846
  82 TORSION   2  4  8 26              -1.0751206     -61.5998704
  83 TORSION   2  4  5 17              -0.7671801     -43.9561820
  84 TORSION   2  4  5 18               1.2653639      72.5000135
  85 TORSION   2  4  5  6              -2.8706292    -164.4749359
  86 TORSION   3  2  1 10               2.9862868     171.1016304
  87 TORSION   3  2  1  9               0.8930074      51.1655575
  88 TORSION   3  2  4  8              -0.9485372     -54.3471804
  89 TORSION   3  2  4  5              -3.1222101    -178.8894639
  90 TORSION   3  2  4 16               1.1085528      63.5153990
  91 TORSION   3  2  1 11              -1.1856567     -67.9331238
  92 TORSION   4  2  1 10              -1.1220682     -64.2897739
  93 TORSION   4  2  3 15              -1.0162508     -58.2268793
  94 TORSION   4  2  1 11               0.9891736      56.6754718
  95 TORSION   4  2  3 13               1.0967914      62.8415201
  96 TORSION   4  2  1  9               3.0678377     175.7741532
  97 TORSION   4  5  6 19              -1.0490696     -60.1072632
  98 TORSION   4  5  6 20               0.9833019      56.3390482
  99 TORSION   4  5  6  7               3.1015058     177.7031905
 100 TORSION   4  2  3 14              -3.0942141    -177.2854096
 101 TORSION   5  6  7 21              -1.0123614     -58.0040341
 102 TORSION   5  6  7 22               1.0861394      62.2312061
 103 TORSION   5  6  7 23              -3.1058344    -177.9512024
 104 TORSION   5  4  2 12              -1.0516148     -60.2530875
 105 TORSION   5  4  8 24              -3.0435330    -174.3815959
 106 TORSION   5  4  8 26               1.1291421      64.6950740
 107 TORSION   5  4  8 25              -0.9545811     -54.6934709
 108 TORSION   6  5  4  8               1.2123608      69.4631564
 109 TORSION   6  5  4 16              -0.8263332     -47.3454044
 110 TORSION   7  6  5 17               0.9685923      55.4962508
 111 TORSION   7  6  5 18              -1.0418403     -59.6930534
 112 TORSION   8  4  5 17              -2.9673755    -170.0180898
 113 TORSION   8  4  2 12               1.1220581      64.2891959
 114 TORSION   8  4  5 18              -0.9348314     -53.5618943
 115 TORSION   9  1  2 12              -1.1370588     -65.1486684
 116 TORSION  10  1  2 12               0.9562206      54.7874045
 117 TORSION  11  1  2 12               3.0674624     175.7526502
 118 TORSION  12  2  3 15              -3.0916105    -177.1362357
 119 TORSION  12  2  3 13              -0.9785683     -56.0678363
 120 TORSION  12  2  4 16              -3.1040371    -177.8482246
 121 TORSION  12  2  3 14               1.1136114      63.8052340
 122 TORSION  16  4  5 17               1.2771159      73.1733494
 123 TORSION  16  4  5 18              -2.9735254    -170.3704551
 124 TORSION  16  4  8 24              -1.0093099     -57.8291979
 125 TORSION  16  4  8 26              -3.1198202    -178.7525279
 126 TORSION  16  4  8 25               1.0796419      61.8589271
 127 TORSION  17  5  6 20              -1.1496116     -65.8678914
 128 TORSION  17  5  6 19               3.1012022     177.6857971
 129 TORSION  18  5  6 20               3.1231411     178.9428043
 130 TORSION  18  5  6 19               1.0907696      62.4964929
 131 TORSION  19  6  7 21               3.1188651     178.6978090
 132 TORSION  19  6  7 23               1.0253921      58.7506407
 133 TORSION  19  6  7 22              -1.0658194     -61.0669508
 134 TORSION  20  6  7 21               1.0984122      62.9343848
 135 TORSION  20  6  7 23              -0.9950608     -57.0127835
 136 TORSION  20  6  7 22              -3.0862723    -176.8303750

          INTERNUCLEAR DISTANCES (ANGS.)


 =====================================================
   GAMESS/COSab RESULTS
 =====================================================

   Dielectric Constant                  = INFTY
   Basic Grid Size                      =                 1082
   Number of Segments                   =                   92
   Number of Segments located on spheres=                  292
   Number of Segments of the cavity     =                  785
   Solvent Radius (rsolv)               = 1.40
   Outlying Charge Error Method         = double cavity

 =====================================================

  Total solvated Energy (a.u.)          =  -313.5086479100
  Total Energy corrected (a.u.)         =  -313.5085483061

  Outlying charge effect (a.u.)         =     0.0000996039
  Outlying charge effect (kcal/mol)     =     0.0625024700

  Dielectric Energy (a.u.)              =    -0.0015371792
  Dielectric energy corr. (a.u.)        =    -0.0014375753

  Sum of polarization charges           =     0.0314160278
  Sum of polarization charges(cor.)     =    -0.0314160278

  Total surface area of cavity (A**2)   =  182.34
  Total volume of cavity (A**3)         =  186.94

 =====================================================
 NPS=                   785
NR.  ATOM  (X, Y, Z)(a.u.)                  CHARGE(e)  AREA(A**2) SIGMA(e/A**2)
   1   1   0.739158   5.708806   2.032235   0.002410   0.418105   0.005765
   2   1   3.758347   4.262114  -3.384906   0.000942   0.278737   0.003379
   3   1   3.087139   7.005236  -0.811094   0.001637   0.371649   0.004405
   4   1   4.486084   5.954846   2.613037   0.001526   0.371649   0.004107
   5   1   0.245721   4.599163   2.381859   0.000469   0.092912   0.005044
   6   1   5.287108   5.942641   1.926993   0.001454   0.325193   0.004470
   7   1   4.034390   6.762484  -1.153826   0.001195   0.278737   0.004286
   8   1   4.211935   4.941834  -3.024179   0.001095   0.278737   0.003928
   9   1   0.515304   4.954537   2.487647   0.000696   0.139368   0.004994
  10   1   4.725645   3.852695  -3.148868   0.000658   0.232280   0.002831
  11   1   3.081228   5.339591  -2.998158   0.001429   0.325193   0.004395
  12   1   3.263244   6.395911  -2.032233   0.001973   0.371649   0.005310
  13   1   3.673142   7.106988   0.196161   0.001728   0.511017   0.003381
  14   1   4.145139   6.702213   1.676268   0.001457   0.464561   0.003136
  15   1   5.504809   5.049306   2.611816   0.002182   0.371649   0.005870
  16   1   5.792089   4.043457   2.793377   0.001380   0.278737   0.004951
  17   1   2.679220   4.393072  -3.386093   0.001019   0.325193   0.003134
  18   1   2.327784   7.054833   0.579701   0.001176   0.371649   0.003164
  19   1   1.375023   6.503766   1.454087   0.001272   0.325193   0.003912
  20   1   1.944839   6.227688   2.418234   0.001768   0.464561   0.003806
  21   1   3.337715   6.326467   2.572731   0.000987   0.325193   0.003036
  22   1   4.614729   6.783822   0.813861   0.000825   0.278737   0.002961
  23   1   3.856811   5.816596  -2.552134   0.001369   0.278737   0.004913
  24   1   6.256218   4.279913   2.096534   0.001284   0.278737   0.004605
  25   1   1.888590   3.943898  -3.305992   0.000398   0.139368   0.002859
  26   1   2.793901   6.913553   1.511262   0.001389   0.511017   0.002718
  27   2   5.294596   1.989801  -3.268883   0.000179   0.139368   0.001287
  28   3   8.372106   0.351677   2.486343   0.002401   0.418105   0.005743
  29   3   6.460162  -1.160739  -3.268608   0.000803   0.232280   0.003458
  30   3   8.909130  -1.941844  -0.526885   0.001661   0.371649   0.004468
  31   3   7.146445  -3.153575   2.668375   0.001561   0.371649   0.004201
  32   3   7.288150   1.629546   2.672308   0.001209   0.232280   0.005206
  33   3   6.802320  -3.867310   1.910956   0.001646   0.371649   0.004430
  34   3   8.369523  -2.698917  -0.984422   0.001184   0.278737   0.004248
  35   3   6.743184  -1.969256  -2.974012   0.001267   0.325193   0.003896
  36   3   7.947747   1.453265   2.173559   0.001101   0.232280   0.004741
  37   3   7.649216   0.971771   2.913250   0.000933   0.185824   0.005023
  38   3   5.581184  -2.091189  -3.170912   0.000620   0.232280   0.002669
  39   3   7.544067  -1.129639  -2.770673   0.001415   0.325193   0.004350
  40   3   8.379962  -1.772417  -1.785752   0.001981   0.371649   0.005330
  41   3   8.671208  -2.674314   0.413905   0.001520   0.464561   0.003272
  42   3   8.040823  -3.030015   1.809797   0.001434   0.464561   0.003087
  43   3   5.957671  -3.659105   2.647751   0.001429   0.278737   0.005128
  44   3   6.853201  -0.306452  -3.140599   0.000868   0.278737   0.003114
  45   3   9.107227  -1.509215   0.819437   0.001187   0.371649   0.003194
  46   3   8.930171  -0.666118   1.804013   0.001576   0.418105   0.003770
  47   3   8.334244  -0.884546   2.773057   0.001773   0.464561   0.003816
  48   3   7.909920  -2.223828   2.774002   0.000998   0.325193   0.003070
  49   3   8.017826  -3.418283   0.904457   0.000795   0.278737   0.002854
  50   3   7.670143  -2.062571  -2.394188   0.001339   0.278737   0.004803
  51   3   6.704084   0.515143  -3.003540   0.000397   0.139368   0.002849
  52   3   8.696217  -1.986802   1.783856   0.001079   0.418105   0.002581
  53   5  -2.991179   2.708429  -3.465495   0.001471   0.325193   0.004524
  54   5  -2.589714   3.309402  -3.028048   0.001189   0.232280   0.005120
  55   5  -2.098772   3.041517   2.124854   0.000012   0.046456   0.000253
  56   5  -0.888396   2.510679  -3.679741   0.000958   0.185824   0.005153
  57   5  -1.781209   2.861512  -3.571727   0.002019   0.325193   0.006209
  58   6  -5.390676  -2.279825   3.816832   0.001831   0.371649   0.004928
  59   6  -3.605686   2.856274   2.670529   0.000184   0.092912   0.001975
  60   6  -3.128143   2.547558   2.935388   0.000046   0.046456   0.000987
  61   6  -5.107157  -3.089971   3.236353   0.001379   0.278737   0.004948
  62   6  -5.132896  -2.686749  -2.054089   0.000268   0.139368   0.001924
  63   6  -3.226695  -2.600092   3.654259   0.000939   0.185824   0.005053
  64   6  -4.169309  -2.781748   3.678704   0.001953   0.325193   0.006006
  65   6  -6.228137  -2.293294   3.332030   0.001135   0.325193   0.003489
  66   6  -6.298245  -1.229910   3.815225   0.000764   0.232280   0.003288
  67   6  -3.906290   2.750467   2.906812   0.000108   0.046456   0.002327
  68   6  -6.530194  -2.765569   2.557370   0.000867   0.278737   0.003111
  69   6  -4.579652  -2.756932  -2.118523   0.000076   0.046456   0.001627
  70   7  -9.923446  -0.077116  -1.626657   0.002306   0.418105   0.005515
  71   7  -7.024761   2.673522   3.222316   0.001034   0.325193   0.003179
  72   7  -8.061905   3.178657  -2.837980   0.001918   0.418105   0.004588
  73   7  -9.810467   2.813969   0.708088   0.001491   0.371649   0.004012
  74   7  -8.125814  -2.435587   0.484314   0.000593   0.278737   0.002128
  75   7  -7.409610  -2.277095  -1.884348   0.000689   0.232280   0.002966
  76   7  -8.083657  -2.405262  -0.970283   0.001001   0.325193   0.003079
  77   7  -9.080062  -1.686992  -1.192504   0.001316   0.278737   0.004723
  78   7  -9.109259   3.646691   0.836167   0.001605   0.371649   0.004318
  79   7  -7.637226   3.877599  -2.323624   0.001217   0.278737   0.004367
  80   7  -5.423045   3.679491  -2.483638   0.000525   0.139368   0.003765
  81   7  -6.978153   3.418162   2.731562   0.000610   0.185824   0.003281
  82   7  -9.266796  -1.075840  -1.877198   0.001079   0.232280   0.004645
  83   7  -9.657726  -1.105646  -0.970452   0.001307   0.278737   0.004689
  84   7  -5.608205   2.852296  -3.250317   0.001183   0.278737   0.004245
  85   7  -6.795551   3.282867  -3.116515   0.001825   0.325193   0.005612
  86   7  -8.909737   3.454771  -1.824754   0.001531   0.464561   0.003297
  87   7  -9.666527   3.180024  -0.474123   0.001414   0.464561   0.003044
  88   7  -9.042370   3.057082   1.886824   0.001954   0.371649   0.005259
  89   7  -8.121718   2.647609   2.907444   0.001729   0.371649   0.004653
  90   7  -7.466641   1.655013   3.490172   0.001281   0.371649   0.003446
  91   7  -9.179409   2.381793  -2.524190   0.001293   0.418105   0.003093
  92   7  -9.872296   1.204957  -2.034812   0.001534   0.418105   0.003668
  93   7 -10.297374   0.953795  -0.986903   0.001712   0.464561   0.003684
  94   7 -10.227361   2.090778  -0.164651   0.000975   0.325193   0.002998
  95   7  -8.285514  -1.989844  -1.775369   0.000833   0.232280   0.003587
  96   7  -8.678358  -2.189603  -0.271962   0.000862   0.232280   0.003709
  97   7  -8.999579   3.832804  -0.790318   0.000809   0.278737   0.002903
  98   7  -6.097160   3.580318  -2.817084   0.001148   0.232280   0.004941
  99   7  -6.104329   3.207246   2.877208   0.000703   0.232280   0.003027
 100   7  -8.095887   3.462901   2.300964   0.001492   0.325193   0.004587
 101   7  -7.310148   0.623103   3.569523   0.000097   0.092912   0.001044
 102   7  -9.871979   2.378305  -1.439383   0.001192   0.464561   0.002566
 103   8  -1.717354  -5.861709  -2.313209   0.002376   0.418105   0.005682
 104   8   0.721637  -4.357483   3.343773   0.000874   0.278737   0.003135
 105   8   0.058232  -7.148833   0.820283   0.001659   0.371649   0.004465
 106   8   1.953762  -6.433511  -2.447793   0.001618   0.371649   0.004354
 107   8  -2.263683  -4.319895  -2.726394   0.000937   0.185824   0.005042
 108   8   2.745675  -6.399260  -1.690678   0.001700   0.371649   0.004574
 109   8   0.979924  -6.988151   1.265639   0.001208   0.278737   0.004332
 110   8   1.136846  -5.098965   3.068654   0.001092   0.278737   0.003918
 111   8  -2.349268  -5.158932  -2.146359   0.000669   0.139368   0.004804
 112   8  -1.926851  -4.972193  -2.817400   0.000938   0.185824   0.005049
 113   8   1.659745  -4.140692   3.227815   0.000523   0.185824   0.002813
 114   8  -0.019885  -5.377634   2.921333   0.001473   0.325193   0.004529
 115   8   0.229467  -6.543735   1.982632   0.001731   0.325193   0.005322
 116   8   0.816694  -7.360963  -0.105968   0.001550   0.464561   0.003337
 117   8   1.425938  -7.090405  -1.530062   0.001476   0.464561   0.003178
 118   8   3.005277  -5.533160  -2.523747   0.001679   0.325193   0.005162
 119   8  -0.424169  -4.305732   3.215236   0.001087   0.371649   0.002925
 120   8  -0.417015  -7.235661  -0.523441   0.001178   0.371649   0.003169
 121   8  -1.079230  -6.769987  -1.551142   0.001609   0.418105   0.003848
 122   8  -0.607347  -6.429490  -2.552778   0.001798   0.464561   0.003870
 123   8   0.774729  -6.680856  -2.532539   0.001030   0.325193   0.003166
[...]
 528   6  -4.034293  -3.188284  -1.850072  -0.000019   0.090602  -0.000212
 529   8  -3.145380  -3.718074  -1.979941   0.000241   0.090602   0.002658
 530  19  -4.076497  -3.438491  -1.679360  -0.000124   0.090602  -0.001372
 531   6  -2.431418  -3.296361   2.949318   0.000208   0.088467   0.002355
 532   8  -1.590084  -3.900932   2.828982  -0.000040   0.088467  -0.000453
 533  25  -1.831384  -4.061922   2.734682  -0.000149   0.088467  -0.001687
 534   8  -2.788203  -3.839000  -2.473887   0.000534   0.158918   0.003359
 535   6  -3.969653  -2.955410  -2.243904   0.000399   0.158918   0.002508
 536   8  -1.313013  -3.619962   3.152673   0.000446   0.190052   0.002344
 537   6  -2.590719  -2.886054   3.401696   0.000640   0.190052   0.003367
 538   6  -2.430269  -1.907737   3.810637   0.000109   0.086242   0.001265
 539  16  -1.472792  -1.773157   3.861067   0.000167   0.086242   0.001932
 540  20  -2.481146  -1.680209   4.010697  -0.000059   0.086242  -0.000686
 541  16  -0.943285  -2.043214   3.932858   0.000029   0.064242   0.000450
 542   6  -2.348024  -2.244168   3.756784   0.000296   0.090991   0.003253
 543   6  -3.777392   3.323015   1.843218   0.000102   0.165685   0.000614
 544  17  -3.262090   3.651680   1.419248  -0.000077   0.165685  -0.000468
 545  21  -4.320160   3.761457   1.532358  -0.000090   0.165685  -0.000541
 546  17  -2.533875   3.645204   1.616211  -0.000184   0.140834  -0.001309
 547   6  -3.159946   3.054775   2.316323   0.000366   0.198725   0.001841
 548   6  -4.756825  -1.714159  -2.785712   0.000181   0.169069   0.001071
 549  18  -4.218703  -1.439368  -3.245537   0.000052   0.169069   0.000307
 550  22  -5.326841  -1.334736  -3.121989   0.000005   0.169069   0.000031
 551  18  -3.492980  -1.862489  -3.348203  -0.000109   0.122929  -0.000885
 552   6  -4.331861  -2.185330  -2.664501   0.000380   0.173284   0.002193
 553   6  -3.684666  -3.709457   2.645625   0.000005   0.075481   0.000065
 554  19  -3.763795  -3.931174   2.452133  -0.000145   0.075481  -0.001918
 555  25  -2.999977  -4.357460   2.322612  -0.000235   0.075481  -0.003116
 556  19  -5.153899  -3.309263  -1.542429  -0.000191   0.099069  -0.001926
 557   6  -4.946921  -2.974634  -1.820048  -0.000087   0.121034  -0.000722
 558  19  -4.414609  -3.767159   2.627374  -0.000022   0.075365  -0.000290
 559  19  -5.579388  -3.587783   2.358382  -0.000266   0.170813  -0.001556
 560  19  -6.495276  -3.399032   1.592376  -0.000075   0.075365  -0.000995
 561   6  -4.860548  -3.387206   2.840884   0.000134   0.162028   0.000825
 562   6  -6.304723  -3.131691   2.122500  -0.000098   0.162028  -0.000602
 563  20  -3.234149   2.275431   3.464377  -0.000071   0.067460  -0.001054
 564  20  -4.067329   2.355074   3.560814  -0.000052   0.067460  -0.000772
 565   6  -3.677511   2.490425   3.136624  -0.000125   0.148837  -0.000839
 566  20  -5.827023  -0.360498   4.316402  -0.000044   0.076948  -0.000575
 567  20  -5.073775  -1.324213   4.399876  -0.000146   0.174840  -0.000838
 568  20  -3.679083  -1.792433   4.302541  -0.000182   0.174840  -0.001041
 569   6  -5.824792  -0.945309   4.081992  -0.000102   0.165106  -0.000618
 570   6  -4.536038  -1.983167   4.107877   0.000207   0.165106   0.001253
 571   6  -3.199453  -2.126243   3.956103   0.000223   0.094009   0.002377
 572  21  -5.004568   3.884412   1.925905  -0.000122   0.112289  -0.001085
 573   6  -4.160698   3.232501   2.314022   0.000312   0.158253   0.001970
 574  22  -6.089786  -1.579136  -3.074211  -0.000252   0.163804  -0.001537
 575   6  -5.391631  -2.212088  -2.435505   0.000453   0.230771   0.001964
 576  23  -8.208494  -1.891728   1.997824  -0.000213   0.203804  -0.001045
 577  23  -7.971245  -0.856594   3.004329  -0.001096   0.417559  -0.002624
 578   6  -7.121520  -1.988745   2.593526   0.000858   0.557804   0.001537
 579   6  -6.838781  -0.709899   3.619647   0.000707   0.287033   0.002463
 580  25  -2.219383  -4.403112   2.649139  -0.000408   0.262521  -0.001554
 581   6  -3.312460  -3.486764   3.045439   0.001110   0.372504   0.002981
 582   7  -4.765880   3.862172  -1.866401   0.000081   0.086866   0.000933
 583  17  -3.795672   3.906563  -1.721081   0.000176   0.086866   0.002024
 584  21  -4.846106   4.078683  -1.664985  -0.000008   0.086866  -0.000092
 585  17  -3.242032   3.969705  -1.988433   0.000042   0.038733   0.001080
 586   7  -4.680219   3.848193  -2.125952   0.000226   0.054932   0.004115
 587   7  -5.145490   1.867800  -3.567306   0.000116   0.088976   0.001304
 588  18  -4.217825   1.516205  -3.770038   0.000267   0.088976   0.003005
 589  22  -5.321931   1.671348  -3.722812  -0.000083   0.088976  -0.000932
 590  18  -3.642946   1.634661  -4.019551   0.000086   0.040972   0.002109
 591   7  -4.993988   2.127271  -3.612256   0.000241   0.058287   0.004138
 592  19  -6.787865  -3.316381   0.957031  -0.000090   0.165535  -0.000544
 593  19  -6.531056  -3.415574  -0.238510  -0.000704   0.336319  -0.002094
 594  19  -5.899587  -3.243404  -1.276156  -0.000091   0.165535  -0.000550
 595   7  -7.571151  -2.704080   0.297244   0.000812   0.456795   0.001777
 596   7  -6.935563  -2.651862  -1.300664   0.000843   0.456795   0.001844
 597  20  -4.780751   2.172405   3.714695  -0.000120   0.218063  -0.000549
 598  20  -5.669961   0.949453   4.129245  -0.001095   0.449322  -0.002437
 599   7  -5.983282   2.215169   3.369577   0.001045   0.594577   0.001757
 600   7  -6.898411   0.726590   3.721294   0.000772   0.307201   0.002514
 601  21  -5.538641   4.295335  -1.838618  -0.000033   0.067692  -0.000489
 602  21  -6.622377   4.390875  -1.915637  -0.000110   0.149557  -0.000736
 603  21  -7.807560   4.436827  -1.336317  -0.000218   0.149557  -0.001457
 604  21  -8.416781   4.383528  -0.166535  -0.000250   0.149557  -0.001674
 605  21  -8.208702   4.252092   1.130311  -0.000157   0.149557  -0.001052
 606  21  -7.265752   4.094587   2.040487  -0.000193   0.149557  -0.001290
 607  21  -5.961473   3.973406   2.203434  -0.000330   0.149557  -0.002207
 608   7  -5.934583   4.019929  -2.182866   0.000172   0.149098   0.001153
 609   7  -7.400500   4.122291  -1.982415   0.000119   0.149098   0.000801
 610   7  -8.462522   4.117942  -0.947204  -0.000017   0.149098  -0.000111
 611   7  -8.699939   4.008606   0.512676   0.000054   0.149098   0.000364
 612   7  -8.018700   3.837596   1.818907   0.000124   0.149098   0.000832
 613   7  -6.688672   3.672655   2.454038  -0.000091   0.149098  -0.000609
 614   7  -5.491242   3.582066   2.369372   0.000029   0.082701   0.000350
 615  22  -6.839630  -1.789354  -2.853129  -0.000072   0.067880  -0.001060
 616  22  -7.904628  -1.606113  -2.686464  -0.000217   0.150050  -0.001446
 617  22  -8.931416  -0.771724  -2.669074  -0.000174   0.150050  -0.001157
 618  22  -9.276302   0.488718  -2.876781  -0.000178   0.150050  -0.001187
 619  22  -8.801952   1.673297  -3.226874  -0.000245   0.150050  -0.001632
 620  22  -7.697254   2.310309  -3.579946  -0.000103   0.150050  -0.000686
 621  22  -6.402104   2.146092  -3.795400  -0.000213   0.150050  -0.001421
 622   7  -7.198764  -1.931355  -2.402725  -0.000125   0.149435  -0.000840
 623   7  -8.576139  -1.392348  -2.252975   0.000081   0.149435   0.000544
 624   7  -9.388184  -0.152185  -2.365645   0.000089   0.149435   0.000593
 625   7  -9.311541   1.295293  -2.695868   0.000008   0.149435   0.000050
 626   7  -8.376727   2.373694  -3.112149   0.000029   0.149435   0.000196
 627   7  -6.955992   2.653594  -3.448723   0.000135   0.149435   0.000905
 628   7  -5.817110   2.279339  -3.588104   0.000135   0.082930   0.001625
 629  23  -8.054335   0.309204   3.419818  -0.000081   0.068958  -0.001173
 630  23  -8.566231   1.265721   3.181550  -0.000261   0.152991  -0.001706
 631  23  -9.372454   1.972049   2.372255  -0.000135   0.152991  -0.000884
 632  23 -10.099765   1.880483   1.246872  -0.000256   0.152991  -0.001670
 633  23 -10.448679   1.028727   0.268801  -0.000271   0.152991  -0.001771
 634  23 -10.275524  -0.232491  -0.159217  -0.000158   0.152991  -0.001032
 635  23  -9.651599  -1.383838   0.139063  -0.000192   0.152991  -0.001257
 636  23  -8.833819  -1.951224   1.040818  -0.000316   0.152991  -0.002068
 637   7  -7.858004   0.872775   3.390188  -0.000114   0.151274  -0.000755
 638   7  -8.664189   2.011265   2.815365   0.000141   0.151274   0.000934
 639   7  -9.573658   2.375852   1.667995   0.000117   0.151274   0.000777
 640   7 -10.211919   1.816410   0.420531  -0.000059   0.151274  -0.000389
 641   7 -10.316153   0.563301  -0.413357  -0.000047   0.151274  -0.000314
 642   7  -9.843441  -0.867482  -0.490299   0.000127   0.151274   0.000842
 643   7  -8.988432  -1.886784   0.221388  -0.000004   0.151274  -0.000025
 644   7  -8.249130  -2.186546   1.152238   0.000018   0.084248   0.000213
 645   8   3.817303  -5.484947  -1.345858   0.000093   0.077938   0.001188
 646  13   4.688037  -5.046675  -1.221820  -0.000225   0.077938  -0.002888
 647  24   3.955714  -5.549276  -1.083164  -0.000165   0.077938  -0.002112
 648   8   3.394913  -4.198360  -2.868857   0.000248   0.044036   0.005628
 649  13   4.259894  -3.867729  -2.548949   0.000110   0.044036   0.002494
 650  26   3.173957  -4.176479  -3.075862   0.000096   0.044036   0.002186
 651  13   5.123806  -4.780026  -1.658096  -0.000797   0.229060  -0.003481
 652  13   4.989071  -4.094057  -2.368963  -0.000595   0.229060  -0.002599
 653   8   3.730530  -4.939048  -2.246645   0.002094   0.640224   0.003270
 654   8   2.310794  -2.989319   3.186511   0.000536   0.248717   0.002157
 655  15   3.305148  -2.315860   3.474560   0.000480   0.248717   0.001932
 656  16   2.212457  -2.333392   3.549011   0.000112   0.248717   0.000450
 657   8   2.717532  -3.736807   2.900149  -0.000007   0.111916  -0.000062
 658  15   3.686491  -3.018170   3.125557   0.000390   0.111916   0.003482
 659  24   2.943446  -3.926229   2.818303  -0.000167   0.111916  -0.001489
 660  15   3.963985  -2.555650   3.713772   0.000073   0.109472   0.000670
 661   8   2.554846  -3.594982   3.238806   0.000496   0.160512   0.003089
 662  16  -0.269070  -2.471732   3.842486  -0.000058   0.167377  -0.000348
 663  16   0.968053  -2.511393   3.883626  -0.000401   0.340179  -0.001177
 664   8   0.144944  -3.518869   3.440253   0.001000   0.461690   0.002166
 665   8   1.552938  -3.489434   3.406443   0.000657   0.235995   0.002784
 666   8  -1.863398  -3.448136  -3.308144   0.000165   0.084973   0.001943
 667  18  -2.195896  -2.569503  -3.531751   0.000198   0.084973   0.002330
 668  26  -1.649899  -3.477800  -3.526704  -0.000061   0.084973  -0.000717
 669  18  -2.765208  -2.231697  -3.569886   0.000030   0.135600   0.000221
 670   8  -2.315800  -3.496216  -3.078625   0.000641   0.191985   0.003340
 671   8  -2.912341  -4.877470  -1.426607  -0.000057   0.073562  -0.000770
 672  19  -3.761291  -4.451693  -1.060343  -0.000197   0.073562  -0.002677
 673  25  -3.057093  -4.973286  -1.177193  -0.000189   0.073562  -0.002564
 674  19  -4.205227  -3.886925  -1.467904  -0.000304   0.256084  -0.001189
 675   8  -2.939509  -4.580963  -1.912623   0.001031   0.364213   0.002830
 676  24   2.488377  -4.601223   2.881805  -0.000136   0.067486  -0.002015
 677  24   2.003477  -5.553902   2.646800  -0.000219   0.149419  -0.001466
 678  24   1.796436  -6.552114   1.801606  -0.000160   0.149419  -0.001074
 679  24   2.115418  -7.003654   0.598274  -0.000259   0.149419  -0.001731
 680  24   2.832403  -6.727300  -0.480246  -0.000289   0.149419  -0.001932
 681  24   3.520405  -6.062125  -1.011422  -0.000075   0.067486  -0.001116
 682   8   1.926215  -4.779676   2.924977  -0.000061   0.148302  -0.000413
 683   8   1.418648  -6.048557   2.336849   0.000168   0.148302   0.001132
 684   8   1.484945  -6.907175   1.123607   0.000090   0.148302   0.000610
 685   8   2.098499  -7.010930  -0.227824  -0.000026   0.148302  -0.000177
 686   8   3.013063  -6.318180  -1.175056   0.000040   0.148302   0.000267
 687  25  -2.665618  -5.506416  -1.276028  -0.000073   0.070138  -0.001046
 688  25  -2.038580  -6.361186  -0.876270  -0.000259   0.156456  -0.001655
 689  25  -1.323106  -6.897668   0.159565  -0.000306   0.156456  -0.001955
 690  25  -0.936621  -6.637050   1.446181  -0.000197   0.156456  -0.001262
 691  25  -1.045571  -5.691570   2.429476  -0.000201   0.156456  -0.001282
 692  25  -1.452232  -4.688194   2.763358  -0.000095   0.070138  -0.001354
 693   8  -2.191523  -5.804826  -1.496734   0.000044   0.153038   0.000289
 694   8  -1.328396  -6.779254  -0.679394  -0.000015   0.153038  -0.000099
 695   8  -0.673261  -6.943260   0.701345   0.000054   0.153038   0.000354
 696   8  -0.508261  -6.226213   2.050849   0.000141   0.153038   0.000922
 697   8  -0.904457  -4.936919   2.787934  -0.000015   0.153038  -0.000101
 698  26   2.719083  -4.639111  -3.435899   0.000012   0.070313   0.000175
 699  26   2.051311  -5.543007  -3.341810  -0.000183   0.156428  -0.001167
 700  26   0.791750  -6.061984  -3.309100  -0.000282   0.156428  -0.001803
 701  26  -0.520339  -5.702028  -3.384953  -0.000237   0.156428  -0.001518
 702  26  -1.328812  -4.615710  -3.537217  -0.000111   0.156428  -0.000711
 703   8   2.703093  -5.094761  -3.041180   0.000202   0.153859   0.001315
 704   8   1.555081  -6.102712  -2.946072  -0.000042   0.153859  -0.000273
 705   8   0.027547  -6.197169  -2.971698  -0.000062   0.153859  -0.000400
 706   8  -1.232047  -5.338096  -3.107197   0.000178   0.153859   0.001159
 707   8  -1.754670  -4.218405  -3.256581   0.000183   0.085903   0.002131
 708  14   7.230892   2.155881  -2.206142  -0.000059   0.219760  -0.000268
 709  14   7.875891   2.536639  -1.447737  -0.000790   0.439512  -0.001797
 710  14   8.167788   2.723674  -0.189859  -0.000698   0.439512  -0.001589
 711  14   7.938906   2.609547   0.844919   0.000194   0.219760   0.000885
 712   9   6.790720   3.538080  -1.955249  -0.000547   0.439512  -0.001246
 713   9   7.406701   3.907582  -0.865994  -0.000815   0.439512  -0.001854
 714   9   7.345922   3.893830   0.437294  -0.000387   0.439512  -0.000880
 715  17  -1.550587   4.900494   0.555890  -0.000615   0.207033  -0.002972
 716  17  -1.689416   5.053712  -0.575313  -0.001836   0.414461  -0.004430
 717  17  -1.478044   4.606741  -1.889157  -0.001214   0.414461  -0.002929
 718  10  -0.578370   5.604019   0.085561  -0.001405   0.414461  -0.003390
 719  10  -0.601039   5.543341  -1.316741  -0.002104   0.414461  -0.005076
 720  10  -0.316156   4.997209  -2.287797  -0.000732   0.207033  -0.003535
 721  11   3.019059   1.388306   4.016479  -0.000113   0.323055  -0.000351
 722  15   3.592308   0.414253   4.038983  -0.000062   0.323055  -0.000192
 723  16   2.491484   0.452553   4.048672  -0.000027   0.323055  -0.000083
 724  15   5.734580   1.383655   3.970991   0.000356   0.279408   0.001274
 725  15   4.742952   0.811762   4.352779  -0.000308   0.558661  -0.000552
 726  11   4.552732   2.549961   4.109909   0.000096   0.558661   0.000171
 727  11   3.536286   1.960364   4.384433  -0.000007   0.279408  -0.000024
 728  16   1.748640   0.645933   4.437246   0.000037   0.266989   0.000137
 729  16   0.713051   1.224912   4.224176  -0.000072   0.533996  -0.000135
 730  11   2.093303   2.192491   4.352420  -0.000621   0.533996  -0.001162
 731  11   1.077624   2.757260   4.032279   0.000026   0.266989   0.000099
 732  20  -2.085482   1.922122   3.826015   0.000651   0.303924   0.002141
 733  11   0.406484   3.282285   3.575008   0.000803   0.303924   0.002642
 734  12   1.143706  -0.777565  -4.233219   0.000226   0.334129   0.000676
 735  18  -0.006844  -0.881989  -4.244627   0.000102   0.334129   0.000305
 736  26   0.599716  -1.766086  -4.193219  -0.000079   0.334129  -0.000235
 737  18  -0.410144   1.240526  -4.469966   0.000546   0.252175   0.002165
 738  18  -0.315969   0.181514  -4.665837   0.000226   0.504039   0.000448
 739  12   1.255484   0.986993  -4.572565   0.000210   0.504039   0.000417
 740  12   1.350815  -0.084442  -4.680646   0.000141   0.252175   0.000560
 741  26   1.161133  -2.315095  -4.551260  -0.000027   0.284081  -0.000096
 742  26   2.213727  -2.875565  -4.264025  -0.000120   0.568044  -0.000211
 743  12   2.338446  -1.137035  -4.557809  -0.000036   0.568044  -0.000063
 744  12   3.365438  -1.676962  -4.159878   0.000409   0.284081   0.001439
 745  24   4.218230  -5.758705  -0.702016  -0.000255   0.263718  -0.000966
 746  24   4.469107  -5.649588   0.634650  -0.002292   0.528575  -0.004336
 747  13   5.426215  -5.128411  -0.443492  -0.002281   0.528575  -0.004315
 748  13   5.607449  -4.899472   0.889274  -0.000268   0.263718  -0.001015
 749  26   3.167598  -3.912976  -3.481765   0.000594   0.230782   0.002572
 750  13   4.800625  -3.621844  -2.786338   0.000344   0.230782   0.001492
 751  16   2.213920  -1.898668   4.111397   0.000361   0.274244   0.001317
 752  16   2.252078  -0.727049   4.415028  -0.000133   0.548433  -0.000243
 753  15   3.784753  -1.509882   4.264356  -0.000293   0.548433  -0.000534
 754  15   3.823900  -0.315309   4.458785  -0.000085   0.274244  -0.000310
 755  24   3.415753  -4.315890   2.864354   0.000281   0.279346   0.001005
 756  15   4.367734  -3.011033   3.539474   0.000633   0.279346   0.002267
 757  20  -2.431044  -1.457383   4.393249   0.000367   0.229005   0.001604
 758  20  -2.256940  -0.443905   4.718531  -0.000199   0.457954  -0.000435
 759  20  -2.097006   0.835361   4.439307  -0.000308   0.457954  -0.000673
 760  16  -0.922055  -1.287068   4.417429  -0.000047   0.457954  -0.000103
 761  16  -0.723245   0.009393   4.557892  -0.000242   0.457954  -0.000529
 762  16  -0.619363   0.991811   4.125086   0.000099   0.229005   0.000434
 763  21  -4.515916   4.348437   1.339472   0.000068   0.252639   0.000268
 764  21  -4.577208   4.833127   0.306357  -0.000515   0.505194  -0.001020
 765  21  -4.744464   4.664855  -1.065937  -0.000064   0.505194  -0.000127
 766  17  -3.028589   4.401635   0.793277  -0.000392   0.505194  -0.000777
 767  17  -3.143389   4.709970  -0.559953  -0.000477   0.505194  -0.000945
 768  17  -3.299491   4.333233  -1.627525   0.000252   0.252639   0.000998
 769  22  -5.416794   1.442504  -4.097761   0.000382   0.243792   0.001569
 770  22  -5.538065   0.404236  -4.310236  -0.000059   0.487330  -0.000121
 771  22  -5.607649  -0.829398  -3.892526  -0.000099   0.487330  -0.000203
 772  18  -3.884304   0.903898  -4.380314   0.000289   0.487330   0.000592
 773  18  -4.006202  -0.394683  -4.378209  -0.000014   0.487330  -0.000028
 774  18  -4.033094  -1.315780  -3.840891   0.000237   0.243792   0.000970
 775  26  -1.513223  -3.448085  -3.945041   0.000376   0.231459   0.001624
 776  26  -0.732986  -2.946672  -4.456295  -0.000199   0.462779  -0.000430
 777  26   0.139073  -2.356601  -4.569848  -0.000097   0.231459  -0.000420
 778  18  -2.080613  -2.017413  -4.243083  -0.000045   0.462779  -0.000096
 779  18  -1.049321  -1.336155  -4.633061  -0.000253   0.462779  -0.000547
 780  25  -2.890927  -4.995129   2.176670  -0.000713   0.237712  -0.002999
 781  25  -3.303908  -5.518118   1.106942  -0.002323   0.476095  -0.004879
 782  25  -3.354659  -5.408218  -0.417731  -0.001665   0.476095  -0.003497
 783  19  -4.130292  -4.552030   1.869046  -0.001387   0.476095  -0.002913
 784  19  -4.470886  -4.912777   0.422279  -0.002092   0.476095  -0.004393
 785  19  -4.358283  -4.582324  -0.788717  -0.000594   0.237712  -0.002499
 =====================================================


   1 warning(s) detected.
     A line exceeding 80 characters begins with "http://cactus.nci.ni".
 There may be a problem in your input file.

              6157928  WORDS OF DYNAMIC MEMORY USED
 EXECUTION OF GAMESS TERMINATED NORMALLY Wed Nov 23 05:04:10 2016
 DDI: 263640 bytes (0.3 MB / 0 MWords) used by master data server.

 ----------------------------------------
 CPU timing information for all processes
 ========================================
 0: 3135.884 + 0.932 = 3136.816
 ----------------------------------------
 ddikick.x: exited gracefully.
