----- GAMESS execution script -----

          ******************************************************
          *         GAMESS VERSION =  5 DEC 2014 (R1)          *
          *             FROM IOWA STATE UNIVERSITY             *
          * M.W.SCHMIDT, K.K.BALDRIDGE, J.A.BOATZ, S.T.ELBERT, *
          *   M.S.GORDON, J.H.JENSEN, S.KOSEKI, N.MATSUNAGA,   *
          *          K.A.NGUYEN, S.J.SU, T.L.WINDUS,           *
          *       TOGETHER WITH M.DUPUIS, J.A.MONTGOMERY       *
          *         J.COMPUT.CHEM.  14, 1347-1363(1993)        *
          **************** 64 BIT LINUX VERSION ****************

 EXECUTION OF GAMESS BEGUN Wed Nov 23 04:30:01 2016

            ECHO OF THE FIRST FEW INPUT CARDS -
 INPUT CARD>! SELECT RESTRICTED HARTREE-FOCK AS DEFAULT                                     
 INPUT CARD>$contrl scftyp=rhf $end                                                         
 INPUT CARD>                                                                                
 INPUT CARD>! THEORY: HF OR DFT                                                             
 INPUT CARD> $contrl mplevl=0 $end                                                          
 INPUT CARD>                                                                                
 INPUT CARD> $system timlim=10000 mwords=20 $end                                            
 INPUT CARD> $SCF DIRSCF=.TRUE. $end                                                        
 INPUT CARD>                                                                                
 INPUT CARD>                                                                                
 INPUT CARD>! BASIS SETS                                                                    
 INPUT CARD>! 6-311G(d,p)                                                                   
 INPUT CARD> $BASIS GBASIS=N311 NGAUSS=6 NDFUNC=1 NPFUNC=1 $END                             
 INPUT CARD>                                                                                
 INPUT CARD>! One of the following                                                          
 INPUT CARD> $guess guess=HUCKEL $end                                                       
 INPUT CARD>                                                                                
 INPUT CARD> $statpt projct=.FALSE. $end                                                    
 INPUT CARD> $STATPT IFREEZ(1)=1,2,3 $END                                                   
 INPUT CARD>                                                                                
 INPUT CARD>! Optimize the geometry with COSMO effects                                      
 INPUT CARD> $statpt opttol=0.0005 nstep=50 $end                                            
 INPUT CARD> $contrl nzvar=1 $end                                                           
 INPUT CARD> $zmat dlc=.t. auto=.t. $end                                                    
 INPUT CARD> $contrl runtyp=OPTIMIZE maxit=200 $end                                         
 INPUT CARD>                                                                                
 INPUT CARD>! Run COSMO on perfect conductor                                                
 INPUT CARD> $COSGMS PRFCND=.TRUE. $end                                                     
 INPUT CARD>                                                                                
 INPUT CARD>! Specifying RSOLV                                                              
 INPUT CARD> $COSGMS COSRAD = 1.4 $end                                                      
 INPUT CARD>                                                                                
 INPUT CARD>! available memory                                                              
 INPUT CARD> $SYSTEM MWORDS=40 $END                                                         
 INPUT CARD>                                                                                
 INPUT CARD> $DATA                                                                          
 INPUT CARD>Pentane, 2,3-dimethyl-, ID: C565593                                             
 INPUT CARD>C1                                                                              
 INPUT CARD>C      6.0      4.3751000000    2.6128000000    2.7529000000                    
 INPUT CARD>C      6.0      3.2736000000    1.9976000000    1.8651000000                    
 INPUT CARD>C      6.0      1.9284000000    2.6959000000    2.0896000000                    
 INPUT CARD>C      6.0      3.1364000000    0.5066000000    2.1417000000                    
 INPUT CARD>C      6.0      4.5445000000    4.1009000000    2.4849000000                    
 INPUT CARD>C      6.0      5.7094000000    1.9144000000    2.5314000000                    
 INPUT CARD>C      6.0      0.9524000000    2.4445000000    0.9624000000                    
 INPUT CARD>H      1.0      4.0701000000    2.4735000000    3.8192000000                    
 INPUT CARD>H      1.0      3.5772000000    2.1391000000    0.7982000000                    
 INPUT CARD>H      1.0      1.4902000000    2.3691000000    3.0539000000                    
 INPUT CARD>H      1.0      2.0935000000    3.7916000000    2.1977000000                    
 INPUT CARD>H      1.0      2.7404000000    0.3139000000    3.1481000000                    
   40000000 WORDS OF MEMORY AVAILABLE

     BASIS OPTIONS
     -------------
     GBASIS=N311         IGAUSS=       6      POLAR=POPN311 
     NDFUNC=       1     NFFUNC=       0     DIFFSP=       F
     NPFUNC=       1      DIFFS=       F     BASNAM=        


     RUN TITLE
     ---------
 Pentane, 2,3-dimethyl-, ID: C565593                                             

 THE POINT GROUP OF THE MOLECULE IS C1      
 THE ORDER OF THE PRINCIPAL AXIS IS     0

 ATOM      ATOMIC                      COORDINATES (BOHR)
           CHARGE         X                   Y                   Z
 C           6.0     8.2677401689        4.9374760607        5.2022266716
 C           6.0     6.1862069934        3.7749166331        3.5245279397
 C           6.0     3.6441475947        5.0945122903        3.9487714239
 C           6.0     5.9269365879        0.9573351854        4.0472261479
 C           6.0     8.5878597512        7.7495773030        4.6957801069
 C           6.0    10.7892015543        3.6176914309        4.7836523653
 C           6.0     1.7997750307        4.6194351770        1.8186722906
 H           1.0     7.6913737426        4.6742372306        7.2172414923
 H           1.0     6.7599278033        4.0423128603        1.5083792834
 H           1.0     2.8160696669        4.4769498375        5.7710341939
 H           1.0     3.9561413553        7.1650850550        4.1530508032
 H           1.0     5.1786050968        0.5931849875        5.9490463819
 H           1.0     4.6489149024        0.0483769853        2.6896469983
 H           1.0     7.7728209327        0.0000000000        3.9215593697
 H           1.0     9.9514860239        8.5974973537        6.0072499424
 H           1.0     9.2672162438        8.1088142133        2.7675037090
 H           1.0     6.7824155425        8.7645491311        4.9123427051
 H           1.0    11.5363992098        3.9795739575        2.8812652135
 H           1.0    12.2114093327        4.2635997735        6.1467117203
 H           1.0    10.5998510103        1.5537327071        4.9860420186
 H           1.0     1.3766653821        2.5987511783        1.5983302404
 H           1.0     0.0000000000        5.5930220059        2.1571222150
 H           1.0     2.5373350837        5.2944452998        0.0000000000

          INTERNUCLEAR DISTANCES (ANGS.)




     $CONTRL OPTIONS
     ---------------
 SCFTYP=RHF          RUNTYP=OPTIMIZE     EXETYP=RUN     
 MPLEVL=       0     CITYP =NONE         CCTYP =NONE         VBTYP =NONE    
 DFTTYP=NONE         TDDFT =NONE    
 MULT  =       1     ICHARG=       0     NZVAR =       1     COORD =UNIQUE  
 PP    =NONE         RELWFN=NONE         LOCAL =NONE         NUMGRD=       F
 ISPHER=      -1     NOSYM =       0     MAXIT =     200     UNITS =ANGS    
 PLTORB=       F     MOLPLT=       F     AIMPAC=       F     FRIEND=        
 NPRINT=       7     IREST =       0     GEOM  =INPUT   
 NORMF =       0     NORMP =       0     ITOL  =      20     ICUT  =       9
 INTTYP=BEST         GRDTYP=BEST         QMTTOL= 1.0E-06

     $SYSTEM OPTIONS
     ---------------
  REPLICATED MEMORY=    40000000 WORDS (ON EVERY NODE).
 DISTRIBUTED MEMDDI=           0 MILLION WORDS IN AGGREGATE,
 MEMDDI DISTRIBUTED OVER   1 PROCESSORS IS           0 WORDS/PROCESSOR.
 TOTAL MEMORY REQUESTED ON EACH PROCESSOR=    40000000 WORDS.
 TIMLIM=       10000.00 MINUTES, OR       6.9 DAYS.
 PARALL= F  BALTYP=  DLB     KDIAG=    0  COREFL= F
 MXSEQ2=     300 MXSEQ3=     150  mem10=         0

     $COSGMS OPTIONS
     ---------------
     EPSI  =   INFTY     NSPA  =      92     COSRAD=    1.40
     DISEX =   10.00     OUTCHG=DBLCAV       COSBUG=       F
     COSWRT=       F     DCOSMO=       F

     SYMMETRY COORDINATES WILL NOT BE USED FOR 
     THE COSMO CALCULATION, EVEN IF SPECIFIED:
         -- SWITCHING TO C1 POINT GROUP --


     DEFINITION OF CAVITY
     ---------------------------
     ATOM         COORDINATES           RADIUS 
     1    8.2677    4.9375    5.2022    2.0000
     2    6.1862    3.7749    3.5245    2.0000
     3    3.6441    5.0945    3.9488    2.0000
     4    5.9269    0.9573    4.0472    2.0000
     5    8.5879    7.7496    4.6958    2.0000
     6   10.7892    3.6177    4.7837    2.0000
     7    1.7998    4.6194    1.8187    2.0000
     8    7.6914    4.6742    7.2172    1.3000
     9    6.7599    4.0423    1.5084    1.3000
    10    2.8161    4.4769    5.7710    1.3000
    11    3.9561    7.1651    4.1531    1.3000
    12    5.1786    0.5932    5.9490    1.3000
    13    4.6489    0.0484    2.6896    1.3000
    14    7.7728    0.0000    3.9216    1.3000
    15    9.9515    8.5975    6.0072    1.3000
    16    9.2672    8.1088    2.7675    1.3000
    17    6.7824    8.7645    4.9123    1.3000
    18   11.5364    3.9796    2.8813    1.3000
    19   12.2114    4.2636    6.1467    1.3000
    20   10.5999    1.5537    4.9860    1.3000
    21    1.3767    2.5988    1.5983    1.3000
    22    0.0000    5.5930    2.1571    1.3000
    23    2.5373    5.2944    0.0000    1.3000

          ----------------
          PROPERTIES INPUT
          ----------------

     MOMENTS            FIELD           POTENTIAL          DENSITY
 IEMOM =       1   IEFLD =       0   IEPOT =       0   IEDEN =       0
 WHERE =COMASS     WHERE =NUCLEI     WHERE =NUCLEI     WHERE =NUCLEI  
 OUTPUT=BOTH       OUTPUT=BOTH       OUTPUT=BOTH       OUTPUT=BOTH    
 IEMINT=       0   IEFINT=       0                     IEDINT=       0
                                                       MORB  =       0
          EXTRAPOLATION IN EFFECT
          SOSCF IN EFFECT
 ORBITAL PRINTING OPTION: NPREO=     1   229     2     1

     -------------------------------
     INTEGRAL TRANSFORMATION OPTIONS
     -------------------------------
     NWORD  =            0
     CUTOFF = 1.0E-09     MPTRAN =       0
     DIRTRF =       T     AOINTS =DUP     

          ----------------------
          INTEGRAL INPUT OPTIONS
          ----------------------
 NOPK  =       1 NORDER=       0 SCHWRZ=       T


 -----------------------------------------------
  STATISTICS ON AUTOMATIC COORDINATE GENERATION 
 -----------------------------------------------
  NUMBER OF USER SPECIFIED BONDS                             0
  NUMBER OF BONDS                                           22
  NUMBER OF ANGLES                                          42
  NUMBER OF TORSIONS                                        54
  NUMBER OF EXTRA COORD.                                     0
  NUMBER OF EXTRA COORD. FOR CONSTRAINTS                     0
  NUMBER OF CONSTRAINED COORD.                               0

  TOTAL NUMBER OF PRIMITIVES                               118
 -----------------------------------------------

   --- ENCODED Z MATRIX ---
 COORD  TYPE   I   J   K   L   M   N
    1      1    1   6
    2      1    1   5
    3      1    1   8
    4      1    1   2
    5      1    2   4
    6      1    2   3
    7      1    2   9
    8      1    3   7
    9      1    3  11
   10      1    3  10
   11      1    4  14
   12      1    4  13
   13      1    4  12
   14      1    5  16
   15      1    5  15
   16      1    5  17
   17      1    6  20
   18      1    6  19
   19      1    6  18
   20      1    7  23
   21      1    7  22
   22      1    7  21
   23      2    1   5  17
   24      2    1   5  15
   25      2    1   2   9
   26      2    1   5  16
   27      2    1   6  20
   28      2    1   2   3
   29      2    1   2   4
   30      2    1   6  19
   31      2    1   6  18
   32      2    2   1   6
   33      2    2   1   8
   34      2    2   3  10
   35      2    2   3   7
   36      2    2   4  12
   37      2    2   4  14
   38      2    2   1   5
   39      2    2   3  11
   40      2    2   4  13
   41      2    3   7  22
   42      2    3   7  21
   43      2    3   7  23
   44      2    3   2   9
   45      2    3   2   4
   46      2    4   2   9
   47      2    5   1   8
   48      2    5   1   6
   49      2    6   1   8
   50      2    7   3  10
   51      2    7   3  11
   52      2   10   3  11
   53      2   12   4  13
   54      2   12   4  14
   55      2   13   4  14
   56      2   15   5  17
   57      2   15   5  16
   58      2   16   5  17
   59      2   18   6  19
   60      2   18   6  20
   61      2   19   6  20
   62      2   21   7  22
   63      2   21   7  23
   64      2   22   7  23
   65      3    1   2   4  12
   66      3    1   2   4  13
   67      3    1   2   4  14
   68      3    1   2   3  10
   69      3    1   2   3  11
   70      3    1   2   3   7
   71      3    2   1   6  20
   72      3    2   1   6  19
   73      3    2   1   5  15
   74      3    2   3   7  21
   75      3    2   3   7  22
   76      3    2   3   7  23
   77      3    2   1   5  16
   78      3    2   1   5  17
   79      3    2   1   6  18
   80      3    3   2   4  14
   81      3    3   2   4  12
   82      3    3   2   1   8
   83      3    3   2   1   5
   84      3    3   2   4  13
   85      3    3   2   1   6
   86      3    4   2   1   8
   87      3    4   2   3   7
   88      3    4   2   1   5
   89      3    4   2   1   6
   90      3    4   2   3  10
   91      3    4   2   3  11
   92      3    5   1   6  18
   93      3    5   1   6  19
   94      3    5   1   6  20
   95      3    5   1   2   9
   96      3    6   1   2   9
   97      3    6   1   5  16
   98      3    6   1   5  17
   99      3    6   1   5  15
  100      3    7   3   2   9
  101      3    8   1   6  19
  102      3    8   1   6  20
  103      3    8   1   5  16
  104      3    8   1   5  15
  105      3    8   1   5  17
  106      3    8   1   2   9
  107      3    8   1   6  18
  108      3    9   2   4  14
  109      3    9   2   4  12
  110      3    9   2   3  10
  111      3    9   2   4  13
  112      3    9   2   3  11
  113      3   10   3   7  23
  114      3   10   3   7  21
  115      3   10   3   7  22
  116      3   11   3   7  23
  117      3   11   3   7  21
  118      3   11   3   7  22

          INDEP./SYM. INTERNAL COORDINATES
          --------------------------------
 CRD  1=   0.4182 ( 28) -0.2370 ( 29) -0.3059 ( 32)  0.1145 ( 34) -0.3570 ( 35)
           0.3098 ( 38)  0.1338 ( 39) -0.1070 ( 44) -0.1548 ( 45)  0.1338 ( 46)
          -0.1071 ( 47)  0.1113 ( 49)  0.1132 ( 51)  0.1241 ( 65)  0.1205 ( 66)
           0.1381 ( 67)  0.1230 ( 69)  0.1219 ( 70)  0.1191 ( 71)  0.1138 ( 73)
           0.1322 ( 78) -0.1246 ( 80) -0.1386 ( 81) -0.1422 ( 84)
 CRD  2=   0.2363 (  6)  0.1605 (  8)  0.1126 ( 25) -0.3239 ( 29) -0.1449 ( 34)
           0.5212 ( 35)  0.2383 ( 38) -0.1595 ( 39)  0.1183 ( 43)  0.2137 ( 45)
          -0.1963 ( 50) -0.1454 ( 51)  0.1689 ( 68)  0.1104 ( 69)  0.1624 ( 70)
           0.1004 ( 71)  0.1145 ( 72)  0.1006 ( 79) -0.1158 ( 88) -0.1093 ( 89)
          -0.1211 ( 91)
 CRD  3=   0.3742 (  4)  0.1011 ( 23)  0.1101 ( 28)  0.2191 ( 29)  0.2643 ( 32)
          -0.1410 ( 33)  0.1356 ( 38)  0.1088 ( 44) -0.3597 ( 45) -0.3534 ( 48)
          -0.1114 ( 77) -0.1541 ( 82) -0.2519 ( 83)  0.1772 ( 87)  0.1506 ( 89)
          -0.1068 ( 95)  0.1085 ( 98)  0.1278 ( 99)
 CRD  4=  -0.1724 (  2)  0.1960 (  5)  0.2200 ( 27) -0.1023 ( 29) -0.1460 ( 31)
           0.1793 ( 32)  0.1284 ( 40) -0.1657 ( 44)  0.1578 ( 45) -0.2910 ( 48)
           0.1197 ( 49) -0.1627 ( 70)  0.1311 ( 75)  0.1976 ( 82)  0.1965 ( 83)
           0.3982 ( 85) -0.1774 ( 87)  0.2623 ( 89)  0.2089 ( 96)  0.1039 (107)
 CRD  5=  -0.2948 (  1)  0.1024 (  2)  0.1737 (  5) -0.2760 (  6) -0.1973 (  8)
           0.1138 ( 23) -0.1135 ( 24)  0.1195 ( 25) -0.3138 ( 28)  0.1432 ( 29)
          -0.1272 ( 32) -0.1071 ( 33)  0.3248 ( 38) -0.1210 ( 42)  0.1340 ( 45)
          -0.1397 ( 46) -0.1550 ( 48)  0.1370 ( 49)  0.1394 ( 51) -0.1084 ( 65)
          -0.1117 ( 66) -0.1376 ( 67)  0.1320 ( 71)  0.1097 ( 72)  0.1218 ( 79)
           0.1435 ( 87)  0.1029 ( 90) -0.1088 ( 93)
 CRD  6=  -0.1001 (  1) -0.2870 (  2) -0.1938 (  4) -0.2357 (  5) -0.1071 (  8)
           0.1248 ( 25) -0.1792 ( 26) -0.2097 ( 29) -0.1513 ( 30)  0.2520 ( 32)
          -0.1019 ( 33)  0.1161 ( 34) -0.2577 ( 35) -0.2154 ( 37) -0.1408 ( 42)
           0.1858 ( 45)  0.1695 ( 47) -0.1885 ( 48)  0.1137 ( 51)  0.1304 ( 69)
           0.1645 ( 70) -0.1461 ( 83) -0.1340 ( 86) -0.2397 ( 88) -0.1309 ( 89)
          -0.1229 ( 95)  0.1094 ( 99)
 CRD  7=  -0.2569 (  1)  0.1830 (  5)  0.2089 ( 23) -0.1298 ( 25) -0.1679 ( 26)
           0.1281 ( 36)  0.1055 ( 39)  0.1719 ( 42) -0.1876 ( 43) -0.1417 ( 48)
           0.1403 ( 50) -0.1625 ( 51) -0.1637 ( 68) -0.1617 ( 69) -0.2843 ( 70)
           0.1613 ( 73) -0.2274 ( 83) -0.1071 ( 86) -0.1841 ( 87) -0.2821 ( 88)
          -0.1004 ( 89) -0.2183 ( 95) -0.1756 (100)
 CRD  8=   0.1946 (  1)  0.2559 (  2)  0.3408 (  4)  0.2706 (  5)  0.3023 (  6)
           0.1207 ( 31)  0.1995 ( 34) -0.1933 ( 35)  0.2977 ( 36)  0.1455 ( 41)
           0.1955 ( 45) -0.1471 ( 46) -0.1053 ( 53)  0.1030 ( 76) -0.1150 ( 80)
          -0.1480 ( 86)  0.1281 ( 87) -0.1403 ( 88) -0.2134 ( 89)  0.1372 ( 91)
 CRD  9=   0.1932 (  1)  0.2761 (  2)  0.1152 (  5) -0.1628 (  8)  0.2349 ( 26)
          -0.1034 ( 29) -0.1402 ( 30)  0.2881 ( 31)  0.1154 ( 32) -0.1435 ( 33)
          -0.1237 ( 35) -0.1777 ( 36)  0.1495 ( 39)  0.2657 ( 40) -0.1881 ( 43)
           0.1584 ( 50) -0.1257 ( 58) -0.1120 ( 60) -0.1289 ( 65) -0.1277 ( 66)
           0.1549 ( 72) -0.1437 ( 73) -0.1321 ( 77)  0.1290 ( 79) -0.1422 ( 85)
          -0.1981 ( 87) -0.1318 ( 90) -0.1173 ( 91) -0.1204 ( 96) -0.1159 (100)
 CRD 10=  -0.3470 (  1) -0.3093 (  2)  0.2834 (  5)  0.1650 (  6)  0.1497 (  8)
          -0.3104 ( 23)  0.1502 ( 26) -0.3127 ( 27) -0.1507 ( 30)  0.1765 ( 31)
           0.2158 ( 37)  0.1142 ( 39)  0.1406 ( 41) -0.1132 ( 42) -0.1014 ( 54)
          -0.1193 ( 55)  0.1734 ( 56)  0.1952 ( 61) -0.1046 ( 64) -0.1089 ( 75)
 CRD 11=   0.1636 (  1) -0.1658 (  4)  0.3122 (  5)  0.2751 (  6) -0.2783 (  8)
          -0.1724 ( 26)  0.1887 ( 30) -0.1418 ( 31)  0.1998 ( 37)  0.1704 ( 39)
           0.1138 ( 40) -0.3681 ( 42)  0.1484 ( 43) -0.1417 ( 55) -0.1037 ( 61)
           0.1551 ( 62)  0.1184 ( 63) -0.1101 ( 74) -0.1677 ( 75) -0.1097 ( 76)
           0.1181 ( 94) -0.1219 ( 98)  0.1026 (100)
 CRD 12=   0.1156 (  1) -0.2016 (  2)  0.1484 (  6) -0.4360 (  8) -0.3451 ( 24)
           0.2149 ( 26)  0.1592 ( 31)  0.1113 ( 34)  0.1708 ( 36) -0.1586 ( 40)
          -0.2632 ( 41) -0.1688 ( 43) -0.1373 ( 50) -0.1467 ( 51)  0.1565 ( 56)
           0.1107 ( 62)  0.1982 ( 64)  0.1055 ( 65)  0.1162 ( 66) -0.1093 ( 68)
           0.1152 ( 91)
 CRD 13=  -0.1287 (  1)  0.3870 (  4) -0.1829 (  6) -0.2765 (  8)  0.1150 ( 12)
          -0.1814 ( 23)  0.2787 ( 24) -0.1562 ( 26) -0.1612 ( 27) -0.2435 ( 37)
           0.3683 ( 40) -0.3007 ( 41) -0.1231 ( 53)  0.1415 ( 54)  0.1469 ( 58)
           0.1026 ( 60)  0.1431 ( 62)  0.1181 ( 64)
 CRD 14=   0.2553 (  1) -0.2601 (  2) -0.1910 (  6)  0.1624 (  8)  0.1043 ( 18)
           0.2264 ( 23) -0.3181 ( 24) -0.1353 ( 26) -0.2612 ( 27)  0.4136 ( 30)
          -0.1401 ( 34) -0.1745 ( 37)  0.1416 ( 40)  0.1376 ( 50) -0.1037 ( 53)
           0.2131 ( 57) -0.2252 ( 59)
 CRD 15=   0.1093 (  4) -0.1452 (  5)  0.2384 (  6) -0.1118 ( 13) -0.1221 ( 20)
          -0.2463 ( 27)  0.3054 ( 30)  0.1357 ( 34) -0.3430 ( 36)  0.2198 ( 37)
           0.2126 ( 41)  0.1458 ( 42) -0.4129 ( 43)  0.1591 ( 53)  0.1361 ( 60)
          -0.1493 ( 62)  0.1209 ( 63)  0.1324 ( 75)  0.1091 ( 76)
 CRD 16=  -0.1192 ( 14)  0.1186 ( 19)  0.3169 ( 23) -0.4225 ( 26) -0.1908 ( 27)
          -0.1935 ( 30)  0.4359 ( 31)  0.1115 ( 34) -0.1069 ( 36)  0.2799 ( 37)
          -0.1002 ( 40) -0.1566 ( 41) -0.1625 ( 56)  0.1557 ( 57) -0.1079 ( 59)
          -0.1042 ( 60)  0.1592 ( 61)
 CRD 17=   0.1100 ( 12) -0.1303 ( 13)  0.2415 ( 23) -0.2699 ( 24)  0.1567 ( 27)
          -0.1676 ( 30)  0.1939 ( 33) -0.3850 ( 36)  0.3305 ( 40)  0.1584 ( 41)
          -0.2129 ( 42)  0.1843 ( 54) -0.1362 ( 55) -0.1148 ( 58) -0.1535 ( 71)
          -0.1408 ( 72)  0.1387 ( 73)  0.1059 ( 77)  0.1542 ( 78) -0.1212 ( 79)
 CRD 18=   0.1074 ( 11) -0.1302 ( 19) -0.1102 ( 21)  0.1599 ( 23) -0.2164 ( 24)
           0.1230 ( 25)  0.1247 ( 26)  0.1762 ( 30) -0.2817 ( 31) -0.1187 ( 35)
          -0.1590 ( 36)  0.3021 ( 37)  0.1267 ( 39) -0.1382 ( 40) -0.3469 ( 41)
           0.1507 ( 42)  0.2245 ( 43) -0.1114 ( 44) -0.1111 ( 49)  0.1403 ( 53)
          -0.1330 ( 58)  0.1293 ( 60) -0.1062 ( 61) -0.1724 ( 63) -0.1169 ( 66)
          -0.1091 ( 67) -0.1158 ( 80) -0.1237 ( 84)
 CRD 19=  -0.1285 (  2)  0.2291 (  4) -0.1072 (  8) -0.1424 ( 10) -0.1305 ( 14)
           0.1671 ( 25) -0.2343 ( 26)  0.2634 ( 27) -0.1426 ( 30)  0.1162 ( 33)
          -0.2318 ( 34)  0.1001 ( 37)  0.1857 ( 39) -0.1654 ( 40)  0.1372 ( 41)
          -0.2337 ( 43) -0.1026 ( 46) -0.1599 ( 47)  0.1599 ( 50) -0.2005 ( 51)
           0.1123 ( 58)  0.1180 ( 63) -0.1095 ( 67)  0.1143 ( 68)  0.1417 ( 69)
          -0.1472 ( 74) -0.1186 ( 75) -0.1299 ( 76)  0.1088 ( 91) -0.1002 ( 92)
          -0.1219 ( 93) -0.1208 ( 94)
 CRD 20=   0.1148 (  1) -0.1367 (  2)  0.1695 (  6)  0.1741 (  8)  0.2168 (  9)
           0.1068 ( 10) -0.1102 ( 21)  0.1294 ( 22) -0.1394 ( 23)  0.1975 ( 27)
          -0.1030 ( 28)  0.1001 ( 29) -0.1210 ( 30) -0.1016 ( 32) -0.1677 ( 35)
          -0.1032 ( 36)  0.1015 ( 39)  0.2099 ( 40) -0.2585 ( 41)  0.3746 ( 42)
           0.1361 ( 44) -0.1056 ( 47)  0.1120 ( 49) -0.1171 ( 52)  0.1102 ( 58)
          -0.1338 ( 60) -0.2201 ( 63) -0.1281 ( 82)  0.1009 ( 84) -0.1162 ( 86)
           0.1023 ( 87) -0.1037 ( 99)
 CRD 21=   0.2447 (  5)  0.1299 (  7)  0.1576 (  9) -0.1943 ( 10) -0.1621 ( 20)
           0.1489 ( 22)  0.1398 ( 23) -0.1395 ( 24) -0.1489 ( 31)  0.1607 ( 36)
          -0.1333 ( 38)  0.1383 ( 40)  0.2685 ( 42) -0.3060 ( 43)  0.1079 ( 46)
          -0.1419 ( 49) -0.1641 ( 53) -0.1726 ( 62)  0.1533 ( 64)  0.1930 ( 70)
           0.1265 ( 86)  0.1276 ( 87)  0.1099 ( 92)  0.1127 ( 93)  0.2033 (100)
           0.1033 (110)
 CRD 22=  -0.1159 (  1)  0.1428 (  2) -0.1812 (  5)  0.2302 (  6)  0.1150 (  9)
           0.1567 ( 23) -0.1864 ( 27) -0.1300 ( 34) -0.1787 ( 37)  0.2471 ( 39)
           0.1046 ( 44) -0.1344 ( 46)  0.1875 ( 50) -0.1899 ( 51)  0.1364 ( 54)
           0.1022 ( 55) -0.1061 ( 58)  0.1035 ( 61)  0.1033 ( 69)  0.1006 ( 80)
           0.1131 ( 81)  0.1607 ( 82)  0.1074 ( 84)  0.1119 ( 85)  0.1370 ( 86)
           0.1347 ( 90)  0.1403 ( 91)  0.1937 ( 95)  0.2121 ( 96)  0.2609 (106)
 CRD 23=  -0.1165 (  1) -0.4525 (  3)  0.2214 (  6)  0.3583 (  7)  0.2161 ( 10)
           0.1353 ( 13) -0.1298 ( 14)  0.1040 ( 16)  0.1019 ( 17)  0.1365 ( 23)
          -0.1627 ( 26) -0.1638 ( 31)  0.1366 ( 34)  0.1217 ( 36) -0.1559 ( 37)
          -0.1046 ( 45)  0.1160 ( 48)  0.1221 ( 55)  0.1095 ( 57)  0.1254 ( 59)
          -0.1014 ( 66) -0.1146 ( 73)  0.1847 ( 88)  0.1251 ( 95)
 CRD 24=   0.2164 (  3)  0.1698 (  9) -0.2585 ( 10) -0.2417 ( 14) -0.1883 ( 15)
          -0.1814 ( 16)  0.1674 ( 17)  0.1190 ( 18)  0.3116 ( 19)  0.1604 ( 23)
           0.1039 ( 26) -0.1590 ( 27) -0.1296 ( 30) -0.1170 ( 50) -0.1302 ( 56)
          -0.1426 ( 58)  0.1779 ( 61) -0.1106 ( 71) -0.1410 ( 72) -0.1285 ( 73)
          -0.1187 ( 77) -0.1207 ( 78) -0.1289 ( 79) -0.1024 ( 80) -0.1076 ( 84)
          -0.1416 ( 97) -0.1436 ( 98) -0.1515 ( 99) -0.1031 (104)
 CRD 25=  -0.3978 (  3) -0.1018 (  4) -0.6126 (  7) -0.1207 ( 10) -0.1513 ( 13)
           0.1059 ( 14)  0.1555 ( 15)  0.1763 ( 16)  0.2025 ( 17)  0.1783 ( 18)
           0.1363 ( 19) -0.1065 ( 31) -0.1051 ( 80)  0.1202 ( 91)
 CRD 26=  -0.1099 (  2) -0.2223 (  3) -0.1043 (  5) -0.1035 (  7) -0.3028 ( 11)
          -0.2960 ( 12) -0.3374 ( 13) -0.3721 ( 14) -0.2944 ( 15) -0.3272 ( 16)
          -0.1110 ( 17) -0.1368 ( 19)  0.1192 ( 23)  0.1547 ( 24)  0.1014 ( 26)
           0.1045 ( 36)  0.1251 ( 37)  0.1234 ( 40) -0.1205 ( 53) -0.1202 ( 54)
          -0.1368 ( 55) -0.1541 ( 56) -0.1369 ( 57) -0.1098 ( 58)
 CRD 27=  -0.3046 (  3)  0.1017 (  5) -0.1861 (  7) -0.1569 ( 10)  0.3030 ( 11)
           0.2984 ( 12)  0.2882 ( 13) -0.1641 ( 14) -0.1201 ( 16) -0.2504 ( 17)
          -0.2200 ( 18) -0.3006 ( 19) -0.1819 ( 20) -0.1449 ( 21) -0.1358 ( 22)
           0.1291 ( 30) -0.1246 ( 36) -0.1086 ( 37)  0.1213 ( 53)  0.1265 ( 54)
           0.1067 ( 55) -0.1046 ( 59) -0.1268 ( 61)
 CRD 28=  -0.1964 (  3) -0.1727 (  7)  0.1615 (  8)  0.1070 ( 11)  0.1040 ( 12)
           0.4571 ( 20)  0.4473 ( 21)  0.4776 ( 22) -0.1777 ( 41) -0.1608 ( 42)
          -0.1714 ( 43)  0.1803 ( 62)  0.1781 ( 63)  0.1894 ( 64)
 CRD 29=   0.2133 (  1) -0.1245 (  2) -0.1386 (  3)  0.1124 (  5) -0.1436 (  6)
           0.1459 ( 10)  0.2026 ( 11)  0.1471 ( 12)  0.1333 ( 13) -0.1562 ( 14)
          -0.1669 ( 15) -0.2106 ( 16)  0.3154 ( 17)  0.3754 ( 18)  0.2204 ( 19)
          -0.1025 ( 31) -0.1010 ( 40)  0.1037 ( 53)  0.1099 ( 65)  0.1349 ( 66)
           0.1292 ( 67)  0.1366 ( 80)  0.1173 ( 81)  0.1422 ( 84)  0.1073 ( 98)
           0.1123 ( 99)  0.1124 (108)  0.1181 (111)
 CRD 30=  -0.1306 (  2)  0.1610 (  3)  0.1358 (  5) -0.3615 (  9)  0.2040 ( 10)
           0.1113 ( 11)  0.2116 ( 12) -0.2185 ( 15) -0.1239 ( 16) -0.1045 ( 18)
          -0.1753 ( 51)  0.1227 ( 68)  0.1529 ( 69)  0.1044 ( 71)  0.1008 ( 72)
           0.1310 ( 74)  0.1333 ( 75)  0.1264 ( 76) -0.1236 ( 80) -0.1129 ( 84)
           0.1570 ( 90)  0.1872 ( 91)  0.1125 ( 92)  0.1407 ( 93)  0.1443 ( 94)
          -0.1248 ( 98) -0.1127 ( 99)  0.1014 (102)  0.1479 (110)  0.1781 (112)
 CRD 31=  -0.1259 (  2) -0.1098 ( 10) -0.2252 ( 15)  0.1319 ( 18) -0.1156 ( 46)
          -0.1246 ( 50) -0.1274 ( 65) -0.1519 ( 66) -0.1472 ( 67) -0.1372 ( 68)
          -0.1079 ( 69)  0.2032 ( 71)  0.2052 ( 72)  0.1380 ( 73)  0.1234 ( 77)
           0.1371 ( 78)  0.1703 ( 79) -0.1073 ( 80) -0.1120 ( 84)  0.1318 ( 92)
           0.1667 ( 93)  0.1647 ( 94)  0.2091 (101)  0.2071 (102)  0.1275 (103)
           0.1421 (104)  0.1411 (105)  0.1742 (107) -0.1413 (108) -0.1214 (109)
          -0.1797 (110) -0.1459 (111) -0.1504 (112)
 CRD 32=  -0.1539 (  9) -0.1470 ( 10) -0.3024 ( 20)  0.6192 ( 21) -0.2732 ( 22)
           0.1618 ( 62) -0.3189 ( 63)  0.1481 ( 64) -0.1666 ( 74)  0.1681 ( 76)
           0.1580 (113) -0.1767 (114)  0.1835 (116) -0.1512 (117)
 CRD 33=  -0.4284 ( 11)  0.3660 ( 13)  0.3547 ( 14) -0.3628 ( 16)  0.1082 ( 18)
          -0.1365 ( 19)  0.2180 ( 53) -0.1926 ( 55) -0.1861 ( 56)  0.1903 ( 57)
           0.1537 ( 66) -0.1482 ( 73)  0.1516 ( 84) -0.1532 ( 99) -0.1445 (104)
           0.1493 (111)
 CRD 34=  -0.2113 ( 11)  0.4273 ( 12) -0.2212 ( 13)  0.1278 ( 15) -0.1075 ( 16)
          -0.3256 ( 17)  0.3373 ( 19)  0.1451 ( 21) -0.2042 ( 22)  0.1136 ( 53)
          -0.2354 ( 54)  0.1228 ( 55)  0.1738 ( 59) -0.1786 ( 61)  0.1072 ( 64)
          -0.1138 ( 65)  0.1373 ( 67)  0.1449 ( 72)  0.1447 ( 80) -0.1064 ( 81)
           0.1448 ( 93)  0.1390 (101)  0.1368 (108) -0.1143 (109)
 CRD 35=   0.1115 ( 11)  0.1083 ( 12) -0.2238 ( 13)  0.1227 ( 14) -0.2027 ( 16)
           0.3473 ( 17) -0.2701 ( 19)  0.3678 ( 20) -0.3693 ( 22)  0.1236 ( 55)
           0.1049 ( 57) -0.1807 ( 59)  0.1452 ( 61) -0.1962 ( 62)  0.1966 ( 64)
          -0.1184 ( 72) -0.1593 ( 75) -0.1159 ( 93) -0.1097 (101) -0.1554 (115)
          -0.1554 (118)
 CRD 36=  -0.2570 ( 11)  0.3082 ( 13) -0.1459 ( 14) -0.2258 ( 15)  0.3815 ( 16)
           0.3488 ( 20) -0.3146 ( 22)  0.1326 ( 53) -0.1690 ( 55) -0.1983 ( 57)
           0.1184 ( 58) -0.1874 ( 62)  0.1695 ( 64)  0.1118 ( 66)  0.1007 ( 73)
          -0.1334 ( 75) -0.1131 ( 77)  0.1024 ( 84) -0.1151 ( 97) -0.1249 (103)
           0.1021 (111) -0.1280 (115) -0.1246 (118)
 CRD 37=  -0.2278 ( 11)  0.4166 ( 12) -0.1919 ( 13) -0.3291 ( 15)  0.2814 ( 16)
           0.2335 ( 17) -0.2059 ( 19) -0.1798 ( 20)  0.1787 ( 22)  0.1083 ( 53)
          -0.2159 ( 54)  0.1080 ( 55) -0.1414 ( 57)  0.1705 ( 58) -0.1250 ( 59)
           0.1124 ( 61) -0.1309 ( 65)  0.1054 ( 67) -0.1204 ( 77)  0.1085 ( 80)
          -0.1279 ( 81) -0.1237 ( 97) -0.1278 (103) -0.1376 (109)
 CRD 38=   0.1043 ( 12) -0.3149 ( 14)  0.2769 ( 15) -0.1286 ( 17)  0.4911 ( 18)
          -0.3671 ( 19)  0.1754 ( 56) -0.1531 ( 58) -0.2690 ( 60)  0.2068 ( 61)
           0.1677 ( 71) -0.1274 ( 78) -0.1237 ( 79)  0.1932 ( 94) -0.1560 ( 98)
           0.1605 (102) -0.1236 (105) -0.1310 (107)
 CRD 39=   0.2242 ( 11) -0.1595 ( 13)  0.3546 ( 14) -0.3440 ( 15) -0.3383 ( 17)
           0.3562 ( 18) -0.1159 ( 53) -0.2028 ( 56)  0.2003 ( 58)  0.1594 ( 59)
          -0.1837 ( 60) -0.1093 ( 77)  0.1116 ( 78) -0.1723 ( 79) -0.1820 ( 92)
           0.1212 ( 98) -0.1079 (103)  0.1130 (105) -0.1801 (107)
 CRD 40=   0.1135 (  7) -0.5738 (  9) -0.5671 ( 10)  0.1267 ( 20) -0.1271 ( 21)
           0.1186 ( 22) -0.2417 ( 52)  0.1062 ( 68) -0.1065 ( 91)  0.1151 (110)
          -0.1389 (113) -0.1000 (115)  0.1585 (117)  0.1101 (118)
 CRD 41=   0.3092 (  4) -0.1428 (  7) -0.1261 ( 15) -0.1233 ( 18)  0.1096 ( 51)
           0.1379 ( 65)  0.1214 ( 66)  0.1284 ( 67)  0.1188 ( 71) -0.1228 ( 73)
          -0.1370 ( 77) -0.1588 ( 78)  0.1421 ( 80)  0.1516 ( 81)  0.1350 ( 84)
          -0.1125 ( 91)  0.1170 ( 92)  0.1114 ( 93)  0.1545 ( 94) -0.1547 ( 97)
          -0.1766 ( 98) -0.1406 ( 99)  0.1242 (101)  0.1673 (102) -0.1953 (103)
          -0.1811 (104) -0.2171 (105)  0.1299 (107)  0.1870 (108)  0.1965 (109)
           0.1799 (111) -0.1558 (112)
 CRD 42=  -0.1031 (  7) -0.3611 (  9)  0.3517 ( 10)  0.1029 ( 34)  0.1008 ( 69)
          -0.1795 ( 74) -0.1835 ( 75) -0.1833 ( 76) -0.2858 (113) -0.2820 (114)
          -0.2860 (115) -0.2843 (116) -0.2805 (117) -0.2845 (118)
 CRD 43=  -0.2309 (  3) -0.1837 (  6)  0.2803 (  7) -0.1195 (  8) -0.1364 ( 13)
           0.1233 ( 14)  0.1128 ( 19)  0.1890 ( 20)  0.2687 ( 21)  0.1607 ( 22)
           0.1212 ( 34)  0.1318 ( 39)  0.2095 ( 41)  0.1749 ( 42)  0.1906 ( 43)
          -0.1547 ( 50) -0.1937 ( 51)  0.1135 ( 54) -0.2204 ( 62) -0.1557 ( 63)
          -0.2418 ( 64) -0.1189 ( 68)  0.1250 ( 69)  0.1834 ( 91)  0.1156 (109)
          -0.1256 (110)  0.1161 (111)  0.1182 (112) -0.1148 (113)
 CRD 44=  -0.1182 (  2) -0.2837 (  3)  0.2161 (  7)  0.1146 (  8) -0.1792 ( 13)
           0.2152 ( 14)  0.1997 ( 19) -0.1011 ( 20) -0.1691 ( 21) -0.1062 ( 22)
           0.1104 ( 24)  0.1465 ( 26)  0.1265 ( 31) -0.1159 ( 34) -0.1210 ( 36)
          -0.1003 ( 40) -0.1329 ( 41) -0.1224 ( 42) -0.1016 ( 43)  0.1167 ( 50)
           0.1475 ( 53)  0.1220 ( 54) -0.1743 ( 57) -0.1457 ( 58) -0.1562 ( 59)
          -0.1244 ( 60)  0.1446 ( 62)  0.1451 ( 64)  0.1124 ( 90)  0.1207 (102)
          -0.1041 (105) -0.1212 (108) -0.1013 (109)  0.1658 (110) -0.1158 (117)
          -0.1057 (118)
 CRD 45=  -0.2375 (  1)  0.1881 (  2) -0.1160 ( 14) -0.1480 ( 15) -0.2214 ( 16)
           0.2433 ( 17)  0.1784 ( 18)  0.1905 ( 19) -0.1707 ( 23) -0.1511 ( 24)
          -0.1466 ( 26)  0.2058 ( 27)  0.1890 ( 30)  0.1963 ( 31)  0.1438 ( 47)
          -0.1400 ( 49)  0.2037 ( 56)  0.1209 ( 57)  0.1755 ( 58) -0.1800 ( 59)
          -0.2272 ( 60) -0.2236 ( 61)  0.1744 ( 82)  0.1696 ( 86) -0.1264 (103)
          -0.1184 (105)  0.2340 (106) -0.1079 (107)
 CRD 46=  -0.2080 (  2) -0.3398 (  5)  0.2537 ( 11)  0.2356 ( 12)  0.2070 ( 13)
           0.1548 ( 14)  0.1359 ( 15)  0.1326 ( 16)  0.1286 ( 23)  0.1385 ( 24)
           0.1473 ( 26)  0.2227 ( 36)  0.2285 ( 37)  0.2284 ( 40) -0.1001 ( 46)
          -0.2252 ( 53) -0.2376 ( 54) -0.2640 ( 55) -0.1393 ( 56) -0.1528 ( 57)
          -0.1501 ( 58)  0.1261 ( 96) -0.1120 (110)
 CRD 47=   0.2483 (  1)  0.1902 (  2) -0.2723 (  3) -0.1232 (  5)  0.2728 (  7)
           0.1325 (  8)  0.1013 ( 11)  0.1572 ( 12) -0.2114 ( 15) -0.1273 ( 17)
          -0.2423 ( 18) -0.1172 ( 24) -0.1227 ( 27) -0.1478 ( 30) -0.1031 ( 31)
          -0.1039 ( 33) -0.1693 ( 55)  0.1889 ( 56)  0.1035 ( 57)  0.1301 ( 59)
           0.2261 ( 61)  0.1040 ( 62) -0.1331 ( 80)  0.1147 ( 94) -0.1123 ( 98)
          -0.1398 (101)  0.1284 (103)  0.1243 (104) -0.1340 (107)
 CRD 48=  -0.1663 (  1)  0.3966 (  8) -0.1385 ( 11)  0.1179 ( 12)  0.1090 ( 17)
          -0.1833 ( 20) -0.2193 ( 22)  0.1414 ( 25)  0.1473 ( 34)  0.1200 ( 39)
          -0.1248 ( 41) -0.1262 ( 42) -0.1373 ( 43) -0.1424 ( 44) -0.1113 ( 50)
          -0.1124 ( 53)  0.2519 ( 63) -0.1079 ( 96)  0.1099 (103) -0.1187 (106)
           0.1705 (108)  0.2729 (109)  0.1426 (111) -0.1913 (113)  0.1832 (117)
           0.1350 (118)
 CRD 49=   0.1212 (  1)  0.1410 (  3) -0.2142 (  4) -0.1428 (  5)  0.1606 (  7)
           0.1101 (  8)  0.1946 (  9) -0.2002 ( 10)  0.1179 ( 12) -0.1240 ( 14)
           0.1620 ( 15)  0.1410 ( 18) -0.1675 ( 19)  0.1175 ( 20) -0.2095 ( 22)
          -0.1226 ( 55)  0.1512 ( 58)  0.1600 ( 60)  0.1392 ( 62) -0.1073 ( 64)
           0.1153 ( 72)  0.1340 ( 75) -0.1386 ( 77)  0.1362 ( 79) -0.1096 ( 94)
           0.1723 (101) -0.2182 (103) -0.1513 (104)  0.1932 (107)  0.1256 (112)
          -0.1836 (113) -0.1443 (114) -0.1495 (116) -0.1102 (117)
 CRD 50=  -0.1209 (  1) -0.2427 (  2)  0.1260 (  3)  0.2165 (  6) -0.1197 (  8)
          -0.1884 ( 10)  0.1071 ( 12)  0.1629 ( 16)  0.2088 ( 17)  0.2509 ( 20)
          -0.1479 ( 21) -0.1522 ( 33) -0.1843 ( 39)  0.1206 ( 52)  0.1110 ( 54)
          -0.1019 ( 58)  0.1086 ( 59) -0.1116 ( 61)  0.1410 ( 62) -0.1587 ( 63)
           0.1077 ( 65)  0.1418 ( 72)  0.1505 ( 75) -0.1356 (102)  0.1479 (103)
          -0.2105 (107)  0.1382 (109)  0.1605 (115) -0.1033 (116) -0.2797 (117)
 CRD 51=  -0.2242 (  4)  0.2223 (  5)  0.1178 (  7)  0.1571 (  8) -0.2464 (  9)
          -0.2219 ( 13) -0.1269 ( 14) -0.1418 ( 20) -0.1057 ( 21)  0.1571 ( 22)
          -0.1252 ( 46)  0.1393 ( 52)  0.1416 ( 54)  0.1740 ( 64)  0.1387 ( 66)
          -0.1720 ( 68) -0.1189 ( 73) -0.1251 ( 75) -0.1293 ( 80) -0.1381 ( 90)
           0.1111 ( 95) -0.1222 (100) -0.1187 (104)  0.1099 (106) -0.2876 (110)
           0.1372 (111) -0.1476 (112)  0.2261 (113)  0.1488 (114)  0.1142 (116)
 CRD 52=   0.2777 (  1) -0.3125 (  2)  0.1597 (  5) -0.1889 (  6)  0.1536 ( 14)
           0.1235 ( 15) -0.1156 ( 16)  0.1641 ( 17) -0.1471 ( 18) -0.1602 ( 19)
           0.1148 ( 44)  0.1440 ( 47) -0.1298 ( 49) -0.1893 ( 57)  0.2140 ( 59)
           0.1274 ( 72)  0.1037 ( 73) -0.1011 ( 79)  0.1700 ( 82)  0.1753 ( 86)
          -0.1186 ( 92)  0.1099 ( 93)  0.1027 ( 95)  0.1017 ( 96) -0.1097 (102)
          -0.1650 (103)  0.2834 (106) -0.2163 (107) -0.1168 (109)
 CRD 53=   0.1655 (  1) -0.1401 (  4)  0.2066 (  6) -0.2726 ( 11)  0.1308 ( 12)
           0.1596 ( 13)  0.1433 ( 14)  0.1106 ( 15) -0.2644 ( 16) -0.1302 ( 21)
           0.1099 ( 22)  0.1139 ( 25)  0.1116 ( 33) -0.2164 ( 53)  0.1097 ( 55)
           0.1155 ( 56) -0.1927 ( 57) -0.1048 ( 63) -0.2260 ( 66)  0.2176 ( 73)
           0.1477 ( 81) -0.1706 ( 84) -0.1457 ( 97)  0.1543 ( 99) -0.2085 (103)
           0.2353 (109)  0.1389 (113)
 CRD 54=  -0.1044 (  5)  0.3032 (  8) -0.1211 ( 10)  0.1370 ( 11) -0.2267 ( 12)
           0.1307 ( 13) -0.2594 ( 21)  0.1048 ( 39)  0.1233 ( 40) -0.1082 ( 42)
          -0.1362 ( 50) -0.1792 ( 51)  0.1501 ( 52) -0.1943 ( 54)  0.1102 ( 62)
          -0.1190 ( 63)  0.1463 ( 64) -0.1436 ( 65)  0.1570 ( 67) -0.1484 ( 68)
           0.1409 ( 69) -0.1403 ( 74)  0.1382 ( 76)  0.2073 ( 80)  0.1957 ( 91)
           0.1697 (108) -0.1309 (109)  0.2229 (112)  0.1356 (113) -0.1430 (114)
           0.1339 (116) -0.1447 (117)
 CRD 55=  -0.1481 (  5) -0.1981 ( 14)  0.2419 ( 15)  0.1859 ( 17) -0.2665 ( 18)
           0.1040 ( 19) -0.1267 ( 24)  0.1404 ( 30) -0.1343 ( 56)  0.1926 ( 58)
           0.1248 ( 59) -0.2129 ( 60)  0.1832 ( 71) -0.1070 ( 75) -0.1325 ( 77)
           0.1835 ( 78) -0.1656 ( 79) -0.1306 ( 92)  0.1019 ( 93)  0.2182 ( 94)
           0.2358 ( 98)  0.2076 (102)  0.2267 (105) -0.1017 (106) -0.1412 (107)
 CRD 56=   0.2170 (  5) -0.1031 ( 14)  0.1451 ( 15) -0.1582 ( 17) -0.1056 ( 18)
           0.2632 ( 19)  0.1909 ( 20) -0.1791 ( 22) -0.1235 ( 31) -0.1083 ( 43)
          -0.1006 ( 50)  0.1057 ( 58) -0.1180 ( 59)  0.1972 ( 61)  0.1578 ( 62)
          -0.1177 ( 64)  0.1024 ( 69)  0.1298 ( 70)  0.1310 ( 71) -0.2011 ( 72)
           0.1857 ( 75)  0.1277 ( 78) -0.1395 ( 85) -0.1501 ( 93)  0.1820 ( 94)
           0.1560 ( 98) -0.1934 (101)  0.1387 (102)  0.1193 (105) -0.1239 (110)
           0.1816 (115)  0.1819 (118)
 CRD 57=   0.1240 (  1) -0.1093 ( 10) -0.2002 ( 11)  0.2188 ( 13) -0.1533 ( 14)
           0.1897 ( 16) -0.1236 ( 23) -0.1367 ( 36)  0.1326 ( 37)  0.1129 ( 45)
          -0.1097 ( 46) -0.1047 ( 48)  0.1144 ( 52) -0.1480 ( 53)  0.1627 ( 55)
          -0.1173 ( 56)  0.1373 ( 57)  0.1386 ( 65) -0.1423 ( 66)  0.1562 ( 67)
          -0.1323 ( 73)  0.1003 ( 74)  0.1307 ( 77)  0.1114 ( 80) -0.1871 ( 84)
          -0.2186 ( 88) -0.1252 ( 89)  0.1196 ( 91)  0.1061 ( 97) -0.1569 ( 99)
          -0.2421 (104) -0.2706 (111)  0.1462 (114) -0.1470 (116) -0.1288 (118)
 CRD 58=   0.1153 (  1) -0.2567 (  6)  0.1148 (  9)  0.1114 ( 10)  0.1455 ( 12)
           0.1156 ( 16) -0.2001 ( 21)  0.1076 ( 22)  0.1253 ( 35)  0.1035 ( 39)
          -0.1083 ( 40)  0.1665 ( 41) -0.1690 ( 52)  0.1061 ( 54) -0.1473 ( 63)
           0.1003 ( 65) -0.1097 ( 67) -0.1514 ( 74)  0.1546 ( 76)  0.1181 ( 77)
           0.1422 ( 81) -0.1202 ( 91)  0.1151 ( 97) -0.1544 (104) -0.2000 (108)
          -0.1219 (111) -0.3038 (114) -0.1625 (115)  0.3062 (116)  0.1416 (118)
 CRD 59=   0.2248 (  2) -0.1127 (  4) -0.1461 (  9) -0.1087 ( 15)  0.1739 ( 17)
          -0.1145 ( 18)  0.1033 ( 20) -0.1315 ( 22) -0.1506 ( 27)  0.1131 ( 30)
           0.1375 ( 32)  0.1281 ( 33)  0.1036 ( 42) -0.1617 ( 47) -0.1373 ( 48)
          -0.1061 ( 50)  0.1241 ( 59)  0.1564 ( 70) -0.1108 ( 74) -0.1454 ( 76)
          -0.2369 ( 79)  0.1062 ( 85) -0.1009 ( 86)  0.1035 ( 89) -0.1248 ( 90)
          -0.2261 ( 92)  0.1484 ( 96)  0.1201 ( 97)  0.1242 (100)  0.2907 (101)
           0.2099 (102) -0.1427 (105)  0.2032 (115)  0.1540 (118)
 CRD 60=   0.1445 (  3) -0.1050 (  7)  0.1387 (  8) -0.1644 ( 10)  0.1087 ( 12)
          -0.1029 ( 13)  0.1053 ( 14)  0.1326 ( 19) -0.1018 ( 28) -0.1137 ( 31)
          -0.1564 ( 35)  0.1257 ( 46) -0.1146 ( 49)  0.1552 ( 52) -0.1161 ( 67)
          -0.1045 ( 68)  0.1207 ( 69)  0.1645 ( 71)  0.1116 ( 74) -0.1139 ( 78)
           0.1956 ( 81)  0.1930 ( 84) -0.1403 ( 85) -0.1784 ( 87)  0.1103 ( 88)
          -0.2170 ( 90) -0.1047 ( 92) -0.2008 ( 93) -0.1319 ( 96)  0.1311 ( 97)
           0.1683 ( 99) -0.1119 (101) -0.1115 (105) -0.1635 (108)  0.2228 (112)
           0.1277 (114) -0.1332 (116) -0.1584 (118)
 CRD 61=   0.1800 (  1) -0.3112 (  4)  0.1758 (  6)  0.1012 ( 11) -0.1061 ( 15)
          -0.1014 ( 23)  0.1177 ( 24)  0.1164 ( 25)  0.1394 ( 29)  0.1168 ( 33)
          -0.1090 ( 37)  0.1495 ( 38) -0.1269 ( 44) -0.1190 ( 45) -0.1638 ( 49)
          -0.1790 ( 65)  0.1128 ( 71)  0.1832 ( 77) -0.1794 ( 81)  0.1593 ( 86)
           0.1360 ( 90) -0.1447 ( 92) -0.1256 ( 93) -0.1403 ( 95) -0.1208 ( 96)
           0.2116 ( 97) -0.1019 (100)  0.1514 (102) -0.2037 (104) -0.2242 (105)
           0.1962 (108)  0.2144 (111) -0.1141 (112)
 CRD 62=   0.1252 (  1) -0.1041 (  2)  0.1208 (  4) -0.1792 (  5)  0.1451 (  6)
          -0.1770 (  9) -0.1648 ( 28) -0.1484 ( 32)  0.1105 ( 39)  0.1053 ( 42)
           0.1473 ( 46)  0.1399 ( 47)  0.1034 ( 51) -0.1310 ( 67) -0.1670 ( 68)
          -0.1623 ( 74) -0.2028 ( 76)  0.1127 ( 77)  0.1563 ( 78)  0.1976 ( 82)
           0.1827 ( 86) -0.1512 ( 90)  0.1163 ( 92) -0.2308 ( 95) -0.1423 ( 96)
          -0.1360 ( 99)  0.2502 (100) -0.1167 (102) -0.1000 (104)  0.2021 (115)
           0.1287 (118)
 CRD 63=   0.1736 (  3) -0.1065 (  5)  0.1937 (  7)  0.1158 ( 10) -0.1419 ( 25)
          -0.1357 ( 33) -0.1108 ( 34)  0.1190 ( 45)  0.1350 ( 65)  0.1904 ( 67)
          -0.1669 ( 68) -0.2380 ( 69)  0.1994 ( 71) -0.1438 ( 74) -0.1269 ( 76)
          -0.1371 ( 77) -0.1860 ( 78)  0.1496 ( 79)  0.1539 ( 82)  0.2552 ( 83)
          -0.1531 ( 84) -0.1046 ( 86)  0.1760 ( 87) -0.2316 ( 89) -0.1405 ( 93)
          -0.1344 ( 96)  0.1387 ( 99)  0.1276 (100)  0.1034 (118)

 THE DETERMINANT OF THE G MATRIX IS 10**(   -20)


                     --------------------
                     INTERNAL COORDINATES
                     --------------------

                 - - ATOMS - -         COORDINATE      COORDINATE
 NO.   TYPE    I  J  K  L  M  N        (BOHR,RAD)       (ANG,DEG)
 ----------------------------------------------------------------
   1 STRETCH   1  6                     2.8765958       1.5222291
   2 STRETCH   1  5                     2.8752179       1.5214999
   3 STRETCH   1  8                     2.1122920       1.1177769
   4 STRETCH   1  2                     2.9153041       1.5427126
   5 STRETCH   2  4                     2.8773599       1.5226334
   6 STRETCH   2  3                     2.8954069       1.5321835
   7 STRETCH   2  9                     2.1131757       1.1182445
   8 STRETCH   3  7                     2.8573993       1.5120707
   9 STRETCH   3 11                     2.1038873       1.1133293
  10 STRETCH   3 10                     2.0946928       1.1084638
  11 STRETCH   4 14                     2.0831639       1.1023629
  12 STRETCH   4 13                     2.0742627       1.0976526
  13 STRETCH   4 12                     2.0759397       1.0985401
  14 STRETCH   5 16                     2.0757712       1.0984509
  15 STRETCH   5 15                     2.0732579       1.0971209
  16 STRETCH   5 17                     2.0824735       1.1019976
  17 STRETCH   6 20                     2.0824843       1.1020033
  18 STRETCH   6 19                     2.0731144       1.0970450
  19 STRETCH   6 18                     2.0756542       1.0983890
  20 STRETCH   7 23                     2.0753801       1.0982439
  21 STRETCH   7 22                     2.0740323       1.0975307
  22 STRETCH   7 21                     2.0762313       1.0986943
  23 BEND      1  5 17                  1.9410421     111.2135223
  24 BEND      1  5 15                  1.9410045     111.2113655
  25 BEND      1  2  9                  1.8804688     107.7429245
  26 BEND      1  5 16                  1.9490815     111.6741431
  27 BEND      1  6 20                  1.9400052     111.1541121
  28 BEND      1  2  3                  1.9399231     111.1494083
  29 BEND      1  2  4                  1.9286758     110.5049842
  30 BEND      1  6 19                  1.9419733     111.2668741
  31 BEND      1  6 18                  1.9486358     111.6486054
  32 BEND      2  1  6                  1.9381596     111.0483667
  33 BEND      2  1  8                  1.8801635     107.7254306
  34 BEND      2  3 10                  1.9179022     109.8877004
  35 BEND      2  3  7                  1.9624289     112.4388953
  36 BEND      2  4 12                  1.9505312     111.7572079
  37 BEND      2  4 14                  1.9382161     111.0516030
  38 BEND      2  1  5                  1.9478182     111.6017650
  39 BEND      2  3 11                  1.9098219     109.4247355
  40 BEND      2  4 13                  1.9452115     111.4524098
  41 BEND      3  7 22                  1.9395188     111.1262419
  42 BEND      3  7 21                  1.9524617     111.8678145
  43 BEND      3  7 23                  1.9495811     111.7027716
  44 BEND      3  2  9                  1.8970424     108.6925227
  45 BEND      3  2  4                  1.9183071     109.9109033
  46 BEND      4  2  9                  1.8983108     108.7651945
  47 BEND      5  1  8                  1.8968390     108.6808673
  48 BEND      5  1  6                  1.9023438     108.9962727
  49 BEND      6  1  8                  1.8973794     108.7118326
  50 BEND      7  3 10                  1.9223183     110.1407243
  51 BEND      7  3 11                  1.9089343     109.3738782
  52 BEND     10  3 11                  1.8382845     105.3259420
  53 BEND     12  4 13                  1.8761408     107.4949476
  54 BEND     12  4 14                  1.8692794     107.1018183
  55 BEND     13  4 14                  1.8808286     107.7635395
  56 BEND     15  5 17                  1.8808520     107.7648802
  57 BEND     15  5 16                  1.8771460     107.5525455
  58 BEND     16  5 17                  1.8712954     107.2173284
  59 BEND     18  6 19                  1.8768859     107.5376390
  60 BEND     18  6 20                  1.8698339     107.1335920
  61 BEND     19  6 20                  1.8831193     107.8947870
  62 BEND     21  7 22                  1.8726986     107.2977278
  63 BEND     21  7 23                  1.8712661     107.2156480
  64 BEND     22  7 23                  1.8741423     107.3804436
  65 TORSION   1  2  4 12               1.1820539      67.7267007
  66 TORSION   1  2  4 13              -3.0014144    -171.9683773
  67 TORSION   1  2  4 14              -0.9041445     -51.8036634
  68 TORSION   1  2  3 10              -1.3130650     -75.2330854
  69 TORSION   1  2  3 11               0.6973624      39.9559243
  70 TORSION   1  2  3  7               2.8222788     161.7046631
  71 TORSION   2  1  6 20              -0.9105272     -52.1693664
  72 TORSION   2  1  6 19              -3.0097297    -172.4448096
  73 TORSION   2  1  5 15               3.0550763     175.0429800
  74 TORSION   2  3  7 21               1.0559616      60.5021411
  75 TORSION   2  3  7 22              -3.1344982    -179.5935179
  76 TORSION   2  3  7 23              -1.0418834     -59.6955194
  77 TORSION   2  1  5 16              -1.1309982     -64.8014247
  78 TORSION   2  1  5 17               0.9587006      54.9294987
  79 TORSION   2  1  6 18               1.1763155      67.3979113
  80 TORSION   3  2  4 14              -3.0515188    -174.8391508
  81 TORSION   3  2  4 12              -0.9653204     -55.3087867
  82 TORSION   3  2  1  8               1.0624607      60.8745130
  83 TORSION   3  2  1  5              -1.0183883     -58.3493490
  84 TORSION   3  2  4 13               1.1343966      64.9961353
  85 TORSION   3  2  1  6               3.1383401     179.8136440
  86 TORSION   4  2  1  8              -1.0722917     -61.4377866
  87 TORSION   4  2  3  7              -1.3201597     -75.6395765
  88 TORSION   4  2  1  5               3.1300447     179.3383514
  89 TORSION   4  2  1  6               1.0035878      57.5013444
  90 TORSION   4  2  3 10               0.8276818      47.4226749
  91 TORSION   4  2  3 11               2.8381093     162.6116847
  92 TORSION   5  1  6 18              -0.9764554     -55.9467732
  93 TORSION   5  1  6 19               1.1206847      64.2105059
  94 TORSION   5  1  6 20              -3.0632981    -175.5140509
  95 TORSION   5  1  2  9               1.0582905      60.6355767
  96 TORSION   6  1  2  9              -1.0681665     -61.2014303
  97 TORSION   6  1  5 16               1.0160060      58.2128564
  98 TORSION   6  1  5 17               3.1057048     177.9437799
  99 TORSION   6  1  5 15              -1.0811047     -61.9427388
 100 TORSION   7  3  2  9               0.7555638      43.2906194
 101 TORSION   8  1  6 19              -0.9442255     -54.1001363
 102 TORSION   8  1  6 20               1.1549770      66.1753069
 103 TORSION   8  1  5 16               3.0812556     176.5429436
 104 TORSION   8  1  5 15               0.9841449      56.3873483
 105 TORSION   8  1  5 17              -1.1122308     -63.7261329
 106 TORSION   8  1  2  9               3.1391394     179.8594387
 107 TORSION   8  1  6 18              -3.0413656    -174.2574154
 108 TORSION   9  2  4 14               1.1567217      66.2752719
 109 TORSION   9  2  4 12              -3.0402652    -174.1943640
 110 TORSION   9  2  3 10               2.9034053     166.3528709
 111 TORSION   9  2  4 13              -0.9405482     -53.8894420
 112 TORSION   9  2  3 11              -1.3693525     -78.4581194
 113 TORSION  10  3  7 23               3.0959383     177.3841972
 114 TORSION  10  3  7 21              -1.0894021     -62.4181424
 115 TORSION  10  3  7 22               1.0033234      57.4861986
 116 TORSION  11  3  7 23               1.0835378      62.0821451
 117 TORSION  11  3  7 21              -3.1018025    -177.7201945
 118 TORSION  11  3  7 22              -1.0090770     -57.8158534

     ------------------------------------------
     THE POINT GROUP IS C1 , NAXIS= 1, ORDER= 1
     ------------------------------------------

     DIMENSIONS OF THE SYMMETRY SUBSPACES ARE
 A   =  229

 ..... DONE SETTING UP THE RUN .....
 STEP CPU TIME =     0.02 TOTAL CPU TIME =        0.0 (    0.0 MIN)
 TOTAL WALL CLOCK TIME=        0.0 SECONDS, CPU UTILIZATION IS 100.00%


          -----------------------------
          STATIONARY POINT LOCATION RUN
          -----------------------------

 OBTAINING INITIAL HESSIAN, HESS=GUESS   
 DIAGONAL GUESS HESSIAN IN INTERNAL COORDS IS
     1  0.3728     2  0.3733     3  0.3282     4  0.3582     5  0.3725
     6  0.3656     7  0.3279     8  0.3802     9  0.3310    10  0.3342
    11  0.3381    12  0.3413    13  0.3407    14  0.3407    15  0.3416
    16  0.3384    17  0.3384    18  0.3417    19  0.3408    20  0.3409
    21  0.3413    22  0.3406    23  0.2239    24  0.2242    25  0.2217
    26  0.2241    27  0.2238    28  0.2474    29  0.2481    30  0.2241
    31  0.2240    32  0.2481    33  0.2217    34  0.2229    35  0.2496
    36  0.2240    37  0.2238    38  0.2482    39  0.2226    40  0.2241
    41  0.2247    42  0.2246    43  0.2247    44  0.2223    45  0.2489
    46  0.2228    47  0.2229    48  0.2496    49  0.2229    50  0.2240
    51  0.2238    52  0.2013    53  0.2026    54  0.2024    55  0.2024
    56  0.2024    57  0.2026    58  0.2024    59  0.2026    60  0.2024
    61  0.2024    62  0.2026    63  0.2026    64  0.2026    65  0.2500
    66  0.2500    67  0.2500    68  0.2500    69  0.2500    70  0.2500
    71  0.2500    72  0.2500    73  0.2500    74  0.2500    75  0.2500
    76  0.2500    77  0.2500    78  0.2500    79  0.2500    80  0.2500
    81  0.2500    82  0.2500    83  0.2500    84  0.2500    85  0.2500
    86  0.2500    87  0.2500    88  0.2500    89  0.2500    90  0.2500
    91  0.2500    92  0.2500    93  0.2500    94  0.2500    95  0.2500
    96  0.2500    97  0.2500    98  0.2500    99  0.2500   100  0.2500
   101  0.2500   102  0.2500   103  0.2500   104  0.2500   105  0.2500
   106  0.2500   107  0.2500   108  0.2500   109  0.2500   110  0.2500
   111  0.2500   112  0.2500   113  0.2500   114  0.2500   115  0.2500
   116  0.2500   117  0.2500   118  0.2500
 TRANSFORMING HESSIAN TO SYMMETRY COORDINATES

          PARAMETERS CONTROLLING GEOMETRY SEARCH ARE
          METHOD =QA                  UPHESS =BFGS    
          NNEG   =         0          NFRZ   =         3
          NSTEP  =        50          IFOLOW =         1
          HESS   =GUESS               RESTAR =         F
          IHREP  =         0          HSSEND =         F
          NPRT   =         0          NPUN   =         0
          OPTTOL = 5.000E-04          RMIN   = 1.500E-03
          RMAX   = 1.000E-01          RLIM   = 7.000E-02
          DXMAX  = 3.000E-01          PURIFY =         F
          MOVIE  =         F          TRUPD  =         T
          TRMAX  = 5.000E-01          TRMIN  = 5.000E-02
          ITBMAT =         5          STPT   =         F
          STSTEP = 1.000E-02          PROJCT=          F
          FROZEN COORD(S)=   1   2   3


      ***** EQUILIBRIUM GEOMETRY LOCATED *****
            (SUBJECT TO   3 CONSTRAINT(S))
 COORDINATES OF ALL ATOMS ARE (ANGS)
   ATOM   CHARGE       X              Y              Z
 ------------------------------------------------------------
 C           6.0   4.3849913732   2.6169533418   2.7566987426
 C           6.0   3.2708203282   1.9890239077   1.8852774779
 C           6.0   1.9103835891   2.6879213043   2.0732501798
 C           6.0   3.1472504313   0.4787178661   2.1383923377
 C           6.0   4.5534780201   4.1217239866   2.5007696901
 C           6.0   5.7322243912   1.9121984000   2.5452808364
 C           6.0   0.9178031141   2.4598709242   0.9312180539
 H           1.0   4.1057538846   2.4872465749   3.8035973045
 H           1.0   3.5676560496   2.1273411652   0.8439206581
 H           1.0   1.4692005218   2.3662711352   3.0162027303
 H           1.0   2.0553700420   3.7569204955   2.1568439141
 H           1.0   2.9500896121   0.2795128356   3.1901990821
 H           1.0   2.3401459443   0.0424218930   1.5595931195
 H           1.0   4.0529967979  -0.0503898775   1.8656517231
 H           1.0   5.4073036059   4.5066274269   3.0504256862
 H           1.0   4.7193092704   4.3206655719   1.4435677737
 H           1.0   3.6895764390   4.6944708420   2.8153376824
 H           1.0   6.0238085377   1.9432313409   1.4968327889
 H           1.0   6.5127770029   2.3978880172   3.1232509817
 H           1.0   5.7034097315   0.8733791791   2.8520369844
 H           1.0   0.6332141922   1.4181504953   0.8240762096
 H           1.0   0.0105117968   3.0340282899   1.0995976108
 H           1.0   1.3438961831   2.7894317750  -0.0138130549


                     --------------------
                     INTERNAL COORDINATES
                     --------------------

                 - - ATOMS - -         COORDINATE      COORDINATE
 NO.   TYPE    I  J  K  L  M  N        (BOHR,RAD)       (ANG,DEG)
 ----------------------------------------------------------------
   1 STRETCH   1  6                     2.9008456       1.5350615
   2 STRETCH   1  5                     2.9019585       1.5356504
   3 STRETCH   1  8                     2.0621353       1.0912351
   4 STRETCH   1  2                     2.9245288       1.5475941
   5 STRETCH   2  4                     2.9032742       1.5363466
   6 STRETCH   2  3                     2.9120055       1.5409670
   7 STRETCH   2  9                     2.0628912       1.0916351
   8 STRETCH   3  7                     2.8916268       1.5301831
   9 STRETCH   3 11                     2.0447222       1.0820205
  10 STRETCH   3 10                     2.0590738       1.0896150
  11 STRETCH   4 14                     2.0481691       1.0838445
  12 STRETCH   4 13                     2.0499655       1.0847951
  13 STRETCH   4 12                     2.0569843       1.0885093
  14 STRETCH   5 16                     2.0568985       1.0884639
  15 STRETCH   5 15                     2.0521506       1.0859514
  16 STRETCH   5 17                     2.0469474       1.0831980
  17 STRETCH   6 20                     2.0476077       1.0835474
  18 STRETCH   6 19                     2.0520773       1.0859126
  19 STRETCH   6 18                     2.0573099       1.0886816
  20 STRETCH   7 23                     2.0555923       1.0877727
  21 STRETCH   7 22                     2.0537991       1.0868238
  22 STRETCH   7 21                     2.0507242       1.0851966
  23 BEND      1  5 17                  1.9629937     112.4712551
  24 BEND      1  5 15                  1.9275367     110.4397178
  25 BEND      1  2  9                  1.8649940     106.8562874
  26 BEND      1  5 16                  1.9365840     110.9580924
  27 BEND      1  6 20                  1.9582413     112.1989615
  28 BEND      1  2  3                  1.9637121     112.5124145
  29 BEND      1  2  4                  1.9433610     111.3463806
  30 BEND      1  6 19                  1.9307193     110.6220695
  31 BEND      1  6 18                  1.9332933     110.7695449
  32 BEND      2  1  6                  1.9476705     111.5933000
  33 BEND      2  1  8                  1.8836236     107.9236814
  34 BEND      2  3 10                  1.9061918     109.2167463
  35 BEND      2  3  7                  1.9976832     114.4588161
  36 BEND      2  4 12                  1.9322878     110.7119364
  37 BEND      2  4 14                  1.9511292     111.7914673
  38 BEND      2  1  5                  1.9635497     112.5031113
  39 BEND      2  3 11                  1.9168763     109.8289234
  40 BEND      2  4 13                  1.9469147     111.5499952
  41 BEND      3  7 22                  1.9253292     110.3132370
  42 BEND      3  7 21                  1.9680213     112.7593119
  43 BEND      3  7 23                  1.9274670     110.4357224
  44 BEND      3  2  9                  1.8743994     107.3951727
  45 BEND      3  2  4                  1.9334452     110.7782521
  46 BEND      4  2  9                  1.8792573     107.6735119
  47 BEND      5  1  8                  1.8801414     107.7241692
  48 BEND      5  1  6                  1.9077655     109.3069102
  49 BEND      6  1  8                  1.8777337     107.5862157
  50 BEND      7  3 10                  1.9169062     109.8306346
  51 BEND      7  3 11                  1.8669253     106.9669424
  52 BEND     10  3 11                  1.8535908     106.2029295
  53 BEND     12  4 13                  1.8830444     107.8904940
  54 BEND     12  4 14                  1.8809269     107.7691725
  55 BEND     13  4 14                  1.8662276     106.9269675
  56 BEND     15  5 17                  1.8678116     107.0177206
  57 BEND     15  5 16                  1.8828829     107.8812439
  58 BEND     16  5 17                  1.8827650     107.8744886
  59 BEND     18  6 19                  1.8831583     107.8970204
  60 BEND     18  6 20                  1.8829322     107.8840659
  61 BEND     19  6 20                  1.8725929     107.2916687
  62 BEND     21  7 22                  1.8791545     107.6676216
  63 BEND     21  7 23                  1.8836563     107.9255554
  64 BEND     22  7 23                  1.8771116     107.5505745
  65 TORSION   1  2  4 12               1.0034543      57.4936974
  66 TORSION   1  2  4 13               3.1006568     177.6545464
  67 TORSION   1  2  4 14              -1.0938824     -62.6748441
  68 TORSION   1  2  3 10              -1.3370650     -76.6081796
  69 TORSION   1  2  3 11               0.6891301      39.4842439
  70 TORSION   1  2  3  7               2.7890933     159.8032749
  71 TORSION   2  1  6 20              -1.1035468     -63.2285727
  72 TORSION   2  1  6 19               3.0891951     176.9978432
  73 TORSION   2  1  5 15              -3.0397368    -174.1640913
  74 TORSION   2  3  7 21               1.1062349      63.3825934
  75 TORSION   2  3  7 22              -3.0753302    -176.2034437
  76 TORSION   2  3  7 23              -1.0026594     -57.4481526
  77 TORSION   2  1  5 16              -0.9526729     -54.5841387
  78 TORSION   2  1  5 17               1.1580967      66.3540534
  79 TORSION   2  1  6 18               1.0018446      57.4014650
  80 TORSION   3  2  4 14               2.9899601     171.3120957
  81 TORSION   3  2  4 12              -1.1958885     -68.5193628
  82 TORSION   3  2  1  8               1.0895433      62.4262342
  83 TORSION   3  2  1  5              -0.9822849     -56.2807813
  84 TORSION   3  2  4 13               0.9013140      51.6414862
  85 TORSION   3  2  1  6              -3.1340776    -179.5694193
  86 TORSION   4  2  1  8              -1.0929789     -62.6230767
  87 TORSION   4  2  3  7              -1.3061573     -74.8373032
  88 TORSION   4  2  1  5               3.1183782     178.6699078
  89 TORSION   4  2  1  6               0.9665855      55.3812698
  90 TORSION   4  2  3 10               0.8508697      48.7512423
  91 TORSION   4  2  3 11               2.8770647     164.8436657
  92 TORSION   5  1  6 18              -1.1813215     -67.6847384
  93 TORSION   5  1  6 19               0.9060290      51.9116398
  94 TORSION   5  1  6 20               2.9964724     171.6852239
  95 TORSION   5  1  2  9               1.0707115      61.3472506
  96 TORSION   6  1  2  9              -1.0810812     -61.9413874
  97 TORSION   6  1  5 16               1.2212471      69.9723072
  98 TORSION   6  1  5 17              -2.9511685    -169.0895006
  99 TORSION   6  1  5 15              -0.8658167     -49.6076453
 100 TORSION   7  3  2  9               0.7416716      42.4946503
 101 TORSION   8  1  6 19              -1.1308946     -64.7954864
 102 TORSION   8  1  6 20               0.9595488      54.9780978
 103 TORSION   8  1  5 16              -3.0265407    -173.4080065
 104 TORSION   8  1  5 15               1.1695808      67.0120409
 105 TORSION   8  1  5 17              -0.9157710     -52.4698144
 106 TORSION   8  1  2  9              -3.1406455    -179.9457339
 107 TORSION   8  1  6 18               3.0649402     175.6081354
 108 TORSION   9  2  4 14               0.9451119      54.1509204
 109 TORSION   9  2  4 12               3.0424486     174.3194619
 110 TORSION   9  2  3 10               2.8986986     166.0831957
 111 TORSION   9  2  4 13              -1.1435343     -65.5196891
 112 TORSION   9  2  3 11              -1.3582917     -77.8243808
 113 TORSION  10  3  7 23               3.1292554     179.2931294
 114 TORSION  10  3  7 21              -1.0450355     -59.8761246
 115 TORSION  10  3  7 22               1.0565846      60.5378384
 116 TORSION  11  3  7 23               1.1248414      64.4486620
 117 TORSION  11  3  7 21              -3.0494496    -174.7205920
 118 TORSION  11  3  7 22              -0.9478295     -54.3066291

          INTERNUCLEAR DISTANCES (ANGS.)


 =====================================================
   GAMESS/COSab RESULTS
 =====================================================

   Dielectric Constant                  = INFTY
   Basic Grid Size                      =                 1082
   Number of Segments                   =                   92
   Number of Segments located on spheres=                  265
   Number of Segments of the cavity     =                  685
   Solvent Radius (rsolv)               = 1.40
   Outlying Charge Error Method         = double cavity

 =====================================================

  Total solvated Energy (a.u.)          =  -274.4650268806
  Total Energy corrected (a.u.)         =  -274.4649364800

  Outlying charge effect (a.u.)         =     0.0000904005
  Outlying charge effect (kcal/mol)     =     0.0567272403

  Dielectric Energy (a.u.)              =    -0.0014179869
  Dielectric energy corr. (a.u.)        =    -0.0013275864

  Sum of polarization charges           =     0.0295006146
  Sum of polarization charges(cor.)     =    -0.0295006146

  Total surface area of cavity (A**2)   =  164.49
  Total volume of cavity (A**3)         =  166.48

 =====================================================
 NPS=                   685
NR.  ATOM  (X, Y, Z)(a.u.)                  CHARGE(e)  AREA(A**2) SIGMA(e/A**2)
   1   1   9.986806   5.799714   8.474823   0.000170   0.092912   0.001834
   2   1   9.722173   6.095942   8.510758   0.000061   0.046456   0.001320
   3   3   1.912575   7.603335   6.161217   0.001809   0.371649   0.004867
   4   3   1.877226   6.899980   6.740468   0.001406   0.278737   0.005045
   5   3   3.762222   6.970300   7.186780   0.000364   0.092912   0.003923
   6   3   2.999999   7.363700   6.866461   0.001803   0.325193   0.005545
   7   3   0.907248   6.945282   5.788028   0.001428   0.418105   0.003416
   8   3   1.270544   7.856761   4.965337   0.000885   0.325193   0.002722
   9   3   0.468139   5.925155   5.840668   0.000429   0.185824   0.002311
  10   3   3.393871   6.630409   7.357640   0.000718   0.139368   0.005153
  11   4   6.082947  -2.255986   1.973066   0.002303   0.418105   0.005509
  12   4   3.546291  -1.864314   4.963829   0.001928   0.418105   0.004611
  13   4   7.507458  -2.194072   5.540490   0.001209   0.278737   0.004338
  14   4   7.644152   0.559947   0.681435   0.000494   0.185824   0.002657
  15   4   5.648290   0.677916   0.280219   0.000231   0.092912   0.002489
  16   4   6.470946   0.202348   0.364443   0.001226   0.371649   0.003298
  17   4   6.483747  -0.914445   0.771807   0.001883   0.371649   0.005066
  18   4   7.060608  -1.896244   6.321360   0.001484   0.325193   0.004563
  19   4   3.687844  -1.521220   5.855840   0.001267   0.278737   0.004547
  20   4   5.842917  -1.450599   1.086980   0.001015   0.232280   0.004369
  21   4   6.702379  -1.665920   1.375184   0.000871   0.185824   0.004688
  22   4   2.499884   0.025148   5.315802   0.000998   0.185824   0.005372
  23   4   2.793586  -0.784996   5.258617   0.002128   0.371649   0.005727
  24   4   4.709767  -2.404304   5.383851   0.001577   0.464561   0.003394
  25   4   6.200604  -2.534858   5.586938   0.001341   0.418105   0.003206
  26   4   8.007393  -1.522315   6.078305   0.000824   0.185824   0.004433
  27   4   4.430393  -2.556205   4.114169   0.001320   0.418105   0.003157
  28   4   5.401065  -2.700238   3.045723   0.001523   0.418105   0.003642
  29   4   6.520288  -2.715628   3.119193   0.001510   0.418105   0.003611
  30   4   6.781244  -2.744082   4.566144   0.001561   0.464561   0.003359
  31   4   5.540968   0.074899   0.376212   0.000680   0.232280   0.002926
  32   4   7.321667  -0.108159   0.669049   0.000877   0.232280   0.003774
  33   4   5.504317  -2.255314   6.066462   0.000694   0.232280   0.002988
  34   4   2.853589  -0.091256   5.969865   0.000668   0.139368   0.004794
  35   4   7.732472  -1.092678   6.707177   0.000645   0.139368   0.004630
  36   4   5.598119  -2.848301   4.319595   0.001080   0.418105   0.002584
  37   5   7.024511  10.596411   2.749673   0.001794   0.325193   0.005517
  38   5   8.467508   8.375173   8.456955   0.001028   0.325193   0.003161
  39   5  10.840233  10.353571   3.079605   0.001988   0.418105   0.004754
  40   5   8.439437  11.311048   6.086526   0.001396   0.325193   0.004292
  41   5   6.399536   9.435380   2.135368   0.000379   0.092912   0.004074
  42   5   9.243489  11.038952   6.546150   0.001366   0.325193   0.004200
  43   5  11.367980  10.224376   3.878496   0.001276   0.278737   0.004577
  44   5   9.186525   8.744164   8.335955   0.000729   0.232280   0.003137
  45   5   6.813188   9.854010   2.116217   0.000603   0.139368   0.004325
  46   5   6.397220  10.102787   2.711610   0.000853   0.185824   0.004588
  47   5  11.897915   8.393346   2.972345   0.001253   0.232280   0.005396
  48   5  11.642353   9.270564   3.033889   0.002148   0.371649   0.005779
  49   5  10.258820  11.115287   4.030095   0.001561   0.464561   0.003360
  50   5   9.311612  11.477486   5.149243   0.001280   0.418105   0.003060
  51   5   8.334236  10.637126   7.195360   0.001875   0.371649   0.005045
  52   5   8.018170   9.460144   8.064509   0.001864   0.418105   0.004458
  53   5   7.254017   8.434577   8.196035   0.001301   0.371649   0.003502
  54   5   9.580929  10.962849   2.920843   0.001373   0.418105   0.003283
  55   5   8.135971  11.006767   2.799631   0.001578   0.418105   0.003775
  56   5   7.353692  11.187469   3.644606   0.001516   0.418105   0.003626
  57   5   8.178756  11.543883   4.781593   0.001479   0.464561   0.003183
  58   5  10.159749  11.215585   5.078710   0.000684   0.232280   0.002944
  59   5  12.122516   8.753295   3.735762   0.000645   0.139368   0.004630
  60   5   9.539966   7.883590   8.386483   0.000433   0.139368   0.003106
  61   5   8.903567   9.925515   7.829004   0.001514   0.325193   0.004654
  62   5   8.861358  11.440231   3.784224   0.001069   0.418105   0.002556
  63   6  13.430533   1.936292   6.982551   0.002288   0.418105   0.005472
  64   6  14.459812   4.210342   3.932636   0.001985   0.418105   0.004747
  65   6  12.786524   0.628712   3.562367   0.001508   0.371649   0.004058
  66   6  10.087029   2.052844   8.170381   0.000633   0.232280   0.002725
  67   6  11.317349   4.021354   8.535825   0.000785   0.232280   0.003379
  68   6  11.002793   2.922656   8.521732   0.001057   0.325193   0.003250
  69   6  12.035923   2.233853   8.116251   0.001583   0.325193   0.004869
  70   6  12.696870   1.140085   2.644269   0.001469   0.325193   0.004517
  71   6  14.109233   4.236409   3.032719   0.001260   0.278737   0.004522
  72   6  12.686202   6.037291   2.579881   0.000148   0.046456   0.003184
  73   6  12.848848   2.586655   7.836999   0.001074   0.232280   0.004623
  74   6  12.594559   1.730228   7.572483   0.000885   0.185824   0.004764
  75   6  13.378457   6.132519   3.603111   0.001262   0.232280   0.005434
  76   6  13.929909   5.401567   3.588283   0.002163   0.371649   0.005821
  77   6  14.328867   2.921815   3.552854   0.001571   0.464561   0.003382
  78   6  13.692576   1.483923   3.557642   0.001455   0.464561   0.003132
  79   6  11.883334   0.530489   2.892972   0.000866   0.185824   0.004659
  80   6  14.580060   3.124916   4.821266   0.001331   0.418105   0.003183
  81   6  14.182580   2.255216   5.912209   0.001541   0.418105   0.003685
  82   6  13.580245   1.265736   5.914925   0.001644   0.464561   0.003539
  83   6  13.381112   0.831203   4.593843   0.000947   0.325193   0.002911
  84   6  11.857337   3.273570   8.431761   0.000867   0.232280   0.003731
  85   6  10.928228   2.026973   8.238851   0.000881   0.232280   0.003794
  86   6  13.781010   2.215375   2.903366   0.000841   0.278737   0.003018
  87   6  13.317960   5.684310   2.855941   0.000637   0.139368   0.004567
  88   6  11.668963   0.966493   2.245211   0.000657   0.139368   0.004714
  89   6  14.200937   1.907938   4.643216   0.001216   0.464561   0.002618
  90   7  -0.027749   6.889684  -0.721397   0.002330   0.418105   0.005573
  91   7  -0.571853   3.016731   4.270297   0.000909   0.278737   0.003259
  92   7  -1.841623   3.896963   0.794574   0.001858   0.418105   0.004444
  93   7   1.050601   3.490443  -1.772344   0.001521   0.371649   0.004094
  94   7   3.027313   8.031949   0.680522   0.000578   0.232280   0.002490
  95   7   1.144870   8.370689   2.045781   0.000669   0.232280   0.002880
  96   7   1.829905   8.360819   1.057164   0.000845   0.278737   0.003031
  97   7   1.154688   7.998830   0.109503   0.001581   0.325193   0.004862
  98   7   1.032257   2.512274  -1.278003   0.001634   0.371649   0.004397
  99   7  -1.541014   2.900329   1.052697   0.001208   0.278737   0.004332
 100   7  -0.856589   2.563448   3.555213   0.001084   0.278737   0.003891
 101   7   0.267685   7.722463   0.121578   0.001071   0.232280   0.004613
 102   7   0.826201   7.473186  -0.581287   0.000928   0.185824   0.004993
 103   7   0.130613   2.208487   4.159452   0.000592   0.232280   0.002549
 104   7  -1.465638   3.592721   3.471295   0.001455   0.325193   0.004475
 105   7  -1.847336   3.486417   2.083866   0.002010   0.371649   0.005408
 106   7  -1.244880   3.451352  -0.234010   0.001522   0.464561   0.003276
 107   7  -0.111727   3.478911  -1.323793   0.001426   0.464561   0.003070
 108   7   2.211389   2.785400  -1.493823   0.001737   0.325193   0.005341
 109   7   3.358121   2.492247  -0.885719   0.000832   0.185824   0.004479
 110   7  -0.956316   4.031053   4.341042   0.001004   0.325193   0.003088
 111   7  -1.439261   4.744048  -0.290379   0.001171   0.371649   0.003152
 112   7  -0.848497   5.822426  -0.737201   0.001556   0.418105   0.003721
 113   7   0.083514   5.838711  -1.424933   0.001719   0.464561   0.003701
 114   7   0.427413   4.524837  -1.784372   0.000980   0.325193   0.003015
 115   7   0.927668   8.289620   1.146977   0.000846   0.232280   0.003644
 116   7   2.258731   8.111694   0.340085   0.000853   0.232280   0.003671
 117   7  -0.472817   2.810252  -0.696554   0.000809   0.278737   0.002902
 118   7  -1.457436   2.882203   2.748042   0.001359   0.278737   0.004875
 119   7   2.461692   2.091790  -0.927015   0.001368   0.278737   0.004909
 120   7  -0.740691   4.877303   4.606816   0.000372   0.139368   0.002670
 121   7  -0.686293   4.553641  -1.141206   0.001067   0.418105   0.002553
 122   7   3.527780   2.953467  -1.102947   0.000487   0.139368   0.003496
 123   8   7.270358   4.623021   9.594138  -0.001171   0.333671  -0.003511
 124   8   8.282234   3.238319   9.091427  -0.000744   0.333671  -0.002231
 125   8   6.887940   6.002299   9.080219  -0.000444   0.333671  -0.001330
 126   8   8.878560   5.308408   9.288052  -0.000439   0.333671  -0.001316
 127   8   7.397122   3.575727   9.341801  -0.001151   0.314043  -0.003666
 128   8   6.357557   4.089883   9.111118  -0.001493   0.353299  -0.004227
 129   8   6.381758   5.235140   9.150639  -0.001169   0.353299  -0.003308
 130   8   7.885692   5.645419   9.451738  -0.000941   0.372926  -0.002524
 131   8   8.504892   4.334962   9.499681  -0.000971   0.431809  -0.002249
 132   9   7.328125   4.309587  -0.773264  -0.000902   0.274788  -0.003282
 133   9   6.478644   2.908284  -0.579999  -0.000447   0.196277  -0.002275
 134   9   7.892147   2.799555  -0.200292  -0.000522   0.215905  -0.002419
 135   9   6.687438   3.867785  -0.856534  -0.001030   0.255160  -0.004038
 136   9   7.228513   2.930131  -0.552373  -0.000521   0.255160  -0.002041
 137   9   8.076879   3.757863  -0.450738  -0.001025   0.274788  -0.003732
 138   9   8.007244   4.804599  -0.359331  -0.001123   0.255160  -0.004401
 139   9   7.050757   5.290693  -0.484957  -0.001213   0.274788  -0.004415
 140  10   1.785730   3.758083   7.831587  -0.001253   0.314043  -0.003990
 141  10   1.175414   2.754763   6.423955  -0.000536   0.274788  -0.001949
 142  10   0.519096   4.410566   6.667242  -0.000684   0.314043  -0.002178
 143  10   1.911074   5.663334   7.666025  -0.000360   0.333671  -0.001078
 144  10   2.924008   5.267508   8.019236  -0.000605   0.314043  -0.001927
 145  10   1.749268   2.966434   7.347384  -0.001484   0.314043  -0.004727
 146  10   0.861122   3.514642   6.904383  -0.000867   0.314043  -0.002762
 147  10   1.179575   4.550384   7.565009  -0.001095   0.314043  -0.003487
 148  10   2.134805   4.747421   8.055075  -0.000781   0.255160  -0.003060
 149  10   2.870322   3.944038   8.097276  -0.001666   0.372926  -0.004468
 150  10   0.944221   5.385806   7.057160  -0.000382   0.314043  -0.001217
 151  11   3.166025   9.448679   4.108250  -0.001086   0.215905  -0.005029
 152  11   3.961911   8.879980   2.384968  -0.000417   0.157022  -0.002655
 153  11   2.996722   8.661921   5.751160  -0.000352   0.176649  -0.001992
 154  11   2.318343   8.960992   4.420185  -0.000715   0.314043  -0.002277
 155  11   3.584814   9.324575   3.078471  -0.000964   0.235532  -0.004093
 156  11   2.829855   9.058308   5.118416  -0.000669   0.255160  -0.002624
 157  11   2.782775   9.196631   3.424359  -0.000378   0.235532  -0.001603
 158  12   4.977038  -0.397872   8.224076  -0.002319   0.490692  -0.004726
 159  12   6.803522   0.078307   8.107804  -0.000968   0.255160  -0.003794
 160  12   6.044419  -1.345981   7.545845  -0.000739   0.372926  -0.001983
 161  12   3.933312  -0.802385   7.281583  -0.000704   0.372926  -0.001889
 162  12   5.770649   0.527229   8.477435  -0.001824   0.372926  -0.004890
 163  12   6.461122  -0.634585   8.002824  -0.001163   0.392554  -0.002962
 164  12   4.898127  -1.390205   7.405857  -0.001000   0.412182  -0.002426
 165  12   3.694801   0.160462   7.566546  -0.001317   0.431809  -0.003050
 166  12   4.659618   0.881392   8.280873  -0.002263   0.431809  -0.005241
 167  13   2.758850  -1.518117   2.102382  -0.002043   0.353299  -0.005782
 168  13   2.944984  -1.870214   3.168131  -0.000851   0.353299  -0.002408
 169  13   3.994899  -1.965285   1.655450  -0.000831   0.314043  -0.002646
 170  13   4.184501  -0.543416   0.582934  -0.000953   0.314043  -0.003035
 171  13   2.338067  -1.103389   3.486172  -0.001041   0.353299  -0.002946
 172  13   3.672558  -2.213238   2.485282  -0.000713   0.314043  -0.002271
 173  13   4.379356  -1.450454   1.026137  -0.000486   0.274788  -0.001770
 174  13   3.355164  -1.156397   1.112160  -0.001628   0.294415  -0.005530
 175  14   9.406794  -1.514705   2.542934  -0.002187   0.372926  -0.005863
 176  14   8.436810  -0.909345   1.342137  -0.000557   0.314043  -0.001773
 177  14   8.106874  -2.350062   2.659382  -0.000594   0.294415  -0.002017
 178  14   8.797951  -2.063269   4.455541  -0.000648   0.294415  -0.002201
 179  14   9.193330  -0.673515   1.696185  -0.001359   0.314043  -0.004326
 180  14   8.412421  -1.802649   1.927998  -0.001056   0.392554  -0.002691
 181  14   8.418865  -2.431098   3.564457  -0.000722   0.294415  -0.002452
 182  14   9.279485  -1.940642   3.464357  -0.001722   0.314043  -0.005483
 183  15  11.920382   9.832903   6.949642  -0.002381   0.471065  -0.005054
 184  15  10.487733   9.255874   8.091604  -0.000563   0.353299  -0.001594
 185  15  10.827016  10.709263   6.689402  -0.000771   0.372926  -0.002067
 186  15  12.202322   9.853392   5.206796  -0.000744   0.372926  -0.001996
 187  15  11.315096   8.553390   7.962380  -0.002110   0.510320  -0.004135
 188  15  10.800820  10.086863   7.561447  -0.001321   0.451437  -0.002927
 189  15  11.612833  10.537652   5.831983  -0.001223   0.451437  -0.002709
 190  15  12.599228   9.051706   5.482167  -0.001322   0.392554  -0.003368
 191  15  12.359102   8.931611   6.895690  -0.002296   0.412182  -0.005570
 192  16   9.336835   9.027163   0.466012  -0.001902   0.412182  -0.004614
 193  16   7.655115   9.386410   1.011100  -0.000848   0.372926  -0.002274
 194  16  10.874193   8.956283   1.469804  -0.000523   0.353299  -0.001481
 195  16   9.356390  10.268692   1.537543  -0.000447   0.314043  -0.001424
 196  16   8.245168   8.481033   0.386538  -0.002201   0.431809  -0.005097
 197  16   9.416570   7.762714   0.356229  -0.002298   0.412182  -0.005575
 198  16  10.443698   8.230851   0.803455  -0.001841   0.431809  -0.004263
 199  16  10.147794   9.661160   1.216532  -0.001178   0.412182  -0.002858
 200  16   8.556374   9.890902   1.017677  -0.001223   0.431809  -0.002833
 201  17   5.371901  10.623909   5.954332  -0.002717   0.471065  -0.005767
 202  17   6.116018  11.105289   4.762541  -0.000524   0.235532  -0.002223
 203  17   6.547905  10.930244   6.591278  -0.000899   0.353299  -0.002546
 204  17   5.866421   9.087939   7.503164  -0.000823   0.333671  -0.002465
 205  17   5.546883  10.691015   4.488470  -0.001239   0.314043  -0.003946
 206  17   6.440214  11.251897   5.611016  -0.000886   0.353299  -0.002507
 207  17   6.382326  10.213447   7.291413  -0.000896   0.392554  -0.002282
 208  17   5.351952   9.804662   6.913456  -0.001911   0.372926  -0.005123
 209  18  12.266187   3.510681   0.541767  -0.001430   0.314043  -0.004553
 210  18  11.167693   2.206410   0.868985  -0.000978   0.274788  -0.003560
 211  18  12.764700   2.225620   1.402273  -0.000661   0.353299  -0.001870
 212  18  13.428713   4.356181   1.652283  -0.000553   0.333671  -0.001658
 213  18  12.636939   5.234485   1.406341  -0.000979   0.353299  -0.002772
 214  18  11.274596   3.378334   0.392021  -0.001761   0.353299  -0.004984
 215  18  11.980169   2.280343   0.894260  -0.001107   0.372926  -0.002967
 216  18  13.043632   3.339028   1.048838  -0.001149   0.294415  -0.003903
 217  18  12.634761   4.492922   0.880409  -0.001226   0.314043  -0.003904
 218  18  11.528240   4.551343   0.539238  -0.002133   0.392554  -0.005435
[...]
 426   4   8.561065  -0.934624   6.279779   0.001766   0.572617   0.003085
 427  21   0.881330   0.964268   3.523431  -0.000036   0.130619  -0.000279
 428   4   1.980285   0.326421   4.509963   0.000555   0.187522   0.002962
 429   5  12.407093   7.868591   4.345864   0.000186   0.068828   0.002706
 430   6  12.727902   7.107978   4.377140   0.000276   0.068828   0.004013
 431  15  12.455421   7.993043   4.619662  -0.000025   0.068828  -0.000361
 432   5  11.803937   6.916949   2.460142   0.000273   0.061189   0.004463
 433   6  12.251350   6.224296   2.419856   0.000163   0.061189   0.002660
 434  18  12.225068   6.031699   2.184573  -0.000007   0.061189  -0.000122
 435   6  12.621670   6.549468   3.161038   0.001673   0.531478   0.003148
 436   5  12.209353   7.672391   3.487285   0.001717   0.531478   0.003231
 437   5   6.247293   8.422697   1.704363   0.000240   0.127287   0.001889
 438   7   5.038400   7.661014   1.366987   0.000225   0.127287   0.001769
 439  16   6.497955   8.396425   1.528163   0.000090   0.127287   0.000704
 440   7   4.180283   7.845246   0.850704   0.000198   0.069958   0.002827
 441   5   6.028652   8.665533   1.623679   0.000214   0.069958   0.003053
 442   8   8.645613   6.284227   8.880536  -0.000123   0.212627  -0.000577
 443   8   7.140698   6.488710   8.619896  -0.000987   0.437645  -0.002256
 444   5   8.309842   7.405127   8.464302   0.001086   0.580274   0.001871
 445   5   6.615950   7.526073   8.033916   0.000848   0.299649   0.002829
 446   5   5.683757   9.894430   3.339776   0.000023   0.071317   0.000322
 447  11   4.855288   9.516153   3.344927  -0.000284   0.071317  -0.003988
 448  17   5.513835   9.960692   3.582493  -0.000202   0.071317  -0.002837
 449  11   4.555175   9.101954   2.743553  -0.001163   0.347173  -0.003351
 450   5   5.864454   9.394974   2.468494   0.001419   0.488765   0.002903
 451  15  12.382607   8.689741   4.618696  -0.000006   0.071089  -0.000081
 452  15  11.922689   9.737097   4.599698  -0.000152   0.158838  -0.000955
 453  15  11.109048  10.672558   5.208522  -0.000257   0.158838  -0.001620
 454  15  10.312746  10.846623   6.323587  -0.000297   0.158838  -0.001869
 455  15   9.882857  10.182988   7.456083  -0.000155   0.158838  -0.000974
 456  15  10.007829   8.972570   8.109561  -0.000314   0.158838  -0.001978
 457  15  10.464681   7.923989   8.134179  -0.000103   0.071089  -0.001451
 458   5  12.089018   9.005122   4.192531   0.000199   0.154892   0.001283
 459   5  11.322537  10.327618   4.457072   0.000091   0.154892   0.000591
 460   5  10.364431  10.987916   5.482990  -0.000041   0.154892  -0.000268
 461   5   9.634702  10.696565   6.820555   0.000067   0.154892   0.000433
 462   5   9.453240   9.581282   7.883421   0.000035   0.154892   0.000227
 463   5   9.899593   8.130972   8.205662  -0.000152   0.154892  -0.000982
 464   5  11.459714   7.330696   2.196789   0.000166   0.087467   0.001903
 465  16  11.285196   7.412372   1.958138  -0.000054   0.087467  -0.000617
 466  18  11.765366   6.374809   2.030406   0.000263   0.087467   0.003008
 467  16   7.096394   9.155880   1.416543  -0.000075   0.073344  -0.001026
 468  16   7.828283  10.029685   1.695774  -0.000162   0.164757  -0.000983
 469  16   9.156809  10.425980   1.978741  -0.000323   0.164757  -0.001960
 470  16  10.458042   9.879506   2.080027  -0.000191   0.164757  -0.001157
 471  16  11.132373   8.642077   1.952957  -0.000284   0.164757  -0.001723
 472   5   7.087209   9.597524   1.844794   0.000111   0.159029   0.000699
 473   5   8.324030  10.524322   2.213202   0.000015   0.159029   0.000097
 474   5   9.893670  10.434683   2.442554  -0.000067   0.159029  -0.000418
 475   5  11.072838   9.369914   2.427163   0.000156   0.159029   0.000981
 476   5  11.441590   8.140666   2.253699   0.000193   0.089605   0.002152
 477  17   6.011676   8.451134   7.543600  -0.000116   0.065972  -0.001760
 478  17   6.629524   9.317828   7.662407  -0.000246   0.145381  -0.001694
 479  17   7.166173  10.394151   7.176546  -0.000143   0.145381  -0.000981
 480  17   7.264596  11.127690   6.111294  -0.000232   0.145381  -0.001599
 481  17   6.887048  11.237136   4.875169  -0.000281   0.145381  -0.001935
 482  17   6.178316  10.680519   3.942215  -0.000236   0.145381  -0.001624
 483   5   6.550599   8.514111   7.763365  -0.000108   0.145643  -0.000738
 484   5   7.322131   9.744730   7.641637   0.000096   0.145643   0.000660
 485   5   7.697385  10.814150   6.725108   0.000086   0.145643   0.000591
 486   5   7.532454  11.312257   5.365259   0.000020   0.145643   0.000138
 487   5   6.890588  11.048031   4.083583  -0.000101   0.145643  -0.000693
 488   5   6.198924  10.385142   3.390991   0.000132   0.080599   0.001635
 489  18  12.259841   5.965051   1.927942   0.000065   0.035257   0.001840
 490   5  11.743500   7.334331   2.265282   0.000248   0.050183   0.004944
 491   6   8.786950   1.916270   7.774603   0.000500   0.245251   0.002039
 492   8   8.204062   2.279065   8.086393   0.000147   0.245251   0.000601
 493  12   7.686725   1.384869   7.750526   0.000424   0.245251   0.001730
 494   8   8.665418   2.854530   8.587522  -0.000109   0.199423  -0.000544
 495   8   9.338891   4.112105   8.883335  -0.000753   0.408812  -0.001842
 496   6   9.876270   2.848732   8.392111   0.001088   0.545881   0.001992
 497   6  10.568337   4.338604   8.605799   0.000765   0.281108   0.002723
 498   6   9.237576   1.340593   7.534471   0.000011   0.110624   0.000097
 499  12   8.131120   0.847874   7.445363   0.000364   0.110624   0.003288
 500  20   9.313598   1.061569   7.433866  -0.000192   0.110624  -0.001736
 501  12   7.527588   0.678456   7.845023   0.000045   0.069109   0.000649
 502   6   9.123777   1.497334   7.870212   0.000347   0.101120   0.003435
 503   6  10.721222   1.113289   1.928206   0.000293   0.056911   0.005142
 504  14   9.954723   0.540054   1.971056   0.000132   0.056911   0.002321
 505  18  10.817729   1.341106   1.750965   0.000054   0.056911   0.000945
 506   6  11.157574   0.024828   3.415808   0.000031   0.077299   0.000398
 507  14  10.357050  -0.486976   3.275532  -0.000278   0.077299  -0.003601
 508  20  11.090506  -0.155039   3.651686  -0.000165   0.077299  -0.002131
 509  14   9.815188  -0.324268   2.294686  -0.001742   0.405123  -0.004299
 510   6  11.031282   0.360877   2.668578   0.001777   0.572180   0.003106
 511   6  13.074125   6.736386   4.636959   0.000106   0.084607   0.001247
 512  15  12.675706   7.562660   4.909616   0.000166   0.084607   0.001962
 513  19  13.203376   6.715727   4.913248  -0.000078   0.084607  -0.000926
 514  15  12.593684   8.111573   4.798888   0.000053   0.031599   0.001681
 515   6  13.110152   6.861539   4.389865   0.000223   0.044715   0.004983
 516  18  12.727982   5.569134   2.036749  -0.000037   0.069851  -0.000528
 517  18  13.450144   4.729951   2.212744  -0.000130   0.155196  -0.000840
 518  18  13.696396   3.397847   2.241795  -0.000271   0.155196  -0.001744
 519  18  13.106135   2.194656   2.042022  -0.000290   0.155196  -0.001870
 520  18  11.926506   1.624157   1.697072  -0.000146   0.155196  -0.000938
 521   6  13.106296   5.448231   2.488093   0.000186   0.153038   0.001215
 522   6  13.833984   4.121339   2.651188   0.000129   0.153038   0.000845
 523   6  13.629784   2.616412   2.549849  -0.000012   0.153038  -0.000082
 524   6  12.579194   1.563567   2.226507   0.000083   0.153038   0.000540
 525   6  11.421887   1.276597   1.896158   0.000172   0.085339   0.002012
 526  19  11.873441   5.071584   8.257330  -0.000082   0.070995  -0.001149
 527  19  12.478023   4.101921   8.255673  -0.000226   0.158586  -0.001423
 528  19  13.426304   3.312395   7.638477  -0.000203   0.158586  -0.001282
 529  19  14.257217   3.287380   6.537351  -0.000255   0.158586  -0.001607
 530  19  14.607389   4.037815   5.433836  -0.000270   0.158586  -0.001703
 531  19  14.323685   5.235522   4.810517  -0.000124   0.158586  -0.000785
 532  19  13.724085   6.208245   4.802874  -0.000057   0.070995  -0.000797
 533   6  11.720854   4.489255   8.323853  -0.000149   0.154727  -0.000965
 534   6  12.672456   3.300200   8.037907   0.000069   0.154727   0.000447
 535   6  13.731140   2.815519   7.015443   0.000026   0.154727   0.000169
 536   6  14.433928   3.247170   5.703602  -0.000023   0.154727  -0.000149
 537   6  14.473479   4.406385   4.676073   0.000016   0.154727   0.000104
 538   6  13.832497   5.786221   4.382211   0.000038   0.154727   0.000243
 539  20  11.713413  -0.057835   3.891841  -0.000086   0.067812  -0.001274
 540  20  12.493408   0.141228   4.639232  -0.000293   0.150229  -0.001951
 541  20  12.831515   0.496543   5.874227  -0.000297   0.150229  -0.001979
 542  20  12.327122   0.857570   7.049396  -0.000138   0.150229  -0.000920
 543  20  11.184017   1.078444   7.689945  -0.000241   0.150229  -0.001605
 544  20  10.085949   1.107047   7.683623  -0.000126   0.067812  -0.001857
 545   6  12.206816   0.270053   3.872469  -0.000002   0.148940  -0.000015
 546   6  13.025658   0.602637   5.075660  -0.000052   0.148940  -0.000348
 547   6  12.927140   1.027039   6.503581  -0.000008   0.148940  -0.000053
 548   6  11.951067   1.371791   7.579317   0.000134   0.148940   0.000903
 549   6  10.491796   1.497604   7.868246  -0.000129   0.148940  -0.000863
 550   7   4.232330   3.369735  -0.865993   0.000091   0.084913   0.001068
 551   9   5.157212   3.388743  -0.607892   0.000153   0.084913   0.001803
 552  23   4.240518   3.625631  -1.034554  -0.000070   0.084913  -0.000822
 553   9   5.646394   2.854904  -0.432736  -0.000001   0.154487  -0.000009
 554   7   4.269217   2.931402  -0.779715   0.000653   0.218608   0.002985
 555  10   0.304461   4.600141   5.958269  -0.000092   0.206234  -0.000447
 556  10   0.756883   3.198556   5.775702  -0.000849   0.423026  -0.002008
 557   7  -0.171267   4.019378   4.967569   0.001064   0.564021   0.001887
 558   7   0.488845   2.485544   4.724139   0.000782   0.290498   0.002693
 559   7   0.961579   8.129656   3.058382   0.000034   0.028502   0.001178
 560  11   1.541782   8.323676   3.466408   0.000033   0.028502   0.001166
 561  22   0.668395   8.059972   3.030327  -0.000046   0.028502  -0.001599
 562  11   3.811457   8.520766   2.047553  -0.000309   0.213793  -0.001446
 563  11   2.570350   8.730466   2.977560  -0.001608   0.440930  -0.003646
 564   7   2.702967   8.277975   1.559188   0.000695   0.582904   0.001192
 565   7   1.351271   8.374195   2.711930   0.000620   0.301486   0.002056
 566   7   2.760015   1.375980  -0.045822   0.000012   0.085237   0.000140
 567  13   3.280751   0.627684   0.461298  -0.000127   0.085237  -0.001484
 568  21   2.576226   1.160939   0.069082  -0.000191   0.085237  -0.002241
 569  13   3.867676   0.339682   0.413967  -0.000173   0.174954  -0.000990
 570   7   3.241831   1.555374  -0.299098   0.000729   0.249650   0.002920
 571   7   4.339769   7.377510   0.710311   0.000109   0.164932   0.000661
 572  16   5.860594   7.673957   1.236543   0.000490   0.164932   0.002971
 573  23   4.349564   7.254159   0.426492  -0.000186   0.164932  -0.001129
 574  16   6.662509   8.617640   1.207693   0.000065   0.016634   0.003915
 575   7   4.360015   7.795307   0.671495   0.000110   0.026392   0.004163
 576  21   0.281579   1.495298   3.503271  -0.000141   0.070784  -0.001992
 577  21  -0.612861   1.805124   2.866708  -0.000237   0.158087  -0.001501
 578  21  -1.123437   2.073263   1.615880  -0.000185   0.158087  -0.001170
 579  21  -0.757683   2.109874   0.288461  -0.000269   0.158087  -0.001700
 580  21   0.324881   1.898990  -0.536608  -0.000301   0.158087  -0.001906
 581  21   1.652106   1.532585  -0.499483  -0.000185   0.158087  -0.001173
 582   7  -0.117163   1.948111   3.544612  -0.000091   0.154284  -0.000587
 583   7  -1.113576   2.335336   2.426396   0.000163   0.154284   0.001055
 584   7  -1.199737   2.516645   0.892482   0.000078   0.154284   0.000505
 585   7  -0.338068   2.412963  -0.388130  -0.000041   0.154284  -0.000266
 586   7   1.095623   2.069508  -0.856913   0.000067   0.154284   0.000434
 587   7   2.269968   1.719059  -0.568844   0.000133   0.086478   0.001543
 588  22   0.216538   8.126251   2.602364  -0.000105   0.067822  -0.001546
 589  22  -0.012817   8.077016   1.534426  -0.000195   0.149947  -0.001299
 590  22  -0.592218   7.459622   0.517674  -0.000168   0.149947  -0.001118
 591  22  -1.320620   6.403059   0.195542  -0.000195   0.149947  -0.001299
 592  22  -1.907787   5.328324   0.696387  -0.000233   0.149947  -0.001557
 593  22  -2.119755   4.663655   1.820642  -0.000127   0.149947  -0.000844
 594  22  -1.872065   4.673896   3.120338  -0.000182   0.149947  -0.001214
 595  22  -1.263410   5.354965   4.077599  -0.000292   0.149947  -0.001944
 596   7   0.560787   8.176199   2.122071  -0.000160   0.149281  -0.001073
 597   7   0.099636   7.850812   0.746790   0.000084   0.149281   0.000565
 598   7  -0.674623   6.859778  -0.045870   0.000047   0.149281   0.000312
 599   7  -1.453479   5.597985   0.059934  -0.000002   0.149281  -0.000010
 600   7  -1.926591   4.568206   1.022042   0.000031   0.149281   0.000206
 601   7  -1.905443   4.180764   2.457094   0.000053   0.149281   0.000353
 602   7  -1.398461   4.590041   3.793281   0.000060   0.149281   0.000404
 603   7  -0.782967   5.357719   4.492073   0.000032   0.082859   0.000381
 604  23   3.633879   3.612071  -1.468339  -0.000041   0.070523  -0.000576
 605  23   2.591810   3.756995  -1.887640  -0.000137   0.157103  -0.000872
 606  23   1.517230   4.580557  -2.084930  -0.000238   0.157103  -0.001515
 607  23   1.078212   5.852864  -1.839166  -0.000273   0.157103  -0.001739
 608  23   1.462758   7.029072  -1.255592  -0.000087   0.157103  -0.000552
 609  23   2.506192   7.605493  -0.584112  -0.000252   0.157103  -0.001604
 610  23   3.547220   7.507349  -0.148966  -0.000182   0.070523  -0.002578
 611   7   3.125777   3.288933  -1.423237   0.000164   0.154113   0.001062
 612   7   1.744228   3.791560  -1.870855   0.000077   0.154113   0.000502
 613   7   0.844652   5.037196  -1.842046  -0.000028   0.154113  -0.000179
 614   7   0.812277   6.492420  -1.349146   0.000058   0.154113   0.000377
 615   7   1.660967   7.534059  -0.603231   0.000177   0.154113   0.001148
 616   7   3.027286   7.716049   0.076275  -0.000166   0.154113  -0.001075
 617   8   5.447033   3.426600   8.079926   0.000198   0.335151   0.000592
 618  10   4.319419   3.374832   7.743320   0.000169   0.335151   0.000506
 619  12   4.947114   2.485301   7.836118  -0.000077   0.335151  -0.000231
 620  10   3.916401   4.100419   8.120909   0.000283   0.337662   0.000838
 621  10   3.884705   5.169559   8.062778   0.000603   0.337662   0.001786
 622   8   5.512021   4.706500   8.528425   0.000015   0.675389   0.000023
 623  12   7.000340   1.093731   8.222064   0.000075   0.293797   0.000256
 624  12   5.843202   1.662509   8.355014  -0.000632   0.587762  -0.001076
 625   8   7.249840   2.630663   8.680683  -0.000048   0.587762  -0.000081
 626   8   6.100582   3.230077   8.688529   0.000097   0.293797   0.000332
 627   9   8.988798   5.231919   0.612733  -0.000039   0.327351  -0.000121
 628  16   9.472810   6.164686   0.882996  -0.000030   0.327351  -0.000092
 629  18  10.029965   5.149304   0.905679  -0.000040   0.327351  -0.000122
 630   9   6.407733   6.175900   0.261533  -0.000393   0.337028  -0.001167
 631  16   6.909237   7.021324   0.701667   0.000557   0.337028   0.001653
 632  23   5.400325   6.340013   0.042296   0.000301   0.337028   0.000894
 633  16   9.109015   6.784000   0.432996  -0.000078   0.233850  -0.000334
 634  16   8.183341   7.292597   0.350523  -0.000441   0.467535  -0.000943
 635   9   8.068704   5.663190   0.015910  -0.000090   0.467535  -0.000193
 636   9   7.130877   6.155962   0.014663   0.000203   0.233850   0.000868
 637  18  10.186462   2.689872   0.647734   0.000051   0.286392   0.000177
 638  18  10.329209   3.943062   0.464119  -0.000650   0.572923  -0.001135
 639   9   8.773676   3.275775   0.147995  -0.000034   0.572923  -0.000059
 640   9   8.885792   4.543798   0.083791   0.000066   0.286392   0.000230
 641  23   4.908171   6.128343  -0.903802  -0.000223   0.255854  -0.000871
 642  23   4.765233   5.051095  -1.364756  -0.000480   0.511747  -0.000938
 643  23   4.422571   3.921635  -1.348208   0.000324   0.255854   0.001266
 644   9   6.200733   5.329128  -0.593266  -0.000305   0.511747  -0.000596
 645   9   5.897906   3.952993  -0.870404  -0.000194   0.511747  -0.000379
 646  12   4.358565   1.860236   8.008430  -0.000021   0.283559  -0.000074
 647  12   3.473012   1.183419   7.428260   0.000079   0.567185   0.000139
 648  10   3.112184   2.847751   7.713844  -0.000522   0.567185  -0.000920
 649  10   2.280363   2.200405   7.029812   0.000097   0.283559   0.000344
 650  17   5.239502  10.151745   3.874648  -0.000275   0.199028  -0.001380
 651  17   4.816765  10.151079   4.924713  -0.001921   0.398442  -0.004821
 652  17   4.671291   9.539335   6.156729  -0.002018   0.398442  -0.005065
 653  11   4.097186   9.620820   3.879973  -0.001836   0.398442  -0.004608
 654  11   3.711904   9.375394   5.185569  -0.001804   0.398442  -0.004528
 655  11   3.723243   8.711655   6.102447  -0.000279   0.199028  -0.001404
 656  22   0.425884   8.128833   3.209763   0.000220   0.095037   0.002312
 657  11   1.668844   8.581402   3.792247   0.000213   0.095037   0.002236
 658  20   9.399816   0.533884   7.448033   0.000320   0.336029   0.000953
 659  12   7.746796   0.019672   7.580075   0.000719   0.336029   0.002139
 660  21   2.320391   0.782505   0.100042  -0.000032   0.231747  -0.000138
 661  21   1.587207   0.241495   0.789641  -0.001385   0.463636  -0.002987
 662  21   0.974396   0.148716   2.038271  -0.001565   0.463636  -0.003375
 663  21   0.849458   0.559807   3.097134  -0.000317   0.231747  -0.001369
 664  13   3.052961  -0.264442   0.780619  -0.001413   0.463636  -0.003048
 665  13   2.238930  -0.720822   1.816135  -0.001790   0.463636  -0.003861
 666  13   1.896122  -0.439586   3.137729  -0.000995   0.463636  -0.002145
 667  18  10.678667   1.522400   1.326307   0.000724   0.334924   0.002160
 668  14   9.363765   0.408198   1.472398   0.000298   0.334924   0.000891
 669  20  10.304184  -0.904626   5.587101  -0.000743   0.249884  -0.002974
 670  20  10.875578  -0.685003   4.425371  -0.001685   0.500662  -0.003367
 671  14   9.561103  -1.403925   4.556641  -0.001720   0.500662  -0.003435
 672  14  10.071256  -1.072704   3.392864  -0.000872   0.249884  -0.003489
 673  19  13.448880   6.847244   5.311165   0.000207   0.264490   0.000784
 674  19  13.307113   6.816014   6.558941  -0.001008   0.529311  -0.001904
 675  19  12.397832   6.378714   7.699221  -0.000823   0.529311  -0.001554
 676  15  12.765474   8.113240   5.750513  -0.000619   0.529311  -0.001169
 677  15  12.286320   7.911470   7.181584  -0.001089   0.529311  -0.002058
 678  15  11.365113   7.453432   7.902414  -0.000023   0.264490  -0.000089
 679  18  10.839907   5.314473   0.744018   0.000025   0.263714   0.000096
 680  18  11.703367   5.800139   1.274508   0.000150   0.527120   0.000284
 681  16  10.392506   6.945412   0.888051  -0.000112   0.527120  -0.000212
 682  16  11.212141   7.408888   1.501438   0.000452   0.263714   0.001714
 683  23   4.460753   7.390282  -0.126013   0.000450   0.277813   0.001619
 684  23   4.837199   6.911963  -0.495340   0.000291   0.277813   0.001049
 685  16   6.947262   8.173964   0.707220   0.000719   0.553149   0.001301
 =====================================================

              4810692  WORDS OF DYNAMIC MEMORY USED
 EXECUTION OF GAMESS TERMINATED NORMALLY Wed Nov 23 05:24:29 2016
 DDI: 263640 bytes (0.3 MB / 0 MWords) used by master data server.

 ----------------------------------------
 CPU timing information for all processes
 ========================================
 0: 3265.288 + 1.72 = 3266.360
 ----------------------------------------
 ddikick.x: exited gracefully.
