----- GAMESS execution script -----

          ******************************************************
          *         GAMESS VERSION =  5 DEC 2014 (R1)          *
          *             FROM IOWA STATE UNIVERSITY             *
          * M.W.SCHMIDT, K.K.BALDRIDGE, J.A.BOATZ, S.T.ELBERT, *
          *   M.S.GORDON, J.H.JENSEN, S.KOSEKI, N.MATSUNAGA,   *
          *          K.A.NGUYEN, S.J.SU, T.L.WINDUS,           *
          *       TOGETHER WITH M.DUPUIS, J.A.MONTGOMERY       *
          *         J.COMPUT.CHEM.  14, 1347-1363(1993)        *
          **************** 64 BIT LINUX VERSION ****************

 EXECUTION OF GAMESS BEGUN Wed Nov 23 03:22:32 2016

            ECHO OF THE FIRST FEW INPUT CARDS -
 INPUT CARD>! SELECT RESTRICTED HARTREE-FOCK AS DEFAULT                                     
 INPUT CARD>$contrl scftyp=rhf $end                                                         
 INPUT CARD>                                                                                
 INPUT CARD>! THEORY: HF OR DFT                                                             
 INPUT CARD> $contrl mplevl=0 $end                                                          
 INPUT CARD>                                                                                
 INPUT CARD> $system timlim=10000 mwords=20 $end                                            
 INPUT CARD> $SCF DIRSCF=.TRUE. $end                                                        
 INPUT CARD>                                                                                
 INPUT CARD>                                                                                
 INPUT CARD>! BASIS SETS                                                                    
 INPUT CARD>! 6-311G(d,p)                                                                   
 INPUT CARD> $BASIS GBASIS=N311 NGAUSS=6 NDFUNC=1 NPFUNC=1 $END                             
 INPUT CARD>                                                                                
 INPUT CARD>! One of the following                                                          
 INPUT CARD> $guess guess=HUCKEL $end                                                       
 INPUT CARD>                                                                                
 INPUT CARD> $statpt projct=.FALSE. $end                                                    
 INPUT CARD> $STATPT IFREEZ(1)=1,2,3 $END                                                   
 INPUT CARD>                                                                                
 INPUT CARD>! Optimize the geometry with COSMO effects                                      
 INPUT CARD> $statpt opttol=0.0005 nstep=50 $end                                            
 INPUT CARD> $contrl nzvar=1 $end                                                           
 INPUT CARD> $zmat dlc=.t. auto=.t. $end                                                    
 INPUT CARD> $contrl runtyp=OPTIMIZE maxit=200 $end                                         
 INPUT CARD>                                                                                
 INPUT CARD>! Run COSMO on perfect conductor                                                
 INPUT CARD> $COSGMS PRFCND=.TRUE. $end                                                     
 INPUT CARD>                                                                                
 INPUT CARD>! Specifying RSOLV                                                              
 INPUT CARD> $COSGMS COSRAD = 1.4 $end                                                      
 INPUT CARD>                                                                                
 INPUT CARD>! available memory                                                              
 INPUT CARD> $SYSTEM MWORDS=40 $END                                                         
 INPUT CARD>                                                                                
 INPUT CARD> $DATA                                                                          
 INPUT CARD>http://cactus.nci.nih.gov/chemical/structure/2,3-DIMETHYL-2-PENTANOL/file?format
 INPUT CARD>C1                                                                              
 INPUT CARD>C      6.0      1.1475000000    0.0143000000   -1.4833000000                    
 INPUT CARD>C      6.0      0.9732000000    0.1391000000    0.0316000000                    
 INPUT CARD>C      6.0      1.2330000000    1.5855000000    0.4575000000                    
 INPUT CARD>C      6.0     -0.4540000000   -0.2569000000    0.4151000000                    
 INPUT CARD>C      6.0     -1.4472000000    0.6687000000   -0.2904000000                    
 INPUT CARD>C      6.0     -2.8659000000    0.3544000000    0.1884000000                    
 INPUT CARD>C      6.0     -0.7138000000   -1.7033000000   -0.0107000000                    
 INPUT CARD>O      8.0      1.9008000000   -0.7254000000    0.6906000000                    
 INPUT CARD>H      1.0      2.1643000000    0.2965000000   -1.7565000000                    
 INPUT CARD>H      1.0      0.9624000000   -1.0161000000   -1.7867000000                    
 INPUT CARD>H      1.0      0.4399000000    0.6738000000   -1.9859000000                    
 INPUT CARD>H      1.0      0.5255000000    2.2449000000   -0.0452000000                    
   40000000 WORDS OF MEMORY AVAILABLE

     BASIS OPTIONS
     -------------
     GBASIS=N311         IGAUSS=       6      POLAR=POPN311 
     NDFUNC=       1     NFFUNC=       0     DIFFSP=       F
     NPFUNC=       1      DIFFS=       F     BASNAM=        


     RUN TITLE
     ---------
 http://cactus.nci.nih.gov/chemical/structure/2,3-DIMETHYL-2-PENTANOL/file?format

 THE POINT GROUP OF THE MOLECULE IS C1      
 THE ORDER OF THE PRINCIPAL AXIS IS     0

 ATOM      ATOMIC                      COORDINATES (BOHR)
           CHARGE         X                   Y                   Z
 C           6.0     2.1684605709        0.0270230816       -2.8030305576
 C           6.0     1.8390813313        0.2628608849        0.0597153412
 C           6.0     2.3300321429        2.9961605535        0.8645496394
 C           6.0    -0.8579355984       -0.4854706062        0.7844252575
 C           6.0    -2.7348114494        1.2636597680       -0.5487764268
 C           6.0    -5.4157657082        0.6697188900        0.3560243761
 C           6.0    -1.3488864100       -3.2187702749       -0.0202200681
 O           8.0     3.5919911575       -1.3708072315        1.3050447671
 H           1.0     4.0899339552        0.5603037554       -3.3193036974
 H           1.0     1.8186722906       -1.9201505761       -3.3763734223
 H           1.0     0.8312904620        1.2732973705       -3.7528068390
 H           1.0     0.9930510065        4.2422458698       -0.0854156146
 H           1.0     2.0955171478        3.1641571938        2.9039419253
 H           1.0     4.2515055272        3.5292522547        0.3480875269
 H           1.0    -1.0926395661       -0.3174739659        2.8240065161
 H           1.0    -2.2795764590        3.2234945899       -0.1075254087
 H           1.0    -2.6170815204        0.9730199111       -2.5845782334
 H           1.0    -5.8710006987       -1.2901159318       -0.0852266420
 H           1.0    -5.5334956372        0.9603587470        2.3918261827
 H           1.0    -6.7529358171        1.9158042064       -0.5939408779
 H           1.0    -0.0119052737       -4.4648555912        0.9297451860
 H           1.0    -3.2703597944       -3.7518619760        0.4960530718
 H           1.0    -1.1143714150       -3.3867669152       -2.0596123540
 H           1.0     5.3430112577       -1.0049562803        0.9318238845

          INTERNUCLEAR DISTANCES (ANGS.)




     $CONTRL OPTIONS
     ---------------
 SCFTYP=RHF          RUNTYP=OPTIMIZE     EXETYP=RUN     
 MPLEVL=       0     CITYP =NONE         CCTYP =NONE         VBTYP =NONE    
 DFTTYP=NONE         TDDFT =NONE    
 MULT  =       1     ICHARG=       0     NZVAR =       1     COORD =UNIQUE  
 PP    =NONE         RELWFN=NONE         LOCAL =NONE         NUMGRD=       F
 ISPHER=      -1     NOSYM =       0     MAXIT =     200     UNITS =ANGS    
 PLTORB=       F     MOLPLT=       F     AIMPAC=       F     FRIEND=        
 NPRINT=       7     IREST =       0     GEOM  =INPUT   
 NORMF =       0     NORMP =       0     ITOL  =      20     ICUT  =       9
 INTTYP=BEST         GRDTYP=BEST         QMTTOL= 1.0E-06

     $SYSTEM OPTIONS
     ---------------
  REPLICATED MEMORY=    40000000 WORDS (ON EVERY NODE).
 DISTRIBUTED MEMDDI=           0 MILLION WORDS IN AGGREGATE,
 MEMDDI DISTRIBUTED OVER   1 PROCESSORS IS           0 WORDS/PROCESSOR.
 TOTAL MEMORY REQUESTED ON EACH PROCESSOR=    40000000 WORDS.
 TIMLIM=       10000.00 MINUTES, OR       6.9 DAYS.
 PARALL= F  BALTYP=  DLB     KDIAG=    0  COREFL= F
 MXSEQ2=     300 MXSEQ3=     150  mem10=         0

     $COSGMS OPTIONS
     ---------------
     EPSI  =   INFTY     NSPA  =      92     COSRAD=    1.40
     DISEX =   10.00     OUTCHG=DBLCAV       COSBUG=       F
     COSWRT=       F     DCOSMO=       F

     SYMMETRY COORDINATES WILL NOT BE USED FOR 
     THE COSMO CALCULATION, EVEN IF SPECIFIED:
         -- SWITCHING TO C1 POINT GROUP --


     DEFINITION OF CAVITY
     ---------------------------
     ATOM         COORDINATES           RADIUS 
     1    2.1685    0.0270   -2.8030    2.0000
     2    1.8391    0.2629    0.0597    2.0000
     3    2.3300    2.9962    0.8645    2.0000
     4   -0.8579   -0.4855    0.7844    2.0000
     5   -2.7348    1.2637   -0.5488    2.0000
     6   -5.4158    0.6697    0.3560    2.0000
     7   -1.3489   -3.2188   -0.0202    2.0000
     8    3.5920   -1.3708    1.3050    1.7200
     9    4.0899    0.5603   -3.3193    1.3000
    10    1.8187   -1.9202   -3.3764    1.3000
    11    0.8313    1.2733   -3.7528    1.3000
    12    0.9931    4.2422   -0.0854    1.3000
    13    2.0955    3.1642    2.9039    1.3000
    14    4.2515    3.5293    0.3481    1.3000
    15   -1.0926   -0.3175    2.8240    1.3000
    16   -2.2796    3.2235   -0.1075    1.3000
    17   -2.6171    0.9730   -2.5846    1.3000
    18   -5.8710   -1.2901   -0.0852    1.3000
    19   -5.5335    0.9604    2.3918    1.3000
    20   -6.7529    1.9158   -0.5939    1.3000
    21   -0.0119   -4.4649    0.9297    1.3000
    22   -3.2704   -3.7519    0.4961    1.3000
    23   -1.1144   -3.3868   -2.0596    1.3000
    24    5.3430   -1.0050    0.9318    1.3000

          ----------------
          PROPERTIES INPUT
          ----------------

     MOMENTS            FIELD           POTENTIAL          DENSITY
 IEMOM =       1   IEFLD =       0   IEPOT =       0   IEDEN =       0
 WHERE =COMASS     WHERE =NUCLEI     WHERE =NUCLEI     WHERE =NUCLEI  
 OUTPUT=BOTH       OUTPUT=BOTH       OUTPUT=BOTH       OUTPUT=BOTH    
 IEMINT=       0   IEFINT=       0                     IEDINT=       0
                                                       MORB  =       0
          EXTRAPOLATION IN EFFECT
          SOSCF IN EFFECT
 ORBITAL PRINTING OPTION: NPREO=     1   248     2     1

     -------------------------------
     INTEGRAL TRANSFORMATION OPTIONS
     -------------------------------
     NWORD  =            0
     CUTOFF = 1.0E-09     MPTRAN =       0
     DIRTRF =       T     AOINTS =DUP     

          ----------------------
          INTEGRAL INPUT OPTIONS
          ----------------------
 NOPK  =       1 NORDER=       0 SCHWRZ=       T


 -----------------------------------------------
  STATISTICS ON AUTOMATIC COORDINATE GENERATION 
 -----------------------------------------------
  NUMBER OF USER SPECIFIED BONDS                             0
  NUMBER OF BONDS                                           23
  NUMBER OF ANGLES                                          43
  NUMBER OF TORSIONS                                        57
  NUMBER OF EXTRA COORD.                                     0
  NUMBER OF EXTRA COORD. FOR CONSTRAINTS                     0
  NUMBER OF CONSTRAINED COORD.                               0

  TOTAL NUMBER OF PRIMITIVES                               123
 -----------------------------------------------

   --- ENCODED Z MATRIX ---
 COORD  TYPE   I   J   K   L   M   N
    1      1    1   9
    2      1    1  11
    3      1    1   2
    4      1    1  10
    5      1    2   8
    6      1    2   3
    7      1    2   4
    8      1    3  14
    9      1    3  13
   10      1    3  12
   11      1    4  15
   12      1    4   7
   13      1    4   5
   14      1    5  16
   15      1    5   6
   16      1    5  17
   17      1    6  20
   18      1    6  19
   19      1    6  18
   20      1    7  23
   21      1    7  22
   22      1    7  21
   23      1    8  24
   24      2    1   2   8
   25      2    1   2   4
   26      2    1   2   3
   27      2    2   4  15
   28      2    2   8  24
   29      2    2   1  11
   30      2    2   3  12
   31      2    2   3  13
   32      2    2   4   5
   33      2    2   1   9
   34      2    2   3  14
   35      2    2   1  10
   36      2    2   4   7
   37      2    3   2   8
   38      2    3   2   4
   39      2    4   5   6
   40      2    4   5  16
   41      2    4   7  21
   42      2    4   7  23
   43      2    4   2   8
   44      2    4   7  22
   45      2    4   5  17
   46      2    5   4   7
   47      2    5   4  15
   48      2    5   6  20
   49      2    5   6  18
   50      2    5   6  19
   51      2    6   5  17
   52      2    6   5  16
   53      2    7   4  15
   54      2    9   1  10
   55      2    9   1  11
   56      2   10   1  11
   57      2   12   3  13
   58      2   12   3  14
   59      2   13   3  14
   60      2   16   5  17
   61      2   18   6  19
   62      2   18   6  20
   63      2   19   6  20
   64      2   21   7  22
   65      2   21   7  23
   66      2   22   7  23
   67      3    1   2   3  13
   68      3    1   2   3  14
   69      3    1   2   4   5
   70      3    1   2   4   7
   71      3    1   2   4  15
   72      3    1   2   8  24
   73      3    1   2   3  12
   74      3    2   4   7  21
   75      3    2   4   7  22
   76      3    2   4   7  23
   77      3    2   4   5  17
   78      3    2   4   5   6
   79      3    2   4   5  16
   80      3    3   2   1  10
   81      3    3   2   4   7
   82      3    3   2   1  11
   83      3    3   2   1   9
   84      3    3   2   8  24
   85      3    3   2   4  15
   86      3    3   2   4   5
   87      3    4   2   3  13
   88      3    4   2   1  10
   89      3    4   2   3  12
   90      3    4   2   1  11
   91      3    4   2   8  24
   92      3    4   2   3  14
   93      3    4   2   1   9
   94      3    4   5   6  18
   95      3    4   5   6  19
   96      3    4   5   6  20
   97      3    5   4   7  22
   98      3    5   4   7  23
   99      3    5   4   7  21
  100      3    5   4   2   8
  101      3    6   5   4   7
  102      3    6   5   4  15
  103      3    7   4   2   8
  104      3    7   4   5  17
  105      3    7   4   5  16
  106      3    8   2   3  13
  107      3    8   2   3  12
  108      3    8   2   1   9
  109      3    8   2   1  10
  110      3    8   2   3  14
  111      3    8   2   1  11
  112      3    8   2   4  15
  113      3   15   4   5  17
  114      3   15   4   7  22
  115      3   15   4   7  23
  116      3   15   4   7  21
  117      3   15   4   5  16
  118      3   16   5   6  19
  119      3   16   5   6  18
  120      3   16   5   6  20
  121      3   17   5   6  19
  122      3   17   5   6  18
  123      3   17   5   6  20

          INDEP./SYM. INTERNAL COORDINATES
          --------------------------------
 CRD  1=  -0.1263 (  7)  0.1080 ( 27) -0.4467 ( 32)  0.1318 ( 36) -0.1258 ( 38)
           0.4648 ( 39) -0.1651 ( 40)  0.1400 ( 43) -0.1420 ( 45)  0.2586 ( 46)
          -0.1072 ( 48) -0.1077 ( 51) -0.1267 ( 52) -0.1442 ( 53)  0.1453 ( 74)
           0.1293 ( 75)  0.1527 ( 76) -0.1003 ( 90) -0.1787 ( 97) -0.1553 ( 98)
          -0.1627 ( 99)
 CRD  2=  -0.1122 ( 13) -0.1571 ( 24)  0.3390 ( 25) -0.1255 ( 27) -0.1073 ( 32)
           0.3305 ( 36)  0.1544 ( 37) -0.3538 ( 38) -0.2043 ( 39)  0.1216 ( 51)
           0.1024 ( 68) -0.1112 ( 72)  0.1180 ( 73)  0.1992 ( 77)  0.2547 ( 78)
           0.1770 ( 79)  0.1241 ( 82)  0.1016 ( 83) -0.1018 ( 84) -0.1313 ( 87)
          -0.1594 ( 88) -0.1055 ( 90)  0.2223 ( 91) -0.1280 ( 93) -0.1013 (105)
 CRD  3=   0.1690 (  7)  0.2384 ( 13)  0.2075 ( 15)  0.2764 ( 25) -0.1300 ( 26)
           0.1736 ( 32) -0.2675 ( 36)  0.1249 ( 37)  0.3482 ( 39) -0.1080 ( 40)
          -0.1238 ( 43)  0.1030 ( 44)  0.1991 ( 46) -0.1607 ( 47)  0.1367 ( 49)
          -0.1795 ( 52)  0.1117 ( 68) -0.1328 ( 69) -0.1195 ( 72) -0.1298 ( 74)
          -0.1202 ( 75) -0.1629 ( 86) -0.1246 ( 87) -0.1255 ( 89) -0.1070 ( 92)
          -0.1258 (100)  0.1685 (101)
 CRD  4=  -0.4139 (  7) -0.1266 ( 15)  0.2036 ( 26) -0.1142 ( 35) -0.2843 ( 36)
          -0.1566 ( 38) -0.2742 ( 39)  0.1033 ( 44)  0.1225 ( 45)  0.2638 ( 46)
          -0.1635 ( 47)  0.1229 ( 51) -0.2637 ( 69) -0.1125 ( 70) -0.1249 ( 71)
           0.1149 ( 72)  0.1161 ( 83) -0.1172 ( 84) -0.1573 ( 86) -0.1581 (100)
           0.1900 (101)  0.1323 (104)  0.1020 (105)
 CRD  5=   0.1655 (  7) -0.1120 ( 12)  0.1707 ( 13)  0.1611 ( 15) -0.2014 ( 24)
          -0.1176 ( 25)  0.3928 ( 26) -0.1416 ( 28)  0.1190 ( 29) -0.1324 ( 31)
           0.1797 ( 32)  0.1005 ( 34) -0.1484 ( 35) -0.1440 ( 37) -0.1903 ( 38)
           0.1525 ( 39)  0.2605 ( 43) -0.2113 ( 46)  0.1005 ( 53) -0.1001 ( 69)
          -0.2449 ( 70) -0.1694 ( 71)  0.1239 ( 72) -0.1456 ( 84)  0.1232 ( 85)
           0.1925 ( 86) -0.1058 ( 90)  0.1011 (108) -0.1004 (110)
 CRD  6=  -0.1788 (  3)  0.1439 (  6)  0.1862 (  7)  0.1925 ( 12) -0.1102 ( 13)
          -0.1018 ( 30)  0.2353 ( 31) -0.1437 ( 35)  0.1041 ( 38) -0.1209 ( 40)
           0.2296 ( 41) -0.2191 ( 69) -0.2729 ( 70) -0.1151 ( 71)  0.1090 ( 75)
          -0.3456 ( 81)  0.1135 ( 84) -0.1877 ( 85) -0.2917 ( 86)  0.1203 ( 92)
          -0.1595 (100) -0.2134 (103) -0.1127 (107) -0.1032 (115)
 CRD  7=  -0.1210 (  3)  0.1491 (  6)  0.3198 ( 12)  0.1285 ( 24) -0.1296 ( 25)
          -0.1152 ( 27)  0.1085 ( 30) -0.1272 ( 37)  0.1209 ( 38)  0.1163 ( 40)
           0.1572 ( 44)  0.2368 ( 49) -0.2550 ( 50)  0.2047 ( 51) -0.2059 ( 52)
           0.1580 ( 77)  0.3420 ( 78)  0.1539 ( 79)  0.3035 (101)  0.2217 (102)
           0.1195 (104)  0.1154 (105)
 CRD  8=   0.1651 (  3)  0.1884 (  6)  0.2580 (  7)  0.3131 ( 12)  0.1554 ( 13)
          -0.1428 ( 28)  0.1191 ( 29)  0.1944 ( 30) -0.1392 ( 37) -0.2076 ( 39)
           0.2749 ( 42)  0.1979 ( 45)  0.2463 ( 46)  0.1051 ( 48) -0.1028 ( 49)
           0.1045 ( 52) -0.1525 ( 53) -0.1145 ( 66) -0.1646 ( 69)  0.2241 ( 81)
          -0.1240 ( 95) -0.1350 (100) -0.1146 (101)  0.1193 (103) -0.1275 (105)
 CRD  9=   0.3887 (  3)  0.2092 (  5)  0.4602 (  6) -0.1360 ( 13)  0.3895 ( 28)
           0.2062 ( 33)  0.2338 ( 34) -0.1614 ( 43) -0.1076 ( 54) -0.1199 ( 55)
          -0.1086 ( 57) -0.1349 ( 58) -0.1327 ( 59)  0.1225 (107) -0.1053 (108)
           0.1014 (110) -0.1394 (111)
 CRD 10=   0.1311 (  3) -0.3421 (  5)  0.1460 (  6) -0.1223 (  7) -0.3979 ( 13)
          -0.1344 ( 15) -0.1344 ( 23)  0.1079 ( 25) -0.3495 ( 28)  0.2773 ( 29)
           0.2437 ( 30) -0.1758 ( 33) -0.1413 ( 34) -0.1193 ( 42) -0.1152 ( 45)
          -0.1807 ( 48)  0.1246 ( 67) -0.1080 ( 80) -0.1013 ( 89)  0.1108 ( 90)
          -0.1127 ( 92)  0.1253 ( 93)
 CRD 11=   0.4240 (  3) -0.3443 (  6) -0.1308 ( 13)  0.2199 ( 24)  0.2164 ( 33)
          -0.2009 ( 34)  0.1213 ( 35) -0.2227 ( 37) -0.1085 ( 42) -0.1374 ( 54)
          -0.1234 ( 55)  0.1091 ( 58)  0.1073 ( 59)  0.1176 ( 72)  0.1296 ( 84)
           0.1924 ( 91) -0.2686 (100) -0.2577 (103) -0.1912 (112)
 CRD 12=  -0.2394 (  3) -0.2223 (  7) -0.1154 ( 11) -0.1823 ( 12) -0.1083 ( 13)
           0.1270 ( 15) -0.1119 ( 27)  0.1501 ( 30) -0.1283 ( 31) -0.1823 ( 35)
          -0.2162 ( 40)  0.3049 ( 42) -0.3800 ( 44)  0.1193 ( 45)  0.2369 ( 49)
           0.1749 ( 64) -0.1238 ( 75) -0.1158 ( 76) -0.1721 ( 94) -0.1502 ( 95)
          -0.1846 ( 96)
 CRD 13=  -0.1841 (  6) -0.2227 (  7)  0.3251 ( 12)  0.1774 ( 13) -0.1980 ( 15)
          -0.1205 ( 27)  0.1505 ( 29) -0.1907 ( 31) -0.1986 ( 35)  0.2686 ( 41)
          -0.1052 ( 43) -0.3175 ( 49)  0.2241 ( 50) -0.1039 ( 51)  0.1050 ( 59)
           0.1487 ( 62) -0.1596 ( 65) -0.1072 ( 74) -0.1285 ( 76)  0.1400 ( 96)
          -0.1205 (102)
 CRD 14=  -0.2235 (  5) -0.2164 (  7)  0.1234 ( 12)  0.5150 ( 15) -0.1275 ( 23)
          -0.2236 ( 28)  0.1943 ( 41) -0.1498 ( 44) -0.1469 ( 45)  0.3481 ( 48)
           0.1919 ( 50)  0.1493 ( 51) -0.1421 ( 62) -0.2381 ( 63) -0.1166 ( 65)
           0.1015 (105)
 CRD 15=  -0.1865 (  5)  0.1564 (  7)  0.1125 ( 12) -0.2443 ( 13) -0.2013 ( 28)
          -0.2449 ( 29) -0.2368 ( 30) -0.1649 ( 31)  0.3226 ( 33)  0.3396 ( 34)
          -0.1308 ( 35) -0.2386 ( 41)  0.1615 ( 42)  0.1826 ( 44) -0.2587 ( 48)
           0.2091 ( 50)  0.1447 ( 56)  0.1541 ( 57)  0.1025 ( 62) -0.1432 ( 66)
 CRD 16=   0.1130 (  3) -0.2111 (  5)  0.1446 (  6) -0.1218 (  7)  0.2460 ( 13)
          -0.2738 ( 15) -0.1017 ( 23) -0.2877 ( 28) -0.2585 ( 29) -0.2140 ( 30)
           0.2948 ( 31)  0.2995 ( 35)  0.1740 ( 41) -0.2316 ( 44)  0.1190 ( 45)
          -0.1197 ( 48) -0.1252 ( 50) -0.1349 ( 51) -0.1501 ( 54) -0.1472 ( 59)
           0.1099 ( 63)
 CRD 17=   0.1272 (  3) -0.1020 (  6)  0.1326 (  9)  0.3135 ( 29) -0.3152 ( 30)
           0.4446 ( 31)  0.1303 ( 33) -0.2278 ( 34) -0.3213 ( 35)  0.1008 ( 40)
          -0.1655 ( 41)  0.3087 ( 42) -0.1237 ( 44) -0.1830 ( 55)  0.2218 ( 58)
           0.1072 ( 64)
 CRD 18=   0.1205 (  4)  0.1513 (  5) -0.1077 ( 13)  0.1051 ( 18)  0.1162 ( 20)
           0.1135 ( 23) -0.1369 ( 29)  0.1263 ( 30)  0.1290 ( 31) -0.2509 ( 33)
          -0.1754 ( 34)  0.3704 ( 35) -0.2432 ( 41)  0.3070 ( 42)  0.1143 ( 43)
          -0.1894 ( 48) -0.1229 ( 49)  0.3509 ( 50)  0.1613 ( 55) -0.1078 ( 57)
           0.1246 ( 62)  0.1112 ( 64) -0.1289 ( 66)
 CRD 19=  -0.1490 (  1)  0.1200 (  2)  0.1422 (  8) -0.1092 ( 10)  0.3535 ( 29)
          -0.3311 ( 30) -0.1447 ( 31) -0.4539 ( 33)  0.4327 ( 34)  0.1373 ( 35)
           0.1013 ( 49)  0.1340 ( 54) -0.2070 ( 56)  0.2010 ( 57) -0.1204 ( 59)
 CRD 20=  -0.1037 ( 17)  0.1090 ( 22)  0.1864 ( 27)  0.1537 ( 30) -0.1292 ( 31)
          -0.1050 ( 36) -0.1230 ( 39)  0.1726 ( 40)  0.3468 ( 41) -0.3270 ( 44)
          -0.1230 ( 47) -0.3359 ( 48)  0.2695 ( 49)  0.1049 ( 51) -0.1477 ( 61)
          -0.1616 ( 65)  0.1185 ( 66)  0.1643 ( 74)  0.1541 ( 75)  0.1244 ( 76)
          -0.1294 ( 79)  0.1204 ( 97)  0.1306 ( 99)  0.1024 (112)
 CRD 21=   0.1370 (  7) -0.1379 ( 13) -0.1837 ( 15) -0.1846 ( 16)  0.1233 ( 17)
           0.1045 ( 20)  0.1006 ( 27) -0.1711 ( 31)  0.1527 ( 39)  0.2615 ( 42)
          -0.2554 ( 44) -0.2272 ( 45)  0.3375 ( 48) -0.2178 ( 49) -0.3161 ( 50)
          -0.1796 ( 52)  0.1041 ( 60)  0.2369 ( 61)  0.1488 ( 64) -0.1112 ( 79)
           0.1233 ( 94)
 CRD 22=  -0.1070 (  7)  0.1333 ( 11)  0.2167 ( 12)  0.2498 ( 14) -0.1434 ( 16)
          -0.1594 ( 18)  0.1758 ( 19)  0.1455 ( 35)  0.1459 ( 42)  0.1777 ( 44)
           0.4037 ( 49) -0.2870 ( 50) -0.1894 ( 62)  0.1620 ( 63) -0.1608 ( 66)
          -0.1236 ( 77) -0.1993 ( 78) -0.1079 ( 97) -0.1067 ( 98) -0.1049 ( 99)
          -0.1568 (101) -0.2049 (102) -0.1292 (113)
 CRD 23=  -0.2258 ( 12)  0.2972 ( 13)  0.1357 ( 14)  0.1297 ( 16) -0.1217 ( 23)
          -0.1314 ( 32) -0.1268 ( 39)  0.2707 ( 40) -0.1885 ( 41) -0.1031 ( 45)
           0.1350 ( 47)  0.1108 ( 50)  0.2084 ( 51) -0.1586 ( 52) -0.1787 ( 53)
           0.1468 ( 65) -0.1851 ( 71) -0.1163 ( 80) -0.1180 ( 82) -0.1004 ( 83)
          -0.1956 ( 85)  0.1021 ( 94)  0.1057 ( 95) -0.1232 ( 97) -0.1191 ( 98)
          -0.1082 ( 99) -0.1241 (104) -0.1156 (105) -0.2033 (112)
 CRD 24=  -0.1071 (  2) -0.1343 (  5)  0.4408 ( 11)  0.1576 ( 13)  0.1508 ( 16)
           0.1279 ( 20) -0.2394 ( 23) -0.1039 ( 41)  0.1371 ( 42)  0.1468 ( 45)
           0.1878 ( 67)  0.1856 ( 68)  0.1778 ( 73)  0.1047 ( 74)  0.1403 ( 75)
           0.1209 ( 76) -0.1177 ( 81)  0.1787 ( 87)  0.1688 ( 89)  0.1766 ( 92)
           0.1309 (104)  0.1147 (105)  0.1798 (106)  0.1699 (107)  0.1777 (110)
 CRD 25=   0.1207 (  5) -0.1160 (  8)  0.1201 ( 10)  0.1183 ( 11)  0.2063 ( 16)
           0.1522 ( 23) -0.1196 ( 28)  0.2608 ( 80)  0.2682 ( 82)  0.2706 ( 83)
           0.1044 ( 84)  0.2526 ( 88)  0.2600 ( 90)  0.1076 ( 92)  0.2624 ( 93)
           0.2724 (108)  0.2626 (109)  0.1005 (110)  0.2700 (111)
 CRD 26=  -0.1816 (  1) -0.1342 (  4)  0.1566 (  5)  0.4751 ( 11)  0.1601 ( 16)
           0.1620 ( 23) -0.1991 ( 28)  0.1136 ( 29) -0.2304 ( 67) -0.2195 ( 68)
          -0.2307 ( 73) -0.2014 ( 87) -0.2017 ( 89) -0.1906 ( 92) -0.2311 (106)
          -0.2313 (107) -0.2202 (110)
 CRD 27=  -0.1083 (  2)  0.4210 (  8)  0.4324 (  9)  0.3980 ( 10) -0.1536 ( 14)
           0.1803 ( 16) -0.1601 ( 20) -0.1193 ( 21) -0.1326 ( 22) -0.1890 ( 30)
          -0.1667 ( 31) -0.1725 ( 34)  0.1787 ( 57)  0.1838 ( 58)  0.1657 ( 59)
 CRD 28=  -0.4541 (  1) -0.4643 (  2) -0.1431 (  3) -0.4685 (  4) -0.2594 ( 11)
          -0.1159 ( 16)  0.1814 ( 29)  0.1743 ( 33)  0.1651 ( 35) -0.1695 ( 54)
          -0.1793 ( 55) -0.1719 ( 56)
 CRD 29=  -0.1965 (  8) -0.2065 (  9) -0.2081 ( 10) -0.1544 ( 12) -0.1081 ( 14)
           0.1034 ( 16) -0.4670 ( 20) -0.4242 ( 21) -0.4412 ( 22)  0.1609 ( 41)
           0.1522 ( 42)  0.1620 ( 44) -0.1653 ( 64) -0.1533 ( 65) -0.1565 ( 66)
 CRD 30=  -0.1787 ( 15) -0.4824 ( 17) -0.5023 ( 18) -0.5054 ( 19)  0.1850 ( 48)
           0.1681 ( 49)  0.1693 ( 50) -0.1658 ( 61) -0.1778 ( 62) -0.1788 ( 63)
 CRD 31=  -0.1286 (  2) -0.1208 (  5) -0.1335 (  6)  0.1114 (  7) -0.1247 (  8)
          -0.2906 ( 10)  0.1646 ( 11)  0.1345 ( 12) -0.1731 ( 13) -0.2146 ( 14)
           0.2424 ( 16)  0.1427 ( 20)  0.1709 ( 21)  0.1839 ( 22)  0.2534 ( 28)
           0.1526 ( 51) -0.1356 ( 74) -0.1409 ( 75) -0.1225 ( 76) -0.1460 ( 77)
           0.1219 ( 85) -0.1535 ( 97) -0.1351 ( 98) -0.1481 ( 99) -0.1402 (113)
          -0.1640 (114) -0.1457 (115) -0.1587 (116)
 CRD 32=  -0.1200 (  2)  0.1971 (  7)  0.1063 (  8) -0.1151 ( 12)  0.3254 ( 14)
          -0.2141 ( 21) -0.1189 ( 44)  0.1157 ( 46)  0.2222 ( 52) -0.1275 ( 74)
          -0.1300 ( 75)  0.1205 ( 77)  0.1730 ( 79)  0.1092 ( 94)  0.1097 ( 95)
           0.1029 ( 96) -0.1863 ( 97) -0.1532 ( 98) -0.1838 ( 99)  0.1830 (104)
           0.2355 (105)  0.1723 (113) -0.1591 (114) -0.1259 (115) -0.1566 (116)
           0.2248 (117)  0.1304 (118)  0.1299 (119)  0.1235 (120)
 CRD 33=   0.1900 ( 14)  0.1954 ( 16) -0.5990 ( 17)  0.2989 ( 18)  0.2579 ( 19)
           0.3191 ( 61) -0.1644 ( 62) -0.1432 ( 63) -0.1727 ( 94)  0.1519 ( 95)
           0.1717 (118) -0.1529 (119)  0.1340 (121) -0.1906 (122)
 CRD 34=   0.3371 (  1) -0.3748 (  4) -0.3579 (  8)  0.3954 (  9)  0.1315 ( 17)
           0.1418 ( 20) -0.1795 ( 22)  0.1905 ( 55) -0.1729 ( 56)  0.1921 ( 57)
          -0.2134 ( 58) -0.1482 ( 73) -0.1383 ( 82) -0.1364 ( 89) -0.1300 ( 90)
          -0.1464 (107) -0.1353 (111)
 CRD 35=  -0.1785 (  1)  0.5221 ( 21) -0.5381 ( 22) -0.2705 ( 65)  0.2782 ( 66)
           0.1998 ( 76)  0.2028 ( 98)  0.2140 (115)
 CRD 36=   0.2105 (  1) -0.1244 (  4) -0.1846 (  9)  0.1787 ( 10)  0.4508 ( 18)
          -0.4919 ( 19) -0.1147 ( 20) -0.1135 ( 56) -0.2450 ( 62)  0.2663 ( 63)
           0.1992 ( 96)  0.1979 (120)  0.1933 (123)
 CRD 37=   0.2297 (  1)  0.1982 (  2) -0.4208 (  4)  0.2726 (  8) -0.3998 (  9)
           0.1386 ( 10) -0.2029 ( 18)  0.1965 ( 19) -0.1030 ( 54)  0.2251 ( 55)
          -0.1240 ( 56) -0.1474 ( 57)  0.2149 ( 58)  0.1098 ( 62) -0.1070 ( 63)
          -0.1050 ( 68)  0.1239 ( 73) -0.1155 ( 82)  0.1241 ( 83)  0.1263 ( 89)
          -0.1196 ( 90) -0.1026 ( 92)  0.1200 ( 93)  0.1335 (107)  0.1134 (108)
          -0.1262 (111)
 CRD 38=  -0.2045 (  1)  0.3818 (  2) -0.1740 (  4)  0.2359 (  8) -0.2837 ( 10)
           0.1996 ( 18) -0.1817 ( 19)  0.3134 ( 20) -0.2600 ( 21) -0.2033 ( 54)
           0.1143 ( 56) -0.1272 ( 57)  0.1604 ( 59) -0.1086 ( 62) -0.1695 ( 64)
           0.1424 ( 65)  0.1057 ( 74)  0.1243 ( 83) -0.1004 ( 88)  0.1155 ( 93)
           0.1121 ( 99)  0.1148 (108) -0.1010 (109)  0.1056 (116)
 CRD 39=  -0.2282 (  2)  0.1531 (  4) -0.1973 (  9)  0.2512 ( 10)  0.5075 ( 20)
          -0.2070 ( 21) -0.2834 ( 22)  0.1249 ( 54)  0.1115 ( 58) -0.1433 ( 59)
          -0.2847 ( 64)  0.1239 ( 65)  0.1560 ( 66) -0.1047 ( 68)  0.1438 ( 74)
          -0.1541 ( 75) -0.1052 ( 92) -0.1418 ( 97)  0.1561 ( 99) -0.1448 (114)
           0.1532 (116)
 CRD 40=  -0.3393 (  1)  0.3713 (  2) -0.3577 (  8)  0.4233 ( 10) -0.2142 ( 54)
           0.1898 ( 56)  0.2001 ( 57) -0.2442 ( 59)  0.1955 ( 67) -0.1841 ( 80)
           0.1668 ( 87) -0.1555 ( 88)  0.1681 (106) -0.1544 (109)
 CRD 41=   0.5553 ( 14)  0.5770 ( 16)  0.1718 ( 17) -0.1525 ( 18) -0.1364 ( 19)
           0.2327 ( 60) -0.1159 ( 79) -0.1296 (105) -0.1248 (117)  0.1330 (119)
          -0.1635 (121) -0.1149 (123)
 CRD 42=   0.4699 (  5) -0.1886 ( 11) -0.1033 ( 26) -0.4850 ( 28)  0.1053 ( 53)
          -0.1162 ( 55)  0.1638 ( 71) -0.1366 ( 74) -0.1281 ( 75) -0.1276 ( 76)
           0.1222 ( 87) -0.1310 ( 88)  0.1132 ( 89) -0.1100 ( 90)  0.1208 ( 92)
          -0.1753 ( 93) -0.1008 ( 99) -0.1220 (114) -0.1216 (115) -0.1306 (116)
 CRD 43=   0.1982 ( 11)  0.3378 ( 14) -0.3396 ( 16)  0.1228 ( 40) -0.1328 ( 45)
          -0.1720 ( 94) -0.1743 ( 95) -0.1671 ( 96) -0.2958 (118) -0.2935 (119)
          -0.2886 (120) -0.3017 (121) -0.2994 (122) -0.2944 (123)
 CRD 44=   0.1588 (  1)  0.2000 (  4) -0.1997 (  9) -0.2993 ( 11)  0.1771 ( 23)
          -0.1782 ( 31)  0.1170 ( 33)  0.1782 ( 35)  0.1194 ( 38) -0.1861 ( 54)
          -0.1118 ( 56)  0.1340 ( 57)  0.1346 ( 59) -0.1172 ( 71) -0.2395 ( 72)
           0.1232 ( 79) -0.2014 ( 84) -0.1128 ( 85) -0.3678 ( 91)  0.1105 (105)
           0.1229 (117)
 CRD 45=   0.1453 (  1) -0.1324 (  5) -0.2627 (  7)  0.2007 (  8)  0.7535 ( 23)
           0.1039 ( 33)  0.1478 ( 34) -0.1119 ( 58) -0.1428 ( 59)  0.1420 ( 67)
          -0.1369 ( 80)  0.1126 ( 84) -0.1048 (113)
 CRD 46=  -0.1378 ( 13) -0.2548 ( 15)  0.3098 ( 17)  0.2258 ( 18)  0.2059 ( 19)
           0.1371 ( 40)  0.1433 ( 45)  0.2779 ( 48)  0.2435 ( 49)  0.2469 ( 50)
          -0.1715 ( 51) -0.1707 ( 52) -0.2047 ( 61) -0.2732 ( 62) -0.2904 ( 63)
           0.1395 ( 77) -0.1175 ( 79)  0.1234 (104) -0.1337 (105)  0.1775 (113)
          -0.1107 (114) -0.1239 (115) -0.1023 (116)
 CRD 47=   0.1096 (  1)  0.2279 (  2) -0.1855 (  3) -0.2807 (  5) -0.1971 (  6)
           0.1067 (  8)  0.2172 ( 10)  0.1697 ( 12) -0.1260 ( 21) -0.1622 ( 22)
          -0.1602 ( 23)  0.1801 ( 28)  0.1663 ( 29)  0.1808 ( 30)  0.1265 ( 31)
           0.1255 ( 33)  0.1373 ( 34)  0.1266 ( 35) -0.1430 ( 41) -0.1138 ( 42)
          -0.1260 ( 44)  0.1105 ( 53) -0.2015 ( 55) -0.1562 ( 56) -0.1753 ( 57)
          -0.1821 ( 58)  0.1659 ( 64)  0.1226 ( 65)  0.1423 ( 71)  0.1139 (109)
           0.1020 (111)
 CRD 48=  -0.2016 (  6)  0.1168 (  8)  0.1008 (  9)  0.1568 ( 10) -0.1117 ( 11)
          -0.3643 ( 12)  0.2516 ( 20)  0.2111 ( 21)  0.2138 ( 22)  0.1405 ( 30)
           0.1317 ( 31)  0.1276 ( 34)  0.2328 ( 41)  0.2509 ( 42)  0.2389 ( 44)
          -0.1391 ( 57) -0.1538 ( 58) -0.1069 ( 59) -0.2201 ( 64) -0.2530 ( 65)
          -0.2494 ( 66)  0.1036 (113)  0.1066 (117)
 CRD 49=  -0.1622 (  1) -0.1558 (  2)  0.4155 (  3) -0.2194 (  4) -0.2075 (  6)
           0.1152 (  9)  0.1102 ( 10) -0.1303 ( 11) -0.1951 ( 29)  0.1108 ( 30)
          -0.2161 ( 33)  0.1116 ( 34) -0.1790 ( 35)  0.2160 ( 54)  0.1601 ( 55)
           0.2141 ( 56) -0.1395 ( 57) -0.2845 ( 72) -0.2908 ( 84) -0.2588 ( 91)
          -0.1070 (103)
 CRD 50=   0.1539 (  1) -0.1394 (  2) -0.1047 (  3)  0.3809 (  5) -0.2688 (  6)
           0.1888 (  8)  0.1319 (  9)  0.1300 ( 11) -0.1345 ( 15) -0.2350 ( 23)
           0.1059 ( 31)  0.1221 ( 34)  0.1178 ( 47) -0.1770 ( 54) -0.2131 ( 59)
           0.1187 ( 67) -0.1427 ( 71) -0.1410 ( 72) -0.1392 ( 80) -0.1343 ( 91)
           0.1184 ( 93)  0.1443 (108) -0.1011 (110)  0.1032 (111) -0.1153 (112)
           0.1035 (114)  0.1788 (115)  0.1628 (116)  0.1073 (119)
 CRD 51=   0.1256 (  3)  0.1013 (  6) -0.3103 ( 11) -0.1580 ( 14) -0.2502 ( 15)
           0.2062 ( 16)  0.1999 ( 19)  0.1476 ( 20) -0.1907 ( 21) -0.1585 ( 23)
           0.1159 ( 28)  0.1074 ( 52) -0.1099 ( 61) -0.1555 ( 62)  0.1626 ( 64)
          -0.1074 ( 65)  0.1181 ( 72)  0.1096 ( 75)  0.1101 ( 76)  0.1927 ( 84)
          -0.1032 ( 89)  0.1894 ( 91) -0.1473 ( 99) -0.1234 (102)  0.1455 (105)
          -0.1659 (107)  0.1612 (114)  0.1617 (115) -0.1215 (118) -0.1451 (121)
          -0.1088 (122)
 CRD 52=  -0.1334 (  1)  0.1080 (  2) -0.1327 (  5)  0.2000 (  7) -0.1292 (  8)
           0.1323 ( 10)  0.1835 ( 13) -0.2932 ( 15) -0.1414 ( 17)  0.1677 ( 18)
           0.1587 ( 19)  0.1662 ( 23) -0.1133 ( 28) -0.1757 ( 40) -0.1725 ( 45)
           0.1129 ( 51)  0.1085 ( 52) -0.1258 ( 56) -0.1330 ( 57)  0.1247 ( 60)
          -0.2322 ( 61)  0.1011 ( 89) -0.1028 ( 90)  0.1004 ( 94)  0.1584 (107)
          -0.1157 (108)  0.1335 (110) -0.1607 (111)  0.2478 (119)  0.1447 (120)
          -0.2384 (121) -0.1436 (123)
 CRD 53=   0.1174 (  1) -0.2229 (  4) -0.1114 (  5)  0.2914 (  6) -0.1009 (  9)
          -0.2534 ( 12)  0.1225 ( 13)  0.1721 ( 14) -0.1470 ( 15) -0.1733 ( 16)
           0.1817 ( 18) -0.1166 ( 23)  0.1483 ( 28)  0.1168 ( 43)  0.1085 ( 51)
           0.1059 ( 53) -0.1574 ( 55)  0.1122 ( 56)  0.1022 ( 57) -0.1010 ( 63)
          -0.1469 ( 72)  0.1250 ( 82)  0.1106 ( 90) -0.1085 ( 93) -0.1015 (104)
           0.1163 (109)  0.2468 (111) -0.2140 (113) -0.1535 (117)  0.1206 (118)
           0.1882 (119)  0.1218 (122)
 CRD 54=  -0.1158 (  1) -0.1028 (  2)  0.2916 (  3) -0.1704 (  6) -0.1138 (  7)
           0.2030 (  8) -0.2462 (  9)  0.1222 ( 10) -0.1163 ( 16)  0.1715 ( 18)
          -0.1158 ( 19) -0.1155 ( 24)  0.1560 ( 55)  0.1079 ( 57) -0.2461 ( 58)
           0.1337 ( 62)  0.1350 ( 68)  0.1491 ( 72) -0.1629 ( 73)  0.1680 ( 84)
          -0.1335 ( 89)  0.1644 ( 92) -0.1491 ( 96)  0.1716 (100)  0.1360 (103)
          -0.2547 (107)  0.1426 (112)  0.1355 (119) -0.1038 (123)
 CRD 55=   0.1173 (  1) -0.1387 (  4)  0.1158 (  6) -0.2303 (  7)  0.1165 ( 13)
          -0.2319 ( 14)  0.1054 ( 15) -0.1893 ( 17)  0.2259 ( 19) -0.1242 ( 20)
           0.1616 ( 21)  0.1076 ( 27) -0.1194 ( 45)  0.1017 ( 56)  0.1688 ( 60)
          -0.1173 ( 61)  0.2069 ( 63)  0.1520 ( 65) -0.1034 ( 76)  0.1350 ( 77)
          -0.1111 ( 95)  0.1447 ( 96)  0.1264 ( 99)  0.1005 (102)  0.1230 (104)
           0.1507 (111)  0.2392 (113) -0.1127 (114) -0.1785 (115)  0.1008 (117)
          -0.1264 (118)  0.1294 (120) -0.2821 (121)
 CRD 56=  -0.1762 (  9)  0.1608 ( 10)  0.1118 ( 11) -0.2114 ( 13)  0.1003 ( 17)
          -0.1381 ( 18) -0.1808 ( 20) -0.1483 ( 21)  0.3252 ( 22) -0.1189 ( 27)
          -0.1260 ( 58)  0.1386 ( 59)  0.1002 ( 61) -0.1387 ( 64) -0.1139 ( 65)
           0.2573 ( 66)  0.1336 ( 68) -0.2557 ( 75)  0.1095 ( 76)  0.2026 ( 92)
          -0.1060 ( 93) -0.1826 ( 97)  0.1826 ( 98)  0.1215 (110) -0.1088 (114)
           0.2564 (115) -0.1241 (119)
 CRD 57=   0.3033 ( 15) -0.1125 ( 16) -0.2504 ( 17)  0.1589 ( 18)  0.1464 ( 20)
          -0.2502 ( 21)  0.1150 ( 45) -0.1186 ( 50) -0.1762 ( 51) -0.1522 ( 52)
           0.1511 ( 60) -0.1293 ( 61)  0.1895 ( 62)  0.1227 ( 64) -0.1860 ( 65)
          -0.1575 ( 74)  0.1416 ( 76)  0.1120 ( 77) -0.1865 ( 79)  0.1520 ( 94)
          -0.1148 ( 95) -0.2209 ( 99) -0.2039 (105)  0.1306 (113)  0.1161 (115)
          -0.1830 (116) -0.1679 (117) -0.1028 (118)  0.1640 (119)  0.1800 (122)
 CRD 58=  -0.2743 (  1)  0.2071 (  2)  0.2593 (  8) -0.2215 ( 10) -0.1013 ( 12)
           0.1047 ( 19)  0.1249 ( 33) -0.1187 ( 34)  0.1587 ( 54) -0.2150 ( 56)
           0.2035 ( 57) -0.1699 ( 59)  0.2613 ( 67) -0.1287 ( 72)  0.2625 ( 80)
          -0.1207 ( 84)  0.2185 ( 87)  0.2285 ( 88) -0.1011 ( 89) -0.1091 ( 90)
           0.2327 (106)  0.2360 (109) -0.1016 (111)
 CRD 59=   0.2164 (  2) -0.2134 (  4) -0.1185 ( 10)  0.2520 ( 12)  0.1054 ( 17)
           0.1048 ( 18) -0.2031 ( 19) -0.1003 ( 29)  0.1016 ( 35)  0.1183 ( 49)
           0.1137 ( 52) -0.1172 ( 53)  0.1669 ( 54) -0.1654 ( 55) -0.1629 ( 63)
           0.1021 ( 67) -0.2097 ( 71) -0.1302 ( 78)  0.1049 ( 80)  0.1030 ( 82)
          -0.1614 ( 83) -0.1762 ( 85) -0.2055 ( 93)  0.1130 ( 95) -0.1536 ( 96)
          -0.2050 (108) -0.1471 (112)  0.1325 (113)  0.1482 (117)  0.1381 (118)
          -0.1284 (120) -0.2078 (123)
 CRD 60=  -0.1444 (  9)  0.1045 ( 10) -0.1399 ( 16)  0.1560 ( 17) -0.1287 ( 18)
           0.2376 ( 20) -0.1503 ( 22) -0.1130 ( 39) -0.1437 ( 42) -0.1333 ( 48)
          -0.1343 ( 53) -0.1125 ( 58)  0.1677 ( 60)  0.1311 ( 61)  0.1847 ( 64)
          -0.1135 ( 66)  0.1143 ( 68) -0.1910 ( 74)  0.1209 ( 75)  0.1724 ( 81)
           0.1002 ( 92) -0.1457 ( 94)  0.1871 ( 97) -0.1247 ( 99) -0.1673 (105)
           0.1561 (110)  0.1853 (114) -0.1266 (116)  0.2416 (118)  0.1874 (120)
          -0.2380 (122)
 CRD 61=   0.1156 (  2)  0.1360 (  7) -0.1148 (  9)  0.1268 ( 10) -0.3002 ( 13)
          -0.1274 ( 17)  0.1057 ( 21) -0.1528 ( 22)  0.1223 ( 26)  0.1212 ( 41)
           0.1011 ( 46)  0.1008 ( 47)  0.1157 ( 48) -0.1402 ( 60) -0.1147 ( 66)
           0.1608 ( 68) -0.1400 ( 71) -0.1512 ( 76)  0.1543 ( 81) -0.1460 ( 83)
          -0.1373 ( 98) -0.1313 (108)  0.1563 (110)  0.2416 (114)  0.1821 (116)
          -0.2188 (118) -0.1167 (120)  0.2208 (122)  0.1307 (123)
 CRD 62=  -0.1331 (  1)  0.1641 (  4)  0.2003 (  6) -0.1725 ( 14)  0.1060 ( 18)
          -0.1450 ( 19)  0.1195 ( 25)  0.1167 ( 33) -0.1232 ( 35) -0.1060 ( 36)
          -0.1341 ( 37)  0.1069 ( 49) -0.1259 ( 51)  0.1157 ( 55) -0.1122 ( 56)
          -0.1003 ( 63)  0.1013 ( 70) -0.2416 ( 72) -0.1517 ( 78) -0.2007 ( 82)
          -0.2146 ( 90)  0.1166 ( 94)  0.1607 ( 95) -0.1004 ( 98) -0.1267 (100)
          -0.1711 (102)  0.1601 (104)  0.2165 (108)  0.1849 (109) -0.1347 (112)
           0.1212 (116) -0.1466 (120) -0.2157 (123)
 CRD 63=   0.1953 (  3) -0.1558 (  8)  0.1495 (  9)  0.1099 ( 15) -0.1510 ( 16)
          -0.1055 ( 18) -0.1524 ( 24) -0.1112 ( 27) -0.1179 ( 31)  0.1360 ( 34)
           0.1351 ( 38)  0.1039 ( 47) -0.1277 ( 57)  0.1063 ( 58)  0.1080 ( 60)
           0.2385 ( 73) -0.1170 ( 76)  0.1127 ( 78) -0.1267 ( 82) -0.1407 ( 83)
           0.2425 ( 84)  0.1003 ( 88)  0.2117 ( 89) -0.1163 ( 94) -0.1494 ( 98)
           0.1113 (100)  0.1374 (101)  0.1267 (103)  0.1095 (104) -0.2216 (106)
           0.1135 (109) -0.2035 (110)  0.1314 (116) -0.1698 (117)  0.1656 (120)
 CRD 64=   0.1039 (  1)  0.3273 (  7) -0.1199 ( 12) -0.1107 ( 14)  0.1289 ( 15)
           0.1063 ( 21) -0.1197 ( 27) -0.1199 ( 32) -0.1026 ( 33)  0.1033 ( 37)
          -0.1434 ( 39)  0.1438 ( 53)  0.1296 ( 60) -0.1340 ( 68)  0.1199 ( 72)
          -0.1616 ( 73)  0.1504 ( 77)  0.1859 ( 82)  0.1095 ( 83)  0.1016 ( 90)
          -0.1514 ( 97) -0.1844 ( 98) -0.1814 (102)  0.2422 (104)  0.1502 (106)
          -0.1750 (109)  0.1950 (116) -0.2433 (117)
 CRD 65=  -0.1011 (  2) -0.1840 (  5)  0.1343 (  6)  0.1745 ( 12) -0.1717 ( 13)
           0.1115 ( 14)  0.1146 ( 24)  0.1087 ( 29)  0.1228 ( 32) -0.1380 ( 36)
          -0.1495 ( 38)  0.1139 ( 43)  0.1536 ( 47) -0.1083 ( 53) -0.1508 ( 68)
           0.2417 ( 69)  0.2006 ( 70) -0.1045 ( 73) -0.1176 ( 76) -0.1473 ( 77)
          -0.1301 ( 79)  0.1856 ( 83) -0.2421 ( 85)  0.1511 ( 87) -0.2304 ( 88)
          -0.1880 ( 90) -0.1155 ( 94) -0.1346 ( 95)  0.1028 (101)  0.1572 (102)
           0.1249 (108) -0.2149 (112)  0.1119 (114)  0.1162 (123)
 CRD 66=  -0.1515 (  3)  0.1116 (  5) -0.2086 ( 11)  0.1145 ( 13) -0.1401 ( 16)
           0.1459 ( 25)  0.1432 ( 27) -0.1027 ( 32)  0.1149 ( 45) -0.1310 ( 46)
           0.1149 ( 68)  0.1139 ( 69) -0.1534 ( 70)  0.2081 ( 74)  0.1625 ( 76)
          -0.1522 ( 77) -0.2266 ( 79)  0.1278 ( 85)  0.2536 ( 86) -0.1761 ( 87)
          -0.1769 ( 89) -0.1589 ( 94) -0.1381 ( 95) -0.1822 ( 97)  0.1929 (101)
           0.1249 (102) -0.2147 (103)  0.1172 (110) -0.1125 (114)  0.1259 (120)

 THE DETERMINANT OF THE G MATRIX IS 10**(   -24)


                     --------------------
                     INTERNAL COORDINATES
                     --------------------

                 - - ATOMS - -         COORDINATE      COORDINATE
 NO.   TYPE    I  J  K  L  M  N        (BOHR,RAD)       (ANG,DEG)
 ----------------------------------------------------------------
   1 STRETCH   1  9                     2.0598510       1.0900263
   2 STRETCH   1 11                     2.0599268       1.0900664
   3 STRETCH   1  2                     2.8912669       1.5299927
   4 STRETCH   1 10                     2.0597473       1.0899714
   5 STRETCH   2  8                     2.7004462       1.4290147
   6 STRETCH   2  3                     2.8913177       1.5300195
   7 STRETCH   2  4                     2.8912116       1.5299634
   8 STRETCH   3 14                     2.0598495       1.0900255
   9 STRETCH   3 13                     2.0596944       1.0899434
  10 STRETCH   3 12                     2.0597770       1.0899871
  11 STRETCH   4 15                     2.0599030       1.0900538
  12 STRETCH   4  7                     2.8912651       1.5299917
  13 STRETCH   4  5                     2.8912881       1.5300039
  14 STRETCH   5 16                     2.0598286       1.0900144
  15 STRETCH   5  6                     2.8911842       1.5299489
  16 STRETCH   5 17                     2.0598109       1.0900051
  17 STRETCH   6 20                     2.0598996       1.0900520
  18 STRETCH   6 19                     2.0598109       1.0900051
  19 STRETCH   6 18                     2.0598286       1.0900144
  20 STRETCH   7 23                     2.0596944       1.0899434
  21 STRETCH   7 22                     2.0598021       1.0900004
  22 STRETCH   7 21                     2.0597770       1.0899871
  23 STRETCH   8 24                     1.8273511       0.9669926
  24 BEND      1  2  8                  1.9106113     109.4699648
  25 BEND      1  2  4                  1.9106453     109.4719139
  26 BEND      1  2  3                  1.9106864     109.4742649
  27 BEND      2  4 15                  1.9106658     109.4730874
  28 BEND      2  8 24                  1.9896332     113.9975842
  29 BEND      2  1 11                  1.9105170     109.4645621
  30 BEND      2  3 12                  1.9105997     109.4692967
  31 BEND      2  3 13                  1.9106948     109.4747487
  32 BEND      2  4  5                  1.9106853     109.4742027
  33 BEND      2  1  9                  1.9106139     109.4701135
  34 BEND      2  3 14                  1.9105541     109.4666846
  35 BEND      2  1 10                  1.9106770     109.4737309
  36 BEND      2  4  7                  1.9106285     109.4709490
  37 BEND      3  2  8                  1.9106077     109.4697590
  38 BEND      3  2  4                  1.9106047     109.4695849
  39 BEND      4  5  6                  1.9106638     109.4729717
  40 BEND      4  5 16                  1.9106554     109.4724910
  41 BEND      4  7 21                  1.9106381     109.4714970
  42 BEND      4  7 23                  1.9106326     109.4711844
  43 BEND      4  2  8                  1.9106440     109.4718362
  44 BEND      4  7 22                  1.9106131     109.4700663
  45 BEND      4  5 17                  1.9105681     109.4674865
  46 BEND      5  4  7                  1.9106581     109.4726441
  47 BEND      5  4 15                  1.9105544     109.4667028
  48 BEND      5  6 20                  1.9106472     109.4720215
  49 BEND      5  6 18                  1.9106566     109.4725604
  50 BEND      5  6 19                  1.9106160     109.4702331
  51 BEND      6  5 17                  1.9106160     109.4702331
  52 BEND      6  5 16                  1.9106566     109.4725604
  53 BEND      7  4 15                  1.9106074     109.4697376
  54 BEND      9  1 10                  1.9106932     109.4746565
  55 BEND      9  1 11                  1.9106327     109.4711923
  56 BEND     10  1 11                  1.9106655     109.4730680
  57 BEND     12  3 13                  1.9107085     109.4755348
  58 BEND     12  3 14                  1.9105827     109.4683278
  59 BEND     13  3 14                  1.9106596     109.4727305
  60 BEND     16  5 17                  1.9106395     109.4715810
  61 BEND     18  6 19                  1.9106395     109.4715810
  62 BEND     18  6 20                  1.9106020     109.4694290
  63 BEND     19  6 20                  1.9106381     109.4714988
  64 BEND     21  7 22                  1.9106358     109.4713650
  65 BEND     21  7 23                  1.9107085     109.4755348
  66 BEND     22  7 23                  1.9105714     109.4676761
  67 TORSION   1  2  3 13              -3.1415257    -179.9961649
  68 TORSION   1  2  3 14              -1.0471091     -59.9949331
  69 TORSION   1  2  4  5              -1.0472503     -60.0030247
  70 TORSION   1  2  4  7               1.0472042      60.0003786
  71 TORSION   1  2  4 15               3.1415846     179.9995391
  72 TORSION   1  2  8 24               1.0472564      60.0033711
  73 TORSION   1  2  3 12               1.0471551      59.9975689
  74 TORSION   2  4  7 21               1.0472318      60.0019603
  75 TORSION   2  4  7 22              -3.1415647    -179.9984005
  76 TORSION   2  4  7 23              -1.0472581     -60.0034706
  77 TORSION   2  4  5 17               1.1344910      65.0015477
  78 TORSION   2  4  5  6              -3.0543415    -175.0008762
  79 TORSION   2  4  5 16              -0.9598854     -54.9973849
  80 TORSION   3  2  1 10              -3.1415735    -179.9989005
  81 TORSION   3  2  4  7              -3.1415310    -179.9964700
  82 TORSION   3  2  1 11              -1.0471832     -59.9991784
  83 TORSION   3  2  1  9               1.0471283      59.9960320
  84 TORSION   3  2  8 24              -1.0471747     -59.9986933
  85 TORSION   3  2  4 15              -1.0471506     -59.9973095
  86 TORSION   3  2  4  5               1.0471998      60.0001266
  87 TORSION   4  2  3 13               1.0472346      60.0021234
  88 TORSION   4  2  1 10              -1.0471734     -59.9986150
  89 TORSION   4  2  3 12              -1.0472699     -60.0041428
  90 TORSION   4  2  1 11               1.0472169      60.0011072
  91 TORSION   4  2  8 24              -3.1415258    -179.9961719
  92 TORSION   4  2  3 14              -3.1415341    -179.9966448
  93 TORSION   4  2  1  9               3.1415284     179.9963176
  94 TORSION   4  5  6 18              -1.0471374     -59.9965512
  95 TORSION   4  5  6 19               1.0472692      60.0041058
  96 TORSION   4  5  6 20              -3.1415170    -179.9956678
  97 TORSION   5  4  7 22              -1.0470936     -59.9940427
  98 TORSION   5  4  7 23               1.0472130      60.0008872
  99 TORSION   5  4  7 21              -3.1414824    -179.9936819
 100 TORSION   5  4  2  8               3.1415527     179.9977118
 101 TORSION   6  5  4  7               1.1344074      64.9967584
 102 TORSION   6  5  4 15              -0.9599229     -54.9995305
 103 TORSION   7  4  2  8              -1.0471781     -59.9988848
 104 TORSION   7  4  5 17              -0.9599454     -55.0008178
 105 TORSION   7  4  5 16              -3.0543218    -174.9997503
 106 TORSION   8  2  3 13              -1.0471405     -59.9967338
 107 TORSION   8  2  3 12               3.1415403     179.9969999
 108 TORSION   8  2  1  9              -1.0472547     -60.0032730
 109 TORSION   8  2  1 10               1.0472289      60.0017944
 110 TORSION   8  2  3 14               1.0472761      60.0044980
 111 TORSION   8  2  1 11              -3.1415662    -179.9984834
 112 TORSION   8  2  4 15               1.0472024      60.0002757
 113 TORSION  15  4  5 17              -3.0542757    -174.9971066
 114 TORSION  15  4  7 22               1.0472043      60.0003877
 115 TORSION  15  4  7 23               3.1415109     179.9953176
 116 TORSION  15  4  7 21              -1.0471845     -59.9992515
 117 TORSION  15  4  5 16               1.1345331      65.0039608
 118 TORSION  16  5  6 19              -1.0471861     -59.9993430
 119 TORSION  16  5  6 18               3.1415927     180.0000000
 120 TORSION  16  5  6 20               1.0472130      60.0008834
 121 TORSION  17  5  6 19               3.1415927     180.0000000
 122 TORSION  17  5  6 18               1.0471861      59.9993430
 123 TORSION  17  5  6 20              -1.0471936     -59.9997736

     ------------------------------------------
     THE POINT GROUP IS C1 , NAXIS= 1, ORDER= 1
     ------------------------------------------

     DIMENSIONS OF THE SYMMETRY SUBSPACES ARE
 A   =  248

 ..... DONE SETTING UP THE RUN .....
 STEP CPU TIME =     0.02 TOTAL CPU TIME =        0.0 (    0.0 MIN)
 TOTAL WALL CLOCK TIME=        0.0 SECONDS, CPU UTILIZATION IS  66.67%


          -----------------------------
          STATIONARY POINT LOCATION RUN
          -----------------------------

 OBTAINING INITIAL HESSIAN, HESS=GUESS   
 DIAGONAL GUESS HESSIAN IN INTERNAL COORDS IS
     1  0.3464     2  0.3463     3  0.3672     4  0.3464     5  0.3608
     6  0.3672     7  0.3672     8  0.3464     9  0.3464    10  0.3464
    11  0.3463    12  0.3672    13  0.3672    14  0.3464    15  0.3672
    16  0.3464    17  0.3463    18  0.3464    19  0.3464    20  0.3464
    21  0.3464    22  0.3464    23  0.3552    24  0.2430    25  0.2485
    26  0.2485    27  0.2241    28  0.2143    29  0.2241    30  0.2241
    31  0.2241    32  0.2485    33  0.2241    34  0.2241    35  0.2241
    36  0.2485    37  0.2430    38  0.2485    39  0.2485    40  0.2241
    41  0.2241    42  0.2241    43  0.2430    44  0.2241    45  0.2241
    46  0.2485    47  0.2241    48  0.2241    49  0.2241    50  0.2241
    51  0.2241    52  0.2241    53  0.2241    54  0.2034    55  0.2034
    56  0.2034    57  0.2034    58  0.2034    59  0.2034    60  0.2034
    61  0.2034    62  0.2034    63  0.2034    64  0.2034    65  0.2034
    66  0.2034    67  0.2500    68  0.2500    69  0.2500    70  0.2500
    71  0.2500    72  0.2500    73  0.2500    74  0.2500    75  0.2500
    76  0.2500    77  0.2500    78  0.2500    79  0.2500    80  0.2500
    81  0.2500    82  0.2500    83  0.2500    84  0.2500    85  0.2500
    86  0.2500    87  0.2500    88  0.2500    89  0.2500    90  0.2500
    91  0.2500    92  0.2500    93  0.2500    94  0.2500    95  0.2500
    96  0.2500    97  0.2500    98  0.2500    99  0.2500   100  0.2500
   101  0.2500   102  0.2500   103  0.2500   104  0.2500   105  0.2500
   106  0.2500   107  0.2500   108  0.2500   109  0.2500   110  0.2500
   111  0.2500   112  0.2500   113  0.2500   114  0.2500   115  0.2500
   116  0.2500   117  0.2500   118  0.2500   119  0.2500   120  0.2500
   121  0.2500   122  0.2500   123  0.2500
 TRANSFORMING HESSIAN TO SYMMETRY COORDINATES

          PARAMETERS CONTROLLING GEOMETRY SEARCH ARE
          METHOD =QA                  UPHESS =BFGS    
          NNEG   =         0          NFRZ   =         3
          NSTEP  =        50          IFOLOW =         1
          HESS   =GUESS               RESTAR =         F
          IHREP  =         0          HSSEND =         F
          NPRT   =         0          NPUN   =         0
          OPTTOL = 5.000E-04          RMIN   = 1.500E-03
          RMAX   = 1.000E-01          RLIM   = 7.000E-02
          DXMAX  = 3.000E-01          PURIFY =         F
          MOVIE  =         F          TRUPD  =         T
          TRMAX  = 5.000E-01          TRMIN  = 5.000E-02
          ITBMAT =         5          STPT   =         F
          STSTEP = 1.000E-02          PROJCT=          F
          FROZEN COORD(S)=   1   2   3


      ***** EQUILIBRIUM GEOMETRY LOCATED *****
            (SUBJECT TO   3 CONSTRAINT(S))
 COORDINATES OF ALL ATOMS ARE (ANGS)
   ATOM   CHARGE       X              Y              Z
 ------------------------------------------------------------
 C           6.0   1.1914015341   0.1965453468  -1.5279794571
 C           6.0   0.9882779436   0.1824508675  -0.0112139668
 C           6.0   1.3579033024   1.5397398694   0.5998245358
 C           6.0  -0.4525666829  -0.2240239795   0.3877251570
 C           6.0  -1.5094151982   0.5662753853  -0.4030742314
 C           6.0  -2.9282334570   0.3386938073   0.1114516258
 C           6.0  -0.7268287681  -1.7300903572   0.2668175329
 O           8.0   1.8587207593  -0.7886346690   0.5579725739
 H           1.0   2.2375462153   0.3702797874  -1.7624299712
 H           1.0   0.8985233343  -0.7520782552  -1.9656237522
 H           1.0   0.6124421886   0.9835358891  -1.9969774746
 H           1.0   0.7243093382   2.3442118903   0.2447330574
 H           1.0   1.2784696057   1.4897573041   1.6819140264
 H           1.0   2.3857539406   1.7940509950   0.3509614083
 H           1.0  -0.5610007385   0.0362739783   1.4398875221
 H           1.0  -1.2871071384   1.6284892751  -0.3661876070
 H           1.0  -1.4653907120   0.2768665248  -1.4495622139
 H           1.0  -3.2332599554  -0.6931250579  -0.0206045229
 H           1.0  -2.9976175867   0.5765814154   1.1697321961
 H           1.0  -3.6366106201   0.9598137453  -0.4266205399
 H           1.0   0.0099902065  -2.3169313019   0.7966610133
 H           1.0  -1.6960104243  -1.9596912948   0.6950852945
 H           1.0  -0.7464150630  -2.0539510219  -0.7708646490
 H           1.0   2.7494890936  -0.5266791748   0.3917221948


                     --------------------
                     INTERNAL COORDINATES
                     --------------------

                 - - ATOMS - -         COORDINATE      COORDINATE
 NO.   TYPE    I  J  K  L  M  N        (BOHR,RAD)       (ANG,DEG)
 ----------------------------------------------------------------
   1 STRETCH   1  9                     2.0523933       1.0860798
   2 STRETCH   1 11                     2.0479845       1.0837468
   3 STRETCH   1  2                     2.8919819       1.5303710
   4 STRETCH   1 10                     2.0503282       1.0849871
   5 STRETCH   2  8                     2.6888956       1.4229024
   6 STRETCH   2  3                     2.8982658       1.5336963
   7 STRETCH   2  4                     2.9277994       1.5493248
   8 STRETCH   3 14                     2.0554486       1.0876966
   9 STRETCH   3 13                     2.0525292       1.0861518
  10 STRETCH   3 12                     2.0481583       1.0838388
  11 STRETCH   4 15                     2.0584647       1.0892927
  12 STRETCH   4  7                     2.9018675       1.5356023
  13 STRETCH   4  5                     2.9072718       1.5384621
  14 STRETCH   5 16                     2.0519673       1.0858544
  15 STRETCH   5  6                     2.8842787       1.5262947
  16 STRETCH   5 17                     2.0534921       1.0866613
  17 STRETCH   6 20                     2.0502524       1.0849469
  18 STRETCH   6 19                     2.0539526       1.0869050
  19 STRETCH   6 18                     2.0485276       1.0840342
  20 STRETCH   7 23                     2.0545534       1.0872229
  21 STRETCH   7 22                     2.0488002       1.0841785
  22 STRETCH   7 21                     2.0423197       1.0807491
  23 STRETCH   8 24                     1.7824916       0.9432540
  24 BEND      1  2  8                  1.8981646     108.7568222
  25 BEND      1  2  4                  1.9617327     112.3990038
  26 BEND      1  2  3                  1.9334201     110.7768134
  27 BEND      2  4 15                  1.8531302     106.1765391
  28 BEND      2  8 24                  1.8940603     108.5216600
  29 BEND      2  1 11                  1.9440968     111.3885396
  30 BEND      2  3 12                  1.9664973     112.6719939
  31 BEND      2  3 13                  1.9161917     109.7896949
  32 BEND      2  4  5                  1.9516635     111.8220815
  33 BEND      2  1  9                  1.9211932     110.0762626
  34 BEND      2  3 14                  1.9214394     110.0903658
  35 BEND      2  1 10                  1.9346700     110.8484262
  36 BEND      2  4  7                  1.9857340     113.7741793
  37 BEND      3  2  8                  1.8725223     107.2876223
  38 BEND      3  2  4                  1.9323425     110.7150710
  39 BEND      4  5  6                  1.9700198     112.8738223
  40 BEND      4  5 16                  1.9224056     110.1457257
  41 BEND      4  7 21                  1.9521579     111.8504086
  42 BEND      4  7 23                  1.9503603     111.7474112
  43 BEND      4  2  8                  1.8617374     106.6696947
  44 BEND      4  7 22                  1.9137360     109.6489954
  45 BEND      4  5 17                  1.9074962     109.2914843
  46 BEND      5  4  7                  1.9184055     109.9165364
  47 BEND      5  4 15                  1.8811156     107.7799866
  48 BEND      5  6 20                  1.9330575     110.7560370
  49 BEND      5  6 18                  1.9416658     111.2492540
  50 BEND      5  6 19                  1.9336424     110.7895508
  51 BEND      6  5 17                  1.8992654     108.8198906
  52 BEND      6  5 16                  1.9015161     108.9488489
  53 BEND      7  4 15                  1.8677805     107.0159399
  54 BEND      9  1 10                  1.8889337     108.2279283
  55 BEND      9  1 11                  1.8807305     107.7579188
  56 BEND     10  1 11                  1.8924591     108.4299207
  57 BEND     12  3 13                  1.8942075     108.5300948
  58 BEND     12  3 14                  1.8795983     107.6930486
  59 BEND     13  3 14                  1.8836880     107.9273734
  60 BEND     16  5 17                  1.8597507     106.5558634
  61 BEND     18  6 19                  1.8849097     107.9973680
  62 BEND     18  6 20                  1.8763072     107.5044822
  63 BEND     19  6 20                  1.8922053     108.4153777
  64 BEND     21  7 22                  1.8763299     107.5057861
  65 BEND     21  7 23                  1.8948924     108.5693373
  66 BEND     22  7 23                  1.8732143     107.3272741
  67 TORSION   1  2  3 13              -3.0689831    -175.8397796
  68 TORSION   1  2  3 14              -0.9976091     -57.1587923
  69 TORSION   1  2  4  5              -0.8528100     -48.8624147
  70 TORSION   1  2  4  7               1.3334794      76.4027423
  71 TORSION   1  2  4 15              -2.9000793    -166.1623025
  72 TORSION   1  2  8 24               1.1031576      63.2062765
  73 TORSION   1  2  3 12               1.1008304      63.0729350
  74 TORSION   2  4  7 21               0.9188239      52.6447305
  75 TORSION   2  4  7 22               2.9986112     171.8077678
  76 TORSION   2  4  7 23              -1.2098073     -69.3168551
  77 TORSION   2  4  5 17               1.1740520      67.2682258
  78 TORSION   2  4  5  6              -2.9930942    -171.4916644
  79 TORSION   2  4  5 16              -0.8634927     -49.4744901
  80 TORSION   3  2  1 10              -3.1082065    -178.0871140
  81 TORSION   3  2  4  7              -2.7771947    -159.1215342
  82 TORSION   3  2  1 11              -0.9993458     -57.2582987
  83 TORSION   3  2  1  9               1.0857110      62.2066567
  84 TORSION   3  2  8 24              -0.9889731     -56.6639823
  85 TORSION   3  2  4 15              -0.7275681     -41.6865790
  86 TORSION   3  2  4  5               1.3197012      75.6133088
  87 TORSION   4  2  3 13               1.0256524      58.7655529
  88 TORSION   4  2  1 10              -0.9362901     -53.6454715
  89 TORSION   4  2  3 12              -1.0877194     -62.3217325
  90 TORSION   4  2  1 11               1.1725706      67.1833437
  91 TORSION   4  2  8 24              -3.0603118    -175.3429490
  92 TORSION   4  2  3 14               3.0970264     177.4465402
  93 TORSION   4  2  1  9              -3.0255579    -173.3517008
  94 TORSION   4  5  6 18              -1.1202787     -64.1872435
  95 TORSION   4  5  6 19               0.9766980      55.9606751
  96 TORSION   4  5  6 20               3.0771565     176.3080799
  97 TORSION   5  4  7 22              -1.0806830     -61.9185740
  98 TORSION   5  4  7 23               0.9940837      56.9568031
  99 TORSION   5  4  7 21               3.1227150     178.9183887
 100 TORSION   5  4  2  8              -2.9316431    -167.9707785
 101 TORSION   6  5  4  7               1.0670711      61.1386687
 102 TORSION   6  5  4 15              -0.9627292     -55.1603208
 103 TORSION   7  4  2  8              -0.7453537     -42.7056216
 104 TORSION   7  4  5 17              -1.0489680     -60.1014411
 105 TORSION   7  4  5 16              -3.0865128    -176.8441571
 106 TORSION   8  2  3 13              -0.9995037     -57.2673458
 107 TORSION   8  2  3 12              -3.1128756    -178.3546312
 108 TORSION   8  2  1  9              -0.9681599     -55.4714780
 109 TORSION   8  2  1 10               1.1211079      64.2347513
 110 TORSION   8  2  3 14               1.0718702      61.4136415
 111 TORSION   8  2  1 11              -3.0532167    -174.9364334
 112 TORSION   8  2  4 15               1.3042729      74.7293336
 113 TORSION  15  4  5 17              -3.0787683    -176.4004306
 114 TORSION  15  4  7 22               0.9574839      54.8597871
 115 TORSION  15  4  7 23               3.0322506     173.7351642
 116 TORSION  15  4  7 21              -1.1223034     -64.3032502
 117 TORSION  15  4  5 16               1.1668722      66.8568535
 118 TORSION  16  5  6 19              -1.1646120     -66.7273534
 119 TORSION  16  5  6 18               3.0215965     173.1247281
 120 TORSION  16  5  6 20               0.9358464      53.6200515
 121 TORSION  17  5  6 19               3.0973997     177.4679276
 122 TORSION  17  5  6 18               1.0004229      57.3200090
 123 TORSION  17  5  6 20              -1.0853272     -62.1846676

          INTERNUCLEAR DISTANCES (ANGS.)


 =====================================================
   GAMESS/COSab RESULTS
 =====================================================

   Dielectric Constant                  = INFTY
   Basic Grid Size                      =                 1082
   Number of Segments                   =                   92
   Number of Segments located on spheres=                  272
   Number of Segments of the cavity     =                  685
   Solvent Radius (rsolv)               = 1.40
   Outlying Charge Error Method         = double cavity

 =====================================================

  Total solvated Energy (a.u.)          =  -349.3518576375
  Total Energy corrected (a.u.)         =  -349.3517683848

  Outlying charge effect (a.u.)         =     0.0000892527
  Outlying charge effect (kcal/mol)     =     0.0560069466

  Dielectric Energy (a.u.)              =    -0.0091671119
  Dielectric energy corr. (a.u.)        =    -0.0090778592

  Sum of polarization charges           =     0.0270620278
  Sum of polarization charges(cor.)     =    -0.0270620278

  Total surface area of cavity (A**2)   =  168.13
  Total volume of cavity (A**3)         =  175.38

 =====================================================
 NPS=                   685
NR.  ATOM  (X, Y, Z)(a.u.)                  CHARGE(e)  AREA(A**2) SIGMA(e/A**2)
   1   1   0.146314  -0.157004  -5.981583   0.001816   0.418105   0.004343
   2   1   3.831267  -1.534356  -5.743417   0.001710   0.418105   0.004090
   3   1   2.920067   2.317398  -6.057695   0.001163   0.371649   0.003128
   4   1   3.940042   2.312193  -5.656263   0.001294   0.371649   0.003482
   5   1   4.634557  -1.103616  -5.423069   0.001002   0.278737   0.003594
   6   1   5.065903  -2.097190  -3.406123   0.000749   0.232280   0.003224
   7   1   4.342711  -2.699494  -3.580537   0.001114   0.278737   0.003998
   8   1   4.272995  -2.230805  -4.738416   0.001267   0.278737   0.004546
   9   1   3.812783  -0.289749  -6.265237   0.001283   0.464561   0.002762
  10   1   3.307331   1.190841  -6.422703   0.001112   0.464561   0.002393
  11   1   3.412008   3.227540  -5.073756   0.001636   0.371649   0.004401
  12   1   3.363933   3.846474  -3.872625   0.001149   0.325193   0.003532
  13   1   2.707973  -0.980962  -6.387030   0.001080   0.418105   0.002584
  14   1   1.369563  -0.428218  -6.474555   0.001256   0.418105   0.003005
  15   1   0.995833   0.667690  -6.439929   0.001333   0.464561   0.002870
  16   1   2.094757   1.542147  -6.477609   0.000691   0.325193   0.002124
  17   1   4.144076   0.756491  -6.136141   0.000604   0.278737   0.002165
  18   1   4.853522  -1.972361  -4.308774   0.001026   0.232280   0.004417
  19   1   4.113179   3.375751  -4.226158   0.001248   0.325193   0.003839
  20   1   2.478314   0.256017  -6.658342   0.000913   0.464561   0.001965
  21   3   5.060853   4.117673   3.702751   0.001763   0.371649   0.004745
  22   3   1.601101   5.662692   3.536429   0.001259   0.325193   0.003870
  23   3   4.234074   6.284533   0.798339   0.001121   0.371649   0.003017
  24   3   5.265729   1.816468   3.542021   0.000250   0.092912   0.002696
  25   3   5.540295   2.416369   3.412724   0.000994   0.232280   0.004279
  26   3   3.287150   6.525185   0.301404   0.001212   0.371649   0.003261
  27   3   0.941822   5.882394   2.809538   0.000945   0.278737   0.003389
  28   3   2.983879   5.284154  -1.777084   0.000547   0.185824   0.002945
  29   3   5.121979   3.041411   3.914547   0.000727   0.185824   0.003913
  30   3   5.640475   3.469895   3.259156   0.001096   0.278737   0.003931
  31   3  -0.229454   4.403330   3.192239   0.000714   0.185824   0.003840
  32   3   0.670820   5.126335   3.537413   0.001275   0.278737   0.004573
  33   3   2.309584   6.301182   2.781592   0.001128   0.464561   0.002429
  34   3   3.506249   6.512126   1.783635   0.000984   0.464561   0.002119
  35   3   4.005200   5.980488  -0.534800   0.001339   0.325193   0.004116
  36   3   3.916578   5.168910  -1.578728   0.000950   0.278737   0.003408
  37   3   2.865557   5.619617   3.750910   0.001046   0.418105   0.002501
  38   3   4.215224   5.087739   3.745129   0.001251   0.418105   0.002991
  39   3   5.043051   5.123537   2.935618   0.001366   0.464561   0.002940
  40   3   4.644565   5.974070   1.890854   0.000670   0.325193   0.002061
  41   3   4.930799   1.982990   3.932349   0.000353   0.139368   0.002536
  42   3   5.922187   2.511158   2.825206   0.000293   0.139368   0.002106
  43   3   2.529461   6.637938   1.752375   0.000482   0.278737   0.001728
  44   3  -0.057156   4.993596   2.882876   0.000717   0.185824   0.003857
  45   3   3.264467   5.885608  -1.089176   0.001091   0.278737   0.003913
  46   3   0.032051   4.114607   3.665545   0.000593   0.185824   0.003191
  47   3   3.769146   6.013449   2.923326   0.000864   0.464561   0.001859
  48   5  -3.639575   3.115869  -3.840574   0.000923   0.232280   0.003972
  49   5  -3.051061   3.895867  -3.263679   0.000793   0.185824   0.004267
  50   5  -3.017056   3.746028   1.902253   0.000103   0.139368   0.000737
  51   5  -2.805908   3.227847  -3.864325   0.000973   0.232280   0.004187
  52   5  -4.154773   3.438543  -3.403399   0.001041   0.325193   0.003200
  53   5  -4.584105   2.437241  -3.830306   0.000657   0.232280   0.002828
  54   5  -4.266524   4.020835  -2.653182   0.000719   0.278737   0.002579
  55   6  -8.191256   2.726421   1.904083   0.002257   0.418105   0.005398
  56   6  -6.641633  -0.645667  -3.166283   0.000986   0.325193   0.003033
  57   6  -7.623465  -0.983349   2.908957   0.001677   0.371649   0.004512
  58   6  -9.201369   0.095240  -0.520525   0.001448   0.371649   0.003896
  59   6  -5.824175   4.407881   0.154245   0.000618   0.232280   0.002663
  60   6  -5.050523   3.876347   2.101970   0.000694   0.232280   0.002989
  61   6  -5.667097   4.277721   1.227318   0.001045   0.325193   0.003213
  62   6  -6.908882   3.936520   1.445896   0.001518   0.325193   0.004668
  63   6  -8.848412  -0.925246  -0.709078   0.001572   0.371649   0.004229
  64   6  -7.442352  -1.810081   2.364120   0.001128   0.278737   0.004047
  65   6  -6.845975  -1.380292  -2.701449   0.000564   0.185824   0.003036
  66   6  -7.212976   3.414246   2.151627   0.001095   0.232280   0.004715
  67   6  -7.766896   3.510341   1.239097   0.001310   0.278737   0.004699
  68   6  -6.574569  -1.557281   3.104098   0.001707   0.325193   0.005250
  69   6  -8.497501  -0.940427   1.943049   0.001520   0.464561   0.003272
  70   6  -9.154819  -0.352545   0.641223   0.001384   0.464561   0.002979
  71   6  -8.613654  -0.349666  -1.743287   0.001886   0.371649   0.005073
  72   6  -7.645049  -0.246724  -2.795968   0.001648   0.371649   0.004435
  73   6  -6.700548   0.474631  -3.380359   0.001139   0.371649   0.003066
  74   6  -8.341258   0.124688   2.687585   0.001297   0.418105   0.003103
  75   6  -8.586032   1.492202   2.269833   0.001536   0.418105   0.003675
  76   6  -8.931156   1.926262   1.252794   0.001707   0.464561   0.003675
  77   6  -9.301057   0.877958   0.393748   0.000956   0.325193   0.002940
  78   6  -5.974600   3.924098   2.028489   0.000841   0.232280   0.003622
  79   6  -6.583833   4.257610   0.517777   0.000990   0.278737   0.003551
  80   6  -8.753604  -1.213483   0.903390   0.000800   0.278737   0.002871
  81   6  -5.960272  -1.486757  -2.884375   0.000570   0.232280   0.002453
  82   6  -7.889802  -1.045317  -2.216719   0.001452   0.325193   0.004465
  83   6  -6.189269   1.386293  -3.435956   0.000120   0.092912   0.001292
  84   6  -9.025766   0.424148   1.639614   0.001170   0.464561   0.002519
  85   7  -4.095541  -5.435852  -0.972708   0.002025   0.371649   0.005447
  86   7  -1.530894  -3.334400   4.279823   0.000778   0.232280   0.003348
  87   7  -2.570979  -6.351836   2.334220   0.001964   0.418105   0.004697
  88   7  -0.581981  -6.647836  -0.993776   0.001627   0.371649   0.004378
  89   7   0.124614  -6.664772  -0.210908   0.001489   0.325193   0.004578
  90   7  -1.578888  -6.310029   2.739537   0.001317   0.278737   0.004724
  91   7  -1.081050  -4.113855   4.176488   0.001307   0.325193   0.004019
  92   7  -4.067003  -4.783775  -1.672028   0.000842   0.185824   0.004530
  93   7  -0.259774  -3.261970   4.115830   0.000730   0.232280   0.003141
  94   7  -2.178450  -4.320106   4.044315   0.001264   0.278737   0.004533
  95   7  -2.286744  -5.543535   3.381462   0.002090   0.371649   0.005625
  96   7  -1.829719  -6.897596   1.459386   0.001664   0.464561   0.003583
  97   7  -1.205075  -7.014068   0.021096   0.001480   0.464561   0.003185
  98   7   0.551244  -6.054644  -1.175687   0.001542   0.278737   0.005532
  99   7   1.194392  -5.380690  -1.293747   0.001387   0.232280   0.005970
 100   7  -2.653990  -3.336793   4.059497   0.000933   0.278737   0.003348
 101   7  -3.026894  -6.631135   1.003542   0.001231   0.371649   0.003312
 102   7  -3.610429  -6.254238  -0.105054   0.001555   0.418105   0.003718
 103   7  -3.101170  -6.199031  -1.144041   0.001760   0.464561   0.003787
 104   7  -1.787562  -6.688616  -1.052009   0.001021   0.325193   0.003140
 105   7  -0.857163  -6.987666   0.942606   0.000893   0.278737   0.003203
 106   7  -1.600184  -5.022039   3.845040   0.001417   0.278737   0.005085
 107   7   1.082723  -5.944480  -0.542302   0.000908   0.185824   0.004887
 108   7  -2.428581  -6.869876   0.048479   0.001127   0.418105   0.002696
 109   8   2.899417  -2.270930   4.149491   0.006659   0.274871   0.024225
 110   8   5.721324  -3.007490   2.893915   0.001770   0.274871   0.006439
 111   8   5.328371  -3.629747  -0.585669   0.003088   0.309230   0.009986
 112   8   3.235733  -3.239540   3.779904   0.003962   0.206154   0.019221
 113   8   2.826861  -1.456997   4.231448   0.003463   0.137436   0.025194
 114   8   5.894805  -3.534016   1.898422   0.000901   0.274871   0.003277
 115   8   5.733687  -3.818912   0.597925   0.001862   0.309230   0.006021
 116   8   5.353341  -3.107120  -1.081393   0.000805   0.103077   0.007813
 117   8   5.368031  -0.855025   3.646321   0.002753   0.274871   0.010017
 118   8   5.659399  -1.939731   3.453033   0.002138   0.309230   0.006913
 119   8   3.912574  -2.768870   4.015813   0.006349   0.343589   0.018479
 120   8   4.933927  -2.876688   3.627754   0.005034   0.377948   0.013318
 121   8   5.032626  -3.884587   2.642240   0.005705   0.481025   0.011860
 122   8   4.254068  -4.444782   2.188325   0.003904   0.206154   0.018938
 123   8   4.283751  -4.646409   0.960818   0.005046   0.274871   0.018356
 124   8   4.877069  -4.274425   0.079148   0.004340   0.309230   0.014035
 125   8   4.306191  -3.922746  -0.950036   0.005181   0.274871   0.018848
 126   8   4.625215  -0.748346   4.016843   0.002901   0.171795   0.016884
 127   8   3.729620  -1.456425   4.297314   0.006292   0.343589   0.018312
 128   8   4.017107  -3.860926   3.220096   0.006397   0.343589   0.018619
 129   8   3.963027  -4.455363  -0.198597   0.005987   0.274871   0.021781
 130   8   5.127479  -4.291626   1.384527   0.004947   0.412307   0.011999
 131   8   4.717362  -1.802636   4.056975   0.005901   0.377948   0.015612
 132   9   6.424605   1.151745  -4.334125  -0.001958   0.353299  -0.005543
 133   9   5.503559   2.705359  -3.952135  -0.001012   0.294415  -0.003436
 134   9   5.427945   1.682942  -5.235602  -0.001035   0.372926  -0.002776
 135   9   5.861197  -0.442699  -4.767082  -0.000864   0.333671  -0.002589
 136   9   6.201835  -0.711680  -3.715674  -0.001104   0.333671  -0.003308
 137   9   6.371113   1.899078  -3.402918  -0.002042   0.353299  -0.005780
 138   9   5.789951   2.163237  -4.536604  -0.001369   0.353299  -0.003874
 139   9   5.709645   0.559063  -5.285265  -0.001452   0.431809  -0.003362
 140   9   6.502901   0.134933  -4.067058  -0.001659   0.333671  -0.004971
 141   9   6.672703   0.815382  -3.114051  -0.002772   0.392554  -0.007062
 142  10   1.542564  -3.449198  -5.092276  -0.002801   0.431809  -0.006488
 143  10   0.239159  -1.935416  -5.623051  -0.000889   0.274788  -0.003235
 144  10   2.956670  -3.321515  -4.630838  -0.000705   0.294415  -0.002396
 145  10   1.829375  -2.280949  -6.012043  -0.000866   0.353299  -0.002452
 146  10   0.470976  -2.862517  -5.280467  -0.001604   0.255160  -0.006287
 147  10   2.460998  -3.745798  -3.936416  -0.002097   0.412182  -0.005087
 148  10   2.553264  -2.947794  -5.438785  -0.001115   0.372926  -0.002990
 149  10   0.999320  -2.413142  -5.850637  -0.000930   0.274788  -0.003386
 150  11  -0.103511   3.524297  -5.066334  -0.002173   0.333671  -0.006511
 151  11   0.215134   2.099289  -6.029707  -0.000945   0.314043  -0.003009
 152  11   1.701148   3.616482  -5.401384  -0.000852   0.314043  -0.002713
 153  11   1.621667   4.185895  -4.408735  -0.001301   0.333671  -0.003898
 154  11  -0.233234   2.710210  -5.611168  -0.001736   0.314043  -0.005527
 155  11   1.025591   2.910372  -5.989930  -0.001296   0.372926  -0.003474
 156  11   0.875528   3.837036  -5.202542  -0.001348   0.274788  -0.004907
 157  11   0.406032   4.126267  -4.346742  -0.002177   0.294415  -0.007396
 158  12   0.290601   6.543685  -0.173708  -0.003026   0.451437  -0.006703
 159  12   1.734522   6.063181  -1.335789  -0.000654   0.235532  -0.002776
 160  12   1.606968   6.866850   0.263111  -0.001001   0.314043  -0.003186
 161  12   0.331289   6.317976   1.643188  -0.000563   0.235532  -0.002390
 162  12   0.760250   6.044207  -1.286498  -0.002264   0.333671  -0.006785
 163  12   1.590097   6.624915  -0.618315  -0.001265   0.353299  -0.003580
 164  12   0.906947   6.786849   0.978971  -0.001484   0.392554  -0.003779
 165  12  -0.241817   6.119909   1.227443  -0.001767   0.333671  -0.005295
 166  13   2.547674   3.063021   5.618911  -0.002743   0.490692  -0.005589
 167  13   4.094511   2.730056   4.970087  -0.000831   0.333671  -0.002490
 168  13   2.580314   1.572267   5.290957  -0.001961   0.353299  -0.005552
 169  13   0.969700   3.921799   4.827263  -0.000865   0.353299  -0.002449
 170  13   2.959361   4.382290   4.990571  -0.000945   0.372926  -0.002533
 171  13   3.558391   2.041641   5.210961  -0.001796   0.412182  -0.004358
 172  13   1.794254   2.149810   5.459965  -0.001512   0.274788  -0.005504
 173  13   1.219487   3.032337   5.312919  -0.002000   0.392554  -0.005095
 174  13   1.919737   4.290179   5.079239  -0.001351   0.412182  -0.003279
 175  13   3.653220   3.635524   5.135750  -0.001146   0.372926  -0.003073
 176  14   6.767387   4.324896   0.421143  -0.002071   0.372926  -0.005554
 177  14   6.643333   3.121165   1.848480  -0.001073   0.294415  -0.003644
 178  14   6.267506   4.717190   1.749483  -0.001058   0.372926  -0.002837
 179  14   5.554287   5.411846  -0.261128  -0.000774   0.314043  -0.002464
 180  14   5.654858   4.640024  -1.114090  -0.001314   0.353299  -0.003719
 181  14   6.947376   3.123991   0.537982  -0.002303   0.372926  -0.006176
 182  14   6.716712   3.926538   1.596467  -0.001446   0.353299  -0.004094
 183  14   5.994115   5.341148   0.810943  -0.001488   0.431809  -0.003447
 184  14   6.269856   4.737390  -0.393970  -0.001339   0.274788  -0.004874
 185  14   6.657850   3.615962  -0.504719  -0.002505   0.372926  -0.006718
 186  15  -1.346301   0.520917   5.118617  -0.001110   0.274788  -0.004039
 187  15  -1.571543  -1.007588   4.869363  -0.000390   0.176649  -0.002209
 188  15  -1.715109   1.908541   4.211156  -0.000642   0.117766  -0.005454
 189  15  -0.098460  -0.763669   4.822820  -0.000623   0.274788  -0.002266
 190  15  -2.131918  -0.271558   4.905194  -0.001472   0.353299  -0.004167
 191  15  -1.979153   1.092301   4.756302  -0.000951   0.196277  -0.004847
 192  15  -1.284675   1.351360   4.804047  -0.000902   0.176649  -0.005104
 193  15  -0.487023   0.128187   5.109108  -0.001079   0.235532  -0.004579
 194  15  -0.981904  -0.640727   5.071718  -0.000719   0.274788  -0.002616
 195  16  -2.565818   5.527597  -0.809406  -0.001793   0.314043  -0.005709
 196  16  -2.894563   4.730297   1.065638  -0.000537   0.176649  -0.003042
 197  16  -3.688002   5.145017  -1.120001  -0.000712   0.255160  -0.002789
 198  16  -2.477730   4.785528  -2.457030  -0.000363   0.196277  -0.001850
 199  16  -2.921541   5.218719   0.408201  -0.000937   0.255160  -0.003673
 200  16  -3.446299   5.268030  -0.235965  -0.000828   0.274788  -0.003013
 201  16  -3.140594   5.140525  -1.821995  -0.000815   0.372926  -0.002184
 202  16  -2.034574   5.112520  -2.009278  -0.001133   0.235532  -0.004810
 203  17  -2.896931   0.017992  -5.140006  -0.002162   0.412182  -0.005245
 204  17  -4.060564  -0.820347  -4.340002  -0.000836   0.294415  -0.002840
 205  17  -3.972258   1.370771  -4.706333  -0.000497   0.314043  -0.001583
 206  17  -3.198501  -0.943744  -4.662515  -0.001747   0.333671  -0.005237
 207  17  -3.021688   1.421203  -5.011915  -0.001483   0.412182  -0.003597
 208  17  -4.039878   0.305860  -4.830492  -0.001250   0.431809  -0.002894
 209  18  -7.128332  -3.432260  -0.741249  -0.002421   0.412182  -0.005874
 210  18  -7.102867  -2.432406  -1.985484  -0.000432   0.274788  -0.001571
 211  18  -8.272939  -2.394803  -0.462583  -0.000598   0.294415  -0.002031
 212  18  -7.493136  -2.844211   1.290560  -0.000749   0.314043  -0.002386
 213  18  -6.463811  -3.015034  -1.771596  -0.001507   0.333671  -0.004516
 214  18  -7.790283  -2.615465  -1.266507  -0.001087   0.392554  -0.002769
 215  18  -8.092509  -2.692822   0.399159  -0.000907   0.333671  -0.002719
 216  18  -7.328281  -3.400442   0.385412  -0.001710   0.314043  -0.005444
 217  19  -6.332514   1.683456   4.498783  -0.002219   0.451437  -0.004916
 218  19  -6.685296   2.953290   3.443343  -0.000609   0.353299  -0.001723
 219  19  -4.844773   2.902279   3.651638  -0.001276   0.392554  -0.003251
 220  19  -5.766169  -0.221998   4.285216  -0.001092   0.392554  -0.002782
 221  19  -7.524751   1.151458   3.814015  -0.000766   0.372926  -0.002055
[...]
 428   5  -2.033288   3.421141  -3.802522   0.001369   0.478379   0.002862
 429   5  -2.916172   2.679703   2.745385   0.000026   0.166409   0.000153
 430  15  -2.524305   2.265986   3.233822  -0.000144   0.166409  -0.000866
 431  19  -3.552054   2.492624   3.118998  -0.000117   0.166409  -0.000703
 432  15  -1.968459   2.326777   3.411722  -0.000087   0.022135  -0.003920
 433   5  -2.565344   2.909866   2.677564   0.000056   0.031237   0.001803
 434   5  -4.779896   4.247611  -1.539223   0.000070   0.031871   0.002192
 435  16  -4.537539   4.401275  -1.444248  -0.000038   0.031871  -0.001207
 436  20  -5.510309   4.079016  -1.455296   0.000062   0.031871   0.001954
 437  16  -2.470289   4.367250  -2.769171  -0.000096   0.083243  -0.001147
 438  16  -3.594930   4.579592  -2.105630  -0.000588   0.193858  -0.003034
 439   5  -3.091781   4.156005  -2.792438  -0.000124   0.174731  -0.000712
 440   5  -4.253787   4.369465  -1.935864  -0.000008   0.101700  -0.000083
 441  16  -2.899217   4.312653   1.388832  -0.000135   0.056472  -0.002390
 442   5  -2.934703   3.967950   1.676911  -0.000064   0.068993  -0.000930
 443  17  -4.431966   1.441204  -4.289990  -0.000104   0.075258  -0.001379
 444  17  -3.421948   2.084232  -4.425339  -0.000307   0.170339  -0.001802
 445   5  -4.237567   1.997487  -4.087503  -0.000194   0.162022  -0.001196
 446   5  -3.061644   2.606520  -4.206471   0.000136   0.091945   0.001479
 447  19  -4.119132   2.866376   3.118502  -0.000153   0.098108  -0.001562
 448   5  -3.249063   3.206949   2.484056   0.000226   0.138306   0.001635
 449  20  -6.069158   3.936393  -1.838251  -0.000252   0.197794  -0.001276
 450  20  -6.243829   2.932551  -2.835837  -0.001087   0.404614  -0.002686
 451   5  -5.038606   3.663801  -2.463902   0.000731   0.542048   0.001348
 452   5  -5.256390   2.425342  -3.487849   0.000585   0.278604   0.002099
 453   6  -5.487246   4.171203  -1.178927   0.000073   0.025817   0.002824
 454  16  -4.768051   4.354594  -1.246873   0.000054   0.025817   0.002094
 455  20  -5.763789   4.115480  -1.285725  -0.000026   0.025817  -0.000993
 456  16  -4.274098   4.728323  -0.907700  -0.000332   0.212617  -0.001562
 457  16  -3.762086   4.612224   0.538019  -0.001399   0.437508  -0.003197
 458   6  -5.111606   4.377515  -0.058406   0.000818   0.580317   0.001410
 459   6  -4.436641   4.107664   1.532025   0.000658   0.299604   0.002195
 460   6  -4.566759  -1.881698  -2.731916   0.000277   0.244451   0.001134
 461  17  -3.979001  -1.745267  -3.187005  -0.000102   0.244451  -0.000419
 462  23  -3.618021  -2.689224  -2.833540   0.000316   0.244451   0.001291
 463  17  -4.378068  -1.126423  -3.677133  -0.000304   0.200772  -0.001512
 464  17  -4.736514   0.236441  -4.067019  -0.001149   0.411620  -0.002793
 465   6  -5.491690  -0.758627  -3.306661   0.000780   0.549474   0.001420
 466   6  -5.790069   0.840592  -3.649622   0.000607   0.282964   0.002144
 467   6  -6.391495  -2.559645   2.201193   0.000029   0.076481   0.000375
 468  18  -6.431254  -2.775060   1.989998  -0.000204   0.076481  -0.002673
 469  22  -5.743732  -3.268775   2.235725  -0.000309   0.076481  -0.004044
 470   6  -5.099957  -2.286994  -2.316410  -0.000045   0.115135  -0.000388
 471  18  -5.227379  -2.516737  -2.158150  -0.000293   0.115135  -0.002544
 472  23  -4.115187  -3.043347  -2.351816   0.000342   0.115135   0.002971
 473  18  -7.049147  -2.525247   1.877476  -0.000103   0.069273  -0.001492
 474  18  -7.924832  -2.188152   1.266294  -0.000289   0.154105  -0.001873
 475  18  -8.441233  -1.880310   0.053761  -0.000305   0.154105  -0.001982
 476  18  -8.118302  -1.807827  -1.258540  -0.000168   0.154105  -0.001091
 477  18  -7.091763  -2.001169  -2.119069  -0.000318   0.154105  -0.002066
 478  18  -6.024365  -2.295233  -2.286959  -0.000164   0.069273  -0.002371
 479   6  -7.432492  -2.069317   1.936750   0.000033   0.151545   0.000215
 480   6  -8.415146  -1.640856   0.858753  -0.000039   0.151545  -0.000254
 481   6  -8.530012  -1.415052  -0.640274   0.000050   0.151545   0.000328
 482   6  -7.728814  -1.486807  -1.930311   0.000074   0.151545   0.000486
 483   6  -6.348284  -1.825964  -2.469175  -0.000197   0.151545  -0.001302
 484   6  -5.175327  -1.409465   3.404346   0.000169   0.041034   0.004115
 485  19  -5.210986  -1.143569   3.544291   0.000009   0.041034   0.000224
 486  22  -4.644578  -2.195005   3.265108   0.000037   0.041034   0.000908
 487  19  -4.675393   3.189137   3.016281  -0.000080   0.068692  -0.001161
 488  19  -5.757058   3.390767   2.900040  -0.000216   0.152259  -0.001416
 489  19  -7.018939   2.945877   2.917308  -0.000174   0.152259  -0.001142
 490  19  -7.758589   1.848510   3.115481  -0.000213   0.152259  -0.001397
 491  19  -7.673972   0.546776   3.413634  -0.000260   0.152259  -0.001708
 492  19  -6.799641  -0.427764   3.690017  -0.000128   0.152259  -0.000839
 493  19  -5.752016  -0.754068   3.832050  -0.000073   0.068692  -0.001068
 494   6  -4.986651   3.465691   2.589168  -0.000164   0.150824  -0.001088
 495   6  -6.486829   3.432713   2.498223   0.000078   0.150824   0.000520
 496   6  -7.673319   2.518477   2.625935   0.000076   0.150824   0.000503
 497   6  -8.061616   1.096311   2.920153   0.000002   0.150824   0.000013
 498   6  -7.493161  -0.253043   3.260732   0.000023   0.150824   0.000154
 499   6  -6.200081  -0.978578   3.508598   0.000063   0.150824   0.000415
 500  20  -6.743848   1.907320  -3.257761  -0.000096   0.068478  -0.001400
 501  20  -7.551301   1.187584  -3.025543  -0.000293   0.151875  -0.001928
 502  20  -8.529136   0.780424  -2.208181  -0.000164   0.151875  -0.001077
 503  20  -9.145614   1.074030  -1.057628  -0.000272   0.151875  -0.001792
 504  20  -9.148405   1.948226  -0.044813  -0.000276   0.151875  -0.001819
 505  20  -8.536368   3.045199   0.415712  -0.000183   0.151875  -0.001207
 506  20  -7.560012   3.915948   0.135451  -0.000204   0.151875  -0.001346
 507  20  -6.618969   4.204072  -0.770884  -0.000310   0.151875  -0.002040
 508   6  -6.758905   1.312055  -3.251600  -0.000166   0.150250  -0.001105
 509   6  -7.895304   0.512617  -2.678312   0.000088   0.150250   0.000587
 510   6  -8.840516   0.445295  -1.511605   0.000085   0.150250   0.000567
 511   6  -9.207658   1.137644  -0.229020  -0.000063   0.150250  -0.000419
 512   6  -8.846458   2.306280   0.644471  -0.000033   0.150250  -0.000219
 513   6  -7.904756   3.472873   0.751343   0.000118   0.150250   0.000786
 514   6  -6.767998   4.159928   0.047852  -0.000098   0.150250  -0.000651
 515   6  -5.993553   4.227476  -0.893771   0.000059   0.083660   0.000708
 516  22  -4.667013  -2.967823   3.288071  -0.000646   0.227528  -0.002838
 517  22  -5.335694  -3.470135   2.721715  -0.000876   0.227528  -0.003850
 518   6  -5.829043  -2.084095   2.975574   0.001690   0.634135   0.002665
 519  23  -3.653812  -3.424621  -2.847064   0.000054   0.075600   0.000720
 520   6  -5.020815  -2.206183  -2.703254   0.000348   0.111137   0.003127
 521   7   1.926572  -4.253421  -1.516783   0.002203   0.276147   0.007977
 522   8   2.796895  -3.868102  -1.362436   0.005019   0.276147   0.018173
 523  10   2.383556  -3.694184  -2.313841   0.000849   0.276147   0.003076
 524   7   0.745184  -3.224181   3.727592   0.000272   0.080154   0.003388
 525   8   1.631510  -2.876347   3.670320   0.001996   0.080154   0.024903
 526  21   0.924019  -3.466173   3.691872   0.000221   0.080154   0.002755
 527   7   1.901552  -5.219229  -0.090161   0.000628   0.080154   0.007837
 528   8   2.723979  -4.761151   0.063532   0.002100   0.080154   0.026194
 529  21   1.984361  -5.295550   0.191150   0.000334   0.080154   0.004161
 530   8   1.905825  -2.441363   3.924824   0.002418   0.095509   0.025319
 531   7   0.649555  -2.986082   3.919047   0.000797   0.106357   0.007493
 532   8   3.147673  -4.494209  -0.465103   0.006131   0.324841   0.018872
 533   7   1.910062  -4.967417  -0.867803   0.002620   0.361685   0.007244
 534   7   0.920170  -4.746169  -2.248943   0.000071   0.090573   0.000789
 535  10   1.383329  -4.115864  -2.972810  -0.000111   0.090573  -0.001220
 536  23   0.745025  -4.742792  -2.500651  -0.000083   0.090573  -0.000913
 537  10   2.139500  -3.904651  -3.048649  -0.000341   0.199565  -0.001711
 538   7   1.357417  -4.797528  -2.011679   0.000995   0.285533   0.003485
 539   7  -3.277766  -1.706123   3.648935   0.000228   0.240552   0.000946
 540  15  -3.091001  -1.033252   3.922947  -0.000194   0.240552  -0.000806
 541  19  -4.097231  -0.762972   3.723412   0.000208   0.240552   0.000866
 542  15  -2.364512  -1.305052   4.332002  -0.000333   0.198061  -0.001679
 543  15  -0.937736  -1.540499   4.484843  -0.000821   0.406065  -0.002021
 544   7  -2.011304  -2.459797   4.146217   0.001017   0.542207   0.001876
 545   7  -0.368803  -2.644087   4.191533   0.001076   0.279265   0.003854
 546   7  -4.891365  -4.605826  -0.401874   0.000032   0.075619   0.000418
 547  18  -5.656997  -3.988688  -0.416325  -0.000300   0.075619  -0.003968
 548  22  -5.059538  -4.579083  -0.149765  -0.000210   0.075619  -0.002773
 549   7  -4.160353  -3.753107  -2.054306   0.000208   0.043898   0.004737
 550  18  -4.946791  -3.200769  -1.859699   0.000070   0.043898   0.001585
 551  23  -3.933673  -3.815389  -2.245158   0.000034   0.043898   0.000786
 552  18  -5.710932  -3.234362  -1.700638  -0.000573   0.224548  -0.002551
 553  18  -6.006165  -3.729108  -0.911060  -0.000851   0.224548  -0.003790
 554   7  -4.660205  -4.275896  -1.355392   0.001888   0.627980   0.003006
 555   7  -3.652308  -2.247258   3.493607  -0.000056   0.113870  -0.000492
 556  19  -4.450116  -1.292563   3.485304   0.000251   0.113870   0.002207
 557  22  -3.913598  -2.393397   3.427083  -0.000306   0.113870  -0.002691
 558  19  -4.760240  -0.762123   3.924699   0.000018   0.042424   0.000416
 559   7  -3.534187  -2.128032   3.805926   0.000245   0.062388   0.003933
 560  21   0.430914  -3.916482   3.882525  -0.000008   0.068119  -0.000115
 561  21  -0.248136  -4.791226   3.858007  -0.000135   0.151327  -0.000889
 562  21  -0.678840  -5.895287   3.234143  -0.000097   0.151327  -0.000644
 563  21  -0.485352  -6.641283   2.138829  -0.000167   0.151327  -0.001105
 564  21   0.252492  -6.721405   1.024006  -0.000212   0.151327  -0.001403
 565  21   1.230246  -6.102594   0.349669  -0.000027   0.151327  -0.000181
 566   7  -0.154959  -3.970550   3.962505   0.000042   0.149193   0.000284
 567   7  -0.930692  -5.222409   3.654759   0.000229   0.149193   0.001536
 568   7  -1.071390  -6.319715   2.635080   0.000161   0.149193   0.001076
 569   7  -0.518998  -6.809702   1.324203   0.000042   0.149193   0.000284
 570   7   0.498557  -6.490195   0.263017   0.000144   0.149193   0.000967
 571   7   1.384778  -5.766953  -0.168366   0.000281   0.083223   0.003372
 572  22  -4.753104  -5.133249   0.049362  -0.000095   0.067116  -0.001416
 573  22  -4.277556  -5.789104   0.773920  -0.000191   0.148316  -0.001287
 574  22  -3.715645  -5.967450   1.949918  -0.000213   0.148316  -0.001439
 575  22  -3.371223  -5.351011   3.059827  -0.000111   0.148316  -0.000748
 576  22  -3.380297  -4.183207   3.665363  -0.000180   0.148316  -0.001216
 577  22  -3.631465  -3.125763   3.663872  -0.000163   0.067116  -0.002425
 578   7  -4.311445  -5.520937  -0.003100  -0.000001   0.147772  -0.000006
 579   7  -3.649020  -6.160657   1.153015  -0.000008   0.147772  -0.000056
 580   7  -3.112691  -5.901413   2.505713   0.000031   0.147772   0.000210
 581   7  -2.914247  -4.845576   3.520838   0.000078   0.147772   0.000525
 582   7  -3.132049  -3.410079   3.797533  -0.000032   0.147772  -0.000217
 583  23   0.380549  -5.349998  -2.268760   0.000053   0.072172   0.000735
 584  23  -0.527263  -6.031467  -2.038942  -0.000238   0.161667  -0.001473
 585  23  -1.916429  -6.166558  -1.970556  -0.000261   0.161667  -0.001616
 586  23  -3.087992  -5.433459  -2.177232  -0.000224   0.161667  -0.001387
 587  23  -3.572691  -4.426796  -2.482252  -0.000013   0.072172  -0.000176
 588   7   0.238202  -5.714848  -1.800480   0.000228   0.156891   0.001453
 589   7  -1.175510  -6.357113  -1.573346  -0.000002   0.156891  -0.000011
 590   7  -2.701575  -6.000731  -1.655760  -0.000071   0.156891  -0.000451
 591   7  -3.654790  -4.805716  -2.010718   0.000134   0.156891   0.000853
 592  10   2.995128  -3.574976  -2.891808   0.000264   0.164430   0.001606
 593   8   3.512658  -3.857438  -1.500823   0.002554   0.205144   0.012449
 594   8   2.124096  -0.477222   4.095103   0.003658   0.271477   0.013474
 595  13   1.924417   0.463658   4.410795   0.000160   0.271477   0.000588
 596  15   1.145094  -0.147871   4.301035   0.000343   0.271477   0.001263
 597  13   2.709151   0.762455   4.736927  -0.000032   0.319034  -0.000100
 598  13   3.880476   1.159783   4.536186   0.000232   0.319034   0.000727
 599   8   3.659842  -0.350738   4.169930   0.011351   0.784354   0.014471
 600  15   0.599461  -1.024553   4.426499   0.000832   0.290955   0.002859
 601   8   2.061907  -1.369195   4.191681   0.005180   0.362971   0.014270
 602  21   2.167539  -5.489565   0.582830   0.000927   0.227328   0.004077
 603  21   2.282414  -5.431705   1.843102   0.000785   0.458346   0.001713
 604  21   1.883649  -4.743727   3.159627   0.000594   0.458346   0.001296
 605  21   1.211418  -3.839999   3.739464   0.000681   0.227328   0.002997
 606   8   3.378462  -4.837052   0.904154   0.010286   0.555541   0.018516
 607   8   3.297779  -4.481984   2.552764   0.009962   0.555541   0.017932
 608   8   2.553513  -3.413793   3.627722   0.009733   0.555541   0.017519
 609  24   6.097387  -0.452013   2.957018  -0.000593   0.082483  -0.007190
 610  24   6.393416  -1.615493   2.709931  -0.001828   0.178818  -0.010223
 611  24   6.531681  -2.714691   1.718853  -0.002005   0.178818  -0.011214
 612  24   6.355251  -3.029897   0.276941  -0.001736   0.178818  -0.009707
 613  24   6.037680  -2.664729  -0.849190  -0.000555   0.082483  -0.006726
 614   8   5.864325  -1.028059   3.153429  -0.000527   0.176738  -0.002979
 615   8   6.169372  -2.471586   2.513421  -0.001035   0.176738  -0.005856
 616   8   6.147563  -3.279792   1.123183  -0.001040   0.176738  -0.005885
 617   8   5.807950  -3.117291  -0.440367  -0.000572   0.176738  -0.003234
 618   9   6.263855   1.264191  -1.584995  -0.002015   0.275913  -0.007303
 619  14   6.330131   1.868810  -0.688388  -0.002170   0.275913  -0.007865
 620  24   6.497768   0.889482  -0.675622  -0.004837   0.275913  -0.017531
 621  14   6.500969   2.631181  -0.951053  -0.000722   0.291273  -0.002479
 622  14   5.863595   3.583483  -1.547907  -0.001329   0.582726  -0.002281
 623   9   6.200883   2.156274  -2.464159  -0.001648   0.582726  -0.002828
 624   9   5.455719   3.055138  -3.017454  -0.000021   0.291273  -0.000071
 625  24   6.492623  -1.529460  -1.501312  -0.002626   0.288875  -0.009089
 626  24   6.862158  -0.296667  -1.075811  -0.008372   0.578454  -0.014474
 627   9   6.369220  -0.525266  -2.638452  -0.002509   0.578454  -0.004337
 628   9   6.605927   0.725892  -2.173737  -0.001175   0.288875  -0.004067
 629  10  -0.866876  -2.122159  -4.387158  -0.000517   0.303184  -0.001706
 630  17  -1.869326  -1.679421  -4.158544  -0.000389   0.303184  -0.001284
 631  23  -1.568582  -2.676508  -3.888515  -0.000671   0.303184  -0.002212
 632  17  -2.006639  -0.999861  -4.826659  -0.000319   0.263185  -0.001212
 633  10  -0.614721  -1.737866  -5.059708   0.000125   0.263185   0.000475
 634  23  -1.378246  -3.441560  -4.082183  -0.000467   0.227905  -0.002050
 635  23  -0.646496  -4.226358  -3.929863  -0.001335   0.455781  -0.002929
 636  23   0.315823  -4.773510  -3.201146  -0.000569   0.455781  -0.001248
 637  10  -0.122357  -2.972880  -4.762313  -0.001377   0.455781  -0.003021
 638  10   0.829210  -3.799602  -4.353031  -0.001678   0.455781  -0.003682
 639  10   1.580385  -4.079314  -3.623604  -0.000462   0.227905  -0.002028
 640  11   0.081725   4.260129  -2.839638  -0.000801   0.285851  -0.002804
 641  12   0.122037   4.865536  -1.902813  -0.001152   0.285851  -0.004029
 642  16  -0.727993   4.566008  -2.163352  -0.000858   0.285851  -0.003001
 643  12   1.511376   5.339706  -2.073913   0.000025   0.234838   0.000106
 644  12   0.725185   5.298760  -2.009826  -0.000222   0.234838  -0.000945
 645  11   1.052720   4.479794  -3.382481  -0.000797   0.469438  -0.001698
 646  16  -1.390638   4.517351  -2.686735   0.000137   0.330087   0.000416
 647  11  -0.370129   4.050451  -3.781250  -0.000795   0.330087  -0.002408
 648  17  -2.241895   2.047441  -4.815873   0.000030   0.252141   0.000118
 649  17  -2.041388   1.175642  -5.180224  -0.000311   0.252141  -0.001232
 650  11  -0.892711   2.023520  -5.296505  -0.001263   0.504775  -0.002502
 651  16  -2.059690   4.969043   1.088779  -0.000494   0.240660  -0.002053
 652  16  -1.909861   5.487252  -0.011621  -0.002110   0.481757  -0.004381
 653  16  -1.424588   5.316458  -1.409232  -0.002116   0.481757  -0.004391
 654  12  -0.818487   5.622630   1.042767  -0.001750   0.481757  -0.003633
 655  12  -0.506228   5.955202  -0.374931  -0.002601   0.481757  -0.005399
 656  12  -0.042916   5.561368  -1.438936  -0.000963   0.240660  -0.004002
 657  15   0.550890   0.150287   4.814413  -0.000150   0.269621  -0.000555
 658  15  -0.254029   1.153826   4.905345  -0.001159   0.539719  -0.002147
 659  15  -0.944810   2.113721   4.390877  -0.000154   0.269621  -0.000570
 660  13   1.339349   1.399904   5.032193  -0.001333   0.539719  -0.002470
 661  13   0.407439   2.623240   4.768304  -0.000804   0.539719  -0.001490
 662  24   6.976978   0.807621  -0.005770  -0.003842   0.267630  -0.014357
 663  24   6.928876   0.822624   1.277856  -0.007222   0.535729  -0.013481
 664  14   6.778865   2.205791   0.464398  -0.003065   0.535729  -0.005721
 665  14   6.608898   2.201513   1.737712  -0.000573   0.267630  -0.002141
 666  19  -4.513582  -0.224426   4.237725   0.000055   0.245703   0.000224
 667  19  -4.294867   0.859867   4.433605  -0.000593   0.491327  -0.001207
 668  19  -3.966089   2.093809   3.936097  -0.000497   0.491327  -0.001012
 669  15  -2.971081  -0.139333   4.503286  -0.000245   0.491327  -0.000498
 670  15  -2.669529   1.196708   4.455530  -0.000432   0.491327  -0.000879
 671  15  -2.401615   2.096504   3.838693   0.000065   0.245703   0.000266
 672  20  -5.908113   4.244825  -1.429705   0.000143   0.034459   0.004158
 673  16  -4.498232   4.639481  -1.413041   0.000141   0.034459   0.004104
 674  23  -3.143982  -3.202240  -3.374219   0.000024   0.281746   0.000084
 675  23  -2.303869  -3.080111  -3.844777  -0.000210   0.281746  -0.000747
 676  17  -3.142345  -1.728261  -3.989818  -0.000504   0.563626  -0.000894
 677  22  -5.657416  -3.888891   2.197864  -0.000660   0.207778  -0.003175
 678  22  -5.654810  -4.436181   1.223719  -0.001662   0.415816  -0.003998
 679  22  -5.351741  -4.662451   0.172318  -0.000218   0.207778  -0.001048
 680  18  -6.588826  -3.362855   1.411051  -0.001274   0.415816  -0.003064
 681  18  -6.398174  -3.845331   0.147701  -0.001836   0.415816  -0.004415
 682  23  -3.913393  -3.782339  -2.611552   0.000468   0.176265   0.002653
 683  18  -5.410887  -2.878612  -2.197161   0.000322   0.176265   0.001825
 684  22  -4.234076  -2.552034   3.592423   0.000315   0.162513   0.001936
 685  19  -5.101439  -1.036921   3.865327   0.000406   0.162513   0.002497
 =====================================================


   1 warning(s) detected.
     A line exceeding 80 characters begins with "http://cactus.nci.ni".
 There may be a problem in your input file.

              5552099  WORDS OF DYNAMIC MEMORY USED
 EXECUTION OF GAMESS TERMINATED NORMALLY Wed Nov 23 04:24:23 2016
 DDI: 263640 bytes (0.3 MB / 0 MWords) used by master data server.

 ----------------------------------------
 CPU timing information for all processes
 ========================================
 0: 3707.468 + 1.88 = 3708.556
 ----------------------------------------
 ddikick.x: exited gracefully.
