----- GAMESS execution script -----

          ******************************************************
          *         GAMESS VERSION =  5 DEC 2014 (R1)          *
          *             FROM IOWA STATE UNIVERSITY             *
          * M.W.SCHMIDT, K.K.BALDRIDGE, J.A.BOATZ, S.T.ELBERT, *
          *   M.S.GORDON, J.H.JENSEN, S.KOSEKI, N.MATSUNAGA,   *
          *          K.A.NGUYEN, S.J.SU, T.L.WINDUS,           *
          *       TOGETHER WITH M.DUPUIS, J.A.MONTGOMERY       *
          *         J.COMPUT.CHEM.  14, 1347-1363(1993)        *
          **************** 64 BIT LINUX VERSION ****************

 EXECUTION OF GAMESS BEGUN Wed Nov 23 05:14:46 2016

            ECHO OF THE FIRST FEW INPUT CARDS -
 INPUT CARD>! SELECT RESTRICTED HARTREE-FOCK AS DEFAULT                                     
 INPUT CARD>$contrl scftyp=rhf $end                                                         
 INPUT CARD>                                                                                
 INPUT CARD>! THEORY: HF OR DFT                                                             
 INPUT CARD> $contrl mplevl=0 $end                                                          
 INPUT CARD>                                                                                
 INPUT CARD> $system timlim=10000 mwords=20 $end                                            
 INPUT CARD> $SCF DIRSCF=.TRUE. $end                                                        
 INPUT CARD>                                                                                
 INPUT CARD>                                                                                
 INPUT CARD>! BASIS SETS                                                                    
 INPUT CARD>! 6-311G(d,p)                                                                   
 INPUT CARD> $BASIS GBASIS=N311 NGAUSS=6 NDFUNC=1 NPFUNC=1 $END                             
 INPUT CARD>                                                                                
 INPUT CARD>! One of the following                                                          
 INPUT CARD> $guess guess=HUCKEL $end                                                       
 INPUT CARD>                                                                                
 INPUT CARD> $statpt projct=.FALSE. $end                                                    
 INPUT CARD> $STATPT IFREEZ(1)=1,2,3 $END                                                   
 INPUT CARD>                                                                                
 INPUT CARD>! Optimize the geometry with COSMO effects                                      
 INPUT CARD> $statpt opttol=0.0005 nstep=50 $end                                            
 INPUT CARD> $contrl nzvar=1 $end                                                           
 INPUT CARD> $zmat dlc=.t. auto=.t. $end                                                    
 INPUT CARD> $contrl runtyp=OPTIMIZE maxit=200 $end                                         
 INPUT CARD>                                                                                
 INPUT CARD>! Run COSMO on perfect conductor                                                
 INPUT CARD> $COSGMS PRFCND=.TRUE. $end                                                     
 INPUT CARD>                                                                                
 INPUT CARD>! Specifying RSOLV                                                              
 INPUT CARD> $COSGMS COSRAD = 1.4 $end                                                      
 INPUT CARD>                                                                                
 INPUT CARD>! available memory                                                              
 INPUT CARD> $SYSTEM MWORDS=40 $END                                                         
 INPUT CARD>                                                                                
 INPUT CARD> $DATA                                                                          
 INPUT CARD>Hexane, 2,4-dimethyl-, ID: C589435                                              
 INPUT CARD>C1                                                                              
 INPUT CARD>C      6.0      4.5583000000    2.7747000000    2.2818000000                    
 INPUT CARD>C      6.0      3.3729000000    1.9626000000    1.7514000000                    
 INPUT CARD>C      6.0      2.0954000000    2.8086000000    1.7795000000                    
 INPUT CARD>C      6.0      3.1605000000    0.6868000000    2.5517000000                    
 INPUT CARD>C      6.0      5.9117000000    2.3086000000    1.7351000000                    
 INPUT CARD>C      6.0      0.9496000000    2.1075000000    1.0829000000                    
 INPUT CARD>C      6.0      6.4468000000    1.1091000000    2.5000000000                    
 INPUT CARD>C      6.0      6.9203000000    3.4465000000    1.7960000000                    
 INPUT CARD>H      1.0      4.4140000000    3.8407000000    2.0065000000                    
 INPUT CARD>H      1.0      4.5700000000    2.7573000000    3.3902000000                    
 INPUT CARD>H      1.0      3.5775000000    1.6838000000    0.6873000000                    
 INPUT CARD>H      1.0      1.8231000000    3.0346000000    2.8297000000                    
   40000000 WORDS OF MEMORY AVAILABLE

     BASIS OPTIONS
     -------------
     GBASIS=N311         IGAUSS=       6      POLAR=POPN311 
     NDFUNC=       1     NFFUNC=       0     DIFFSP=       F
     NPFUNC=       1      DIFFS=       F     BASNAM=        


     RUN TITLE
     ---------
 Hexane, 2,4-dimethyl-, ID: C589435                                              

 THE POINT GROUP OF THE MOLECULE IS C1      
 THE ORDER OF THE PRINCIPAL AXIS IS     0

 ATOM      ATOMIC                      COORDINATES (BOHR)
           CHARGE         X                   Y                   Z
 C           6.0     8.6139379698        5.2434226981        4.3119767588
 C           6.0     6.3738567840        3.7087762235        3.3096660949
 C           6.0     3.9597318347        5.3074844091        3.3627673952
 C           6.0     5.9724789842        1.2978638084        4.8220138029
 C           6.0    11.1714931216        4.3626214153        3.2788635613
 C           6.0     1.7944837979        3.9825975191        2.0463842721
 C           6.0    12.1826854976        2.0958950930        4.7243149693
 C           6.0    13.0774707528        6.5129406167        3.3939478739
 H           1.0     8.3412505098        7.2578706010        3.7917351944
 H           1.0     8.6360477639        5.2105414659        6.4065490436
 H           1.0     6.7604947211        3.1819206181        1.2988086714
 H           1.0     3.4451594482        5.7345624823        5.3473576275
 H           1.0     4.3097090876        7.1635732743        2.4577776196
 H           1.0     5.7300271400        1.6871473618        6.8462882809
 H           1.0     4.2566077873        0.3123717058        4.1689245015
 H           1.0     7.5872498407        0.0000000000        4.6264271631
 H           1.0    10.9239390172        3.8064750571        1.2547780558
 H           1.0     1.5784881175        2.0375025600        2.7654250104
 H           1.0     0.0000000000        4.9754595531        2.3411815262
 H           1.0     2.1064775585        3.8482380014        0.0000000000
 H           1.0    13.9645081315        1.4148378470        3.9098430686
 H           1.0    12.5440011065        2.5556654258        6.7157082152
 H           1.0    10.8271850467        0.5143834139        4.6882212029
 H           1.0    13.3320168434        7.2025016296        5.3348854359
 H           1.0    14.9369611247        5.9067165198        2.7021191898
 H           1.0    12.4808842585        8.1271445554        2.2342230353

          INTERNUCLEAR DISTANCES (ANGS.)




     $CONTRL OPTIONS
     ---------------
 SCFTYP=RHF          RUNTYP=OPTIMIZE     EXETYP=RUN     
 MPLEVL=       0     CITYP =NONE         CCTYP =NONE         VBTYP =NONE    
 DFTTYP=NONE         TDDFT =NONE    
 MULT  =       1     ICHARG=       0     NZVAR =       1     COORD =UNIQUE  
 PP    =NONE         RELWFN=NONE         LOCAL =NONE         NUMGRD=       F
 ISPHER=      -1     NOSYM =       0     MAXIT =     200     UNITS =ANGS    
 PLTORB=       F     MOLPLT=       F     AIMPAC=       F     FRIEND=        
 NPRINT=       7     IREST =       0     GEOM  =INPUT   
 NORMF =       0     NORMP =       0     ITOL  =      20     ICUT  =       9
 INTTYP=BEST         GRDTYP=BEST         QMTTOL= 1.0E-06

     $SYSTEM OPTIONS
     ---------------
  REPLICATED MEMORY=    40000000 WORDS (ON EVERY NODE).
 DISTRIBUTED MEMDDI=           0 MILLION WORDS IN AGGREGATE,
 MEMDDI DISTRIBUTED OVER   1 PROCESSORS IS           0 WORDS/PROCESSOR.
 TOTAL MEMORY REQUESTED ON EACH PROCESSOR=    40000000 WORDS.
 TIMLIM=       10000.00 MINUTES, OR       6.9 DAYS.
 PARALL= F  BALTYP=  DLB     KDIAG=    0  COREFL= F
 MXSEQ2=     300 MXSEQ3=     150  mem10=         0

     $COSGMS OPTIONS
     ---------------
     EPSI  =   INFTY     NSPA  =      92     COSRAD=    1.40
     DISEX =   10.00     OUTCHG=DBLCAV       COSBUG=       F
     COSWRT=       F     DCOSMO=       F

     SYMMETRY COORDINATES WILL NOT BE USED FOR 
     THE COSMO CALCULATION, EVEN IF SPECIFIED:
         -- SWITCHING TO C1 POINT GROUP --


     DEFINITION OF CAVITY
     ---------------------------
     ATOM         COORDINATES           RADIUS 
     1    8.6139    5.2434    4.3120    2.0000
     2    6.3739    3.7088    3.3097    2.0000
     3    3.9597    5.3075    3.3628    2.0000
     4    5.9725    1.2979    4.8220    2.0000
     5   11.1715    4.3626    3.2789    2.0000
     6    1.7945    3.9826    2.0464    2.0000
     7   12.1827    2.0959    4.7243    2.0000
     8   13.0775    6.5129    3.3939    2.0000
     9    8.3413    7.2579    3.7917    1.3000
    10    8.6360    5.2105    6.4065    1.3000
    11    6.7605    3.1819    1.2988    1.3000
    12    3.4452    5.7346    5.3474    1.3000
    13    4.3097    7.1636    2.4578    1.3000
    14    5.7300    1.6871    6.8463    1.3000
    15    4.2566    0.3124    4.1689    1.3000
    16    7.5872    0.0000    4.6264    1.3000
    17   10.9239    3.8065    1.2548    1.3000
    18    1.5785    2.0375    2.7654    1.3000
    19    0.0000    4.9755    2.3412    1.3000
    20    2.1065    3.8482    0.0000    1.3000
    21   13.9645    1.4148    3.9098    1.3000
    22   12.5440    2.5557    6.7157    1.3000
    23   10.8272    0.5144    4.6882    1.3000
    24   13.3320    7.2025    5.3349    1.3000
    25   14.9370    5.9067    2.7021    1.3000
    26   12.4809    8.1271    2.2342    1.3000

          ----------------
          PROPERTIES INPUT
          ----------------

     MOMENTS            FIELD           POTENTIAL          DENSITY
 IEMOM =       1   IEFLD =       0   IEPOT =       0   IEDEN =       0
 WHERE =COMASS     WHERE =NUCLEI     WHERE =NUCLEI     WHERE =NUCLEI  
 OUTPUT=BOTH       OUTPUT=BOTH       OUTPUT=BOTH       OUTPUT=BOTH    
 IEMINT=       0   IEFINT=       0                     IEDINT=       0
                                                       MORB  =       0
          EXTRAPOLATION IN EFFECT
          SOSCF IN EFFECT
 ORBITAL PRINTING OPTION: NPREO=     1   260     2     1

     -------------------------------
     INTEGRAL TRANSFORMATION OPTIONS
     -------------------------------
     NWORD  =            0
     CUTOFF = 1.0E-09     MPTRAN =       0
     DIRTRF =       T     AOINTS =DUP     

          ----------------------
          INTEGRAL INPUT OPTIONS
          ----------------------
 NOPK  =       1 NORDER=       0 SCHWRZ=       T


 -----------------------------------------------
  STATISTICS ON AUTOMATIC COORDINATE GENERATION 
 -----------------------------------------------
  NUMBER OF USER SPECIFIED BONDS                             0
  NUMBER OF BONDS                                           25
  NUMBER OF ANGLES                                          48
  NUMBER OF TORSIONS                                        63
  NUMBER OF EXTRA COORD.                                     0
  NUMBER OF EXTRA COORD. FOR CONSTRAINTS                     0
  NUMBER OF CONSTRAINED COORD.                               0

  TOTAL NUMBER OF PRIMITIVES                               136
 -----------------------------------------------

   --- ENCODED Z MATRIX ---
 COORD  TYPE   I   J   K   L   M   N
    1      1    1  10
    2      1    1   5
    3      1    1   9
    4      1    1   2
    5      1    2   4
    6      1    2  11
    7      1    2   3
    8      1    3  13
    9      1    3  12
   10      1    3   6
   11      1    4  15
   12      1    4  14
   13      1    4  16
   14      1    5   8
   15      1    5   7
   16      1    5  17
   17      1    6  20
   18      1    6  19
   19      1    6  18
   20      1    7  23
   21      1    7  22
   22      1    7  21
   23      1    8  26
   24      1    8  25
   25      1    8  24
   26      2    1   2   4
   27      2    1   2  11
   28      2    1   5  17
   29      2    1   5   7
   30      2    1   2   3
   31      2    1   5   8
   32      2    2   3  13
   33      2    2   1   5
   34      2    2   4  15
   35      2    2   1   9
   36      2    2   4  16
   37      2    2   1  10
   38      2    2   4  14
   39      2    2   3   6
   40      2    2   3  12
   41      2    3   2   4
   42      2    3   6  19
   43      2    3   6  20
   44      2    3   2  11
   45      2    3   6  18
   46      2    4   2  11
   47      2    5   7  21
   48      2    5   1  10
   49      2    5   7  22
   50      2    5   7  23
   51      2    5   8  25
   52      2    5   8  26
   53      2    5   1   9
   54      2    5   8  24
   55      2    6   3  12
   56      2    6   3  13
   57      2    7   5   8
   58      2    7   5  17
   59      2    8   5  17
   60      2    9   1  10
   61      2   12   3  13
   62      2   14   4  16
   63      2   14   4  15
   64      2   15   4  16
   65      2   18   6  19
   66      2   18   6  20
   67      2   19   6  20
   68      2   21   7  22
   69      2   21   7  23
   70      2   22   7  23
   71      2   24   8  25
   72      2   24   8  26
   73      2   25   8  26
   74      3    1   5   8  24
   75      3    1   5   8  25
   76      3    1   5   8  26
   77      3    1   2   4  16
   78      3    1   2   3   6
   79      3    1   2   3  12
   80      3    1   2   3  13
   81      3    1   2   4  14
   82      3    1   5   7  21
   83      3    1   5   7  22
   84      3    1   5   7  23
   85      3    1   2   4  15
   86      3    2   1   5   7
   87      3    2   3   6  18
   88      3    2   3   6  19
   89      3    2   3   6  20
   90      3    2   1   5  17
   91      3    2   1   5   8
   92      3    3   2   4  14
   93      3    3   2   4  16
   94      3    3   2   1   9
   95      3    3   2   4  15
   96      3    3   2   1   5
   97      3    3   2   1  10
   98      3    4   2   3  12
   99      3    4   2   3   6
  100      3    4   2   1   9
  101      3    4   2   1   5
  102      3    4   2   1  10
  103      3    4   2   3  13
  104      3    5   1   2  11
  105      3    6   3   2  11
  106      3    7   5   1   9
  107      3    7   5   1  10
  108      3    7   5   8  24
  109      3    7   5   8  26
  110      3    7   5   8  25
  111      3    8   5   1   9
  112      3    8   5   1  10
  113      3    8   5   7  23
  114      3    8   5   7  22
  115      3    8   5   7  21
  116      3    9   1   5  17
  117      3    9   1   2  11
  118      3   10   1   2  11
  119      3   10   1   5  17
  120      3   11   2   3  12
  121      3   11   2   4  14
  122      3   11   2   4  16
  123      3   11   2   4  15
  124      3   11   2   3  13
  125      3   12   3   6  18
  126      3   12   3   6  20
  127      3   12   3   6  19
  128      3   13   3   6  18
  129      3   13   3   6  20
  130      3   13   3   6  19
  131      3   17   5   8  24
  132      3   17   5   8  26
  133      3   17   5   8  25
  134      3   17   5   7  23
  135      3   17   5   7  22
  136      3   17   5   7  21

          INDEP./SYM. INTERNAL COORDINATES
          --------------------------------
 CRD  1=   0.1828 ( 26)  0.1430 ( 29) -0.3147 ( 30) -0.1640 ( 31) -0.1153 ( 32)
           0.5531 ( 33) -0.2172 ( 35) -0.1280 ( 37)  0.3171 ( 39) -0.1679 ( 48)
          -0.1705 ( 53) -0.1228 ( 77) -0.1080 ( 81) -0.1165 ( 85) -0.1242 ( 86)
           0.1054 ( 92)
 CRD  2=  -0.1561 (  2) -0.3687 ( 29) -0.2227 ( 30)  0.2305 ( 31) -0.1845 ( 33)
           0.1283 ( 37)  0.3192 ( 39) -0.1245 ( 40)  0.1966 ( 41) -0.1237 ( 46)
           0.1973 ( 53)  0.1213 ( 58) -0.1270 ( 59) -0.1245 ( 74) -0.1185 ( 75)
          -0.1449 ( 76) -0.1002 ( 84)  0.1201 ( 95) -0.1452 ( 96) -0.1433 (100)
          -0.2556 (101) -0.1234 (102) -0.1523 (104)  0.1214 (108)  0.1010 (109)
           0.1275 (110)
 CRD  3=   0.1594 (  2)  0.1946 (  4)  0.1713 (  7)  0.1355 ( 10) -0.2510 ( 26)
           0.2448 ( 30)  0.1450 ( 31)  0.2929 ( 33) -0.1864 ( 37)  0.1455 ( 39)
           0.1191 ( 43) -0.1522 ( 48)  0.1117 ( 52) -0.1311 ( 55) -0.1090 ( 57)
          -0.1105 ( 75)  0.2712 ( 78)  0.1731 ( 79)  0.1740 ( 80)  0.1580 ( 86)
           0.1470 ( 90)  0.2631 ( 91) -0.2404 ( 96) -0.1120 ( 97) -0.1252 (101)
           0.1157 (112)
 CRD  4=   0.1636 (  2)  0.2384 (  4)  0.3738 ( 26) -0.1405 ( 27) -0.1039 ( 29)
           0.2483 ( 31)  0.1064 ( 32) -0.1312 ( 34) -0.1285 ( 35) -0.2128 ( 39)
          -0.3566 ( 41)  0.1272 ( 44) -0.1071 ( 48) -0.1467 ( 57)  0.1219 ( 58)
          -0.1395 ( 79) -0.1054 ( 80) -0.1779 ( 86) -0.1183 ( 90) -0.1271 ( 94)
          -0.1526 ( 96) -0.1411 ( 97)  0.1082 ( 98)  0.1599 ( 99)  0.1422 (103)
          -0.1062 (106)  0.1028 (115)
 CRD  5=   0.2418 (  2)  0.2066 (  4)  0.2434 (  7)  0.1801 ( 10) -0.1706 ( 28)
           0.2054 ( 29)  0.1870 ( 31) -0.2076 ( 33)  0.1024 ( 37)  0.3310 ( 39)
           0.1409 ( 45)  0.1101 ( 48) -0.1786 ( 56) -0.3110 ( 57)  0.1246 ( 74)
          -0.1329 ( 78) -0.1197 ( 83) -0.1573 ( 86)  0.1428 ( 96) -0.1168 ( 99)
          -0.1016 (109)
 CRD  6=   0.1311 (  4)  0.2953 (  5) -0.1602 (  7)  0.2357 ( 14) -0.2867 ( 15)
           0.1399 ( 26) -0.1551 ( 29) -0.1471 ( 30)  0.1935 ( 31) -0.1042 ( 32)
           0.1494 ( 35)  0.1624 ( 36) -0.1624 ( 37)  0.1662 ( 48) -0.1770 ( 50)
           0.1523 ( 52) -0.1454 ( 53) -0.1119 ( 82)  0.2059 ( 86)  0.1145 ( 90)
           0.1794 ( 91)  0.1078 ( 94)  0.1899 ( 96)  0.1001 ( 97)  0.1124 (100)
           0.1945 (101)  0.1047 (102)  0.1204 (104)  0.1224 (106)  0.1171 (107)
 CRD  7=  -0.1697 (  4) -0.1168 (  7) -0.1755 ( 10) -0.2273 ( 14) -0.1800 ( 15)
           0.1305 ( 27) -0.1208 ( 28)  0.1456 ( 29) -0.1743 ( 30)  0.1701 ( 31)
          -0.2146 ( 39)  0.1076 ( 40)  0.2099 ( 41) -0.1404 ( 45) -0.1011 ( 46)
          -0.1324 ( 47) -0.1202 ( 49)  0.1227 ( 50) -0.1582 ( 51)  0.1217 ( 52)
          -0.1275 ( 54)  0.1341 ( 56) -0.3912 ( 57)  0.1030 ( 59)  0.1070 ( 78)
          -0.1095 ( 86)  0.1705 ( 91) -0.1092 (101) -0.1153 (106) -0.1550 (107)
           0.1647 (111)  0.1250 (112)
 CRD  8=   0.1811 (  2)  0.2387 (  5)  0.2068 (  7)  0.1633 ( 14) -0.1527 ( 26)
          -0.1408 ( 29)  0.1257 ( 32)  0.2456 ( 33)  0.1999 ( 34) -0.1138 ( 35)
          -0.3209 ( 39)  0.1518 ( 40)  0.2417 ( 41)  0.1675 ( 42) -0.2039 ( 43)
          -0.1497 ( 44) -0.1081 ( 48)  0.1672 ( 55) -0.1627 ( 78) -0.1073 ( 92)
           0.1327 ( 94)  0.1020 ( 97) -0.1923 ( 99) -0.1081 (101) -0.1005 (102)
          -0.1414 (105)
 CRD  9=   0.1810 (  4)  0.1415 (  7)  0.1660 ( 14)  0.2306 ( 15) -0.1167 ( 32)
          -0.1007 ( 33) -0.1229 ( 36)  0.2253 ( 38)  0.2037 ( 40)  0.1579 ( 41)
           0.1940 ( 43) -0.1981 ( 45) -0.1586 ( 46)  0.1491 ( 49)  0.1371 ( 54)
          -0.1816 ( 55)  0.1951 ( 56)  0.1972 ( 78)  0.1272 ( 87)  0.1254 ( 89)
           0.1599 ( 98)  0.2975 ( 99) -0.1045 (102)  0.1793 (103)  0.1713 (105)
 CRD 10=  -0.2308 (  2)  0.2097 (  4)  0.2191 (  5)  0.2641 (  7)  0.2210 ( 10)
          -0.3119 ( 14) -0.3090 ( 15) -0.1295 ( 31)  0.1102 ( 35)  0.1274 ( 37)
           0.2107 ( 38)  0.1082 ( 42) -0.1121 ( 48) -0.1869 ( 49) -0.2232 ( 54)
          -0.1073 ( 62)  0.1188 ( 70)  0.1288 ( 72) -0.1031 ( 93) -0.1127 (113)
 CRD 11=  -0.1010 (  2) -0.1413 (  3) -0.4426 (  5) -0.1525 (  7)  0.2138 ( 10)
          -0.2308 ( 15) -0.1064 ( 29) -0.1913 ( 32)  0.1337 ( 33) -0.1076 ( 34)
          -0.1082 ( 36) -0.1456 ( 38)  0.1121 ( 40) -0.1224 ( 44)  0.1488 ( 45)
          -0.1414 ( 49) -0.1487 ( 52)  0.1900 ( 54)  0.1138 ( 56)  0.1339 ( 62)
           0.1238 ( 63)  0.1256 ( 64)  0.1446 ( 87)  0.1597 ( 88)  0.1464 ( 89)
          -0.1259 ( 91)  0.1513 ( 96)  0.1054 (101)
 CRD 12=  -0.1079 (  5) -0.1509 (  7)  0.2799 ( 14)  0.2211 ( 15)  0.1665 ( 45)
           0.2029 ( 47) -0.2680 ( 49)  0.2490 ( 50)  0.2425 ( 51)  0.3284 ( 52)
          -0.3403 ( 54)  0.1142 ( 59) -0.1798 ( 69) -0.2210 ( 73)  0.1451 (109)
          -0.1649 (113) -0.1207 (114)
 CRD 13=  -0.2812 (  2)  0.1714 (  5)  0.1255 ( 15)  0.2081 ( 34)  0.2486 ( 36)
          -0.3107 ( 38)  0.2728 ( 43) -0.2586 ( 45) -0.2035 ( 49)  0.2228 ( 50)
           0.1290 ( 54)  0.1281 ( 58) -0.1805 ( 64) -0.1332 ( 67) -0.1088 ( 69)
          -0.1090 ( 86) -0.1315 ( 88)  0.1160 (110)
 CRD 14=   0.2863 (  2) -0.1655 (  4)  0.2007 (  7) -0.3719 ( 10)  0.1033 ( 36)
           0.1425 ( 40) -0.1836 ( 42) -0.1559 ( 45)  0.2843 ( 47)  0.1157 ( 48)
          -0.3345 ( 49)  0.1545 ( 51) -0.1263 ( 52) -0.1988 ( 55)  0.1510 ( 65)
           0.1449 ( 70)  0.1011 ( 81)
 CRD 15=   0.1431 (  2) -0.3734 (  4)  0.1844 (  7)  0.3445 ( 10) -0.1075 ( 11)
          -0.3242 ( 34)  0.3033 ( 36) -0.1137 ( 37)  0.3733 ( 42)  0.1065 ( 48)
           0.1177 ( 52) -0.1388 ( 62)  0.1305 ( 63) -0.1421 ( 65) -0.1793 ( 67)
 CRD 16=   0.1219 (  2)  0.1007 (  4) -0.2160 (  7) -0.3503 ( 14)  0.2706 ( 15)
          -0.1041 ( 20)  0.1186 ( 22)  0.1326 ( 34)  0.4658 ( 47) -0.2785 ( 50)
          -0.2983 ( 51) -0.2413 ( 68)  0.1927 ( 71)  0.1034 ( 73)
 CRD 17=   0.2804 (  2) -0.2290 (  7)  0.2483 ( 10) -0.1562 ( 15)  0.1049 ( 24)
           0.2042 ( 34) -0.2689 ( 36)  0.1170 ( 38) -0.1712 ( 40)  0.2920 ( 43)
          -0.1357 ( 45) -0.1179 ( 49)  0.3494 ( 51) -0.2587 ( 52)  0.1305 ( 55)
          -0.1406 ( 63) -0.1605 ( 67) -0.1298 ( 71)  0.1335 ( 72) -0.1192 ( 88)
 CRD 18=  -0.1679 (  4)  0.1173 (  5)  0.1399 ( 12) -0.2066 ( 34) -0.1367 ( 36)
           0.4475 ( 38) -0.2207 ( 42)  0.1721 ( 43) -0.2244 ( 49)  0.2887 ( 50)
          -0.2578 ( 51)  0.2696 ( 54) -0.1438 ( 62) -0.1078 ( 63)  0.1446 ( 64)
           0.1069 ( 68) -0.1125 ( 69) -0.1243 ( 72)
 CRD 19=  -0.1062 (  3) -0.1102 (  4)  0.1280 ( 17) -0.1006 ( 18) -0.1055 ( 25)
          -0.1447 ( 34) -0.1632 ( 35)  0.1327 ( 36) -0.3269 ( 42)  0.3913 ( 43)
          -0.1217 ( 44) -0.1767 ( 47)  0.2877 ( 49) -0.1190 ( 50)  0.2015 ( 52)
          -0.2908 ( 54)  0.1651 ( 65) -0.1512 ( 66)  0.1355 ( 69) -0.1384 ( 73)
          -0.1033 ( 86) -0.1110 ( 90) -0.1081 ( 91)
 CRD 20=   0.1134 ( 23) -0.1642 ( 27)  0.1570 ( 28) -0.1454 ( 32)  0.3149 ( 34)
          -0.2670 ( 36)  0.1422 ( 42) -0.2245 ( 45) -0.1491 ( 47)  0.1186 ( 50)
          -0.2297 ( 51)  0.3279 ( 52) -0.1138 ( 55)  0.1032 ( 57)  0.1634 ( 62)
           0.1481 ( 71) -0.1005 ( 72) -0.1111 ( 75) -0.1149 ( 76)  0.1389 ( 77)
          -0.1007 ( 79) -0.1190 ( 80)  0.1049 ( 84)  0.1204 ( 85)
 CRD 21=  -0.1916 (  2) -0.1707 (  3) -0.1808 (  5) -0.1208 ( 10)  0.1307 ( 14)
          -0.1059 ( 19) -0.1255 ( 28)  0.1446 ( 32) -0.1235 ( 34) -0.2337 ( 36)
           0.1821 ( 38) -0.1621 ( 40)  0.1925 ( 42) -0.2969 ( 45)  0.1792 ( 47)
          -0.3205 ( 50)  0.1697 ( 52) -0.1040 ( 53) -0.1692 ( 56)  0.1690 ( 64)
           0.1476 ( 66)  0.1149 ( 70) -0.1031 ( 82) -0.1013 ( 84) -0.1226 ( 87)
          -0.1155 ( 88)  0.1213 (104)
 CRD 22=  -0.1172 (  7) -0.1150 (  9) -0.1009 ( 10) -0.1914 ( 14)  0.1766 ( 15)
           0.1045 ( 21) -0.1213 ( 22)  0.1051 ( 24) -0.1256 ( 25) -0.1392 ( 29)
           0.1299 ( 31)  0.1063 ( 35) -0.1173 ( 37)  0.1468 ( 38)  0.1170 ( 39)
           0.2096 ( 42) -0.1736 ( 43) -0.1428 ( 45) -0.1976 ( 47)  0.1764 ( 49)
           0.2017 ( 50)  0.1704 ( 51) -0.1316 ( 52) -0.1311 ( 53) -0.2315 ( 54)
           0.1845 ( 58) -0.1917 ( 59)  0.1510 ( 66) -0.1998 ( 70)  0.1917 ( 72)
           0.1277 ( 90)  0.1013 (101)  0.1038 (109)  0.1236 (110) -0.1046 (111)
           0.1199 (115)
 CRD 23=   0.1360 (  2)  0.1537 (  3)  0.2012 (  4) -0.2878 (  7) -0.2226 (  8)
          -0.1349 ( 10) -0.1105 ( 19) -0.1343 ( 32) -0.1808 ( 34)  0.1618 ( 36)
           0.1557 ( 37)  0.1425 ( 39)  0.1657 ( 42) -0.1611 ( 44) -0.3294 ( 45)
          -0.1429 ( 48)  0.1664 ( 53) -0.1061 ( 58)  0.1101 ( 61)  0.1555 ( 66)
          -0.1095 ( 92) -0.1220 ( 93) -0.1305 ( 95) -0.1603 (104)
 CRD 24=  -0.2934 (  1) -0.1896 (  2) -0.2491 (  4)  0.1601 (  5) -0.1745 ( 27)
          -0.1278 ( 28)  0.1090 ( 30) -0.2300 ( 32) -0.1331 ( 35)  0.1204 ( 38)
           0.1550 ( 40) -0.1081 ( 41)  0.1744 ( 46) -0.1566 ( 48)  0.1245 ( 49)
          -0.1566 ( 52)  0.1490 ( 54) -0.1860 ( 55)  0.1540 ( 56) -0.1175 ( 57)
          -0.1125 ( 63) -0.1247 ( 71) -0.1176 ( 79) -0.1222 ( 80)  0.1157 ( 87)
           0.1049 ( 88)  0.1138 ( 89) -0.1114 ( 98) -0.1161 (103) -0.1195 (104)
           0.1147 (105)  0.1241 (111)
 CRD 25=  -0.1591 (  1)  0.1377 (  3) -0.1575 (  5) -0.1144 (  6)  0.1052 (  7)
          -0.2318 (  8)  0.3095 (  9)  0.1500 ( 17) -0.1148 ( 19)  0.1081 ( 26)
           0.1982 ( 35) -0.1524 ( 37) -0.1118 ( 38)  0.2466 ( 43)  0.1011 ( 44)
          -0.1677 ( 45) -0.1257 ( 46)  0.1104 ( 48) -0.1089 ( 52) -0.1707 ( 53)
           0.1020 ( 63)  0.1461 ( 65) -0.1128 ( 67) -0.2120 ( 78) -0.1140 ( 79)
          -0.1060 ( 80)  0.1195 ( 86)  0.1130 ( 88)  0.1589 ( 90)  0.1500 ( 91)
          -0.1072 ( 94) -0.1193 ( 99) -0.1403 (100) -0.1033 (102) -0.2075 (105)
          -0.1094 (120) -0.1014 (124)
 CRD 26=   0.1158 (  6) -0.1216 ( 32)  0.1990 ( 35) -0.2482 ( 37)  0.2492 ( 48)
          -0.1974 ( 53) -0.1433 ( 55)  0.1276 ( 56) -0.1054 ( 83) -0.1597 ( 94)
          -0.1837 ( 97) -0.1188 ( 98) -0.1207 (100) -0.1446 (102) -0.1104 (103)
          -0.1537 (106) -0.1774 (107) -0.1176 (108) -0.1045 (109) -0.1811 (111)
          -0.2048 (112) -0.1024 (114) -0.1741 (116) -0.1646 (117) -0.1886 (118)
          -0.1978 (119)
 CRD 27=  -0.3853 (  6) -0.1244 (  9)  0.6349 ( 16) -0.1219 ( 20) -0.1152 ( 23)
          -0.1143 ( 24)  0.1123 ( 35)  0.1361 ( 49)  0.1459 ( 54) -0.1006 ( 74)
          -0.1134 ( 75) -0.1641 (106) -0.1219 (107)
 CRD 28=  -0.2709 (  1) -0.1182 (  4) -0.6556 (  6) -0.1944 (  9) -0.1915 ( 12)
          -0.3926 ( 16) -0.1168 ( 64) -0.1024 ( 93)  0.1009 (103)
 CRD 29=  -0.1018 (  3) -0.2622 ( 20) -0.3298 ( 21) -0.2442 ( 22)  0.2837 ( 23)
           0.2571 ( 24)  0.3574 ( 25)  0.1128 ( 47)  0.1047 ( 49)  0.1593 ( 50)
          -0.1308 ( 51) -0.1649 ( 52) -0.1109 ( 54) -0.1106 ( 68) -0.1537 ( 69)
          -0.1383 ( 70)  0.1235 ( 71)  0.1414 ( 72)  0.1705 ( 73) -0.1151 ( 74)
          -0.1220 ( 75) -0.1060 ( 76) -0.1336 ( 82) -0.1257 ( 83) -0.1223 ( 84)
          -0.1023 (113) -0.1057 (114) -0.1136 (115)
 CRD 30=  -0.1047 ( 14) -0.1158 ( 15) -0.2084 ( 16) -0.3509 ( 20) -0.3879 ( 21)
          -0.3111 ( 22) -0.3192 ( 23) -0.2834 ( 24) -0.3604 ( 25)  0.1666 ( 47)
           0.1100 ( 49)  0.1206 ( 50)  0.1544 ( 51)  0.1145 ( 52) -0.1496 ( 68)
          -0.1612 ( 69) -0.1136 ( 70) -0.1345 ( 71) -0.1050 ( 72) -0.1522 ( 73)
 CRD 31=  -0.1577 (  5) -0.1377 (  8)  0.1867 (  9) -0.4412 ( 11) -0.4685 ( 12)
          -0.4648 ( 13)  0.1646 ( 34)  0.1711 ( 36)  0.1769 ( 38) -0.1875 ( 62)
          -0.1794 ( 63) -0.1770 ( 64)
 CRD 32=  -0.1727 ( 10) -0.4925 ( 17) -0.4782 ( 18) -0.5014 ( 19)  0.1945 ( 42)
           0.1792 ( 43)  0.1676 ( 45) -0.1914 ( 65) -0.1802 ( 66) -0.2053 ( 67)
 CRD 33=  -0.2063 (  1) -0.1697 (  8)  0.2326 (  9)  0.1391 ( 11)  0.1173 ( 12)
           0.1040 ( 15) -0.1174 ( 16)  0.1412 ( 20)  0.1317 ( 21)  0.2190 ( 22)
          -0.1158 ( 23) -0.1755 ( 24) -0.1404 ( 25)  0.1653 ( 55) -0.1085 ( 56)
          -0.1072 ( 74) -0.1076 ( 75) -0.1055 ( 76)  0.1287 ( 77)  0.1449 ( 79)
           0.1116 ( 80)  0.1256 ( 81) -0.1183 ( 82) -0.1179 ( 83) -0.1112 ( 84)
           0.1335 ( 85)  0.1141 ( 92)  0.1172 ( 93)  0.1221 ( 95)  0.1225 ( 98)
          -0.1081 (108) -0.1064 (109) -0.1085 (110)  0.1613 (120)  0.1148 (121)
           0.1179 (122)  0.1227 (123)  0.1280 (124) -0.1204 (131) -0.1187 (132)
          -0.1208 (133) -0.1037 (134) -0.1104 (135) -0.1108 (136)
 CRD 34=   0.1057 (  4) -0.1625 (  7)  0.1560 ( 14) -0.1050 ( 16)  0.1654 ( 23)
           0.2252 ( 24) -0.1025 ( 26) -0.1163 ( 34)  0.1219 ( 35)  0.1091 ( 36)
          -0.1272 ( 53)  0.1246 ( 56) -0.1031 ( 62)  0.1015 ( 63)  0.2084 ( 77)
           0.1577 ( 81)  0.1423 ( 82)  0.1099 ( 83)  0.1415 ( 84)  0.2128 ( 85)
           0.1582 ( 92)  0.2089 ( 93)  0.2133 ( 95) -0.1444 (100) -0.1251 (103)
          -0.1278 (106) -0.1038 (111)  0.1443 (113)  0.1126 (114)  0.1451 (115)
          -0.1240 (116) -0.1202 (117)  0.1470 (121)  0.1977 (122)  0.2021 (123)
           0.1364 (134)  0.1047 (135)  0.1371 (136)
 CRD 35=  -0.1514 (  4)  0.1443 (  5) -0.3396 (  8)  0.1184 (  9)  0.1620 ( 11)
           0.1746 ( 13)  0.1020 ( 14) -0.1051 ( 15) -0.1649 ( 22)  0.1435 ( 24)
           0.1008 ( 55) -0.1462 ( 56)  0.1104 ( 75)  0.1137 ( 76)  0.1507 ( 79)
           0.1530 ( 80)  0.1013 ( 82)  0.1087 ( 84)  0.1202 ( 87)  0.1010 ( 88)
           0.1101 ( 89) -0.1009 ( 97)  0.1493 ( 98)  0.1516 (103) -0.1298 (118)
           0.1993 (120)  0.2016 (124)  0.1150 (128)  0.1049 (129)  0.1091 (132)
           0.1059 (133)  0.1056 (134)
 CRD 36=  -0.2361 (  1)  0.1570 (  2) -0.1305 ( 13) -0.1033 ( 15) -0.2843 ( 20)
           0.2768 ( 21) -0.2120 ( 22) -0.2593 ( 23)  0.1413 ( 25) -0.1016 ( 51)
           0.1020 ( 57)  0.1743 ( 68) -0.1159 ( 69)  0.1987 ( 71) -0.1231 ( 72)
           0.2044 ( 75)  0.1329 ( 76) -0.1769 ( 82)  0.1409 (109)  0.2124 (110)
          -0.2073 (115)  0.1508 (132)  0.2223 (133) -0.1926 (136)
 CRD 37=  -0.1364 (  8) -0.1227 (  9)  0.1750 ( 12) -0.1045 ( 13) -0.3899 ( 17)
           0.5891 ( 18) -0.1709 ( 19)  0.2109 ( 65) -0.3106 ( 66) -0.1807 ( 87)
           0.1456 ( 89) -0.1949 (125)  0.1314 (126) -0.1733 (128)  0.1531 (129)
 CRD 38=   0.3837 ( 11) -0.5415 ( 12)  0.1909 ( 13) -0.1020 ( 17)  0.1826 ( 18)
          -0.1060 ( 21)  0.1359 ( 22) -0.1070 ( 23)  0.1428 ( 25) -0.2090 ( 62)
           0.2937 ( 64)  0.1900 ( 77) -0.1297 ( 85)  0.2005 ( 93) -0.1191 ( 95)
           0.1913 (122) -0.1283 (123)
 CRD 39=   0.1139 ( 12) -0.1103 ( 13)  0.1289 ( 17) -0.1516 ( 19)  0.3800 ( 20)
          -0.3189 ( 21) -0.4563 ( 23)  0.2649 ( 24)  0.1689 ( 25) -0.1911 ( 68)
           0.1702 ( 69)  0.2308 ( 71) -0.1356 ( 72) -0.1343 ( 74)  0.1146 ( 75)
           0.1296 ( 82) -0.1297 (108)  0.1192 (110)  0.1251 (115) -0.1474 (131)
           0.1016 (133)  0.1218 (136)
 CRD 40=   0.4483 ( 17)  0.1021 ( 18) -0.5531 ( 19) -0.1832 ( 20)  0.1335 ( 22)
           0.1160 ( 23) -0.1152 ( 24) -0.2395 ( 65)  0.2919 ( 67) -0.2088 ( 88)
           0.1045 ( 89)  0.1094 (126) -0.2039 (127)  0.1166 (129) -0.1967 (130)
 CRD 41=  -0.2086 ( 11)  0.1322 ( 13) -0.3603 ( 20) -0.2003 ( 21)  0.5564 ( 22)
          -0.1355 ( 23)  0.1835 ( 24)  0.1069 ( 62)  0.1764 ( 68)  0.1147 ( 69)
          -0.2896 ( 70)  0.1899 ( 83) -0.1274 ( 84) -0.1372 (113)  0.1800 (114)
          -0.1144 (134)  0.2028 (135)
 CRD 42=  -0.2697 ( 11) -0.1828 ( 12)  0.4086 ( 13) -0.1412 ( 19)  0.1946 ( 21)
          -0.1617 ( 22) -0.1166 ( 23)  0.3657 ( 24) -0.2681 ( 25)  0.1263 ( 62)
          -0.2249 ( 63)  0.1084 ( 64) -0.1111 ( 69) -0.1880 ( 72)  0.1472 ( 73)
          -0.1234 ( 74)  0.1320 ( 81) -0.1153 ( 85)  0.1448 ( 92) -0.1024 ( 95)
          -0.1218 (108)  0.1488 (121) -0.1287 (131)
 CRD 43=   0.3694 ( 11) -0.3487 ( 13)  0.3610 ( 24) -0.4502 ( 25) -0.1756 ( 62)
           0.1636 ( 63) -0.1880 ( 72)  0.2470 ( 73) -0.1295 ( 75)  0.1372 ( 76)
          -0.1574 ( 81) -0.1548 ( 92)  0.1518 (109) -0.1149 (110) -0.1680 (121)
           0.1342 (132) -0.1324 (133)
 CRD 44=  -0.1961 (  1)  0.1534 (  2)  0.1200 (  3) -0.1206 ( 11)  0.1279 ( 13)
          -0.1039 ( 15)  0.1980 ( 20) -0.3377 ( 21)  0.2819 ( 23) -0.1547 ( 24)
          -0.2044 ( 25)  0.2261 ( 69)  0.1359 ( 73)  0.1694 ( 74)  0.1686 ( 76)
          -0.1656 ( 84)  0.2026 (108)  0.2018 (109) -0.2158 (113) -0.1323 (114)
           0.1013 (121)  0.2005 (131)  0.1997 (132) -0.1953 (134) -0.1118 (135)
 CRD 45=   0.2108 (  1)  0.4596 (  3)  0.4854 (  8)  0.4390 (  9)  0.1083 ( 18)
          -0.1219 ( 19)  0.1282 ( 60)  0.1949 ( 61)  0.1079 (103) -0.1024 (107)
          -0.1021 (112) -0.1041 (119)  0.1160 (124)  0.1328 (126)
 CRD 46=  -0.2506 (  1) -0.6152 (  3)  0.2993 (  8)  0.3707 (  9) -0.1872 ( 60)
           0.1575 ( 61) -0.1385 ( 97) -0.1313 (102)  0.1220 (107)  0.1283 (112)
          -0.1550 (118)  0.1231 (119)
 CRD 47=  -0.5672 (  1)  0.2269 (  3)  0.1154 (  6)  0.1162 (  8) -0.1545 (  9)
           0.1270 ( 35) -0.1467 ( 60)  0.1313 ( 82) -0.1221 ( 85)  0.1755 ( 94)
           0.2008 (100) -0.2149 (106) -0.1880 (111)  0.1050 (115) -0.1988 (116)
           0.1952 (117)  0.1016 (136)
 CRD 48=   0.1182 (  6)  0.3381 (  8) -0.3387 (  9) -0.1103 ( 40) -0.1072 ( 80)
           0.1796 ( 87)  0.1847 ( 88)  0.1867 ( 89) -0.1001 (103)  0.2887 (125)
           0.2958 (126)  0.2938 (127)  0.2787 (128)  0.2857 (129)  0.2838 (130)
 CRD 49=   0.1464 (  7)  0.1567 ( 10) -0.2170 ( 17) -0.3000 ( 18) -0.1626 ( 19)
          -0.1475 ( 32) -0.1544 ( 40) -0.2356 ( 42) -0.2080 ( 43) -0.1974 ( 45)
           0.1825 ( 55)  0.1820 ( 56)  0.2368 ( 65)  0.1687 ( 66)  0.2771 ( 67)
           0.1384 ( 79) -0.1120 ( 80)  0.1099 ( 98) -0.1404 (103)  0.1994 (120)
          -0.1708 (121) -0.1337 (122) -0.1617 (123)  0.1056 (126)
 CRD 50=   0.1406 (  4)  0.2232 ( 14)  0.2361 ( 16) -0.1106 ( 18) -0.1274 ( 21)
          -0.1756 ( 23) -0.2066 ( 24) -0.2743 ( 25) -0.1236 ( 28) -0.1047 ( 35)
          -0.2056 ( 51) -0.1930 ( 52) -0.2294 ( 54)  0.1092 ( 59)  0.1056 ( 67)
           0.1105 ( 68)  0.2568 ( 71)  0.2330 ( 72)  0.1827 ( 73) -0.1140 ( 90)
           0.1201 (106) -0.1630 (119)  0.1944 (134)  0.1983 (135)  0.1137 (136)
 CRD 51=  -0.1534 (  5)  0.1108 ( 11)  0.1304 ( 12)  0.1274 ( 13)  0.2741 ( 15)
           0.1283 ( 16) -0.2235 ( 20) -0.2517 ( 21) -0.2139 ( 22)  0.1358 ( 23)
           0.1191 ( 34)  0.1142 ( 36)  0.1253 ( 38) -0.2176 ( 47) -0.2308 ( 49)
          -0.2166 ( 50)  0.1162 ( 58) -0.1348 ( 62) -0.1215 ( 63) -0.1241 ( 64)
           0.2411 ( 68)  0.2220 ( 69)  0.2475 ( 70)  0.1098 ( 90)  0.1606 (116)
           0.1282 (119) -0.1611 (131) -0.1434 (132)
 CRD 52=  -0.3062 (  5) -0.1582 (  6)  0.2141 ( 11)  0.2840 ( 12)  0.1897 ( 13)
          -0.1450 ( 15)  0.1470 ( 21)  0.2213 ( 34)  0.2173 ( 36)  0.2327 ( 38)
           0.1045 ( 47)  0.1132 ( 49)  0.1117 ( 50) -0.2462 ( 62) -0.2670 ( 63)
          -0.1991 ( 64) -0.1295 ( 68) -0.1312 ( 70) -0.1082 (105) -0.1047 (116)
           0.1525 (117)  0.1075 (118) -0.1134 (119) -0.1321 (120) -0.1415 (124)
 CRD 53=  -0.1593 (  1) -0.1441 (  4) -0.1491 (  5)  0.3354 (  6) -0.1145 (  7)
          -0.1293 (  9)  0.2180 ( 13)  0.1898 ( 16)  0.1050 ( 22) -0.1397 ( 25)
          -0.1535 ( 48) -0.1706 ( 53)  0.1412 ( 60) -0.2042 ( 64)  0.1168 ( 72)
           0.1177 ( 85) -0.1212 ( 93) -0.1103 ( 94)  0.1308 ( 97) -0.1982 (100)
           0.1016 (104)  0.1956 (118) -0.1486 (121) -0.1719 (122) -0.1352 (128)
           0.1068 (131)  0.1094 (133) -0.1172 (135) -0.1333 (136)
 CRD 54=  -0.1201 (  1) -0.2003 (  2)  0.2062 ( 10) -0.3208 ( 14) -0.1738 ( 15)
           0.2645 ( 16) -0.1209 ( 19)  0.1303 ( 20)  0.1415 ( 22)  0.1784 ( 23)
           0.1960 ( 24) -0.1479 ( 35) -0.1134 ( 37) -0.1093 ( 44)  0.1432 ( 51)
           0.1441 ( 52)  0.1121 ( 54)  0.1007 ( 65)  0.1088 ( 66) -0.1757 ( 69)
          -0.1083 ( 71) -0.2255 ( 73)  0.1514 (106)  0.1008 (113)  0.1189 (116)
          -0.1101 (118)  0.1658 (121)  0.1504 (123)
 CRD 55=  -0.1211 (  2)  0.1381 (  4) -0.2707 (  6) -0.1390 (  8)  0.1827 (  9)
          -0.2299 ( 10) -0.1623 ( 11)  0.1477 ( 12)  0.2672 ( 16)  0.1875 ( 19)
          -0.1174 ( 21)  0.1553 ( 22)  0.1219 ( 24) -0.1500 ( 25)  0.1581 ( 64)
          -0.1658 ( 65) -0.1445 ( 69) -0.1343 ( 73)  0.1281 ( 75) -0.1191 ( 82)
          -0.1309 ( 85)  0.1338 ( 93) -0.1219 (103) -0.1165 (109)  0.1140 (113)
          -0.1191 (121) -0.1503 (123)  0.1121 (125)  0.1214 (126)  0.1083 (129)
           0.1379 (133) -0.1098 (135) -0.1333 (136)
 CRD 56=   0.1669 (  4)  0.1749 (  7) -0.1038 (  9) -0.3019 ( 10) -0.1779 ( 14)
          -0.1165 ( 15)  0.1778 ( 17) -0.1245 ( 18)  0.1823 ( 19)  0.1107 ( 20)
           0.1118 ( 23) -0.1735 ( 32) -0.1176 ( 35) -0.1033 ( 37) -0.1566 ( 40)
           0.1087 ( 55)  0.1312 ( 61) -0.2393 ( 66) -0.1100 ( 70) -0.1275 ( 72)
           0.1035 ( 89)  0.1028 (117)  0.2272 (126)  0.1243 (127) -0.2479 (128)
          -0.1533 (130) -0.1594 (131)  0.1820 (135)  0.1101 (136)
 CRD 57=   0.1244 (  1) -0.1985 (  2) -0.1421 (  3)  0.1778 (  7) -0.1330 (  9)
          -0.1043 ( 10) -0.1344 ( 13)  0.3057 ( 15)  0.2020 ( 17) -0.1179 ( 18)
          -0.1206 ( 20) -0.1049 ( 21) -0.1673 ( 23)  0.1751 ( 24)  0.1236 ( 28)
          -0.1367 ( 32) -0.1384 ( 58)  0.1126 ( 65) -0.1276 ( 66)  0.1463 ( 70)
          -0.1352 ( 71)  0.1199 ( 72)  0.1186 ( 74)  0.1303 ( 88)  0.1223 (108)
          -0.1183 (116) -0.1773 (119)  0.1300 (121) -0.2042 (128)  0.2817 (131)
           0.1114 (132)  0.1102 (133) -0.1158 (135)
 CRD 58=   0.1158 (  3)  0.1028 (  4) -0.2976 (  5)  0.2720 (  8) -0.1013 (  9)
          -0.1443 ( 10)  0.1686 ( 12)  0.1844 ( 17) -0.1720 ( 19) -0.1102 ( 27)
           0.1586 ( 46) -0.1360 ( 61) -0.1207 ( 62) -0.1797 ( 67)  0.1547 ( 79)
           0.1426 ( 88)  0.1371 ( 98) -0.1171 (104)  0.1440 (105) -0.1419 (117)
          -0.1872 (118)  0.3153 (120)  0.1864 (124) -0.1898 (125) -0.2304 (126)
          -0.1152 (129)
 CRD 59=   0.1770 (  3) -0.1145 (  4)  0.2097 (  7)  0.1461 ( 11) -0.1219 ( 13)
           0.2770 ( 14) -0.2001 ( 15) -0.1318 ( 18) -0.1628 ( 20)  0.1139 ( 21)
           0.1507 ( 22) -0.1032 ( 25) -0.1052 ( 44) -0.1324 ( 59) -0.1024 ( 60)
          -0.1122 ( 63) -0.1111 ( 66) -0.1861 ( 68)  0.1267 ( 71)  0.1126 ( 82)
           0.1359 ( 90) -0.1082 ( 97) -0.1008 (102)  0.1007 (112) -0.1177 (114)
           0.1658 (116) -0.1886 (118)  0.2480 (119)  0.1928 (121)  0.1227 (126)
          -0.1191 (128) -0.2168 (135)
 CRD 60=   0.1124 (  1) -0.1302 (  3)  0.1056 (  4)  0.1900 (  5) -0.1446 (  7)
          -0.1399 ( 11)  0.1079 ( 13)  0.1011 ( 14)  0.1357 ( 17) -0.2038 ( 19)
          -0.1721 ( 20)  0.1331 ( 22)  0.1627 ( 23) -0.1283 ( 25)  0.1326 ( 44)
           0.1520 ( 53)  0.1353 ( 63)  0.1060 ( 65) -0.1511 ( 67) -0.1559 ( 68)
           0.1526 ( 71)  0.1537 ( 75)  0.1163 ( 82) -0.1064 ( 83)  0.1847 ( 88)
          -0.1259 ( 96)  0.1224 (110) -0.1282 (114)  0.1928 (117)  0.1279 (118)
          -0.1492 (121) -0.1399 (126) -0.1010 (129)  0.1379 (130) -0.1021 (131)
           0.1133 (133) -0.1459 (135)
 CRD 61=  -0.2213 (  2)  0.1189 (  3)  0.2105 (  4) -0.1387 (  5) -0.1267 ( 11)
           0.2238 ( 13) -0.1075 ( 17) -0.1613 ( 20) -0.2169 ( 23)  0.1025 ( 24)
           0.1107 ( 28) -0.1434 ( 35)  0.1874 ( 48) -0.1306 ( 62)  0.1317 ( 63)
          -0.1051 ( 68) -0.1431 ( 71) -0.1732 ( 75)  0.1354 ( 82)  0.1457 ( 85)
          -0.1039 ( 88) -0.1535 ( 92) -0.1054 (102)  0.1267 (108) -0.1199 (110)
           0.1101 (116) -0.1461 (118) -0.1541 (121)  0.1489 (131) -0.1310 (135)
 CRD 62=  -0.1214 (  9)  0.3240 ( 10) -0.2282 ( 11)  0.1401 ( 12)  0.1027 ( 17)
          -0.2704 ( 18)  0.1012 ( 34)  0.1140 ( 40) -0.1047 ( 43) -0.1738 ( 55)
          -0.1621 ( 56)  0.1561 ( 61) -0.1704 ( 62)  0.1057 ( 64)  0.1526 ( 65)
          -0.1251 ( 66)  0.1135 ( 67)  0.1602 ( 77) -0.1290 ( 79)  0.1768 ( 80)
          -0.1268 ( 81) -0.1476 ( 87)  0.1376 ( 89)  0.2195 ( 93) -0.1094 ( 98)
           0.1964 (103) -0.1137 (120) -0.1114 (121)  0.1756 (122)  0.1921 (124)
          -0.1611 (125)  0.1241 (126) -0.1553 (128)  0.1300 (129)
 CRD 63=  -0.2114 ( 21)  0.2627 ( 22) -0.2722 ( 24)  0.2500 ( 25) -0.1393 ( 47)
           0.1416 ( 51) -0.1000 ( 54) -0.1441 ( 69)  0.2080 ( 70) -0.2160 ( 72)
           0.1735 ( 73) -0.1322 ( 74)  0.2253 ( 76) -0.1288 ( 83)  0.2153 ( 84)
           0.2851 (109)  0.2698 (113)  0.2633 (132)  0.2456 (134)
 CRD 64=   0.1711 (  1) -0.1217 (  2)  0.1539 (  3) -0.1632 (  4) -0.2092 ( 12)
           0.1425 ( 13)  0.1546 ( 20) -0.1957 ( 21)  0.1023 ( 33)  0.1056 ( 49)
          -0.2453 ( 60)  0.1214 ( 63) -0.1398 ( 64)  0.1099 ( 68) -0.1507 ( 69)
          -0.1848 ( 82)  0.1729 ( 85)  0.1197 ( 94)  0.1705 ( 95) -0.1334 ( 97)
           0.1957 (100) -0.2029 (106) -0.1667 (111)  0.1021 (112) -0.1692 (115)
          -0.1242 (116)  0.1599 (117)  0.1447 (119)  0.1801 (123) -0.1893 (136)
 CRD 65=   0.1351 (  1) -0.1617 (  5)  0.1152 (  8) -0.1023 ( 12)  0.1337 ( 15)
          -0.1029 ( 18)  0.1992 ( 19)  0.1831 ( 23) -0.1386 ( 25) -0.1323 ( 45)
           0.1245 ( 46) -0.1114 ( 52) -0.1132 ( 56)  0.1084 ( 59) -0.1046 ( 64)
           0.1461 ( 67)  0.1238 ( 71) -0.1143 ( 73) -0.1169 ( 74)  0.1300 ( 75)
          -0.1479 ( 78)  0.1085 ( 86) -0.1255 ( 88)  0.1550 ( 89)  0.1728 ( 91)
           0.1174 ( 94) -0.1119 ( 99)  0.1126 (100) -0.1244 (104)  0.1583 (110)
          -0.1318 (116)  0.1245 (120) -0.1278 (125) -0.2531 (127)  0.1926 (129)
           0.2241 (133)
 CRD 66=   0.1043 (  1)  0.2063 (  7) -0.1975 (  9)  0.1046 ( 12) -0.1671 ( 17)
           0.1886 ( 18) -0.1446 ( 39) -0.1728 ( 42)  0.1253 ( 43)  0.1241 ( 55)
           0.1955 ( 61) -0.1149 ( 65)  0.1491 ( 66)  0.1441 ( 77) -0.1142 ( 78)
           0.2017 ( 87)  0.1613 (103)  0.1036 (110)  0.1442 (122)  0.1011 (124)
           0.2885 (125) -0.3101 (129) -0.2538 (130)  0.1257 (133)
 CRD 67=  -0.1249 (  4)  0.1699 (  7) -0.1114 ( 10) -0.1273 ( 11)  0.1253 ( 13)
           0.1001 ( 15) -0.1227 ( 22) -0.1264 ( 24)  0.1428 ( 27)  0.1289 ( 28)
           0.1160 ( 34) -0.1167 ( 36) -0.1224 ( 41) -0.1378 ( 44)  0.1031 ( 51)
          -0.1182 ( 57) -0.1436 ( 74) -0.2195 ( 81)  0.1279 ( 83) -0.2121 ( 92)
           0.1222 ( 98)  0.1130 (101)  0.1317 (102) -0.1926 (108)  0.1836 (114)
          -0.1365 (117)  0.2193 (122)  0.2161 (123) -0.1581 (124)  0.2057 (132)
           0.1381 (133) -0.1901 (134) -0.1210 (136)
 CRD 68=  -0.1794 (  2)  0.1193 (  4) -0.1628 (  7)  0.1239 (  8)  0.2332 ( 14)
           0.1540 ( 20)  0.1058 ( 28)  0.1292 ( 29) -0.1346 ( 50)  0.1310 ( 53)
          -0.1135 ( 57) -0.1472 ( 59)  0.1038 ( 68)  0.1311 ( 81)  0.2307 ( 83)
           0.1011 ( 84) -0.1015 ( 86)  0.1181 ( 89)  0.1501 ( 90) -0.1329 (101)
          -0.1013 (102) -0.2062 (107) -0.1059 (112)  0.1593 (114)  0.1667 (116)
           0.1178 (117) -0.1409 (123) -0.1715 (127) -0.1631 (134) -0.2693 (136)
 CRD 69=  -0.1912 (  2)  0.2103 (  4) -0.1586 (  8)  0.1235 ( 10)  0.1198 ( 11)
           0.1162 ( 15) -0.1054 ( 26) -0.1027 ( 27)  0.1057 ( 28) -0.1027 ( 34)
          -0.1301 ( 39)  0.1251 ( 41) -0.1112 ( 58)  0.1174 ( 61) -0.1293 ( 74)
          -0.1390 ( 79)  0.1014 ( 81) -0.1294 ( 89)  0.1821 ( 92)  0.1121 ( 95)
          -0.2381 ( 98)  0.1988 (105) -0.1723 (108)  0.1397 (114) -0.2104 (122)
           0.1797 (124)  0.1723 (127)  0.1885 (132)  0.1318 (133) -0.1471 (134)
 CRD 70=   0.1208 (  2) -0.1924 (  3)  0.1190 (  4) -0.1064 (  5) -0.1145 (  6)
           0.1758 (  7)  0.1005 ( 14) -0.1367 ( 15) -0.1743 ( 30) -0.1174 ( 31)
          -0.1507 ( 33)  0.1048 ( 38) -0.1000 ( 39)  0.1606 ( 46)  0.1001 ( 58)
           0.1320 ( 60)  0.1100 ( 74) -0.1878 ( 77) -0.1568 ( 81)  0.2106 ( 90)
           0.1782 ( 95) -0.1194 ( 96)  0.1389 ( 97) -0.1433 ( 98)  0.2713 (102)
          -0.2307 (104) -0.1834 (107) -0.1871 (112)  0.1319 (116) -0.1647 (117)
           0.1274 (123)  0.1435 (124) -0.1113 (133)
 CRD 71=   0.1013 (  8) -0.1317 (  9)  0.2073 ( 16)  0.1222 ( 21)  0.1223 ( 25)
           0.1056 ( 31) -0.1210 ( 49) -0.1168 ( 54) -0.1099 ( 58)  0.1068 ( 74)
           0.2007 ( 76)  0.1260 ( 80) -0.1236 ( 83) -0.2233 ( 84)  0.1253 ( 86)
           0.1630 ( 87)  0.1360 ( 89) -0.1218 ( 91) -0.1275 ( 96) -0.1078 ( 97)
          -0.1552 ( 99) -0.1471 (105)  0.1818 (107) -0.1257 (108) -0.2235 (110)
          -0.1966 (111)  0.1294 (114)  0.2234 (115) -0.1244 (127) -0.1435 (130)
           0.1022 (132)
 CRD 72=  -0.1698 (  1)  0.1285 (  5) -0.1611 (  6) -0.1131 (  9) -0.1119 ( 16)
          -0.1254 ( 26)  0.1125 ( 27) -0.1027 ( 29)  0.1208 ( 37)  0.1110 ( 40)
           0.1160 ( 44) -0.1332 ( 74) -0.1532 ( 76) -0.1296 ( 77)  0.1839 ( 79)
           0.2292 ( 80)  0.1025 ( 84) -0.1979 ( 86)  0.1538 ( 87)  0.1347 ( 89)
          -0.1862 ( 90) -0.2511 ( 94)  0.1313 ( 95) -0.1636 ( 97) -0.1737 ( 99)
           0.2079 (101)  0.1914 (104) -0.1395 (105)  0.1065 (110)  0.1912 (111)
           0.1179 (112) -0.1030 (130)

 THE DETERMINANT OF THE G MATRIX IS 10**(   -24)


                     --------------------
                     INTERNAL COORDINATES
                     --------------------

                 - - ATOMS - -         COORDINATE      COORDINATE
 NO.   TYPE    I  J  K  L  M  N        (BOHR,RAD)       (ANG,DEG)
 ----------------------------------------------------------------
   1 STRETCH   1 10                     2.0949470       1.1085983
   2 STRETCH   1  5                     2.8955521       1.5322603
   3 STRETCH   1  9                     2.0983351       1.1103912
   4 STRETCH   1  2                     2.8944309       1.5316670
   5 STRETCH   2  4                     2.8741605       1.5209403
   6 STRETCH   2 11                     2.1143825       1.1188831
   7 STRETCH   2  3                     2.8959777       1.5324855
   8 STRETCH   3 13                     2.0944108       1.1083145
   9 STRETCH   3 12                     2.0942251       1.1082163
  10 STRETCH   3  6                     2.8594560       1.5131591
  11 STRETCH   4 15                     2.0837309       1.1026630
  12 STRETCH   4 14                     2.0755750       1.0983471
  13 STRETCH   4 16                     2.0809107       1.1011706
  14 STRETCH   5  8                     2.8757378       1.5217750
  15 STRETCH   5  7                     2.8722618       1.5199356
  16 STRETCH   5 17                     2.1136471       1.1184939
  17 STRETCH   6 20                     2.0743869       1.0977184
  18 STRETCH   6 19                     2.0719200       1.0964129
  19 STRETCH   6 18                     2.0849624       1.1033147
  20 STRETCH   7 23                     2.0832339       1.1024000
  21 STRETCH   7 22                     2.0754722       1.0982927
  22 STRETCH   7 21                     2.0741493       1.0975926
  23 STRETCH   8 26                     2.0752184       1.0981584
  24 STRETCH   8 25                     2.0745696       1.0978150
  25 STRETCH   8 24                     2.0754582       1.0982853
  26 BEND      1  2  4                  1.9504683     111.7536018
  27 BEND      1  2 11                  1.8964502     108.6585937
  28 BEND      1  5 17                  1.8946939     108.5579629
  29 BEND      1  5  7                  1.9513836     111.8060456
  30 BEND      1  2  3                  1.9242172     110.2495269
  31 BEND      1  5  8                  1.9216256     110.1010376
  32 BEND      2  3 13                  1.9198485     109.9992145
  33 BEND      2  1  5                  1.9809495     113.5000449
  34 BEND      2  4 15                  1.9249486     110.2914324
  35 BEND      2  1  9                  1.8992493     108.8189704
  36 BEND      2  4 16                  1.9448045     111.4290871
  37 BEND      2  1 10                  1.9241791     110.2473404
  38 BEND      2  4 14                  1.9521421     111.8495058
  39 BEND      2  3  6                  1.9465876     111.5312547
  40 BEND      2  3 12                  1.9121709     109.5593212
  41 BEND      3  2  4                  1.9145302     109.6944994
  42 BEND      3  6 19                  1.9479742     111.6107028
  43 BEND      3  6 20                  1.9500947     111.7321940
  44 BEND      3  2 11                  1.8832879     107.9044482
  45 BEND      3  6 18                  1.9304330     110.6056664
  46 BEND      4  2 11                  1.8933034     108.4782954
  47 BEND      5  7 21                  1.9433059     111.3432282
  48 BEND      5  1 10                  1.9205144     110.0373714
  49 BEND      5  7 22                  1.9490773     111.6739043
  50 BEND      5  7 23                  1.9404828     111.1814765
  51 BEND      5  8 25                  1.9414409     111.2363722
  52 BEND      5  8 26                  1.9484398     111.6373771
  53 BEND      5  1  9                  1.8947899     108.5634663
  54 BEND      5  8 24                  1.9467362     111.5397700
  55 BEND      6  3 12                  1.9227070     110.1629943
  56 BEND      6  3 13                  1.9158255     109.7687142
  57 BEND      7  5  8                  1.9141328     109.6717295
  58 BEND      7  5 17                  1.8917844     108.3912640
  59 BEND      8  5 17                  1.8888276     108.2218469
  60 BEND      9  1 10                  1.8383012     105.3268976
  61 BEND     12  3 13                  1.8439910     105.6529035
  62 BEND     14  4 16                  1.8747455     107.4150040
  63 BEND     14  4 15                  1.8735917     107.3488943
  64 BEND     15  4 16                  1.8907939     108.3345088
  65 BEND     18  6 19                  1.8841583     107.9543204
  66 BEND     18  6 20                  1.8706391     107.1797277
  67 BEND     19  6 20                  1.8772328     107.5575144
  68 BEND     21  7 22                  1.8754431     107.4549755
  69 BEND     21  7 23                  1.8785188     107.6311979
  70 BEND     22  7 23                  1.8734686     107.3418451
  71 BEND     24  8 25                  1.8744651     107.3989412
  72 BEND     24  8 26                  1.8749077     107.4242972
  73 BEND     25  8 26                  1.8740356     107.3743301
  74 TORSION   1  5  8 24               1.0261397      58.7934750
  75 TORSION   1  5  8 25               3.1185517     178.6798491
  76 TORSION   1  5  8 26              -1.0716159     -61.3990689
  77 TORSION   1  2  4 16              -1.1250741     -64.4619983
  78 TORSION   1  2  3  6               3.0008338     171.9351098
  79 TORSION   1  2  3 12              -1.1489214     -65.8283496
  80 TORSION   1  2  3 13               0.8708180      49.8941983
  81 TORSION   1  2  4 14               0.9736863      55.7881174
  82 TORSION   1  5  7 21               3.0889892     176.9860421
  83 TORSION   1  5  7 22              -1.0976789     -62.8923684
  84 TORSION   1  5  7 23               0.9943968      56.9747374
  85 TORSION   1  2  4 15               3.0574690     175.1800712
  86 TORSION   2  1  5  7              -1.4296060     -81.9103880
  87 TORSION   2  3  6 18               0.8848794      50.6998522
  88 TORSION   2  3  6 19               2.9829415     170.9099584
  89 TORSION   2  3  6 20              -1.1975147     -68.6125390
  90 TORSION   2  1  5 17               0.6564703      37.6129749
  91 TORSION   2  1  5  8               2.7212157     155.9141748
  92 TORSION   3  2  4 14              -1.1659216     -66.8023841
  93 TORSION   3  2  4 16               3.0185033     172.9475001
  94 TORSION   3  2  1  9              -0.5746460     -32.9247931
  95 TORSION   3  2  4 15               0.9178611      52.5895697
  96 TORSION   3  2  1  5              -2.6863757    -153.9179902
  97 TORSION   3  2  1 10               1.4332958      82.1218030
  98 TORSION   4  2  3 12               1.0061848      57.6501436
  99 TORSION   4  2  3  6              -1.1272453     -64.5863970
 100 TORSION   4  2  1  9              -2.7087134    -155.1978436
 101 TORSION   4  2  1  5               1.4627423      83.8089593
 102 TORSION   4  2  1 10              -0.7007715     -40.1512476
 103 TORSION   4  2  3 13               3.0259243     173.3726915
 104 TORSION   5  1  2 11              -0.6257978     -35.8555711
 105 TORSION   6  3  2 11               0.9321780      53.4098640
 106 TORSION   7  5  1  9               2.7393453     156.9529235
 107 TORSION   7  5  1 10               0.7358993      42.1639224
 108 TORSION   7  5  8 24              -1.1281099     -64.6359387
 109 TORSION   7  5  8 26               3.0573197     175.1715174
 110 TORSION   7  5  8 25               0.9643020      55.2504353
 111 TORSION   8  5  1  9               0.6069816      34.7774864
 112 TORSION   8  5  1 10              -1.3964644     -80.0115148
 113 TORSION   8  5  7 23               3.1310481     179.3958393
 114 TORSION   8  5  7 22               1.0389724      59.5287335
 115 TORSION   8  5  7 21              -1.0575448     -60.5928560
 116 TORSION   9  1  5 17              -1.4577638     -83.5237135
 117 TORSION   9  1  2 11               1.4859319      85.1376260
 118 TORSION  10  1  2 11              -2.7893115    -159.8157779
 119 TORSION  10  1  5 17               2.8219755     161.6872854
 120 TORSION  11  2  3 12               3.0656081     175.6464046
 121 TORSION  11  2  4 14               3.0640783     175.5587566
 122 TORSION  11  2  4 16               0.9653179      55.3086409
 123 TORSION  11  2  4 15              -1.1353243     -65.0492895
 124 TORSION  11  2  3 13              -1.1978377     -68.6310475
 125 TORSION  12  3  6 18              -1.2424747     -71.1885565
 126 TORSION  12  3  6 20               2.9583165     169.4990524
 127 TORSION  12  3  6 19               0.8555874      49.0215498
 128 TORSION  13  3  6 18               3.0172139     172.8736243
 129 TORSION  13  3  6 20               0.9348199      53.5612332
 130 TORSION  13  3  6 19              -1.1679092     -66.9162695
 131 TORSION  17  5  8 24               3.0944915     177.3013046
 132 TORSION  17  5  8 26               0.9967359      57.1087607
 133 TORSION  17  5  8 25              -1.0962818     -62.8123213
 134 TORSION  17  5  7 23              -1.0933925     -62.6467757
 135 TORSION  17  5  7 22               3.0977171     177.4861185
 136 TORSION  17  5  7 21               1.0011999      57.3645290

     ------------------------------------------
     THE POINT GROUP IS C1 , NAXIS= 1, ORDER= 1
     ------------------------------------------

     DIMENSIONS OF THE SYMMETRY SUBSPACES ARE
 A   =  260

 ..... DONE SETTING UP THE RUN .....
 STEP CPU TIME =     0.02 TOTAL CPU TIME =        0.0 (    0.0 MIN)
 TOTAL WALL CLOCK TIME=        0.0 SECONDS, CPU UTILIZATION IS  50.00%


          -----------------------------
          STATIONARY POINT LOCATION RUN
          -----------------------------

 OBTAINING INITIAL HESSIAN, HESS=GUESS   
 DIAGONAL GUESS HESSIAN IN INTERNAL COORDS IS
     1  0.3341     2  0.3656     3  0.3329     4  0.3660     5  0.3737
     6  0.3275     7  0.3654     8  0.3343     9  0.3343    10  0.3794
    11  0.3379    12  0.3408    13  0.3389    14  0.3731    15  0.3744
    16  0.3277    17  0.3412    18  0.3421    19  0.3375    20  0.3381
    21  0.3408    22  0.3413    23  0.3409    24  0.3411    25  0.3408
    26  0.2490    27  0.2223    28  0.2223    29  0.2490    30  0.2482
    31  0.2489    32  0.2228    33  0.2482    34  0.2239    35  0.2228
    36  0.2240    37  0.2229    38  0.2241    39  0.2495    40  0.2229
    41  0.2490    42  0.2247    43  0.2246    44  0.2222    45  0.2243
    46  0.2229    47  0.2242    48  0.2228    49  0.2242    50  0.2239
    51  0.2241    52  0.2241    53  0.2227    54  0.2241    55  0.2240
    56  0.2240    57  0.2498    58  0.2230    59  0.2229    60  0.2015
    61  0.2016    62  0.2024    63  0.2023    64  0.2022    65  0.2024
    66  0.2023    67  0.2027    68  0.2026    69  0.2024    70  0.2024
    71  0.2026    72  0.2026    73  0.2026    74  0.2500    75  0.2500
    76  0.2500    77  0.2500    78  0.2500    79  0.2500    80  0.2500
    81  0.2500    82  0.2500    83  0.2500    84  0.2500    85  0.2500
    86  0.2500    87  0.2500    88  0.2500    89  0.2500    90  0.2500
    91  0.2500    92  0.2500    93  0.2500    94  0.2500    95  0.2500
    96  0.2500    97  0.2500    98  0.2500    99  0.2500   100  0.2500
   101  0.2500   102  0.2500   103  0.2500   104  0.2500   105  0.2500
   106  0.2500   107  0.2500   108  0.2500   109  0.2500   110  0.2500
   111  0.2500   112  0.2500   113  0.2500   114  0.2500   115  0.2500
   116  0.2500   117  0.2500   118  0.2500   119  0.2500   120  0.2500
   121  0.2500   122  0.2500   123  0.2500   124  0.2500   125  0.2500
   126  0.2500   127  0.2500   128  0.2500   129  0.2500   130  0.2500
   131  0.2500   132  0.2500   133  0.2500   134  0.2500   135  0.2500
   136  0.2500
 TRANSFORMING HESSIAN TO SYMMETRY COORDINATES

          PARAMETERS CONTROLLING GEOMETRY SEARCH ARE
          METHOD =QA                  UPHESS =BFGS    
          NNEG   =         0          NFRZ   =         3
          NSTEP  =        50          IFOLOW =         1
          HESS   =GUESS               RESTAR =         F
          IHREP  =         0          HSSEND =         F
          NPRT   =         0          NPUN   =         0
          OPTTOL = 5.000E-04          RMIN   = 1.500E-03
          RMAX   = 1.000E-01          RLIM   = 7.000E-02
          DXMAX  = 3.000E-01          PURIFY =         F
          MOVIE  =         F          TRUPD  =         T
          TRMAX  = 5.000E-01          TRMIN  = 5.000E-02
          ITBMAT =         5          STPT   =         F
          STSTEP = 1.000E-02          PROJCT=          F
          FROZEN COORD(S)=   1   2   3


      ***** EQUILIBRIUM GEOMETRY LOCATED *****
            (SUBJECT TO   3 CONSTRAINT(S))
 COORDINATES OF ALL ATOMS ARE (ANGS)
   ATOM   CHARGE       X              Y              Z
 ------------------------------------------------------------
 C           6.0   4.5546183476   2.8058149497   2.2305506745
 C           6.0   3.3383557901   1.9593118185   1.7957178733
 C           6.0   2.0245760400   2.7622496537   1.8553711396
 C           6.0   3.1803453757   0.6610826279   2.6001782221
 C           6.0   5.9336959678   2.3139892790   1.7395287799
 C           6.0   0.9180754214   2.1529094173   0.9878770786
 C           6.0   6.4848191468   1.1021163305   2.5002382564
 C           6.0   6.9717403733   3.4413643411   1.7861118373
 H           1.0   4.4134946507   3.8106753523   1.8382343536
 H           1.0   4.5677846421   2.9062908678   3.3175409063
 H           1.0   3.4982153151   1.6988665975   0.7492717563
 H           1.0   1.6873457902   2.8373467705   2.8887795268
 H           1.0   2.1997695345   3.7794555827   1.5134277160
 H           1.0   3.1348792353   0.8802193370   3.6651527753
 H           1.0   2.2698429057   0.1392568707   2.3297396637
 H           1.0   3.9934418973  -0.0298525531   2.4383172800
 H           1.0   5.8164896169   2.0283275174   0.6943463754
 H           1.0   0.7088309323   1.1222475519   1.2556355625
 H           1.0  -0.0102900601   2.7087051031   1.0811422516
 H           1.0   1.2102788518   2.1656702311  -0.0597048605
 H           1.0   7.4583566349   0.8224987215   2.1077839775
 H           1.0   6.6021783818   1.3319833248   3.5574523916
 H           1.0   5.8495390320   0.2332173435   2.4199844105
 H           1.0   7.1449902566   3.7742863478   2.8076629420
 H           1.0   7.9223622927   3.0944354544   1.3880915345
 H           1.0   6.6596085151   4.3007903884   1.1994552021


                     --------------------
                     INTERNAL COORDINATES
                     --------------------

                 - - ATOMS - -         COORDINATE      COORDINATE
 NO.   TYPE    I  J  K  L  M  N        (BOHR,RAD)       (ANG,DEG)
 ----------------------------------------------------------------
   1 STRETCH   1 10                     2.0630205       1.0917035
   2 STRETCH   1  5                     2.9182962       1.5442960
   3 STRETCH   1  9                     2.0558729       1.0879211
   4 STRETCH   1  2                     2.9183523       1.5443257
   5 STRETCH   2  4                     2.9015281       1.5354227
   6 STRETCH   2 11                     2.0600928       1.0901542
   7 STRETCH   2  3                     2.9118249       1.5408715
   8 STRETCH   3 13                     2.0547900       1.0873481
   9 STRETCH   3 12                     2.0591049       1.0896315
  10 STRETCH   3  6                     2.8957762       1.5323789
  11 STRETCH   4 15                     2.0479381       1.0837222
  12 STRETCH   4 14                     2.0564690       1.0882366
  13 STRETCH   4 16                     2.0394305       1.0792202
  14 STRETCH   5  8                     2.8973146       1.5331930
  15 STRETCH   5  7                     2.8975432       1.5333140
  16 STRETCH   5 17                     2.0594946       1.0898377
  17 STRETCH   6 20                     2.0553527       1.0876459
  18 STRETCH   6 19                     2.0523065       1.0860339
  19 STRETCH   6 18                     2.0508026       1.0852381
  20 STRETCH   7 23                     2.0396850       1.0793549
  21 STRETCH   7 22                     2.0565166       1.0882618
  22 STRETCH   7 21                     2.0527519       1.0862696
  23 STRETCH   8 26                     2.0529465       1.0863726
  24 STRETCH   8 25                     2.0549081       1.0874106
  25 STRETCH   8 24                     2.0566082       1.0883103
  26 BEND      1  2  4                  1.9790275     113.3899252
  27 BEND      1  2 11                  1.8605793     106.6033413
  28 BEND      1  5 17                  1.8674996     106.9998449
  29 BEND      1  5  7                  1.9986798     114.5159194
  30 BEND      1  2  3                  1.9551567     112.0222291
  31 BEND      1  5  8                  1.9398906     111.1475446
  32 BEND      2  3 13                  1.9155129     109.7508072
  33 BEND      2  1  5                  2.0255182     116.0536460
  34 BEND      2  4 15                  1.9421138     111.2749242
  35 BEND      2  1  9                  1.8782047     107.6132015
  36 BEND      2  4 16                  1.9662239     112.6563285
  37 BEND      2  1 10                  1.9180313     109.8950996
  38 BEND      2  4 14                  1.9249249     110.2900699
  39 BEND      2  3  6                  1.9676683     112.7390915
  40 BEND      2  3 12                  1.9140024     109.6642607
  41 BEND      3  2  4                  1.9098211     109.4246860
  42 BEND      3  6 19                  1.9445728     111.4158171
  43 BEND      3  6 20                  1.9247396     110.2794567
  44 BEND      3  2 11                  1.8615584     106.6594374
  45 BEND      3  6 18                  1.9575622     112.1600514
  46 BEND      4  2 11                  1.8923260     108.4222928
  47 BEND      5  7 21                  1.9244600     110.2634383
  48 BEND      5  1 10                  1.9125365     109.5802690
  49 BEND      5  7 22                  1.9324113     110.7190103
  50 BEND      5  7 23                  1.9690548     112.8185282
  51 BEND      5  8 25                  1.9242753     110.2528520
  52 BEND      5  8 26                  1.9506337     111.7630762
  53 BEND      5  1  9                  1.8706128     107.1782202
  54 BEND      5  8 24                  1.9403903     111.1761725
  55 BEND      6  3 12                  1.9185936     109.9273178
  56 BEND      6  3 13                  1.8863121     108.0777217
  57 BEND      7  5  8                  1.8994149     108.8284593
  58 BEND      7  5 17                  1.8831330     107.8955736
  59 BEND      8  5 17                  1.8699239     107.1387457
  60 BEND      9  1 10                  1.8500199     105.9983349
  61 BEND     12  3 13                  1.8583837     106.4775400
  62 BEND     14  4 16                  1.8830146     107.8887915
  63 BEND     14  4 15                  1.8818601     107.8226433
  64 BEND     15  4 16                  1.8621909     106.6956784
  65 BEND     18  6 19                  1.8755138     107.4590246
  66 BEND     18  6 20                  1.8760988     107.4925421
  67 BEND     19  6 20                  1.8821662     107.8401776
  68 BEND     21  7 22                  1.8846233     107.9809589
  69 BEND     21  7 23                  1.8685874     107.0621700
  70 BEND     22  7 23                  1.8815156     107.8029026
  71 BEND     24  8 25                  1.8775900     107.5779849
  72 BEND     24  8 26                  1.8866464     108.0968749
  73 BEND     25  8 26                  1.8816871     107.8127289
  74 TORSION   1  5  8 24               1.1134233      63.7944578
  75 TORSION   1  5  8 25              -3.0889892    -176.9860457
  76 TORSION   1  5  8 26              -0.9964473     -57.0922247
  77 TORSION   1  2  4 16              -1.1407468     -65.3599763
  78 TORSION   1  2  3  6               2.7847097     159.5521142
  79 TORSION   1  2  3 12              -1.3546181     -77.6139024
  80 TORSION   1  2  3 13               0.6810850      39.0232970
  81 TORSION   1  2  4 14               0.9643052      55.2506182
  82 TORSION   1  5  7 21              -3.1301970    -179.3470755
  83 TORSION   1  5  7 22              -1.0456307     -59.9102280
  84 TORSION   1  5  7 23               1.0647549      61.0059632
  85 TORSION   1  2  4 15               3.0519518     174.8639574
  86 TORSION   2  1  5  7              -1.3327972     -76.3636543
  87 TORSION   2  3  6 18               0.9926889      56.8768816
  88 TORSION   2  3  6 19               3.0960211     177.3889447
  89 TORSION   2  3  6 20              -1.0976627     -62.8914411
  90 TORSION   2  1  5 17               0.7530658      43.1474915
  91 TORSION   2  1  5  8               2.7891323     159.8055091
  92 TORSION   3  2  4 14              -1.2322632     -70.6034787
  93 TORSION   3  2  4 16               2.9458702     168.7859267
  94 TORSION   3  2  1  9              -0.6721096     -38.5090458
  95 TORSION   3  2  4 15               0.8553834      49.0098605
  96 TORSION   3  2  1  5              -2.7666559    -158.5177040
  97 TORSION   3  2  1 10               1.3347908      76.4778793
  98 TORSION   4  2  3 12               0.8555758      49.0208836
  99 TORSION   4  2  3  6              -1.2882816     -73.8130998
 100 TORSION   4  2  1  9              -2.8443209    -162.9675851
 101 TORSION   4  2  1  5               1.3443182      77.0237567
 102 TORSION   4  2  1 10              -0.8374205     -47.9806600
 103 TORSION   4  2  3 13               2.8912790     165.6580830
 104 TORSION   5  1  2 11              -0.7365763     -42.2027115
 105 TORSION   6  3  2 11               0.7552219      43.2710287
 106 TORSION   7  5  1  9               2.8517430     163.3928394
 107 TORSION   7  5  1 10               0.8517482      48.8015782
 108 TORSION   7  5  8 24              -1.1033281     -63.2160413
 109 TORSION   7  5  8 26               3.0699866     175.8972762
 110 TORSION   7  5  8 25               0.9774447      56.0034552
 111 TORSION   8  5  1  9               0.6904872      39.5620027
 112 TORSION   8  5  1 10              -1.3095076     -75.0292585
 113 TORSION   8  5  7 23              -3.0357079    -173.9332484
 114 TORSION   8  5  7 22               1.1370918      65.1505604
 115 TORSION   8  5  7 21              -0.9474744     -54.2862871
 116 TORSION   9  1  5 17              -1.3455793     -77.0960149
 117 TORSION   9  1  2 11               1.3579699      77.8059466
 118 TORSION  10  1  2 11              -2.9183149    -167.2071282
 119 TORSION  10  1  5 17               2.9376112     168.3127239
 120 TORSION  11  2  3 12               2.8990794     166.1050122
 121 TORSION  11  2  4 14               3.0269030     173.4287674
 122 TORSION  11  2  4 16               0.9218510      52.8181729
 123 TORSION  11  2  4 15              -1.1686357     -66.9578934
 124 TORSION  11  2  3 13              -1.3484028     -77.2577884
 125 TORSION  12  3  6 18              -1.1486004     -65.8099568
 126 TORSION  12  3  6 20               3.0442333     174.4217205
 127 TORSION  12  3  6 19               0.9547319      54.7021063
 128 TORSION  13  3  6 18               3.1129630     178.3596419
 129 TORSION  13  3  6 20               1.0226114      58.5913193
 130 TORSION  13  3  6 19              -1.0668900     -61.1282950
 131 TORSION  17  5  8 24              -3.1351810    -179.6326373
 132 TORSION  17  5  8 26               1.0381337      59.4806802
 133 TORSION  17  5  8 25              -1.0544082     -60.4131408
 134 TORSION  17  5  7 23              -1.0123378     -58.0026825
 135 TORSION  17  5  7 22              -3.1227234    -178.9188737
 136 TORSION  17  5  7 21               1.0758956      61.6442788

          INTERNUCLEAR DISTANCES (ANGS.)


 =====================================================
   GAMESS/COSab RESULTS
 =====================================================

   Dielectric Constant                  = INFTY
   Basic Grid Size                      =                 1082
   Number of Segments                   =                   92
   Number of Segments located on spheres=                  291
   Number of Segments of the cavity     =                  804
   Solvent Radius (rsolv)               = 1.40
   Outlying Charge Error Method         = double cavity

 =====================================================

  Total solvated Energy (a.u.)          =  -313.5059716159
  Total Energy corrected (a.u.)         =  -313.5058708373

  Outlying charge effect (a.u.)         =     0.0001007786
  Outlying charge effect (kcal/mol)     =     0.0632395623

  Dielectric Energy (a.u.)              =    -0.0016129415
  Dielectric energy corr. (a.u.)        =    -0.0015121629

  Sum of polarization charges           =     0.0316867604
  Sum of polarization charges(cor.)     =    -0.0316867604

  Total surface area of cavity (A**2)   =  183.83
  Total volume of cavity (A**3)         =  188.37

 =====================================================
 NPS=                   804
NR.  ATOM  (X, Y, Z)(a.u.)                  CHARGE(e)  AREA(A**2) SIGMA(e/A**2)
   1   1   9.279992   8.312253   6.399382   0.001565   0.325193   0.004814
   2   1   8.881525   8.730242   5.782769   0.001178   0.232280   0.005072
   3   1   8.465016   6.727464   0.717583   0.000205   0.092912   0.002201
   4   1   8.307940   6.128461   0.539233   0.000048   0.046456   0.001023
   5   1   7.150662   8.023528   6.396366   0.001217   0.232280   0.005240
   6   1   8.057385   8.363411   6.362509   0.002040   0.325193   0.006275
   7   1   7.356561   8.535929   5.719709   0.000661   0.139368   0.004739
   8   1   8.071788   6.765998   0.771988   0.000093   0.046456   0.001995
   9   2   6.741557   5.837611   0.304994   0.000235   0.139368   0.001690
  10   3   2.374528   8.478580   4.754638   0.001625   0.325193   0.004997
  11   3   5.120384   6.507657   0.197041   0.000220   0.139368   0.001577
  12   3   5.427497   6.919211   0.534380   0.000051   0.046456   0.001096
  13   3   2.457452   8.051294   5.602519   0.001391   0.278737   0.004992
  14   3   4.548916   7.683757   6.279382   0.000505   0.139368   0.003623
  15   3   4.549274   8.324358   5.536720   0.001270   0.232280   0.005466
  16   3   3.466603   8.543626   5.269079   0.001560   0.278737   0.005598
  17   3   1.386755   7.799574   4.802334   0.001458   0.418105   0.003488
  18   3   1.670952   8.320597   3.667712   0.001043   0.325193   0.003208
  19   3   4.699156   6.835227   0.202765   0.000101   0.046456   0.002172
  20   3   0.937993   6.898457   5.274401   0.000458   0.185824   0.002467
  21   3   3.757035   8.130872   5.915646   0.001033   0.185824   0.005560
  22   4   5.685197  -2.453442   4.228995   0.002517   0.464561   0.005418
  23   4   3.615922  -0.707134   7.087406   0.001962   0.418105   0.004693
  24   4   7.506600  -1.319543   7.247211   0.001334   0.325193   0.004102
  25   4   7.246014  -0.411664   1.751710   0.000562   0.232280   0.002418
  26   4   5.921239  -0.792122   1.734150   0.001209   0.371649   0.003254
  27   4   5.928912  -1.679110   2.525686   0.001873   0.371649   0.005039
  28   4   6.923742  -0.864649   7.910406   0.001189   0.278737   0.004267
  29   4   3.912769  -0.082363   7.761926   0.001326   0.278737   0.004758
  30   4   5.312743  -1.988621   3.093135   0.001006   0.232280   0.004332
  31   4   6.191634  -2.180292   3.335854   0.000854   0.185824   0.004598
  32   4   2.751531   1.286492   6.828167   0.000946   0.185824   0.005092
  33   4   2.983649   0.483136   7.044051   0.002159   0.371649   0.005809
  34   4   4.795294  -1.185680   7.536581   0.001609   0.464561   0.003464
  35   4   6.234113  -1.632837   7.348280   0.001113   0.371649   0.002996
  36   4   7.879469  -0.509582   7.687745   0.000767   0.185824   0.004125
  37   4   4.316215  -1.754917   6.459702   0.001331   0.418105   0.003182
  38   4   5.101428  -2.384916   5.415160   0.001499   0.418105   0.003584
  39   4   6.171596  -2.483983   5.480187   0.001197   0.325193   0.003680
  40   4   6.893737  -2.081504   6.465791   0.000969   0.325193   0.002981
  41   4   5.058081  -0.726613   1.835638   0.000827   0.278737   0.002967
  42   4   6.788281  -1.064924   2.028671   0.000834   0.232280   0.003589
  43   4   5.767702  -0.927689   7.993639   0.000878   0.278737   0.003151
  44   4   3.193521   1.375984   7.430737   0.000646   0.139368   0.004638
  45   4   7.797185   0.036523   8.015146   0.000614   0.139368   0.004409
  46   4   5.548114  -2.092433   6.617744   0.001250   0.464561   0.002691
  47   5  13.616027   3.117951   0.653736   0.000135   0.092912   0.001451
  48   5  10.092256   6.225601   0.189616   0.000134   0.092912   0.001447
  49   5  13.447324   2.759618   0.700749   0.000047   0.046456   0.001007
  50   6  -0.461603   5.303379  -0.949998   0.002329   0.418105   0.005570
  51   6  -0.145674   3.249805   5.041316   0.000868   0.278737   0.003114
  52   6  -1.852030   2.895624   1.660387   0.001810   0.418105   0.004329
  53   6   0.753366   1.742780  -0.946064   0.001339   0.325193   0.004116
  54   6   2.254665   7.102678  -0.325759   0.000766   0.232280   0.003296
  55   6   0.880451   7.652739   1.026131   0.000736   0.232280   0.003169
  56   6   1.345836   7.340732   0.016188   0.000768   0.232280   0.003307
  57   6   0.711106   6.720931  -0.623213   0.001340   0.278737   0.004808
  58   6   0.783029   1.069922  -0.227761   0.001438   0.325193   0.004423
  59   6  -1.445492   2.050927   2.181432   0.001198   0.278737   0.004298
  60   6  -0.468649   2.576802   4.550767   0.001098   0.278737   0.003939
  61   6  -0.144885   6.376938  -0.461560   0.001108   0.232280   0.004769
  62   6   0.523583   6.053035  -1.112822   0.001367   0.278737   0.004903
  63   6   0.494920   2.523032   5.085263   0.000440   0.185824   0.002370
  64   6  -1.164537   3.496302   4.222671   0.001434   0.325193   0.004411
  65   6  -1.684604   2.927852   3.002693   0.001970   0.371649   0.005302
  66   6  -1.336264   2.164274   0.759405   0.001495   0.464561   0.003219
  67   6  -0.333975   1.882141  -0.418831   0.001424   0.464561   0.003066
  68   6   1.902114   1.269186  -0.667090   0.001463   0.278737   0.005248
  69   6   2.925721   1.134343  -0.196561   0.001954   0.371649   0.005259
  70   6  -0.601056   4.214915   4.834299   0.001023   0.325193   0.003147
  71   6  -1.639641   3.358762   0.319878   0.001136   0.371649   0.003058
  72   6  -1.190096   4.256157  -0.519253   0.001535   0.418105   0.003672
  73   6  -0.342576   4.086069  -1.290399   0.001709   0.464561   0.003678
  74   6   0.065556   2.742259  -1.253897   0.001009   0.325193   0.003104
  75   6   0.574322   7.274209   0.235816   0.000878   0.232280   0.003778
  76   6   1.789250   6.835036  -0.707507   0.000722   0.185824   0.003885
  77   6  -0.569566   1.440053   0.429683   0.000795   0.278737   0.002851
  78   6  -1.177328   2.589840   3.768620   0.001349   0.278737   0.004840
  79   6   2.101455   0.755308   0.085445   0.000980   0.232280   0.004219
  80   6  -0.427109   5.109756   4.786651   0.000342   0.139368   0.002452
  81   6  -0.970471   2.932867  -0.515555   0.001053   0.418105   0.002519
  82   7  11.266861  -0.053936   7.681719   0.001966   0.371649   0.005290
  83   7  12.566687   0.105492   1.518906   0.001097   0.325193   0.003373
  84   7  14.961548   1.005942   7.132448   0.002011   0.418105   0.004809
  85   7  13.205791  -1.574597   4.785024   0.001536   0.371649   0.004134
  86   7  13.938950  -1.251488   4.150070   0.001380   0.325193   0.004243
  87   7  15.501531   1.005499   6.331290   0.001314   0.278737   0.004715
  88   7  13.431015   0.081555   1.742210   0.000593   0.185824   0.003189
  89   7  10.744457   0.702881   7.902821   0.000352   0.092912   0.003783
  90   7  15.413656   3.104868   6.530131   0.001219   0.232280   0.005246
  91   7  15.420674   2.224970   6.783785   0.002170   0.371649   0.005839
  92   7  14.704654  -0.167990   6.517977   0.001585   0.464561   0.003412
  93   7  13.840401  -1.203502   5.709767   0.001426   0.464561   0.003070
  94   7  13.015703  -1.379751   3.414649   0.001893   0.371649   0.005094
  95   7  12.451510  -0.765309   2.247996   0.001713   0.371649   0.004609
  96   7  11.369097  -0.030028   1.718654   0.001261   0.418105   0.003015
  97   7  13.914389   0.145288   7.513242   0.001351   0.418105   0.003232
  98   7  12.534787  -0.277413   7.663408   0.001568   0.418105   0.003750
  99   7  11.859133  -0.924242   6.980041   0.001620   0.464561   0.003488
 100   7  12.628501  -1.475796   5.941970   0.000941   0.325193   0.002893
 101   7  14.673255  -0.701499   5.550805   0.000842   0.278737   0.003022
 102   7  15.797748   2.590258   5.938132   0.000648   0.139368   0.004650
 103   7  13.346892   0.879946   1.312370   0.000713   0.232280   0.003067
 104   7  13.417426  -0.791446   2.563445   0.001504   0.325193   0.004626
 105   7  13.404151  -0.828199   6.843576   0.001227   0.464561   0.002641
 106   8  15.378585   8.291989   0.879803   0.002286   0.418105   0.005469
 107   8  16.710262   7.420890   4.345709   0.001925   0.418105   0.004605
 108   8  14.013280  10.165470   3.786378   0.001532   0.371649   0.004121
 109   8  12.228434   6.872243  -0.265158   0.000717   0.278737   0.002572
 110   8  14.155905   5.323470  -0.078652   0.000738   0.232280   0.003177
 111   8  13.558427   6.322846  -0.380317   0.000972   0.278737   0.003487
 112   8  14.264516   7.290606  -0.156942   0.001583   0.325193   0.004869
 113   8  13.980714   9.906336   4.808255   0.001451   0.325193   0.004461
 114   8  16.278454   7.419629   5.327449   0.001252   0.278737   0.004490
 115   8  15.411371   5.443830   6.231683   0.000128   0.046456   0.002761
 116   8  11.613957   9.097516   5.637600   0.000416   0.139368   0.002988
 117   8  15.110476   7.295120   0.227284   0.001085   0.232280   0.004672
 118   8  14.587500   8.066152   0.237526   0.000925   0.185824   0.004978
 119   8  16.206570   5.310576   5.290840   0.001189   0.232280   0.005120
 120   8  16.534090   6.237196   5.086345   0.002338   0.418105   0.005592
 121   8  16.154204   8.556092   4.467245   0.001558   0.464561   0.003354
 122   8  15.125654   9.669359   4.048742   0.001418   0.464561   0.003053
 123   8  12.761104  10.123151   4.379969   0.001742   0.325193   0.005355
 124   8  11.693027   9.582128   4.990635   0.001115   0.232280   0.004799
 125   8  16.497623   8.298091   3.231315   0.001190   0.371649   0.003202
 126   8  16.071753   8.512024   2.012949   0.001540   0.418105   0.003684
 127   8  15.207772   9.226660   1.721882   0.001677   0.464561   0.003609
 128   8  14.748364   9.901418   2.865287   0.000968   0.325193   0.002978
 129   8  14.436249   6.203113  -0.174743   0.000873   0.232280   0.003758
[...]
 545  26  11.084536   7.684984   0.291031  -0.000113   0.126662  -0.000895
 546   5  10.419845   6.756855   0.300370   0.000373   0.178449   0.002092
 547   6   3.900170   1.981162  -0.519033   0.000121   0.082592   0.001459
 548  11   4.829668   2.034110  -0.365627   0.000106   0.082592   0.001281
 549  20   3.878832   2.173495  -0.756434   0.000009   0.082592   0.000109
 550  11   5.323210   1.487072   0.021200  -0.000091   0.208404  -0.000437
 551   6   3.943881   1.534004  -0.224223   0.000953   0.294425   0.003236
 552  12   0.753472   5.667665   5.890066  -0.000087   0.200178  -0.000434
 553  12   1.162758   4.321645   6.209083  -0.000830   0.409800  -0.002025
 554   6   0.167177   4.789937   5.243380   0.001077   0.548260   0.001965
 555   6   0.765764   3.291766   5.540574   0.000702   0.281965   0.002491
 556  13   3.908788   7.646476   0.424325  -0.000082   0.169235  -0.000483
 557  13   2.960001   8.198991   1.028197  -0.000703   0.344140  -0.002042
 558  13   2.219203   8.467968   2.002362  -0.000124   0.169235  -0.000732
 559   6   2.850129   7.236900   0.046890   0.000940   0.466592   0.002015
 560   6   1.641408   7.824591   1.175811   0.000904   0.466592   0.001938
 561   6   2.824914   0.418419   1.158479  -0.000086   0.075911  -0.001128
 562  15   3.308592  -0.108765   1.859168  -0.000189   0.075911  -0.002487
 563  18   2.668642   0.241195   1.350873  -0.000228   0.075911  -0.003009
 564  15   3.696548  -0.439720   1.960319   0.000023   0.031049   0.000748
 565   6   3.003338   0.380453   0.946259   0.000169   0.044115   0.003839
 566  18   0.443895   1.635731   4.608291  -0.000139   0.068743  -0.002021
 567  18  -0.430463   1.635651   3.924691  -0.000209   0.152559  -0.001372
 568  18  -0.936115   1.420239   2.700384  -0.000207   0.152559  -0.001360
 569  18  -0.598553   1.029864   1.461564  -0.000293   0.152559  -0.001920
 570  18   0.443181   0.625319   0.718498  -0.000277   0.152559  -0.001814
 571  18   1.760001   0.373234   0.777252  -0.000229   0.152559  -0.001499
 572   6   0.023505   2.043588   4.495076  -0.000118   0.150745  -0.000785
 573   6  -0.952821   1.944468   3.350571   0.000169   0.150745   0.001124
 574   6  -1.052510   1.585197   1.889779   0.000027   0.150745   0.000177
 575   6  -0.234499   1.113758   0.714393  -0.000051   0.150745  -0.000341
 576   6   1.164276   0.724335   0.308552   0.000072   0.150745   0.000478
 577   6   2.343706   0.559415   0.595448   0.000111   0.083985   0.001322
 578  19   0.056082   7.571890   1.951228  -0.000061   0.069628  -0.000874
 579  19  -0.250007   7.232561   0.926575  -0.000194   0.154861  -0.001255
 580  19  -0.876304   6.317337   0.146442  -0.000192   0.154861  -0.001240
 581  19  -1.567578   5.152462   0.207242  -0.000215   0.154861  -0.001386
 582  19  -2.032910   4.228165   1.083388  -0.000278   0.154861  -0.001792
 583  19  -2.076470   3.933429   2.406159  -0.000170   0.154861  -0.001097
 584  19  -1.679925   4.392293   3.618877  -0.000221   0.154861  -0.001425
 585  19  -1.010158   5.411646   4.211180  -0.000331   0.154861  -0.002137
 586   6   0.359381   7.510560   1.436996  -0.000099   0.152373  -0.000649
 587   6  -0.189277   6.800647   0.206208   0.000095   0.152373   0.000626
 588   6  -0.971593   5.565575  -0.220900   0.000056   0.152373   0.000369
 589   6  -1.658335   4.325116   0.335417  -0.000032   0.152373  -0.000208
 590   6  -1.960492   3.601308   1.641037  -0.000008   0.152373  -0.000053
 591   6  -1.750905   3.698760   3.146500   0.000007   0.152373   0.000048
 592   6  -1.117776   4.576461   4.218242   0.000022   0.152373   0.000146
 593   6  -0.479122   5.591474   4.526721   0.000052   0.085066   0.000611
 594  20   3.231890   2.051275  -1.098494   0.000009   0.070359   0.000126
 595  20   2.143231   2.072564  -1.401888  -0.000159   0.156674  -0.001014
 596  20   1.031138   2.805636  -1.703148  -0.000237   0.156674  -0.001510
 597  20   0.589908   4.093538  -1.810530  -0.000274   0.156674  -0.001748
 598  20   1.007751   5.386909  -1.678230  -0.000132   0.156674  -0.000844
 599  20   2.106433   6.134057  -1.362680  -0.000244   0.156674  -0.001560
 600  20   3.194581   6.169205  -1.058741  -0.000076   0.070359  -0.001074
 601   6   2.743737   1.765350  -0.889275   0.000143   0.153814   0.000928
 602   6   1.305370   2.121049  -1.286137   0.000102   0.153814   0.000665
 603   6   0.382387   3.321910  -1.528952  -0.000040   0.153814  -0.000258
 604   6   0.368491   4.855700  -1.514145   0.000092   0.153814   0.000597
 605   6   1.269608   6.068174  -1.248033   0.000048   0.153814   0.000311
 606   6   2.701365   6.442147  -0.844126  -0.000091   0.153814  -0.000591
 607   7  15.873926   3.250139   5.085370   0.000190   0.067477   0.002821
 608   8  15.960450   4.025223   4.824718   0.000268   0.067477   0.003966
 609  21  15.977740   3.061073   4.870230  -0.000013   0.067477  -0.000192
 610   7  14.884175   4.467450   6.589639   0.000282   0.063303   0.004450
 611   8  15.104860   5.239513   6.413806   0.000153   0.063303   0.002425
 612  24  14.993012   5.462001   6.590280  -0.000014   0.063303  -0.000224
 613   8  15.610635   4.850754   5.802682   0.001581   0.521344   0.003033
 614   7  15.565866   3.618799   5.834890   0.001688   0.521344   0.003239
 615   7  10.027129   1.096968   1.514759   0.000311   0.222227   0.001399
 616  11   8.882003   1.517955   1.022247   0.000261   0.222227   0.001173
 617  17   9.862923   1.558808   0.944443  -0.000098   0.222227  -0.000443
 618  11   8.338769   1.215177   0.857782   0.000055   0.019005   0.002883
 619   7  10.022947   0.584230   1.583839   0.000128   0.028269   0.004532
 620   7  10.195708   1.259273   7.887661   0.000371   0.103692   0.003575
 621  14   8.875408   1.330873   7.916199   0.000653   0.103692   0.006293
 622  22  10.382495   1.453367   8.033247   0.000103   0.103692   0.000992
 623  14   8.115415   0.964750   8.342347   0.000161   0.057471   0.002796
 624   7  10.061748   0.980120   8.058590   0.000326   0.085757   0.003802
 625   7  10.167027  -0.114597   2.295977  -0.000232   0.052396  -0.004434
 626  16   9.254019  -0.410715   2.526809  -0.000394   0.052396  -0.007529
 627  23  10.022007  -0.332435   2.443217  -0.000273   0.052396  -0.005203
 628  16   8.805948  -0.453340   2.362634  -0.000003   0.044208  -0.000064
 629   7  10.162710  -0.027982   2.045860   0.000139   0.062725   0.002213
 630  17  12.581676   2.203418   0.318981  -0.000054   0.208178  -0.000258
 631  17  11.208393   1.600610   0.518044  -0.000869   0.427888  -0.002030
 632   7  12.532075   1.215379   1.061048   0.001106   0.568703   0.001944
 633   7  10.931158   0.669217   1.373408   0.000731   0.293404   0.002490
 634  21  16.108184   2.411326   5.095474  -0.000024   0.070971  -0.000336
 635  21  15.957328   1.346811   5.479680  -0.000070   0.158479  -0.000442
 636  21  15.495143   0.069743   5.243032  -0.000248   0.158479  -0.001568
 637  21  14.884100  -0.692359   4.270228  -0.000252   0.158479  -0.001589
 638  21  14.390820  -0.606958   2.985743  -0.000194   0.158479  -0.001222
 639  21  14.230543   0.288682   1.950049  -0.000256   0.158479  -0.001618
 640  21  14.374979   1.349263   1.552720  -0.000093   0.070971  -0.001313
 641   7  15.876101   2.186094   5.607449   0.000207   0.154724   0.001341
 642   7  15.534688   0.691633   5.825275   0.000126   0.154724   0.000815
 643   7  14.896160  -0.521592   5.105699  -0.000035   0.154724  -0.000226
 644   7  14.239131  -0.924202   3.762702   0.000079   0.154724   0.000508
 645   7  13.850291  -0.340521   2.382288   0.000035   0.154724   0.000226
 646   7  13.899306   0.974766   1.566787  -0.000141   0.154724  -0.000910
 647   7  14.674081   4.075550   6.949734   0.000165   0.087996   0.001879
 648  22  14.507944   4.044233   7.205796  -0.000043   0.087996  -0.000494
 649  24  14.665481   5.068933   6.837477   0.000261   0.087996   0.002967
 650  22  11.181850   1.219589   8.360764  -0.000046   0.067090  -0.000691
 651  22  12.163635   0.769616   8.349617  -0.000153   0.147878  -0.001036
 652  22  13.456706   0.873036   8.183594  -0.000240   0.147878  -0.001622
 653  22  14.418917   1.710298   7.894741  -0.000120   0.147878  -0.000809
 654  22  14.677218   2.956796   7.595047  -0.000197   0.147878  -0.001331
 655   7  11.383454   0.730821   8.098292   0.000096   0.148114   0.000649
 656   7  12.811619   0.395549   8.012657   0.000027   0.148114   0.000179
 657   7  14.144955   0.951685   7.743731   0.000034   0.148114   0.000233
 658   7  14.866529   2.183617   7.395779   0.000197   0.148114   0.001328
 659   7  14.875147   3.348318   7.141585   0.000188   0.081965   0.002299
 660  23  10.582189  -0.498570   2.354885  -0.000170   0.070110  -0.002424
 661  23  11.406781  -1.143234   2.807103  -0.000269   0.156882  -0.001715
 662  23  11.989636  -1.673626   3.935705  -0.000253   0.156882  -0.001616
 663  23  11.851825  -1.699343   5.305057  -0.000328   0.156882  -0.002091
 664  23  11.053864  -1.209093   6.313863  -0.000443   0.156882  -0.002827
 665   7  11.178866  -0.518111   2.278959  -0.000126   0.152479  -0.000826
 666   7  12.149264  -1.311217   3.184147   0.000087   0.152479   0.000568
 667   7  12.414144  -1.642200   4.670870   0.000008   0.152479   0.000055
 668   7  11.857194  -1.365721   6.086292  -0.000115   0.152479  -0.000757
 669   7  10.998309  -0.805082   6.815272   0.000026   0.085655   0.000301
 670  24  14.988810   5.598620   6.804578   0.000062   0.027592   0.002241
 671   7  14.938598   4.126073   6.887108   0.000206   0.039200   0.005255
 672   8  10.903076   9.575851   3.753137   0.000104   0.081275   0.001281
 673   9   9.995708   9.398874   3.711701   0.000066   0.081275   0.000815
 674  26  10.924552   9.673484   3.464267  -0.000011   0.081275  -0.000130
 675   9   9.467942   9.292451   4.396853  -0.000049   0.234530  -0.000207
 676   8  10.824930   9.523089   4.331555   0.001092   0.330837   0.003299
 677  17  11.139209   5.601170  -0.443362  -0.000027   0.174822  -0.000157
 678  17  12.178747   4.831118  -0.546690  -0.000571   0.356126  -0.001604
 679  17  12.990144   3.886104  -0.182165  -0.000059   0.174822  -0.000338
 680   8  12.165643   6.198129  -0.288084   0.001023   0.481278   0.002126
 681   8  13.489339   4.971599  -0.101289   0.001020   0.481278   0.002119
 682   8  16.193127   4.397088   4.495375   0.000110   0.085709   0.001285
 683  21  16.074041   3.439470   4.490752   0.000187   0.085709   0.002178
 684  25  16.339701   4.386172   4.226441  -0.000088   0.085709  -0.001029
 685  21  16.153181   2.938302   4.756792   0.000047   0.023211   0.002019
 686   8  16.250013   4.359651   4.749942   0.000174   0.032868   0.005304
 687  24  15.313128   6.088469   6.593386  -0.000039   0.071414  -0.000547
 688  24  15.726975   7.080901   6.199764  -0.000174   0.159469  -0.001094
 689  24  15.481897   8.386208   5.815933  -0.000256   0.159469  -0.001603
 690  24  14.452086   9.300276   5.692701  -0.000288   0.159469  -0.001804
 691  24  13.088424   9.422899   5.884023  -0.000129   0.159469  -0.000809
 692  24  12.103991   8.936924   6.209366  -0.000044   0.071414  -0.000619
 693   8  15.675832   6.230183   6.127183   0.000164   0.155711   0.001054
 694   8  15.914980   7.676428   5.615294   0.000102   0.155711   0.000655
 695   8  15.156324   8.997126   5.313553  -0.000029   0.155711  -0.000188
 696   8  13.732025   9.614036   5.354072   0.000077   0.155711   0.000495
 697   8  12.265681   9.257059   5.719110   0.000094   0.155711   0.000602
 698  25  14.984897   4.640606   0.485013  -0.000078   0.070962  -0.001094
 699  25  15.277888   5.716097   0.247357  -0.000222   0.158333  -0.001400
 700  25  15.876722   6.885114   0.658649  -0.000191   0.158333  -0.001207
 701  25  16.530135   7.440363   1.735272  -0.000248   0.158333  -0.001565
 702  25  16.954476   7.140805   3.009856  -0.000245   0.158333  -0.001550
 703  25  16.965535   6.116482   3.929098  -0.000135   0.158333  -0.000850
 704  25  16.682751   5.043412   4.189020  -0.000069   0.070962  -0.000974
 705   8  14.677838   5.111125   0.259062  -0.000136   0.154833  -0.000878
 706   8  15.203113   6.564976   0.246399   0.000085   0.154833   0.000549
 707   8  15.947932   7.590546   1.131390   0.000033   0.154833   0.000215
 708   8  16.588965   7.742627   2.529856  -0.000016   0.154833  -0.000102
 709   8  16.847935   6.955201   3.834713   0.000005   0.154833   0.000030
 710   8  16.612421   5.570094   4.479515  -0.000001   0.154833  -0.000007
 711  26  11.558332  10.036208   3.419997   0.000003   0.070954   0.000042
 712  26  12.651436  10.315399   3.247434  -0.000189   0.158423  -0.001194
 713  26  13.782900  10.195523   2.469856  -0.000256   0.158423  -0.001615
 714  26  14.244007   9.581731   1.325371  -0.000300   0.158423  -0.001896
 715  26  13.833741   8.741603   0.312911  -0.000183   0.158423  -0.001154
 716  26  12.730955   8.041388  -0.126145  -0.000272   0.158423  -0.001717
 717  26  11.638179   7.752805   0.032484  -0.000086   0.070954  -0.001215
 718   8  12.046330  10.034572   3.778452   0.000164   0.154707   0.001061
 719   8  13.497974  10.216872   3.273198   0.000036   0.154707   0.000231
 720   8  14.445441   9.780391   2.129706  -0.000048   0.154707  -0.000311
 721   8  14.475689   8.915411   0.846477   0.000085   0.154707   0.000550
 722   8  13.575529   7.999016  -0.017073   0.000155   0.154707   0.000999
 723   8  12.137384   7.430704  -0.084482  -0.000118   0.154707  -0.000764
 724  13   5.399679   9.047146   4.181275   0.000208   0.228548   0.000911
 725  13   5.561313   9.286883   3.056629  -0.000830   0.457347  -0.001815
 726  13   5.761387   8.809460   1.738939  -0.000901   0.457347  -0.001970
 727  13   5.879224   7.902843   1.022988   0.000073   0.228548   0.000318
 728   9   6.778772   9.187209   3.951232  -0.000382   0.457347  -0.000834
 729   9   6.984379   9.181026   2.550534  -0.001021   0.457347  -0.002232
 730   9   7.156063   8.286910   1.466399  -0.000575   0.457347  -0.001258
 731  26  10.448824   8.388113   0.712053  -0.000027   0.240470  -0.000111
 732  26  10.442677   9.311130   1.398629  -0.000738   0.481025  -0.001535
 733  26  10.685939   9.852360   2.669256  -0.000209   0.481025  -0.000435
 734   9   9.092909   8.464599   1.333438  -0.000378   0.481025  -0.000787
 735   9   9.185918   9.397552   2.376293  -0.000796   0.481025  -0.001655
 736   9   9.451539   9.612044   3.474849  -0.000035   0.240470  -0.000145
 737  10   6.284207   5.022433   7.732883   0.000182   0.340659   0.000534
 738  12   5.048072   4.991730   7.544166   0.000181   0.340659   0.000532
 739  14   5.663836   4.173893   7.913860  -0.000202   0.340659  -0.000592
 740  12   4.730524   5.796876   7.678460   0.000290   0.301370   0.000961
 741  12   4.767020   6.633250   7.298797   0.000561   0.301370   0.001863
 742  10   6.515011   6.243746   7.721598   0.000550   0.602147   0.000913
 743  10   9.004076   3.603019   8.083686  -0.000094   0.377176  -0.000249
 744  14   8.368013   2.747779   8.123295   0.000834   0.377176   0.002210
 745  22   9.886971   2.945550   8.067941   0.000951   0.377176   0.002521
 746  14   7.525596   2.835150   8.712794  -0.000049   0.270491  -0.000179
 747  14   6.518829   3.534176   8.637050  -0.000668   0.541070  -0.001235
 748  10   8.000930   4.324836   8.509842  -0.000458   0.541070  -0.000846
 749  10   6.995191   5.003868   8.321805  -0.000024   0.270491  -0.000090
 750  10  11.027019   5.639859   7.687101   0.000183   0.343749   0.000533
 751  22  11.897378   4.974668   7.803785  -0.000117   0.343749  -0.000341
 752  24  12.129686   6.010826   7.466141   0.000005   0.343749   0.000015
 753  22  11.648181   4.434458   8.414903  -0.000056   0.251507  -0.000223
 754  22  10.958458   3.571272   8.599296  -0.000220   0.502854  -0.000437
 755  10  10.160849   5.058354   8.369524  -0.000198   0.502854  -0.000394
 756  10   9.470865   4.180609   8.460601   0.000120   0.251507   0.000476
 757  24  11.710103   7.894124   7.175172   0.000204   0.358577   0.000568
 758  24  12.118932   6.938998   7.615660   0.000020   0.358577   0.000056
 759  10  10.348823   6.869124   7.661552   0.000270   0.717488   0.000376
 760  17   9.739124   1.719783   0.317097   0.000223   0.223114   0.000998
 761  17   9.610768   2.497146  -0.437613  -0.000409   0.446268  -0.000916
 762  17   9.421109   3.778365  -0.757490  -0.000456   0.446268  -0.001021
 763  17   9.280561   4.817544  -0.456309   0.000122   0.223114   0.000548
 764  11   8.307655   1.800683   0.042746  -0.000198   0.446268  -0.000444
 765  11   8.132422   2.914953  -0.669651  -0.000486   0.446268  -0.001088
 766  11   7.947747   4.231996  -0.564270  -0.000154   0.446268  -0.000346
 767  20   4.567731   4.988394  -1.176650   0.000056   0.234080   0.000240
 768  20   4.484687   3.963105  -1.533416  -0.000374   0.468086  -0.000799
 769  20   4.148439   2.694208  -1.314641   0.000033   0.468086   0.000071
 770  11   5.918194   4.325247  -0.851646  -0.000047   0.468086  -0.000101
 771  11   5.719329   3.023034  -1.040644  -0.000371   0.468086  -0.000792
 772  11   5.388121   2.057925  -0.660826   0.000096   0.234080   0.000412
 773  14   5.057860   3.743777   8.369098   0.000011   0.286415   0.000038
 774  14   4.070756   2.955423   8.222196   0.000081   0.572950   0.000141
 775  12   3.797370   4.624469   7.881741  -0.000526   0.572950  -0.000918
 776  12   2.849126   3.818794   7.618722   0.000050   0.286415   0.000175
 777  22  10.349171   2.362684   8.580746   0.000516   0.266491   0.001937
 778  22  10.438214   1.656501   8.485223   0.000650   0.266491   0.002439
 779  14   8.172495   1.723471   8.577702   0.001001   0.531764   0.001882
 780  18   2.430370  -0.094844   1.507609  -0.000201   0.207881  -0.000966
 781  18   1.698894  -0.414850   2.277810  -0.001701   0.415994  -0.004090
 782  18   1.040182  -0.189054   3.441764  -0.001884   0.415994  -0.004530
 783  18   0.899262   0.697853   4.458234  -0.001306   0.415994  -0.003140
 784  15   3.074371  -0.824135   2.425454  -0.001394   0.415994  -0.003352
 785  15   2.244868  -0.981479   3.486982  -0.001927   0.415994  -0.004633
 786  15   1.823710  -0.395429   4.635391  -0.001710   0.415994  -0.004110
 787  15   1.859259   0.447775   5.355402  -0.000174   0.207881  -0.000838
 788  23  10.088719  -1.307007   6.190923  -0.000704   0.212318  -0.003317
 789  23  10.152978  -1.840600   5.039404  -0.002956   0.425643  -0.006944
 790  23  10.105476  -1.611725   3.514114  -0.002966   0.425643  -0.006969
 791  23   9.976135  -0.764548   2.575813  -0.000731   0.212318  -0.003441
 792  16   9.019920  -1.699405   5.775409  -0.002355   0.425643  -0.005532
 793  16   9.050447  -2.019925   4.266275  -0.003146   0.425643  -0.007391
 794  16   8.931065  -1.271278   2.922242  -0.002630   0.425643  -0.006179
 795  25  16.653330   4.234275   3.901381   0.000235   0.259143   0.000908
 796  25  16.644302   3.869561   2.744211  -0.000837   0.518445  -0.001615
 797  25  15.827562   3.653808   1.536537  -0.000724   0.518445  -0.001397
 798  21  16.405445   2.727761   3.890806  -0.000391   0.518445  -0.000754
 799  21  16.068124   2.357576   2.504708  -0.000856   0.518445  -0.001650
 800  21  15.191144   2.272448   1.670561   0.000023   0.259143   0.000088
 801  24  12.989866   6.205043   7.768741  -0.000063   0.310468  -0.000203
 802  24  14.232071   5.825974   7.433299  -0.000241   0.621167  -0.000388
 803  22  13.155404   4.595851   8.131048  -0.000485   0.621167  -0.000780
 804  22  14.346897   4.188984   7.668349   0.000478   0.310468   0.001540
 =====================================================

              6157928  WORDS OF DYNAMIC MEMORY USED
 EXECUTION OF GAMESS TERMINATED NORMALLY Wed Nov 23 06:17:48 2016
 DDI: 263640 bytes (0.3 MB / 0 MWords) used by master data server.

 ----------------------------------------
 CPU timing information for all processes
 ========================================
 0: 3779.148 + 1.100 = 3780.248
 ----------------------------------------
 ddikick.x: exited gracefully.
