----- GAMESS execution script -----

          ******************************************************
          *         GAMESS VERSION =  5 DEC 2014 (R1)          *
          *             FROM IOWA STATE UNIVERSITY             *
          * M.W.SCHMIDT, K.K.BALDRIDGE, J.A.BOATZ, S.T.ELBERT, *
          *   M.S.GORDON, J.H.JENSEN, S.KOSEKI, N.MATSUNAGA,   *
          *          K.A.NGUYEN, S.J.SU, T.L.WINDUS,           *
          *       TOGETHER WITH M.DUPUIS, J.A.MONTGOMERY       *
          *         J.COMPUT.CHEM.  14, 1347-1363(1993)        *
          **************** 64 BIT LINUX VERSION ****************

 EXECUTION OF GAMESS BEGUN Wed Nov 23 05:04:13 2016

            ECHO OF THE FIRST FEW INPUT CARDS -
 INPUT CARD>! SELECT RESTRICTED HARTREE-FOCK AS DEFAULT                                     
 INPUT CARD>$contrl scftyp=rhf $end                                                         
 INPUT CARD>                                                                                
 INPUT CARD>! THEORY: HF OR DFT                                                             
 INPUT CARD> $contrl mplevl=0 $end                                                          
 INPUT CARD>                                                                                
 INPUT CARD> $system timlim=10000 mwords=20 $end                                            
 INPUT CARD> $SCF DIRSCF=.TRUE. $end                                                        
 INPUT CARD>                                                                                
 INPUT CARD>                                                                                
 INPUT CARD>! BASIS SETS                                                                    
 INPUT CARD>! 6-311G(d,p)                                                                   
 INPUT CARD> $BASIS GBASIS=N311 NGAUSS=6 NDFUNC=1 NPFUNC=1 $END                             
 INPUT CARD>                                                                                
 INPUT CARD>! One of the following                                                          
 INPUT CARD> $guess guess=HUCKEL $end                                                       
 INPUT CARD>                                                                                
 INPUT CARD> $statpt projct=.FALSE. $end                                                    
 INPUT CARD> $STATPT IFREEZ(1)=1,2,3 $END                                                   
 INPUT CARD>                                                                                
 INPUT CARD>! Optimize the geometry with COSMO effects                                      
 INPUT CARD> $statpt opttol=0.0005 nstep=50 $end                                            
 INPUT CARD> $contrl nzvar=1 $end                                                           
 INPUT CARD> $zmat dlc=.t. auto=.t. $end                                                    
 INPUT CARD> $contrl runtyp=OPTIMIZE maxit=200 $end                                         
 INPUT CARD>                                                                                
 INPUT CARD>! Run COSMO on perfect conductor                                                
 INPUT CARD> $COSGMS PRFCND=.TRUE. $end                                                     
 INPUT CARD>                                                                                
 INPUT CARD>! Specifying RSOLV                                                              
 INPUT CARD> $COSGMS COSRAD = 1.4 $end                                                      
 INPUT CARD>                                                                                
 INPUT CARD>! available memory                                                              
 INPUT CARD> $SYSTEM MWORDS=40 $END                                                         
 INPUT CARD>                                                                                
 INPUT CARD> $DATA                                                                          
 INPUT CARD>http://cactus.nci.nih.gov/chemical/structure/2,4-DIMETHYL-3-PENTANOL/file?format
 INPUT CARD>C1                                                                              
 INPUT CARD>C      6.0     -1.5525000000    1.6042000000   -0.3308000000                    
 INPUT CARD>C      6.0     -1.2730000000    0.2162000000    0.2491000000                    
 INPUT CARD>C      6.0     -2.4707000000   -0.6981000000   -0.0164000000                    
 INPUT CARD>C      6.0     -0.0257000000   -0.3718000000   -0.4138000000                    
 INPUT CARD>C      6.0      1.1720000000    0.5425000000   -0.1483000000                    
 INPUT CARD>C      6.0      1.4793000000    0.5581000000    1.3505000000                    
 INPUT CARD>C      6.0      2.3904000000    0.0220000000   -0.9134000000                    
 INPUT CARD>O      8.0      0.2353000000   -1.6682000000    0.1279000000                    
 INPUT CARD>H      1.0     -0.6993000000    2.2555000000   -0.1417000000                    
 INPUT CARD>H      1.0     -1.7163000000    1.5227000000   -1.4053000000                    
 INPUT CARD>H      1.0     -2.4411000000    2.0230000000    0.1415000000                    
 INPUT CARD>H      1.0     -1.1092000000    0.2976000000    1.3237000000                    
   40000000 WORDS OF MEMORY AVAILABLE

     BASIS OPTIONS
     -------------
     GBASIS=N311         IGAUSS=       6      POLAR=POPN311 
     NDFUNC=       1     NFFUNC=       0     DIFFSP=       F
     NPFUNC=       1      DIFFS=       F     BASNAM=        


     RUN TITLE
     ---------
 http://cactus.nci.nih.gov/chemical/structure/2,4-DIMETHYL-3-PENTANOL/file?format

 THE POINT GROUP OF THE MOLECULE IS C1      
 THE ORDER OF THE PRINCIPAL AXIS IS     0

 ATOM      ATOMIC                      COORDINATES (BOHR)
           CHARGE         X                   Y                   Z
 C           6.0    -2.9337995959        3.0314984295       -0.6251213567
 C           6.0    -2.4056211824        0.4085587585        0.4707307435
 C           6.0    -4.6689459979       -1.3192177120       -0.0309915062
 C           6.0    -0.0485659579       -0.7026001222       -0.7819686137
 C           6.0     2.2147588576        1.0251763483       -0.2802463640
 C           6.0     2.7954716536        1.0546560737        2.5520749464
 C           6.0     4.5172010011        0.0415739717       -1.7260757172
 O           8.0     0.4446525249       -3.1524408927        0.2416959538
 H           1.0    -1.3214853832        4.2622769653       -0.2677741725
 H           1.0    -3.2433367127        2.8774857615       -2.6556319305
 H           1.0    -4.6130101086        3.8229156732        0.2673962273
 H           1.0    -2.0960840656        0.5623824539        2.5014302899
 H           1.0    -4.9784831147       -1.4732303800       -2.0615020800
 H           1.0    -4.2927015537       -3.1877787687        0.7498432719
 H           1.0    -6.3481565106       -0.5276114958        0.8615260778
 H           1.0    -0.3581030747       -0.8564238176       -2.8124791875
 H           1.0     1.7729409217        2.9356893219       -0.9104699809
 H           1.0     1.1551894963        1.7553664700        3.5819756097
 H           1.0     3.2372895896       -0.8560458724        3.1822985633
 H           1.0     4.4079748390        2.2856235821        2.9094221307
 H           1.0     4.1033510097        0.0205980133       -3.7437361543
 H           1.0     6.1297041864        1.2725414801       -1.3685395603
 H           1.0     4.9590189370       -1.8691279745       -1.0958521003
 H           1.0     0.7386938886       -3.1588659611        2.0452504365

          INTERNUCLEAR DISTANCES (ANGS.)




     $CONTRL OPTIONS
     ---------------
 SCFTYP=RHF          RUNTYP=OPTIMIZE     EXETYP=RUN     
 MPLEVL=       0     CITYP =NONE         CCTYP =NONE         VBTYP =NONE    
 DFTTYP=NONE         TDDFT =NONE    
 MULT  =       1     ICHARG=       0     NZVAR =       1     COORD =UNIQUE  
 PP    =NONE         RELWFN=NONE         LOCAL =NONE         NUMGRD=       F
 ISPHER=      -1     NOSYM =       0     MAXIT =     200     UNITS =ANGS    
 PLTORB=       F     MOLPLT=       F     AIMPAC=       F     FRIEND=        
 NPRINT=       7     IREST =       0     GEOM  =INPUT   
 NORMF =       0     NORMP =       0     ITOL  =      20     ICUT  =       9
 INTTYP=BEST         GRDTYP=BEST         QMTTOL= 1.0E-06

     $SYSTEM OPTIONS
     ---------------
  REPLICATED MEMORY=    40000000 WORDS (ON EVERY NODE).
 DISTRIBUTED MEMDDI=           0 MILLION WORDS IN AGGREGATE,
 MEMDDI DISTRIBUTED OVER   1 PROCESSORS IS           0 WORDS/PROCESSOR.
 TOTAL MEMORY REQUESTED ON EACH PROCESSOR=    40000000 WORDS.
 TIMLIM=       10000.00 MINUTES, OR       6.9 DAYS.
 PARALL= F  BALTYP=  DLB     KDIAG=    0  COREFL= F
 MXSEQ2=     300 MXSEQ3=     150  mem10=         0

     $COSGMS OPTIONS
     ---------------
     EPSI  =   INFTY     NSPA  =      92     COSRAD=    1.40
     DISEX =   10.00     OUTCHG=DBLCAV       COSBUG=       F
     COSWRT=       F     DCOSMO=       F

     SYMMETRY COORDINATES WILL NOT BE USED FOR 
     THE COSMO CALCULATION, EVEN IF SPECIFIED:
         -- SWITCHING TO C1 POINT GROUP --


     DEFINITION OF CAVITY
     ---------------------------
     ATOM         COORDINATES           RADIUS 
     1   -2.9338    3.0315   -0.6251    2.0000
     2   -2.4056    0.4086    0.4707    2.0000
     3   -4.6689   -1.3192   -0.0310    2.0000
     4   -0.0486   -0.7026   -0.7820    2.0000
     5    2.2148    1.0252   -0.2802    2.0000
     6    2.7955    1.0547    2.5521    2.0000
     7    4.5172    0.0416   -1.7261    2.0000
     8    0.4447   -3.1524    0.2417    1.7200
     9   -1.3215    4.2623   -0.2678    1.3000
    10   -3.2433    2.8775   -2.6556    1.3000
    11   -4.6130    3.8229    0.2674    1.3000
    12   -2.0961    0.5624    2.5014    1.3000
    13   -4.9785   -1.4732   -2.0615    1.3000
    14   -4.2927   -3.1878    0.7498    1.3000
    15   -6.3482   -0.5276    0.8615    1.3000
    16   -0.3581   -0.8564   -2.8125    1.3000
    17    1.7729    2.9357   -0.9105    1.3000
    18    1.1552    1.7554    3.5820    1.3000
    19    3.2373   -0.8560    3.1823    1.3000
    20    4.4080    2.2856    2.9094    1.3000
    21    4.1034    0.0206   -3.7437    1.3000
    22    6.1297    1.2725   -1.3685    1.3000
    23    4.9590   -1.8691   -1.0959    1.3000
    24    0.7387   -3.1589    2.0453    1.3000

          ----------------
          PROPERTIES INPUT
          ----------------

     MOMENTS            FIELD           POTENTIAL          DENSITY
 IEMOM =       1   IEFLD =       0   IEPOT =       0   IEDEN =       0
 WHERE =COMASS     WHERE =NUCLEI     WHERE =NUCLEI     WHERE =NUCLEI  
 OUTPUT=BOTH       OUTPUT=BOTH       OUTPUT=BOTH       OUTPUT=BOTH    
 IEMINT=       0   IEFINT=       0                     IEDINT=       0
                                                       MORB  =       0
          EXTRAPOLATION IN EFFECT
          SOSCF IN EFFECT
 ORBITAL PRINTING OPTION: NPREO=     1   248     2     1

     -------------------------------
     INTEGRAL TRANSFORMATION OPTIONS
     -------------------------------
     NWORD  =            0
     CUTOFF = 1.0E-09     MPTRAN =       0
     DIRTRF =       T     AOINTS =DUP     

          ----------------------
          INTEGRAL INPUT OPTIONS
          ----------------------
 NOPK  =       1 NORDER=       0 SCHWRZ=       T


 -----------------------------------------------
  STATISTICS ON AUTOMATIC COORDINATE GENERATION 
 -----------------------------------------------
  NUMBER OF USER SPECIFIED BONDS                             0
  NUMBER OF BONDS                                           23
  NUMBER OF ANGLES                                          43
  NUMBER OF TORSIONS                                        57
  NUMBER OF EXTRA COORD.                                     0
  NUMBER OF EXTRA COORD. FOR CONSTRAINTS                     0
  NUMBER OF CONSTRAINED COORD.                               0

  TOTAL NUMBER OF PRIMITIVES                               123
 -----------------------------------------------

   --- ENCODED Z MATRIX ---
 COORD  TYPE   I   J   K   L   M   N
    1      1    1   9
    2      1    1  11
    3      1    1   2
    4      1    1  10
    5      1    2   4
    6      1    2   3
    7      1    2  12
    8      1    3  14
    9      1    3  13
   10      1    3  15
   11      1    4   8
   12      1    4  16
   13      1    4   5
   14      1    5   7
   15      1    5   6
   16      1    5  17
   17      1    6  20
   18      1    6  19
   19      1    6  18
   20      1    7  23
   21      1    7  22
   22      1    7  21
   23      1    8  24
   24      2    1   2   4
   25      2    1   2   3
   26      2    1   2  12
   27      2    2   4  16
   28      2    2   4   5
   29      2    2   3  13
   30      2    2   1   9
   31      2    2   4   8
   32      2    2   3  14
   33      2    2   1  10
   34      2    2   3  15
   35      2    2   1  11
   36      2    3   2  12
   37      2    3   2   4
   38      2    4   5  17
   39      2    4   5   7
   40      2    4   8  24
   41      2    4   2  12
   42      2    4   5   6
   43      2    5   7  23
   44      2    5   4  16
   45      2    5   4   8
   46      2    5   6  18
   47      2    5   6  19
   48      2    5   6  20
   49      2    5   7  21
   50      2    5   7  22
   51      2    6   5   7
   52      2    6   5  17
   53      2    7   5  17
   54      2    8   4  16
   55      2    9   1  10
   56      2    9   1  11
   57      2   10   1  11
   58      2   13   3  15
   59      2   13   3  14
   60      2   14   3  15
   61      2   18   6  19
   62      2   18   6  20
   63      2   19   6  20
   64      2   21   7  22
   65      2   21   7  23
   66      2   22   7  23
   67      3    1   2   4   5
   68      3    1   2   3  15
   69      3    1   2   4  16
   70      3    1   2   3  13
   71      3    1   2   3  14
   72      3    1   2   4   8
   73      3    2   4   5  17
   74      3    2   4   5   6
   75      3    2   4   5   7
   76      3    2   4   8  24
   77      3    3   2   1   9
   78      3    3   2   4   5
   79      3    3   2   1  10
   80      3    3   2   4  16
   81      3    3   2   1  11
   82      3    3   2   4   8
   83      3    4   5   7  22
   84      3    4   5   7  23
   85      3    4   2   3  13
   86      3    4   2   1  10
   87      3    4   2   1   9
   88      3    4   2   3  15
   89      3    4   5   6  18
   90      3    4   5   6  19
   91      3    4   5   6  20
   92      3    4   2   3  14
   93      3    4   2   1  11
   94      3    4   5   7  21
   95      3    5   4   2  12
   96      3    5   4   8  24
   97      3    6   5   7  22
   98      3    6   5   7  21
   99      3    6   5   7  23
  100      3    6   5   4  16
  101      3    6   5   4   8
  102      3    7   5   4  16
  103      3    7   5   4   8
  104      3    7   5   6  20
  105      3    7   5   6  19
  106      3    7   5   6  18
  107      3    8   4   5  17
  108      3    8   4   2  12
  109      3    9   1   2  12
  110      3   10   1   2  12
  111      3   11   1   2  12
  112      3   12   2   3  13
  113      3   12   2   3  15
  114      3   12   2   3  14
  115      3   12   2   4  16
  116      3   16   4   5  17
  117      3   16   4   8  24
  118      3   17   5   7  22
  119      3   17   5   7  21
  120      3   17   5   6  20
  121      3   17   5   6  19
  122      3   17   5   6  18
  123      3   17   5   7  23

          INDEP./SYM. INTERNAL COORDINATES
          --------------------------------
 CRD  1=  -0.2625 ( 24)  0.1249 ( 27) -0.5483 ( 28)  0.2215 ( 31) -0.1002 ( 36)
           0.2486 ( 37)  0.2214 ( 39) -0.2187 ( 42)  0.1682 ( 44)  0.1583 ( 45)
          -0.1246 ( 54)  0.2123 ( 76)  0.1208 ( 87)  0.1130 ( 89)  0.1072 ( 91)
           0.1081 ( 93) -0.2267 ( 96)
 CRD  2=   0.1840 (  5)  0.1187 ( 14)  0.2104 ( 24) -0.1476 ( 25)  0.1227 ( 28)
           0.1296 ( 30)  0.2447 ( 39) -0.3739 ( 42)  0.1305 ( 44) -0.2581 ( 45)
           0.1010 ( 48)  0.1349 ( 52) -0.1002 ( 53)  0.3096 ( 67)  0.1028 ( 69)
           0.2473 ( 78)  0.1834 ( 83)  0.1570 ( 84) -0.1029 ( 88)  0.1802 ( 94)
           0.2013 ( 95) -0.1156 ( 97) -0.1189 ( 98) -0.1420 ( 99)
 CRD  3=   0.2564 (  5)  0.1369 (  6)  0.3413 ( 13) -0.1027 ( 24) -0.2439 ( 25)
           0.1376 ( 26) -0.1327 ( 27)  0.1186 ( 28)  0.1170 ( 32)  0.3082 ( 37)
          -0.1226 ( 38)  0.1506 ( 39)  0.1901 ( 42)  0.1320 ( 46) -0.3093 ( 51)
           0.1048 ( 69)  0.1173 ( 72)  0.1114 ( 73)  0.2422 ( 74) -0.1199 ( 81)
           0.1519 (100)  0.1194 (101) -0.1035 (104)
 CRD  4=  -0.1523 (  5) -0.1363 ( 13) -0.1124 ( 14)  0.1255 ( 15) -0.2726 ( 24)
           0.1584 ( 25) -0.2305 ( 27)  0.1411 ( 28)  0.1976 ( 31)  0.1174 ( 35)
           0.1048 ( 38) -0.1718 ( 39)  0.1405 ( 41) -0.2566 ( 45) -0.1471 ( 49)
           0.1499 ( 51)  0.1133 ( 67) -0.1199 ( 68) -0.1139 ( 71)  0.1811 ( 73)
           0.2372 ( 74)  0.2837 ( 75) -0.1131 ( 76)  0.1347 ( 78)  0.1493 ( 85)
           0.1226 ( 88) -0.1153 ( 91)  0.1286 ( 92)  0.1090 ( 95)  0.1414 (102)
           0.1124 (103)
 CRD  5=  -0.1253 (  3)  0.1455 ( 15) -0.3540 ( 25)  0.1012 ( 26)  0.1541 ( 31)
           0.1347 ( 32) -0.1442 ( 34) -0.1146 ( 35)  0.2559 ( 37)  0.1171 ( 38)
          -0.3078 ( 39) -0.1512 ( 41) -0.1162 ( 45)  0.1141 ( 47)  0.1341 ( 50)
           0.2873 ( 51) -0.1528 ( 52)  0.1180 ( 67)  0.1055 ( 69) -0.1240 ( 74)
          -0.1018 ( 78) -0.1143 ( 80) -0.1852 ( 82)  0.1087 ( 86) -0.1103 ( 90)
          -0.1076 (100) -0.2061 (101)  0.1341 (104) -0.1039 (107) -0.1098 (117)
 CRD  6=  -0.1524 (  3)  0.1219 (  5)  0.2947 (  6)  0.2167 ( 13)  0.3214 ( 14)
          -0.2019 ( 24)  0.1039 ( 25)  0.2238 ( 28) -0.1616 ( 30) -0.2089 ( 31)
           0.1375 ( 37) -0.1511 ( 40) -0.1977 ( 42)  0.1444 ( 43) -0.1395 ( 44)
          -0.1390 ( 46)  0.1086 ( 48)  0.1099 ( 50)  0.2355 ( 51) -0.1283 ( 53)
           0.1049 ( 54) -0.1357 ( 67) -0.1073 ( 69) -0.1133 ( 72) -0.1650 ( 74)
           0.1032 ( 96) -0.1026 (100)  0.1345 (103)
 CRD  7=   0.2431 (  6) -0.1231 ( 11) -0.1230 ( 14) -0.1508 ( 24)  0.1802 ( 25)
           0.2415 ( 29) -0.1483 ( 36)  0.1201 ( 37) -0.1362 ( 39)  0.1273 ( 42)
          -0.2434 ( 43) -0.1796 ( 45)  0.1097 ( 49) -0.1181 ( 51)  0.1648 ( 53)
          -0.1143 ( 72) -0.1259 ( 73) -0.1224 ( 74) -0.2725 ( 75)  0.2600 ( 78)
           0.1288 ( 80)  0.1006 ( 87) -0.1048 ( 89)  0.1199 ( 93)  0.1371 ( 95)
          -0.1473 (102) -0.2488 (103) -0.1023 (107)
 CRD  8=  -0.3678 (  3) -0.2151 (  5) -0.2053 ( 11) -0.2218 ( 13) -0.2059 ( 14)
          -0.2750 ( 15) -0.1008 ( 25) -0.1157 ( 29) -0.1031 ( 30)  0.1222 ( 32)
          -0.1024 ( 33)  0.1040 ( 37) -0.3524 ( 40) -0.1256 ( 43) -0.1698 ( 47)
          -0.1239 ( 51)  0.1352 ( 54)  0.1009 ( 57) -0.1275 ( 72) -0.1129 ( 75)
          -0.1150 ( 78) -0.1133 ( 80) -0.2260 ( 82)  0.1415 (101) -0.1142 (108)
 CRD  9=  -0.1938 (  3) -0.3293 (  5) -0.1852 (  6) -0.1258 ( 11)  0.2425 ( 13)
           0.1987 ( 15)  0.1356 ( 26) -0.2940 ( 31) -0.1217 ( 32) -0.1598 ( 33)
          -0.1101 ( 34)  0.2119 ( 45)  0.1751 ( 67)  0.1121 ( 69)  0.2578 ( 72)
          -0.1080 ( 73)  0.1510 ( 78)  0.2337 ( 82)  0.1283 (101)  0.1357 (103)
           0.1191 (107)  0.1510 (108)  0.1785 (117)
 CRD 10=   0.2008 (  3) -0.1111 (  5)  0.1445 (  6) -0.2185 ( 11) -0.1124 ( 13)
           0.3712 ( 15)  0.1145 ( 24)  0.1135 ( 29)  0.2549 ( 33) -0.4281 ( 40)
          -0.1131 ( 41)  0.1500 ( 43)  0.1682 ( 46)  0.1438 ( 47) -0.1032 ( 55)
          -0.1395 ( 61) -0.1588 ( 72) -0.1147 ( 83)  0.1076 ( 93)  0.1282 (101)
           0.1598 (103)
 CRD 11=   0.2307 (  3)  0.2487 (  6)  0.1743 ( 11) -0.3570 ( 14) -0.2667 ( 15)
           0.1114 ( 23)  0.1952 ( 29)  0.1473 ( 30) -0.1387 ( 31)  0.1398 ( 32)
           0.1555 ( 33) -0.1193 ( 34) -0.1027 ( 35)  0.1190 ( 40) -0.1020 ( 44)
           0.1180 ( 45) -0.1154 ( 46) -0.1942 ( 47) -0.3063 ( 49) -0.1233 ( 55)
          -0.1333 ( 59)  0.1303 ( 61)  0.1178 ( 64)  0.1489 ( 65)  0.1262 (101)
           0.1408 (103)
 CRD 12=   0.1562 (  3) -0.1072 (  5)  0.2278 (  6)  0.1312 ( 14)  0.1582 ( 15)
          -0.2359 ( 29)  0.1970 ( 30)  0.2641 ( 32) -0.1582 ( 33)  0.1760 ( 34)
           0.1012 ( 35) -0.2994 ( 43)  0.1812 ( 46) -0.2816 ( 47)  0.2422 ( 48)
           0.2009 ( 49)  0.2161 ( 50) -0.1126 ( 56) -0.1596 ( 60) -0.1529 ( 62)
          -0.1481 ( 64) -0.1013 ( 71)  0.1152 ( 77) -0.1236 ( 98)  0.1181 (106)
 CRD 13=   0.1714 (  3)  0.1792 (  6) -0.1239 ( 11) -0.1180 ( 14) -0.1192 ( 15)
          -0.2010 ( 29)  0.2720 ( 30)  0.1741 ( 32) -0.3260 ( 33)  0.1877 ( 34)
           0.2078 ( 35) -0.1196 ( 40)  0.1741 ( 43) -0.2216 ( 46)  0.3210 ( 47)
          -0.2063 ( 48) -0.1839 ( 50) -0.1688 ( 56) -0.1373 ( 60)  0.1472 ( 62)
           0.1065 ( 64) -0.1251 ( 71) -0.1020 ( 74)  0.1188 ( 77)  0.1051 ( 98)
          -0.1001 (106)
 CRD 14=  -0.2480 (  3)  0.1605 (  6)  0.2151 ( 13) -0.2905 ( 14)  0.2038 ( 15)
          -0.1077 ( 32)  0.3521 ( 34) -0.2426 ( 35)  0.1086 ( 36) -0.1873 ( 46)
           0.2996 ( 48) -0.2618 ( 50)  0.1249 ( 56) -0.1169 ( 58) -0.1627 ( 63)
           0.1445 ( 66)  0.1001 ( 81) -0.1010 (105)
 CRD 15=  -0.1059 (  1)  0.1017 (  2)  0.1936 (  3) -0.2479 (  6) -0.1867 ( 14)
           0.1162 ( 15) -0.1711 ( 29) -0.3301 ( 30)  0.1741 ( 32) -0.2376 ( 34)
           0.4244 ( 35) -0.1022 ( 43) -0.2492 ( 46)  0.3136 ( 48) -0.1285 ( 50)
          -0.2157 ( 57)  0.1772 ( 58) -0.1511 ( 63)  0.1037 ( 66)
 CRD 16=   0.1904 (  5) -0.1197 ( 11)  0.1217 ( 13)  0.1034 ( 21) -0.1280 ( 22)
          -0.1672 ( 29) -0.1730 ( 30) -0.2161 ( 32)  0.3246 ( 34)  0.1066 ( 35)
          -0.1921 ( 40) -0.4564 ( 49)  0.4229 ( 50)  0.1506 ( 59)  0.1730 ( 65)
          -0.1657 ( 66)
 CRD 17=   0.1105 (  4) -0.2550 (  5)  0.2388 ( 13) -0.1080 ( 27) -0.2998 ( 29)
          -0.2149 ( 30)  0.2823 ( 32)  0.3734 ( 33)  0.1161 ( 38)  0.1433 ( 44)
           0.1144 ( 46) -0.2945 ( 48)  0.1272 ( 50)  0.1217 ( 56) -0.1131 ( 57)
           0.1324 ( 58)  0.1176 ( 83)  0.1153 ( 84)  0.1175 ( 94)
 CRD 18=  -0.1092 ( 11)  0.1149 ( 18) -0.1094 ( 19)  0.1995 ( 30) -0.1251 ( 34)
          -0.2501 ( 35) -0.1181 ( 40)  0.1197 ( 41) -0.3860 ( 43) -0.3648 ( 46)
           0.3546 ( 47)  0.2915 ( 50) -0.1012 ( 55)  0.1478 ( 62) -0.1474 ( 63)
          -0.1405 ( 64)  0.1204 ( 65) -0.1014 ( 87)  0.1296 ( 91)  0.1027 ( 92)
 CRD 19=  -0.1008 (  9) -0.2263 ( 11)  0.1186 ( 20) -0.2077 ( 23) -0.2257 ( 29)
           0.1649 ( 30)  0.2317 ( 32)  0.1490 ( 33) -0.2786 ( 35) -0.1046 ( 40)
           0.1317 ( 41)  0.3111 ( 43) -0.2676 ( 47)  0.2580 ( 48) -0.1230 ( 49)
          -0.1192 ( 50) -0.1253 ( 55)  0.1307 ( 58)  0.1372 ( 61)  0.1079 ( 64)
           0.1057 ( 82)  0.1078 ( 88)  0.1042 ( 92) -0.1015 (101) -0.1215 (103)
 CRD 20=  -0.2809 (  5)  0.1450 (  9) -0.1374 ( 10)  0.2251 ( 13) -0.1834 ( 27)
           0.2945 ( 29)  0.1238 ( 31) -0.2087 ( 33) -0.2893 ( 34)  0.1262 ( 35)
           0.1349 ( 36) -0.1464 ( 37)  0.1307 ( 43)  0.2057 ( 44) -0.1007 ( 45)
          -0.1223 ( 46)  0.1567 ( 48) -0.1812 ( 49)  0.1329 ( 50) -0.1719 ( 59)
           0.1148 ( 60) -0.1281 ( 66) -0.1175 ( 69) -0.1060 ( 76)  0.1102 ( 77)
          -0.1269 ( 80)  0.1023 ( 81) -0.1387 ( 96) -0.1043 (100) -0.1402 (102)
 CRD 21=   0.1429 (  3)  0.1090 (  4) -0.2648 (  5) -0.1159 ( 12)  0.2105 ( 14)
          -0.1596 ( 15)  0.1252 ( 23)  0.1745 ( 26) -0.1068 ( 27) -0.2508 ( 32)
           0.1864 ( 33)  0.1648 ( 34)  0.1245 ( 37) -0.1305 ( 41)  0.1073 ( 43)
          -0.3013 ( 46)  0.1658 ( 48)  0.1743 ( 49)  0.1461 ( 53)  0.1122 ( 54)
          -0.1187 ( 55)  0.1020 ( 59)  0.1581 ( 61) -0.1423 ( 65) -0.1439 ( 68)
          -0.1251 ( 70) -0.1428 ( 71)  0.1190 ( 73)  0.1248 (107)
 CRD 22=  -0.1036 (  2)  0.1068 (  3) -0.1634 (  6)  0.1311 ( 15)  0.1032 ( 21)
          -0.1041 ( 24)  0.1138 ( 26)  0.1064 ( 28)  0.2209 ( 30) -0.1331 ( 32)
          -0.1317 ( 36)  0.1200 ( 39)  0.1178 ( 46) -0.1809 ( 49)  0.1184 ( 52)
          -0.1084 ( 53) -0.1279 ( 55)  0.1153 ( 59)  0.1175 ( 65) -0.1467 ( 68)
          -0.1446 ( 70) -0.1337 ( 71) -0.1107 ( 72) -0.1559 ( 73) -0.1071 ( 76)
          -0.1120 ( 79) -0.1110 ( 81) -0.1579 ( 95) -0.1101 ( 97) -0.1120 ( 99)
          -0.1460 (104) -0.1482 (105) -0.1360 (106) -0.1523 (107) -0.1919 (108)
          -0.1717 (115) -0.1677 (116)
 CRD 23=  -0.1350 (  3) -0.1237 (  5)  0.1520 (  6) -0.1052 ( 12) -0.3443 ( 13)
           0.1053 ( 15)  0.1260 ( 16)  0.1090 ( 18)  0.1072 ( 28) -0.1995 ( 30)
           0.1817 ( 32) -0.1512 ( 38)  0.3451 ( 40)  0.1292 ( 43) -0.1096 ( 44)
           0.1795 ( 47) -0.1475 ( 49) -0.1141 ( 51)  0.1669 ( 52)  0.1163 ( 56)
          -0.1023 ( 66)  0.1267 ( 69)  0.1171 ( 80) -0.1081 ( 83) -0.1122 ( 84)
          -0.1189 ( 94) -0.1593 ( 97) -0.1702 ( 98) -0.1634 ( 99)  0.1123 (108)
           0.1440 (115)
 CRD 24=  -0.2810 (  7)  0.2718 ( 11)  0.3992 ( 12)  0.1844 ( 16)  0.3139 ( 23)
           0.1239 ( 25) -0.1563 ( 29) -0.1575 ( 33)  0.1073 ( 40)  0.1144 ( 43)
           0.1170 ( 54)  0.1162 ( 57)  0.1057 ( 58) -0.1674 ( 72)  0.1112 ( 78)
           0.1034 ( 80)  0.1487 (101)  0.1104 (105)  0.1389 (107)
 CRD 25=  -0.1066 (  2)  0.5966 (  7) -0.1062 (  8)  0.1790 ( 12)  0.4575 ( 16)
          -0.1136 ( 19)  0.1143 ( 20)  0.1128 ( 29)  0.1219 ( 33)  0.1076 ( 47)
          -0.1130 ( 80)  0.1204 ( 83)  0.1076 ( 84) -0.1058 ( 86) -0.1158 ( 93)
 CRD 26=  -0.1021 (  1) -0.2272 (  4) -0.1677 (  7)  0.1459 (  8)  0.1961 (  9)
           0.1405 ( 10) -0.1423 ( 12)  0.4517 ( 16)  0.1673 ( 18) -0.1204 ( 20)
          -0.1413 ( 21) -0.1465 ( 22)  0.1353 ( 30) -0.1317 ( 32)  0.1129 ( 43)
          -0.1275 ( 56)  0.1042 ( 59)  0.1066 ( 60)  0.1120 ( 68)  0.1076 ( 70)
           0.1031 ( 71)  0.1288 ( 86)  0.1171 ( 87) -0.1228 ( 89) -0.1351 ( 90)
          -0.1507 ( 91)  0.1393 ( 93)  0.1013 (100)
 CRD 27=  -0.1286 (  1) -0.1262 (  2) -0.1638 (  4)  0.2151 (  8)  0.2377 (  9)
           0.1937 ( 10) -0.1312 ( 12) -0.2399 ( 17) -0.3012 ( 18) -0.2253 ( 19)
           0.3079 ( 20)  0.2719 ( 21)  0.2653 ( 22) -0.1083 ( 43)  0.1249 ( 46)
           0.1022 ( 48) -0.1305 ( 49) -0.1026 ( 50) -0.1012 ( 61) -0.1222 ( 62)
           0.1211 ( 64)  0.1184 ( 65)  0.1018 ( 66)
 CRD 28=  -0.3874 (  7) -0.2160 (  8) -0.2842 (  9) -0.1469 ( 10) -0.3779 ( 12)
           0.3692 ( 16)  0.2168 ( 20)  0.1080 ( 21)  0.1512 ( 22) -0.1261 ( 23)
           0.1274 ( 34) -0.1163 ( 60) -0.1210 ( 77) -0.1126 ( 79) -0.1091 ( 81)
 CRD 29=  -0.1743 (  1) -0.1524 (  2) -0.1906 (  4) -0.1024 (  7) -0.1740 (  8)
          -0.1927 (  9) -0.1570 ( 10) -0.1081 ( 15) -0.1595 ( 16) -0.2908 ( 17)
          -0.3531 ( 18) -0.3234 ( 19) -0.3000 ( 20) -0.2421 ( 21) -0.2752 ( 22)
           0.1090 ( 46)  0.1423 ( 48)  0.1243 ( 50) -0.1314 ( 62) -0.1216 ( 63)
          -0.1124 ( 64) -0.1043 ( 66)
 CRD 30=  -0.3751 (  1) -0.3450 (  2) -0.1277 (  3) -0.3730 (  4) -0.1904 (  8)
          -0.1877 (  9) -0.1892 ( 10)  0.2174 ( 12) -0.1123 ( 16)  0.1939 ( 17)
           0.1862 ( 18)  0.2183 ( 19)  0.1230 ( 20)  0.1403 ( 21)  0.1335 ( 22)
           0.1255 ( 30)  0.1273 ( 33)  0.1355 ( 35) -0.1230 ( 55) -0.1319 ( 56)
          -0.1332 ( 57)
 CRD 31=   0.2031 (  1)  0.2411 (  2)  0.1481 (  3)  0.1700 (  4) -0.1729 (  6)
          -0.2342 (  8) -0.1825 (  9) -0.3001 ( 10)  0.1473 ( 12)  0.1089 ( 14)
          -0.1444 ( 17) -0.1234 ( 19)  0.1171 ( 20)  0.1912 ( 21)  0.1433 ( 22)
           0.1157 ( 77)  0.1146 ( 79)  0.1229 ( 81)  0.1234 ( 85)  0.1310 ( 86)
           0.1320 ( 87)  0.1291 ( 88) -0.1011 ( 89) -0.1007 ( 90) -0.1066 ( 91)
           0.1183 ( 92)  0.1393 ( 93)  0.1347 (109)  0.1336 (110)  0.1419 (111)
           0.1190 (112)  0.1247 (113)  0.1139 (114)
 CRD 32=  -0.1224 (  6) -0.1046 (  8) -0.2017 ( 10) -0.3063 ( 12) -0.1167 ( 14)
           0.1611 ( 15)  0.2415 ( 17)  0.1585 ( 19) -0.1558 ( 21) -0.1141 ( 22)
           0.1056 ( 28)  0.1006 ( 39) -0.1003 ( 73)  0.1242 ( 77)  0.1020 ( 79)
           0.1260 ( 81)  0.1608 ( 83)  0.1328 ( 84)  0.1188 ( 86)  0.1410 ( 87)
           0.1405 ( 89)  0.1233 ( 90)  0.1357 ( 91)  0.1428 ( 93)  0.1611 ( 94)
           0.1332 ( 97)  0.1335 ( 98)  0.1052 ( 99) -0.1006 (107)  0.1433 (109)
           0.1210 (110)  0.1451 (111)  0.1749 (118)  0.1752 (119)  0.1113 (120)
           0.1162 (122)  0.1469 (123)
 CRD 33=   0.2474 (  2) -0.1401 (  4) -0.1231 (  5)  0.1383 (  8) -0.1189 (  9)
           0.1696 ( 12) -0.1022 ( 14)  0.2874 ( 20) -0.2604 ( 21) -0.2574 ( 22)
          -0.1174 ( 27) -0.1146 ( 58) -0.1147 ( 64)  0.1294 ( 66)  0.1618 ( 68)
          -0.1054 ( 81) -0.1481 ( 83)  0.1643 ( 88)  0.1217 ( 89)  0.1123 ( 90)
           0.1186 ( 91)  0.1022 ( 92) -0.1751 ( 97) -0.1486 (100)  0.1085 (104)
           0.1022 (105)  0.1117 (106)  0.1762 (113)  0.1140 (114) -0.1157 (116)
          -0.1610 (118)  0.1070 (120)  0.1006 (121)  0.1101 (122)
 CRD 34=  -0.2428 (  1) -0.1232 (  2)  0.2943 (  4) -0.1880 (  8)  0.2231 (  9)
          -0.1314 ( 17)  0.3032 ( 18) -0.2473 ( 19)  0.2416 ( 20) -0.2116 ( 22)
          -0.1483 ( 56)  0.1484 ( 57)  0.1238 ( 58) -0.1119 ( 60) -0.1531 ( 62)
           0.1521 ( 63) -0.1216 ( 64)  0.1375 ( 66) -0.1256 ( 68)  0.1480 ( 81)
          -0.1401 ( 83) -0.1300 ( 88)  0.1549 ( 91)  0.1490 ( 93) -0.1356 ( 97)
           0.1533 (104)  0.1532 (111) -0.1338 (113) -0.1444 (118)  0.1590 (120)
 CRD 35=  -0.3367 (  1)  0.1955 (  2)  0.1175 (  4)  0.4224 (  8) -0.1749 (  9)
          -0.2164 ( 10)  0.1407 ( 17)  0.1081 ( 18) -0.2706 ( 19) -0.1076 ( 20)
          -0.1388 ( 21)  0.2665 ( 22) -0.1007 ( 55)  0.1692 ( 57) -0.2177 ( 58)
           0.1170 ( 59)  0.1379 ( 63) -0.1351 ( 66)  0.1048 ( 68) -0.1230 ( 70)
          -0.1070 ( 79) -0.1220 ( 85) -0.1066 ( 86)  0.1058 ( 88) -0.1132 (110)
          -0.1288 (112)
 CRD 36=  -0.3685 (  1)  0.1770 (  2)  0.1667 (  4)  0.1396 (  8) -0.2698 ( 17)
          -0.1192 ( 18)  0.4208 ( 19)  0.2665 ( 21) -0.2382 ( 22)  0.1931 ( 57)
           0.1514 ( 61) -0.2219 ( 63) -0.1345 ( 65)  0.1169 ( 66) -0.1032 ( 79)
           0.1085 ( 84) -0.1039 ( 86)  0.1285 ( 90) -0.1023 ( 91)  0.1109 ( 99)
           0.1353 (105) -0.1091 (110)  0.1379 (121)  0.1149 (123)
 CRD 37=   0.2333 (  1) -0.2300 (  2)  0.3018 (  8) -0.3067 ( 10)  0.1646 ( 17)
          -0.1745 ( 19)  0.3875 ( 21) -0.3512 ( 22)  0.1158 ( 55) -0.1223 ( 57)
          -0.1574 ( 58)  0.1573 ( 59) -0.2001 ( 65)  0.1823 ( 66) -0.1133 ( 70)
           0.1458 ( 84) -0.1168 ( 85)  0.1432 ( 99) -0.1271 (112)  0.1581 (123)
 CRD 38=  -0.2183 (  1)  0.2584 (  2) -0.1931 (  8) -0.1268 (  9)  0.3433 ( 10)
           0.4059 ( 17) -0.1519 ( 18) -0.2309 ( 19)  0.2507 ( 21) -0.2142 ( 22)
          -0.1249 ( 55)  0.1101 ( 57) -0.1712 ( 59) -0.2039 ( 61)  0.1159 ( 63)
          -0.1194 ( 65)  0.1080 ( 66)  0.1031 ( 70)  0.1095 ( 85) -0.1306 ( 90)
          -0.1243 (105) -0.1025 (110)  0.1182 (112) -0.1413 (121)
 CRD 39=  -0.4084 (  2)  0.4026 (  4)  0.1204 (  8) -0.3330 (  9)  0.1980 ( 10)
           0.1089 ( 17) -0.2013 ( 18)  0.1539 ( 20) -0.1413 ( 21)  0.2174 ( 55)
          -0.2198 ( 56) -0.1139 ( 59)  0.1830 ( 60)  0.1089 ( 62)  0.1121 ( 68)
          -0.1281 ( 77)  0.1029 ( 79)  0.1037 ( 81) -0.1346 ( 87)  0.1009 ( 88)
          -0.1316 (109)  0.1003 (111)
 CRD 40=  -0.3529 (  9)  0.2975 ( 10) -0.2925 ( 17)  0.4268 ( 18) -0.1929 ( 20)
           0.1605 ( 21) -0.1666 ( 59)  0.1993 ( 60)  0.1635 ( 61) -0.2426 ( 62)
           0.1119 ( 64) -0.1185 ( 71)  0.1035 ( 88) -0.1030 ( 89)  0.1468 ( 91)
          -0.1027 ( 92)  0.1344 (104) -0.1154 (106)  0.1050 (113) -0.1012 (114)
           0.1394 (120) -0.1103 (122)
 CRD 41=   0.2417 (  4) -0.1424 (  8)  0.1760 (  9)  0.1154 ( 12) -0.4036 ( 20)
           0.1448 ( 22)  0.1132 ( 55) -0.1540 ( 56) -0.1105 ( 60)  0.2616 ( 64)
          -0.1317 ( 65)  0.1159 ( 70)  0.1559 ( 71) -0.1487 ( 77) -0.1114 ( 87)
           0.1380 ( 89)  0.1385 ( 92) -0.1733 ( 94) -0.2116 ( 98) -0.1074 (100)
           0.1114 (104)  0.1545 (106) -0.1198 (109)  0.1129 (112)  0.1529 (114)
          -0.1895 (119)  0.1280 (122)
 CRD 42=   0.1534 (  4) -0.1803 (  5)  0.1265 (  9) -0.1789 ( 13)  0.1567 ( 18)
           0.1124 ( 20) -0.1254 ( 56) -0.1036 ( 60) -0.1272 ( 62)  0.1149 ( 68)
           0.1390 ( 70)  0.2043 ( 71) -0.2018 ( 77) -0.1249 ( 79)  0.1028 ( 84)
           0.1103 ( 85) -0.1646 ( 87) -0.1578 ( 89)  0.1756 ( 92)  0.1632 ( 94)
           0.1127 ( 97)  0.1914 ( 98)  0.1309 ( 99) -0.1205 (105) -0.1942 (106)
          -0.1866 (109) -0.1097 (110)  0.1296 (112)  0.1056 (113)  0.1950 (114)
           0.1042 (118)  0.1829 (119) -0.1081 (121) -0.1818 (122)  0.1224 (123)
 CRD 43=   0.6224 ( 11) -0.1940 ( 12) -0.5308 ( 40)  0.1104 ( 54)  0.1774 ( 69)
           0.1716 ( 80) -0.1879 (100) -0.1793 (102)  0.1657 (115) -0.1585 (116)
 CRD 44=  -0.2082 (  7)  0.1524 ( 11)  0.3965 ( 12) -0.7745 ( 23)
 CRD 45=   0.1150 (  4) -0.1565 (  6) -0.2087 (  7)  0.1101 (  8)  0.1879 (  9)
           0.1275 ( 10) -0.1373 ( 11)  0.1879 ( 14)  0.2080 ( 16) -0.2068 ( 20)
          -0.1502 ( 21) -0.1537 ( 22)  0.1046 ( 23)  0.1702 ( 29)  0.1310 ( 32)
           0.1415 ( 34) -0.1997 ( 43) -0.1629 ( 49) -0.1688 ( 50) -0.1034 ( 57)
          -0.1723 ( 58) -0.1591 ( 59) -0.1113 ( 60)  0.1494 ( 64)  0.1932 ( 65)
           0.1887 ( 66) -0.1078 (100)  0.1417 (109)  0.1417 (110) -0.1594 (121)
          -0.1577 (122)
 CRD 46=   0.1883 (  1)  0.1293 (  2) -0.1751 (  3)  0.1828 (  6) -0.1905 (  8)
          -0.1229 (  9) -0.1171 ( 10)  0.1256 ( 14) -0.1367 ( 15)  0.1362 ( 19)
          -0.1345 ( 22) -0.1204 ( 23) -0.1196 ( 26) -0.1529 ( 29)  0.1519 ( 30)
          -0.1575 ( 32)  0.1398 ( 33) -0.1418 ( 34)  0.1414 ( 35)  0.1187 ( 46)
           0.1134 ( 47)  0.1059 ( 48) -0.1101 ( 49) -0.1007 ( 50) -0.1509 ( 55)
          -0.1812 ( 56) -0.1009 ( 57)  0.1106 ( 58)  0.1722 ( 59)  0.1694 ( 60)
          -0.1267 ( 61) -0.1230 ( 62)  0.1299 ( 64)  0.1075 ( 65)  0.1278 ( 76)
           0.1324 ( 95)  0.1462 ( 96)  0.1152 (107)  0.1080 (108) -0.1100 (112)
           0.1269 (115)  0.1802 (117)
 CRD 47=  -0.1746 (  6)  0.1430 (  9)  0.1069 ( 10) -0.1157 ( 14) -0.3256 ( 15)
          -0.1710 ( 16)  0.2018 ( 17)  0.2641 ( 18)  0.1758 ( 19)  0.1375 ( 20)
           0.1272 ( 29)  0.1198 ( 32)  0.1190 ( 34)  0.2162 ( 46)  0.2427 ( 47)
           0.2234 ( 48) -0.1394 ( 58) -0.1283 ( 59) -0.2372 ( 61) -0.1867 ( 62)
          -0.2584 ( 63) -0.1307 ( 66) -0.1144 (119) -0.1147 (123)
 CRD 48=  -0.1738 (  1) -0.1974 (  2)  0.3206 (  3) -0.2471 (  4)  0.1309 (  7)
           0.1710 ( 14) -0.1063 ( 15) -0.1115 ( 20) -0.1067 ( 21) -0.1118 ( 22)
          -0.2291 ( 23) -0.2136 ( 30) -0.2288 ( 33) -0.2162 ( 35) -0.1142 ( 43)
          -0.1213 ( 49) -0.1158 ( 50)  0.2264 ( 55)  0.1857 ( 56)  0.2465 ( 57)
           0.1153 ( 64)  0.1197 ( 65)  0.1163 ( 66)  0.1054 ( 73)  0.1233 (107)
          -0.1131 (108)  0.1081 (112)  0.1058 (114) -0.1000 (115)
 CRD 49=  -0.1221 (  6)  0.1041 ( 10) -0.1688 ( 27)  0.1865 ( 44) -0.1388 ( 69)
           0.3841 ( 76) -0.1122 ( 80)  0.3753 ( 96)  0.1041 (111) -0.1426 (115)
          -0.1284 (116)  0.5710 (117)
 CRD 50=   0.1284 (  1)  0.1199 (  2) -0.1789 (  3) -0.1553 (  5) -0.2240 (  6)
           0.2724 (  7)  0.1135 (  8)  0.1397 ( 10)  0.1847 ( 11) -0.1650 ( 12)
           0.1538 ( 13)  0.2372 ( 14)  0.1647 ( 15) -0.2745 ( 16) -0.1150 ( 17)
          -0.1340 ( 19) -0.1467 ( 21) -0.1074 ( 22) -0.1608 ( 23) -0.1059 ( 49)
          -0.1704 ( 56) -0.1658 ( 60)  0.1738 ( 62)  0.1638 ( 64)  0.1278 (100)
           0.1026 (106)  0.1011 (116) -0.1486 (117)
 CRD 51=   0.1165 (  2) -0.1167 (  4) -0.1002 (  5) -0.1440 (  6)  0.2720 (  7)
          -0.1048 (  9)  0.1391 ( 10)  0.3225 ( 16)  0.1565 ( 17) -0.1498 ( 18)
          -0.1509 ( 20)  0.1640 ( 21) -0.1155 ( 23)  0.1132 ( 40) -0.1063 ( 45)
           0.1450 ( 54) -0.1272 ( 56) -0.1636 ( 60) -0.1551 ( 62) -0.1728 ( 64)
           0.1084 ( 71) -0.1017 ( 72) -0.1077 ( 77)  0.1327 ( 80) -0.1411 ( 83)
          -0.1248 ( 88)  0.1188 ( 91)  0.1385 ( 98) -0.1361 (106) -0.1320 (113)
           0.1138 (115) -0.1750 (118)  0.1498 (120)  0.1233 (121) -0.1330 (123)
 CRD 52=  -0.1282 (  2) -0.2116 (  6)  0.1337 (  9)  0.2470 ( 14) -0.1043 ( 20)
           0.1340 ( 27)  0.1568 ( 31)  0.1227 ( 36) -0.1168 ( 41) -0.1342 ( 44)
          -0.1303 ( 45) -0.1181 ( 53) -0.1030 ( 55) -0.1487 ( 59)  0.1245 ( 65)
           0.2829 ( 76)  0.2994 ( 96) -0.1113 (101) -0.1143 (103) -0.1845 (107)
          -0.1133 (109) -0.2308 (110) -0.1692 (111)  0.1509 (112)  0.1221 (113)
           0.1313 (115)  0.1357 (120)  0.2018 (121)  0.1186 (122)
 CRD 53=  -0.1673 (  3)  0.1833 (  8)  0.1558 ( 13) -0.3133 ( 15)  0.1345 ( 19)
          -0.1780 ( 21)  0.2735 ( 22) -0.1756 ( 38) -0.1163 ( 41)  0.1352 ( 52)
           0.1315 ( 58) -0.1412 ( 61) -0.1451 ( 65)  0.2085 ( 66) -0.1586 ( 83)
           0.1234 ( 84) -0.1518 ( 88) -0.1148 ( 97)  0.1673 ( 99) -0.1358 (107)
           0.1665 (112)  0.1468 (119) -0.1489 (121)  0.3333 (123)
 CRD 54=   0.1731 (  1) -0.1512 (  2) -0.1427 (  3)  0.2777 (  5) -0.1248 (  6)
           0.1405 (  8) -0.1492 ( 10) -0.1592 ( 12) -0.2456 ( 14)  0.1821 ( 15)
          -0.1207 ( 18)  0.1206 ( 19) -0.1065 ( 23) -0.1224 ( 41) -0.1014 ( 52)
           0.1189 ( 53) -0.1633 ( 55) -0.1558 ( 59)  0.1517 ( 63) -0.1051 ( 66)
           0.1077 ( 70)  0.1175 ( 73) -0.1239 ( 79)  0.1199 ( 85) -0.1237 ( 86)
           0.2283 (107) -0.2357 (110)  0.2357 (112)  0.1175 (113)  0.1241 (116)
          -0.1590 (121)
 CRD 55=  -0.1034 (  1) -0.2886 (  3)  0.1364 (  4)  0.2455 (  6)  0.1637 (  8)
          -0.1220 (  9) -0.1523 ( 10)  0.1423 ( 11) -0.2180 ( 13)  0.1183 ( 14)
           0.1307 ( 17) -0.1441 ( 19)  0.1457 ( 26) -0.1244 ( 36)  0.1316 ( 44)
          -0.1667 ( 57)  0.2010 ( 58)  0.1078 ( 61) -0.1075 ( 63) -0.1134 ( 69)
           0.1189 ( 70) -0.1127 ( 80)  0.1048 ( 85) -0.1078 ( 88)  0.1063 ( 90)
          -0.1583 ( 95)  0.1103 (105) -0.1570 (108)  0.1388 (110)  0.2201 (112)
          -0.2891 (115)  0.1783 (121)
 CRD 56=   0.2280 (  1) -0.1893 (  2)  0.1537 (  5) -0.1034 (  8) -0.1724 ( 13)
           0.2036 ( 17) -0.2239 ( 19)  0.1299 ( 22) -0.1165 ( 31)  0.1376 ( 44)
          -0.1416 ( 55)  0.1845 ( 57)  0.1488 ( 61) -0.1851 ( 63)  0.1175 ( 66)
          -0.1575 ( 76) -0.1614 ( 79)  0.1132 ( 81) -0.1397 ( 86)  0.1494 ( 90)
          -0.1224 ( 91)  0.1350 ( 93) -0.1697 ( 96) -0.1021 ( 97) -0.1047 (104)
           0.1671 (105)  0.1081 (108) -0.1727 (110)  0.1020 (111) -0.1025 (116)
           0.1794 (121)
 CRD 57=   0.1362 (  1) -0.1575 (  2) -0.1554 (  9)  0.1700 ( 10)  0.1185 ( 12)
          -0.1847 ( 17)  0.1126 ( 18) -0.1389 ( 20)  0.2472 ( 21) -0.1215 ( 22)
          -0.1186 ( 50) -0.1163 ( 54) -0.1306 ( 55)  0.1390 ( 59) -0.1141 ( 60)
          -0.1520 ( 61)  0.2016 ( 65)  0.1528 ( 71)  0.1286 ( 77) -0.1451 ( 84)
           0.1160 ( 87)  0.1422 ( 89)  0.1171 ( 92)  0.1644 ( 94)  0.1947 ( 98)
          -0.1148 ( 99)  0.1781 (106)  0.1169 (109)  0.1559 (114)  0.1946 (119)
           0.1622 (122) -0.1150 (123)
 CRD 58=   0.1782 (  2) -0.2689 (  4)  0.1829 (  9) -0.2259 ( 10)  0.1363 ( 18)
          -0.1043 ( 20)  0.1405 ( 21)  0.1078 ( 33)  0.1131 ( 34)  0.1071 ( 37)
           0.1477 ( 55) -0.1995 ( 56) -0.1845 ( 59)  0.1331 ( 60)  0.1158 ( 65)
          -0.2295 ( 71)  0.1053 ( 72) -0.2344 ( 77) -0.1686 ( 87) -0.1893 ( 92)
           0.1520 ( 93)  0.1164 ( 94)  0.1290 ( 98)  0.1213 (106) -0.2058 (109)
           0.1148 (111) -0.2088 (114)  0.1285 (119)  0.1048 (122)
 CRD 59=  -0.1198 (  1)  0.1061 (  4) -0.1792 (  8)  0.1559 (  9)  0.1226 ( 11)
          -0.2033 ( 12) -0.1255 ( 17) -0.2521 ( 20)  0.2017 ( 22)  0.1166 ( 43)
          -0.1371 ( 58)  0.1231 ( 60) -0.1984 ( 64)  0.1540 ( 66)  0.1609 ( 68)
          -0.1134 ( 72) -0.1465 ( 75)  0.1218 ( 78) -0.1198 ( 81) -0.2141 ( 83)
           0.1782 ( 88)  0.1182 ( 89) -0.1348 ( 93) -0.1637 ( 97)  0.1475 ( 98)
           0.1356 (106) -0.1057 (108) -0.1052 (111)  0.1739 (113) -0.2146 (118)
           0.1007 (122)
 CRD 60=   0.1328 (  4)  0.1405 (  5)  0.1439 (  8) -0.2292 ( 11)  0.1106 ( 13)
           0.2413 ( 18) -0.1785 ( 19)  0.1045 ( 40) -0.1097 ( 47)  0.2146 ( 54)
           0.1166 ( 56)  0.1001 ( 58)  0.1846 ( 62) -0.1402 ( 63)  0.1077 ( 70)
          -0.1021 ( 72) -0.1137 ( 82) -0.1015 ( 88) -0.2164 ( 91) -0.2338 (100)
          -0.1749 (102) -0.1857 (104)  0.1096 (106) -0.1156 (111) -0.1485 (113)
           0.1757 (115) -0.1808 (116) -0.2002 (120)
 CRD 61=   0.1630 (  3) -0.1325 (  5)  0.1371 (  8) -0.1543 ( 13)  0.1505 ( 15)
           0.1337 ( 22) -0.1586 ( 25) -0.1288 ( 32)  0.1501 ( 38)  0.1379 ( 41)
          -0.1051 ( 46) -0.1311 ( 49) -0.1762 ( 51)  0.1134 ( 58)  0.1155 ( 66)
           0.1578 ( 70) -0.1243 ( 75) -0.1195 ( 78) -0.1121 ( 79) -0.1129 ( 80)
           0.1806 ( 84)  0.1854 ( 85) -0.1050 ( 86) -0.1381 ( 90)  0.1491 ( 99)
          -0.1227 (105)  0.1429 (109)  0.1387 (111) -0.2416 (113) -0.1740 (114)
          -0.2402 (118) -0.1685 (119)  0.1825 (120)  0.1548 (122)
 CRD 62=   0.1249 (  1) -0.1780 (  3)  0.2176 (  6) -0.1015 (  8)  0.1113 ( 20)
           0.1481 ( 24)  0.1213 ( 26) -0.1184 ( 28) -0.1914 ( 36) -0.1225 ( 53)
           0.1257 ( 68)  0.1970 ( 69)  0.1044 ( 75)  0.1012 ( 76) -0.1404 ( 79)
           0.1997 ( 80) -0.1109 ( 85) -0.1808 ( 86) -0.1254 ( 92) -0.1246 ( 94)
          -0.1749 ( 95)  0.1686 ( 97)  0.1190 ( 99) -0.1272 (104) -0.1567 (105)
          -0.2377 (108)  0.1459 (109)  0.2053 (111)  0.1421 (113) -0.1197 (119)
           0.1553 (122)
 CRD 63=  -0.1121 (  4) -0.1080 (  7) -0.1944 ( 14)  0.2035 ( 15) -0.1074 ( 19)
           0.1014 ( 22)  0.1303 ( 26)  0.1475 ( 39) -0.1229 ( 44) -0.1904 ( 52)
           0.1206 ( 53) -0.1449 ( 68) -0.1591 ( 70)  0.2049 ( 73)  0.1275 ( 79)
           0.1785 ( 81)  0.1462 ( 84) -0.1339 ( 87)  0.1384 ( 89)  0.1326 ( 90)
          -0.1098 ( 95)  0.1730 ( 96)  0.1251 ( 99) -0.1903 (101) -0.1575 (103)
          -0.1329 (104) -0.1188 (109)  0.1641 (114)  0.2183 (116) -0.1726 (118)
          -0.1355 (119) -0.1627 (120)
 CRD 64=  -0.1001 (  2) -0.2610 (  5)  0.1334 (  6)  0.2457 ( 13) -0.1562 ( 14)
           0.1063 ( 17) -0.1071 ( 25) -0.1124 ( 36) -0.1306 ( 38)  0.1341 ( 41)
          -0.1178 ( 42) -0.1101 ( 48)  0.1451 ( 53)  0.1453 ( 70)  0.1068 ( 76)
          -0.1753 ( 79) -0.1489 ( 86)  0.1653 ( 90)  0.1150 ( 96) -0.1148 ( 97)
          -0.1434 ( 99) -0.1008 (101)  0.1933 (105)  0.2049 (109)  0.1741 (111)
          -0.1658 (114)  0.1414 (116)  0.1575 (119) -0.1861 (120) -0.2217 (122)
 CRD 65=   0.1588 (  5) -0.1526 (  7) -0.1021 ( 11)  0.1624 ( 13) -0.1573 ( 16)
           0.1327 ( 26) -0.1671 ( 28)  0.1049 ( 33) -0.1408 ( 37) -0.1406 ( 39)
           0.1053 ( 47)  0.1325 ( 52)  0.1323 ( 54) -0.1444 ( 68)  0.2030 ( 69)
          -0.1297 ( 70)  0.1087 ( 76)  0.1802 ( 81) -0.1311 ( 82) -0.1207 ( 86)
          -0.1913 ( 87) -0.1953 ( 89) -0.1213 ( 90)  0.1085 ( 92)  0.1223 ( 94)
          -0.1532 ( 97) -0.1301 ( 99)  0.1838 (101) -0.1570 (102)  0.1827 (104)
           0.1002 (105) -0.1484 (108)  0.1215 (114) -0.1639 (116)  0.1248 (119)
 CRD 66=  -0.1162 (  3)  0.1522 (  7) -0.1666 ( 11)  0.1597 ( 12)  0.1202 ( 15)
          -0.1402 ( 16)  0.1162 ( 24) -0.1490 ( 27)  0.1056 ( 31)  0.1215 ( 38)
          -0.1289 ( 41) -0.1193 ( 42) -0.1115 ( 44)  0.1356 ( 45) -0.2362 ( 67)
           0.1302 ( 68)  0.2169 ( 73)  0.2272 ( 74)  0.1885 ( 80) -0.1115 ( 81)
           0.1885 ( 82)  0.1677 ( 84) -0.1691 ( 85)  0.1335 ( 87) -0.1201 ( 89)
          -0.1918 ( 92)  0.1872 ( 94) -0.2061 ( 95) -0.1237 ( 97) -0.2072 (102)
          -0.1659 (103)  0.1006 (104)  0.1117 (113) -0.1113 (118)

 THE DETERMINANT OF THE G MATRIX IS 10**(   -24)


                     --------------------
                     INTERNAL COORDINATES
                     --------------------

                 - - ATOMS - -         COORDINATE      COORDINATE
 NO.   TYPE    I  J  K  L  M  N        (BOHR,RAD)       (ANG,DEG)
 ----------------------------------------------------------------
   1 STRETCH   1  9                     2.0596286       1.0899086
   2 STRETCH   1 11                     2.0597759       1.0899866
   3 STRETCH   1  2                     2.8913106       1.5300158
   4 STRETCH   1 10                     2.0597345       1.0899647
   5 STRETCH   2  4                     2.8913040       1.5300123
   6 STRETCH   2  3                     2.8912931       1.5300065
   7 STRETCH   2 12                     2.0599067       1.0900558
   8 STRETCH   3 14                     2.0598018       1.0900002
   9 STRETCH   3 13                     2.0597345       1.0899647
  10 STRETCH   3 15                     2.0598485       1.0900250
  11 STRETCH   4  8                     2.7005321       1.4290601
  12 STRETCH   4 16                     2.0597204       1.0899572
  13 STRETCH   4  5                     2.8912931       1.5300065
  14 STRETCH   5  7                     2.8912170       1.5299663
  15 STRETCH   5  6                     2.8913907       1.5300582
  16 STRETCH   5 17                     2.0597196       1.0899567
  17 STRETCH   6 20                     2.0598894       1.0900466
  18 STRETCH   6 19                     2.0598949       1.0900495
  19 STRETCH   6 18                     2.0596640       1.0899274
  20 STRETCH   7 23                     2.0598949       1.0900495
  21 STRETCH   7 22                     2.0599222       1.0900640
  22 STRETCH   7 21                     2.0597732       1.0899851
  23 STRETCH   8 24                     1.8273780       0.9670069
  24 BEND      1  2  4                  1.9106488     109.4721114
  25 BEND      1  2  3                  1.9106407     109.4716469
  26 BEND      1  2 12                  1.9106493     109.4721415
  27 BEND      2  4 16                  1.9106071     109.4697219
  28 BEND      2  4  5                  1.9106211     109.4705259
  29 BEND      2  3 13                  1.9106931     109.4746502
  30 BEND      2  1  9                  1.9106439     109.4718328
  31 BEND      2  4  8                  1.9105891     109.4686924
  32 BEND      2  3 14                  1.9106273     109.4708809
  33 BEND      2  1 10                  1.9105537     109.4666637
  34 BEND      2  3 15                  1.9106111     109.4699519
  35 BEND      2  1 11                  1.9105521     109.4665730
  36 BEND      3  2 12                  1.9106223     109.4705926
  37 BEND      3  2  4                  1.9106211     109.4705259
  38 BEND      4  5 17                  1.9105763     109.4679583
  39 BEND      4  5  7                  1.9106171     109.4702948
  40 BEND      4  8 24                  1.9896310     113.9974592
  41 BEND      4  2 12                  1.9106173     109.4703055
  42 BEND      4  5  6                  1.9105946     109.4690055
  43 BEND      5  7 23                  1.9106750     109.4736122
  44 BEND      5  4 16                  1.9106374     109.4714572
  45 BEND      5  4  8                  1.9106593     109.4727128
  46 BEND      5  6 18                  1.9106396     109.4715845
  47 BEND      5  6 19                  1.9106186     109.4703823
  48 BEND      5  6 20                  1.9105436     109.4660860
  49 BEND      5  7 21                  1.9106110     109.4699479
  50 BEND      5  7 22                  1.9105885     109.4686597
  51 BEND      6  5  7                  1.9106898     109.4744625
  52 BEND      6  5 17                  1.9106497     109.4721630
  53 BEND      7  5 17                  1.9106720     109.4734394
  54 BEND      8  4 16                  1.9106855     109.4742135
  55 BEND      9  1 10                  1.9106652     109.4730510
  56 BEND      9  1 11                  1.9107064     109.4754109
  57 BEND     10  1 11                  1.9106781     109.4737918
  58 BEND     13  3 15                  1.9106729     109.4734945
  59 BEND     13  3 14                  1.9106227     109.4706175
  60 BEND     14  3 15                  1.9105723     109.4677287
  61 BEND     18  6 19                  1.9106974     109.4748964
  62 BEND     18  6 20                  1.9106706     109.4733638
  63 BEND     19  6 20                  1.9106296     109.4710104
  64 BEND     21  7 22                  1.9106876     109.4743364
  65 BEND     21  7 23                  1.9106431     109.4717853
  66 BEND     22  7 23                  1.9105942     109.4689823
  67 TORSION   1  2  4  5               1.0471863      59.9993579
  68 TORSION   1  2  3 15              -1.0472131     -60.0008882
  69 TORSION   1  2  4 16              -1.0471904     -59.9995886
  70 TORSION   1  2  3 13               1.0472538      60.0032200
  71 TORSION   1  2  3 14              -3.1415163    -179.9956266
  72 TORSION   1  2  4  8               3.1415789     179.9992119
  73 TORSION   2  4  5 17              -0.9599278     -54.9998130
  74 TORSION   2  4  5  6               1.1344289      64.9979872
  75 TORSION   2  4  5  7              -3.0543256    -174.9999658
  76 TORSION   2  4  8 24              -1.0472350     -60.0021461
  77 TORSION   3  2  1  9              -3.1415605    -179.9981554
  78 TORSION   3  2  4  5               3.1415927     180.0000000
  79 TORSION   3  2  1 10              -1.0471684     -59.9983293
  80 TORSION   3  2  4 16               1.0472159      60.0010535
  81 TORSION   3  2  1 11               1.0471833      59.9991838
  82 TORSION   3  2  4  8              -1.0472001     -60.0001461
  83 TORSION   4  5  7 22              -3.1415627    -179.9982834
  84 TORSION   4  5  7 23              -1.0472172     -60.0011286
  85 TORSION   4  2  3 13              -1.0471575     -59.9977066
  86 TORSION   4  2  1 10               1.0472259      60.0016263
  87 TORSION   4  2  1  9              -1.0471661     -59.9981998
  88 TORSION   4  2  3 15               3.1415610     179.9981853
  89 TORSION   4  5  6 18              -1.0472031     -60.0003155
  90 TORSION   4  5  6 19               1.0472655      60.0038958
  91 TORSION   4  5  6 20               3.1415923     179.9999810
  92 TORSION   4  2  3 14               1.0472577      60.0034469
  93 TORSION   4  2  1 11               3.1415776     179.9991395
  94 TORSION   4  5  7 21               1.0472019      60.0002482
  95 TORSION   5  4  2 12              -1.0472282     -60.0017550
  96 TORSION   5  4  8 24               1.0471342      59.9963686
  97 TORSION   6  5  7 22              -1.0471902     -59.9995781
  98 TORSION   6  5  7 21               3.1415744     179.9989535
  99 TORSION   6  5  7 23               1.0471553      59.9975767
 100 TORSION   6  5  4 16              -3.0543983    -175.0041289
 101 TORSION   6  5  4  8              -0.9599207     -54.9994047
 102 TORSION   7  5  4 16              -0.9599674     -55.0020819
 103 TORSION   7  5  4  8               1.1345101      65.0026424
 104 TORSION   7  5  6 20               1.0472060      60.0004863
 105 TORSION   7  5  6 19              -1.0471207     -59.9955990
 106 TORSION   7  5  6 18              -3.1415893    -179.9998103
 107 TORSION   8  4  5 17              -3.0542774    -174.9972048
 108 TORSION   8  4  2 12               1.0471644      59.9980989
 109 TORSION   9  1  2 12               1.0472288      60.0017889
 110 TORSION  10  1  2 12              -3.1415645    -179.9983850
 111 TORSION  11  1  2 12              -1.0472128     -60.0008719
 112 TORSION  12  2  3 13              -3.1415189    -179.9957758
 113 TORSION  12  2  3 15               1.0471996      60.0001160
 114 TORSION  12  2  3 14              -1.0471037     -59.9946223
 115 TORSION  12  2  4 16               3.1415804     179.9992985
 116 TORSION  16  4  5 17               1.1344303      64.9980709
 117 TORSION  16  4  8 24               3.1415823     179.9994051
 118 TORSION  17  5  7 22               1.0472834      60.0049204
 119 TORSION  17  5  7 21              -1.0471373     -59.9965480
 120 TORSION  17  5  6 20              -1.0472812     -60.0047938
 121 TORSION  17  5  6 19               3.1415773     179.9991209
 122 TORSION  17  5  6 18               1.0471087      59.9949096
 123 TORSION  17  5  7 23              -3.1415564    -179.9979248

     ------------------------------------------
     THE POINT GROUP IS C1 , NAXIS= 1, ORDER= 1
     ------------------------------------------

     DIMENSIONS OF THE SYMMETRY SUBSPACES ARE
 A   =  248

 ..... DONE SETTING UP THE RUN .....
 STEP CPU TIME =     0.01 TOTAL CPU TIME =        0.0 (    0.0 MIN)
 TOTAL WALL CLOCK TIME=        0.0 SECONDS, CPU UTILIZATION IS  33.33%


          -----------------------------
          STATIONARY POINT LOCATION RUN
          -----------------------------

 OBTAINING INITIAL HESSIAN, HESS=GUESS   
 DIAGONAL GUESS HESSIAN IN INTERNAL COORDS IS
     1  0.3464     2  0.3464     3  0.3672     4  0.3464     5  0.3672
     6  0.3672     7  0.3463     8  0.3464     9  0.3464    10  0.3464
    11  0.3608    12  0.3464    13  0.3672    14  0.3672    15  0.3671
    16  0.3464    17  0.3463    18  0.3463    19  0.3464    20  0.3463
    21  0.3463    22  0.3464    23  0.3552    24  0.2485    25  0.2485
    26  0.2241    27  0.2241    28  0.2485    29  0.2241    30  0.2241
    31  0.2430    32  0.2241    33  0.2241    34  0.2241    35  0.2241
    36  0.2241    37  0.2485    38  0.2241    39  0.2485    40  0.2143
    41  0.2241    42  0.2485    43  0.2241    44  0.2241    45  0.2430
    46  0.2241    47  0.2241    48  0.2241    49  0.2241    50  0.2241
    51  0.2485    52  0.2241    53  0.2241    54  0.2194    55  0.2034
    56  0.2034    57  0.2034    58  0.2034    59  0.2034    60  0.2034
    61  0.2034    62  0.2034    63  0.2034    64  0.2034    65  0.2034
    66  0.2034    67  0.2500    68  0.2500    69  0.2500    70  0.2500
    71  0.2500    72  0.2500    73  0.2500    74  0.2500    75  0.2500
    76  0.2500    77  0.2500    78  0.2500    79  0.2500    80  0.2500
    81  0.2500    82  0.2500    83  0.2500    84  0.2500    85  0.2500
    86  0.2500    87  0.2500    88  0.2500    89  0.2500    90  0.2500
    91  0.2500    92  0.2500    93  0.2500    94  0.2500    95  0.2500
    96  0.2500    97  0.2500    98  0.2500    99  0.2500   100  0.2500
   101  0.2500   102  0.2500   103  0.2500   104  0.2500   105  0.2500
   106  0.2500   107  0.2500   108  0.2500   109  0.2500   110  0.2500
   111  0.2500   112  0.2500   113  0.2500   114  0.2500   115  0.2500
   116  0.2500   117  0.2500   118  0.2500   119  0.2500   120  0.2500
   121  0.2500   122  0.2500   123  0.2500
 TRANSFORMING HESSIAN TO SYMMETRY COORDINATES

          PARAMETERS CONTROLLING GEOMETRY SEARCH ARE
          METHOD =QA                  UPHESS =BFGS    
          NNEG   =         0          NFRZ   =         3
          NSTEP  =        50          IFOLOW =         1
          HESS   =GUESS               RESTAR =         F
          IHREP  =         0          HSSEND =         F
          NPRT   =         0          NPUN   =         0
          OPTTOL = 5.000E-04          RMIN   = 1.500E-03
          RMAX   = 1.000E-01          RLIM   = 7.000E-02
          DXMAX  = 3.000E-01          PURIFY =         F
          MOVIE  =         F          TRUPD  =         T
          TRMAX  = 5.000E-01          TRMIN  = 5.000E-02
          ITBMAT =         5          STPT   =         F
          STSTEP = 1.000E-02          PROJCT=          F
          FROZEN COORD(S)=   1   2   3


      ***** EQUILIBRIUM GEOMETRY LOCATED *****
            (SUBJECT TO   3 CONSTRAINT(S))
 COORDINATES OF ALL ATOMS ARE (ANGS)
   ATOM   CHARGE       X              Y              Z
 ------------------------------------------------------------
 C           6.0  -1.5831237499   1.6104795761  -0.2926560921
 C           6.0  -1.2847454050   0.2030094465   0.2393989122
 C           6.0  -2.4998148432  -0.7113634687   0.0866987264
 C           6.0  -0.0198533828  -0.3640478197  -0.4270945186
 C           6.0   1.2253402434   0.5004590805  -0.1486944186
 C           6.0   1.4476247054   0.7239001304   1.3520977589
 C           6.0   2.4801115169  -0.0524095229  -0.8264890116
 O           8.0   0.2025450070  -1.7147865689  -0.0604183949
 H           1.0  -0.7670235408   2.2990020520  -0.1080738925
 H           1.0  -1.7545573320   1.5852064363  -1.3670906696
 H           1.0  -2.4673275698   2.0229332731   0.1810629624
 H           1.0  -1.0938582598   0.2764804118   1.3053536213
 H           1.0  -2.7797871842  -0.8435126589  -0.9554546954
 H           1.0  -2.3083170048  -1.6885654628   0.5148011151
 H           1.0  -3.3467946498  -0.2779546004   0.6122088441
 H           1.0  -0.1811241042  -0.4013947595  -1.5011595677
 H           1.0   1.0385983929   1.4663231074  -0.6052260767
 H           1.0   0.5973387909   1.2097943717   1.8150797771
 H           1.0   1.6145642763  -0.2162668341   1.8738225508
 H           1.0   2.3120791737   1.3550800900   1.5235683710
 H           1.0   2.3325286497  -0.1432904699  -1.9001023790
 H           1.0   3.3131979351   0.6271157848  -0.6655043464
 H           1.0   2.7572204169  -1.0265659647  -0.4387417141
 H           1.0   0.3130999213  -1.7823108139   0.8731955181


                     --------------------
                     INTERNAL COORDINATES
                     --------------------

                 - - ATOMS - -         COORDINATE      COORDINATE
 NO.   TYPE    I  J  K  L  M  N        (BOHR,RAD)       (ANG,DEG)
 ----------------------------------------------------------------
   1 STRETCH   1  9                     2.0476760       1.0835836
   2 STRETCH   1 11                     2.0495855       1.0845940
   3 STRETCH   1  2                     2.8987955       1.5339766
   4 STRETCH   1 10                     2.0566244       1.0883188
   5 STRETCH   2  4                     2.9065677       1.5380895
   6 STRETCH   2  3                     2.8881226       1.5283288
   7 STRETCH   2 12                     2.0511105       1.0854010
   8 STRETCH   3 14                     2.0482981       1.0839127
   9 STRETCH   3 13                     2.0544474       1.0871668
  10 STRETCH   3 15                     2.0539669       1.0869126
  11 STRETCH   4  8                     2.6780875       1.4171830
  12 STRETCH   4 16                     2.0536538       1.0867469
  13 STRETCH   4  5                     2.9125000       1.5412287
  14 STRETCH   5  7                     2.8904285       1.5295490
  15 STRETCH   5  6                     2.8979510       1.5335297
  16 STRETCH   5 17                     2.0494486       1.0845215
  17 STRETCH   6 20                     2.0484768       1.0840073
  18 STRETCH   6 19                     2.0562264       1.0881082
  19 STRETCH   6 18                     2.0470467       1.0832505
  20 STRETCH   7 23                     2.0493885       1.0844898
  21 STRETCH   7 22                     2.0542492       1.0870620
  22 STRETCH   7 21                     2.0551026       1.0875135
  23 STRETCH   8 24                     1.7811776       0.9425587
  24 BEND      1  2  4                  1.9261666     110.3612143
  25 BEND      1  2  3                  1.9386829     111.0783457
  26 BEND      1  2 12                  1.8888658     108.2240408
  27 BEND      2  4 16                  1.8953646     108.5963896
  28 BEND      2  4  5                  1.9598861     112.2932029
  29 BEND      2  3 13                  1.9532954     111.9155829
  30 BEND      2  1  9                  1.9578153     112.1745527
  31 BEND      2  4  8                  1.9480085     111.6126627
  32 BEND      2  3 14                  1.9384855     111.0670396
  33 BEND      2  1 10                  1.9302415     110.5946890
  34 BEND      2  3 15                  1.9099160     109.4301252
  35 BEND      2  1 11                  1.9347847     110.8549960
  36 BEND      3  2 12                  1.8529673     106.1672072
  37 BEND      3  2  4                  1.9713728     112.9513401
  38 BEND      4  5 17                  1.8591734     106.5227904
  39 BEND      4  5  7                  1.9605789     112.3328982
  40 BEND      4  8 24                  1.9208708     110.0577875
  41 BEND      4  2 12                  1.8816671     107.8115811
  42 BEND      4  5  6                  1.9558569     112.0623451
  43 BEND      5  7 23                  1.9561253     112.0777231
  44 BEND      5  4 16                  1.8940966     108.5237414
  45 BEND      5  4  8                  1.9402413     111.1676396
  46 BEND      5  6 18                  1.9496500     111.7067192
  47 BEND      5  6 19                  1.9450605     111.4437589
  48 BEND      5  6 20                  1.9339621     110.8078668
  49 BEND      5  7 21                  1.9351531     110.8761078
  50 BEND      5  7 22                  1.9146498     109.7013535
  51 BEND      6  5  7                  1.9470401     111.5571831
  52 BEND      6  5 17                  1.8830058     107.8882830
  53 BEND      7  5 17                  1.8510804     106.0590921
  54 BEND      8  4 16                  1.8196056     104.2557189
  55 BEND      9  1 10                  1.8771288     107.5515590
  56 BEND      9  1 11                  1.8733496     107.3350255
  57 BEND     10  1 11                  1.8876854     108.1564069
  58 BEND     13  3 15                  1.8873184     108.1353773
  59 BEND     13  3 14                  1.8907451     108.3317136
  60 BEND     14  3 15                  1.8820047     107.8309267
  61 BEND     18  6 19                  1.8787019     107.6416878
  62 BEND     18  6 20                  1.8725296     107.2880445
  63 BEND     19  6 20                  1.8806365     107.7525357
  64 BEND     21  7 22                  1.8780456     107.6040892
  65 BEND     21  7 23                  1.8887033     108.2147276
  66 BEND     22  7 23                  1.8888686     108.2241966
  67 TORSION   1  2  4  5               1.0563254      60.5229861
  68 TORSION   1  2  3 15              -1.0081552     -57.7630408
  69 TORSION   1  2  4 16              -1.0383306     -59.4919598
  70 TORSION   1  2  3 13               1.0835694      62.0839512
  71 TORSION   1  2  3 14              -3.0839883    -176.6995143
  72 TORSION   1  2  4  8              -3.0346154    -173.8706534
  73 TORSION   2  4  5 17              -1.1087625     -63.5274114
  74 TORSION   2  4  5  6               0.9467245      54.2433164
  75 TORSION   2  4  5  7              -3.1282696    -179.2366425
  76 TORSION   2  4  8 24              -1.0524587     -60.3014408
  77 TORSION   3  2  1  9               3.0469913     174.5797429
  78 TORSION   3  2  4  5              -3.0449815    -174.4645877
  79 TORSION   3  2  1 10              -1.1406023     -65.3516978
  80 TORSION   3  2  4 16               1.1435479      65.5204664
  81 TORSION   3  2  1 11               0.9530755      54.6072035
  82 TORSION   3  2  4  8              -0.8527369     -48.8582272
  83 TORSION   4  5  7 22               3.0673618     175.7468875
  84 TORSION   4  5  7 23              -1.1171459     -64.0077476
  85 TORSION   4  2  3 13              -1.0915014     -62.5384260
  86 TORSION   4  2  1 10               1.0597784      60.7208296
  87 TORSION   4  2  1  9              -1.0358133     -59.3477298
  88 TORSION   4  2  3 15               3.0999593     177.6145820
  89 TORSION   4  5  6 18              -1.0286454     -58.9370404
  90 TORSION   4  5  6 19               1.0736333      61.5146588
  91 TORSION   4  5  6 20              -3.1154996    -178.5049753
  92 TORSION   4  2  3 14               1.0241262      58.6781085
  93 TORSION   4  2  1 11              -3.1297291    -179.3202692
  94 TORSION   4  5  7 21               0.9954791      57.0367504
  95 TORSION   5  4  2 12              -1.0033183     -57.4859030
  96 TORSION   5  4  8 24               1.1505960      65.9242966
  97 TORSION   6  5  7 22              -1.0028911     -57.4614284
  98 TORSION   6  5  7 21              -3.0747739    -176.1715655
  99 TORSION   6  5  7 23               1.0957864      62.7839365
 100 TORSION   6  5  4 16               3.0421167     174.3004500
 101 TORSION   6  5  4  8              -1.2497497     -71.6053833
 102 TORSION   7  5  4 16              -1.0328773     -59.1795090
 103 TORSION   7  5  4  8               0.9584416      54.9146577
 104 TORSION   7  5  6 20               0.9521839      54.5561190
 105 TORSION   7  5  6 19              -1.1418685     -65.4242469
 106 TORSION   7  5  6 18               3.0390380     174.1240540
 107 TORSION   8  4  5 17               2.9779486     170.6238888
 108 TORSION   8  4  2 12               1.1889263      68.1204576
 109 TORSION   9  1  2 12               1.0194047      58.4075866
 110 TORSION  10  1  2 12               3.1149964     178.4761460
 111 TORSION  11  1  2 12              -1.0745111     -61.5649528
 112 TORSION  12  2  3 13               3.1331483     179.5161761
 113 TORSION  12  2  3 15               1.0414237      59.6691841
 114 TORSION  12  2  3 14              -1.0344093     -59.2672894
 115 TORSION  12  2  4 16              -3.0979742    -177.5008489
 116 TORSION  16  4  5 17               0.9866298      56.5297221
 117 TORSION  16  4  8 24              -3.0951483    -177.3389343
 118 TORSION  17  5  7 22               1.0429728      59.7579403
 119 TORSION  17  5  7 21              -1.0289099     -58.9521968
 120 TORSION  17  5  6 20              -1.0742732     -61.5513232
 121 TORSION  17  5  6 19               3.1148596     178.4683109
 122 TORSION  17  5  6 18               1.0125809      58.0166117
 123 TORSION  17  5  7 23              -3.1415350    -179.9966948

          INTERNUCLEAR DISTANCES (ANGS.)


 =====================================================
   GAMESS/COSab RESULTS
 =====================================================

   Dielectric Constant                  = INFTY
   Basic Grid Size                      =                 1082
   Number of Segments                   =                   92
   Number of Segments located on spheres=                  273
   Number of Segments of the cavity     =                  726
   Solvent Radius (rsolv)               = 1.40
   Outlying Charge Error Method         = double cavity

 =====================================================

  Total solvated Energy (a.u.)          =  -349.3514928949
  Total Energy corrected (a.u.)         =  -349.3513345754

  Outlying charge effect (a.u.)         =     0.0001583195
  Outlying charge effect (kcal/mol)     =     0.0993470989

  Dielectric Energy (a.u.)              =    -0.0094955580
  Dielectric energy corr. (a.u.)        =    -0.0093372384

  Sum of polarization charges           =     0.0273072471
  Sum of polarization charges(cor.)     =    -0.0273072471

  Total surface area of cavity (A**2)   =  170.84
  Total volume of cavity (A**3)         =  177.45

 =====================================================
 NPS=                   726
NR.  ATOM  (X, Y, Z)(a.u.)                  CHARGE(e)  AREA(A**2) SIGMA(e/A**2)
   1   1  -5.799341   4.679728  -2.482686   0.001953   0.371649   0.005255
   2   1  -3.159931   4.635106   2.870733   0.000857   0.278737   0.003076
   3   1  -2.238591   5.624099  -3.209535   0.001722   0.418105   0.004118
   4   1  -3.989129   6.627183   0.114427   0.001307   0.371649   0.003516
   5   1  -6.291551   2.894823  -2.389606   0.001189   0.278737   0.004267
   6   1  -2.926630   6.707353   0.371707   0.001430   0.371649   0.003848
   7   1  -1.362764   5.765923  -2.606969   0.001009   0.278737   0.003621
   8   1  -2.337739   5.296029   2.410415   0.000766   0.232280   0.003297
   9   1  -6.074966   3.630870  -2.658361   0.000844   0.185824   0.004543
  10   1  -6.352544   4.119602  -1.905988   0.001256   0.278737   0.004506
  11   1  -1.165451   4.811955  -3.349703   0.001732   0.371649   0.004660
  12   1  -2.603739   6.390425  -2.265042   0.001356   0.464561   0.002919
  13   1  -3.485824   6.761485  -1.017378   0.001251   0.464561   0.002693
  14   1  -3.504766   6.261666   1.360974   0.001442   0.325193   0.004435
  15   1  -3.301629   5.423002   2.366794   0.001142   0.278737   0.004097
  16   1  -3.631850   3.997152   3.047604   0.000613   0.232280   0.002638
  17   1  -3.617573   5.908376  -2.937199   0.001048   0.371649   0.002820
  18   1  -4.846825   5.508081  -2.736574   0.001433   0.418105   0.003427
  19   1  -5.446277   5.653330  -1.756039   0.001588   0.464561   0.003419
  20   1  -4.687052   6.408438  -0.846579   0.000827   0.325193   0.002542
  21   1  -6.642109   3.250507  -1.509916   0.000757   0.185824   0.004073
  22   1  -2.521509   6.734023  -1.218038   0.000676   0.278737   0.002425
  23   1  -2.678895   6.041020   1.727403   0.001215   0.278737   0.004358
  24   1  -4.168778   3.350868   3.025232   0.000101   0.092912   0.001089
  25   1  -4.112466   6.351768  -1.996132   0.000944   0.418105   0.002258
  26   2  -4.330338   1.785293   3.401967   0.000024   0.139368   0.000173
  27   3  -6.960015  -3.280343   2.516726   0.002235   0.418105   0.005346
  28   3  -5.923799  -4.735225  -0.996431   0.001868   0.418105   0.004469
  29   3  -8.426965  -1.692124  -0.507805   0.001501   0.371649   0.004038
  30   3  -5.139455  -0.871274   3.890487   0.000724   0.232280   0.003119
  31   3  -3.930503  -2.457413   3.687422   0.000532   0.232280   0.002290
  32   3  -4.878980  -1.836373   3.907915   0.000732   0.232280   0.003151
  33   3  -5.895278  -2.304059   3.626664   0.001514   0.325193   0.004655
  34   3  -8.085415  -1.598074  -1.545119   0.001622   0.371649   0.004364
  35   3  -5.903917  -4.308167  -1.862837   0.001112   0.278737   0.003989
  36   3  -3.771991  -3.714663  -2.621715   0.000184   0.046456   0.003957
  37   3  -5.984799  -3.143708   3.239011   0.001047   0.232280   0.004507
  38   3  -6.756406  -2.403082   3.169241   0.001318   0.278737   0.004727
  39   3  -3.969196  -4.379008  -1.958671   0.000067   0.092912   0.000723
  40   3  -4.700056  -4.706535  -1.562136   0.002185   0.371649   0.005879
  41   3  -7.071563  -4.030502  -1.084092   0.001510   0.464561   0.003250
  42   3  -8.065395  -2.861611  -0.739975   0.001392   0.464561   0.002997
  43   3  -8.148905  -0.454958  -1.164005   0.002027   0.371649   0.005454
  44   3  -7.426357   0.590073  -1.636050   0.000798   0.185824   0.004294
  45   3  -6.782030  -4.513556   0.097450   0.001297   0.418105   0.003103
  46   3  -7.189699  -3.943411   1.367594   0.001552   0.418105   0.003711
  47   3  -7.802250  -2.991037   1.611835   0.001721   0.464561   0.003704
  48   3  -8.328080  -2.451500   0.426031   0.000975   0.325193   0.002999
  49   3  -4.844095  -2.618289   3.720069   0.000821   0.232280   0.003535
  50   3  -5.671753  -1.253190   3.821391   0.000654   0.185824   0.003520
  51   3  -7.570244  -3.155857  -1.539453   0.000781   0.278737   0.002803
  52   3  -4.310782  -4.173845  -2.307425   0.000589   0.139368   0.004229
  53   3  -7.573878  -0.011170  -1.930218   0.001365   0.278737   0.004897
  54   3  -7.723882  -3.642820   0.203302   0.001169   0.464561   0.002516
  55   3  -7.661668   0.787367  -0.889837   0.000723   0.185824   0.003890
  56   4  -1.549818  -3.114056  -3.279174   0.000026   0.046456   0.000551
  57   5   1.775989   2.255615  -3.784895  -0.000016   0.046456  -0.000338
  58   5   4.267768   4.179583  -0.405020   0.000051   0.092912   0.000554
  59   5   4.349688   4.090955  -0.785161  -0.000002   0.046456  -0.000035
  60   6   5.486684   0.602923   5.031094   0.002202   0.418105   0.005267
  61   6   2.840478   5.132115   2.231785   0.000838   0.278737   0.003007
  62   6   1.873674   0.403042   6.106169   0.001480   0.371649   0.003981
  63   6   3.397153   3.762293   5.403572   0.001420   0.371649   0.003822
  64   6   6.026887  -0.227770   3.506630   0.001196   0.278737   0.004289
  65   6   2.426798   4.027979   5.222156   0.001253   0.325193   0.003852
  66   6   0.950320   0.911398   5.854855   0.001012   0.278737   0.003631
  67   6   1.981183   5.045431   2.992580   0.000734   0.232280   0.003162
  68   6   5.804365   0.013460   4.296455   0.001083   0.232280   0.004662
  69   6   6.165103   0.686705   3.989936   0.000773   0.185824   0.004157
  70   6   0.988511  -0.231401   5.500225   0.001477   0.325193   0.004542
  71   6   2.158289   1.545346   6.285967   0.001353   0.464561   0.002913
  72   6   3.027250   2.830175   6.028006   0.001289   0.464561   0.002774
  73   6   3.088146   4.642258   4.409556   0.001440   0.325193   0.004430
  74   6   2.936603   5.091327   3.171950   0.001119   0.278737   0.004016
  75   6   3.346962   4.977229   1.614971   0.000572   0.232280   0.002462
  76   6   3.192120   0.743950   6.254606   0.001032   0.371649   0.002777
  77   6   4.442282   0.744173   5.869062   0.001389   0.418105   0.003323
  78   6   5.039383   1.678946   5.535059   0.001560   0.464561   0.003359
  79   6   4.246711   2.827522   5.696836   0.000847   0.325193   0.002604
  80   6   6.394900   0.789732   3.303139   0.000519   0.139368   0.003724
  81   6   2.064517   2.622215   6.056621   0.000698   0.278737   0.002504
  82   6   2.277622   4.832292   3.994878   0.001206   0.278737   0.004328
  83   6   3.917529   4.646915   1.093607   0.000083   0.092912   0.000890
  84   6   3.668618   1.790986   6.193057   0.000954   0.418105   0.002281
  85   7   8.195814  -1.020887  -0.503146   0.002302   0.418105   0.005506
  86   7   4.659898   3.022352  -3.692661   0.000876   0.278737   0.003143
  87   7   7.593946   0.776049  -3.812747   0.001840   0.418105   0.004401
  88   7   6.551541  -2.925903  -3.239832   0.001492   0.371649   0.004015
  89   7   7.402527  -0.434163   1.045155   0.000963   0.232280   0.004147
  90   7   6.016357  -2.582652  -4.081380   0.001410   0.325193   0.004335
  91   7   6.833377   0.708338  -4.565889   0.001162   0.278737   0.004170
  92   7   4.448628   2.363580  -4.418941   0.000835   0.278737   0.002994
  93   7   3.673070  -2.902106  -3.885547   0.000607   0.185824   0.003264
  94   7   7.873753  -0.336647   0.455762   0.001113   0.232280   0.004790
  95   7   7.621621  -1.347578   0.465934   0.001580   0.325193   0.004859
  96   7   5.661508   2.749167  -3.846953   0.001653   0.371649   0.004447
  97   7   6.772525   1.822425  -4.060175   0.001967   0.371649   0.005293
  98   7   7.489444  -0.462885  -4.071164   0.001507   0.464561   0.003245
  99   7   7.199143  -1.959421  -3.685771   0.001365   0.464561   0.002938
 100   7   5.336910  -3.334305  -3.404298   0.001404   0.278737   0.005038
 101   7   4.413472  -3.453174  -3.282140   0.001313   0.232280   0.005653
 102   7   5.463074   3.357181  -2.879424   0.000887   0.278737   0.003184
 103   7   8.184811  -0.236054  -2.986251   0.001167   0.371649   0.003141
 104   7   8.398402  -0.767088  -1.809844   0.001543   0.418105   0.003689
 105   7   8.050127  -1.820920  -1.478137   0.001758   0.464561   0.003783
 106   7   7.445939  -2.480628  -2.561405   0.000975   0.325193   0.002997
 107   7   6.953695  -1.044871   1.310539   0.000552   0.139368   0.003961
 108   7   6.883223  -1.334086  -4.378643   0.000776   0.278737   0.002785
 109   7   5.893560   2.109815  -4.381194   0.001309   0.278737   0.004697
 110   7   4.846436  -2.993670  -3.986696   0.000792   0.185824   0.004262
 111   7   7.973062  -1.367116  -2.931628   0.001032   0.418105   0.002468
 112   8  -1.450067  -5.565462  -1.455763   0.005725   0.240512   0.023802
 113   8   1.593665  -5.668023  -1.904510   0.006471   0.343589   0.018835
 114   8   0.081094  -6.257601   1.056570   0.001679   0.274871   0.006107
 115   8   2.834303  -5.042414   1.029308   0.000911   0.137436   0.006628
 116   8  -0.641816  -4.454322  -2.949918   0.002140   0.137436   0.015570
 117   8  -1.197714  -4.848611  -2.455254   0.004756   0.240512   0.019773
 118   8   0.274460  -4.523308  -3.098668   0.003239   0.240512   0.013468
 119   8   0.939321  -5.167658  -2.671671   0.004895   0.274871   0.017809
 120   8  -0.677164  -5.750890  -1.885905   0.005904   0.309230   0.019094
 121   8   0.425478  -5.884347  -2.004342   0.007125   0.377948   0.018850
 122   8   2.157123  -5.046197  -2.152694   0.006616   0.274871   0.024070
 123   8   1.210951  -6.128053   1.127056   0.000987   0.274871   0.003590
 124   8   2.251007  -5.601371   1.110753   0.000952   0.206154   0.004620
 125   8  -0.816172  -5.875696   1.363288   0.001574   0.206154   0.007633
 126   8  -1.081449  -6.078283  -0.720500   0.005948   0.309230   0.019235
 127   8  -0.556862  -6.330499   0.251280   0.003663   0.274871   0.013328
 128   8   0.586295  -6.477100   0.103749   0.004946   0.412307   0.011996
 129   8   1.173399  -6.269727  -0.987755   0.006273   0.377948   0.016597
 130   8   2.318140  -5.712084  -0.956809   0.007628   0.412307   0.018500
 131   8   2.603902  -5.593124   0.195931   0.003692   0.240512   0.015350
 132   8  -0.265803  -5.190715  -2.632219   0.004722   0.274871   0.017180
 133   8   1.275099  -4.408481  -3.013149   0.004489   0.240512   0.018663
 134   8  -0.061173  -6.347553  -0.958953   0.006454   0.377948   0.017077
 135   8   1.768749  -6.165420   0.183070   0.004667   0.412307   0.011320
 136   8  -1.154253  -6.040701   0.486696   0.002783   0.171795   0.016198
 137   9  -0.035624   6.318576   0.168801  -0.001859   0.274788  -0.006764
 138   9  -1.174289   6.161530   1.426033  -0.000980   0.314043  -0.003121
 139   9  -1.314553   6.740908   0.319313  -0.000840   0.353299  -0.002378
 140   9  -0.575753   6.215103  -1.535601  -0.000519   0.255160  -0.002033
 141   9  -0.451260   6.300809   0.896459  -0.001602   0.274788  -0.005829
 142   9  -0.967530   6.712089  -0.648452  -0.000964   0.314043  -0.003069
 143   9  -0.087817   6.303695  -0.789503  -0.001444   0.255160  -0.005660
 144  10  -3.723442   3.413835  -4.969618  -0.002409   0.471065  -0.005114
 145  10  -5.351907   2.905765  -3.954776  -0.000892   0.353299  -0.002524
 146  10  -2.060105   3.849659  -4.514592  -0.000945   0.392554  -0.002407
 147  10  -3.993817   4.687437  -4.230509  -0.000863   0.372926  -0.002314
 148  10  -4.604913   2.577012  -4.632243  -0.001814   0.372926  -0.004863
 149  10  -3.637977   2.054325  -4.829584  -0.002484   0.412182  -0.006025
 150  10  -2.548312   2.981437  -4.917131  -0.002077   0.412182  -0.005039
 151  10  -3.018588   4.466942  -4.528181  -0.001125   0.392554  -0.002866
 152  10  -4.875779   3.953972  -4.221283  -0.001374   0.490692  -0.002800
 153  11  -6.518988   5.050922   1.381640  -0.002467   0.451437  -0.005464
 154  11  -7.041395   3.875896  -0.268986  -0.000947   0.333671  -0.002839
 155  11  -6.382574   5.426939  -0.367335  -0.000827   0.353299  -0.002342
 156  11  -5.173170   5.997280   1.364883  -0.000867   0.372926  -0.002324
 157  11  -5.111158   4.415901   2.683550  -0.000762   0.353299  -0.002157
 158  11  -6.977450   4.105257   1.114613  -0.002181   0.372926  -0.005848
 159  11  -6.910283   4.742410  -0.028245  -0.001384   0.372926  -0.003710
 160  11  -5.953026   5.905885   0.516871  -0.001678   0.471065  -0.003562
 161  11  -5.410927   5.347118   2.117403  -0.001645   0.451437  -0.003643
 162  11  -6.068173   4.030745   2.346200  -0.002478   0.490692  -0.005051
 163  12  -2.383235   0.765457   4.890836  -0.001717   0.314043  -0.005466
 164  12  -2.260489  -0.862655   4.486443  -0.000710   0.215905  -0.003291
 165  12  -3.345575   0.601231   4.563046  -0.000717   0.235532  -0.003044
 166  12  -2.729715   1.810790   4.450776  -0.000923   0.255160  -0.003618
 167  12  -2.837421  -0.162468   4.696686  -0.000658   0.255160  -0.002580
 168  12  -3.442194   1.414805   4.296511  -0.000550   0.235532  -0.002336
 169  12  -1.814645  -0.245449   4.786604  -0.001089   0.235532  -0.004624
 170  13  -6.327345  -2.018061  -3.973763  -0.002079   0.431809  -0.004814
 171  13  -6.749777  -0.401497  -3.345934  -0.000947   0.353299  -0.002681
 172  13  -7.360948  -2.057477  -2.978998  -0.000803   0.372926  -0.002154
 173  13  -5.740145  -3.557486  -3.199317  -0.000659   0.333671  -0.001976
 174  13  -4.649686  -3.160128  -3.599532  -0.001038   0.392554  -0.002644
 175  13  -5.768072  -0.932915  -4.114840  -0.002002   0.392554  -0.005100
[...]
 469   5   2.278602   2.416939  -3.772744  -0.000030   0.031422  -0.000970
 470   7   2.697219   2.219481  -3.958820   0.000038   0.031422   0.001214
 471  17   2.220624   2.695530  -3.670935  -0.000056   0.031422  -0.001773
 472   5   4.331647   4.000000  -1.263342  -0.000020   0.031422  -0.000645
 473   7   4.725058   3.783107  -1.480226   0.000038   0.031422   0.001200
 474  17   4.091526   4.138144  -1.384163  -0.000052   0.031422  -0.001645
 475   5   2.496530   1.995806  -4.020637  -0.000002   0.026122  -0.000094
 476   7   2.893517   1.837108  -4.277341   0.000001   0.026122   0.000041
 477  21   2.970740   1.632493  -4.487669  -0.000036   0.026122  -0.001371
 478   5   4.796313   3.788711  -1.215789   0.000012   0.027618   0.000431
 479   7   5.218213   3.648785  -1.441944   0.000005   0.027618   0.000193
 480  22   5.511532   3.616025  -1.372203  -0.000027   0.027618  -0.000989
 481   7   5.071134   3.719938  -1.510618   0.000034   0.010559   0.003257
 482   5   4.490436   3.977590  -1.182566   0.000020   0.010559   0.001885
 483   7   2.855900   1.996476  -4.205749   0.000048   0.017285   0.002772
 484   5   2.280080   2.271647  -3.882953   0.000016   0.017285   0.000951
 485   5   0.402849   2.039254  -3.620060  -0.000622   0.247272  -0.002514
 486  10  -0.801328   2.379708  -3.821562  -0.000274   0.247272  -0.001107
 487  16  -0.097780   1.581325  -3.961622  -0.001074   0.247272  -0.004344
 488   5   0.691486   2.519821  -3.458102  -0.000268   0.114685  -0.002338
 489  10  -0.519079   2.848818  -3.573322   0.000036   0.114685   0.000310
 490  17   0.697030   2.820155  -3.395369  -0.000460   0.114685  -0.004008
 491  10  -1.078910   2.937094  -4.068337  -0.000001   0.011023  -0.000046
 492   5   0.683303   2.417497  -3.759383   0.000110   0.016254   0.006783
 493   5   1.691532   1.419879  -4.057798  -0.000179   0.168024  -0.001067
 494  16   1.158640   0.942460  -4.297615  -0.000521   0.168024  -0.003100
 495  21   2.220144   1.050727  -4.465121  -0.000201   0.168024  -0.001198
 496  16   0.391526   1.168524  -4.284419  -0.000516   0.108830  -0.004741
 497   5   1.235468   1.815226  -3.928134  -0.000014   0.153477  -0.000093
 498  17   3.584505   4.560830  -0.839145  -0.000288   0.094730  -0.003036
 499   5   3.971513   4.286948  -0.784211  -0.000177   0.115734  -0.001532
 500  17   1.702549   2.901946  -3.578947  -0.000229   0.074006  -0.003090
 501   5   1.581969   2.464888  -3.661606  -0.000216   0.090415  -0.002391
 502   5   4.882752   3.819318  -0.041725  -0.000046   0.168287  -0.000271
 503  20   5.147987   3.891677   0.669774  -0.000188   0.168287  -0.001115
 504  22   5.570490   3.585465  -0.253753  -0.000230   0.168287  -0.001366
 505  20   4.911722   4.295854   1.122324  -0.000144   0.078464  -0.001841
 506   5   4.428981   4.212820   0.103251   0.000158   0.110612   0.001424
 507  21   2.809957   1.337947  -4.698043  -0.000169   0.103625  -0.001633
 508   5   2.124918   1.962063  -4.047461   0.000192   0.146062   0.001313
 509  22   5.755371   3.640920  -1.101662  -0.000209   0.139305  -0.001501
 510   5   4.751772   3.956839  -0.698175   0.000234   0.196381   0.001194
 511   6   6.535906   0.990633   2.493188   0.000166   0.067032   0.002470
 512   7   6.800471   0.739647   1.741496   0.000218   0.067032   0.003255
 513  20   6.582029   1.287344   2.537091  -0.000080   0.067032  -0.001190
 514   6   5.853204  -1.157715   2.308897   0.000210   0.062077   0.003387
 515   7   6.255399  -1.455013   1.640043   0.000173   0.062077   0.002789
 516  23   6.211436  -1.740495   1.547707  -0.000037   0.062077  -0.000604
 517   7   6.810547  -0.267139   1.593573   0.001393   0.557811   0.002497
 518   6   6.172541  -0.265489   2.677002   0.001324   0.557811   0.002374
 519   6   2.010061   4.906959   0.871511  -0.000028   0.189505  -0.000146
 520   9   1.078480   5.274935   0.338447  -0.001014   0.189505  -0.005352
 521  17   1.862004   4.987944   0.141533  -0.000786   0.189505  -0.004147
 522   6   0.974321   4.821587   2.754100  -0.000030   0.098754  -0.000301
 523   9   0.135659   5.112075   2.055334  -0.000229   0.098754  -0.002317
 524  18   0.719191   4.759574   2.909902  -0.000286   0.098754  -0.002897
 525   9   0.044281   5.649837   1.505440  -0.000882   0.250831  -0.003516
 526   9   0.598990   5.694391   0.712166  -0.001032   0.250831  -0.004113
 527   6   1.617927   5.134409   1.985055   0.000918   0.716245   0.001282
 528   6  -0.025761   0.824741   5.199210  -0.000096   0.071019  -0.001359
 529  12  -0.891070   0.696089   4.901436  -0.000445   0.071019  -0.006268
 530  18  -0.204462   1.069480   5.181025  -0.000294   0.071019  -0.004137
 531   6   0.206422  -1.113053   4.334329  -0.000864   0.262253  -0.003296
 532  12  -0.703494  -1.125622   4.125499  -0.001544   0.262253  -0.005888
 533  24  -0.104828  -1.993514   3.926915  -0.004106   0.262253  -0.015658
 534  12  -1.153229  -0.310600   4.630434  -0.001884   0.370614  -0.005084
 535   6   0.103197   0.051541   5.104624   0.000853   0.522103   0.001634
 536  17   2.713985   4.868378  -0.112455  -0.000798   0.264194  -0.003019
 537   6   3.275464   4.780767   0.867724   0.000418   0.372084   0.001122
 538  18   0.241660   1.380756   5.534156  -0.000175   0.068439  -0.002563
 539  18   0.886261   2.235766   5.820668  -0.000416   0.151936  -0.002738
 540  18   1.408823   3.433619   5.523241  -0.000394   0.151936  -0.002592
 541  18   1.431499   4.378650   4.573088  -0.000264   0.151936  -0.001734
 542  18   1.095853   4.737889   3.579644  -0.000150   0.068439  -0.002186
 543   6   0.797351   1.410063   5.745421  -0.000104   0.150009  -0.000694
 544   6   1.585998   2.688219   5.852392  -0.000138   0.150009  -0.000921
 545   6   1.909358   3.959081   5.112501  -0.000036   0.150009  -0.000240
 546   6   1.634251   4.699233   3.830478  -0.000055   0.150009  -0.000364
 547   6   5.532917  -1.255206   2.811915   0.000071   0.088833   0.000795
 548  19   5.362163  -1.451399   2.974433  -0.000031   0.088833  -0.000352
 549  23   5.771273  -1.756223   1.953101   0.000199   0.088833   0.002236
 550   6   0.868076  -1.329361   4.606302  -0.000384   0.083976  -0.004575
 551  19   1.077361  -1.549256   4.649961  -0.000537   0.083976  -0.006390
 552  24   0.576888  -2.185703   4.157328  -0.001657   0.083976  -0.019727
 553  19   5.347233  -1.258269   3.732418  -0.000077   0.070532  -0.001095
 554  19   5.114447  -0.752551   4.718227  -0.000238   0.157091  -0.001516
 555  19   4.185092  -0.396881   5.656527  -0.000337   0.157091  -0.002146
 556  19   2.848022  -0.481644   5.931605  -0.000380   0.157091  -0.002421
 557  19   1.675114  -0.970587   5.425810  -0.000437   0.157091  -0.002784
 558   6   5.491638  -0.717509   3.959152  -0.000026   0.154164  -0.000166
 559   6   4.865553  -0.123428   5.230039  -0.000062   0.154164  -0.000405
 560   6   3.518643   0.037569   5.951136  -0.000133   0.154164  -0.000865
 561   6   2.026992  -0.303378   5.814024  -0.000152   0.154164  -0.000985
 562   6   1.101005  -0.830133   5.161083  -0.000083   0.086170  -0.000963
 563  20   4.628480   4.608199   1.544288  -0.000147   0.066590  -0.002212
 564  20   4.206869   4.930322   2.483992  -0.000354   0.146940  -0.002409
 565  20   4.064218   4.775359   3.773487  -0.000213   0.146940  -0.001452
 566  20   4.408885   4.027675   4.788048  -0.000325   0.146940  -0.002210
 567  20   5.106734   2.978251   5.132832  -0.000319   0.146940  -0.002174
 568  20   5.886179   2.035497   4.673657  -0.000257   0.146940  -0.001750
 569  20   6.443878   1.566311   3.589223  -0.000211   0.146940  -0.001435
 570   6   4.078122   4.748200   1.696452  -0.000217   0.146820  -0.001479
 571   6   3.654084   4.951084   3.087284   0.000007   0.146820   0.000050
 572   6   3.773540   4.417331   4.449717   0.000015   0.146820   0.000101
 573   6   4.390000   3.354667   5.253523  -0.000109   0.146820  -0.000745
 574   6   5.263552   2.176653   5.185881  -0.000157   0.146820  -0.001071
 575   6   6.054230   1.341747   4.273115   0.000108   0.146820   0.000735
 576   6   6.455720   1.088699   3.180588  -0.000002   0.081354  -0.000021
 577  23   6.255047  -1.987048   1.569036   0.000033   0.036638   0.000911
 578   6   5.804284  -1.212639   2.783492   0.000217   0.052179   0.004168
 579  24   0.167513  -2.553307   4.095217  -0.000812   0.037165  -0.021849
 580   6   0.594941  -1.260320   4.698143   0.000148   0.052852   0.002809
 581   7   2.880724  -2.632658  -3.774289   0.000216   0.050529   0.004280
 582   8   2.111597  -3.090144  -3.310880   0.000582   0.050529   0.011512
 583  21   2.952422  -2.443533  -4.000178   0.000009   0.050529   0.000179
 584   7   4.094373  -3.837986  -2.303280   0.000661   0.089555   0.007385
 585   8   3.251044  -4.267390  -1.949096   0.002160   0.089555   0.024117
 586  23   4.228611  -3.961067  -2.058172   0.000244   0.089555   0.002726
 587   8   1.930021  -3.844913  -3.091272   0.004166   0.319883   0.013024
 588   8   2.642797  -4.478197  -2.346381   0.005513   0.319883   0.017235
 589   7   3.433181  -3.407246  -3.174865   0.004346   0.711668   0.006106
 590  17   3.885621   4.227536  -1.766304  -0.000353   0.177702  -0.001984
 591  17   3.277789   3.812379  -2.876657  -0.001279   0.362635  -0.003526
 592  17   2.405882   3.086540  -3.574964  -0.000318   0.177702  -0.001788
 593   7   4.596855   3.590977  -2.479549   0.000651   0.488682   0.001332
 594   7   3.538928   2.775231  -3.772635   0.000683   0.488682   0.001398
 595   7   7.127381   0.856199   1.255627   0.000064   0.088107   0.000732
 596  20   6.765190   1.411449   1.990614   0.000122   0.088107   0.001386
 597  22   7.259670   1.092771   1.112725  -0.000042   0.088107  -0.000475
 598  20   6.723878   1.479957   2.599829   0.000024   0.037901   0.000631
 599   7   7.186618   0.687114   1.463321   0.000225   0.053791   0.004191
 600  21   3.398974   1.612267  -4.806178  -0.000100   0.067375  -0.001487
 601  21   4.469177   1.707106  -4.961317  -0.000251   0.148698  -0.001689
 602  21   5.655199   1.153298  -5.077473  -0.000119   0.148698  -0.000798
 603  21   6.289254   0.002337  -5.067211  -0.000235   0.148698  -0.001579
 604  21   6.122676  -1.294389  -4.934555  -0.000269   0.148698  -0.001807
 605  21   5.220795  -2.228324  -4.731531  -0.000144   0.148698  -0.000968
 606  21   3.937313  -2.433193  -4.537761  -0.000157   0.148698  -0.001053
 607   7   3.802347   1.961248  -4.550893  -0.000143   0.148552  -0.000963
 608   7   5.256891   1.787765  -4.736152   0.000096   0.148552   0.000645
 609   7   6.333556   0.779310  -4.798794   0.000098   0.148552   0.000658
 610   7   6.610091  -0.668618  -4.714250  -0.000048   0.148552  -0.000322
 611   7   5.978045  -1.988163  -4.515679  -0.000047   0.148552  -0.000315
 612   7   4.685295  -2.661822  -4.280957   0.000121   0.148552   0.000816
 613   7   3.498564  -2.617903  -4.121545   0.000071   0.082313   0.000861
 614  22   7.764554   0.780675   0.640714  -0.000062   0.071128  -0.000878
 615  22   8.289139   0.356034  -0.281509  -0.000159   0.158824  -0.000999
 616  22   8.501002   0.418980  -1.643545  -0.000256   0.158824  -0.001609
 617  22   8.129719   1.138827  -2.760667  -0.000262   0.158824  -0.001648
 618  22   7.337447   2.201183  -3.144976  -0.000205   0.158824  -0.001290
 619  22   6.470207   3.142070  -2.628628  -0.000224   0.158824  -0.001413
 620  22   5.939628   3.575893  -1.714140  -0.000098   0.071128  -0.001372
 621   7   7.827408   0.218305   0.423203   0.000084   0.155082   0.000543
 622   7   8.371434  -0.113997  -0.989381   0.000052   0.155082   0.000336
 623   7   8.276581   0.351758  -2.464460  -0.000057   0.155082  -0.000365
 624   7   7.584275   1.412155  -3.357799   0.000016   0.155082   0.000100
 625   7   6.596879   2.604068  -3.279237   0.000070   0.155082   0.000452
 626   7   5.745632   3.406937  -2.263085  -0.000152   0.155082  -0.000979
 627  23   4.950961  -3.908791  -2.271206   0.000029   0.071774   0.000403
 628  23   6.067456  -3.609999  -2.318453  -0.000210   0.160881  -0.001303
 629  23   7.165162  -3.040300  -1.671669  -0.000268   0.160881  -0.001667
 630  23   7.520557  -2.455116  -0.455487  -0.000223   0.160881  -0.001386
 631  23   6.973906  -2.117464   0.783467  -0.000210   0.160881  -0.001303
 632   7   5.285946  -3.603965  -2.677977   0.000188   0.155899   0.001204
 633   7   6.742741  -3.086736  -2.419638  -0.000022   0.155899  -0.000140
 634   7   7.608768  -2.398443  -1.309337  -0.000039   0.155899  -0.000249
 635   7   7.494783  -1.848445   0.153888   0.000108   0.155899   0.000693
 636   7   6.772356  -1.643070   1.186139   0.000146   0.087688   0.001667
 637   8  -1.433016  -5.189292   1.859252   0.000396   0.090641   0.004370
 638  14  -2.393480  -4.966758   1.940811   0.000488   0.090641   0.005383
 639  24  -1.299720  -5.080056   2.133856  -0.000264   0.090641  -0.002908
 640  14  -3.460512  -5.327029  -0.211069   0.000732   0.271527   0.002694
 641  14  -3.147769  -5.387573   1.156831  -0.000324   0.547906  -0.000591
 642   8  -1.976241  -5.626125  -0.038172   0.011030   0.667601   0.016523
 643   8  -1.634080  -5.544328   1.451652   0.002948   0.336867   0.008752
 644  16   0.345792  -2.872734  -4.017872  -0.000321   0.232275  -0.001380
 645  16  -0.830330  -3.017083  -3.836271  -0.000342   0.232275  -0.001474
 646   8  -0.040239  -3.776867  -3.279943   0.004745   0.556489   0.008528
 647   8   3.182879  -4.321806   1.275346   0.000751   0.085123   0.008822
 648  23   4.051344  -3.867646   0.963026   0.000746   0.085123   0.008762
 649  24   3.064770  -4.253145   1.568394  -0.000153   0.085123  -0.001801
 650  23   4.704128  -4.082825   0.603182  -0.000005   0.239612  -0.000023
 651  23   4.622731  -4.420644  -0.560986   0.000506   0.481688   0.001051
 652  23   4.405541  -4.266024  -1.746295   0.000787   0.239612   0.003285
 653   8   3.342652  -4.821592   0.454979   0.007111   0.592904   0.011993
 654   8   3.138261  -4.946997  -1.153309   0.009747   0.592904   0.016440
 655  24  -0.575149  -5.434354   2.257648  -0.000789   0.088338  -0.008927
 656  24   0.693865  -5.697848   2.088304  -0.002413   0.194023  -0.012434
 657  24   2.159138  -5.122948   1.956358  -0.002098   0.194023  -0.010812
 658   8  -0.202434  -5.721692   1.774537  -0.001086   0.187879  -0.005783
 659   8   1.493911  -5.684571   1.576329  -0.001238   0.187879  -0.006588
 660   8   2.653569  -4.909472   1.495056  -0.000203   0.101144  -0.002004
 661  17   1.227286   5.047261  -2.149994  -0.000850   0.233471  -0.003640
 662  17   1.655169   5.267354  -0.964580  -0.002319   0.467783  -0.004958
 663   9   0.332540   5.658842  -1.410734  -0.002130   0.467783  -0.004553
 664   9   0.718598   5.770840  -0.196178  -0.001143   0.233471  -0.004896
 665  18   0.297599   4.823584   3.198882  -0.000208   0.303453  -0.000687
 666   9  -0.668155   5.433941   2.116406  -0.000191   0.303453  -0.000631
 667  10  -3.390179   0.670878  -4.060707  -0.000595   0.337073  -0.001766
 668  13  -3.826542  -0.363903  -3.869858  -0.000277   0.337073  -0.000821
 669  16  -2.719316  -0.174790  -4.115553  -0.000846   0.337073  -0.002510
 670  13  -6.112473   0.377724  -3.429297   0.000299   0.294777   0.001015
 671  13  -5.109215  -0.140295  -3.986959  -0.000507   0.589458  -0.000860
 672  10  -5.125219   1.647866  -3.925613  -0.000229   0.589458  -0.000388
 673  10  -4.069614   1.126516  -4.372546  -0.000115   0.294777  -0.000389
 674  16  -2.118052   0.048085  -4.678214  -0.000460   0.238512  -0.001928
 675  16  -1.278677   0.721200  -4.801363  -0.001145   0.476883  -0.002402
 676  16  -0.455754   1.351862  -4.488535  -0.000194   0.238512  -0.000813
 677  10  -2.747220   1.497900  -4.671452  -0.000941   0.476883  -0.001973
 678  10  -1.709823   2.311553  -4.553079  -0.000570   0.476883  -0.001195
 679  17   0.720780   3.110693  -3.583722   0.000266   0.101650   0.002613
 680  10  -0.985816   3.233829  -4.041735   0.000276   0.101650   0.002715
 681  15  -6.370916   1.558241   2.830046  -0.000065   0.254767  -0.000254
 682  15  -7.235553   1.746735   2.072257  -0.000789   0.509518  -0.001549
 683  15  -7.682850   1.665949   0.728710  -0.000235   0.509518  -0.000462
 684  11  -6.191535   3.022716   2.304797  -0.000659   0.509518  -0.001294
 685  11  -7.042441   3.136394   1.175746  -0.000848   0.509518  -0.001664
 686  11  -7.177196   2.973221   0.030064   0.000086   0.254767   0.000339
 687  18  -1.085481   2.861287   4.646217  -0.001081   0.214622  -0.005037
 688  18  -0.670255   1.836899   5.144226  -0.001991   0.429869  -0.004633
 689  12  -1.942432   1.924606   4.563323  -0.002119   0.429869  -0.004929
 690  12  -1.485611   0.876548   4.966664  -0.000865   0.214622  -0.004030
 691  24  -0.631476  -2.673606   3.909985  -0.003798   0.327062  -0.011611
 692  12  -1.628212  -1.526824   4.107877  -0.000729   0.327062  -0.002229
 693  16  -2.086074  -2.466184  -3.993230   0.000061   0.287245   0.000212
 694  16  -2.364381  -1.355175  -4.418426  -0.000943   0.574294  -0.001641
 695  13  -3.769001  -2.321048  -3.858749  -0.000258   0.574294  -0.000450
 696  13  -4.031459  -1.171052  -4.176886  -0.000083   0.287245  -0.000289
 697  24  -1.387239  -3.805627   3.434361  -0.001749   0.247602  -0.007063
 698  24  -1.341119  -4.719939   2.857857  -0.002497   0.494955  -0.005046
 699  14  -2.955730  -4.112091   3.021137  -0.000440   0.494955  -0.000889
 700  14  -2.898006  -4.976304   2.372867  -0.000136   0.247602  -0.000548
 701  21   2.720578  -1.992256  -4.769808   0.000128   0.252282   0.000506
 702  21   2.536912  -1.000596  -5.285461  -0.000593   0.504442  -0.001176
 703  21   2.413355   0.370489  -5.176903  -0.000535   0.504442  -0.001061
 704  16   1.135713  -1.782937  -4.752901  -0.000652   0.504442  -0.001293
 705  16   0.943582  -0.462720  -5.109323  -0.001029   0.504442  -0.002040
 706  16   0.883824   0.620854  -4.784795  -0.000203   0.252282  -0.000806
 707  19   3.847888  -2.822466   2.621999  -0.001528   0.323457  -0.004724
 708  23   4.311588  -3.121004   1.608703   0.000475   0.323457   0.001468
 709  24   3.285298  -3.473101   2.192268  -0.001943   0.323457  -0.006007
 710  23   5.944783  -2.404171   1.726799   0.000272   0.304216   0.000895
 711  23   5.238518  -3.083776   1.615953  -0.000053   0.304216  -0.000175
 712  19   4.880439  -2.230168   3.052753  -0.000504   0.608317  -0.000828
 713  24   2.870867  -3.907058   2.856518  -0.002752   0.235552  -0.011682
 714  24   2.069755  -3.789190   3.714012  -0.007115   0.471364  -0.015094
 715  24   0.893720  -3.118107   4.193335  -0.007579   0.471364  -0.016079
 716  19   3.354873  -2.951070   3.797555  -0.003297   0.471364  -0.006994
 717  19   2.260645  -2.589543   4.654949  -0.003336   0.471364  -0.007077
 718  19   1.311439  -1.911295   4.828031  -0.000887   0.235552  -0.003766
 719  22   6.217963   3.657484  -0.237334  -0.000057   0.255234  -0.000224
 720  22   7.062226   3.100794   0.333895  -0.000815   0.510429  -0.001597
 721  22   7.499539   1.897348   0.934093  -0.000292   0.510429  -0.000573
 722  20   5.956991   3.907821   1.295139  -0.000665   0.510429  -0.001304
 723  20   6.788071   2.991289   1.980004  -0.000873   0.510429  -0.001710
 724  20   6.920341   1.915811   2.398142   0.000069   0.255234   0.000271
 725  24   3.183668  -4.230746   1.951282  -0.000192   0.181724  -0.001057
 726  23   4.688334  -3.703481   1.213102   0.000113   0.181724   0.000624
 =====================================================


   1 warning(s) detected.
     A line exceeding 80 characters begins with "http://cactus.nci.ni".
 There may be a problem in your input file.

              5552099  WORDS OF DYNAMIC MEMORY USED
 EXECUTION OF GAMESS TERMINATED NORMALLY Wed Nov 23 05:52:39 2016
 DDI: 263640 bytes (0.3 MB / 0 MWords) used by master data server.

 ----------------------------------------
 CPU timing information for all processes
 ========================================
 0: 2903.956 + 0.848 = 2904.804
 ----------------------------------------
 ddikick.x: exited gracefully.
