----- GAMESS execution script -----

          ******************************************************
          *         GAMESS VERSION =  5 DEC 2014 (R1)          *
          *             FROM IOWA STATE UNIVERSITY             *
          * M.W.SCHMIDT, K.K.BALDRIDGE, J.A.BOATZ, S.T.ELBERT, *
          *   M.S.GORDON, J.H.JENSEN, S.KOSEKI, N.MATSUNAGA,   *
          *          K.A.NGUYEN, S.J.SU, T.L.WINDUS,           *
          *       TOGETHER WITH M.DUPUIS, J.A.MONTGOMERY       *
          *         J.COMPUT.CHEM.  14, 1347-1363(1993)        *
          **************** 64 BIT LINUX VERSION ****************

 EXECUTION OF GAMESS BEGUN Wed Nov 23 06:17:51 2016

            ECHO OF THE FIRST FEW INPUT CARDS -
 INPUT CARD>! SELECT RESTRICTED HARTREE-FOCK AS DEFAULT                                     
 INPUT CARD>$contrl scftyp=rhf $end                                                         
 INPUT CARD>                                                                                
 INPUT CARD>! THEORY: HF OR DFT                                                             
 INPUT CARD> $contrl mplevl=0 $end                                                          
 INPUT CARD>                                                                                
 INPUT CARD> $system timlim=10000 mwords=20 $end                                            
 INPUT CARD> $SCF DIRSCF=.TRUE. $end                                                        
 INPUT CARD>                                                                                
 INPUT CARD>                                                                                
 INPUT CARD>! BASIS SETS                                                                    
 INPUT CARD>! 6-311G(d,p)                                                                   
 INPUT CARD> $BASIS GBASIS=N311 NGAUSS=6 NDFUNC=1 NPFUNC=1 $END                             
 INPUT CARD>                                                                                
 INPUT CARD>! One of the following                                                          
 INPUT CARD> $guess guess=HUCKEL $end                                                       
 INPUT CARD>                                                                                
 INPUT CARD> $statpt projct=.FALSE. $end                                                    
 INPUT CARD> $STATPT IFREEZ(1)=1,2,3 $END                                                   
 INPUT CARD>                                                                                
 INPUT CARD>! Optimize the geometry with COSMO effects                                      
 INPUT CARD> $statpt opttol=0.0005 nstep=50 $end                                            
 INPUT CARD> $contrl nzvar=1 $end                                                           
 INPUT CARD> $zmat dlc=.t. auto=.t. $end                                                    
 INPUT CARD> $contrl runtyp=OPTIMIZE maxit=200 $end                                         
 INPUT CARD>                                                                                
 INPUT CARD>! Run COSMO on perfect conductor                                                
 INPUT CARD> $COSGMS PRFCND=.TRUE. $end                                                     
 INPUT CARD>                                                                                
 INPUT CARD>! Specifying RSOLV                                                              
 INPUT CARD> $COSGMS COSRAD = 1.4 $end                                                      
 INPUT CARD>                                                                                
 INPUT CARD>! available memory                                                              
 INPUT CARD> $SYSTEM MWORDS=40 $END                                                         
 INPUT CARD>                                                                                
 INPUT CARD> $DATA                                                                          
 INPUT CARD>Naphthalene, 2,6-dimethyl-, ID: C581420                                         
 INPUT CARD>C1                                                                              
 INPUT CARD>C      6.0      1.9064000000    1.8417000000    0.9087000000                    
 INPUT CARD>C      6.0      0.6293000000    1.0835000000    0.9206000000                    
 INPUT CARD>C      6.0      3.1202000000    1.2024000000    0.9583000000                    
 INPUT CARD>C      6.0      1.8558000000    3.2596000000    0.8430000000                    
 INPUT CARD>C      6.0      4.3275000000    1.9504000000    0.9441000000                    
 INPUT CARD>C      6.0      3.0053000000    3.9990000000    0.8280000000                    
 INPUT CARD>C      6.0      4.2727000000    3.3567000000    0.8785000000                    
 INPUT CARD>C      6.0      5.5950000000    1.3088000000    0.9952000000                    
 INPUT CARD>C      6.0      5.4800000000    4.1046000000    0.8641000000                    
 INPUT CARD>C      6.0      6.7449000000    2.0477000000    0.9804000000                    
 INPUT CARD>C      6.0      6.6937000000    3.4654000000    0.9135000000                    
 INPUT CARD>C      6.0      7.9701000000    4.2250000000    0.8978000000                    
   40000000 WORDS OF MEMORY AVAILABLE

     BASIS OPTIONS
     -------------
     GBASIS=N311         IGAUSS=       6      POLAR=POPN311 
     NDFUNC=       1     NFFUNC=       0     DIFFSP=       F
     NPFUNC=       1      DIFFS=       F     BASNAM=        


     RUN TITLE
     ---------
 Naphthalene, 2,6-dimethyl-, ID: C581420                                         

 THE POINT GROUP OF THE MOLECULE IS C1      
 THE ORDER OF THE PRINCIPAL AXIS IS     0

 ATOM      ATOMIC                      COORDINATES (BOHR)
           CHARGE         X                   Y                   Z
 C           6.0     3.6025736230        3.4803083516        1.7171940050
 C           6.0     1.1892045641        2.0475181077        1.7396817443
 C           6.0     5.8963230269        2.2722065276        1.8109244140
 C           6.0     3.5069534880        6.1597508296        1.5930390076
 C           6.0     8.1777892119        3.6857215665        1.7840903050
 C           6.0     5.6791935109        7.5570142249        1.5646931178
 C           6.0     8.0742322277        6.3432432230        1.6601242802
 C           6.0    10.5730169013        2.4732733727        1.8806553030
 C           6.0    10.3556984127        7.7565692892        1.6329122260
 C           6.0    12.7460128146        3.8695919051        1.8526873584
 C           6.0    12.6492588440        6.5486564379        1.7262646898
 C           6.0    15.0613050947        7.9840922981        1.6965959918
 H           1.0     0.0000000000        2.6303096023        3.3378230121
 H           1.0     0.1118717785        2.3965504976        0.0000000000
 H           1.0     1.4879702427        0.0000000000        1.8927495493
 H           1.0     6.0029035726        0.2044683519        1.9076783846
 H           1.0     1.6561558556        7.0855275910        1.5204735297
 H           1.0     5.6083287864        9.6243744555        1.4681281199
 H           1.0    10.6438816258        0.4057241696        1.9772203010
 H           1.0    10.2487399218        9.8241184924        1.5357803102
 H           1.0    14.5971883922        2.9447600067        1.9273315349
 H           1.0    16.1987311668        7.5513450469        3.3778852031
 H           1.0    16.1936289066        7.4827479936        0.0309915062
 H           1.0    14.7580040737       10.0363347208        1.6546440748

          INTERNUCLEAR DISTANCES (ANGS.)




     $CONTRL OPTIONS
     ---------------
 SCFTYP=RHF          RUNTYP=OPTIMIZE     EXETYP=RUN     
 MPLEVL=       0     CITYP =NONE         CCTYP =NONE         VBTYP =NONE    
 DFTTYP=NONE         TDDFT =NONE    
 MULT  =       1     ICHARG=       0     NZVAR =       1     COORD =UNIQUE  
 PP    =NONE         RELWFN=NONE         LOCAL =NONE         NUMGRD=       F
 ISPHER=      -1     NOSYM =       0     MAXIT =     200     UNITS =ANGS    
 PLTORB=       F     MOLPLT=       F     AIMPAC=       F     FRIEND=        
 NPRINT=       7     IREST =       0     GEOM  =INPUT   
 NORMF =       0     NORMP =       0     ITOL  =      20     ICUT  =       9
 INTTYP=BEST         GRDTYP=BEST         QMTTOL= 1.0E-06

     $SYSTEM OPTIONS
     ---------------
  REPLICATED MEMORY=    40000000 WORDS (ON EVERY NODE).
 DISTRIBUTED MEMDDI=           0 MILLION WORDS IN AGGREGATE,
 MEMDDI DISTRIBUTED OVER   1 PROCESSORS IS           0 WORDS/PROCESSOR.
 TOTAL MEMORY REQUESTED ON EACH PROCESSOR=    40000000 WORDS.
 TIMLIM=       10000.00 MINUTES, OR       6.9 DAYS.
 PARALL= F  BALTYP=  DLB     KDIAG=    0  COREFL= F
 MXSEQ2=     300 MXSEQ3=     150  mem10=         0

     $COSGMS OPTIONS
     ---------------
     EPSI  =   INFTY     NSPA  =      92     COSRAD=    1.40
     DISEX =   10.00     OUTCHG=DBLCAV       COSBUG=       F
     COSWRT=       F     DCOSMO=       F

     SYMMETRY COORDINATES WILL NOT BE USED FOR 
     THE COSMO CALCULATION, EVEN IF SPECIFIED:
         -- SWITCHING TO C1 POINT GROUP --


     DEFINITION OF CAVITY
     ---------------------------
     ATOM         COORDINATES           RADIUS 
     1    3.6026    3.4803    1.7172    2.0000
     2    1.1892    2.0475    1.7397    2.0000
     3    5.8963    2.2722    1.8109    2.0000
     4    3.5070    6.1598    1.5930    2.0000
     5    8.1778    3.6857    1.7841    2.0000
     6    5.6792    7.5570    1.5647    2.0000
     7    8.0742    6.3432    1.6601    2.0000
     8   10.5730    2.4733    1.8807    2.0000
     9   10.3557    7.7566    1.6329    2.0000
    10   12.7460    3.8696    1.8527    2.0000
    11   12.6493    6.5487    1.7263    2.0000
    12   15.0613    7.9841    1.6966    2.0000
    13    0.0000    2.6303    3.3378    1.3000
    14    0.1119    2.3966    0.0000    1.3000
    15    1.4880    0.0000    1.8927    1.3000
    16    6.0029    0.2045    1.9077    1.3000
    17    1.6562    7.0855    1.5205    1.3000
    18    5.6083    9.6244    1.4681    1.3000
    19   10.6439    0.4057    1.9772    1.3000
    20   10.2487    9.8241    1.5358    1.3000
    21   14.5972    2.9448    1.9273    1.3000
    22   16.1987    7.5513    3.3779    1.3000
    23   16.1936    7.4827    0.0310    1.3000
    24   14.7580   10.0363    1.6546    1.3000

          ----------------
          PROPERTIES INPUT
          ----------------

     MOMENTS            FIELD           POTENTIAL          DENSITY
 IEMOM =       1   IEFLD =       0   IEPOT =       0   IEDEN =       0
 WHERE =COMASS     WHERE =NUCLEI     WHERE =NUCLEI     WHERE =NUCLEI  
 OUTPUT=BOTH       OUTPUT=BOTH       OUTPUT=BOTH       OUTPUT=BOTH    
 IEMINT=       0   IEFINT=       0                     IEDINT=       0
                                                       MORB  =       0
          EXTRAPOLATION IN EFFECT
          SOSCF IN EFFECT
 ORBITAL PRINTING OPTION: NPREO=     1   300     2     1

     -------------------------------
     INTEGRAL TRANSFORMATION OPTIONS
     -------------------------------
     NWORD  =            0
     CUTOFF = 1.0E-09     MPTRAN =       0
     DIRTRF =       T     AOINTS =DUP     

          ----------------------
          INTEGRAL INPUT OPTIONS
          ----------------------
 NOPK  =       1 NORDER=       0 SCHWRZ=       T


 -----------------------------------------------
  STATISTICS ON AUTOMATIC COORDINATE GENERATION 
 -----------------------------------------------
  NUMBER OF USER SPECIFIED BONDS                             0
  NUMBER OF BONDS                                           25
  NUMBER OF ANGLES                                          42
  NUMBER OF TORSIONS                                        56
  NUMBER OF EXTRA COORD.                                     0
  NUMBER OF EXTRA COORD. FOR CONSTRAINTS                     0
  NUMBER OF CONSTRAINED COORD.                               0

  TOTAL NUMBER OF PRIMITIVES                               123
 -----------------------------------------------

   --- ENCODED Z MATRIX ---
 COORD  TYPE   I   J   K   L   M   N
    1      1    1   3
    2      1    1   2
    3      1    1   4
    4      1    2  13
    5      1    2  15
    6      1    2  14
    7      1    3  16
    8      1    3   5
    9      1    4   6
   10      1    4  17
   11      1    5   7
   12      1    5   8
   13      1    6   7
   14      1    6  18
   15      1    7   9
   16      1    8  10
   17      1    8  19
   18      1    9  11
   19      1    9  20
   20      1   10  11
   21      1   10  21
   22      1   11  12
   23      1   12  24
   24      1   12  23
   25      1   12  22
   26      2    1   4   6
   27      2    1   2  13
   28      2    1   3  16
   29      2    1   4  17
   30      2    1   2  14
   31      2    1   2  15
   32      2    1   3   5
   33      2    2   1   4
   34      2    2   1   3
   35      2    3   1   4
   36      2    3   5   7
   37      2    3   5   8
   38      2    4   6  18
   39      2    4   6   7
   40      2    5   8  19
   41      2    5   8  10
   42      2    5   7   9
   43      2    5   7   6
   44      2    5   3  16
   45      2    6   7   9
   46      2    6   4  17
   47      2    7   9  20
   48      2    7   9  11
   49      2    7   6  18
   50      2    7   5   8
   51      2    8  10  21
   52      2    8  10  11
   53      2    9  11  12
   54      2    9  11  10
   55      2   10   8  19
   56      2   10  11  12
   57      2   11  12  23
   58      2   11  12  24
   59      2   11  10  21
   60      2   11   9  20
   61      2   11  12  22
   62      2   13   2  14
   63      2   13   2  15
   64      2   14   2  15
   65      2   22  12  23
   66      2   22  12  24
   67      2   23  12  24
   68      3    1   4   6   7
   69      3    1   3   5   8
   70      3    1   4   6  18
   71      3    1   3   5   7
   72      3    2   1   3   5
   73      3    2   1   3  16
   74      3    2   1   4   6
   75      3    2   1   4  17
   76      3    3   1   2  15
   77      3    3   1   4   6
   78      3    3   1   2  14
   79      3    3   1   2  13
   80      3    3   5   8  19
   81      3    3   5   8  10
   82      3    3   1   4  17
   83      3    3   5   7   9
   84      3    3   5   7   6
   85      3    4   1   2  15
   86      3    4   1   2  13
   87      3    4   1   2  14
   88      3    4   6   7   9
   89      3    4   6   7   5
   90      3    4   1   3   5
   91      3    4   1   3  16
   92      3    5   7   6  18
   93      3    5   7   9  20
   94      3    5   7   9  11
   95      3    5   8  10  21
   96      3    5   8  10  11
   97      3    6   7   5   8
   98      3    6   7   9  20
   99      3    6   7   9  11
  100      3    7   5   8  10
  101      3    7   5   8  19
  102      3    7   6   4  17
  103      3    7   9  11  12
  104      3    7   9  11  10
  105      3    7   5   3  16
  106      3    8   5   7   9
  107      3    8  10  11  12
  108      3    8  10  11   9
  109      3    8   5   3  16
  110      3    9  11  10  21
  111      3    9  11  12  22
  112      3    9  11  12  23
  113      3    9  11  12  24
  114      3    9   7   6  18
  115      3   10  11  12  22
  116      3   10  11  12  23
  117      3   10  11  12  24
  118      3   10  11   9  20
  119      3   11  10   8  19
  120      3   12  11  10  21
  121      3   12  11   9  20
  122      3   17   4   6  18
  123      3   19   8  10  21

          INDEP./SYM. INTERNAL COORDINATES
          --------------------------------
 CRD  1=   0.1987 (  1)  0.1902 (  8) -0.1800 (  9)  0.1646 ( 12) -0.1646 ( 13)
          -0.1905 ( 15)  0.1799 ( 16) -0.1988 ( 18) -0.3358 ( 33)  0.3093 ( 34)
          -0.1333 ( 36)  0.2735 ( 37)  0.1332 ( 42)  0.1404 ( 43) -0.2736 ( 45)
          -0.1403 ( 50) -0.3096 ( 53)  0.3359 ( 56)
 CRD  2=  -0.1320 ( 27)  0.1340 ( 30)  0.1342 ( 57) -0.1318 ( 61) -0.1663 ( 69)
           0.2724 ( 72)  0.1082 ( 73) -0.2245 ( 74) -0.1258 ( 75) -0.1422 ( 77)
           0.1430 ( 80)  0.2685 ( 81) -0.2203 ( 83) -0.1155 ( 84)  0.1033 ( 85)
           0.2686 ( 88)  0.1619 ( 89)  0.1877 ( 90)  0.1020 ( 93) -0.1353 ( 95)
          -0.1661 ( 99)  0.1618 (100) -0.1353 (102)  0.2724 (103)  0.1877 (104)
           0.1020 (105) -0.1155 (106) -0.2246 (107) -0.1423 (108)  0.1431 (114)
           0.1033 (117) -0.1259 (120)  0.1082 (121)
 CRD  3=  -0.1813 (  1) -0.1650 (  2) -0.2483 (  8) -0.2482 ( 15) -0.1812 ( 18)
          -0.1650 ( 22) -0.1040 ( 26)  0.1105 ( 29) -0.1642 ( 31)  0.3107 ( 33)
          -0.3964 ( 34)  0.1092 ( 43)  0.1093 ( 50) -0.1041 ( 52) -0.3963 ( 53)
           0.3105 ( 56) -0.1642 ( 58)  0.1105 ( 59)
 CRD  4=   0.3164 (  2)  0.1534 (  3)  0.2165 (  8)  0.2071 (  9)  0.1088 ( 12)
           0.1083 ( 13)  0.2161 ( 15)  0.2072 ( 16)  0.1532 ( 20)  0.3161 ( 22)
           0.1311 ( 27) -0.1316 ( 28)  0.1255 ( 30)  0.1411 ( 32)  0.2992 ( 33)
          -0.1324 ( 34) -0.1668 ( 35)  0.1020 ( 39)  0.1018 ( 41)  0.1410 ( 48)
          -0.1321 ( 53) -0.1667 ( 54)  0.2988 ( 56)  0.1252 ( 57) -0.1314 ( 60)
           0.1311 ( 61)
 CRD  5=  -0.1007 (  1) -0.1451 (  2) -0.1813 (  3) -0.1467 (  8) -0.1821 ( 12)
           0.1822 ( 13)  0.1472 ( 15)  0.1008 ( 18)  0.1816 ( 20)  0.1457 ( 22)
          -0.1066 ( 27)  0.1099 ( 28) -0.1634 ( 29) -0.1001 ( 30) -0.2712 ( 33)
           0.2290 ( 34)  0.1389 ( 36) -0.2790 ( 37) -0.1530 ( 40) -0.1388 ( 42)
          -0.1404 ( 43)  0.2792 ( 45)  0.1010 ( 46)  0.1528 ( 49)  0.1401 ( 50)
          -0.1012 ( 51) -0.2291 ( 53)  0.2716 ( 56)  0.1635 ( 59) -0.1102 ( 60)
           0.1071 ( 61)
 CRD  6=   0.1783 (  1)  0.3957 (  2)  0.1544 (  3)  0.1445 (  9) -0.1445 ( 16)
          -0.1778 ( 18) -0.1551 ( 20) -0.3963 ( 22)  0.1066 ( 26)  0.1211 ( 28)
           0.1607 ( 31)  0.1990 ( 34) -0.2120 ( 35) -0.1334 ( 37) -0.1963 ( 44)
           0.1340 ( 45)  0.1962 ( 47) -0.1072 ( 52) -0.1992 ( 53)  0.2126 ( 54)
          -0.1610 ( 58) -0.1215 ( 60) -0.1123 ( 63) -0.1131 ( 64)  0.1125 ( 66)
           0.1133 ( 67)
 CRD  7=   0.1337 (  2)  0.1213 (  3) -0.1147 ( 10) -0.1184 ( 11) -0.4156 ( 12)
          -0.4157 ( 13)  0.1206 ( 20) -0.1146 ( 21)  0.1321 ( 22)  0.1250 ( 26)
           0.1379 ( 28)  0.1206 ( 31) -0.1119 ( 32) -0.1574 ( 35)  0.2247 ( 36)
          -0.1577 ( 37)  0.1715 ( 38) -0.1582 ( 40)  0.2244 ( 42) -0.1572 ( 45)
          -0.1386 ( 46) -0.1121 ( 48) -0.1582 ( 49) -0.1383 ( 51)  0.1246 ( 52)
          -0.1566 ( 54)  0.1713 ( 55)  0.1200 ( 58)  0.1373 ( 60)
 CRD  8=  -0.1691 ( 68) -0.3013 ( 69) -0.2343 ( 71)  0.1166 ( 74) -0.1226 ( 76)
           0.1516 ( 77) -0.1238 ( 78) -0.1238 ( 79)  0.1033 ( 82)  0.1498 ( 83)
           0.2149 ( 84) -0.1233 ( 92) -0.1288 ( 93) -0.2336 ( 94) -0.1192 ( 95)
          -0.1692 ( 96)  0.2804 ( 97) -0.1953 ( 98) -0.3001 ( 99) -0.1236 (101)
          -0.1198 (102) -0.1285 (105)  0.2154 (106)  0.1190 (107)  0.1529 (108)
          -0.1955 (109)  0.1039 (110) -0.1225 (111) -0.1226 (112) -0.1231 (113)
 CRD  9=   0.3369 ( 27) -0.3482 ( 30)  0.3486 ( 57) -0.3366 ( 61) -0.2392 ( 72)
          -0.1568 ( 73)  0.2107 ( 74)  0.1545 ( 75)  0.1033 ( 77)  0.1120 ( 78)
           0.1170 ( 79) -0.1395 ( 85) -0.1286 ( 90)  0.2401 (103)  0.1292 (104)
          -0.2095 (107) -0.1016 (108) -0.1187 (111) -0.1134 (112)  0.1384 (117)
          -0.1537 (120)  0.1565 (121)
 CRD 10=  -0.2814 (  1) -0.1166 (  2) -0.1118 (  3)  0.2577 (  8)  0.1997 ( 11)
           0.2577 ( 15) -0.2814 ( 18) -0.1121 ( 20) -0.1167 ( 22)  0.1311 ( 26)
          -0.2410 ( 28) -0.1404 ( 29) -0.1009 ( 32)  0.1029 ( 36)  0.1028 ( 42)
          -0.1650 ( 43)  0.3419 ( 44)  0.3420 ( 47) -0.1010 ( 48) -0.1650 ( 50)
           0.1310 ( 52) -0.1405 ( 59) -0.2411 ( 60)
 CRD 11=  -0.2953 (  3) -0.1493 (  7)  0.1117 (  9) -0.3904 ( 11) -0.1200 ( 12)
          -0.1201 ( 13) -0.1694 ( 14)  0.1121 ( 16) -0.1694 ( 17) -0.1493 ( 19)
          -0.2953 ( 20) -0.1423 ( 29) -0.1574 ( 31)  0.1169 ( 32)  0.1256 ( 39)
          -0.2253 ( 40)  0.1256 ( 41)  0.2422 ( 46)  0.1170 ( 48) -0.2251 ( 49)
           0.2424 ( 51) -0.1000 ( 52) -0.1576 ( 58) -0.1423 ( 59)
 CRD 12=  -0.1073 (  4)  0.1112 (  6)  0.1112 ( 24) -0.1072 ( 25) -0.4006 ( 27)
           0.4153 ( 30)  0.4154 ( 57) -0.4003 ( 61)  0.1555 ( 63) -0.1506 ( 64)
           0.1555 ( 66) -0.1504 ( 67) -0.1293 ( 81)  0.1135 ( 85) -0.1293 ( 88)
          -0.1072 ( 89) -0.1072 (100)  0.1134 (117)
 CRD 13=  -0.2816 (  3) -0.1132 (  5) -0.1371 (  9) -0.1622 ( 14)  0.1329 ( 16)
           0.1601 ( 17)  0.2798 ( 20)  0.1124 ( 23)  0.2027 ( 27)  0.1840 ( 30)
          -0.3415 ( 31)  0.1137 ( 32) -0.1706 ( 38)  0.1429 ( 39) -0.1416 ( 41)
          -0.1132 ( 43) -0.1149 ( 44)  0.1150 ( 47) -0.1139 ( 48)  0.1121 ( 50)
           0.1674 ( 55) -0.1825 ( 57)  0.3389 ( 58) -0.2014 ( 61) -0.1561 ( 62)
           0.1551 ( 65)
 CRD 14=  -0.1198 (  3)  0.3159 (  9) -0.3283 ( 16)  0.1152 ( 20) -0.2639 ( 29)
           0.2768 ( 38)  0.2646 ( 40)  0.3315 ( 46) -0.2594 ( 49) -0.3399 ( 51)
          -0.2869 ( 55)  0.2705 ( 59)
 CRD 15=   0.1177 (  3)  0.3393 (  9)  0.1199 ( 10)  0.1110 ( 11)  0.1825 ( 14)
           0.3288 ( 16)  0.1831 ( 17)  0.1250 ( 20)  0.1181 ( 21) -0.1031 ( 27)
          -0.1848 ( 29)  0.2109 ( 31)  0.2755 ( 38) -0.1261 ( 39) -0.1398 ( 40)
          -0.1274 ( 41)  0.2405 ( 46) -0.1494 ( 49)  0.2279 ( 51)  0.2672 ( 55)
           0.2185 ( 58) -0.1750 ( 59) -0.1077 ( 61)
 CRD 16=   0.2922 (  1) -0.1397 (  2)  0.1841 (  3)  0.1799 (  7) -0.1282 (  8)
           0.1903 ( 10)  0.1283 ( 15) -0.2922 ( 18) -0.1799 ( 19) -0.1847 ( 20)
          -0.1907 ( 21)  0.1398 ( 22) -0.1393 ( 26)  0.3039 ( 28)  0.1395 ( 29)
          -0.1963 ( 31) -0.1269 ( 32)  0.1072 ( 35) -0.1770 ( 44)  0.1769 ( 47)
           0.1269 ( 48)  0.1394 ( 52) -0.1073 ( 54)  0.1954 ( 58) -0.1393 ( 59)
          -0.3038 ( 60)
 CRD 17=  -0.1296 (  1)  0.1173 (  5) -0.1732 (  7) -0.2305 ( 11) -0.1345 ( 14)
          -0.1344 ( 17) -0.1299 ( 18) -0.1733 ( 19)  0.1174 ( 23) -0.1090 ( 26)
          -0.2050 ( 27) -0.1333 ( 28)  0.1753 ( 29) -0.1859 ( 30)  0.3626 ( 31)
           0.1335 ( 32) -0.1097 ( 38)  0.1218 ( 39)  0.1217 ( 41)  0.1335 ( 48)
          -0.1090 ( 52) -0.1095 ( 55) -0.1853 ( 57)  0.3629 ( 58)  0.1751 ( 59)
          -0.1335 ( 60) -0.2057 ( 61)  0.1595 ( 62)  0.1595 ( 65)
 CRD 18=  -0.1975 (  7) -0.1374 (  8)  0.1654 ( 10) -0.2408 ( 14)  0.1373 ( 15)
           0.2408 ( 17)  0.1974 ( 19) -0.1656 ( 21) -0.1978 ( 26) -0.1356 ( 27)
           0.1671 ( 29) -0.1251 ( 30)  0.2027 ( 31)  0.1894 ( 32) -0.1021 ( 36)
           0.2434 ( 39)  0.1904 ( 40) -0.2434 ( 41)  0.1021 ( 42) -0.1730 ( 44)
           0.1730 ( 47) -0.1894 ( 48) -0.1902 ( 49)  0.1979 ( 52)  0.1247 ( 57)
          -0.2029 ( 58) -0.1671 ( 59)  0.1361 ( 61)  0.1089 ( 62) -0.1089 ( 65)
 CRD 19=  -0.1958 (  1)  0.1766 (  2) -0.1454 (  3) -0.2470 (  7) -0.1910 (  8)
          -0.2472 ( 10)  0.1685 ( 14) -0.1910 ( 15)  0.1683 ( 17) -0.1957 ( 18)
          -0.2471 ( 19) -0.1456 ( 20) -0.2472 ( 21)  0.1766 ( 22)  0.1764 ( 26)
          -0.1823 ( 29)  0.1212 ( 32) -0.1940 ( 39)  0.2209 ( 40) -0.1938 ( 41)
           0.1212 ( 48)  0.2210 ( 49)  0.1763 ( 52) -0.1821 ( 59)
 CRD 20=  -0.1833 ( 27)  0.1893 ( 30) -0.1898 ( 57)  0.1833 ( 61)  0.1052 ( 63)
          -0.1024 ( 64) -0.1054 ( 66)  0.1023 ( 67)  0.1429 ( 69)  0.1232 ( 71)
          -0.1441 ( 72)  0.1027 ( 75)  0.1726 ( 76)  0.1750 ( 78)  0.1748 ( 79)
           0.1071 ( 81)  0.1166 ( 82)  0.1866 ( 85)  0.1889 ( 86)  0.1890 ( 87)
          -0.1071 ( 88) -0.1269 ( 89) -0.1583 ( 90) -0.1184 ( 92) -0.1231 ( 94)
          -0.1429 ( 99)  0.1268 (100)  0.1184 (101)  0.1442 (103)  0.1582 (104)
          -0.1165 (110) -0.1750 (111) -0.1751 (112) -0.1728 (113) -0.1889 (115)
          -0.1890 (116) -0.1867 (117) -0.1028 (120)
 CRD 21=   0.1194 (  4) -0.1232 (  6)  0.1233 ( 24) -0.1192 ( 25)  0.1915 ( 27)
          -0.1988 ( 30)  0.1990 ( 57) -0.1911 ( 61) -0.1234 ( 63)  0.1198 ( 64)
           0.1236 ( 66) -0.1197 ( 67)  0.1031 ( 68)  0.1182 ( 70)  0.1355 ( 72)
           0.1542 ( 73) -0.1858 ( 74)  0.1703 ( 76) -0.1555 ( 77)  0.1518 ( 78)
           0.1509 ( 79)  0.2011 ( 85)  0.1817 ( 86)  0.1826 ( 87)  0.1043 ( 90)
           0.1230 ( 91) -0.1031 ( 96) -0.1353 (103) -0.1044 (104)  0.1857 (107)
           0.1556 (108) -0.1501 (111) -0.1511 (112) -0.1696 (113) -0.1807 (115)
          -0.1816 (116) -0.2002 (117) -0.1230 (118) -0.1181 (119) -0.1539 (121)
 CRD 22=  -0.1019 ( 75) -0.2232 ( 76) -0.2292 ( 78) -0.2289 ( 79) -0.1386 ( 82)
          -0.2605 ( 85) -0.2662 ( 86) -0.2664 ( 87)  0.1244 ( 92)  0.1189 ( 95)
          -0.1139 ( 97)  0.1361 ( 98)  0.1244 (101)  0.1191 (102)  0.1358 (109)
          -0.1382 (110) -0.2293 (111) -0.2296 (112) -0.2239 (113) -0.2665 (115)
          -0.2668 (116) -0.2611 (117) -0.1015 (120)
 CRD 23=  -0.1115 (  2)  0.1433 (  4)  0.1540 (  5)  0.1438 (  6) -0.2588 ( 10)
           0.2559 ( 12) -0.2558 ( 13)  0.2588 ( 21)  0.1114 ( 22) -0.1538 ( 23)
          -0.1436 ( 24) -0.1430 ( 25)  0.1361 ( 26) -0.1238 ( 27)  0.1641 ( 28)
          -0.1232 ( 30) -0.1229 ( 31) -0.1141 ( 35)  0.1926 ( 38)  0.1115 ( 40)
          -0.1580 ( 44) -0.1300 ( 46)  0.1578 ( 47) -0.1114 ( 49)  0.1299 ( 51)
          -0.1360 ( 52)  0.1140 ( 54) -0.1927 ( 55)  0.1231 ( 57)  0.1226 ( 58)
          -0.1640 ( 60)  0.1237 ( 61)  0.1313 ( 62)  0.1318 ( 63)  0.1310 ( 64)
          -0.1312 ( 65) -0.1317 ( 66) -0.1307 ( 67)
 CRD 24=   0.2982 (  4)  0.3062 (  5)  0.2974 (  6)  0.3064 ( 23)  0.2975 ( 24)
           0.2984 ( 25) -0.1655 ( 27) -0.1656 ( 30) -0.1625 ( 31) -0.1658 ( 57)
          -0.1625 ( 58) -0.1657 ( 61)  0.1734 ( 62)  0.1763 ( 63)  0.1761 ( 64)
           0.1736 ( 65)  0.1764 ( 66)  0.1762 ( 67)
 CRD 25=  -0.2071 ( 68) -0.1970 ( 70) -0.1313 ( 71)  0.1432 ( 74)  0.1414 ( 75)
           0.1078 ( 76)  0.1156 ( 77)  0.1331 ( 78)  0.1335 ( 79) -0.1603 ( 80)
          -0.1700 ( 81)  0.1138 ( 82)  0.1055 ( 86)  0.1051 ( 87)  0.1691 ( 88)
           0.1280 ( 89)  0.1096 ( 91)  0.1181 ( 92)  0.1844 ( 93)  0.1313 ( 94)
           0.2060 ( 95)  0.2081 ( 96)  0.1431 ( 98) -0.1289 (100) -0.1193 (101)
          -0.2053 (102) -0.1845 (105) -0.1440 (107) -0.1161 (108) -0.1432 (109)
          -0.1141 (110) -0.1341 (111) -0.1336 (112) -0.1082 (113)  0.1593 (114)
          -0.1057 (115) -0.1052 (116) -0.1095 (118)  0.1982 (119) -0.1420 (120)
          -0.1952 (122)  0.1961 (123)
 CRD 26=   0.1296 (  2)  0.3025 (  4)  0.3004 (  5)  0.3020 (  6)  0.1290 (  8)
           0.1501 ( 10) -0.1600 ( 12)  0.1600 ( 13) -0.1290 ( 15) -0.1502 ( 21)
          -0.1295 ( 22) -0.3004 ( 23) -0.3018 ( 24) -0.3026 ( 25) -0.1375 ( 28)
          -0.1088 ( 31) -0.1341 ( 38)  0.1341 ( 55)  0.1088 ( 58)  0.1376 ( 60)
           0.1122 ( 63)  0.1121 ( 64) -0.1121 ( 66) -0.1121 ( 67)
 CRD 27=  -0.1034 ( 63) -0.1034 ( 66)  0.1932 ( 68)  0.2172 ( 70)  0.1004 ( 72)
           0.1249 ( 73) -0.1872 ( 74) -0.1665 ( 75) -0.1203 ( 77) -0.1001 ( 78)
          -0.1023 ( 79) -0.1896 ( 80) -0.1658 ( 81) -0.1665 ( 88) -0.1777 ( 89)
          -0.2013 ( 92)  0.1709 ( 95)  0.1922 ( 96)  0.1008 ( 97) -0.1772 (100)
          -0.2010 (101)  0.1721 (102)  0.1005 (103) -0.1865 (107) -0.1196 (108)
          -0.1019 (111) -0.1900 (114)  0.2164 (119) -0.1656 (120)  0.1252 (121)
           0.1961 (122)  0.1951 (123)
 CRD 28=   0.2747 (  4) -0.5096 (  5)  0.2447 (  6) -0.2755 ( 23)  0.1272 ( 24)
           0.1433 ( 25)  0.3667 ( 62) -0.1713 ( 63) -0.1924 ( 64)  0.1964 ( 65)
          -0.1027 ( 67)  0.2059 ( 78) -0.1987 ( 79) -0.1989 ( 86)  0.2058 ( 87)
          -0.1062 (111)  0.1101 (112) -0.1063 (115)  0.1100 (116)
 CRD 29=   0.1584 (  4) -0.2665 (  5)  0.1319 (  6)  0.5053 ( 23) -0.2603 ( 24)
          -0.2700 ( 25)  0.1950 ( 62) -0.1064 ( 64) -0.3661 ( 65)  0.1782 ( 66)
           0.1861 ( 67)  0.1114 ( 78) -0.1046 ( 79) -0.1050 ( 86)  0.1110 ( 87)
           0.2017 (111) -0.2030 (112)  0.2011 (115) -0.2036 (116)
 CRD 30=   0.3483 (  4) -0.3696 (  6) -0.3619 ( 24)  0.3581 ( 25)  0.2408 ( 63)
          -0.2274 ( 64)  0.2355 ( 66) -0.2341 ( 67) -0.1560 ( 76)  0.1117 ( 79)
          -0.1811 ( 85)  0.1053 (111)  0.1037 (112) -0.1565 (113) -0.1816 (117)
 CRD 31=  -0.3584 (  4)  0.3715 (  6) -0.3701 ( 24)  0.3586 ( 25) -0.2515 ( 63)
           0.2433 ( 64)  0.2505 ( 66) -0.2435 ( 67)  0.1830 ( 76) -0.1021 ( 79)
           0.1968 ( 85)  0.1013 (111) -0.1828 (113) -0.1965 (117)
 CRD 32=  -0.1986 ( 70) -0.1316 ( 71)  0.2189 ( 73) -0.1039 ( 75)  0.1277 ( 76)
          -0.1151 ( 81) -0.1688 ( 82)  0.2180 ( 83) -0.1150 ( 88)  0.1306 ( 90)
           0.2857 ( 91)  0.1938 ( 92) -0.2835 ( 93) -0.1315 ( 94) -0.1671 ( 97)
           0.1939 (101)  0.1306 (104) -0.2837 (105) -0.1689 (110)  0.1275 (113)
           0.2856 (118) -0.1986 (119) -0.1041 (120)  0.2190 (121)
 CRD 33=   0.2849 (  2)  0.2052 (  4)  0.1731 (  5)  0.2026 (  6) -0.2066 (  9)
          -0.1497 ( 14) -0.2065 ( 16) -0.1497 ( 17)  0.2849 ( 22)  0.1728 ( 23)
           0.2026 ( 24)  0.2053 ( 25) -0.1797 ( 28) -0.1031 ( 33)  0.1402 ( 35)
          -0.1455 ( 36) -0.1455 ( 42)  0.1716 ( 43)  0.2348 ( 44)  0.2348 ( 47)
           0.1715 ( 50)  0.1402 ( 54) -0.1032 ( 56) -0.1797 ( 60)
 CRD 34=  -0.3911 (  7) -0.1552 (  8) -0.1891 ( 12)  0.1892 ( 13)  0.3982 ( 14)
           0.1553 ( 15) -0.3981 ( 17)  0.3910 ( 19)  0.1137 ( 32) -0.1031 ( 36)
           0.1984 ( 37) -0.1163 ( 40)  0.1031 ( 42) -0.1101 ( 44) -0.1983 ( 45)
           0.1101 ( 47) -0.1136 ( 48)  0.1163 ( 49)
 CRD 35=   0.1525 (  5)  0.2268 (  7) -0.2440 ( 14) -0.2438 ( 17)  0.2270 ( 19)
           0.1521 ( 23)  0.2067 ( 28) -0.2373 ( 29)  0.1062 ( 31)  0.1174 ( 33)
          -0.1544 ( 34)  0.1210 ( 36) -0.2139 ( 38)  0.1840 ( 40)  0.1211 ( 42)
          -0.1134 ( 43) -0.1365 ( 44)  0.2415 ( 46) -0.1364 ( 47)  0.1842 ( 49)
          -0.1136 ( 50)  0.2410 ( 51) -0.1539 ( 53) -0.2139 ( 55)  0.1174 ( 56)
           0.1059 ( 58) -0.2370 ( 59)  0.2064 ( 60)
 CRD 36=   0.2025 (  2)  0.1940 (  5)  0.1020 (  6) -0.3146 (  8) -0.2618 (  9)
          -0.1034 ( 14)  0.3147 ( 15)  0.2619 ( 16)  0.1041 ( 17) -0.2028 ( 22)
          -0.1943 ( 23) -0.1021 ( 24)  0.1244 ( 28) -0.1137 ( 29)  0.1218 ( 31)
          -0.1601 ( 34)  0.1696 ( 35)  0.1225 ( 37) -0.1225 ( 45)  0.1866 ( 46)
          -0.1874 ( 51)  0.1605 ( 53) -0.1698 ( 54) -0.1220 ( 58)  0.1143 ( 59)
          -0.1250 ( 60)
 CRD 37=   0.2086 (  1) -0.1210 (  3)  0.2325 (  7)  0.1074 (  8) -0.1060 (  9)
          -0.4638 ( 10)  0.1038 ( 12)  0.1037 ( 13)  0.1078 ( 15) -0.1057 ( 16)
           0.2087 ( 18)  0.2324 ( 19) -0.1209 ( 20) -0.4637 ( 21) -0.1420 ( 36)
           0.1395 ( 38) -0.1524 ( 40) -0.1419 ( 42)  0.1016 ( 43) -0.1524 ( 49)
           0.1015 ( 50)  0.1395 ( 55)
 CRD 38=  -0.2491 (  1)  0.1547 (  3)  0.1318 (  4)  0.1244 (  6) -0.1748 (  7)
          -0.1351 (  8)  0.2375 ( 10)  0.1214 ( 12) -0.1214 ( 13)  0.1352 ( 15)
           0.2491 ( 18)  0.1748 ( 19) -0.1547 ( 20) -0.2376 ( 21) -0.1240 ( 24)
          -0.1319 ( 25) -0.1050 ( 28)  0.1384 ( 29) -0.1814 ( 33)  0.1210 ( 34)
           0.1100 ( 36) -0.1181 ( 37)  0.1350 ( 38) -0.1100 ( 42)  0.1948 ( 44)
           0.1181 ( 45) -0.1277 ( 46) -0.1948 ( 47)  0.1277 ( 51) -0.1210 ( 53)
          -0.1350 ( 55)  0.1815 ( 56) -0.1384 ( 59)  0.1050 ( 60) -0.1241 ( 62)
           0.1240 ( 65)
 CRD 39=  -0.1016 (  6)  0.1016 ( 24)  0.1171 ( 70)  0.1531 ( 72)  0.1447 ( 75)
          -0.1033 ( 78) -0.1045 ( 79)  0.1278 ( 80)  0.2895 ( 82) -0.2082 ( 91)
          -0.1586 ( 92) -0.1600 ( 93)  0.3123 ( 95) -0.1908 ( 98)  0.1585 (101)
          -0.3121 (102) -0.1529 (103)  0.1601 (105)  0.1909 (109) -0.2896 (110)
           0.1043 (111)  0.1030 (112) -0.1280 (114)  0.2082 (118) -0.1170 (119)
          -0.1447 (120) -0.1173 (122)  0.1175 (123)
 CRD 40=   0.2174 (  3) -0.3366 (  7) -0.1369 ( 10)  0.4397 ( 11) -0.4162 ( 14)
          -0.4162 ( 17) -0.3366 ( 19)  0.2174 ( 20) -0.1370 ( 21)
 CRD 41=  -0.1439 (  3)  0.1764 (  7) -0.1332 (  8) -0.2952 ( 10) -0.2229 ( 12)
           0.2228 ( 13)  0.1603 ( 14)  0.1331 ( 15) -0.1604 ( 17) -0.1764 ( 19)
           0.1438 ( 20)  0.2952 ( 21) -0.1544 ( 28)  0.2342 ( 29)  0.1686 ( 38)
           0.2537 ( 40)  0.1088 ( 44) -0.1370 ( 46) -0.1088 ( 47) -0.2537 ( 49)
           0.1370 ( 51) -0.1686 ( 55) -0.2342 ( 59)  0.1544 ( 60)
 CRD 42=   0.1626 (  1)  0.2866 (  3) -0.1057 (  5) -0.2415 (  7) -0.2854 ( 10)
          -0.2421 ( 12)  0.2420 ( 13) -0.3253 ( 14)  0.3252 ( 17) -0.1624 ( 18)
           0.2414 ( 19) -0.2867 ( 20)  0.2853 ( 21)  0.1056 ( 23)  0.1141 ( 44)
          -0.1140 ( 47)
 CRD 43=   0.1985 (  1)  0.1652 (  2) -0.1525 (  4) -0.1419 (  5) -0.1526 (  6)
          -0.1091 ( 11) -0.1500 ( 12) -0.1500 ( 13)  0.1984 ( 18)  0.1650 ( 22)
          -0.1417 ( 23) -0.1526 ( 24) -0.1525 ( 25) -0.1466 ( 27) -0.1929 ( 28)
          -0.1386 ( 29) -0.1463 ( 30) -0.1389 ( 31) -0.1516 ( 35)  0.1383 ( 40)
           0.1320 ( 43)  0.1276 ( 44)  0.1274 ( 47)  0.1383 ( 49)  0.1320 ( 50)
          -0.1516 ( 54) -0.1462 ( 57) -0.1387 ( 58) -0.1387 ( 59) -0.1927 ( 60)
          -0.1465 ( 61)  0.1582 ( 62)  0.1508 ( 63)  0.1509 ( 64)  0.1583 ( 65)
           0.1507 ( 66)  0.1508 ( 67)
 CRD 44=  -0.3078 (  1)  0.2486 (  3) -0.1599 (  5)  0.2640 (  7) -0.1170 ( 10)
          -0.2601 ( 11)  0.2392 ( 12)  0.2397 ( 13) -0.2093 ( 14) -0.2088 ( 17)
          -0.3076 ( 18)  0.2646 ( 19)  0.2483 ( 20) -0.1163 ( 21) -0.1604 ( 23)
           0.1038 ( 32)  0.1222 ( 34)  0.1039 ( 48)  0.1223 ( 53)
 CRD 45=  -0.2082 (  4)  0.2148 (  6)  0.2159 ( 24) -0.2072 ( 25)  0.1502 ( 63)
          -0.1435 ( 64)  0.1496 ( 66) -0.1442 ( 67) -0.1084 ( 69)  0.1570 ( 70)
          -0.1077 ( 72)  0.1471 ( 78)  0.1541 ( 79)  0.1563 ( 81) -0.1666 ( 82)
          -0.1760 ( 83) -0.2015 ( 85)  0.1563 ( 88)  0.1275 ( 91)  0.1238 ( 95)
          -0.1819 ( 98) -0.1084 ( 99)  0.1237 (102) -0.1076 (103) -0.1819 (109)
          -0.1667 (110)  0.1544 (111)  0.1468 (112) -0.2016 (117)  0.1277 (118)
           0.1570 (119)  0.2500 (122)  0.2501 (123)
 CRD 46=  -0.3140 (  2)  0.1451 (  4)  0.1443 (  5)  0.1459 (  6) -0.1556 (  7)
           0.2727 (  8)  0.1518 (  9) -0.1334 ( 10) -0.2726 ( 15) -0.1519 ( 16)
           0.1545 ( 19)  0.1337 ( 21)  0.3140 ( 22) -0.1437 ( 23) -0.1450 ( 24)
          -0.1466 ( 25)  0.1476 ( 27)  0.1328 ( 28)  0.1472 ( 30)  0.1439 ( 31)
          -0.1474 ( 57) -0.1438 ( 58) -0.1327 ( 60) -0.1476 ( 61) -0.1565 ( 62)
          -0.1552 ( 63) -0.1557 ( 64)  0.1570 ( 65)  0.1558 ( 66)  0.1547 ( 67)
 CRD 47=  -0.1312 (  1)  0.1716 (  3) -0.1221 (  7)  0.2937 (  8) -0.4045 (  9)
           0.1318 ( 10) -0.2482 ( 11)  0.1530 ( 14)  0.2938 ( 15) -0.4044 ( 16)
           0.1531 ( 17) -0.1314 ( 18) -0.1220 ( 19)  0.1716 ( 20)  0.1318 ( 21)
           0.1414 ( 28) -0.1794 ( 29)  0.1428 ( 46)  0.1430 ( 51) -0.1795 ( 59)
           0.1415 ( 60)
 CRD 48=  -0.1295 (  1) -0.2250 (  3)  0.1871 (  7)  0.3065 ( 10)  0.2280 ( 11)
          -0.1255 ( 14) -0.1256 ( 17) -0.1294 ( 18)  0.1873 ( 19) -0.2252 ( 20)
           0.3064 ( 21)  0.1934 ( 26)  0.1237 ( 32) -0.1720 ( 36)  0.1213 ( 37)
           0.2049 ( 38) -0.1302 ( 39) -0.1302 ( 41) -0.1721 ( 42) -0.1657 ( 44)
           0.1214 ( 45) -0.1961 ( 46) -0.1657 ( 47)  0.1237 ( 48) -0.1961 ( 51)
           0.1934 ( 52)  0.2048 ( 55)
 CRD 49=   0.3560 (  1) -0.2140 (  3)  0.1736 (  5) -0.2535 (  7)  0.1708 ( 12)
          -0.1705 ( 13) -0.3563 ( 18)  0.2535 ( 19)  0.2137 ( 20) -0.1737 ( 23)
          -0.1851 ( 32)  0.1296 ( 36) -0.1341 ( 37) -0.1293 ( 42)  0.2191 ( 44)
           0.1342 ( 45) -0.2191 ( 47)  0.1849 ( 48)  0.1012 ( 62) -0.1010 ( 65)
 CRD 50=  -0.1080 (  4)  0.1133 (  6) -0.1135 ( 24)  0.1081 ( 25)  0.2636 ( 70)
          -0.1055 ( 71)  0.1446 ( 73)  0.1251 ( 75)  0.2049 ( 80) -0.1542 ( 85)
           0.2014 ( 91) -0.2953 ( 92)  0.2354 ( 93)  0.1055 ( 94)  0.1446 ( 98)
           0.2952 (101) -0.2353 (105) -0.1447 (109) -0.2049 (114)  0.1543 (117)
          -0.2015 (118) -0.2635 (119) -0.1252 (120) -0.1448 (121)  0.1750 (122)
          -0.1748 (123)
 CRD 51=   0.1525 (  7) -0.2892 (  8)  0.3505 (  9) -0.1437 ( 10)  0.2166 ( 12)
          -0.2174 ( 13) -0.1109 ( 14)  0.2903 ( 15) -0.3504 ( 16)  0.1103 ( 17)
          -0.1523 ( 19)  0.1444 ( 21) -0.1318 ( 28)  0.1288 ( 37) -0.1528 ( 38)
          -0.2316 ( 40)  0.1110 ( 43) -0.1292 ( 45)  0.2324 ( 49) -0.1097 ( 50)
           0.1526 ( 55)  0.1315 ( 60)
 CRD 52=  -0.3806 (  2)  0.1018 (  5)  0.1717 (  8) -0.1442 ( 11) -0.1427 ( 12)
          -0.1418 ( 13)  0.1703 ( 15) -0.3809 ( 22)  0.1011 ( 23)  0.1040 ( 26)
           0.1001 ( 27) -0.1119 ( 29) -0.1528 ( 35) -0.1367 ( 36) -0.1079 ( 39)
           0.1367 ( 40) -0.1084 ( 41) -0.1371 ( 42)  0.2146 ( 43)  0.1354 ( 49)
           0.2153 ( 50)  0.1035 ( 52) -0.1530 ( 54) -0.1114 ( 59)  0.1001 ( 61)
          -0.1081 ( 63) -0.1081 ( 64) -0.1004 ( 65) -0.1078 ( 66) -0.1081 ( 67)
 CRD 53=  -0.2232 (  3)  0.1838 ( 10) -0.2493 ( 12)  0.2493 ( 13) -0.2822 ( 14)
           0.2822 ( 17)  0.2232 ( 20) -0.1838 ( 21)  0.1827 ( 26)  0.1429 ( 37)
           0.2023 ( 38) -0.2400 ( 39)  0.2400 ( 41) -0.1429 ( 45) -0.2394 ( 46)
           0.2394 ( 51) -0.1827 ( 52) -0.2023 ( 55)
 CRD 54=   0.1704 (  1) -0.3371 (  2)  0.1543 (  3) -0.1610 (  8) -0.2163 (  9)
           0.1227 ( 10)  0.1608 ( 15)  0.2161 ( 16) -0.1705 ( 18) -0.1541 ( 20)
          -0.1230 ( 21)  0.3371 ( 22)  0.1381 ( 26) -0.1811 ( 28) -0.1878 ( 29)
           0.1216 ( 32)  0.1199 ( 33)  0.1133 ( 34) -0.2332 ( 35) -0.1213 ( 48)
          -0.1383 ( 52) -0.1135 ( 53)  0.2332 ( 54) -0.1197 ( 56)  0.1877 ( 59)
           0.1812 ( 60)
 CRD 55=  -0.1686 ( 69) -0.2027 ( 70) -0.1820 ( 73) -0.2289 ( 75)  0.1129 ( 76)
           0.2152 ( 80) -0.2163 ( 82)  0.1178 ( 84)  0.1257 ( 85) -0.1950 ( 91)
           0.1124 ( 92)  0.1026 ( 93)  0.2780 ( 95)  0.2201 ( 97) -0.1672 ( 99)
           0.1110 (101)  0.2772 (102)  0.1050 (105)  0.1190 (106) -0.2156 (110)
           0.1151 (113)  0.2154 (114)  0.1280 (117) -0.1940 (118) -0.2026 (119)
          -0.2284 (120) -0.1808 (121)
 CRD 56=   0.2496 (  4) -0.2555 (  6)  0.2553 ( 24) -0.2485 ( 25)  0.1041 ( 30)
          -0.1040 ( 57) -0.1805 ( 63)  0.1717 ( 64)  0.1803 ( 66) -0.1709 ( 67)
           0.1150 ( 69) -0.1041 ( 72)  0.1010 ( 73)  0.1061 ( 74)  0.1632 ( 76)
           0.1274 ( 77) -0.1275 ( 78) -0.1374 ( 79)  0.1028 ( 84)  0.1849 ( 85)
          -0.1157 ( 86) -0.1058 ( 87) -0.1027 ( 89) -0.1261 ( 90)  0.1911 ( 93)
          -0.1173 ( 99)  0.1015 (100)  0.1040 (103)  0.1258 (104) -0.1897 (105)
          -0.1012 (106) -0.1055 (107) -0.1267 (108)  0.1387 (111)  0.1278 (112)
          -0.1615 (113)  0.1171 (115)  0.1063 (116) -0.1831 (117) -0.1034 (121)
 CRD 57=   0.1115 (  4) -0.2089 (  5)  0.1010 (  6)  0.3216 ( 11) -0.2733 ( 12)
          -0.2736 ( 13)  0.1521 ( 14)  0.1521 ( 17) -0.2086 ( 23)  0.1003 ( 24)
           0.1124 ( 25)  0.1173 ( 32) -0.1755 ( 36)  0.1666 ( 37) -0.1126 ( 38)
           0.1413 ( 39)  0.1413 ( 41) -0.1756 ( 42) -0.1391 ( 44)  0.1666 ( 45)
           0.1102 ( 46) -0.1390 ( 47)  0.1178 ( 48)  0.1104 ( 51) -0.1125 ( 55)
          -0.1475 ( 62) -0.1476 ( 65) -0.1252 ( 78)  0.1217 ( 79)  0.1217 ( 86)
          -0.1252 ( 87)  0.1213 (111) -0.1255 (112)  0.1213 (115) -0.1254 (116)
 CRD 58=   0.1492 (  1) -0.1866 (  2)  0.1029 (  3) -0.3107 (  8) -0.2411 (  9)
           0.1567 ( 11)  0.1739 ( 12)  0.1738 ( 13) -0.3108 ( 15) -0.2413 ( 16)
           0.1490 ( 18)  0.1032 ( 20) -0.1867 ( 22) -0.1527 ( 28) -0.1338 ( 29)
          -0.1630 ( 35)  0.1245 ( 36) -0.1599 ( 40)  0.1245 ( 42) -0.2108 ( 43)
          -0.1599 ( 49) -0.2108 ( 50) -0.1632 ( 54) -0.1339 ( 59) -0.1529 ( 60)
 CRD 59=  -0.1590 (  1)  0.1772 (  3) -0.1447 (  4)  0.2747 (  5) -0.1308 (  6)
           0.1587 ( 18) -0.1765 ( 20) -0.2742 ( 23)  0.1301 ( 24)  0.1450 ( 25)
          -0.1784 ( 31) -0.1718 ( 33)  0.1790 ( 34) -0.1784 ( 53)  0.1714 ( 56)
           0.1780 ( 58)  0.1922 ( 62) -0.1004 ( 64) -0.1919 ( 65)  0.1006 ( 67)
           0.1825 ( 78) -0.1764 ( 79) -0.1764 ( 86)  0.1825 ( 87)  0.1760 (111)
          -0.1823 (112)  0.1760 (115) -0.1823 (116)
 CRD 60=   0.1776 (  1) -0.1973 (  3)  0.1175 (  4) -0.2263 (  5)  0.1057 (  6)
          -0.1074 (  7) -0.1749 ( 11)  0.1297 ( 12)  0.1296 ( 13)  0.1781 ( 18)
          -0.1076 ( 19) -0.1978 ( 20) -0.2271 ( 23)  0.1056 ( 24)  0.1182 ( 25)
           0.1535 ( 31) -0.1216 ( 32)  0.1523 ( 33) -0.1709 ( 34) -0.1066 ( 37)
          -0.1066 ( 45) -0.1217 ( 48) -0.1713 ( 53)  0.1528 ( 56)  0.1540 ( 58)
          -0.1561 ( 62) -0.1566 ( 65) -0.1524 ( 78)  0.1473 ( 79)  0.1473 ( 86)
          -0.1525 ( 87)  0.1477 (111) -0.1531 (112)  0.1476 (115) -0.1532 (116)
 CRD 61=   0.2017 (  4) -0.2089 (  6) -0.2091 ( 24)  0.2014 ( 25) -0.1164 ( 27)
           0.1207 ( 30)  0.1209 ( 57) -0.1163 ( 61) -0.1450 ( 63)  0.1402 ( 64)
          -0.1451 ( 66)  0.1400 ( 67)  0.1070 ( 71) -0.2007 ( 72)  0.1753 ( 74)
           0.2144 ( 76)  0.1469 ( 81) -0.1672 ( 83)  0.1156 ( 85) -0.1541 ( 86)
          -0.1450 ( 87)  0.1467 ( 88) -0.1007 ( 90)  0.1069 ( 94) -0.1648 ( 98)
          -0.2007 (103) -0.1006 (104)  0.1755 (107) -0.1649 (109)  0.2144 (113)
          -0.1546 (115) -0.1448 (116)  0.1154 (117)  0.1628 (122)  0.1632 (123)
 CRD 62=   0.2232 ( 68)  0.1059 ( 69)  0.1653 ( 71)  0.1859 ( 73) -0.1565 ( 74)
           0.1427 ( 75) -0.1177 ( 76) -0.1153 ( 77)  0.1944 ( 81)  0.1838 ( 82)
          -0.1944 ( 88) -0.1352 ( 89)  0.1435 ( 91)  0.1217 ( 92) -0.1655 ( 94)
          -0.2230 ( 96)  0.1143 ( 98) -0.1060 ( 99)  0.1352 (100) -0.1216 (101)
           0.1562 (107)  0.1149 (108) -0.1142 (109) -0.1839 (110)  0.1176 (113)
          -0.1436 (118) -0.1426 (120) -0.1860 (121) -0.3436 (122)  0.3435 (123)
 CRD 63=  -0.2427 ( 68) -0.1313 ( 71) -0.1273 ( 73)  0.1102 ( 74) -0.2916 ( 80)
          -0.1055 ( 82)  0.1698 ( 83)  0.2057 ( 89) -0.1067 ( 91) -0.1319 ( 94)
          -0.2428 ( 96) -0.2071 ( 97)  0.2624 ( 98)  0.2050 (100) -0.1002 (101)
           0.1098 (107)  0.2619 (109) -0.1055 (110) -0.2923 (114) -0.1071 (118)
          -0.1266 (121)  0.2684 (122)  0.2685 (123)
 CRD 64=   0.1479 ( 69) -0.1213 ( 70)  0.1398 ( 72)  0.1816 ( 73) -0.2221 ( 75)
          -0.2013 ( 76)  0.1702 ( 77) -0.1533 ( 80)  0.2264 ( 84)  0.1727 ( 86)
           0.1686 ( 87) -0.1731 ( 89) -0.1140 ( 90)  0.1253 ( 93) -0.1244 ( 95)
          -0.1057 ( 98) -0.1476 ( 99)  0.1739 (100)  0.1240 (102) -0.1393 (103)
           0.1146 (104) -0.1250 (105) -0.2264 (106) -0.1700 (108)  0.1069 (109)
           0.2014 (113)  0.1520 (114) -0.1730 (115) -0.1686 (116)  0.1216 (119)
           0.2220 (120) -0.1820 (121)
 CRD 65=   0.1586 ( 68) -0.1090 ( 69) -0.1504 ( 71) -0.2470 ( 73)  0.2220 ( 75)
           0.2028 ( 76) -0.2525 ( 77)  0.1178 ( 78)  0.1149 ( 79) -0.1033 ( 81)
          -0.1594 ( 86) -0.1565 ( 87) -0.1032 ( 88)  0.2457 ( 90) -0.1505 ( 94)
           0.1587 ( 96)  0.1019 ( 98) -0.1090 ( 99)  0.2458 (104) -0.2525 (108)
           0.1019 (109)  0.1146 (111)  0.1177 (112)  0.2025 (113) -0.1596 (115)
          -0.1564 (116)  0.2221 (120) -0.2468 (121) -0.1344 (122) -0.1346 (123)
 CRD 66=  -0.1872 ( 68)  0.2537 ( 71)  0.1641 ( 73) -0.1253 ( 75) -0.1181 ( 76)
           0.1782 ( 77)  0.2033 ( 80) -0.2585 ( 84)  0.2290 ( 89) -0.2096 ( 90)
          -0.2536 ( 94)  0.1873 ( 96)  0.2133 ( 98) -0.2291 (100)  0.2095 (104)
           0.2584 (106) -0.1781 (108) -0.2135 (109)  0.1179 (113) -0.2032 (114)
           0.1253 (120) -0.1639 (121)  0.1293 (122) -0.1294 (123)

 THE DETERMINANT OF THE G MATRIX IS 10**(   -31)


                     --------------------
                     INTERNAL COORDINATES
                     --------------------

                 - - ATOMS - -         COORDINATE      COORDINATE
 NO.   TYPE    I  J  K  L  M  N        (BOHR,RAD)       (ANG,DEG)
 ----------------------------------------------------------------
   1 STRETCH   1  3                     2.5941437       1.3727618
   2 STRETCH   1  2                     2.8067319       1.4852587
   3 STRETCH   1  4                     2.6840212       1.4203229
   4 STRETCH   2 13                     2.0755503       1.0983340
   5 STRETCH   2 15                     2.0748545       1.0979658
   6 STRETCH   2 14                     2.0758040       1.0984682
   7 STRETCH   3 16                     2.0727426       1.0968482
   8 STRETCH   3  5                     2.6839957       1.4203094
   9 STRETCH   4  6                     2.5829780       1.3668532
  10 STRETCH   4 17                     2.0706956       1.0957650
  11 STRETCH   5  7                     2.6624261       1.4088953
  12 STRETCH   5  8                     2.6863490       1.4215548
  13 STRETCH   6  7                     2.6867374       1.4217603
  14 STRETCH   6 18                     2.0708271       1.0958346
  15 STRETCH   7  9                     2.6839000       1.4202588
  16 STRETCH   8 10                     2.5830987       1.3669171
  17 STRETCH   8 19                     2.0710158       1.0959344
  18 STRETCH   9 11                     2.5938750       1.3726196
  19 STRETCH   9 20                     2.0725912       1.0967681
  20 STRETCH  10 11                     2.6837904       1.4202008
  21 STRETCH  10 21                     2.0706851       1.0957594
  22 STRETCH  11 12                     2.8070133       1.4854076
  23 STRETCH  12 24                     2.0749579       1.0980205
  24 STRETCH  12 23                     2.0755100       1.0983127
  25 STRETCH  12 22                     2.0755100       1.0983127
  26 BEND      1  4  6                  2.1066495     120.7021233
  27 BEND      1  2 13                  1.9342343     110.8234622
  28 BEND      1  3 16                  2.1079952     120.7792306
  29 BEND      1  4 17                  2.0712068     118.6714056
  30 BEND      1  2 14                  1.9323301     110.7143598
  31 BEND      1  2 15                  1.9611722     112.3668874
  32 BEND      1  3  5                  2.1013065     120.3959933
  33 BEND      2  1  4                  2.0707108     118.6429898
  34 BEND      2  1  3                  2.1202937     121.4838786
  35 BEND      3  1  4                  2.0921803     119.8731039
  36 BEND      3  5  7                  2.0864214     119.5431433
  37 BEND      3  5  8                  2.1174765     121.3224688
  38 BEND      4  6 18                  2.1080492     120.7823222
  39 BEND      4  6  7                  2.1000690     120.3250917
  40 BEND      5  8 19                  2.0746075     118.8662515
  41 BEND      5  8 10                  2.1009979     120.3783108
  42 BEND      5  7  9                  2.0863684     119.5401047
  43 BEND      5  7  6                  2.0797438     119.1605407
  44 BEND      5  3 16                  2.0738836     118.8247760
  45 BEND      6  7  9                  2.1170731     121.2993546
  46 BEND      6  4 17                  2.1053291     120.6264710
  47 BEND      7  9 20                  2.0736411     118.8108836
  48 BEND      7  9 11                  2.1013947     120.4010472
  49 BEND      7  6 18                  2.0750671     118.8925854
  50 BEND      7  5  8                  2.0792873     119.1343856
  51 BEND      8 10 21                  2.1062571     120.6796411
  52 BEND      8 10 11                  2.1057371     120.6498467
  53 BEND      9 11 12                  2.1191564     121.4187170
  54 BEND      9 11 10                  2.0925849     119.8962831
  55 BEND     10  8 19                  2.1075800     120.7554368
  56 BEND     10 11 12                  2.0714438     118.6849872
  57 BEND     11 12 23                  1.9323818     110.7173198
  58 BEND     11 12 24                  1.9610095     112.3575691
  59 BEND     11 10 21                  2.0711912     118.6705122
  60 BEND     11  9 20                  2.1081495     120.7880678
  61 BEND     11 12 22                  1.9344885     110.8380269
  62 BEND     13  2 14                  1.8762541     107.5014429
  63 BEND     13  2 15                  1.8784129     107.6251315
  64 BEND     14  2 15                  1.8780973     107.6070484
  65 BEND     22 12 23                  1.8762557     107.5015335
  66 BEND     22 12 24                  1.8783234     107.6200041
  67 BEND     23 12 24                  1.8780363     107.6035563
  68 TORSION   1  4  6  7              -0.0002880      -0.0165003
  69 TORSION   1  3  5  8               3.1411826     179.9765059
  70 TORSION   1  4  6 18               3.1411327     179.9736477
  71 TORSION   1  3  5  7              -0.0000994      -0.0056927
  72 TORSION   2  1  3  5               3.1403279     179.9275360
  73 TORSION   2  1  3 16              -0.0012901      -0.0739145
  74 TORSION   2  1  4  6              -3.1401597    -179.9178980
  75 TORSION   2  1  4 17               0.0014913       0.0854474
  76 TORSION   3  1  2 15               0.0292602       1.6764865
  77 TORSION   3  1  4  6               0.0003936       0.0225505
  78 TORSION   3  1  2 14              -2.0712782    -118.6755001
  79 TORSION   3  1  2 13               2.1315342     122.1279127
  80 TORSION   3  5  8 19               0.0001526       0.0087415
  81 TORSION   3  5  8 10               3.1415495     179.9975274
  82 TORSION   3  1  4 17              -3.1411407    -179.9741041
  83 TORSION   3  5  7  9              -3.1414273    -179.9905242
  84 TORSION   3  5  7  6               0.0002034       0.0116511
  85 TORSION   4  1  2 15              -3.1133893    -178.3840666
  86 TORSION   4  1  2 13              -1.0111153     -57.9326405
  87 TORSION   4  1  2 14               1.0692576      61.2639468
  88 TORSION   4  6  7  9              -3.1415637    -179.9983417
  89 TORSION   4  6  7  5              -0.0000097      -0.0005566
  90 TORSION   4  1  3  5              -0.0001951      -0.0111781
  91 TORSION   4  1  3 16               3.1413722     179.9873714
  92 TORSION   5  7  6 18              -3.1414336    -179.9908892
  93 TORSION   5  7  9 20               3.1414556     179.9921479
  94 TORSION   5  7  9 11               0.0000969       0.0055492
  95 TORSION   5  8 10 21               3.1412681     179.9814021
  96 TORSION   5  8 10 11              -0.0003258      -0.0186652
  97 TORSION   6  7  5  8              -3.1410854    -179.9709393
  98 TORSION   6  7  9 20              -0.0001758      -0.0100753
  99 TORSION   6  7  9 11              -3.1415346    -179.9966740
 100 TORSION   7  5  8 10              -0.0003526      -0.0202028
 101 TORSION   7  5  8 19               3.1414358     179.9910113
 102 TORSION   7  6  4 17               3.1412451     179.9800887
 103 TORSION   7  9 11 12               3.1400923     179.9140342
 104 TORSION   7  9 11 10              -0.0007746      -0.0443820
 105 TORSION   7  5  3 16               3.1415181     179.9957298
 106 TORSION   8  5  7  9               0.0004692       0.0268854
 107 TORSION   8 10 11 12              -3.1399880    -179.9080629
 108 TORSION   8 10 11  9               0.0008986       0.0514858
 109 TORSION   8  5  3 16              -0.0003852      -0.0220716
 110 TORSION   9 11 10 21              -3.1406952    -179.9485802
 111 TORSION   9 11 12 22               2.1333616     122.2326176
 112 TORSION   9 11 12 23              -2.0692512    -118.5593584
 113 TORSION   9 11 12 24               0.0311351       1.7839077
 114 TORSION   9  7  6 18               0.0001977       0.0113257
 115 TORSION  10 11 12 22              -1.0089482     -57.8084760
 116 TORSION  10 11 12 23               1.0716243      61.3995481
 117 TORSION  10 11 12 24              -3.1111748    -178.2571858
 118 TORSION  10 11  9 20               3.1410566     179.9692869
 119 TORSION  11 10  8 19               3.1410674     179.9699067
 120 TORSION  12 11 10 21               0.0016035       0.0918711
 121 TORSION  12 11  9 20              -0.0012618      -0.0722970
 122 TORSION  17  4  6 18              -0.0005195      -0.0297633
 123 TORSION  19  8 10 21              -0.0005241      -0.0300259

     ------------------------------------------
     THE POINT GROUP IS C1 , NAXIS= 1, ORDER= 1
     ------------------------------------------

     DIMENSIONS OF THE SYMMETRY SUBSPACES ARE
 A   =  300

 ..... DONE SETTING UP THE RUN .....
 STEP CPU TIME =     0.02 TOTAL CPU TIME =        0.0 (    0.0 MIN)
 TOTAL WALL CLOCK TIME=        0.0 SECONDS, CPU UTILIZATION IS  66.67%


          -----------------------------
          STATIONARY POINT LOCATION RUN
          -----------------------------

 OBTAINING INITIAL HESSIAN, HESS=GUESS   
 DIAGONAL GUESS HESSIAN IN INTERNAL COORDS IS
     1  0.4984     2  0.4005     3  0.4544     4  0.3408     5  0.3410
     6  0.3407     7  0.3418     8  0.4544     9  0.5042    10  0.3425
    11  0.4646    12  0.4533    13  0.4532    14  0.3425    15  0.4545
    16  0.5041    17  0.3424    18  0.4986    19  0.3418    20  0.4545
    21  0.3425    22  0.4004    23  0.3410    24  0.3408    25  0.3408
    26  0.2688    27  0.2263    28  0.2333    29  0.2304    30  0.2263
    31  0.2263    32  0.2684    33  0.2597    34  0.2633    35  0.2684
    36  0.2655    37  0.2646    38  0.2338    39  0.2687    40  0.2303
    41  0.2687    42  0.2655    43  0.2654    44  0.2303    45  0.2645
    46  0.2338    47  0.2303    48  0.2684    49  0.2303    50  0.2654
    51  0.2338    52  0.2688    53  0.2633    54  0.2684    55  0.2337
    56  0.2597    57  0.2263    58  0.2263    59  0.2304    60  0.2333
    61  0.2263    62  0.2026    63  0.2026    64  0.2026    65  0.2026
    66  0.2026    67  0.2026    68  0.2500    69  0.2500    70  0.2500
    71  0.2500    72  0.2500    73  0.2500    74  0.2500    75  0.2500
    76  0.2500    77  0.2500    78  0.2500    79  0.2500    80  0.2500
    81  0.2500    82  0.2500    83  0.2500    84  0.2500    85  0.2500
    86  0.2500    87  0.2500    88  0.2500    89  0.2500    90  0.2500
    91  0.2500    92  0.2500    93  0.2500    94  0.2500    95  0.2500
    96  0.2500    97  0.2500    98  0.2500    99  0.2500   100  0.2500
   101  0.2500   102  0.2500   103  0.2500   104  0.2500   105  0.2500
   106  0.2500   107  0.2500   108  0.2500   109  0.2500   110  0.2500
   111  0.2500   112  0.2500   113  0.2500   114  0.2500   115  0.2500
   116  0.2500   117  0.2500   118  0.2500   119  0.2500   120  0.2500
   121  0.2500   122  0.2500   123  0.2500
 TRANSFORMING HESSIAN TO SYMMETRY COORDINATES

          PARAMETERS CONTROLLING GEOMETRY SEARCH ARE
          METHOD =QA                  UPHESS =BFGS    
          NNEG   =         0          NFRZ   =         3
          NSTEP  =        50          IFOLOW =         1
          HESS   =GUESS               RESTAR =         F
          IHREP  =         0          HSSEND =         F
          NPRT   =         0          NPUN   =         0
          OPTTOL = 5.000E-04          RMIN   = 1.500E-03
          RMAX   = 1.000E-01          RLIM   = 7.000E-02
          DXMAX  = 3.000E-01          PURIFY =         F
          MOVIE  =         F          TRUPD  =         T
          TRMAX  = 5.000E-01          TRMIN  = 5.000E-02
          ITBMAT =         5          STPT   =         F
          STSTEP = 1.000E-02          PROJCT=          F
          FROZEN COORD(S)=   1   2   3


      ***** EQUILIBRIUM GEOMETRY LOCATED *****
            (SUBJECT TO   3 CONSTRAINT(S))
 COORDINATES OF ALL ATOMS ARE (ANGS)
   ATOM   CHARGE       X              Y              Z
 ------------------------------------------------------------
 C           6.0   1.8964482563   1.8370577223   0.9088159052
 C           6.0   0.6013979541   1.0630158225   0.9206106062
 C           6.0   3.1060955582   1.2155691729   0.9576341058
 C           6.0   1.8642836231   3.2601943076   0.8432043057
 C           6.0   4.3219965986   1.9525114856   0.9440147973
 C           6.0   3.0079333363   3.9910173490   0.8285422047
 C           6.0   4.2782696674   3.3544267843   0.8787624927
 C           6.0   5.5925379752   1.3162584208   0.9949177177
 C           6.0   5.4939197668   4.0915460392   0.8650231723
 C           6.0   6.7361253906   2.0473506378   0.9803224713
 C           6.0   6.7037351705   3.4704380614   0.9135257450
 C           6.0   7.9981401830   4.2454560696   0.8968922615
 H           1.0  -0.0229964776   1.3641932974   1.7572321843
 H           1.0   0.0347815347   1.2419621980   0.0107316250
 H           1.0   0.7848324902  -0.0020729961   1.0007437807
 H           1.0   3.1587746520   0.1411627708   1.0079381466
 H           1.0   0.9112300947   3.7599928137   0.8047234205
 H           1.0   2.9649884465   5.0654631127   0.7784221834
 H           1.0   5.6358613284   0.2418300613   1.0453751986
 H           1.0   5.4408985210   5.1659153979   0.8146496819
 H           1.0   7.6892608270   1.5477645130   1.0197800271
 H           1.0   8.5952844053   4.0227665576   1.7768370576
 H           1.0   8.5936288275   3.9867926180   0.0254397950
 H           1.0   7.8123520505   5.3129310814   0.8746436040


                     --------------------
                     INTERNAL COORDINATES
                     --------------------

                 - - ATOMS - -         COORDINATE      COORDINATE
 NO.   TYPE    I  J  K  L  M  N        (BOHR,RAD)       (ANG,DEG)
 ----------------------------------------------------------------
   1 STRETCH   1  3                     2.5716094       1.3608372
   2 STRETCH   1  2                     2.8511922       1.5087860
   3 STRETCH   1  4                     2.6928809       1.4250113
   4 STRETCH   2 13                     2.0532131       1.0865137
   5 STRETCH   2 15                     2.0479641       1.0837360
   6 STRETCH   2 14                     2.0535990       1.0867179
   7 STRETCH   3 16                     2.0349942       1.0768726
   8 STRETCH   3  5                     2.6869251       1.4218596
   9 STRETCH   4  6                     2.5649172       1.3572958
  10 STRETCH   4 17                     2.0349378       1.0768428
  11 STRETCH   5  7                     2.6533909       1.4041141
  12 STRETCH   5  8                     2.6869249       1.4218595
  13 STRETCH   6  7                     2.6868182       1.4218031
  14 STRETCH   6 18                     2.0342354       1.0764711
  15 STRETCH   7  9                     2.6866951       1.4217379
  16 STRETCH   8 10                     2.5650906       1.3573876
  17 STRETCH   8 19                     2.0342610       1.0764846
  18 STRETCH   9 11                     2.5715421       1.3608016
  19 STRETCH   9 20                     2.0349623       1.0768557
  20 STRETCH  10 11                     2.6929018       1.4250224
  21 STRETCH  10 21                     2.0349553       1.0768521
  22 STRETCH  11 12                     2.8511788       1.5087790
  23 STRETCH  12 24                     2.0479915       1.0837505
  24 STRETCH  12 23                     2.0535879       1.0867120
  25 STRETCH  12 22                     2.0531807       1.0864965
  26 BEND      1  4  6                  2.1167237     121.2793353
  27 BEND      1  2 13                  1.9359354     110.9209293
  28 BEND      1  3 16                  2.0953299     120.0535572
  29 BEND      1  4 17                  2.0773250     119.0219552
  30 BEND      1  2 14                  1.9353329     110.8864065
  31 BEND      1  2 15                  1.9385178     111.0688865
  32 BEND      1  3  5                  2.1212739     121.5400409
  33 BEND      2  1  4                  2.0867148     119.5599518
  34 BEND      2  1  3                  2.1275128     121.8975065
  35 BEND      3  1  4                  2.0689569     118.5424958
  36 BEND      3  5  7                  2.0843748     119.4258761
  37 BEND      3  5  8                  2.1316060     122.1320280
  38 BEND      4  6 18                  2.0993858     120.2859466
  39 BEND      4  6  7                  2.1075762     120.7552241
  40 BEND      5  8 19                  2.0763193     118.9643315
  41 BEND      5  8 10                  2.1076476     120.7593096
  42 BEND      5  7  9                  2.0845765     119.4374370
  43 BEND      5  7  6                  2.0674651     118.4570224
  44 BEND      5  3 16                  2.0665816     118.4064019
  45 BEND      6  7  9                  2.1311437     122.1055401
  46 BEND      6  4 17                  2.0891366     119.6987095
  47 BEND      7  9 20                  2.0664634     118.3996315
  48 BEND      7  9 11                  2.1213848     121.5463983
  49 BEND      7  6 18                  2.0762232     118.9588291
  50 BEND      7  5  8                  2.0672045     118.4420931
  51 BEND      8 10 21                  2.0891273     119.6981750
  52 BEND      8 10 11                  2.1167409     121.2803190
  53 BEND      9 11 12                  2.1268979     121.8622711
  54 BEND      9 11 10                  2.0688160     118.5344238
  55 BEND     10  8 19                  2.0992185     120.2763588
  56 BEND     10 11 12                  2.0874709     119.6032720
  57 BEND     11 12 23                  1.9355175     110.8969856
  58 BEND     11 12 24                  1.9381119     111.0456322
  59 BEND     11 10 21                  2.0773172     119.0215060
  60 BEND     11  9 20                  2.0953370     120.0539693
  61 BEND     11 12 22                  1.9361755     110.9346854
  62 BEND     13  2 14                  1.8748831     107.4228881
  63 BEND     13  2 15                  1.8888956     108.2257475
  64 BEND     14  2 15                  1.8880894     108.1795515
  65 BEND     22 12 23                  1.8749769     107.4282633
  66 BEND     22 12 24                  1.8888609     108.2237578
  67 BEND     23 12 24                  1.8880157     108.1753341
  68 TORSION   1  4  6  7              -0.0002196      -0.0125813
  69 TORSION   1  3  5  8               3.1412709     179.9815667
  70 TORSION   1  4  6 18               3.1412937     179.9828739
  71 TORSION   1  3  5  7               0.0000180       0.0010322
  72 TORSION   2  1  3  5               3.1398690     179.9012392
  73 TORSION   2  1  3 16              -0.0016794      -0.0962198
  74 TORSION   2  1  4  6              -3.1397963    -179.8970756
  75 TORSION   2  1  4 17               0.0018072       0.1035440
  76 TORSION   3  1  2 15               0.0291650       1.6710315
  77 TORSION   3  1  4  6               0.0004618       0.0264602
  78 TORSION   3  1  2 14              -2.0708610    -118.6515957
  79 TORSION   3  1  2 13               2.1306132     122.0751415
  80 TORSION   3  5  8 19               0.0000384       0.0022019
  81 TORSION   3  5  8 10               3.1415696     179.9986786
  82 TORSION   3  1  4 17              -3.1411200    -179.9729202
  83 TORSION   3  5  7  9              -3.1415058    -179.9950232
  84 TORSION   3  5  7  6               0.0002279       0.0130562
  85 TORSION   4  1  2 15              -3.1138085    -178.4080868
  86 TORSION   4  1  2 13              -1.0123604     -58.0039768
  87 TORSION   4  1  2 14               1.0693508      61.2692860
  88 TORSION   4  6  7  9              -3.1415742    -179.9989421
  89 TORSION   4  6  7  5              -0.0001265      -0.0072488
  90 TORSION   4  1  3  5              -0.0003564      -0.0204192
  91 TORSION   4  1  3 16               3.1412806     179.9821219
  92 TORSION   5  7  6 18               3.1415444     179.9972365
  93 TORSION   5  7  9 20               3.1415475     179.9974121
  94 TORSION   5  7  9 11               0.0001520       0.0087102
  95 TORSION   5  8 10 21               3.1413377     179.9853947
  96 TORSION   5  8 10 11              -0.0002542      -0.0145673
  97 TORSION   6  7  5  8              -3.1410376    -179.9681972
  98 TORSION   6  7  9 20              -0.0001915      -0.0109735
  99 TORSION   6  7  9 11              -3.1415870    -179.9996754
 100 TORSION   7  5  8 10              -0.0003596      -0.0206030
 101 TORSION   7  5  8 19               3.1412946     179.9829203
 102 TORSION   7  6  4 17               3.1413622     179.9867950
 103 TORSION   7  9 11 12               3.1396780     179.8903002
 104 TORSION   7  9 11 10              -0.0007549      -0.0432515
 105 TORSION   7  5  3 16               3.1415670     179.9985317
 106 TORSION   8  5  7  9               0.0004141       0.0237234
 107 TORSION   8 10 11 12              -3.1396459    -179.8884600
 108 TORSION   8 10 11  9               0.0008139       0.0466315
 109 TORSION   8  5  3 16              -0.0003654      -0.0209338
 110 TORSION   9 11 10 21              -3.1407781    -179.9533307
 111 TORSION   9 11 12 22               2.1323776     122.1762374
 112 TORSION   9 11 12 23              -2.0687019    -118.5278881
 113 TORSION   9 11 12 24               0.0310839       1.7809775
 114 TORSION   9  7  6 18               0.0000967       0.0055432
 115 TORSION  10 11 12 22              -1.0103869     -57.8909036
 116 TORSION  10 11 12 23               1.0717189      61.4049709
 117 TORSION  10 11 12 24              -3.1116806    -178.2861635
 118 TORSION  10 11  9 20               3.1410382     179.9682306
 119 TORSION  11 10  8 19               3.1412761     179.9818632
 120 TORSION  12 11 10 21               0.0019474       0.1115778
 121 TORSION  12 11  9 20              -0.0017142      -0.0982177
 122 TORSION  17  4  6 18              -0.0003098      -0.0177498
 123 TORSION  19  8 10 21              -0.0003172      -0.0181749

          INTERNUCLEAR DISTANCES (ANGS.)


 =====================================================
   GAMESS/COSab RESULTS
 =====================================================

   Dielectric Constant                  = INFTY
   Basic Grid Size                      =                 1082
   Number of Segments                   =                   92
   Number of Segments located on spheres=                  352
   Number of Segments of the cavity     =                  902
   Solvent Radius (rsolv)               = 1.40
   Outlying Charge Error Method         = double cavity

 =====================================================

  Total solvated Energy (a.u.)          =  -461.5308001090
  Total Energy corrected (a.u.)         =  -461.5308662959

  Outlying charge effect (a.u.)         =    -0.0000661869
  Outlying charge effect (kcal/mol)     =    -0.0415329128

  Dielectric Energy (a.u.)              =    -0.0099038039
  Dielectric energy corr. (a.u.)        =    -0.0099699908

  Sum of polarization charges           =     0.0292329217
  Sum of polarization charges(cor.)     =    -0.0292329217

  Total surface area of cavity (A**2)   =  204.70
  Total volume of cavity (A**3)         =  207.66

 =====================================================
 NPS=                   902
NR.  ATOM  (X, Y, Z)(a.u.)                  CHARGE(e)  AREA(A**2) SIGMA(e/A**2)
   1   1   2.815328   3.845387  -1.964169   0.000375   0.092912   0.004040
   2   1   3.583629   2.477049  -1.928863   0.001171   0.232280   0.005041
   3   1   3.182769   3.215225  -2.031964   0.000722   0.185824   0.003887
   4   1   3.661939   3.774864  -2.049045   0.000534   0.139368   0.003831
   5   1   4.130963   3.989273   5.421021   0.002607   0.371649   0.007015
   6   1   3.502733   2.690880   5.414467   0.001330   0.232280   0.005728
   7   1   3.005626   3.836731   5.434477   0.001295   0.371649   0.003484
   8   1   4.278805   3.429425  -1.997353   0.001452   0.232280   0.006251
   9   2  -0.527832  -0.589495  -0.442777   0.001527   0.418105   0.003651
  10   2   2.047408   0.862729   5.224089   0.000513   0.278737   0.001841
  11   2  -2.596160   2.178358   1.171440   0.001073   0.418105   0.002567
  12   2  -1.017124  -0.710239   3.240725   0.000818   0.371649   0.002201
  13   2   2.128264   1.291804  -1.836130   0.000409   0.185824   0.002203
  14   2   2.148839   0.213855  -1.428514   0.000647   0.371649   0.001740
  15   2   1.144695  -0.376851  -1.191662   0.001368   0.371649   0.003681
  16   2  -1.184326   0.062353   4.000111   0.000858   0.371649   0.002308
  17   2  -2.565149   2.667009   2.125658   0.000674   0.278737   0.002416
  18   2  -1.438238   4.702351   2.372049   0.000010   0.046456   0.000223
  19   2   1.189560   1.142851   5.418226   0.000636   0.278737   0.002283
  20   2   0.282700  -0.149333  -1.243218   0.000659   0.232280   0.002837
  21   2   0.524209  -0.932860  -0.552905   0.000820   0.278737   0.002943
  22   2   2.184590   1.626990   5.350783   0.000194   0.139368   0.001394
  23   2  -1.752207   4.388841   1.215148   0.000709   0.232280   0.003054
  24   2  -2.289032   3.545332   1.304722   0.001546   0.418105   0.003696
  25   2  -2.552842   1.239837   2.025817   0.000725   0.464561   0.001560
  26   2  -1.901921  -0.029160   2.687911   0.000580   0.464561   0.001248
  27   2  -0.134607  -0.433870   4.328512   0.001332   0.371649   0.003584
  28   2   1.122073   0.258795   5.089553   0.000692   0.232280   0.002980
  29   2   2.172935  -0.034574   4.745466   0.000506   0.278737   0.001817
  30   2  -2.327196   0.817375   0.808182   0.000432   0.371649   0.001162
  31   2  -1.604545  -0.074245   0.180220   0.000715   0.418105   0.001711
  32   2  -1.001869  -0.924185   0.686451   0.000821   0.464561   0.001768
  33   2  -1.240058  -0.911236   2.070947   0.000289   0.325193   0.000890
  34   2   1.559589   0.827476  -1.825371   0.000416   0.232280   0.001791
  35   2   2.245524  -0.527483  -0.833540   0.000445   0.232280   0.001916
  36   2  -2.228961   0.844400   3.005495   0.000256   0.278737   0.000917
  37   2  -1.928998   4.197757   2.048841   0.000384   0.139368   0.002752
  38   2   1.608699   2.029373   5.489476   0.000148   0.139368   0.001059
  39   2   0.188197   0.325002   4.987750   0.000877   0.278737   0.003146
  40   2  -2.004058  -0.075300   1.460741   0.000343   0.418105   0.000819
  41   2   1.090681  -0.394240   4.656470   0.000676   0.232280   0.002912
  42   3   5.775887   3.503353   5.390226   0.001089   0.139368   0.007815
  43   3   7.005642   1.041165   5.188498   0.000555   0.139368   0.003984
  44   3   6.194227   0.498150  -1.498312   0.001353   0.325193   0.004162
  45   3   6.282604  -0.278934  -0.924898   0.000807   0.278737   0.002895
  46   3   4.913607  -0.230491   4.451938   0.000239   0.139368   0.001713
  47   3   6.980781   0.040885   4.630883   0.000358   0.232280   0.001543
  48   3   6.367385   0.567546   5.133107   0.001029   0.278737   0.003692
  49   3   4.982922   0.552964   5.043243   0.001381   0.325193   0.004246
  50   3   5.088174   0.306327  -1.306483   0.001743   0.371649   0.004690
  51   3   7.139634   0.278564  -1.122395   0.000617   0.232280   0.002658
  52   3   6.577204   1.734091   5.479368   0.001842   0.325193   0.005664
  53   3   6.147658   2.773889   5.548605   0.001384   0.232280   0.005960
  54   3   5.338136   2.538973   5.543734   0.001739   0.185824   0.009358
  55   3   4.992876   1.458591   5.389116   0.001482   0.232280   0.006378
  56   3   5.373672   1.446892  -1.839360   0.003483   0.511017   0.006816
  57   3   6.805571   1.381570  -1.735773   0.002261   0.418105   0.005407
  58   3   5.202424  -0.482365  -0.662921   0.000539   0.232280   0.002319
  59   3   5.777453  -0.009077   4.802558   0.000915   0.278737   0.003283
  60   3   7.139426  -0.448699  -0.455861  -0.000003   0.092912  -0.000036
  61   3   6.016167   2.639862  -1.951353   0.003201   0.418105   0.007657
  62   3   5.716888   1.553681   5.512139   0.001570   0.278737   0.005631
  63   4   4.270424   5.781644   5.278779   0.001025   0.185824   0.005517
  64   4   2.337148   8.627306   4.200117   0.001375   0.278737   0.004932
  65   4   2.267392   6.807468  -1.912230   0.001354   0.325193   0.004165
  66   4   1.165709   6.790739  -1.292881   0.000550   0.278737   0.001974
  67   4   2.184939   9.228046  -0.163374   0.000116   0.092912   0.001247
  68   4   1.994050   9.090044   3.428269   0.000392   0.278737   0.001406
  69   4   1.394226   6.827686   4.644344   0.001238   0.418105   0.002961
  70   4   2.168923   7.866298   4.682502   0.001018   0.232280   0.004381
  71   4   2.135448   8.682702  -0.855935   0.000572   0.278737   0.002054
  72   4   2.544410   7.911091  -1.610221   0.001819   0.371649   0.004894
  73   4   1.653013   6.092402  -1.690284   0.000681   0.232280   0.002933
  74   4   2.286908   6.014623   5.162049   0.001347   0.325193   0.004143
  75   4   3.351992   6.003496   5.365736   0.001623   0.232280   0.006989
  76   4   3.648079   6.681354   5.334786   0.002122   0.232280   0.009134
  77   4   3.079770   7.745986   4.995677   0.001415   0.278737   0.005075
  78   4   3.339677   6.823772  -2.122911   0.003395   0.464561   0.007307
  79   4   2.643350   5.662915  -2.048343   0.001470   0.325193   0.004521
  80   4   1.610223   7.754041  -1.250411   0.000833   0.278737   0.002989
  81   4   1.413071   7.731488   4.307424   0.000755   0.278737   0.002710
  82   4   3.985338   5.656480  -2.123561   0.003040   0.418105   0.007271
  83   4   2.615804   7.004319   5.164135   0.001406   0.278737   0.005042
  84   5   8.278269   2.484036  -1.796332   0.000696   0.139368   0.004992
  85   5   8.914155   3.913201  -1.914265   0.001312   0.185824   0.007061
  86   5   8.529357   3.153178  -1.939690   0.000759   0.185824   0.004086
  87   5   7.807377   3.299804  -1.958075   0.000957   0.139368   0.006863
  88   5   7.505231   4.223903   5.466384   0.002037   0.371649   0.005480
  89   5   8.872385   4.334924   5.440562   0.001340   0.185824   0.007209
  90   5   8.209501   3.262338   5.538905   0.001991   0.418105   0.004762
  91   5   7.811097   4.008648  -1.965149   0.001070   0.232280   0.004608
  92   6   5.803663   6.336893  -2.014496   0.000981   0.139368   0.007038
  93   6   6.800009   8.899666  -1.780296   0.000452   0.139368   0.003241
  94   6   4.102483   9.450702  -1.287201   0.001286   0.278737   0.004615
  95   6   5.657394   9.338735   4.890620   0.001268   0.371649   0.003412
  96   6   5.690525  10.187266   4.265046   0.000711   0.325193   0.002185
  97   6   3.404918  10.193359   3.000686   0.000035   0.092912   0.000377
  98   6   3.793594  10.018691  -0.573360   0.000319   0.278737   0.001145
  99   6   6.668858   9.892886  -1.224934   0.000208   0.232280   0.000895
 100   6   6.120306   9.313730  -1.744093   0.000834   0.278737   0.002991
 101   6   4.885319   9.240069  -1.714903   0.000938   0.232280   0.004040
 102   6   3.736029  10.039559   3.627462   0.000303   0.185824   0.001632
 103   6   4.439652   9.478006   4.563545   0.001914   0.418105   0.004577
 104   6   6.681208   9.662834   4.530833   0.000490   0.232280   0.002111
 105   6   6.444432   8.171319  -2.082599   0.001517   0.325193   0.004666
 106   6   6.112590   7.097118  -2.162946   0.001266   0.232280   0.005448
 107   6   5.351018   7.350384  -2.194155   0.002032   0.232280   0.008749
 108   6   4.618245   8.342638  -1.970803   0.001381   0.278737   0.004956
 109   6   5.007698   8.339075   5.197676   0.003428   0.511017   0.006709
 110   6   6.430278   8.533383   5.135669   0.001823   0.418105   0.004360
 111   6   4.484409  10.145911   4.028248   0.000498   0.232280   0.002144
 112   6   5.379267   9.860887  -1.403085   0.000781   0.325193   0.002400
 113   6   6.634796  10.388003   3.863634  -0.000119   0.092912  -0.001284
 114   6   5.751619   7.208751   5.329841   0.002841   0.418105   0.006795
 115   6   5.494809   8.432026  -2.102551   0.001304   0.278737   0.004678
 116   7   8.010476   7.545790   5.241434   0.000722   0.139368   0.005182
 117   7   8.732266   6.159926   5.379884   0.001274   0.185824   0.006854
 118   7   8.299239   6.893866   5.392951   0.000747   0.185824   0.004020
 119   7   7.587842   6.701526   5.389673   0.000912   0.139368   0.006541
 120   7   7.569447   5.767204  -2.039630   0.002066   0.371649   0.005559
 121   7   8.939493   5.743480  -1.972442   0.001329   0.185824   0.007152
 122   7   8.212896   6.771752  -2.091783   0.002059   0.418105   0.004923
 123   7   7.636497   5.994352   5.397538   0.001371   0.232280   0.005902
 124   8  10.569588   3.357571  -1.797775   0.000561   0.139368   0.004027
 125   8   9.562981   0.825345  -1.361962   0.000332   0.139368   0.002384
 126   8  12.241939   0.327140  -0.730768   0.001287   0.278737   0.004617
 127   8  10.482282   1.004238   5.355356   0.001276   0.371649   0.003433
 128   8  10.469005   0.101674   4.809784   0.000717   0.325193   0.002204
 129   8  12.795442  -0.016423   3.628097   0.000036   0.092912   0.000389
 130   8  12.526215  -0.172156   0.042202   0.000320   0.278737   0.001147
 131   8   9.674396  -0.112299  -0.713483   0.000251   0.232280   0.001080
 132   8  10.240614   0.417658  -1.265207   0.000849   0.278737   0.003045
 133   8  11.474029   0.496033  -1.201849   0.000937   0.232280   0.004036
 134   8  12.443822   0.193781   4.226692   0.000303   0.185824   0.001630
 135   8  11.710076   0.837765   5.083184   0.001910   0.418105   0.004569
 136   8   9.470637   0.646463   4.993065   0.000429   0.232280   0.001847
 137   8   9.929284   1.523452  -1.718023   0.001300   0.325193   0.003999
 138   8  10.264882   2.586326  -1.885817   0.001660   0.232280   0.007145
 139   8  11.026772   2.332707  -1.868227   0.002048   0.232280   0.008818
 140   8  11.750533   1.366610  -1.530237   0.001381   0.278737   0.004954
 141   8  11.122566   2.029143   5.590541   0.003476   0.511017   0.006803
 142   8   9.702613   1.827258   5.499387   0.001631   0.418105   0.003900
 143   8  11.682385   0.123346   4.610444   0.000498   0.232280   0.002143
 144   8  10.969242  -0.094388  -0.850820   0.000778   0.325193   0.002393
 145   8   9.538390  -0.136942   4.397360  -0.000104   0.092912  -0.001114
 146   8  10.375987   3.165423   5.593283   0.002890   0.418105   0.006911
 147   8  10.878738   1.263814  -1.682289   0.001335   0.278737   0.004790
 148   9  10.355720   6.859748   5.312006   0.001168   0.139368   0.008382
 149   9   9.136292   9.290737   4.844411   0.000429   0.139368   0.003076
 150   9  10.169314   9.218843  -1.833492   0.001360   0.325193   0.004181
 151   9  10.062938  10.045140  -1.337115   0.000809   0.278737   0.002901
 152   9  11.253101  10.493221   4.063774   0.000240   0.139368   0.001722
 153   9   9.180809  10.235623   4.198407   0.000418   0.232280   0.001799
 154   9   9.776604   9.758440   4.766897   0.001045   0.278737   0.003749
 155   9  11.163300   9.767255   4.721922   0.001354   0.325193   0.004164
 156   9  11.268641   9.429507  -1.623609   0.001744   0.371649   0.004692
 157   9   9.212245   9.470285  -1.510813   0.000585   0.232280   0.002520
 158   9   9.554028   8.628241   5.211710   0.001587   0.325193   0.004879
 159   9   9.979790   7.599989   5.390330   0.001845   0.232280   0.007941
 160   9  10.789312   7.834953   5.390684   0.000896   0.185824   0.004823
 161   9  11.140806   8.897202   5.148994   0.001795   0.232280   0.007729
 162   9  10.999565   8.244300  -2.058625   0.003535   0.511017   0.006917
 163   9   9.565101   8.316225  -2.008900   0.001988   0.418105   0.004755
 164   9  11.134097  10.273758  -1.059341   0.000517   0.232280   0.002228
 165   9  10.377853  10.303354   4.404480   0.000912   0.278737   0.003271
 166   9   9.191263  10.255687  -0.914255   0.000004   0.092912   0.000041
 167   9  10.359691   7.044906  -2.081764   0.003277   0.418105   0.007838
 168   9  10.413004   8.812481   5.256212   0.001640   0.278737   0.005885
 169  10  11.860141   4.584566   5.460362   0.001357   0.185824   0.007301
 170  10  13.824417   1.655003   4.713268   0.001375   0.278737   0.004934
 171  10  14.100244   2.904482  -1.534946   0.001349   0.325193   0.004149
 172  10  15.180703   2.980053  -0.883428   0.000551   0.278737   0.001978
 173  10  14.121100   0.655342   0.431123   0.000116   0.092912   0.001250
 174  10  14.192411   1.123759   3.999160   0.000393   0.278737   0.001408
 175  10  14.754457   3.489494   5.021064   0.001232   0.418105   0.002946
 176  10  13.977510   2.457479   5.128869   0.001017   0.232280   0.004380
 177  10  14.194377   1.134692  -0.306674   0.000573   0.278737   0.002057
[...]
 643   8  10.292016   4.604024  -1.472723   0.000498   0.106861   0.004664
 644   9  10.262725   5.522552  -1.555859   0.000672   0.106861   0.006290
 645   7   9.756122   5.581468   5.032585   0.000557   0.106861   0.005212
 646   8  10.183581   4.903715   5.012455   0.000500   0.106861   0.004677
 647   9  10.152948   5.825949   5.009524   0.000668   0.106861   0.006250
 648   8  10.202287   4.494997   5.229003   0.000094   0.006469   0.014604
 649   7   9.580287   5.450797   5.175462   0.000046   0.006469   0.007165
 650   8  10.314548   4.175294  -1.650596   0.000083   0.005804   0.014274
 651   7   9.700175   5.136001  -1.704340   0.000039   0.005804   0.006643
 652   9   9.003771   8.119460   5.120827   0.001088   0.218488   0.004978
 653   9   9.860060   6.709225   5.224195   0.001409   0.218488   0.006451
 654   7   8.865197   7.066799   5.125663   0.002545   0.449098   0.005666
 655   9   9.978247   6.382276  -1.860723   0.001496   0.218695   0.006842
 656   9   9.120386   7.796001  -1.915897   0.001102   0.218695   0.005040
 657   7   8.980824   6.746508  -1.828450   0.002453   0.449567   0.005457
 658   8  10.600734   4.693545   5.073039   0.000726   0.100230   0.007247
 659   9  10.572173   5.611871   4.989878   0.000598   0.100230   0.005968
 660  10  10.972547   4.937938   5.087888   0.000739   0.100230   0.007370
 661   8  10.710959   4.389819  -1.499701   0.000715   0.100230   0.007131
 662   9  10.681052   5.311856  -1.502563   0.000602   0.100230   0.006008
 663  10  11.083438   4.632377  -1.524569   0.000796   0.100230   0.007942
 664   8  13.599802   0.178516   2.589386  -0.000093   0.007658  -0.012169
 665  10  13.991665   0.382401   2.593392  -0.000088   0.007658  -0.011480
 666  21  14.272692   0.468219   2.544005  -0.000089   0.007658  -0.011625
 667   8  13.618457   0.127404   1.491603  -0.000092   0.007658  -0.012063
 668  10  14.010552   0.330653   1.481963  -0.000090   0.007658  -0.011803
 669  21  14.289878   0.421131   1.532664  -0.000104   0.007658  -0.013577
 670  10  11.408121   4.213453   5.368596   0.001729   0.195208   0.008859
 671  10  12.493210   2.513336   5.229136   0.003348   0.399544   0.008381
 672  10  13.533209   0.856859   3.743638  -0.000436   0.399544  -0.001091
 673   8  11.292506   3.217083   5.378419   0.003874   0.399544   0.009696
 674   8  12.552677   1.231721   4.669526   0.001807   0.399544   0.004523
 675   8  13.238002   0.128757   3.119990  -0.000526   0.195208  -0.002695
 676  10  13.808986   0.369648   0.948913  -0.000551   0.195299  -0.002822
 677  10  13.177865   1.323544  -0.719165   0.001817   0.399747   0.004546
 678  10  11.944861   3.233632  -1.650970   0.003948   0.399747   0.009875
 679   8  13.057609   0.354281   0.284119  -0.000427   0.399747  -0.001069
 680   8  12.070505   1.865029  -1.383292   0.003309   0.399747   0.008277
 681   8  10.992901   3.544010  -1.715724   0.001792   0.195299   0.009174
 682   8   8.990804  -0.558849   0.142441  -0.000410   0.084818  -0.004834
 683  16   8.065547  -0.754200   0.370599  -0.000524   0.084818  -0.006174
 684  19   9.105468  -0.768376   0.325889  -0.000599   0.084818  -0.007066
 685   8   8.928014  -0.387899   3.837118  -0.000410   0.084818  -0.004839
 686  16   8.010720  -0.604929   3.596728  -0.000520   0.084818  -0.006132
 687  19   9.048504  -0.613285   3.677790  -0.000565   0.084818  -0.006660
 688   8   8.905188  -0.582187  -0.064595   0.000043   0.006956   0.006120
 689   8   8.834563  -0.390425   4.044050   0.000042   0.006370   0.006544
 690   8  13.333202  -0.099069   1.655185  -0.000150   0.014154  -0.010566
 691  19  13.120780  -0.301968   1.701101  -0.000168   0.014154  -0.011863
 692  21  13.957977   0.281237   1.694979  -0.000158   0.014154  -0.011186
 693   8  13.319952  -0.062925   2.436327  -0.000146   0.014154  -0.010315
 694  19  13.108889  -0.269528   2.402176  -0.000185   0.014154  -0.013075
 695  21  13.946311   0.313061   2.382760  -0.000152   0.014154  -0.010755
 696  19  12.730157  -0.633273   2.694325  -0.000534   0.067789  -0.007877
 697  19  12.071602  -0.617910   3.587156  -0.000954   0.150865  -0.006321
 698  19  10.833944  -0.643584   4.103426  -0.000853   0.150865  -0.005654
 699  19   9.737324  -0.695356   3.942740  -0.000359   0.067789  -0.005291
 700   8  12.710079  -0.283371   3.171661  -0.000947   0.148174  -0.006394
 701   8  11.580456  -0.282112   4.168724  -0.000594   0.148174  -0.004008
 702   8  10.078157  -0.337967   4.269527  -0.000658   0.148174  -0.004440
 703  19   9.802737  -0.873475   0.093158  -0.000406   0.067787  -0.005984
 704  19  10.904220  -0.835039  -0.034358  -0.000854   0.150859  -0.005658
 705  19  12.123682  -0.759877   0.518948  -0.000939   0.150859  -0.006221
 706  19  12.751587  -0.691721   1.431138  -0.000502   0.067787  -0.007399
 707   8  10.154997  -0.547246  -0.253484  -0.000660   0.148170  -0.004455
 708   8  11.653060  -0.479970  -0.107424  -0.000575   0.148170  -0.003881
 709   8  12.748236  -0.387410   0.923145  -0.001007   0.148170  -0.006796
 710  21  14.458337   0.461583   2.482886  -0.000186   0.025887  -0.007180
 711   8  13.482529  -0.032104   2.530191  -0.000073   0.036569  -0.001984
 712  21  14.473387   0.417230   1.626327  -0.000193   0.025588  -0.007549
 713   8  13.498866  -0.073869   1.540991  -0.000084   0.036146  -0.002330
 714   9  10.901405   5.682493  -1.617355   0.000488   0.049199   0.009918
 715  10  11.311167   5.009061  -1.577639   0.000469   0.049199   0.009529
 716  11  11.290350   5.469724  -1.636123   0.000493   0.049199   0.010018
 717   9  10.793021   5.994256   5.078070   0.000485   0.049199   0.009856
 718  10  11.202838   5.320664   5.114343   0.000446   0.049199   0.009074
 719  11  11.180835   5.784737   5.129076   0.000445   0.049199   0.009035
 720  10  11.152506   5.092369   5.224098   0.000118   0.016977   0.006969
 721   9  10.557828   6.046451   5.167262   0.000188   0.016977   0.011099
 722  10  11.255562   4.766442  -1.665037   0.000119   0.015734   0.007571
 723   9  10.681816   5.733241  -1.721914   0.000183   0.015734   0.011636
 724   9  12.328895   8.416611  -1.657683   0.000505   0.049997   0.010102
 725  11  12.728270   8.224649  -1.679913   0.000300   0.049997   0.006007
 726  12  13.155567   8.466395  -1.643038   0.000132   0.049997   0.002633
 727   9  12.226150   8.729091   4.906271   0.000467   0.049997   0.009331
 728  11  12.624349   8.540702   4.959092   0.000286   0.049997   0.005726
 729  12  13.052949   8.778488   4.912786   0.000173   0.049997   0.003456
 730  11  12.166498   7.971063   5.178307   0.001547   0.210630   0.007345
 731  11  11.404587   6.494238   5.270803   0.001607   0.210630   0.007629
 732   9  11.220671   7.519280   5.148008   0.004292   0.434372   0.009882
 733  11  11.518838   6.161786  -1.835828   0.001789   0.209989   0.008521
 734  11  12.277432   7.637625  -1.858251   0.001549   0.209989   0.007379
 735   9  11.331555   7.191404  -1.816061   0.004078   0.432894   0.009420
 736   9  12.438033  10.442249  -0.459293  -0.000130   0.069996  -0.001853
 737  12  13.258325  10.544685  -0.501299  -0.000148   0.069996  -0.002116
 738  24  13.303055  10.781474  -0.316470  -0.000309   0.069996  -0.004413
 739   9  12.380614  10.518620   3.683467  -0.000082   0.069996  -0.001169
 740  12  13.199480  10.622954   3.744381  -0.000123   0.069996  -0.001754
 741  24  13.249434  10.852793   3.552261  -0.000287   0.069996  -0.004107
 742  12  13.179239   9.931893   4.359719   0.000248   0.548294   0.000453
 743   9  12.017977   9.530549   4.563656   0.001839   0.548294   0.003355
 744  12  13.310585   9.029838  -1.604347   0.000445   0.301843   0.001473
 745  12  13.232379  10.167434  -0.952994   0.000193   0.301843   0.000638
 746   9  12.093484   9.508500  -1.262686   0.001524   0.604980   0.002519
 747   9  11.823626  10.804181   3.439097  -0.000263   0.081679  -0.003216
 748  20  11.715618  11.014782   3.252812  -0.000434   0.081679  -0.005311
 749  24  12.710603  11.025433   3.221626  -0.000334   0.081679  -0.004086
 750   9  11.930366  10.631462  -0.357403  -0.000273   0.081679  -0.003338
 751  20  11.812621  10.857819  -0.197345  -0.000443   0.081679  -0.005426
 752  24  12.804316  10.873793  -0.111513  -0.000319   0.081679  -0.003908
 753  20   9.311157  11.009561   3.412071  -0.000385   0.075089  -0.005132
 754  20  10.524376  11.074348   3.516748  -0.000970   0.171179  -0.005667
 755   9   9.742281  10.718163   3.753928  -0.000627   0.160459  -0.003907
 756   9  11.086144  10.784024   3.743979  -0.000219   0.091738  -0.002383
 757  20  11.102072  10.916476  -0.458853  -0.000371   0.076658  -0.004843
 758  20   9.863338  10.851703  -0.536369  -0.001045   0.175726  -0.005947
 759   9  10.686693  10.553094  -0.761247  -0.000630   0.162987  -0.003864
 760   9   9.317765  10.487650  -0.716025  -0.000300   0.093655  -0.003205
 761  24  13.327550  10.999934  -0.278396  -0.000013   0.022496  -0.000574
 762   9  12.030683  10.605012  -0.576457   0.000106   0.031792   0.003345
 763  24  13.238326  11.140082   3.431958  -0.000142   0.061843  -0.002290
 764   9  11.952060  10.720229   3.744415   0.000177   0.087392   0.002021
 765  10  14.150371   5.419395   5.155351   0.000224   0.092387   0.002422
 766  11  14.148272   5.885296   5.176414   0.000053   0.092387   0.000573
 767  22  14.840802   6.176258   5.186941  -0.000202   0.092387  -0.002191
 768  10  14.220385   5.116411  -1.549404   0.000233   0.091100   0.002554
 769  11  14.219704   5.577965  -1.615484   0.000091   0.091100   0.000994
 770  23  14.903493   5.887221  -1.644222  -0.000161   0.091100  -0.001764
 771  11  11.842557   5.692767   5.312328   0.001264   0.198047   0.006383
 772  11  13.343280   5.728800   5.352134   0.000695   0.198047   0.003507
 773  10  12.609264   5.043822   5.319746   0.002404   0.403420   0.005960
 774  11  13.430521   5.395565  -1.790550   0.000805   0.195180   0.004125
 775  11  11.950110   5.361954  -1.788580   0.001451   0.195180   0.007432
 776  10  12.705465   4.715814  -1.715895   0.002227   0.397168   0.005608
 777  10  15.859554   3.962212   4.075174  -0.000211   0.085069  -0.002484
 778  21  16.011778   3.779993   3.890218  -0.000427   0.085069  -0.005023
 779  22  16.339724   4.862654   4.142658  -0.000283   0.085069  -0.003331
 780  10  15.939913   3.804252  -0.252067  -0.000203   0.084534  -0.002397
 781  21  16.082117   3.637580  -0.045888  -0.000397   0.084534  -0.004700
 782  23  16.404734   4.712875  -0.404331  -0.000257   0.084534  -0.003045
 783  21  15.848400   3.005456   3.993606  -0.000389   0.072791  -0.005350
 784  21  15.299029   1.955744   3.973493  -0.000928   0.164633  -0.005639
 785  21  14.777522   0.897345   3.170329  -0.001166   0.164633  -0.007084
 786  10  15.347322   2.777641   4.263182  -0.000598   0.156691  -0.003818
 787  10  14.638290   1.394190   3.874264  -0.000660   0.156691  -0.004211
 788  10  14.251900   0.582047   2.925123  -0.000507   0.088931  -0.005704
 789  21  14.684145   0.568833   1.266554  -0.000500   0.073536  -0.006804
 790  21  15.064583   1.221403   0.339076  -0.000965   0.166739  -0.005788
 791  21  15.716901   2.432242  -0.087532  -0.000952   0.166739  -0.005712
 792  10  14.433553   0.755694   0.735717  -0.000961   0.157920  -0.006087
 793  10  15.059669   1.872266  -0.251484  -0.000628   0.157920  -0.003975
 794  10  15.673856   3.035329  -0.361917  -0.000282   0.089840  -0.003142
 795  22  15.516680   6.066875   5.283566  -0.000917   0.295726  -0.003102
 796  22  16.417328   5.441060   4.733428  -0.001092   0.295726  -0.003694
 797  10  15.059968   4.579771   4.859282   0.000434   0.826525   0.000525
 798  23  16.497655   5.231843  -1.061740  -0.001044   0.303451  -0.003439
 799  23  15.587724   5.782238  -1.713898  -0.000924   0.303451  -0.003045
 800  10  15.146181   4.325929  -1.133764   0.000444   0.848890   0.000523
 801  11  14.059038   7.052901   5.320999   0.000026   0.025800   0.001010
 802  12  14.480272   7.304084   5.357990  -0.000026   0.025800  -0.000998
 803  22  14.775268   7.259768   5.410802  -0.000071   0.025800  -0.002735
 804  11  14.051883   6.909895  -1.887873   0.000029   0.025866   0.001124
 805  12  14.473034   7.159406  -1.935595  -0.000030   0.025866  -0.001178
 806  23  14.767959   7.112489  -1.987143  -0.000098   0.025866  -0.003797
 807  12  13.782685   8.232520   5.176031   0.000117   0.300669   0.000391
 808  11  13.360930   7.565858   5.253394   0.000519   0.300669   0.001725
 809  12  14.004060   7.711304  -1.882116   0.000127   0.261514   0.000487
 810  11  13.238649   7.617970  -1.834014   0.000491   0.261514   0.001876
 811  22  15.041591   6.956067   5.456564  -0.000510   0.166529  -0.003060
 812  11  14.043647   6.439053   5.360372   0.000343   0.234720   0.001463
 813  23  15.133991   6.555777  -1.954629  -0.000751   0.204878  -0.003668
 814  11  14.018937   6.363175  -1.899712   0.000410   0.288649   0.001420
 815  12  17.317776   5.115443   2.856552  -0.000106   0.075377  -0.001410
 816  21  16.891774   4.237679   2.789123  -0.000412   0.075377  -0.005467
 817  22  17.348891   5.246888   3.129724  -0.000266   0.075377  -0.003532
 818  12  17.259571   5.031955   0.653473  -0.000098   0.070806  -0.001389
 819  21  16.837352   4.166304   0.821853  -0.000393   0.070806  -0.005552
 820  23  17.292673   5.158845   0.378740  -0.000209   0.070806  -0.002945
 821  21  16.939887   3.542094   1.293610  -0.001488   0.244864  -0.006078
 822  21  16.972566   3.586829   2.357844  -0.001534   0.244864  -0.006264
 823  12  17.442007   4.908121   1.754331  -0.000030   0.682962  -0.000043
 824  22  17.880028   5.772152   3.242903  -0.000218   0.066894  -0.003257
 825  22  18.448940   6.676408   3.085681  -0.000453   0.147519  -0.003071
 826  22  18.623540   7.955808   3.290988  -0.000549   0.147519  -0.003725
 827  22  18.125677   9.003648   3.894036  -0.000596   0.147519  -0.004043
 828  22  17.148738   9.412914   4.660582  -0.000439   0.147519  -0.002974
 829  22  16.072195   9.024635   5.292876  -0.000472   0.147519  -0.003196
 830  22  15.314210   7.989630   5.545315  -0.000568   0.147519  -0.003852
 831  12  18.088119   6.020854   2.750792  -0.000204   0.147598  -0.001386
 832  12  18.652088   7.376856   2.711253  -0.000251   0.147598  -0.001704
 833  12  18.460955   8.752865   3.189202  -0.000380   0.147598  -0.002577
 834  12  17.588961   9.614396   3.998991  -0.000311   0.147598  -0.002104
 835  12  16.374814   9.626805   4.826072  -0.000182   0.147598  -0.001230
 836  12  15.290128   8.785271   5.349181  -0.000361   0.147598  -0.002445
 837  12  14.749418   7.727705   5.448465  -0.000116   0.081725  -0.001424
 838  23  15.143197   7.451929  -2.150005  -0.000209   0.067416  -0.003094
 839  23  15.631438   8.422510  -2.104461  -0.000476   0.148879  -0.003200
 840  23  16.608797   9.185702  -1.663132  -0.000469   0.148879  -0.003153
 841  23  17.695759   9.187307  -0.920856  -0.000495   0.148879  -0.003322
 842  23  18.464059   8.426694  -0.170092  -0.000557   0.148879  -0.003739
 843  23  18.610984   7.203546   0.293357  -0.000442   0.148879  -0.002970
 844  23  18.078645   5.999786   0.286891  -0.000591   0.148879  -0.003971
 845  12  14.931860   7.992558  -2.036731  -0.000413   0.148548  -0.002782
 846  12  15.795744   9.168403  -1.795425  -0.000199   0.148548  -0.001337
 847  12  17.017179   9.620924  -1.095100  -0.000244   0.148548  -0.001644
 848  12  18.114917   9.171828  -0.211685  -0.000380   0.148548  -0.002559
 849  12  18.656445   7.998059   0.506751  -0.000338   0.148548  -0.002275
 850  12  18.428400   6.562086   0.777142  -0.000247   0.148548  -0.001666
 851  12  17.782367   5.560858   0.632871  -0.000102   0.082363  -0.001242
 852  24  13.876092  11.134024   3.663794  -0.000276   0.070369  -0.003917
 853  24  14.996109  11.328933   3.662979  -0.000480   0.157112  -0.003057
 854  24  16.149286  11.514590   2.941496  -0.000632   0.157112  -0.004025
 855  24  16.612672  11.568320   1.650291  -0.000665   0.157112  -0.004234
 856  24  16.185210  11.466809   0.349601  -0.000610   0.157112  -0.003885
 857  24  15.052370  11.254103  -0.396223  -0.000460   0.157112  -0.002925
 858  24  13.932706  11.058723  -0.420885  -0.000262   0.070369  -0.003717
 859  12  14.337418  10.882295   3.959519  -0.000357   0.153411  -0.002326
 860  12  15.821841  11.133697   3.626328  -0.000224   0.153411  -0.001460
 861  12  16.783323  11.276076   2.429244  -0.000436   0.153411  -0.002845
 862  12  16.804690  11.247658   0.887664  -0.000456   0.153411  -0.002971
 863  12  15.876670  11.060771  -0.329539  -0.000305   0.153411  -0.001991
 864  12  14.401920  10.796504  -0.694238  -0.000327   0.153411  -0.002130
 865  17  -0.654286   6.477776   2.678245  -0.000573   0.248821  -0.002304
 866  17  -0.217643   6.573379   3.346975  -0.000327   0.248821  -0.001314
 867  13  -0.984192   5.062171   3.579783  -0.000662   0.497291  -0.001330
 868  17  -0.249200   6.344694  -0.140848  -0.000763   0.416308  -0.001834
 869  14  -0.911015   4.806323  -0.451314  -0.000303   0.416308  -0.000729
 870  16   4.518230  -1.270593   3.499775  -0.000695   0.263551  -0.002637
 871  16   4.555767  -1.836641   2.381570  -0.003014   0.527430  -0.005714
 872  16   4.547433  -1.622993   0.876667  -0.002511   0.527430  -0.004762
 873  15   3.115077  -1.605786   3.082868  -0.002140   0.527430  -0.004058
 874  15   3.140817  -1.958238   1.604503  -0.002401   0.527430  -0.004552
 875  15   3.116610  -1.498481   0.438210  -0.000543   0.263551  -0.002061
 876  19   9.088023  -1.059382   3.514726  -0.000816   0.266112  -0.003067
 877  19   9.126626  -1.602990   2.422235  -0.003158   0.532333  -0.005932
 878  19   9.140500  -1.398541   0.954583  -0.002815   0.532333  -0.005289
 879  16   7.617977  -1.359124   3.089048  -0.002786   0.532333  -0.005234
 880  16   7.653553  -1.698207   1.646913  -0.003072   0.532333  -0.005772
 881  16   7.652868  -1.257835   0.508226  -0.000897   0.266112  -0.003372
 882  18   3.124939  10.539597   1.316150  -0.000556   0.233484  -0.002379
 883  17   1.892561   9.764077   1.470924  -0.000501   0.233484  -0.002145
 884  20   8.648941  11.149088  -0.047427  -0.000897   0.266116  -0.003371
 885  20   8.610888  11.692762   1.045633  -0.003073   0.532344  -0.005773
 886  20   8.597720  11.487728   2.513813  -0.002788   0.532344  -0.005237
 887  18   7.148225  11.328253   0.334280  -0.002819   0.532344  -0.005296
 888  18   7.113361  11.667146   1.777090  -0.003159   0.532344  -0.005934
 889  18   7.114585  11.226111   2.916078  -0.000817   0.266116  -0.003071
 890  21  14.358113   0.272880   2.117000  -0.000507   0.234986  -0.002157
 891  19  13.130609  -0.515782   1.992428  -0.000562   0.234986  -0.002392
 892  24  13.182283  11.391257   0.013832  -0.000543   0.263515  -0.002059
 893  24  13.118965  11.956452   1.131894  -0.002402   0.527362  -0.004555
 894  24  13.094243  11.741092   2.636984  -0.002147   0.527362  -0.004072
 895  20  11.738488  11.552623   0.390506  -0.002516   0.527362  -0.004771
 896  20  11.679328  11.903713   1.868858  -0.003015   0.527362  -0.005718
 897  20  11.678415  11.442454   3.035373  -0.000694   0.263515  -0.002633
 898  22  16.959305   5.126741   4.217569  -0.000226   0.249914  -0.000902
 899  22  17.419135   5.161282   3.554345  -0.000030   0.249914  -0.000121
 900  21  16.622120   3.653890   3.415165  -0.001405   0.499476  -0.002814
 901  23  17.227904   5.041679  -0.165682  -0.000271   0.412135  -0.000656
 902  21  16.555897   3.535385   0.265975  -0.000743   0.412135  -0.001804
 =====================================================

              7612131  WORDS OF DYNAMIC MEMORY USED
 EXECUTION OF GAMESS TERMINATED NORMALLY Wed Nov 23 06:37:26 2016
 DDI: 263640 bytes (0.3 MB / 0 MWords) used by master data server.

 ----------------------------------------
 CPU timing information for all processes
 ========================================
 0: 1174.556 + 0.296 = 1174.852
 ----------------------------------------
 ddikick.x: exited gracefully.
