----- GAMESS execution script -----

          ******************************************************
          *         GAMESS VERSION =  5 DEC 2014 (R1)          *
          *             FROM IOWA STATE UNIVERSITY             *
          * M.W.SCHMIDT, K.K.BALDRIDGE, J.A.BOATZ, S.T.ELBERT, *
          *   M.S.GORDON, J.H.JENSEN, S.KOSEKI, N.MATSUNAGA,   *
          *          K.A.NGUYEN, S.J.SU, T.L.WINDUS,           *
          *       TOGETHER WITH M.DUPUIS, J.A.MONTGOMERY       *
          *         J.COMPUT.CHEM.  14, 1347-1363(1993)        *
          **************** 64 BIT LINUX VERSION ****************

 EXECUTION OF GAMESS BEGUN Wed Nov 23 06:29:06 2016

            ECHO OF THE FIRST FEW INPUT CARDS -
 INPUT CARD>! SELECT RESTRICTED HARTREE-FOCK AS DEFAULT                                     
 INPUT CARD>$contrl scftyp=rhf $end                                                         
 INPUT CARD>                                                                                
 INPUT CARD>! THEORY: HF OR DFT                                                             
 INPUT CARD> $contrl mplevl=0 $end                                                          
 INPUT CARD>                                                                                
 INPUT CARD> $system timlim=10000 mwords=20 $end                                            
 INPUT CARD> $SCF DIRSCF=.TRUE. $end                                                        
 INPUT CARD>                                                                                
 INPUT CARD>                                                                                
 INPUT CARD>! BASIS SETS                                                                    
 INPUT CARD>! 6-311G(d,p)                                                                   
 INPUT CARD> $BASIS GBASIS=N311 NGAUSS=6 NDFUNC=1 NPFUNC=1 $END                             
 INPUT CARD>                                                                                
 INPUT CARD>! One of the following                                                          
 INPUT CARD> $guess guess=HUCKEL $end                                                       
 INPUT CARD>                                                                                
 INPUT CARD> $statpt projct=.FALSE. $end                                                    
 INPUT CARD> $STATPT IFREEZ(1)=1,2,3 $END                                                   
 INPUT CARD>                                                                                
 INPUT CARD>! Optimize the geometry with COSMO effects                                      
 INPUT CARD> $statpt opttol=0.0005 nstep=50 $end                                            
 INPUT CARD> $contrl nzvar=1 $end                                                           
 INPUT CARD> $zmat dlc=.t. auto=.t. $end                                                    
 INPUT CARD> $contrl runtyp=OPTIMIZE maxit=200 $end                                         
 INPUT CARD>                                                                                
 INPUT CARD>! Run COSMO on perfect conductor                                                
 INPUT CARD> $COSGMS PRFCND=.TRUE. $end                                                     
 INPUT CARD>                                                                                
 INPUT CARD>! Specifying RSOLV                                                              
 INPUT CARD> $COSGMS COSRAD = 1.4 $end                                                      
 INPUT CARD>                                                                                
 INPUT CARD>! available memory                                                              
 INPUT CARD> $SYSTEM MWORDS=40 $END                                                         
 INPUT CARD>                                                                                
 INPUT CARD> $DATA                                                                          
 INPUT CARD>                                                                                
 INPUT CARD>C1                                                                              
 INPUT CARD>C      6.0     -0.1258000000   -0.0200000000    0.0196000000                    
 INPUT CARD>C      6.0      1.0424000000    0.8716000000    0.4476000000                    
 INPUT CARD>H      1.0     -0.0005000000   -1.0378000000    0.4039000000                    
 INPUT CARD>H      1.0     -1.0740000000    0.3671000000    0.4076000000                    
 INPUT CARD>H      1.0     -0.2037000000   -0.0764000000   -1.0717000000                    
 INPUT CARD>C      6.0      2.3676000000    0.2763000000   -0.0629000000                    
 INPUT CARD>H      1.0      1.0651000000    0.8907000000    1.5450000000                    
 INPUT CARD>C      6.0      0.8114000000    2.2987000000   -0.0507000000                    
 INPUT CARD>H      1.0      2.3711000000    0.2659000000   -1.1609000000                    
 INPUT CARD>H      1.0      2.4319000000   -0.7704000000    0.2605000000                    
 INPUT CARD>C      6.0      3.6066000000    1.0226000000    0.4410000000                    
 INPUT CARD>H      1.0      3.5765000000    1.0882000000    1.5358000000                    
   40000000 WORDS OF MEMORY AVAILABLE

     BASIS OPTIONS
     -------------
     GBASIS=N311         IGAUSS=       6      POLAR=POPN311 
     NDFUNC=       1     NFFUNC=       0     DIFFSP=       F
     NPFUNC=       1      DIFFS=       F     BASNAM=        


     RUN TITLE
     ---------
                                                                                 

 THE POINT GROUP OF THE MOLECULE IS C1      
 THE ORDER OF THE PRINCIPAL AXIS IS     0

 ATOM      ATOMIC                      COORDINATES (BOHR)
           CHARGE         X                   Y                   Z
 C           6.0    -0.2377275293       -0.0377945198        0.0370386294
 C           6.0     1.9698503696        1.6470851709        0.8458413521
 H           1.0    -0.0009448630       -1.9611576301        0.7632603264
 H           1.0    -2.0295657108        0.6937184101        0.7702523126
 H           1.0    -0.3849371837       -0.1443750655       -2.0252193410
 C           6.0     4.4741152485        0.5221312904       -0.1188637646
 H           1.0     2.0127471495        1.6831789373        2.9196266510
 C           6.0     1.5333236664        4.3439131280       -0.0958091076
 H           1.0     4.4807292895        0.5024781401       -2.1937828991
 H           1.0     4.5956246295       -1.4558449009        0.4922736198
 C           6.0     6.8154857473        1.9324337950        0.8333691606
 H           1.0     6.7586049951        2.0563998198        2.9022411719
 H           1.0     6.8277689662        3.8667573161        0.0984547240
 C           6.0     9.2486969291        0.5960195765        0.0134170545
 H           1.0     9.3057666539        0.4720535517       -2.0552659842
 H           1.0     9.2364137102       -1.3383039445        0.7485204637
 C           6.0    11.5902564005        2.0063220812        0.9658389523
 H           1.0    11.5834533869        2.0257862588        3.0407580868
 H           1.0    11.4685580469        3.9841092999        0.3547015679
 C           6.0    14.0943323068        0.8813682007        0.0009448630
 H           1.0    14.0514355269        0.8452744343       -2.0726514633
 C           6.0    14.5310479826       -1.8156487290        0.9427842953
 C           6.0    16.3020991783        2.5662478913        0.8099365583
 H           1.0    16.4491198601        2.6726394644        2.8721945287
 H           1.0    16.0651275394        4.4894220290        0.0837148613
 H           1.0    18.0937483872        1.8347349615        0.0767228751
 H           1.0    -0.3182298563        5.0425448256        0.5113598523
 H           1.0     1.6034325006        4.4372655918       -2.1626024203
 H           1.0     2.9525078832        5.6448004979        0.6576246437
 H           1.0    13.1116747932       -3.1163471264        0.1891615714
 H           1.0    14.4609391484       -1.9090011928        3.0093886354
 H           1.0    16.3824125328       -2.5140914541        0.3354263628

          INTERNUCLEAR DISTANCES (ANGS.)




     $CONTRL OPTIONS
     ---------------
 SCFTYP=RHF          RUNTYP=OPTIMIZE     EXETYP=RUN     
 MPLEVL=       0     CITYP =NONE         CCTYP =NONE         VBTYP =NONE    
 DFTTYP=NONE         TDDFT =NONE    
 MULT  =       1     ICHARG=       0     NZVAR =       1     COORD =UNIQUE  
 PP    =NONE         RELWFN=NONE         LOCAL =NONE         NUMGRD=       F
 ISPHER=      -1     NOSYM =       0     MAXIT =     200     UNITS =ANGS    
 PLTORB=       F     MOLPLT=       F     AIMPAC=       F     FRIEND=        
 NPRINT=       7     IREST =       0     GEOM  =INPUT   
 NORMF =       0     NORMP =       0     ITOL  =      20     ICUT  =       9
 INTTYP=BEST         GRDTYP=BEST         QMTTOL= 1.0E-06

     $SYSTEM OPTIONS
     ---------------
  REPLICATED MEMORY=    40000000 WORDS (ON EVERY NODE).
 DISTRIBUTED MEMDDI=           0 MILLION WORDS IN AGGREGATE,
 MEMDDI DISTRIBUTED OVER   1 PROCESSORS IS           0 WORDS/PROCESSOR.
 TOTAL MEMORY REQUESTED ON EACH PROCESSOR=    40000000 WORDS.
 TIMLIM=       10000.00 MINUTES, OR       6.9 DAYS.
 PARALL= F  BALTYP=  DLB     KDIAG=    0  COREFL= F
 MXSEQ2=     300 MXSEQ3=     150  mem10=         0

     $COSGMS OPTIONS
     ---------------
     EPSI  =   INFTY     NSPA  =      92     COSRAD=    1.40
     DISEX =   10.00     OUTCHG=DBLCAV       COSBUG=       F
     COSWRT=       F     DCOSMO=       F

     SYMMETRY COORDINATES WILL NOT BE USED FOR 
     THE COSMO CALCULATION, EVEN IF SPECIFIED:
         -- SWITCHING TO C1 POINT GROUP --


     DEFINITION OF CAVITY
     ---------------------------
     ATOM         COORDINATES           RADIUS 
     1   -0.2377   -0.0378    0.0370    2.0000
     2    1.9699    1.6471    0.8458    2.0000
     3   -0.0009   -1.9612    0.7633    1.3000
     4   -2.0296    0.6937    0.7703    1.3000
     5   -0.3849   -0.1444   -2.0252    1.3000
     6    4.4741    0.5221   -0.1189    2.0000
     7    2.0127    1.6832    2.9196    1.3000
     8    1.5333    4.3439   -0.0958    2.0000
     9    4.4807    0.5025   -2.1938    1.3000
    10    4.5956   -1.4558    0.4923    1.3000
    11    6.8155    1.9324    0.8334    2.0000
    12    6.7586    2.0564    2.9022    1.3000
    13    6.8278    3.8668    0.0985    1.3000
    14    9.2487    0.5960    0.0134    2.0000
    15    9.3058    0.4721   -2.0553    1.3000
    16    9.2364   -1.3383    0.7485    1.3000
    17   11.5903    2.0063    0.9658    2.0000
    18   11.5835    2.0258    3.0408    1.3000
    19   11.4686    3.9841    0.3547    1.3000
    20   14.0943    0.8814    0.0009    2.0000
    21   14.0514    0.8453   -2.0727    1.3000
    22   14.5310   -1.8156    0.9428    2.0000
    23   16.3021    2.5662    0.8099    2.0000
    24   16.4491    2.6726    2.8722    1.3000
    25   16.0651    4.4894    0.0837    1.3000
    26   18.0937    1.8347    0.0767    1.3000
    27   -0.3182    5.0425    0.5114    1.3000
    28    1.6034    4.4373   -2.1626    1.3000
    29    2.9525    5.6448    0.6576    1.3000
    30   13.1117   -3.1163    0.1892    1.3000
    31   14.4609   -1.9090    3.0094    1.3000
    32   16.3824   -2.5141    0.3354    1.3000

          ----------------
          PROPERTIES INPUT
          ----------------

     MOMENTS            FIELD           POTENTIAL          DENSITY
 IEMOM =       1   IEFLD =       0   IEPOT =       0   IEDEN =       0
 WHERE =COMASS     WHERE =NUCLEI     WHERE =NUCLEI     WHERE =NUCLEI  
 OUTPUT=BOTH       OUTPUT=BOTH       OUTPUT=BOTH       OUTPUT=BOTH    
 IEMINT=       0   IEFINT=       0                     IEDINT=       0
                                                       MORB  =       0
          EXTRAPOLATION IN EFFECT
          SOSCF IN EFFECT
 ORBITAL PRINTING OPTION: NPREO=     1   322     2     1

     -------------------------------
     INTEGRAL TRANSFORMATION OPTIONS
     -------------------------------
     NWORD  =            0
     CUTOFF = 1.0E-09     MPTRAN =       0
     DIRTRF =       T     AOINTS =DUP     

          ----------------------
          INTEGRAL INPUT OPTIONS
          ----------------------
 NOPK  =       1 NORDER=       0 SCHWRZ=       T


 -----------------------------------------------
  STATISTICS ON AUTOMATIC COORDINATE GENERATION 
 -----------------------------------------------
  NUMBER OF USER SPECIFIED BONDS                             0
  NUMBER OF BONDS                                           31
  NUMBER OF ANGLES                                          60
  NUMBER OF TORSIONS                                        81
  NUMBER OF EXTRA COORD.                                     0
  NUMBER OF EXTRA COORD. FOR CONSTRAINTS                     0
  NUMBER OF CONSTRAINED COORD.                               0

  TOTAL NUMBER OF PRIMITIVES                               172
 -----------------------------------------------

   --- ENCODED Z MATRIX ---
 COORD  TYPE   I   J   K   L   M   N
    1      1    1   2
    2      1    1   5
    3      1    1   4
    4      1    1   3
    5      1    2   8
    6      1    2   7
    7      1    2   6
    8      1    6  11
    9      1    6  10
   10      1    6   9
   11      1    8  29
   12      1    8  28
   13      1    8  27
   14      1   11  14
   15      1   11  13
   16      1   11  12
   17      1   14  15
   18      1   14  16
   19      1   14  17
   20      1   17  20
   21      1   17  19
   22      1   17  18
   23      1   20  23
   24      1   20  22
   25      1   20  21
   26      1   22  31
   27      1   22  30
   28      1   22  32
   29      1   23  26
   30      1   23  25
   31      1   23  24
   32      2    1   2   8
   33      2    1   2   7
   34      2    1   2   6
   35      2    2   6  10
   36      2    2   1   4
   37      2    2   1   3
   38      2    2   1   5
   39      2    2   6  11
   40      2    2   8  27
   41      2    2   8  29
   42      2    2   8  28
   43      2    2   6   9
   44      2    3   1   4
   45      2    3   1   5
   46      2    4   1   5
   47      2    6   2   8
   48      2    6   2   7
   49      2    6  11  13
   50      2    6  11  12
   51      2    6  11  14
   52      2    7   2   8
   53      2    9   6  10
   54      2    9   6  11
   55      2   10   6  11
   56      2   11  14  15
   57      2   11  14  16
   58      2   11  14  17
   59      2   12  11  14
   60      2   12  11  13
   61      2   13  11  14
   62      2   14  17  18
   63      2   14  17  19
   64      2   14  17  20
   65      2   15  14  17
   66      2   15  14  16
   67      2   16  14  17
   68      2   17  20  21
   69      2   17  20  22
   70      2   17  20  23
   71      2   18  17  19
   72      2   18  17  20
   73      2   19  17  20
   74      2   20  22  32
   75      2   20  22  30
   76      2   20  22  31
   77      2   20  23  24
   78      2   20  23  25
   79      2   20  23  26
   80      2   21  20  22
   81      2   21  20  23
   82      2   22  20  23
   83      2   24  23  25
   84      2   24  23  26
   85      2   25  23  26
   86      2   27   8  28
   87      2   27   8  29
   88      2   28   8  29
   89      2   30  22  32
   90      2   30  22  31
   91      2   31  22  32
   92      3    1   2   6  10
   93      3    1   2   6  11
   94      3    1   2   8  27
   95      3    1   2   8  28
   96      3    1   2   6   9
   97      3    1   2   8  29
   98      3    2   6  11  14
   99      3    2   6  11  12
  100      3    2   6  11  13
  101      3    3   1   2   8
  102      3    3   1   2   6
  103      3    3   1   2   7
  104      3    4   1   2   6
  105      3    4   1   2   8
  106      3    4   1   2   7
  107      3    5   1   2   7
  108      3    5   1   2   6
  109      3    5   1   2   8
  110      3    6   2   8  28
  111      3    6   2   8  29
  112      3    6   2   8  27
  113      3    6  11  14  17
  114      3    6  11  14  16
  115      3    6  11  14  15
  116      3    7   2   6  11
  117      3    7   2   6   9
  118      3    7   2   8  28
  119      3    7   2   8  29
  120      3    7   2   6  10
  121      3    7   2   8  27
  122      3    8   2   6  11
  123      3    8   2   6   9
  124      3    8   2   6  10
  125      3    9   6  11  14
  126      3    9   6  11  12
  127      3    9   6  11  13
  128      3   10   6  11  14
  129      3   10   6  11  12
  130      3   10   6  11  13
  131      3   11  14  17  18
  132      3   11  14  17  19
  133      3   11  14  17  20
  134      3   12  11  14  17
  135      3   12  11  14  16
  136      3   12  11  14  15
  137      3   13  11  14  17
  138      3   13  11  14  16
  139      3   13  11  14  15
  140      3   14  17  20  21
  141      3   14  17  20  22
  142      3   14  17  20  23
  143      3   15  14  17  20
  144      3   15  14  17  19
  145      3   15  14  17  18
  146      3   16  14  17  20
  147      3   16  14  17  19
  148      3   16  14  17  18
  149      3   17  20  23  24
  150      3   17  20  23  25
  151      3   17  20  23  26
  152      3   17  20  22  32
  153      3   17  20  22  30
  154      3   17  20  22  31
  155      3   18  17  20  23
  156      3   18  17  20  22
  157      3   18  17  20  21
  158      3   19  17  20  23
  159      3   19  17  20  22
  160      3   19  17  20  21
  161      3   21  20  23  26
  162      3   21  20  23  25
  163      3   21  20  23  24
  164      3   21  20  22  31
  165      3   21  20  22  30
  166      3   21  20  22  32
  167      3   22  20  23  26
  168      3   22  20  23  25
  169      3   22  20  23  24
  170      3   23  20  22  31
  171      3   23  20  22  30
  172      3   23  20  22  32

          INDEP./SYM. INTERNAL COORDINATES
          --------------------------------
 CRD  1=  -0.1179 ( 34) -0.1101 ( 35)  0.3567 ( 39)  0.1326 ( 49)  0.1216 ( 50)
          -0.4292 ( 51) -0.1042 ( 54) -0.1213 ( 55) -0.1197 ( 56) -0.1410 ( 57)
           0.4292 ( 58)  0.1197 ( 59)  0.1410 ( 61)  0.1042 ( 62)  0.1213 ( 63)
          -0.3567 ( 64) -0.1216 ( 65) -0.1325 ( 67)  0.1179 ( 70)  0.1100 ( 73)
 CRD  2=  -0.2096 (  7) -0.1559 (  8) -0.2617 ( 14) -0.1559 ( 19) -0.2096 ( 20)
           0.1174 ( 32)  0.1428 ( 35) -0.4163 ( 39)  0.1215 ( 43) -0.2184 ( 47)
           0.1061 ( 54)  0.1365 ( 55)  0.1061 ( 62)  0.1365 ( 63) -0.4163 ( 64)
          -0.2183 ( 69)  0.1216 ( 72)  0.1428 ( 73)  0.1174 ( 82)
 CRD  3=  -0.1120 ( 35)  0.1329 ( 43)  0.2044 ( 47)  0.1689 ( 56) -0.1018 ( 57)
          -0.1689 ( 59)  0.1019 ( 61) -0.2045 ( 69) -0.1328 ( 72)  0.1121 ( 73)
           0.1005 ( 93) -0.3423 ( 98) -0.1545 ( 99) -0.1482 (100) -0.1043 (102)
          -0.1186 (104) -0.1028 (108)  0.2063 (113) -0.1840 (125) -0.1812 (128)
          -0.1840 (131) -0.1812 (132) -0.3423 (133)  0.1005 (142) -0.1545 (143)
          -0.1482 (146) -0.1029 (149) -0.1043 (150) -0.1186 (151)
 CRD  4=  -0.1820 ( 49)  0.1541 ( 50) -0.1640 ( 54)  0.1411 ( 55)  0.1640 ( 62)
          -0.1412 ( 63) -0.1541 ( 65)  0.1820 ( 67) -0.2284 ( 93) -0.3499 (113)
          -0.1898 (114) -0.1844 (115) -0.1783 (116) -0.2195 (122) -0.1844 (134)
          -0.1898 (137) -0.1783 (140) -0.2195 (141) -0.2284 (142)
 CRD  5=   0.1025 (  1)  0.1853 (  7)  0.2798 (  8)  0.2074 ( 14)  0.2798 ( 19)
           0.1852 ( 20)  0.1025 ( 23) -0.1541 ( 32)  0.2653 ( 34) -0.1316 ( 39)
          -0.1009 ( 49) -0.1066 ( 50)  0.3078 ( 51)  0.3078 ( 58) -0.1316 ( 64)
          -0.1065 ( 65) -0.1009 ( 67)  0.2653 ( 70) -0.1541 ( 82)
 CRD  6=   0.2190 (  7) -0.2190 ( 20) -0.3075 ( 32)  0.1995 ( 39)  0.1218 ( 41)
           0.2045 ( 47)  0.1798 ( 51)  0.1451 ( 57) -0.1798 ( 58) -0.1451 ( 61)
          -0.1996 ( 64) -0.2044 ( 69) -0.1218 ( 75)  0.3074 ( 82)  0.1287 (122)
           0.1088 (123)  0.1278 (124)  0.1286 (141)  0.1087 (156)  0.1278 (159)
 CRD  7=  -0.1772 (  1) -0.1132 (  8) -0.1088 ( 14) -0.1129 ( 19) -0.1770 ( 23)
          -0.2272 ( 32) -0.2319 ( 39) -0.1262 ( 40)  0.1101 ( 41)  0.1305 ( 43)
           0.2809 ( 47) -0.1492 ( 48)  0.1027 ( 54)  0.1026 ( 62) -0.2322 ( 64)
          -0.1495 ( 68)  0.2806 ( 69)  0.1308 ( 72) -0.1264 ( 74)  0.1100 ( 75)
          -0.2279 ( 82) -0.1181 ( 98) -0.1166 (102) -0.1219 (104) -0.1346 (108)
           0.1521 (122)  0.1183 (133) -0.1522 (141)  0.1346 (149)  0.1165 (150)
           0.1218 (151)
 CRD  8=   0.1838 (  5) -0.1839 ( 24)  0.2090 ( 32) -0.3244 ( 34)  0.1103 ( 36)
          -0.1257 ( 37)  0.1116 ( 39) -0.1054 ( 43)  0.1015 ( 48)  0.2224 ( 51)
          -0.1121 ( 52)  0.1381 ( 57) -0.2223 ( 58) -0.1383 ( 61) -0.1110 ( 64)
          -0.1011 ( 68)  0.3243 ( 70)  0.1050 ( 72)  0.1257 ( 78) -0.1100 ( 79)
           0.1121 ( 80) -0.2083 ( 82)  0.1037 ( 92) -0.1132 (110) -0.1119 (111)
          -0.1013 (112) -0.1012 (152) -0.1118 (153) -0.1130 (154)  0.1036 (158)
 CRD  9=   0.2036 (  5)  0.1380 ( 14)  0.2036 ( 24)  0.2411 ( 32) -0.2282 ( 34)
          -0.1262 ( 37) -0.1388 ( 39)  0.1309 ( 42) -0.1092 ( 49) -0.1041 ( 50)
           0.2471 ( 51) -0.1135 ( 52)  0.2472 ( 58) -0.1388 ( 64) -0.1041 ( 65)
          -0.1092 ( 67) -0.2283 ( 70)  0.1309 ( 76) -0.1262 ( 78) -0.1135 ( 80)
           0.2411 ( 82)  0.1154 ( 92)  0.1341 ( 93) -0.1048 (123) -0.1341 (142)
           0.1048 (156) -0.1155 (158)
 CRD 10=  -0.3133 (  1) -0.2145 (  7) -0.1954 (  8)  0.1954 ( 19)  0.2145 ( 20)
           0.3133 ( 23) -0.1226 ( 32)  0.1008 ( 33) -0.1352 ( 38) -0.2361 ( 39)
           0.1682 ( 47) -0.1296 ( 51)  0.1014 ( 54) -0.1250 ( 56)  0.1296 ( 58)
           0.1250 ( 59) -0.1014 ( 62)  0.2361 ( 64) -0.1682 ( 69)  0.1352 ( 77)
          -0.1008 ( 81)  0.1226 ( 82)
 CRD 11=   0.1428 (  5)  0.1428 ( 24) -0.1303 ( 33) -0.1020 ( 37)  0.1811 ( 38)
          -0.1096 ( 47)  0.1123 ( 49) -0.1136 ( 51)  0.1000 ( 52)  0.1203 ( 54)
          -0.1881 ( 55) -0.1136 ( 58)  0.1203 ( 62) -0.1881 ( 63)  0.1123 ( 67)
          -0.1096 ( 69)  0.1811 ( 77) -0.1020 ( 78)  0.1000 ( 80) -0.1303 ( 81)
           0.1299 ( 92)  0.2804 ( 93)  0.1511 ( 96)  0.1697 (116)  0.2150 (122)
          -0.1697 (140) -0.2150 (141) -0.2804 (142) -0.1511 (155) -0.1299 (158)
 CRD 12=   0.2943 (  1)  0.1241 (  7) -0.1544 ( 14)  0.1242 ( 20)  0.2944 ( 23)
           0.1689 ( 38)  0.1799 ( 42)  0.1637 ( 43) -0.1065 ( 45)  0.1301 ( 50)
          -0.1883 ( 51) -0.1349 ( 54) -0.1884 ( 58) -0.1348 ( 62)  0.1301 ( 65)
           0.1638 ( 72)  0.1800 ( 76)  0.1690 ( 77) -0.1065 ( 83) -0.1135 ( 98)
          -0.1307 (100)  0.1192 (112) -0.1227 (122) -0.1309 (124)  0.1134 (133)
           0.1227 (141)  0.1307 (146) -0.1193 (152)  0.1309 (159)
 CRD 13=  -0.1598 (  1) -0.3697 (  5) -0.1420 (  7)  0.1419 ( 20)  0.1597 ( 23)
           0.3696 ( 24) -0.1103 ( 35) -0.1534 ( 38)  0.1636 ( 39) -0.2150 ( 42)
          -0.1004 ( 47)  0.1424 ( 51) -0.1423 ( 58) -0.1636 ( 64)  0.1004 ( 69)
           0.1103 ( 73)  0.2149 ( 76)  0.1533 ( 77)  0.1034 ( 86)  0.1320 ( 88)
          -0.1319 ( 90) -0.1034 ( 91)
 CRD 14=   0.1176 (  1)  0.3716 (  5)  0.1616 (  7) -0.1440 (  8) -0.1440 ( 19)
           0.1616 ( 20)  0.1177 ( 23)  0.3717 ( 24)  0.1547 ( 35)  0.2013 ( 37)
          -0.1541 ( 38)  0.1039 ( 40)  0.1970 ( 41)  0.1547 ( 73)  0.1039 ( 74)
           0.1971 ( 75) -0.1542 ( 77)  0.2013 ( 78) -0.1415 ( 87) -0.1057 ( 88)
          -0.1416 ( 89) -0.1058 ( 90)  0.1348 ( 98)  0.1117 (100) -0.1348 (133)
          -0.1117 (146)
 CRD 15=  -0.1768 (  1) -0.1805 (  5)  0.1768 ( 23)  0.1804 ( 24) -0.1865 ( 36)
          -0.2214 ( 37)  0.2576 ( 38) -0.1588 ( 40) -0.2293 ( 41)  0.2353 ( 42)
           0.1542 ( 44)  0.1587 ( 74)  0.2293 ( 75) -0.2353 ( 76) -0.2575 ( 77)
           0.2214 ( 78)  0.1865 ( 79) -0.1542 ( 85)  0.1484 ( 87) -0.1484 ( 89)
          -0.1172 ( 97)  0.1163 (101)  0.1163 (168) -0.1172 (171)
 CRD 16=  -0.2316 (  1)  0.2047 (  7) -0.1837 (  8)  0.1618 ( 14) -0.1837 ( 19)
           0.2047 ( 20) -0.2317 ( 23)  0.1035 ( 35) -0.2078 ( 36) -0.1097 ( 37)
           0.1192 ( 38) -0.1765 ( 41)  0.2026 ( 42)  0.1250 ( 44)  0.1035 ( 73)
          -0.1765 ( 75)  0.2026 ( 76)  0.1192 ( 77) -0.1097 ( 78) -0.2079 ( 79)
           0.1250 ( 85) -0.1077 ( 95) -0.1262 ( 97)  0.1015 ( 98)  0.1073 (101)
          -0.1015 (133) -0.1073 (168)  0.1077 (170)  0.1262 (171)
 CRD 17=   0.2040 (  1) -0.1401 (  5) -0.2039 ( 23)  0.1400 ( 24)  0.1035 ( 33)
           0.1767 ( 36)  0.1416 ( 37) -0.1413 ( 38) -0.2348 ( 40)  0.1893 ( 42)
          -0.1241 ( 44)  0.1266 ( 49) -0.1171 ( 50) -0.1153 ( 52) -0.1309 ( 56)
           0.1110 ( 57)  0.1309 ( 59) -0.1109 ( 61)  0.1171 ( 65) -0.1266 ( 67)
           0.2348 ( 74) -0.1894 ( 76)  0.1413 ( 77) -0.1416 ( 78) -0.1767 ( 79)
           0.1153 ( 80) -0.1035 ( 81)  0.1241 ( 85)  0.1132 ( 87) -0.1131 ( 89)
           0.1007 (105)  0.1733 (113)  0.1014 (114)  0.1016 (115)  0.1016 (134)
           0.1014 (137)  0.1007 (167)
 CRD 18=  -0.2314 (  7)  0.1696 (  8) -0.1728 ( 14)  0.1696 ( 19) -0.2314 ( 20)
          -0.1940 ( 36)  0.1391 ( 37) -0.2559 ( 40)  0.2669 ( 42) -0.1685 ( 43)
           0.1084 ( 54)  0.1084 ( 62) -0.1685 ( 72) -0.2560 ( 74)  0.2668 ( 76)
           0.1389 ( 78) -0.1940 ( 79) -0.1378 ( 88) -0.1377 ( 90)  0.1137 ( 98)
           0.1175 ( 99) -0.1137 (133) -0.1174 (143)
 CRD 19=   0.1850 (  1) -0.3280 (  7)  0.3280 ( 20) -0.1851 ( 23)  0.2182 ( 38)
          -0.2654 ( 40)  0.2670 ( 41) -0.1047 ( 45)  0.2655 ( 74) -0.2671 ( 75)
          -0.2184 ( 77)  0.1047 ( 83)  0.1265 ( 86) -0.1266 ( 91)
 CRD 20=  -0.1823 (  1)  0.1703 (  5)  0.1515 (  8) -0.1333 ( 14)  0.1515 ( 19)
          -0.1821 ( 23)  0.1702 ( 24) -0.2489 ( 36)  0.1441 ( 37)  0.3491 ( 40)
          -0.1786 ( 41)  0.1443 ( 46)  0.3490 ( 74) -0.1784 ( 75)  0.1439 ( 78)
          -0.2487 ( 79)  0.1441 ( 84) -0.1544 ( 86) -0.1542 ( 91)
 CRD 21=  -0.1112 (  4) -0.1462 (  5)  0.1854 (  7) -0.1854 ( 20)  0.1463 ( 24)
           0.1112 ( 30)  0.3412 ( 36) -0.3660 ( 37)  0.1043 ( 41) -0.1716 ( 42)
           0.1166 ( 45) -0.1829 ( 46) -0.1045 ( 75)  0.1718 ( 76)  0.3661 ( 78)
          -0.3412 ( 79) -0.1166 ( 83)  0.1830 ( 84)  0.1051 ( 86) -0.1052 ( 91)
 CRD 22=   0.1599 (  7)  0.1576 (  8) -0.2755 ( 14)  0.1578 ( 19)  0.1599 ( 20)
           0.2689 ( 36) -0.2283 ( 38) -0.2384 ( 41)  0.1986 ( 42)  0.1385 ( 45)
           0.1254 ( 49)  0.1254 ( 67) -0.2383 ( 75)  0.1986 ( 76) -0.2283 ( 77)
           0.2692 ( 79)  0.1386 ( 83)
 CRD 23=   0.1174 (  7) -0.3465 (  8) -0.1252 ( 16)  0.1252 ( 17)  0.3462 ( 19)
          -0.1178 ( 20) -0.1745 ( 36)  0.1080 ( 37)  0.1137 ( 38) -0.1020 ( 40)
           0.2053 ( 41) -0.1363 ( 42)  0.1170 ( 48) -0.1047 ( 50) -0.1249 ( 54)
           0.1249 ( 62)  0.1046 ( 65) -0.1171 ( 68)  0.1019 ( 74) -0.2054 ( 75)
           0.1365 ( 76) -0.1139 ( 77) -0.1075 ( 78)  0.1743 ( 79)  0.1106 ( 86)
          -0.1106 ( 91)  0.1080 (138)
 CRD 24=   0.1461 (  7)  0.1168 (  8)  0.1286 (  9) -0.4098 ( 14)  0.1174 ( 19)
           0.1459 ( 20)  0.1287 ( 21) -0.2441 ( 37)  0.2256 ( 38)  0.1704 ( 41)
          -0.1913 ( 42)  0.1147 ( 44) -0.1073 ( 57) -0.1071 ( 61)  0.1700 ( 75)
          -0.1913 ( 76)  0.2256 ( 77) -0.2443 ( 78)  0.1147 ( 85)  0.1011 ( 99)
          -0.1010 (143)
 CRD 25=  -0.1241 ( 35) -0.1227 ( 36)  0.1978 ( 38)  0.2477 ( 40) -0.2331 ( 42)
           0.1123 ( 43)  0.1015 ( 47)  0.1262 ( 49)  0.1271 ( 55) -0.1527 ( 56)
           0.1554 ( 57)  0.1527 ( 59) -0.1555 ( 61) -0.1270 ( 63) -0.1261 ( 67)
          -0.1015 ( 69) -0.1122 ( 72)  0.1241 ( 73) -0.2477 ( 74)  0.2330 ( 76)
          -0.1976 ( 77)  0.1226 ( 79)  0.1300 ( 88) -0.1301 ( 90)  0.1108 (125)
           0.1321 (128)  0.1108 (131)  0.1321 (132)
 CRD 26=   0.1040 (  5)  0.1146 ( 14)  0.1040 ( 24)  0.1162 ( 36) -0.1825 ( 37)
           0.1179 ( 42) -0.2510 ( 49)  0.2572 ( 50) -0.1780 ( 56)  0.2324 ( 57)
          -0.1780 ( 59)  0.2324 ( 61)  0.2571 ( 65) -0.2511 ( 67)  0.1179 ( 76)
          -0.1825 ( 78)  0.1162 ( 79) -0.1819 (114) -0.1802 (115)  0.1802 (134)
           0.1819 (137)
 CRD 27=  -0.1278 (  1) -0.1275 (  2)  0.1213 (  7)  0.1139 ( 10) -0.1690 ( 14)
          -0.1066 ( 16) -0.1065 ( 17)  0.1213 ( 20)  0.1140 ( 22) -0.1279 ( 23)
          -0.1275 ( 31) -0.1639 ( 33) -0.1021 ( 35) -0.2245 ( 38) -0.1845 ( 40)
           0.1811 ( 41)  0.1072 ( 43)  0.1204 ( 46) -0.1120 ( 47)  0.1132 ( 48)
          -0.1001 ( 54) -0.1001 ( 62)  0.1133 ( 68) -0.1120 ( 69)  0.1072 ( 72)
          -0.1022 ( 73) -0.1845 ( 74)  0.1812 ( 75) -0.2246 ( 77) -0.1640 ( 81)
           0.1204 ( 84) -0.1026 ( 88) -0.1026 ( 90) -0.1077 ( 94) -0.1048 ( 97)
          -0.1110 ( 98) -0.1118 (100)  0.1110 (133)  0.1118 (146)  0.1049 (171)
           0.1077 (172)
 CRD 28=   0.1429 (  1) -0.1435 (  7) -0.3225 (  8) -0.1259 (  9) -0.1223 ( 10)
          -0.1226 ( 15)  0.1226 ( 18)  0.3225 ( 19)  0.1434 ( 20)  0.1260 ( 21)
           0.1222 ( 22) -0.1430 ( 23)  0.1016 ( 39)  0.1175 ( 40) -0.2167 ( 41)
          -0.1147 ( 48) -0.1701 ( 55)  0.1701 ( 63) -0.1016 ( 64)  0.1146 ( 68)
          -0.1174 ( 74)  0.2166 ( 75)
 CRD 29=  -0.1004 (  7) -0.1243 (  8)  0.1251 ( 19)  0.1037 ( 34) -0.2150 ( 35)
           0.1052 ( 36) -0.1114 ( 38)  0.1026 ( 39)  0.1059 ( 42)  0.1550 ( 43)
           0.1392 ( 52) -0.2071 ( 54)  0.1046 ( 55) -0.1091 ( 56)  0.1192 ( 57)
           0.1107 ( 59) -0.1199 ( 61)  0.2064 ( 62) -0.1034 ( 63) -0.1028 ( 64)
          -0.1032 ( 70) -0.1543 ( 72)  0.2139 ( 73) -0.1053 ( 76)  0.1112 ( 77)
          -0.1045 ( 79) -0.1384 ( 80) -0.1230 ( 99) -0.1196 (100) -0.1095 (105)
           0.1091 (128)  0.1081 (132) -0.1225 (143) -0.1194 (146) -0.1089 (167)
 CRD 30=   0.1261 (  5)  0.1164 (  8)  0.2255 ( 14)  0.1416 ( 16)  0.1413 ( 17)
           0.1155 ( 19)  0.1268 ( 24) -0.1431 ( 35) -0.1520 ( 37)  0.1085 ( 43)
           0.1733 ( 49) -0.1065 ( 50) -0.1186 ( 51)  0.1026 ( 52)  0.1658 ( 55)
           0.2235 ( 56) -0.1183 ( 58)  0.2228 ( 59) -0.1010 ( 62)  0.1666 ( 63)
          -0.1072 ( 65)  0.1736 ( 67)  0.1097 ( 72) -0.1447 ( 73) -0.1526 ( 78)
           0.1036 ( 80) -0.1181 (116)  0.1040 (125)  0.1326 (128) -0.1047 (131)
          -0.1334 (132)  0.1189 (140)
 CRD 31=   0.1117 (  7)  0.2554 (  8)  0.1596 ( 10)  0.2822 ( 14)  0.1857 ( 15)
           0.1469 ( 16)  0.1469 ( 17)  0.1857 ( 18)  0.2553 ( 19)  0.1118 ( 20)
           0.1596 ( 22) -0.1565 ( 39)  0.1306 ( 50) -0.2359 ( 51)  0.1155 ( 54)
           0.1397 ( 57) -0.2359 ( 58) -0.1332 ( 60)  0.1397 ( 61)  0.1155 ( 62)
          -0.1565 ( 64)  0.1306 ( 65) -0.1332 ( 66)
 CRD 32=  -0.1192 (  5) -0.1421 (  6) -0.1882 (  9)  0.1973 ( 10) -0.1642 ( 15)
           0.1514 ( 16) -0.1514 ( 17)  0.1642 ( 18)  0.1882 ( 21) -0.1973 ( 22)
           0.1192 ( 24)  0.1421 ( 25)  0.1654 ( 37)  0.1066 ( 43) -0.1066 ( 72)
          -0.1654 ( 78)  0.1198 ( 92)  0.1614 ( 93)  0.1386 ( 96) -0.1786 (113)
          -0.1066 (114) -0.1064 (115)  0.1267 (116)  0.1039 (117) -0.1064 (134)
          -0.1065 (137)  0.1267 (140)  0.1614 (142)  0.1386 (155)  0.1039 (157)
           0.1198 (158)
 CRD 33=   0.1921 ( 15) -0.1785 ( 16) -0.1787 ( 17)  0.1922 ( 18)  0.1197 ( 35)
          -0.1414 ( 43)  0.1666 ( 54) -0.1378 ( 55)  0.1664 ( 62) -0.1376 ( 63)
          -0.1413 ( 72)  0.1195 ( 73) -0.1339 ( 92) -0.1534 ( 96) -0.1511 (117)
          -0.1316 (120) -0.1379 (123) -0.1185 (124) -0.1156 (125) -0.1097 (128)
           0.1156 (131)  0.1097 (132)  0.1533 (155)  0.1377 (156)  0.1509 (157)
           0.1338 (158)  0.1183 (159)  0.1314 (160)
 CRD 34=  -0.3694 (  6)  0.1033 ( 11)  0.3694 ( 25) -0.1032 ( 27)  0.1039 ( 35)
          -0.1196 ( 43)  0.1360 ( 54) -0.1426 ( 55) -0.1362 ( 62)  0.1427 ( 63)
           0.1198 ( 72) -0.1041 ( 73) -0.1022 ( 94) -0.1203 ( 95) -0.1161 ( 97)
          -0.1101 (102) -0.1283 (104) -0.1258 (108) -0.1054 (117) -0.1059 (120)
          -0.1457 (123) -0.1462 (124) -0.1259 (149) -0.1101 (150) -0.1283 (151)
          -0.1459 (156) -0.1056 (157) -0.1463 (159) -0.1061 (160) -0.1204 (170)
          -0.1162 (171) -0.1023 (172)
 CRD 35=  -0.5350 (  6) -0.1208 ( 10)  0.1097 ( 11) -0.1083 ( 15) -0.1082 ( 18)
          -0.1210 ( 22) -0.5353 ( 25)  0.1096 ( 27) -0.1022 ( 38) -0.1037 ( 42)
          -0.1037 ( 76) -0.1022 ( 77) -0.1027 (124)  0.1027 (159)
 CRD 36=  -0.1429 (  2) -0.1443 (  3) -0.1663 (  4)  0.3332 (  6)  0.2202 ( 10)
           0.1626 ( 12) -0.2200 ( 22) -0.3328 ( 25) -0.1624 ( 26)  0.1440 ( 29)
           0.1659 ( 30)  0.1425 ( 31) -0.1203 (110) -0.1093 (111) -0.1332 (112)
          -0.1330 (152) -0.1092 (153) -0.1202 (154)
 CRD 37=  -0.2631 (  2) -0.2009 (  3) -0.2108 (  4)  0.1688 ( 11)  0.2385 ( 12)
           0.1777 ( 13)  0.1027 ( 16)  0.1029 ( 17)  0.2385 ( 26)  0.1687 ( 27)
           0.1774 ( 28) -0.2007 ( 29) -0.2106 ( 30) -0.2628 ( 31)  0.1214 ( 37)
          -0.1169 ( 41) -0.1201 ( 44) -0.1076 ( 45) -0.1169 ( 75)  0.1213 ( 78)
          -0.1075 ( 83) -0.1199 ( 85)  0.1113 ( 87)  0.1113 ( 89)
 CRD 38=  -0.2556 (  2) -0.1923 (  3) -0.1821 (  4) -0.2054 (  6)  0.1373 (  9)
          -0.1609 ( 10)  0.1663 ( 11)  0.1634 ( 12)  0.1962 ( 13) -0.1374 ( 21)
           0.1606 ( 22)  0.2050 ( 25) -0.1642 ( 26) -0.1669 ( 27) -0.1968 ( 28)
           0.1924 ( 29)  0.1822 ( 30)  0.2558 ( 31) -0.1063 ( 44)  0.1064 ( 85)
 CRD 39=  -0.3338 (  2) -0.2640 (  3) -0.3002 (  4) -0.1159 (  5) -0.1768 (  6)
          -0.3536 ( 11) -0.3957 ( 12) -0.3210 ( 13) -0.1015 ( 31)  0.1433 ( 36)
           0.1022 ( 37)  0.1635 ( 40)  0.1280 ( 41)  0.1122 ( 42) -0.1353 ( 44)
          -0.1266 ( 46) -0.1457 ( 86) -0.1612 ( 87) -0.1207 ( 88)
 CRD 40=   0.1040 ( 11)  0.1145 ( 12) -0.1180 ( 24) -0.1694 ( 25) -0.4018 ( 26)
          -0.3599 ( 27) -0.3283 ( 28) -0.2577 ( 29) -0.2943 ( 30) -0.3255 ( 31)
           0.1653 ( 74)  0.1305 ( 75)  0.1153 ( 76)  0.1402 ( 79) -0.1242 ( 84)
          -0.1319 ( 85) -0.1633 ( 89) -0.1238 ( 90) -0.1482 ( 91)
 CRD 41=  -0.1203 (  3) -0.1094 (  6)  0.1349 (  9) -0.2492 ( 10)  0.1113 ( 11)
           0.1437 ( 13)  0.3013 ( 15) -0.3056 ( 16) -0.3056 ( 17)  0.3013 ( 18)
           0.1349 ( 21) -0.2492 ( 22) -0.1094 ( 25)  0.1113 ( 27)  0.1437 ( 28)
          -0.1203 ( 29)
 CRD 42=  -0.1264 (  1) -0.1781 (  3) -0.1209 (  4) -0.1051 (  9)  0.1062 ( 11)
           0.1153 ( 13)  0.1049 ( 21)  0.1262 ( 23) -0.1061 ( 27) -0.1154 ( 28)
           0.1779 ( 29)  0.1209 ( 30)  0.1201 ( 49)  0.1125 ( 57) -0.1126 ( 61)
          -0.1201 ( 67)  0.1015 ( 94)  0.1059 (110)  0.1217 (111)  0.1274 (112)
           0.1142 (119)  0.1199 (121) -0.1071 (127) -0.1198 (129) -0.1332 (130)
          -0.1387 (135) -0.1235 (136) -0.1540 (138) -0.1387 (139) -0.1197 (144)
          -0.1331 (147) -0.1070 (148)  0.1273 (152)  0.1217 (153)  0.1058 (154)
           0.1141 (165)  0.1198 (166)  0.1014 (172)
 CRD 43=   0.1346 (  1)  0.2061 (  3)  0.1424 (  4)  0.2550 (  9) -0.1070 ( 11)
          -0.1017 ( 13)  0.1516 ( 15) -0.1134 ( 16) -0.1134 ( 17)  0.1515 ( 18)
           0.2551 ( 21)  0.1347 ( 23) -0.1071 ( 27) -0.1021 ( 28)  0.2062 ( 29)
           0.1426 ( 30)  0.1104 ( 55)  0.1105 ( 63)  0.1010 ( 92) -0.1042 ( 97)
          -0.1311 (111) -0.1221 (112)  0.1073 (117) -0.1202 (119)  0.1272 (120)
          -0.1112 (121)  0.1012 (123)  0.1211 (124)  0.1032 (130) -0.1034 (147)
           0.1221 (152)  0.1313 (153) -0.1013 (156) -0.1074 (157) -0.1010 (158)
          -0.1212 (159) -0.1272 (160)  0.1204 (165)  0.1112 (166)  0.1044 (171)
 CRD 44=  -0.1362 (  2)  0.2045 (  4) -0.1253 (  7) -0.1503 (  9)  0.1769 ( 11)
          -0.1424 ( 12)  0.1350 ( 13)  0.1178 ( 20)  0.1394 ( 21)  0.1321 ( 26)
          -0.1650 ( 27) -0.1255 ( 28) -0.1922 ( 30)  0.1286 ( 31) -0.1519 ( 46)
           0.1424 ( 84) -0.1215 ( 86)  0.1140 ( 91) -0.1596 ( 94)  0.1137 (101)
           0.1004 (102)  0.1138 (103)  0.1698 (104)  0.1831 (105)  0.1832 (106)
          -0.1383 (112) -0.1449 (121)  0.1594 (151) -0.1299 (152)  0.1720 (161)
           0.1065 (162) -0.1360 (166)  0.1721 (167)  0.1066 (168) -0.1498 (172)
 CRD 45=  -0.1111 (  2)  0.1804 (  4) -0.1152 (  7) -0.1671 (  9)  0.1845 ( 11)
          -0.1526 ( 12)  0.1372 ( 13) -0.1230 ( 20) -0.1766 ( 21) -0.1610 ( 26)
           0.1956 ( 27)  0.1452 ( 28)  0.1928 ( 30) -0.1196 ( 31) -0.1415 ( 46)
          -0.1508 ( 84) -0.1153 ( 86) -0.1230 ( 91) -0.1481 ( 94)  0.1091 (101)
           0.1118 (103)  0.1562 (104)  0.1658 (105)  0.1685 (106) -0.1263 (112)
          -0.1337 (121) -0.1058 (150) -0.1668 (151)  0.1349 (152) -0.1799 (161)
          -0.1189 (162)  0.1427 (166) -0.1773 (167) -0.1162 (168)  0.1580 (172)
 CRD 46=  -0.1065 (  2) -0.1213 (  3)  0.2804 (  4) -0.5407 ( 11)  0.4733 ( 13)
          -0.1358 ( 46)  0.2678 ( 86) -0.2389 ( 88) -0.1995 ( 95) -0.2012 (110)
          -0.2148 (118)
 CRD 47=   0.5389 ( 27) -0.4736 ( 28)  0.1249 ( 29) -0.2823 ( 30)  0.1050 ( 31)
           0.1369 ( 84)  0.2392 ( 90) -0.2669 ( 91) -0.2010 (154) -0.2146 (164)
          -0.1994 (170)
 CRD 48=   0.2685 (  3) -0.3565 (  4) -0.2795 ( 12)  0.3351 ( 13)  0.2311 ( 26)
          -0.2627 ( 28) -0.1629 ( 29)  0.2681 ( 30) -0.1099 ( 31) -0.1203 ( 45)
           0.1706 ( 46) -0.1284 ( 84)  0.1453 ( 87) -0.1561 ( 88) -0.1205 ( 89)
           0.1242 ( 90)  0.1402 (107)  0.1241 (108)  0.1155 (109)
 CRD 49=   0.3509 (  3) -0.2555 (  4) -0.1167 ( 12)  0.2001 ( 13) -0.2031 ( 26)
           0.2921 ( 28)  0.3836 ( 29) -0.3418 ( 30) -0.1674 ( 45)  0.1216 ( 46)
          -0.1799 ( 83)  0.1631 ( 84)  0.1044 ( 89) -0.1309 ( 90)  0.1400 (107)
           0.1277 (108)  0.1217 (109) -0.1498 (149) -0.1658 (163) -0.1416 (169)
 CRD 50=  -0.3201 (  2)  0.3817 (  3)  0.1662 ( 12) -0.1516 ( 26) -0.4066 ( 29)
           0.3192 ( 31)  0.1719 ( 44) -0.1946 ( 45)  0.2060 ( 83) -0.1712 ( 85)
          -0.1098 (101) -0.1093 (102) -0.1061 (103)  0.1043 (107)  0.1011 (108)
           0.1006 (109)  0.1110 (149) -0.1120 (150) -0.1077 (162)  0.1153 (163)
          -0.1130 (168)  0.1101 (169)
 CRD 51=  -0.3512 (  2)  0.2133 (  3) -0.1038 (  9)  0.2396 ( 12) -0.1517 ( 13)
          -0.1037 ( 21)  0.2444 ( 26) -0.1544 ( 28)  0.2166 ( 29) -0.3553 ( 31)
           0.2003 ( 44) -0.1227 ( 45) -0.1243 ( 83)  0.2025 ( 85) -0.1369 ( 87)
          -0.1395 ( 89)  0.1155 (104)  0.1110 (105)  0.1108 (106) -0.1169 (151)
          -0.1122 (161) -0.1125 (167)
 CRD 52=  -0.2261 (  2)  0.1792 (  4)  0.1553 (  9)  0.1623 ( 11) -0.2804 ( 12)
          -0.1528 ( 21)  0.2761 ( 26) -0.1608 ( 27) -0.1770 ( 30)  0.2244 ( 31)
           0.1436 ( 44) -0.1425 ( 85)  0.1792 ( 87) -0.1765 ( 89)  0.1674 ( 97)
          -0.1581 (101) -0.1288 (102) -0.1421 (103) -0.1107 (109)  0.1386 (111)
           0.1453 (119) -0.1274 (150)  0.1365 (153) -0.1405 (162)  0.1431 (165)
          -0.1563 (168) -0.1089 (169)  0.1649 (171)
 CRD 53=  -0.2130 (  2)  0.1755 (  4)  0.1591 (  9)  0.1606 ( 11) -0.2806 ( 12)
           0.1612 ( 21) -0.2839 ( 26)  0.1632 ( 27)  0.1779 ( 30) -0.2165 ( 31)
           0.1359 ( 44)  0.1381 ( 85)  0.1804 ( 87)  0.1825 ( 89)  0.1674 ( 97)
          -0.1557 (101) -0.1267 (102) -0.1404 (103) -0.1125 (109)  0.1382 (111)
           0.1459 (119)  0.1285 (150) -0.1397 (153)  0.1423 (162) -0.1475 (165)
           0.1578 (168)  0.1137 (169) -0.1692 (171)
 CRD 54=  -0.1147 (  9) -0.1218 ( 10)  0.4122 ( 15)  0.4352 ( 16) -0.4355 ( 17)
          -0.4126 ( 18)  0.1147 ( 21)  0.1220 ( 22)  0.1461 ( 60) -0.1462 ( 66)
          -0.1219 (136)  0.1547 (138)
 CRD 55=   0.1353 (  9)  0.1867 ( 10)  0.1155 ( 14) -0.3891 ( 15) -0.3844 ( 16)
          -0.3840 ( 17) -0.3885 ( 18)  0.1358 ( 21)  0.1868 ( 22) -0.1661 ( 60)
          -0.1659 ( 66) -0.1183 (126)  0.1031 (130)  0.1166 (135) -0.1163 (139)
           0.1184 (145) -0.1030 (147)
 CRD 56=  -0.4435 (  9) -0.3155 ( 10) -0.1518 ( 15)  0.1525 ( 18)  0.4437 ( 21)
           0.3157 ( 22) -0.1596 ( 53)  0.1597 ( 71)  0.1184 (127)  0.1367 (136)
           0.1186 (148)
 CRD 57=   0.3302 (  9)  0.3861 ( 10)  0.1381 ( 15)  0.1727 ( 16)  0.1726 ( 17)
           0.1379 ( 18)  0.3298 ( 21)  0.3855 ( 22)  0.1705 ( 53)  0.1702 ( 71)
          -0.1003 (120) -0.1167 (127)  0.1166 (148)  0.1001 (160)
 CRD 58=  -0.1331 (  9)  0.3289 ( 10)  0.1329 ( 21) -0.3292 ( 22) -0.1568 ( 92)
           0.1046 (112)  0.1176 (114)  0.1188 (115) -0.1557 (120) -0.1694 (124)
           0.1133 (129)  0.1187 (134)  0.1824 (135)  0.1835 (136)  0.1176 (137)
           0.1812 (138)  0.1824 (139)  0.1132 (144)  0.1047 (152) -0.1570 (158)
          -0.1696 (159) -0.1558 (160)
 CRD 59=  -0.2473 (  9)  0.2509 ( 10)  0.1574 ( 15) -0.1607 ( 16) -0.1603 ( 17)
           0.1572 ( 18) -0.2471 ( 21)  0.2508 ( 22)  0.1226 ( 99)  0.1174 (100)
           0.1467 (125)  0.2085 (126)  0.2034 (127)  0.1430 (128)  0.2048 (129)
           0.1997 (130) -0.1467 (131) -0.1430 (132) -0.1225 (143) -0.2047 (144)
          -0.2084 (145) -0.1174 (146) -0.1996 (147) -0.2033 (148)
 CRD 60=   0.1789 (  9) -0.1786 ( 10) -0.3393 ( 15)  0.3394 ( 16) -0.3395 ( 17)
           0.3396 ( 18) -0.1790 ( 21)  0.1788 ( 22)  0.1164 (114)  0.1142 (115)
          -0.1294 (126) -0.1253 (127) -0.1204 (129) -0.1164 (130)  0.1142 (134)
           0.1863 (135)  0.1841 (136)  0.1164 (137)  0.1885 (138)  0.1863 (139)
          -0.1206 (144) -0.1296 (145) -0.1165 (147) -0.1255 (148)
 CRD 61=  -0.1546 (  7)  0.1546 ( 20)  0.1324 ( 35)  0.1391 ( 43)  0.1824 ( 49)
           0.1825 ( 50) -0.1150 ( 54) -0.1150 ( 55)  0.1748 ( 56)  0.1711 ( 57)
          -0.1748 ( 59) -0.1712 ( 61)  0.1150 ( 62)  0.1150 ( 63) -0.1825 ( 65)
          -0.1823 ( 67) -0.1390 ( 72) -0.1323 ( 73)  0.1082 ( 99) -0.1106 (114)
           0.1158 (117) -0.1192 (118) -0.1101 (119)  0.1825 (126) -0.1667 (130)
           0.2021 (136) -0.1106 (137) -0.2161 (138)  0.1081 (143)  0.1824 (145)
          -0.1666 (147)  0.1158 (157) -0.1191 (164) -0.1100 (165)
 CRD 62=   0.1720 (  1) -0.1974 (  2) -0.1495 (  3) -0.1399 (  4)  0.1619 (  6)
           0.1723 ( 23)  0.1621 ( 25) -0.1497 ( 29) -0.1400 ( 30) -0.1976 ( 31)
          -0.1541 ( 36) -0.1486 ( 37) -0.1739 ( 38)  0.1406 ( 44)  0.1774 ( 45)
           0.1843 ( 46) -0.1741 ( 77) -0.1487 ( 78) -0.1543 ( 79)  0.1776 ( 83)
           0.1845 ( 84)  0.1408 ( 85)  0.1280 (117) -0.1555 (118) -0.1432 (119)
          -0.1281 (157)  0.1555 (164)  0.1433 (165)
 CRD 63=  -0.1611 (  1)  0.1114 (  2)  0.1035 (  3)  0.1617 (  4)  0.1690 (  5)
          -0.1687 ( 11) -0.1138 ( 12) -0.1244 ( 13)  0.1611 ( 23) -0.1697 ( 24)
           0.1144 ( 26)  0.1690 ( 27)  0.1249 ( 28) -0.1034 ( 29) -0.1618 ( 30)
          -0.1112 ( 31)  0.1171 ( 36)  0.1321 ( 37)  0.1233 ( 38) -0.1300 ( 40)
          -0.1388 ( 41) -0.1312 ( 42) -0.1421 ( 44) -0.1482 ( 45) -0.1025 ( 46)
           0.1004 ( 52)  0.1305 ( 74)  0.1392 ( 75)  0.1317 ( 76) -0.1232 ( 77)
          -0.1321 ( 78) -0.1171 ( 79) -0.1006 ( 80)  0.1482 ( 83)  0.1024 ( 84)
           0.1421 ( 85)  0.1157 ( 86)  0.1570 ( 87)  0.1509 ( 88) -0.1574 ( 89)
          -0.1514 ( 90) -0.1163 ( 91) -0.1179 (116) -0.1321 (117) -0.1271 (120)
          -0.1181 (140) -0.1323 (157) -0.1274 (160)
 CRD 64=   0.2356 (  5)  0.1088 (  6) -0.1669 ( 11) -0.2085 ( 12) -0.1716 ( 13)
           0.2359 ( 24)  0.1094 ( 25) -0.2089 ( 26) -0.1667 ( 27) -0.1717 ( 28)
          -0.1762 ( 40) -0.1760 ( 41) -0.1870 ( 42) -0.1764 ( 74) -0.1760 ( 75)
          -0.1872 ( 76)  0.2034 ( 86)  0.1678 ( 87)  0.1999 ( 88)  0.1677 ( 89)
           0.2000 ( 90)  0.2038 ( 91)  0.1100 (103)  0.1167 (107) -0.1149 (117)
          -0.1201 (120)  0.1146 (157)  0.1199 (160) -0.1101 (162) -0.1167 (163)
 CRD 65=   0.1686 (  1) -0.1818 (  2) -0.1112 (  3)  0.1702 (  5)  0.1706 (  6)
          -0.1887 ( 12) -0.1210 ( 13) -0.1687 ( 23) -0.1694 ( 24) -0.1700 ( 25)
           0.1879 ( 26)  0.1203 ( 28)  0.1111 ( 29)  0.1815 ( 31) -0.1193 ( 36)
          -0.1067 ( 37) -0.1377 ( 38) -0.1228 ( 40) -0.1133 ( 41) -0.1384 ( 42)
           0.1364 ( 45)  0.1657 ( 46)  0.1222 ( 74)  0.1127 ( 75)  0.1377 ( 76)
           0.1376 ( 77)  0.1068 ( 78)  0.1193 ( 79) -0.1364 ( 83) -0.1655 ( 84)
           0.1779 ( 86)  0.1370 ( 88) -0.1363 ( 90) -0.1771 ( 91)
 CRD 66=  -0.1179 (  1)  0.1324 (  2) -0.1570 (  6)  0.2275 ( 14) -0.1180 ( 23)
          -0.1567 ( 25)  0.1323 ( 31)  0.1636 ( 35)  0.1593 ( 43) -0.1197 ( 45)
          -0.1477 ( 54) -0.1020 ( 55) -0.1132 ( 57) -0.1132 ( 61) -0.1477 ( 62)
          -0.1021 ( 63)  0.1593 ( 72)  0.1636 ( 73) -0.1197 ( 83)  0.1030 (106)
           0.1073 (107) -0.1234 (118) -0.1421 (121)  0.1134 (126) -0.1204 (128)
          -0.1866 (130)  0.1203 (132) -0.1135 (145)  0.1865 (147) -0.1029 (161)
          -0.1072 (163)  0.1233 (164)  0.1419 (166)
 CRD 67=  -0.2340 (  1)  0.1602 (  3)  0.1249 (  4) -0.1312 (  5)  0.2523 (  6)
          -0.1547 (  7) -0.1198 ( 10)  0.1240 ( 11)  0.1081 ( 13)  0.1150 ( 14)
          -0.1546 ( 20) -0.1196 ( 22) -0.2338 ( 23) -0.1311 ( 24)  0.2520 ( 25)
           0.1238 ( 27)  0.1079 ( 28)  0.1599 ( 29)  0.1248 ( 30)  0.1027 ( 36)
           0.1005 ( 37) -0.1785 ( 44) -0.1075 ( 55) -0.1075 ( 63)  0.1004 ( 78)
           0.1026 ( 79) -0.1782 ( 85) -0.1542 ( 87) -0.1540 ( 89) -0.1194 (124)
           0.1193 (159)
 CRD 68=   0.1380 (  1) -0.1646 (  3) -0.3027 (  6)  0.1061 (  7)  0.1201 ( 10)
          -0.1043 ( 11)  0.1300 ( 12) -0.1364 ( 13) -0.1061 ( 20) -0.1203 ( 22)
          -0.1382 ( 23)  0.3032 ( 25) -0.1302 ( 26)  0.1045 ( 27)  0.1366 ( 28)
           0.1648 ( 29)  0.1676 ( 44) -0.1679 ( 85)  0.1671 ( 87) -0.1674 ( 89)
           0.1227 ( 97) -0.1187 (101)  0.1195 (106) -0.1215 (112) -0.1383 (121)
          -0.1217 (152)  0.1197 (161) -0.1385 (166) -0.1189 (168)  0.1229 (171)
 CRD 69=  -0.2055 (  1)  0.1220 (  4) -0.1114 (  5)  0.2262 (  8)  0.1473 ( 11)
          -0.2262 ( 19)  0.2054 ( 23)  0.1112 ( 24) -0.1471 ( 27) -0.1219 ( 30)
          -0.1253 ( 45) -0.1191 ( 48) -0.1135 ( 50)  0.1135 ( 65)  0.1190 ( 68)
           0.1252 ( 83) -0.1188 ( 88)  0.1187 ( 90)  0.1645 (107) -0.2134 (118)
           0.1324 (127) -0.1672 (136)  0.1324 (148)  0.1643 (163) -0.2132 (164)
 CRD 70=   0.1389 (  3) -0.1374 (  4)  0.2262 (  5) -0.1859 (  7) -0.1286 (  9)
          -0.1152 ( 11)  0.1118 ( 14) -0.1858 ( 20) -0.1283 ( 21)  0.2263 ( 24)
          -0.1153 ( 27)  0.1390 ( 29) -0.1376 ( 30)  0.1145 ( 45)  0.1123 ( 48)
          -0.1099 ( 52)  0.1125 ( 68) -0.1099 ( 80)  0.1146 ( 83)  0.1365 ( 88)
           0.1366 ( 90) -0.1066 (106) -0.2362 (107) -0.1053 (108)  0.1439 (117)
           0.1370 (118)  0.1053 (149) -0.1437 (157)  0.1065 (161)  0.2364 (163)
          -0.1372 (164)
 CRD 71=   0.1082 (  4)  0.2310 ( 15) -0.2442 ( 16)  0.2444 ( 17) -0.2311 ( 18)
          -0.1078 ( 30)  0.1104 ( 35) -0.1332 ( 49)  0.1330 ( 67) -0.1105 ( 73)
          -0.1218 (104) -0.1024 (113) -0.1420 (126) -0.1148 (127) -0.1856 (129)
          -0.1583 (130)  0.2123 (135)  0.1767 (136)  0.2480 (138)  0.2124 (139)
          -0.1857 (144) -0.1421 (145) -0.1586 (147) -0.1150 (148) -0.1217 (151)
 CRD 72=  -0.1559 (  1)  0.1191 (  3) -0.1281 (  4)  0.2412 (  5)  0.1322 (  8)
          -0.1395 (  9) -0.1321 ( 19)  0.1395 ( 21)  0.1555 ( 23) -0.2410 ( 24)
          -0.1191 ( 29)  0.1281 ( 30) -0.1485 ( 46) -0.1146 ( 52)  0.1006 ( 53)
          -0.1126 ( 54)  0.1127 ( 62) -0.1005 ( 71)  0.1146 ( 80)  0.1483 ( 84)
           0.1090 ( 96) -0.1824 (107)  0.1080 (116)  0.2327 (117)  0.1138 (123)
          -0.1253 (126)  0.1078 (140) -0.1252 (145)  0.1090 (155)  0.1138 (156)
           0.2325 (157) -0.1825 (163)
 CRD 73=   0.2197 (  1) -0.1065 (  2) -0.1421 (  5) -0.1140 (  7) -0.1636 ( 11)
           0.1621 ( 13)  0.1841 ( 14) -0.1137 ( 20)  0.2200 ( 23) -0.1425 ( 24)
          -0.1635 ( 27)  0.1620 ( 28) -0.1067 ( 31) -0.1031 ( 33)  0.1072 ( 46)
          -0.1032 ( 81)  0.1075 ( 84) -0.1695 ( 86) -0.1695 ( 91)  0.1274 ( 95)
           0.1084 (110) -0.1186 (116) -0.1687 (117)  0.2094 (118) -0.1162 (120)
           0.1220 (126)  0.1188 (140) -0.1221 (145) -0.1084 (154)  0.1691 (157)
           0.1163 (160) -0.2095 (164) -0.1274 (170)
 CRD 74=   0.1889 (  7) -0.1862 (  8)  0.1578 ( 15)  0.1364 ( 16) -0.1365 ( 17)
          -0.1576 ( 18)  0.1862 ( 19) -0.1890 ( 20)  0.1212 ( 53) -0.2414 ( 60)
           0.2413 ( 66) -0.1212 ( 71) -0.1300 (114)  0.1249 (115) -0.1850 (126)
           0.1757 (130)  0.1250 (134)  0.2633 (136) -0.1299 (137) -0.2464 (138)
          -0.1849 (145)  0.1758 (147)
 CRD 75=   0.1283 (  2) -0.2144 (  4)  0.1860 (  9) -0.1127 ( 10)  0.1355 ( 14)
          -0.1314 ( 15) -0.1315 ( 18)  0.1860 ( 21) -0.1128 ( 22) -0.2144 ( 30)
           0.1282 ( 31)  0.1036 ( 44) -0.1564 ( 46) -0.1309 ( 56) -0.1311 ( 59)
          -0.1564 ( 84)  0.1036 ( 85) -0.1507 ( 98)  0.1919 (104)  0.1483 (105)
           0.1400 (106) -0.1172 (107) -0.1089 (109)  0.1572 (126)  0.1172 (129)
           0.1508 (133) -0.1170 (144) -0.1573 (145) -0.1919 (151) -0.1399 (161)
           0.1172 (163) -0.1483 (167)  0.1089 (169)
 CRD 76=   0.1196 (  7) -0.1688 (  8)  0.2010 ( 11) -0.1587 ( 13) -0.1089 ( 16)
           0.1085 ( 17)  0.1689 ( 19) -0.1197 ( 20) -0.2010 ( 27)  0.1589 ( 28)
          -0.1013 ( 43)  0.1206 ( 54)  0.1143 ( 55) -0.1208 ( 62) -0.1142 ( 63)
           0.1010 ( 72)  0.1595 ( 86) -0.1138 ( 88)  0.1139 ( 90) -0.1596 ( 91)
           0.1049 ( 92)  0.1089 ( 94) -0.1379 ( 95) -0.1118 (100) -0.1022 (110)
           0.1447 (112) -0.1634 (118)  0.1454 (120)  0.1129 (124) -0.1507 (127)
          -0.1120 (146) -0.1504 (148)  0.1445 (152) -0.1024 (154)  0.1048 (158)
           0.1127 (159)  0.1453 (160) -0.1635 (164) -0.1381 (170)  0.1088 (172)
 CRD 77=   0.1588 (  2) -0.1562 (  3) -0.1284 ( 10) -0.1180 ( 11)  0.1559 ( 13)
          -0.1386 ( 14) -0.1284 ( 22) -0.1181 ( 27)  0.1563 ( 28) -0.1567 ( 29)
           0.1591 ( 31)  0.1139 ( 44) -0.1235 ( 45)  0.1320 ( 53)  0.1320 ( 71)
          -0.1239 ( 83)  0.1142 ( 85)  0.1241 ( 88)  0.1245 ( 90) -0.1376 ( 97)
          -0.1482 (101) -0.1133 (102) -0.1480 (103) -0.1286 (111) -0.1201 (119)
          -0.1049 (124)  0.1308 (130) -0.1307 (147)  0.1137 (150)  0.1290 (153)
           0.1049 (159)  0.1484 (162)  0.1205 (165)  0.1487 (168)  0.1381 (171)
 CRD 78=   0.1648 (  2) -0.1971 (  3) -0.1892 ( 12)  0.1582 ( 13)  0.1898 ( 26)
          -0.1582 ( 28)  0.1971 ( 29) -0.1648 ( 31)  0.1023 ( 36)  0.1155 ( 44)
          -0.1571 ( 45) -0.1023 ( 79)  0.1571 ( 83) -0.1155 ( 85) -0.1334 ( 87)
           0.1281 ( 88)  0.1338 ( 89) -0.1280 ( 90) -0.1956 ( 97) -0.1983 (101)
          -0.1630 (102) -0.1857 (103) -0.1478 (111) -0.1742 (119) -0.1631 (150)
          -0.1478 (153) -0.1857 (162) -0.1743 (165) -0.1985 (168) -0.1958 (171)
 CRD 79=  -0.1030 (  2)  0.1184 (  3) -0.1138 ( 10) -0.1105 ( 11)  0.2089 ( 12)
          -0.1607 ( 14) -0.1137 ( 22)  0.2083 ( 26) -0.1106 ( 27)  0.1178 ( 29)
          -0.1024 ( 31)  0.1230 ( 53)  0.1230 ( 71)  0.1525 ( 87)  0.1521 ( 89)
          -0.1222 ( 92) -0.1091 ( 94)  0.1488 ( 97)  0.1423 (101)  0.1162 (102)
           0.1158 (103)  0.1022 (111) -0.1557 (112)  0.1267 (119) -0.1228 (120)
          -0.1313 (121) -0.1433 (124)  0.1219 (130) -0.1218 (147) -0.1157 (150)
           0.1555 (152) -0.1017 (153)  0.1221 (158)  0.1432 (159)  0.1227 (160)
          -0.1151 (162) -0.1261 (165)  0.1311 (166) -0.1416 (168) -0.1481 (171)
           0.1091 (172)
 CRD 80=  -0.1358 (  7)  0.2627 (  8) -0.2951 ( 14)  0.2627 ( 19) -0.1359 ( 20)
          -0.1625 ( 49) -0.1640 ( 50)  0.1560 ( 56)  0.1560 ( 57)  0.1560 ( 59)
           0.1560 ( 61) -0.1640 ( 65) -0.1625 ( 67) -0.1277 (114)  0.1302 (115)
           0.1010 (125)  0.1589 (127) -0.1499 (129) -0.1011 (131) -0.1301 (134)
          -0.2579 (135)  0.1277 (137)  0.2579 (139)  0.1500 (144) -0.1590 (148)
 CRD 81=  -0.1090 (  2)  0.1702 (  4)  0.1144 (  5) -0.1412 (  9) -0.1299 ( 15)
           0.1299 ( 18)  0.1411 ( 21) -0.1143 ( 24) -0.1702 ( 30)  0.1090 ( 31)
           0.1153 ( 46)  0.1061 ( 53)  0.1043 ( 60) -0.1043 ( 66) -0.1061 ( 71)
          -0.1153 ( 84) -0.1336 ( 93)  0.1346 ( 99) -0.1059 (104) -0.1113 (105)
          -0.1970 (106)  0.1191 (108)  0.1137 (109)  0.1024 (113)  0.1291 (117)
          -0.1298 (125) -0.1579 (127)  0.1481 (129) -0.1297 (131) -0.1288 (136)
          -0.1336 (142)  0.1346 (143)  0.1480 (144) -0.1577 (148)  0.1190 (149)
          -0.1059 (151)  0.1290 (157) -0.1970 (161) -0.1113 (167)  0.1136 (169)
 CRD 82=  -0.1048 (  2) -0.1283 (  7)  0.1777 ( 10)  0.1240 ( 16) -0.1241 ( 17)
           0.1283 ( 20) -0.1778 ( 22)  0.1049 ( 31) -0.1399 ( 53)  0.1400 ( 71)
          -0.1179 ( 93)  0.1264 ( 94)  0.1414 (100) -0.1309 (105) -0.1301 (106)
           0.1293 (113)  0.1230 (121)  0.1429 (124)  0.1595 (127) -0.1600 (128)
          -0.1706 (129) -0.1600 (132) -0.1184 (138) -0.1179 (142) -0.1707 (144)
           0.1414 (146)  0.1595 (148)  0.1430 (159) -0.1301 (161)  0.1230 (166)
          -0.1310 (167)  0.1265 (172)
 CRD 83=  -0.1102 (  1)  0.1397 (  5)  0.1784 ( 14) -0.1504 ( 15) -0.1504 ( 18)
          -0.1101 ( 23)  0.1397 ( 24) -0.1442 ( 51) -0.1195 ( 52) -0.1441 ( 58)
           0.1676 ( 60)  0.1677 ( 66) -0.1195 ( 80) -0.1092 (100) -0.1406 (106)
           0.1173 (108)  0.1002 (109)  0.1458 (115)  0.1011 (116) -0.1036 (121)
          -0.1079 (127)  0.1521 (129) -0.1458 (134) -0.2086 (135)  0.2087 (139)
          -0.1010 (140) -0.1521 (144)  0.1091 (146)  0.1078 (148) -0.1173 (149)
           0.1407 (161)  0.1034 (166) -0.1003 (169)
 CRD 84=   0.1179 (  1) -0.2108 (  7) -0.1058 ( 13) -0.2108 ( 20)  0.1178 ( 23)
          -0.1058 ( 28) -0.1432 ( 32)  0.1404 ( 48)  0.1404 ( 68) -0.1431 ( 82)
          -0.1576 ( 95) -0.1670 (103) -0.1551 (106)  0.1317 (108)  0.1490 (109)
          -0.1539 (110)  0.1899 (119)  0.1702 (121)  0.1025 (127) -0.1025 (148)
          -0.1317 (149)  0.1538 (154)  0.1551 (161)  0.1671 (162) -0.1899 (165)
          -0.1701 (166) -0.1490 (169)  0.1576 (170)
 CRD 85=   0.1524 (  1) -0.1027 (  3) -0.1778 (  7) -0.1195 ( 13)  0.1779 ( 20)
          -0.1524 ( 23)  0.1195 ( 28)  0.1027 ( 29) -0.1104 ( 32) -0.1310 ( 33)
           0.1138 ( 40)  0.1115 ( 47)  0.1274 ( 48) -0.1274 ( 68) -0.1115 ( 69)
          -0.1138 ( 74)  0.1312 ( 81)  0.1104 ( 82) -0.1985 ( 95) -0.1625 (103)
           0.1474 (109) -0.1763 (110)  0.2253 (119) -0.1217 (120)  0.1791 (121)
           0.1010 (123) -0.1763 (154)  0.1010 (156) -0.1217 (160) -0.1625 (162)
           0.2254 (165)  0.1791 (166)  0.1474 (169) -0.1985 (170)
 CRD 86=  -0.1040 (  5)  0.1365 (  8)  0.1179 ( 14) -0.1470 ( 16) -0.1470 ( 17)
           0.1363 ( 19) -0.1036 ( 24) -0.1260 ( 33) -0.1096 ( 39)  0.1073 ( 47)
          -0.1225 ( 51) -0.1223 ( 58)  0.1179 ( 60) -0.1093 ( 64)  0.1178 ( 66)
           0.1072 ( 69) -0.1259 ( 81) -0.1139 ( 95)  0.1550 ( 96)  0.1008 ( 98)
          -0.1141 (102)  0.1307 (105) -0.1556 (114)  0.1155 (119) -0.1456 (120)
           0.1001 (123) -0.1621 (127)  0.1215 (128) -0.1214 (132) -0.1007 (133)
          -0.1523 (135)  0.1557 (137)  0.1523 (139)  0.1617 (148)  0.1141 (150)
          -0.1546 (155)  0.1452 (160) -0.1156 (165) -0.1308 (167)  0.1140 (170)
 CRD 87=  -0.1151 (  1)  0.1276 (  5) -0.1099 (  7)  0.1399 (  9)  0.1098 ( 20)
          -0.1401 ( 21)  0.1155 ( 23) -0.1279 ( 24)  0.1377 ( 34)  0.1132 ( 39)
          -0.1462 ( 52) -0.1082 ( 53) -0.1136 ( 64) -0.1378 ( 70)  0.1085 ( 71)
           0.1463 ( 80) -0.1380 ( 94) -0.1365 ( 96) -0.1113 ( 99) -0.1332 (103)
           0.1269 (109)  0.1013 (110)  0.1361 (111)  0.1734 (116)  0.1570 (120)
          -0.1999 (123)  0.1047 (125)  0.1027 (127)  0.1047 (131)  0.1737 (140)
          -0.1115 (143)  0.1030 (148)  0.1361 (153)  0.1017 (154) -0.1369 (155)
          -0.2003 (156)  0.1576 (160) -0.1001 (161) -0.1331 (162)  0.1267 (169)
          -0.1379 (172)
 CRD 88=  -0.1393 (  6) -0.1161 ( 15) -0.1160 ( 18) -0.1393 ( 25) -0.1096 ( 34)
           0.1123 ( 52) -0.1096 ( 70)  0.1122 ( 80) -0.1178 ( 92)  0.1738 ( 94)
           0.1101 (102)  0.1033 (103) -0.1435 (105) -0.1146 (109) -0.1127 (110)
          -0.1687 (111)  0.1352 (115) -0.1115 (120)  0.1710 (123) -0.1362 (125)
           0.1054 (129)  0.1361 (131) -0.1351 (134) -0.1054 (144) -0.1102 (150)
           0.1687 (153)  0.1128 (154) -0.1710 (156)  0.1180 (158)  0.1116 (160)
          -0.1032 (162)  0.1435 (167)  0.1145 (169) -0.1737 (172)
 CRD 89=  -0.1451 (  6) -0.1328 ( 10)  0.1329 ( 22)  0.1451 ( 25)  0.1070 ( 43)
           0.1004 ( 48) -0.1005 ( 68) -0.1071 ( 72) -0.1844 ( 92)  0.1255 ( 94)
          -0.1356 ( 96) -0.1468 ( 99) -0.1512 (100)  0.1691 (102) -0.1363 (105)
           0.1326 (108) -0.1377 (111) -0.1326 (113)  0.1315 (116)  0.1862 (122)
           0.1317 (140)  0.1863 (141) -0.1470 (143) -0.1513 (146)  0.1327 (149)
           0.1691 (150) -0.1376 (153) -0.1357 (155) -0.1844 (158) -0.1362 (167)
           0.1254 (172)
 CRD 90=  -0.1150 ( 10)  0.1185 ( 15) -0.1182 ( 16) -0.1181 ( 17)  0.1184 ( 18)
          -0.1149 ( 22)  0.1034 ( 56)  0.1034 ( 59) -0.1294 ( 92) -0.1076 ( 96)
          -0.1734 ( 99) -0.1723 (100)  0.1123 (102) -0.1918 (114) -0.1904 (115)
           0.1515 (116)  0.1722 (122)  0.1822 (125)  0.1961 (128) -0.1821 (131)
          -0.1960 (132)  0.1903 (134)  0.1918 (137) -0.1514 (140) -0.1720 (141)
           0.1733 (143)  0.1721 (146) -0.1122 (150)  0.1074 (155)  0.1292 (158)

 THE DETERMINANT OF THE G MATRIX IS 10**(   -32)


                     --------------------
                     INTERNAL COORDINATES
                     --------------------

                 - - ATOMS - -         COORDINATE      COORDINATE
 NO.   TYPE    I  J  K  L  M  N        (BOHR,RAD)       (ANG,DEG)
 ----------------------------------------------------------------
   1 STRETCH   1  2                     2.8924698       1.5306292
   2 STRETCH   1  5                     2.0702507       1.0955296
   3 STRETCH   1  4                     2.0696371       1.0952048
   4 STRETCH   1  3                     2.0694902       1.0951271
   5 STRETCH   2  8                     2.8896613       1.5291430
   6 STRETCH   2  7                     2.0745429       1.0978009
   7 STRETCH   2  6                     2.9099003       1.5398530
   8 STRETCH   6 11                     2.8944285       1.5316657
   9 STRETCH   6 10                     2.0737992       1.0974074
  10 STRETCH   6  9                     2.0750227       1.0980548
  11 STRETCH   8 29                     2.0673786       1.0940097
  12 STRETCH   8 28                     2.0700880       1.0954435
  13 STRETCH   8 27                     2.0700219       1.0954085
  14 STRETCH  11 14                     2.8946228       1.5317685
  15 STRETCH  11 13                     2.0692650       1.0950080
  16 STRETCH  11 12                     2.0733631       1.0971766
  17 STRETCH  14 15                     2.0731797       1.0970795
  18 STRETCH  14 16                     2.0693321       1.0950435
  19 STRETCH  14 17                     2.8946436       1.5317795
  20 STRETCH  17 20                     2.9098003       1.5398001
  21 STRETCH  17 19                     2.0736301       1.0973179
  22 STRETCH  17 18                     2.0750216       1.0980542
  23 STRETCH  20 23                     2.8926669       1.5307335
  24 STRETCH  20 22                     2.8899278       1.5292840
  25 STRETCH  20 21                     2.0743540       1.0977010
  26 STRETCH  22 31                     2.0698994       1.0953437
  27 STRETCH  22 30                     2.0674583       1.0940519
  28 STRETCH  22 32                     2.0698446       1.0953147
  29 STRETCH  23 26                     2.0694734       1.0951183
  30 STRETCH  23 25                     2.0693362       1.0950456
  31 STRETCH  23 24                     2.0702276       1.0955173
  32 BEND      1  2  8                  1.9147565     109.7074661
  33 BEND      1  2  7                  1.8811944     107.7844968
  34 BEND      1  2  6                  1.9165739     109.8115969
  35 BEND      2  6 10                  1.8980655     108.7511440
  36 BEND      2  1  4                  1.9345909     110.8438960
  37 BEND      2  1  3                  1.9347008     110.8501895
  38 BEND      2  1  5                  1.9420700     111.2724145
  39 BEND      2  6 11                  1.9809227     113.4985108
  40 BEND      2  8 27                  1.9331938     110.7638472
  41 BEND      2  8 29                  1.9442076     111.3948886
  42 BEND      2  8 28                  1.9415527     111.2427742
  43 BEND      2  6  9                  1.9154952     109.7497905
  44 BEND      3  1  4                  1.8788775     107.6517510
  45 BEND      3  1  5                  1.8858341     108.0503323
  46 BEND      4  1  5                  1.8855028     108.0313552
  47 BEND      6  2  8                  1.9635892     112.5053740
  48 BEND      6  2  7                  1.8968794     108.6831827
  49 BEND      6 11 13                  1.9213651     110.0861113
  50 BEND      6 11 12                  1.9126308     109.5856740
  51 BEND      6 11 14                  1.9410268     111.2126440
  52 BEND      7  2  8                  1.8887633     108.2181655
  53 BEND      9  6 10                  1.8602821     106.5863135
  54 BEND      9  6 11                  1.9081682     109.3299842
  55 BEND     10  6 11                  1.8969325     108.6862282
  56 BEND     11 14 15                  1.9107032     109.4752302
  57 BEND     11 14 16                  1.9028129     109.0231465
  58 BEND     11 14 17                  1.9410370     111.2132281
  59 BEND     12 11 14                  1.9106181     109.4703513
  60 BEND     12 11 13                  1.8740846     107.3771369
  61 BEND     13 11 14                  1.9028514     109.0253551
  62 BEND     14 17 18                  1.9080862     109.3252865
  63 BEND     14 17 19                  1.8967860     108.6778301
  64 BEND     14 17 20                  1.9808624     113.4950568
  65 BEND     15 14 17                  1.9125930     109.5835075
  66 BEND     15 14 16                  1.8741642     107.3817008
  67 BEND     16 14 17                  1.9212698     110.0806515
  68 BEND     17 20 21                  1.8969599     108.6877939
  69 BEND     17 20 22                  1.9635965     112.5057926
  70 BEND     17 20 23                  1.9165265     109.8088800
  71 BEND     18 17 19                  1.8603922     106.5926229
  72 BEND     18 17 20                  1.9156224     109.7570774
  73 BEND     19 17 20                  1.8981263     108.7546242
  74 BEND     20 22 32                  1.9331193     110.7595770
  75 BEND     20 22 30                  1.9439883     111.3823249
  76 BEND     20 22 31                  1.9415912     111.2449801
  77 BEND     20 23 24                  1.9419908     111.2678785
  78 BEND     20 23 25                  1.9345391     110.8409285
  79 BEND     20 23 26                  1.9345563     110.8419103
  80 BEND     21 20 22                  1.8888007     108.2203089
  81 BEND     21 20 23                  1.8812450     107.7873964
  82 BEND     22 20 23                  1.9146340     109.7004471
  83 BEND     24 23 25                  1.8859520     108.0570877
  84 BEND     24 23 26                  1.8855882     108.0362471
  85 BEND     25 23 26                  1.8789645     107.6567339
  86 BEND     27  8 28                  1.8838042     107.9340300
  87 BEND     27  8 29                  1.8699913     107.1426108
  88 BEND     28  8 29                  1.8883399     108.1939054
  89 BEND     30 22 32                  1.8700553     107.1462788
  90 BEND     30 22 31                  1.8884193     108.1984550
  91 BEND     31 22 32                  1.8839302     107.9412479
  92 TORSION   1  2  6 10              -0.9232304     -52.8972071
  93 TORSION   1  2  6 11              -3.0368289    -173.9974789
  94 TORSION   1  2  8 27               0.9337629      53.5006718
  95 TORSION   1  2  8 28              -1.1614438     -66.5458280
  96 TORSION   1  2  6  9               1.1055980      63.3460992
  97 TORSION   1  2  8 29               3.0133262     172.6508743
  98 TORSION   2  6 11 14               3.0525330     174.8972604
  99 TORSION   2  6 11 12               0.9376939      53.7259056
 100 TORSION   2  6 11 13              -1.1197192     -64.1551824
 101 TORSION   3  1  2  8              -3.0991054    -177.5656613
 102 TORSION   3  1  2  6               1.0174421      58.2951368
 103 TORSION   3  1  2  7              -1.0461965     -59.9426464
 104 TORSION   4  1  2  6               3.1028704     177.7813803
 105 TORSION   4  1  2  8              -1.0136771     -58.0794177
 106 TORSION   4  1  2  7               1.0392318      59.5435972
 107 TORSION   5  1  2  7               3.1378640     179.7863642
 108 TORSION   5  1  2  6              -1.0816827     -61.9758526
 109 TORSION   5  1  2  8               1.0849551      62.1633493
 110 TORSION   6  2  8 28               0.9775380      56.0088012
 111 TORSION   6  2  8 29              -1.1308773     -64.7944965
 112 TORSION   6  2  8 27               3.0727447     176.0553010
 113 TORSION   6 11 14 17              -3.1415349    -179.9966895
 114 TORSION   6 11 14 16              -1.0199059     -58.4363021
 115 TORSION   6 11 14 15               1.0256167      58.7635090
 116 TORSION   7  2  6 11              -0.9829254     -56.3174778
 117 TORSION   7  2  6  9              -3.1236838    -178.9738998
 118 TORSION   7  2  8 28               3.0735598     176.1020032
 119 TORSION   7  2  8 29               0.9651445      55.2987055
 120 TORSION   7  2  6 10               1.1306731      64.7827940
 121 TORSION   7  2  8 27              -1.1144189     -63.8514970
 122 TORSION   8  2  6 11               1.1083984      63.5065509
 123 TORSION   8  2  6  9              -1.0323600     -59.1498710
 124 TORSION   8  2  6 10              -3.0611884    -175.3931773
 125 TORSION   9  6 11 14              -1.0858545     -62.2148824
 126 TORSION   9  6 11 12               3.0824917     176.6137628
 127 TORSION   9  6 11 13               1.0250786      58.7326749
 128 TORSION  10  6 11 14               0.9382986      53.7605513
 129 TORSION  10  6 11 12              -1.1765405     -67.4108035
 130 TORSION  10  6 11 13               3.0492317     174.7081086
 131 TORSION  11 14 17 18               1.0858550      62.2149081
 132 TORSION  11 14 17 19              -0.9383033     -53.7608203
 133 TORSION  11 14 17 20              -3.0524711    -174.8937086
 134 TORSION  12 11 14 17              -1.0255173     -58.7578121
 135 TORSION  12 11 14 16               1.0961117      62.8025753
 136 TORSION  12 11 14 15              -3.1415510    -179.9976136
 137 TORSION  13 11 14 17               1.0198831      58.4349964
 138 TORSION  13 11 14 16               3.1415121     179.9953837
 139 TORSION  13 11 14 15              -1.0961506     -62.8048051
 140 TORSION  14 17 20 21               0.9828483      56.3130590
 141 TORSION  14 17 20 22              -1.1085810     -63.5170105
 142 TORSION  14 17 20 23               3.0368328     173.9977013
 143 TORSION  15 14 17 20              -0.9375438     -53.7173018
 144 TORSION  15 14 17 19               1.1766240      67.4155865
 145 TORSION  15 14 17 18              -3.0824030    -176.6086851
 146 TORSION  16 14 17 20               1.1198870      64.1647973
 147 TORSION  16 14 17 19              -3.0491306    -174.7023144
 148 TORSION  16 14 17 18              -1.0249723     -58.7265860
 149 TORSION  17 20 23 24               1.0815989      61.9710542
 150 TORSION  17 20 23 25              -1.0175132     -58.2992115
 151 TORSION  17 20 23 26              -3.1029224    -177.7843601
 152 TORSION  17 20 22 32              -3.0727388    -176.0549674
 153 TORSION  17 20 22 30               1.1309949      64.8012360
 154 TORSION  17 20 22 31              -0.9773976     -56.0007569
 155 TORSION  18 17 20 23              -1.1056482     -63.3489729
 156 TORSION  18 17 20 22               1.0321234      59.1363154
 157 TORSION  18 17 20 21               3.1235527     178.9663849
 158 TORSION  19 17 20 23               0.9234175      52.9079236
 159 TORSION  19 17 20 22               3.0611890     175.3932119
 160 TORSION  19 17 20 21              -1.1305670     -64.7767186
 161 TORSION  21 20 23 26              -1.0391843     -59.5408720
 162 TORSION  21 20 23 25               1.0462250      59.9442766
 163 TORSION  21 20 23 24              -3.1378482    -179.7854576
 164 TORSION  21 20 22 31              -3.0735494    -176.1014076
 165 TORSION  21 20 22 30              -0.9651569     -55.2994147
 166 TORSION  21 20 22 32               1.1142947      63.8443819
 167 TORSION  22 20 23 26               1.0137310      58.0825083
 168 TORSION  22 20 23 25               3.0991403     177.5676569
 169 TORSION  22 20 23 24              -1.0849329     -62.1620773
 170 TORSION  23 20 22 31               1.1614402      66.5456198
 171 TORSION  23 20 22 30              -3.0133526    -172.6523873
 172 TORSION  23 20 22 32              -0.9339011     -53.5085908

     ------------------------------------------
     THE POINT GROUP IS C1 , NAXIS= 1, ORDER= 1
     ------------------------------------------

     DIMENSIONS OF THE SYMMETRY SUBSPACES ARE
 A   =  322

 ..... DONE SETTING UP THE RUN .....
 STEP CPU TIME =     0.04 TOTAL CPU TIME =        0.0 (    0.0 MIN)
 TOTAL WALL CLOCK TIME=        0.1 SECONDS, CPU UTILIZATION IS  80.00%


          -----------------------------
          STATIONARY POINT LOCATION RUN
          -----------------------------

 OBTAINING INITIAL HESSIAN, HESS=GUESS   
 DIAGONAL GUESS HESSIAN IN INTERNAL COORDS IS
     1  0.3667     2  0.3427     3  0.3429     4  0.3429     5  0.3678
     6  0.3412     7  0.3602     8  0.3660     9  0.3414    10  0.3410
    11  0.3437    12  0.3427    13  0.3427    14  0.3659    15  0.3430
    16  0.3416    17  0.3416    18  0.3430    19  0.3659    20  0.3602
    21  0.3415    22  0.3410    23  0.3666    24  0.3677    25  0.3412
    26  0.3428    27  0.3437    28  0.3428    29  0.3429    30  0.3430
    31  0.3427    32  0.2485    33  0.2236    34  0.2478    35  0.2231
    36  0.2237    37  0.2237    38  0.2237    39  0.2477    40  0.2238
    41  0.2239    42  0.2238    43  0.2230    44  0.2029    45  0.2029
    46  0.2029    47  0.2479    48  0.2230    49  0.2237    50  0.2236
    51  0.2482    52  0.2237    53  0.2026    54  0.2235    55  0.2235
    56  0.2236    57  0.2237    58  0.2482    59  0.2235    60  0.2028
    61  0.2237    62  0.2235    63  0.2235    64  0.2477    65  0.2236
    66  0.2028    67  0.2237    68  0.2230    69  0.2479    70  0.2478
    71  0.2026    72  0.2230    73  0.2231    74  0.2238    75  0.2239
    76  0.2238    77  0.2237    78  0.2237    79  0.2237    80  0.2237
    81  0.2236    82  0.2485    83  0.2029    84  0.2029    85  0.2029
    86  0.2029    87  0.2029    88  0.2029    89  0.2029    90  0.2029
    91  0.2029    92  0.2500    93  0.2500    94  0.2500    95  0.2500
    96  0.2500    97  0.2500    98  0.2500    99  0.2500   100  0.2500
   101  0.2500   102  0.2500   103  0.2500   104  0.2500   105  0.2500
   106  0.2500   107  0.2500   108  0.2500   109  0.2500   110  0.2500
   111  0.2500   112  0.2500   113  0.2500   114  0.2500   115  0.2500
   116  0.2500   117  0.2500   118  0.2500   119  0.2500   120  0.2500
   121  0.2500   122  0.2500   123  0.2500   124  0.2500   125  0.2500
   126  0.2500   127  0.2500   128  0.2500   129  0.2500   130  0.2500
   131  0.2500   132  0.2500   133  0.2500   134  0.2500   135  0.2500
   136  0.2500   137  0.2500   138  0.2500   139  0.2500   140  0.2500
   141  0.2500   142  0.2500   143  0.2500   144  0.2500   145  0.2500
   146  0.2500   147  0.2500   148  0.2500   149  0.2500   150  0.2500
   151  0.2500   152  0.2500   153  0.2500   154  0.2500   155  0.2500
   156  0.2500   157  0.2500   158  0.2500   159  0.2500   160  0.2500
   161  0.2500   162  0.2500   163  0.2500   164  0.2500   165  0.2500
   166  0.2500   167  0.2500   168  0.2500   169  0.2500   170  0.2500
   171  0.2500   172  0.2500
 TRANSFORMING HESSIAN TO SYMMETRY COORDINATES

          PARAMETERS CONTROLLING GEOMETRY SEARCH ARE
          METHOD =QA                  UPHESS =BFGS    
          NNEG   =         0          NFRZ   =         3
          NSTEP  =        50          IFOLOW =         1
          HESS   =GUESS               RESTAR =         F
          IHREP  =         0          HSSEND =         F
          NPRT   =         0          NPUN   =         0
          OPTTOL = 5.000E-04          RMIN   = 1.500E-03
          RMAX   = 1.000E-01          RLIM   = 7.000E-02
          DXMAX  = 3.000E-01          PURIFY =         F
          MOVIE  =         F          TRUPD  =         T
          TRMAX  = 5.000E-01          TRMIN  = 5.000E-02
          ITBMAT =         5          STPT   =         F
          STSTEP = 1.000E-02          PROJCT=          F
          FROZEN COORD(S)=   1   2   3


      ***** EQUILIBRIUM GEOMETRY LOCATED *****
            (SUBJECT TO   3 CONSTRAINT(S))
 COORDINATES OF ALL ATOMS ARE (ANGS)
   ATOM   CHARGE       X              Y              Z
 ------------------------------------------------------------
 C           6.0  -0.1476393553  -0.0245618098   0.0233160424
 C           6.0   1.0267115820   0.8659172570   0.4383782991
 H           1.0  -0.0241073499  -1.0373106980   0.3983205653
 H           1.0  -1.0869519065   0.3628253573   0.4090807183
 H           1.0  -0.2298111658  -0.0782171473  -1.0607176998
 C           6.0   2.3541963634   0.2779480889  -0.0594283901
 H           1.0   1.0620504027   0.8823969073   1.5278404025
 C           6.0   0.8128348601   2.3032856555  -0.0489776003
 H           1.0   2.3494312169   0.2669387218  -1.1502196262
 H           1.0   2.4136218092  -0.7627490741   0.2568781674
 C           6.0   3.6015473358   1.0117274168   0.4347499354
 H           1.0   3.5679986677   1.0802462477   1.5220874151
 H           1.0   3.6066867046   2.0320696234   0.0605268224
 C           6.0   4.8993159874   0.3262286902   0.0134118007
 H           1.0   4.9328697109   0.2577249257  -1.0739233131
 H           1.0   4.8942150797  -0.6941096190   0.3876490228
 C           6.0   6.1466502744   1.0600065352   0.5076219771
 H           1.0   6.1514474144   1.0709163089   1.5984104646
 H           1.0   6.0872257544   2.1007303519   0.1914043018
 C           6.0   7.4741428549   0.4720808965   0.0097648672
 H           1.0   7.4387837732   0.4556541683  -1.0796972393
 C           6.0   7.6880118986  -0.9652920004   0.4971013834
 C           6.0   8.6484906139   1.3625391669   0.4248553554
 H           1.0   8.7306608997   1.4161574618   1.5088966937
 H           1.0   8.5249933522   2.3753225506   0.0499224529
 H           1.0   9.5877942484   0.9751549152   0.0390894350
 H           1.0  -0.1556115921   2.6798967196   0.2682796448
 H           1.0   0.8498556143   2.3487739661  -1.1361302234
 H           1.0   1.5698143114   2.9777638057   0.3370777439
 H           1.0   6.9310057164  -1.6397630490   0.1110970694
 H           1.0   7.6510146867  -1.0107624885   1.5842495195
 H           1.0   8.6564601669  -1.3419205912   0.1798530279


                     --------------------
                     INTERNAL COORDINATES
                     --------------------

                 - - ATOMS - -         COORDINATE      COORDINATE
 NO.   TYPE    I  J  K  L  M  N        (BOHR,RAD)       (ANG,DEG)
 ----------------------------------------------------------------
   1 STRETCH   1  2                     2.8933981       1.5311204
   2 STRETCH   1  5                     2.0569042       1.0884669
   3 STRETCH   1  4                     2.0538038       1.0868262
   4 STRETCH   1  3                     2.0541146       1.0869907
   5 STRETCH   2  8                     2.8964555       1.5327384
   6 STRETCH   2  7                     2.0601030       1.0901597
   7 STRETCH   2  6                     2.9004278       1.5348404
   8 STRETCH   6 11                     2.8898160       1.5292249
   9 STRETCH   6 10                     2.0585282       1.0893263
  10 STRETCH   6  9                     2.0614212       1.0908572
  11 STRETCH   8 29                     2.0501371       1.0848859
  12 STRETCH   8 28                     2.0574079       1.0887335
  13 STRETCH   8 27                     2.0530954       1.0864514
  14 STRETCH  11 14                     2.8855552       1.5269701
  15 STRETCH  11 13                     2.0537832       1.0868153
  16 STRETCH  11 12                     2.0598214       1.0900106
  17 STRETCH  14 15                     2.0598154       1.0900075
  18 STRETCH  14 16                     2.0537851       1.0868164
  19 STRETCH  14 17                     2.8898084       1.5292209
  20 STRETCH  17 20                     2.9004400       1.5348468
  21 STRETCH  17 19                     2.0585275       1.0893259
  22 STRETCH  17 18                     2.0614144       1.0908536
  23 STRETCH  20 23                     2.8933851       1.5311136
  24 STRETCH  20 22                     2.8964498       1.5327354
  25 STRETCH  20 21                     2.0601028       1.0901595
  26 STRETCH  22 31                     2.0573965       1.0887274
  27 STRETCH  22 30                     2.0501296       1.0848820
  28 STRETCH  22 32                     2.0531050       1.0864565
  29 STRETCH  23 26                     2.0537881       1.0868179
  30 STRETCH  23 25                     2.0541212       1.0869942
  31 STRETCH  23 24                     2.0569149       1.0884726
  32 BEND      1  2  8                  1.9306950     110.6206752
  33 BEND      1  2  7                  1.8802781     107.7319988
  34 BEND      1  2  6                  1.9311985     110.6495259
  35 BEND      2  6 10                  1.8954548     108.6015628
  36 BEND      2  1  4                  1.9383840     111.0612208
  37 BEND      2  1  3                  1.9403259     111.1724861
  38 BEND      2  1  5                  1.9353702     110.8885455
  39 BEND      2  6 11                  2.0007730     114.6358515
  40 BEND      2  8 27                  1.9354309     110.8920221
  41 BEND      2  8 29                  1.9525086     111.8705025
  42 BEND      2  8 28                  1.9304381     110.6059548
  43 BEND      2  6  9                  1.9011803     108.9296062
  44 BEND      3  1  4                  1.8837402     107.9303625
  45 BEND      3  1  5                  1.8820372     107.8327861
  46 BEND      4  1  5                  1.8816004     107.8077615
  47 BEND      6  2  8                  1.9571411     112.1359245
  48 BEND      6  2  7                  1.8774650     107.5708181
  49 BEND      6 11 13                  1.9209838     110.0642625
  50 BEND      6 11 12                  1.9043696     109.1123394
  51 BEND      6 11 14                  1.9699729     112.8711341
  52 BEND      7  2  8                  1.8839999     107.9452411
  53 BEND      9  6 10                  1.8555779     106.3167835
  54 BEND      9  6 11                  1.9087342     109.3624156
  55 BEND     10  6 11                  1.8966157     108.6680751
  56 BEND     11 14 15                  1.9067085     109.2463514
  57 BEND     11 14 16                  1.8991276     108.8119936
  58 BEND     11 14 17                  1.9699582     112.8702908
  59 BEND     12 11 14                  1.9067106     109.2464673
  60 BEND     12 11 13                  1.8594013     106.5358465
  61 BEND     13 11 14                  1.8991016     108.8105056
  62 BEND     14 17 18                  1.9087364     109.3625394
  63 BEND     14 17 19                  1.8966509     108.6700940
  64 BEND     14 17 20                  2.0007628     114.6352633
  65 BEND     15 14 17                  1.9043820     109.1130516
  66 BEND     15 14 16                  1.8594273     106.5373344
  67 BEND     16 14 17                  1.9209387     110.0616803
  68 BEND     17 20 21                  1.8774611     107.5705983
  69 BEND     17 20 22                  1.9571019     112.1336807
  70 BEND     17 20 23                  1.9312082     110.6500783
  71 BEND     18 17 19                  1.8555855     106.3172183
  72 BEND     18 17 20                  1.9011497     108.9278557
  73 BEND     19 17 20                  1.8954522     108.6014133
[...]
 752  17  10.737773   3.517824  -2.439600   0.000236   0.117224   0.002013
 753  14  10.073523   3.268759  -2.604851   0.000238   0.117224   0.002032
 754  14  10.647996  -0.767864   3.517101   0.000439   0.251614   0.001746
 755  18  11.119317  -0.359267   3.953237   0.000071   0.251614   0.000281
 756  31  11.808209  -1.194414   3.869577   0.000452   0.251614   0.001796
 757  18  10.415202   0.240052   4.296231  -0.000168   0.163430  -0.001030
 758  14   9.775495  -0.487772   3.717873   0.000520   0.230350   0.002257
 759  19  10.480537   4.433163  -1.895720  -0.000060   0.096472  -0.000620
 760  14   9.698249   3.735202  -2.280063   0.000293   0.136087   0.002154
 761  30  11.289850  -3.598676  -1.465734  -0.001484   0.426040  -0.003482
 762  14  10.244902  -2.604062  -1.993177   0.002182   0.605604   0.003602
 763  31  12.010964  -1.841302   4.103928   0.000051   0.067112   0.000760
 764  14  10.304280  -1.247396   3.547736   0.000342   0.099263   0.003445
 765  15  11.035311   2.218680  -3.177136   0.000021   0.164411   0.000129
 766  17  11.536377   2.669811  -2.839100   0.000196   0.164411   0.001193
 767  21  12.092064   2.302702  -3.180242   0.000064   0.164411   0.000392
 768  17  11.106592   3.054772  -2.766092   0.000295   0.134680   0.002193
 769  15  10.317772   2.442267  -3.273111  -0.000049   0.095491  -0.000514
 770  15  11.544330  -1.088863  -2.920218   0.000467   0.243039   0.001923
 771  21  12.603752  -1.073772  -2.997451   0.000028   0.243039   0.000116
 772  22  12.601905  -1.691939  -2.565170   0.000445   0.243039   0.001829
 773  21  12.553745  -0.726599  -3.583939   0.000321   0.246317   0.001302
 774  21  12.472085   0.293682  -4.049965  -0.000126   0.492553  -0.000256
 775  21  12.365273   1.650950  -3.880601  -0.000046   0.492553  -0.000093
 776  15  11.018522  -0.468108  -3.784992   0.000014   0.492553   0.000028
 777  15  10.912323   0.867890  -4.078419  -0.000215   0.492553  -0.000437
 778  15  10.829556   1.926607  -3.708160   0.000206   0.246317   0.000838
 779  15  11.328716  -1.672600  -2.530460   0.000389   0.118143   0.003296
 780  22  12.373700  -2.323982  -2.262285   0.000013   0.118143   0.000110
 781  30  12.185229  -2.545480  -2.163125  -0.000199   0.118143  -0.001685
 782  22  12.470725  -2.246856  -2.597557   0.000311   0.087730   0.003549
 783  15  10.938450  -1.339300  -3.150050   0.000071   0.059490   0.001191
 784  30  11.864500  -2.917442  -2.260691   0.000306   0.192146   0.001592
 785  15  10.705489  -1.696024  -3.017955   0.000549   0.192146   0.002856
 786  16  10.497917  -3.524407   1.844320  -0.000124   0.083100  -0.001491
 787  22  11.432890  -3.872918   2.038682   0.000013   0.083100   0.000155
 788  30  11.319357  -3.986956   1.779499  -0.000165   0.083100  -0.001980
 789  16  10.780412  -2.132840   3.053695   0.000146   0.038766   0.003770
 790  22  11.693659  -2.340997   3.440050   0.000088   0.038766   0.002266
 791  31  11.913100  -2.295444   3.644193   0.000018   0.038766   0.000468
 792  22  11.459653  -2.774975   3.294269   0.001267   0.348209   0.003640
 793  22  11.400669  -3.675079   2.569757   0.001169   0.348209   0.003357
 794  16  10.027097  -2.833455   2.559767  -0.001299   0.494159  -0.002630
 795  30  11.105248  -4.261094   1.484034  -0.000039   0.227283  -0.000170
 796  30  10.884684  -4.410785   0.371430  -0.001375   0.454757  -0.003024
 797  30  10.864915  -4.129132  -0.737274  -0.000500   0.227283  -0.002198
 798  16   9.795434  -3.781262   1.229911  -0.001236   0.454757  -0.002718
 799  16   9.645546  -3.698961  -0.155446  -0.000653   0.454757  -0.001437
 800  31  11.881907  -2.181653   3.995765   0.000315   0.111144   0.002831
 801  16  10.185189  -2.038226   3.244676   0.000317   0.111144   0.002856
 802  17  13.222930   4.056061   3.788386   0.000183   0.090146   0.002027
 803  18  13.128572   3.873408   4.018067   0.000080   0.090146   0.000884
 804  24  14.218228   3.950159   3.921790   0.000244   0.090146   0.002703
 805  18  12.364936   4.057645   4.168730   0.000067   0.078547   0.000847
 806  18  11.118980   4.045545   4.174335  -0.000164   0.179155  -0.000916
 807  17  11.907832   4.342662   3.829463   0.000292   0.167988   0.001737
 808  17  10.540577   4.199231   3.836916   0.000267   0.095962   0.002778
 809  17  12.475891   4.010384  -2.135681   0.000020   0.029165   0.000698
 810  19  12.394184   4.272234  -2.003679  -0.000014   0.029165  -0.000485
 811  20  12.908470   3.793777  -2.264003   0.000034   0.029165   0.001149
 812  17  12.982445   5.383665   2.106796   0.000257   0.069839   0.003675
 813  19  12.874100   5.536821   1.864701   0.000000   0.069839   0.000004
 814  23  13.811430   5.413798   2.045132   0.000278   0.069839   0.003977
 815  19  11.902357   4.504224  -2.003039  -0.000066   0.069002  -0.000957
 816  19  11.043006   4.455328  -2.002494  -0.000065   0.069002  -0.000936
 817  17  11.494920   4.087448  -2.136299  -0.000109   0.151613  -0.000718
 818  19  10.544730   5.615154   1.908219   0.000041   0.074424   0.000547
 819  19  11.726437   5.707419   1.989832  -0.000152   0.167660  -0.000906
 820  17  10.965697   5.409374   2.313714   0.000200   0.160957   0.001241
 821  17  12.274824   5.477230   2.291055   0.000273   0.090926   0.002998
 822  17  12.542288   3.370394  -2.557856   0.000046   0.030373   0.001517
 823  20  12.971708   3.203295  -2.753368   0.000013   0.030373   0.000423
 824  21  13.038337   2.999258  -2.969868  -0.000007   0.030373  -0.000234
 825  20  13.013937   3.456872  -2.605262   0.000119   0.072128   0.001653
 826  17  12.436630   3.792754  -2.329685   0.000151   0.072128   0.002095
 827  21  12.779606   2.631548  -3.268372  -0.000136   0.152585  -0.000890
 828  17  12.097813   3.290673  -2.678328   0.000476   0.215205   0.002210
 829  17  13.695234   4.202347   3.597217   0.000271   0.064001   0.004239
 830  23  14.511058   4.357942   3.635554   0.000200   0.064001   0.003124
 831  24  14.674229   4.210175   3.847109  -0.000031   0.064001  -0.000479
 832  23  14.296297   5.137541   2.792884   0.001528   0.483019   0.003164
 833  17  13.153009   4.785302   3.107114   0.001539   0.483019   0.003187
 834  24  14.760625   4.209910   4.057418   0.000018   0.009923   0.001777
 835  17  13.295533   4.286920   3.796934   0.000093   0.014113   0.006580
 836  18  13.692706   1.203773   4.640488  -0.000067   0.329894  -0.000203
 837  24  14.791546   1.351895   4.593360  -0.000086   0.329894  -0.000262
 838  31  14.330641   0.316629   4.629223  -0.000128   0.329894  -0.000389
 839  24  14.700292   3.882529   4.432028   0.000368   0.304740   0.001207
 840  24  14.880545   2.654803   4.890728  -0.000461   0.609662  -0.000757
 841  18  13.214982   3.215898   4.701810   0.000125   0.609662   0.000205
 842  18  13.396193   1.947505   5.031280   0.000080   0.304740   0.000263
 843  31  13.920672  -0.275035   5.058764  -0.000087   0.233271  -0.000373
 844  31  13.069241  -0.887931   4.993604  -0.000296   0.466359  -0.000634
 845  31  12.302795  -1.436888   4.528818   0.000155   0.233271   0.000664
 846  18  12.693091   0.743166   5.067968  -0.000163   0.466359  -0.000349
 847  18  11.683171   0.017908   4.737162   0.000166   0.466359   0.000356
 848  19  13.128210   4.602404  -1.676158   0.000002   0.167365   0.000012
 849  20  13.672924   4.173601  -1.971918   0.000137   0.167365   0.000818
 850  25  14.155296   4.717334  -1.734328  -0.000081   0.167365  -0.000484
 851  20  13.240334   3.877301  -2.340264   0.000261   0.118317   0.002207
 852  19  12.508758   4.580895  -1.871414  -0.000059   0.083879  -0.000704
 853  19  13.393622   5.716075   1.423390   0.000181   0.085174   0.002129
 854  23  14.328105   5.737262   1.650605   0.000074   0.085174   0.000867
 855  25  14.408033   5.900299   1.404046  -0.000002   0.085174  -0.000019
 856  23  14.213304   5.742515   1.959044   0.000408   0.110465   0.003697
 857  19  12.816809   5.765696   1.695535   0.000075   0.078035   0.000965
 858  25  14.312042   5.352468  -1.672726   0.000046   0.254243   0.000183
 859  25  14.277501   6.120517  -0.777147  -0.000664   0.508544  -0.001305
 860  25  14.338009   6.315707   0.644319  -0.000158   0.508544  -0.000311
 861  19  12.833689   5.505890  -1.266232  -0.000372   0.508544  -0.000732
 862  19  12.831298   6.180326   0.001623  -0.000550   0.508544  -0.001081
 863  19  12.910552   6.081335   1.175111   0.000204   0.254243   0.000802
 864  20  15.998753  -0.826077  -2.789434   0.000054   0.029937   0.001787
 865  21  15.819451  -0.702422  -3.002722   0.000012   0.029937   0.000395
 866  22  16.046136  -1.284889  -2.596851   0.000104   0.029937   0.003459
 867  20  14.507234   3.387949  -2.805650   0.000036   0.030151   0.001200
 868  21  14.476211   3.172176  -3.018765   0.000015   0.030151   0.000492
 869  23  14.894809   3.653897  -2.637211   0.000062   0.030151   0.002064
 870  20  16.605645   0.632919  -2.832201   0.000036   0.030151   0.001199
 871  21  16.387416   0.662930  -3.042947   0.000020   0.030151   0.000677
 872  23  16.966583   0.933839  -2.663425   0.000059   0.030151   0.001958
 873  21  16.022552   0.142176  -3.267328  -0.000161   0.104494  -0.001537
 874  20  16.194969  -0.166838  -2.930147  -0.000027   0.127662  -0.000212
 875  21  13.644953   2.936878  -3.232317  -0.000156   0.101534  -0.001536
 876  20  13.843112   3.236808  -2.905152  -0.000007   0.124046  -0.000053
 877  20  16.668572  -1.012648  -2.222206   0.000032   0.026041   0.001213
 878  22  16.764308  -1.487085  -2.097824   0.000012   0.026041   0.000448
 879  32  16.979542  -1.657658  -1.970009  -0.000034   0.026041  -0.001313
 880  22  16.405160  -1.508597  -2.381964   0.000213   0.098782   0.002156
 881  20  16.401215  -0.802285  -2.550096   0.000182   0.098782   0.001843
 882  20  14.560465   3.902405  -2.404713   0.000047   0.025679   0.001844
 883  23  14.935480   4.216488  -2.305225   0.000014   0.025679   0.000564
 884  25  14.989839   4.493506  -2.194718  -0.000017   0.025679  -0.000672
 885  20  17.121503   0.537630  -2.433655   0.000034   0.025826   0.001318
 886  23  17.524859   0.814477  -2.334425   0.000013   0.025826   0.000486
 887  26  17.806914   0.790688  -2.226069  -0.000021   0.025826  -0.000813
 888  23  17.362962   0.893093  -2.490827   0.000100   0.048732   0.002061
 889  20  16.790683   0.521544  -2.714350   0.000104   0.048732   0.002140
 890  23  15.000500   4.009306  -2.492059   0.000074   0.047728   0.001547
 891  20  14.415846   3.626512  -2.656443   0.000098   0.047728   0.002055
 892  25  14.862582   4.762041  -2.080592  -0.000102   0.112478  -0.000908
 893  20  14.097720   3.976398  -2.376120   0.000342   0.158514   0.002159
 894  20  17.152928  -0.445067  -1.972549   0.000110   0.170063   0.000645
 895  26  17.805033  -0.123312  -1.737597  -0.000064   0.170063  -0.000376
 896  32  17.412303  -1.100448  -1.678282  -0.000095   0.170063  -0.000559
 897  26  18.059892   0.474611  -2.040644  -0.000162   0.123412  -0.001310
 898  20  17.053848   0.138924  -2.446646   0.000353   0.173916   0.002030
 899  32  17.211135  -1.709263  -1.894843  -0.000087   0.062599  -0.001385
 900  20  16.845886  -0.713535  -2.288042   0.000184   0.088248   0.002089
 901  22  13.468802  -2.164845  -2.769894   0.000790   0.285850   0.002764
 902  22  15.127896  -1.900634  -2.794026   0.001073   0.554731   0.001935
 903  21  13.997854  -1.140230  -3.340011  -0.000796   0.416129  -0.001913
 904  21  15.435420  -0.806291  -3.266294  -0.000058   0.202807  -0.000287
 905  23  17.091597   1.393981  -2.819402   0.000676   0.242551   0.002787
 906  23  16.391587   2.648404  -3.012694   0.001030   0.473884   0.002174
 907  23  15.370159   3.654079  -2.797622   0.000665   0.242551   0.002741
 908  21  15.997432   1.378742  -3.401476  -0.000469   0.350046  -0.001341
 909  21  15.059277   2.610457  -3.389606  -0.000477   0.350046  -0.001363
 910  22  17.231716  -0.435829   3.562171   0.000267   0.064107   0.004169
 911  23  17.600262   0.307499   3.602949   0.000160   0.064107   0.002501
 912  24  17.502701   0.501569   3.817523  -0.000012   0.064107  -0.000192
 913  22  18.175914  -1.441997   2.008170   0.000140   0.067794   0.002063
 914  23  18.423058  -0.650741   1.950848   0.000262   0.067794   0.003862
 915  32  18.281550  -1.602260   1.771506  -0.000031   0.067794  -0.000457
 916  23  18.102562  -0.016983   3.007073   0.001470   0.497293   0.002955
 917  22  17.843973  -1.201604   2.753086   0.001445   0.497293   0.002907
 918  22  16.790906  -0.848887   3.888440   0.000150   0.087995   0.001703
 919  24  16.972846   0.135241   4.006576   0.000246   0.087995   0.002799
 920  31  16.578504  -0.909464   4.101640  -0.000048   0.087995  -0.000544
 921  24  17.427956   0.589635   4.113858   0.000081   0.066966   0.001203
 922  22  17.138632  -0.839689   3.817432   0.000408   0.095216   0.004281
 923  30  12.729922  -3.205458  -2.214737  -0.000145   0.071223  -0.002033
 924  30  13.393212  -4.103151  -1.947011  -0.000267   0.159321  -0.001674
 925  30  13.761776  -5.053736  -1.008877  -0.000191   0.159321  -0.001196
 926  30  13.471104  -5.466003   0.281507  -0.000286   0.159321  -0.001792
 927  30  12.649676  -5.157728   1.353780  -0.000310   0.159321  -0.001946
 928  30  11.828066  -4.484584   1.788886  -0.000064   0.071223  -0.000899
 929  22  13.325533  -3.310210  -2.261192  -0.000090   0.155002  -0.000579
 930  22  14.059935  -4.512518  -1.600680   0.000090   0.155002   0.000581
 931  22  14.106311  -5.323964  -0.273814   0.000105   0.155002   0.000678
 932  22  13.444165  -5.385881   1.132918  -0.000051   0.155002  -0.000329
 933  22  12.366169  -4.670901   1.997728   0.000081   0.155002   0.000519
 934  31  12.384274  -2.672841   4.069719  -0.000041   0.067632  -0.000607
 935  31  13.040710  -3.539806   4.055794  -0.000175   0.149269  -0.001170
 936  31  14.253917  -4.050439   4.075719  -0.000230   0.149269  -0.001541
 937  31  15.531756  -3.739074   4.132223  -0.000222   0.149269  -0.001486
 938  31  16.371945  -2.728099   4.203097  -0.000061   0.149269  -0.000410
 939  31  16.553273  -1.657000   4.254066  -0.000029   0.067632  -0.000425
 940  22  12.402337  -3.145694   3.713244   0.000130   0.149126   0.000872
 941  22  13.517478  -4.117456   3.710545   0.000119   0.149126   0.000797
 942  22  14.991223  -4.235346   3.755761  -0.000026   0.149126  -0.000171
 943  22  16.244285  -3.453027   3.831121   0.000192   0.149126   0.001285
 944  22  16.784122  -2.078005   3.907001   0.000171   0.149126   0.001147
 945  32  18.278161  -2.284879   1.854527  -0.000034   0.066605  -0.000506
 946  32  17.932831  -3.293373   1.997587  -0.000069   0.146762  -0.000472
 947  32  17.362923  -4.369531   1.535417  -0.000210   0.146762  -0.001434
 948  32  16.811907  -4.897127   0.479700  -0.000251   0.146762  -0.001712
 949  32  16.492061  -4.672907  -0.762853  -0.000131   0.146762  -0.000895
 950  32  16.526604  -3.783251  -1.713553  -0.000141   0.146762  -0.000959
 951  32  16.902229  -2.570894  -2.006148  -0.000320   0.146762  -0.002182
 952  22  17.947153  -2.525295   2.277166   0.000191   0.147078   0.001298
 953  22  17.392094  -3.876537   2.186891   0.000166   0.147078   0.001129
 954  22  16.729607  -4.824386   1.289792  -0.000021   0.147078  -0.000140
 955  22  16.214911  -5.003687  -0.068528   0.000056   0.147078   0.000380
 956  22  16.046292  -4.345365  -1.364782   0.000192   0.147078   0.001308
 957  22  16.288709  -3.103036  -2.099593   0.000013   0.147078   0.000089
 958  22  16.704030  -1.992049  -2.150669  -0.000004   0.081373  -0.000046
 959  24  17.919400   1.040738   4.006661  -0.000034   0.071381  -0.000474
 960  24  18.539833   1.997578   3.912310  -0.000117   0.159362  -0.000736
 961  24  18.567407   3.377116   3.841998  -0.000260   0.159362  -0.001629
 962  24  17.729488   4.475585   3.851194  -0.000259   0.159362  -0.001628
 963  24  16.392352   4.812817   3.935879  -0.000145   0.159362  -0.000911
 964  24  15.306330   4.466340   4.035340  -0.000084   0.071381  -0.001180
 965  23  18.361234   1.211743   3.626700   0.000100   0.155673   0.000639
 966  23  18.901863   2.661877   3.514004   0.000151   0.155673   0.000968
 967  23  18.419690   4.136345   3.477639  -0.000033   0.155673  -0.000210
 968  23  17.125485   4.990618   3.533500   0.000159   0.155673   0.001019
 969  23  15.584980   4.851271   3.657170   0.000122   0.155673   0.000786
 970  25  15.088802   6.173516   1.558553  -0.000019   0.071861  -0.000266
 971  25  16.229791   6.334796   1.618371  -0.000187   0.160836  -0.001160
 972  25  17.467477   6.251515   0.985715  -0.000257   0.160836  -0.001596
 973  25  18.040337   5.872906  -0.225708  -0.000276   0.160836  -0.001717
 974  25  17.693062   5.367704  -1.475999  -0.000152   0.160836  -0.000943
 975  25  16.580423   4.961064  -2.207940  -0.000260   0.160836  -0.001614
 976  25  15.437313   4.808096  -2.244608  -0.000093   0.071861  -0.001294
 977  23  15.511810   6.016505   1.967853   0.000081   0.156332   0.000516
 978  23  17.053809   6.115319   1.726844   0.000088   0.156332   0.000562
 979  23  18.132332   5.840176   0.628346  -0.000073   0.156332  -0.000466
 980  23  18.266710   5.313700  -0.838070   0.000153   0.156332   0.000976
 981  23  17.397056   4.770526  -2.018863   0.000144   0.156332   0.000922
 982  23  15.910949   4.452732  -2.387788  -0.000108   0.156332  -0.000692
 983  23  18.839279  -0.240958   1.597604   0.000102   0.086733   0.001181
 984  26  19.015956  -0.203926   1.350269  -0.000091   0.086733  -0.001049
 985  32  18.557368  -1.149108   1.368809   0.000178   0.086733   0.002051
 986  26  18.222180   1.117949  -2.272975  -0.000071   0.066422  -0.001070
 987  26  18.633976   2.107842  -2.264341  -0.000209   0.146247  -0.001426
 988  26  19.276160   3.057591  -1.654425  -0.000140   0.146247  -0.000960
 989  26  19.865923   3.381541  -0.543724  -0.000168   0.146247  -0.001150
 990  26  20.177646   2.955763   0.642851  -0.000237   0.146247  -0.001624
 991  26  20.092077   1.943143   1.451367  -0.000128   0.146247  -0.000874
 992  26  19.641950   0.731067   1.572517  -0.000191   0.146247  -0.001304
 993  23  17.987108   1.635814  -2.420444  -0.000077   0.146785  -0.000524
 994  23  18.631754   2.913129  -2.133475   0.000116   0.146785   0.000790
 995  23  19.359605   3.665648  -1.116911   0.000200   0.146785   0.001361
 996  23  19.892215   3.605487   0.240351  -0.000002   0.146785  -0.000014
 997  23  20.025830   2.755661   1.419079  -0.000023   0.146785  -0.000157
 998  23  19.709333   1.441280   1.968338   0.000173   0.146785   0.001179
 999  23  19.224541   0.366401   1.867308   0.000173   0.081149   0.002138
1000  32  18.498777  -1.724768   1.573891   0.000064   0.066097   0.000971
1001  23  18.810138  -0.359936   1.929668   0.000381   0.093701   0.004069
1002  31  16.393616  -0.852307   4.543378   0.000433   0.282622   0.001532
1003  31  15.346053  -0.374082   4.936399  -0.000321   0.565095  -0.000568
1004  24  16.654730   0.792909   4.681719  -0.000125   0.565095  -0.000221
1005  24  15.576992   1.281172   4.965676  -0.000049   0.282622  -0.000174
1006  32  17.899191  -1.532317  -1.599670   0.000035   0.254575   0.000138
1007  32  18.621826  -1.769237  -0.718375  -0.000704   0.509130  -0.001383
1008  32  18.833284  -1.769096   0.682950  -0.000386   0.509130  -0.000759
1009  26  18.756231  -0.241933  -1.367692  -0.000535   0.509130  -0.001051
1010  26  19.401970  -0.425661  -0.119616  -0.000576   0.509130  -0.001131
1011  26  19.339274  -0.330082   1.038808   0.000272   0.254575   0.001068
 =====================================================

              9360015  WORDS OF DYNAMIC MEMORY USED
 EXECUTION OF GAMESS TERMINATED NORMALLY Wed Nov 23 07:02:03 2016
 DDI: 263640 bytes (0.3 MB / 0 MWords) used by master data server.

 ----------------------------------------
 CPU timing information for all processes
 ========================================
 0: 1975.892 + 0.568 = 1976.460
 ----------------------------------------
 ddikick.x: exited gracefully.
