----- GAMESS execution script -----

          ******************************************************
          *         GAMESS VERSION =  5 DEC 2014 (R1)          *
          *             FROM IOWA STATE UNIVERSITY             *
          * M.W.SCHMIDT, K.K.BALDRIDGE, J.A.BOATZ, S.T.ELBERT, *
          *   M.S.GORDON, J.H.JENSEN, S.KOSEKI, N.MATSUNAGA,   *
          *          K.A.NGUYEN, S.J.SU, T.L.WINDUS,           *
          *       TOGETHER WITH M.DUPUIS, J.A.MONTGOMERY       *
          *         J.COMPUT.CHEM.  14, 1347-1363(1993)        *
          **************** 64 BIT LINUX VERSION ****************

 EXECUTION OF GAMESS BEGUN Wed Nov 23 07:50:40 2016

            ECHO OF THE FIRST FEW INPUT CARDS -
 INPUT CARD>! SELECT RESTRICTED HARTREE-FOCK AS DEFAULT                                     
 INPUT CARD>$contrl scftyp=rhf $end                                                         
 INPUT CARD>                                                                                
 INPUT CARD>! THEORY: HF OR DFT                                                             
 INPUT CARD> $contrl mplevl=0 $end                                                          
 INPUT CARD>                                                                                
 INPUT CARD> $system timlim=10000 mwords=20 $end                                            
 INPUT CARD> $SCF DIRSCF=.TRUE. $end                                                        
 INPUT CARD>                                                                                
 INPUT CARD>                                                                                
 INPUT CARD>! BASIS SETS                                                                    
 INPUT CARD>! 6-311G(d,p)                                                                   
 INPUT CARD> $BASIS GBASIS=N311 NGAUSS=6 NDFUNC=1 NPFUNC=1 $END                             
 INPUT CARD>                                                                                
 INPUT CARD>! One of the following                                                          
 INPUT CARD> $guess guess=HUCKEL $end                                                       
 INPUT CARD>                                                                                
 INPUT CARD> $statpt projct=.FALSE. $end                                                    
 INPUT CARD> $STATPT IFREEZ(1)=1,2,3 $END                                                   
 INPUT CARD>                                                                                
 INPUT CARD>! Optimize the geometry with COSMO effects                                      
 INPUT CARD> $statpt opttol=0.0005 nstep=50 $end                                            
 INPUT CARD> $contrl nzvar=1 $end                                                           
 INPUT CARD> $zmat dlc=.t. auto=.t. $end                                                    
 INPUT CARD> $contrl runtyp=OPTIMIZE maxit=200 $end                                         
 INPUT CARD>                                                                                
 INPUT CARD>! Run COSMO on perfect conductor                                                
 INPUT CARD> $COSGMS PRFCND=.TRUE. $end                                                     
 INPUT CARD>                                                                                
 INPUT CARD>! Specifying RSOLV                                                              
 INPUT CARD> $COSGMS COSRAD = 1.4 $end                                                      
 INPUT CARD>                                                                                
 INPUT CARD>! available memory                                                              
 INPUT CARD> $SYSTEM MWORDS=40 $END                                                         
 INPUT CARD>                                                                                
 INPUT CARD> $DATA                                                                          
 INPUT CARD>Heptane, 2-methyl-, ID: C592278                                                 
 INPUT CARD>C1                                                                              
 INPUT CARD>C      6.0      5.1366000000    2.4257000000    1.8558000000                    
 INPUT CARD>C      6.0      4.0753000000    1.3733000000    2.1371000000                    
 INPUT CARD>C      6.0      6.3531000000    1.8189000000    1.1542000000                    
 INPUT CARD>C      6.0      2.9495000000    1.9300000000    2.9910000000                    
 INPUT CARD>C      6.0      7.3084000000    2.9127000000    0.7086000000                    
 INPUT CARD>C      6.0      7.0613000000    0.8336000000    2.0705000000                    
 INPUT CARD>C      6.0      1.8859000000    0.8776000000    3.2611000000                    
 INPUT CARD>C      6.0      0.7643000000    1.4294000000    4.1117000000                    
 INPUT CARD>H      1.0      5.4543000000    2.9105000000    2.8012000000                    
 INPUT CARD>H      1.0      4.7093000000    3.2366000000    1.2329000000                    
 INPUT CARD>H      1.0      4.5549000000    0.5016000000    2.6397000000                    
 INPUT CARD>H      1.0      3.6703000000    0.9786000000    1.1838000000                    
   40000000 WORDS OF MEMORY AVAILABLE

     BASIS OPTIONS
     -------------
     GBASIS=N311         IGAUSS=       6      POLAR=POPN311 
     NDFUNC=       1     NFFUNC=       0     DIFFSP=       F
     NPFUNC=       1      DIFFS=       F     BASNAM=        


     RUN TITLE
     ---------
 Heptane, 2-methyl-, ID: C592278                                                 

 THE POINT GROUP OF THE MOLECULE IS C1      
 THE ORDER OF THE PRINCIPAL AXIS IS     0

 ATOM      ATOMIC                      COORDINATES (BOHR)
           CHARGE         X                   Y                   Z
 C           6.0     9.7067665085        4.5839083284        3.5069534880
 C           6.0     7.7012003178        2.5951606989        4.0385334084
 C           6.0    12.0056181726        3.4372225991        2.1811217350
 C           6.0     5.5737468008        3.6471711563        5.6521704293
 C           6.0    13.8108734087        5.5042048844        1.3390598349
 C           6.0    13.3439221171        1.5752755834        3.9126776576
 C           6.0     3.5638342402        1.6584235268        6.1625854186
 C           6.0     1.4443175724        2.7011743268        7.7699863437
 H           1.0    10.3071324548        5.5000474873        5.2935004368
 H           1.0     8.8992865940        6.1162871319        2.3298431703
 H           1.0     8.6075129015        0.9478865554        4.9883096898
 H           1.0     6.9358612927        1.8492858516        2.2370576243
 H           1.0    11.3324977758        2.3961725524        0.4703527983
 H           1.0     4.7133545586        5.3057836557        4.7054177094
 H           1.0     6.3364402094        4.3705582644        7.4647955967
 H           1.0    12.9056946605        6.8043363640        0.0000000000
 H           1.0    14.4819151069        6.6353948607        2.9451379519
 H           1.0    15.4804463188        4.7050397642        0.4027006080
 H           1.0    14.7963655113        0.4985097156        2.8997845282
 H           1.0    11.9753825568        0.2226097214        4.7137325038
 H           1.0    14.2696988785        2.5348784399        5.5026931036
 H           1.0     4.4281949070        0.0000000000        7.1055586864
 H           1.0     2.7990621330        0.9376820351        4.3509051141
 H           1.0     2.1359572839        3.3720270525        9.6079338394
 H           1.0     0.5007773867        4.3027171014        6.8468551987
 H           1.0     0.0000000000        1.2598803160        8.1396167469

          INTERNUCLEAR DISTANCES (ANGS.)




     $CONTRL OPTIONS
     ---------------
 SCFTYP=RHF          RUNTYP=OPTIMIZE     EXETYP=RUN     
 MPLEVL=       0     CITYP =NONE         CCTYP =NONE         VBTYP =NONE    
 DFTTYP=NONE         TDDFT =NONE    
 MULT  =       1     ICHARG=       0     NZVAR =       1     COORD =UNIQUE  
 PP    =NONE         RELWFN=NONE         LOCAL =NONE         NUMGRD=       F
 ISPHER=      -1     NOSYM =       0     MAXIT =     200     UNITS =ANGS    
 PLTORB=       F     MOLPLT=       F     AIMPAC=       F     FRIEND=        
 NPRINT=       7     IREST =       0     GEOM  =INPUT   
 NORMF =       0     NORMP =       0     ITOL  =      20     ICUT  =       9
 INTTYP=BEST         GRDTYP=BEST         QMTTOL= 1.0E-06

     $SYSTEM OPTIONS
     ---------------
  REPLICATED MEMORY=    40000000 WORDS (ON EVERY NODE).
 DISTRIBUTED MEMDDI=           0 MILLION WORDS IN AGGREGATE,
 MEMDDI DISTRIBUTED OVER   1 PROCESSORS IS           0 WORDS/PROCESSOR.
 TOTAL MEMORY REQUESTED ON EACH PROCESSOR=    40000000 WORDS.
 TIMLIM=       10000.00 MINUTES, OR       6.9 DAYS.
 PARALL= F  BALTYP=  DLB     KDIAG=    0  COREFL= F
 MXSEQ2=     300 MXSEQ3=     150  mem10=         0

     $COSGMS OPTIONS
     ---------------
     EPSI  =   INFTY     NSPA  =      92     COSRAD=    1.40
     DISEX =   10.00     OUTCHG=DBLCAV       COSBUG=       F
     COSWRT=       F     DCOSMO=       F

     SYMMETRY COORDINATES WILL NOT BE USED FOR 
     THE COSMO CALCULATION, EVEN IF SPECIFIED:
         -- SWITCHING TO C1 POINT GROUP --


     DEFINITION OF CAVITY
     ---------------------------
     ATOM         COORDINATES           RADIUS 
     1    9.7068    4.5839    3.5070    2.0000
     2    7.7012    2.5952    4.0385    2.0000
     3   12.0056    3.4372    2.1811    2.0000
     4    5.5737    3.6472    5.6522    2.0000
     5   13.8109    5.5042    1.3391    2.0000
     6   13.3439    1.5753    3.9127    2.0000
     7    3.5638    1.6584    6.1626    2.0000
     8    1.4443    2.7012    7.7700    2.0000
     9   10.3071    5.5000    5.2935    1.3000
    10    8.8993    6.1163    2.3298    1.3000
    11    8.6075    0.9479    4.9883    1.3000
    12    6.9359    1.8493    2.2371    1.3000
    13   11.3325    2.3962    0.4704    1.3000
    14    4.7134    5.3058    4.7054    1.3000
    15    6.3364    4.3706    7.4648    1.3000
    16   12.9057    6.8043    0.0000    1.3000
    17   14.4819    6.6354    2.9451    1.3000
    18   15.4804    4.7050    0.4027    1.3000
    19   14.7964    0.4985    2.8998    1.3000
    20   11.9754    0.2226    4.7137    1.3000
    21   14.2697    2.5349    5.5027    1.3000
    22    4.4282    0.0000    7.1056    1.3000
    23    2.7991    0.9377    4.3509    1.3000
    24    2.1360    3.3720    9.6079    1.3000
    25    0.5008    4.3027    6.8469    1.3000
    26    0.0000    1.2599    8.1396    1.3000

          ----------------
          PROPERTIES INPUT
          ----------------

     MOMENTS            FIELD           POTENTIAL          DENSITY
 IEMOM =       1   IEFLD =       0   IEPOT =       0   IEDEN =       0
 WHERE =COMASS     WHERE =NUCLEI     WHERE =NUCLEI     WHERE =NUCLEI  
 OUTPUT=BOTH       OUTPUT=BOTH       OUTPUT=BOTH       OUTPUT=BOTH    
 IEMINT=       0   IEFINT=       0                     IEDINT=       0
                                                       MORB  =       0
          EXTRAPOLATION IN EFFECT
          SOSCF IN EFFECT
 ORBITAL PRINTING OPTION: NPREO=     1   260     2     1

     -------------------------------
     INTEGRAL TRANSFORMATION OPTIONS
     -------------------------------
     NWORD  =            0
     CUTOFF = 1.0E-09     MPTRAN =       0
     DIRTRF =       T     AOINTS =DUP     

          ----------------------
          INTEGRAL INPUT OPTIONS
          ----------------------
 NOPK  =       1 NORDER=       0 SCHWRZ=       T


 -----------------------------------------------
  STATISTICS ON AUTOMATIC COORDINATE GENERATION 
 -----------------------------------------------
  NUMBER OF USER SPECIFIED BONDS                             0
  NUMBER OF BONDS                                           25
  NUMBER OF ANGLES                                          48
  NUMBER OF TORSIONS                                        63
  NUMBER OF EXTRA COORD.                                     0
  NUMBER OF EXTRA COORD. FOR CONSTRAINTS                     0
  NUMBER OF CONSTRAINED COORD.                               0

  TOTAL NUMBER OF PRIMITIVES                               136
 -----------------------------------------------

   --- ENCODED Z MATRIX ---
 COORD  TYPE   I   J   K   L   M   N
    1      1    1  10
    2      1    1   3
    3      1    1   9
    4      1    1   2
    5      1    2  11
    6      1    2   4
    7      1    2  12
    8      1    3  13
    9      1    3   6
   10      1    3   5
   11      1    4  15
   12      1    4  14
   13      1    4   7
   14      1    5  16
   15      1    5  18
   16      1    5  17
   17      1    6  21
   18      1    6  20
   19      1    6  19
   20      1    7   8
   21      1    7  23
   22      1    7  22
   23      1    8  26
   24      1    8  25
   25      1    8  24
   26      2    1   2   4
   27      2    1   3   6
   28      2    1   2  11
   29      2    1   3   5
   30      2    1   3  13
   31      2    1   2  12
   32      2    2   1  10
   33      2    2   1   9
   34      2    2   4   7
   35      2    2   1   3
   36      2    2   4  14
   37      2    2   4  15
   38      2    3   5  18
   39      2    3   5  16
   40      2    3   6  19
   41      2    3   6  20
   42      2    3   1  10
   43      2    3   1   9
   44      2    3   6  21
   45      2    3   5  17
   46      2    4   2  12
   47      2    4   7   8
   48      2    4   2  11
   49      2    4   7  22
   50      2    4   7  23
   51      2    5   3  13
   52      2    5   3   6
   53      2    6   3  13
   54      2    7   4  14
   55      2    7   4  15
   56      2    7   8  24
   57      2    7   8  26
   58      2    7   8  25
   59      2    8   7  22
   60      2    8   7  23
   61      2    9   1  10
   62      2   11   2  12
   63      2   14   4  15
   64      2   16   5  17
   65      2   16   5  18
   66      2   17   5  18
   67      2   19   6  20
   68      2   19   6  21
   69      2   20   6  21
   70      2   22   7  23
   71      2   24   8  25
   72      2   24   8  26
   73      2   25   8  26
   74      3    1   2   4   7
   75      3    1   3   6  19
   76      3    1   2   4  14
   77      3    1   3   6  20
   78      3    1   3   5  17
   79      3    1   3   5  18
   80      3    1   3   6  21
   81      3    1   3   5  16
   82      3    1   2   4  15
   83      3    2   1   3  13
   84      3    2   4   7  22
   85      3    2   4   7  23
   86      3    2   1   3   5
   87      3    2   4   7   8
   88      3    2   1   3   6
   89      3    3   1   2  11
   90      3    3   1   2  12
   91      3    3   1   2   4
   92      3    4   2   1   9
   93      3    4   2   1  10
   94      3    4   7   8  24
   95      3    4   7   8  25
   96      3    4   7   8  26
   97      3    5   3   6  20
   98      3    5   3   6  19
   99      3    5   3   6  21
  100      3    5   3   1   9
  101      3    5   3   1  10
  102      3    6   3   1  10
  103      3    6   3   5  16
  104      3    6   3   5  18
  105      3    6   3   5  17
  106      3    6   3   1   9
  107      3    7   4   2  12
  108      3    7   4   2  11
  109      3    8   7   4  14
  110      3    8   7   4  15
  111      3    9   1   2  11
  112      3    9   1   2  12
  113      3    9   1   3  13
  114      3   10   1   2  11
  115      3   10   1   2  12
  116      3   10   1   3  13
  117      3   11   2   4  15
  118      3   11   2   4  14
  119      3   12   2   4  15
  120      3   12   2   4  14
  121      3   13   3   6  20
  122      3   13   3   6  19
  123      3   13   3   5  16
  124      3   13   3   5  18
  125      3   13   3   5  17
  126      3   13   3   6  21
  127      3   14   4   7  23
  128      3   14   4   7  22
  129      3   15   4   7  23
  130      3   15   4   7  22
  131      3   22   7   8  25
  132      3   22   7   8  26
  133      3   22   7   8  24
  134      3   23   7   8  25
  135      3   23   7   8  26
  136      3   23   7   8  24

          INDEP./SYM. INTERNAL COORDINATES
          --------------------------------
 CRD  1=  -0.4544 ( 26)  0.1389 ( 27)  0.1515 ( 28) -0.1664 ( 29)  0.1366 ( 31)
          -0.1447 ( 32) -0.1427 ( 33)  0.3856 ( 34)  0.4544 ( 35) -0.1285 ( 36)
          -0.1140 ( 37) -0.1485 ( 42) -0.1210 ( 43)  0.1251 ( 46) -0.2225 ( 47)
           0.1465 ( 48) -0.1222 ( 54) -0.1090 ( 55)
 CRD  2=   0.2130 (  2)  0.1264 (  4)  0.1809 (  6)  0.1181 ( 13)  0.2255 ( 26)
           0.3072 ( 27) -0.1143 ( 29) -0.1182 ( 32) -0.1362 ( 34)  0.2627 ( 35)
           0.1082 ( 37) -0.1713 ( 42) -0.1632 ( 46)  0.2864 ( 47) -0.1312 ( 52)
          -0.1346 ( 60) -0.1594 ( 74)  0.1173 ( 78)  0.1294 ( 79)  0.1177 ( 81)
           0.1047 ( 85) -0.1161 ( 86)  0.1469 ( 87) -0.1509 ( 88)  0.1127 ( 89)
           0.1300 ( 90)  0.2516 ( 91)  0.1298 ( 93) -0.1040 (103) -0.1044 (105)
 CRD  3=  -0.2425 (  2) -0.3161 (  4) -0.2846 (  6) -0.1290 ( 10) -0.2332 ( 13)
          -0.1565 ( 20) -0.1636 ( 26)  0.1192 ( 27) -0.2668 ( 29) -0.2806 ( 34)
          -0.1624 ( 35)  0.1504 ( 37)  0.1406 ( 43) -0.1151 ( 47)  0.1298 ( 48)
           0.1816 ( 52) -0.1056 ( 53)  0.1127 ( 59)  0.1027 ( 85)  0.1541 ( 87)
           0.1141 ( 89)  0.1999 ( 91)  0.1143 ( 92)
 CRD  4=   0.1906 ( 29) -0.1618 ( 31)  0.1976 ( 33)  0.2252 ( 34) -0.2180 ( 35)
           0.1010 ( 45) -0.3172 ( 47)  0.1732 ( 49)  0.1062 ( 53) -0.1864 ( 54)
           0.1059 ( 59) -0.3040 ( 74) -0.1729 ( 76) -0.1041 ( 77) -0.1655 ( 82)
          -0.1873 ( 83) -0.2333 ( 86)  0.1184 ( 87) -0.2233 ( 88)  0.1452 ( 91)
          -0.1296 (107) -0.1314 (108)
 CRD  5=  -0.1072 (  4) -0.1034 ( 26)  0.1841 ( 28) -0.2150 ( 32) -0.2447 ( 34)
           0.2042 ( 35)  0.1794 ( 36) -0.1971 ( 43)  0.1415 ( 46)  0.1940 ( 47)
          -0.1063 ( 48) -0.1536 ( 50)  0.1196 ( 52)  0.1944 ( 55) -0.1123 ( 59)
          -0.1774 ( 74) -0.1245 ( 76) -0.1357 ( 82) -0.1336 ( 83) -0.1329 ( 84)
          -0.2024 ( 86) -0.1486 ( 87) -0.1786 ( 88) -0.1285 ( 90) -0.1753 ( 91)
          -0.1230 ( 92) -0.1039 ( 93) -0.1118 (101)
 CRD  6=   0.1094 (  2) -0.1375 (  6) -0.1885 ( 10) -0.1692 ( 13) -0.1617 ( 20)
           0.3126 ( 27) -0.1449 ( 30) -0.1727 ( 34)  0.1445 ( 36) -0.1153 ( 38)
          -0.1166 ( 40)  0.1857 ( 41) -0.2669 ( 47)  0.1284 ( 51) -0.4029 ( 52)
          -0.1463 ( 56)  0.1468 ( 60)  0.1090 ( 78) -0.1009 ( 85) -0.1607 ( 87)
          -0.1670 ( 88)  0.1159 (101) -0.1384 (102) -0.1147 (104) -0.1549 (106)
 CRD  7=   0.1156 (  6)  0.2687 (  9)  0.3834 ( 26) -0.1434 ( 28) -0.3158 ( 29)
          -0.1296 ( 31)  0.1428 ( 38) -0.1388 ( 39)  0.1342 ( 44) -0.2969 ( 47)
          -0.1449 ( 48)  0.1079 ( 49)  0.1129 ( 50)  0.2560 ( 52) -0.1413 ( 53)
          -0.1288 ( 56)  0.1231 ( 60) -0.1156 ( 86) -0.1291 ( 87) -0.1022 ( 98)
          -0.1322 (101)  0.1009 (106)
 CRD  8=  -0.1868 (  2) -0.1644 (  4) -0.2735 ( 10)  0.1902 ( 13)  0.2105 ( 20)
           0.2083 ( 27) -0.1423 ( 29)  0.1605 ( 33)  0.3128 ( 34) -0.3490 ( 35)
          -0.1912 ( 37)  0.1022 ( 41)  0.1009 ( 42)  0.1288 ( 46)  0.2559 ( 47)
           0.1509 ( 58) -0.1359 ( 59) -0.1071 ( 87)
 CRD  9=  -0.2208 (  2)  0.1105 (  6) -0.3727 (  9) -0.3451 ( 10)  0.2259 ( 26)
          -0.1201 ( 29)  0.1077 ( 30) -0.1219 ( 31) -0.1337 ( 43) -0.2301 ( 44)
          -0.3093 ( 45) -0.1169 ( 58)  0.1279 ( 64)  0.1114 ( 66)  0.1054 ( 68)
           0.1320 ( 69)  0.1321 ( 75) -0.1405 ( 79)  0.1182 ( 80)  0.1471 ( 86)
           0.1126 ( 87) -0.1095 ( 97)  0.1383 (100)
 CRD 10=  -0.2833 (  9)  0.1193 ( 32) -0.1128 ( 33)  0.1183 ( 36) -0.1104 ( 37)
          -0.1991 ( 40) -0.1824 ( 41) -0.1427 ( 42)  0.1505 ( 43)  0.1546 ( 44)
           0.1786 ( 49) -0.1783 ( 50) -0.1132 ( 53) -0.1544 ( 54)  0.1637 ( 55)
          -0.2015 ( 56)  0.1967 ( 58) -0.1765 ( 59)  0.1752 ( 60)  0.1387 ( 67)
          -0.1680 ( 74)  0.1143 ( 86) -0.1755 ( 87)  0.1714 ( 88)  0.1300 ( 89)
           0.1181 ( 90) -0.1416 ( 94) -0.1412 ( 95)  0.1273 (102)  0.1236 (106)
          -0.1551 (107) -0.1404 (108) -0.1414 (109) -0.1394 (110)
 CRD 11=  -0.1274 (  1) -0.1574 (  2)  0.1212 (  4) -0.3129 (  9) -0.2059 ( 10)
           0.1141 ( 35) -0.3058 ( 39) -0.1471 ( 41) -0.1216 ( 42)  0.2245 ( 45)
          -0.1023 ( 46) -0.1050 ( 49)  0.1221 ( 50) -0.1044 ( 51)  0.1253 ( 54)
          -0.1004 ( 55) -0.2340 ( 56)  0.2086 ( 58)  0.1481 ( 65)  0.1065 ( 67)
           0.1036 ( 69)  0.1390 ( 74) -0.1604 ( 86) -0.1149 ( 87) -0.1068 ( 88)
           0.1388 ( 91)  0.1334 ( 94)  0.1318 ( 95)  0.1917 ( 96) -0.1238 (101)
           0.1121 (107)  0.1512 (108)
 CRD 12=  -0.1770 (  2)  0.1142 (  4) -0.1008 (  6)  0.2802 ( 10)  0.2648 ( 38)
           0.2106 ( 39)  0.2227 ( 40)  0.1944 ( 41) -0.3513 ( 44) -0.2425 ( 45)
          -0.2121 ( 56)  0.1823 ( 58) -0.1887 ( 65) -0.1497 ( 67) -0.1030 ( 77)
           0.1401 ( 91)  0.1027 ( 92) -0.1774 ( 97) -0.1167 ( 99)  0.1683 (103)
           0.1103 (105)
 CRD 13=   0.1966 (  2) -0.2553 (  4)  0.1825 (  6) -0.2313 ( 13)  0.4838 ( 20)
           0.1013 ( 37)  0.2010 ( 40)  0.1029 ( 43) -0.1454 ( 44)  0.1054 ( 48)
          -0.1136 ( 50)  0.2570 ( 57)  0.1906 ( 58)  0.1223 ( 59)  0.2031 ( 60)
          -0.1130 ( 71) -0.1219 ( 72) -0.2043 ( 73)  0.1067 (127) -0.1129 (130)
          -0.1005 (131)
 CRD 14=  -0.2666 (  2)  0.1529 (  4) -0.2149 (  6)  0.1387 ( 10)  0.2040 ( 13)
           0.3826 ( 20) -0.1352 ( 34) -0.2575 ( 40)  0.1426 ( 41) -0.1029 ( 43)
           0.1019 ( 44)  0.1053 ( 45)  0.1187 ( 54)  0.4227 ( 57) -0.1276 ( 58)
           0.1294 ( 59) -0.2080 ( 72) -0.1502 ( 73)  0.1023 (129)
 CRD 15=   0.1400 (  2) -0.1943 (  6)  0.1959 (  9) -0.2643 ( 10)  0.3389 ( 13)
          -0.1027 ( 18) -0.2074 ( 38)  0.3759 ( 40) -0.3080 ( 41) -0.1205 ( 45)
           0.1413 ( 55) -0.1683 ( 56)  0.2203 ( 57)  0.1573 ( 66) -0.2180 ( 68)
           0.1157 ( 71)
 CRD 16=   0.3434 (  2) -0.1524 (  6) -0.2048 (  9)  0.1850 ( 13) -0.1209 ( 14)
           0.1511 ( 15)  0.5203 ( 38) -0.3593 ( 39)  0.1301 ( 42) -0.1101 ( 45)
           0.1292 ( 57) -0.1429 ( 58)  0.1971 ( 64) -0.1842 ( 66)
 CRD 17=   0.2971 (  4) -0.2633 ( 13)  0.1145 ( 17) -0.1048 ( 18)  0.1419 ( 20)
           0.1134 ( 28)  0.1376 ( 33)  0.1585 ( 38) -0.3428 ( 41)  0.3589 ( 44)
          -0.3203 ( 45) -0.1241 ( 49)  0.1216 ( 56) -0.1511 ( 57)  0.1562 ( 58)
           0.1080 ( 59)  0.1458 ( 67) -0.1642 ( 68) -0.1344 ( 71) -0.1124 ( 75)
 CRD 18=  -0.2602 (  4)  0.1228 (  6)  0.1006 ( 11)  0.1596 ( 13) -0.1043 ( 20)
          -0.1066 ( 25) -0.1232 ( 31) -0.1570 ( 32)  0.1017 ( 37)  0.2655 ( 39)
          -0.2811 ( 40)  0.1207 ( 42)  0.2346 ( 44) -0.2426 ( 45)  0.1252 ( 50)
           0.1066 ( 54) -0.3516 ( 56)  0.1124 ( 57)  0.1450 ( 58) -0.1257 ( 65)
          -0.1049 ( 69)  0.1091 ( 72) -0.1080 ( 73) -0.1041 ( 76) -0.1236 ( 79)
           0.1185 ( 96)
 CRD 19=   0.1206 (  2)  0.1030 (  4) -0.2416 (  6) -0.1099 ( 10) -0.1281 ( 28)
           0.1003 ( 30)  0.2008 ( 31) -0.1828 ( 36) -0.1252 ( 39) -0.1832 ( 40)
           0.2082 ( 41)  0.1169 ( 42) -0.1216 ( 43) -0.2533 ( 46)  0.1138 ( 48)
           0.2083 ( 49) -0.1953 ( 50) -0.1314 ( 57)  0.2224 ( 58) -0.1527 ( 59)
           0.1863 ( 60) -0.1130 ( 69) -0.1025 ( 71)  0.1325 ( 84)  0.1534 ( 85)
          -0.1649 ( 90)  0.1057 ( 92)  0.1232 ( 93) -0.1534 ( 94) -0.1359 ( 95)
          -0.1214 ( 96) -0.1029 (109)
 CRD 20=  -0.1879 (  2)  0.3793 (  6)  0.1403 (  7)  0.1423 ( 12) -0.1273 ( 20)
          -0.1008 ( 26) -0.1530 ( 28) -0.1021 ( 30)  0.1445 ( 31)  0.1074 ( 36)
           0.1703 ( 38) -0.1158 ( 39)  0.1850 ( 44)  0.2253 ( 48)  0.1005 ( 49)
          -0.1587 ( 50)  0.1161 ( 53)  0.2086 ( 57) -0.2815 ( 58) -0.1236 ( 59)
           0.1566 ( 71)  0.1290 ( 76) -0.1065 ( 95) -0.1008 (110)
 CRD 21=   0.1142 (  1)  0.1058 (  4)  0.1181 (  7) -0.1159 ( 21)  0.2211 ( 28)
          -0.1723 ( 31) -0.2629 ( 36)  0.3112 ( 37)  0.1129 ( 40)  0.1260 ( 45)
           0.1951 ( 46) -0.1455 ( 48)  0.1180 ( 49) -0.1785 ( 50)  0.2552 ( 54)
          -0.2837 ( 55) -0.1283 ( 56) -0.1647 ( 59)  0.1519 ( 60) -0.1194 ( 76)
          -0.1403 ( 82)  0.1864 ( 84)  0.1860 ( 85)  0.1362 (107)  0.1549 (108)
          -0.1016 (110)
 CRD 22=   0.1801 (  1)  0.2525 (  4)  0.1028 (  5)  0.1039 ( 11) -0.1304 ( 12)
          -0.1469 ( 13) -0.1093 ( 21)  0.1015 ( 24) -0.1554 ( 25)  0.1430 ( 31)
           0.1284 ( 33) -0.1245 ( 35)  0.1057 ( 36) -0.1202 ( 39)  0.1340 ( 42)
          -0.1011 ( 43)  0.1500 ( 45)  0.1005 ( 48) -0.1655 ( 49) -0.1723 ( 54)
           0.1136 ( 55) -0.3454 ( 56)  0.1485 ( 57)  0.1298 ( 58)  0.1371 ( 59)
          -0.1580 ( 60)  0.1041 ( 71)  0.1154 ( 72) -0.1477 ( 73)  0.1316 ( 87)
          -0.1334 ( 89) -0.1228 ( 90)  0.1033 (100) -0.1688 (107) -0.1119 (108)
           0.1430 (109)  0.1159 (110)
 CRD 23=  -0.2381 (  4) -0.1318 (  9)  0.2137 ( 10)  0.1208 ( 16)  0.1017 ( 27)
          -0.1953 ( 28) -0.2461 ( 32)  0.1543 ( 33)  0.1344 ( 40) -0.2866 ( 41)
           0.2081 ( 42) -0.2151 ( 43)  0.2182 ( 45) -0.1407 ( 46)  0.1489 ( 48)
           0.1919 ( 51) -0.1513 ( 64) -0.1018 ( 66)  0.1402 ( 69) -0.1624 ( 83)
          -0.1403 ( 89) -0.1206 ( 90)  0.1003 ( 92) -0.1064 ( 97) -0.1229 ( 98)
           0.1367 (101)
 CRD 24=   0.1677 (  2)  0.2193 (  3)  0.1071 (  4) -0.1137 (  6) -0.1442 (  9)
          -0.2118 ( 11) -0.2481 ( 13) -0.1916 ( 22) -0.1211 ( 24)  0.1318 ( 30)
           0.1219 ( 33)  0.1259 ( 34) -0.1254 ( 38)  0.2276 ( 39) -0.1330 ( 44)
           0.1677 ( 47) -0.1262 ( 50)  0.1001 ( 52) -0.1359 ( 53)  0.1914 ( 57)
          -0.2941 ( 58)  0.1006 ( 66)  0.1346 ( 71) -0.1152 ( 72) -0.1299 ( 83)
          -0.1145 ( 86) -0.1199 ( 87) -0.1043 (103) -0.1024 (104)
 CRD 25=  -0.1137 (  2) -0.1829 (  3) -0.2305 (  4) -0.1816 (  5) -0.2741 (  6)
          -0.1485 (  7) -0.1340 ( 11) -0.2128 ( 12) -0.2476 ( 13) -0.1640 ( 21)
           0.2271 ( 26) -0.1022 ( 31) -0.1234 ( 33)  0.2313 ( 34)  0.1502 ( 35)
          -0.1036 ( 36) -0.1020 ( 39)  0.1094 ( 44)  0.1862 ( 47) -0.1220 ( 48)
          -0.1075 ( 49) -0.1072 ( 50) -0.1718 ( 56)  0.1659 ( 57)  0.1295 ( 62)
           0.1341 ( 63)  0.1027 ( 70)  0.1186 ( 71)
 CRD 26=  -0.1766 (  1)  0.1069 (  3) -0.2742 (  5)  0.2637 (  7) -0.1368 (  8)
          -0.2600 ( 21)  0.2610 ( 22) -0.1147 ( 33)  0.1127 ( 39) -0.1207 ( 42)
           0.1278 ( 43) -0.1081 ( 56)  0.1088 ( 58)  0.1240 ( 74)  0.1527 ( 76)
           0.1542 ( 82) -0.1222 ( 86)  0.1136 ( 87) -0.1487 ( 92) -0.1495 ( 93)
          -0.1095 ( 94) -0.1097 ( 95) -0.1363 ( 96) -0.1745 (100) -0.1534 (101)
          -0.1195 (106)  0.1452 (109)  0.1460 (110) -0.1481 (113) -0.1269 (116)
 CRD 27=  -0.4598 (  8) -0.1057 ( 11)  0.1058 ( 12)  0.1024 ( 15)  0.1182 ( 18)
          -0.1562 ( 21)  0.1556 ( 22) -0.2000 ( 32)  0.1881 ( 33)  0.1394 ( 42)
          -0.1625 ( 43) -0.1047 ( 44)  0.1679 ( 78)  0.1715 ( 79)  0.1470 ( 81)
           0.1556 ( 97)  0.1286 ( 98)  0.1511 ( 99)  0.1992 (102)  0.1996 (106)
           0.1475 (113)  0.1471 (116)  0.1106 (121)  0.1198 (124)  0.1162 (125)
           0.1062 (126)
 CRD 28=  -0.2792 (  3) -0.5766 (  8)  0.1483 ( 11) -0.1603 ( 12)  0.1802 ( 14)
           0.1459 ( 15) -0.1437 ( 17)  0.1677 ( 21) -0.1711 ( 22) -0.1078 ( 33)
          -0.1370 ( 45)  0.1088 ( 64)  0.1049 ( 66) -0.1701 ( 75) -0.1387 ( 77)
          -0.1576 ( 80)  0.1001 ( 88) -0.1051 (100) -0.1226 (103) -0.1085 (104)
          -0.1191 (105)
 CRD 29=   0.1005 (  1) -0.1405 (  8)  0.1693 ( 11) -0.1654 ( 12) -0.2506 ( 14)
          -0.2504 ( 15) -0.3521 ( 16)  0.3164 ( 17)  0.2667 ( 18)  0.2787 ( 19)
           0.1460 ( 21) -0.1444 ( 22)  0.1283 ( 38)  0.1528 ( 39) -0.1055 ( 40)
          -0.1493 ( 41) -0.1186 ( 44) -0.1246 ( 64) -0.1640 ( 65) -0.1082 ( 66)
           0.1370 ( 67)  0.1164 ( 68)  0.1432 ( 69)
 CRD 30=  -0.2059 (  8) -0.1192 (  9) -0.1077 ( 10) -0.3203 ( 14) -0.2861 ( 15)
          -0.3591 ( 16) -0.3910 ( 17) -0.3576 ( 18) -0.3176 ( 19)  0.1512 ( 38)
           0.1140 ( 39)  0.1665 ( 40)  0.1192 ( 41)  0.1141 ( 44) -0.1055 ( 64)
          -0.1490 ( 65) -0.1336 ( 66) -0.1580 ( 67) -0.1540 ( 68) -0.1125 ( 69)
 CRD 31=  -0.1737 ( 20) -0.4803 ( 23) -0.5028 ( 24) -0.5030 ( 25)  0.1767 ( 56)
           0.1943 ( 57)  0.1767 ( 58) -0.1875 ( 71) -0.2001 ( 72) -0.2000 ( 73)
 CRD 32=  -0.1636 (  1)  0.2377 (  3) -0.3097 (  5)  0.3318 (  7)  0.1141 (  8)
           0.3291 ( 11) -0.3225 ( 12)  0.1097 ( 14)  0.1390 ( 15)  0.1165 ( 16)
          -0.1004 ( 17) -0.1181 ( 18) -0.1652 ( 19)  0.2333 ( 21) -0.2316 ( 22)
           0.1000 ( 82)  0.1099 ( 84)  0.1105 ( 85)
 CRD 33=  -0.1080 (  9)  0.1425 ( 10)  0.1435 ( 14)  0.2000 ( 15) -0.1090 ( 18)
          -0.1528 ( 19)  0.1010 ( 22) -0.1323 ( 28)  0.1155 ( 31) -0.1169 ( 36)
           0.1117 ( 37)  0.1240 ( 48)  0.1308 ( 54) -0.1223 ( 55)  0.1170 ( 59)
          -0.1148 ( 60)  0.1426 ( 75)  0.1412 ( 77)  0.1088 ( 79)  0.1208 ( 80)
           0.1169 ( 97)  0.1182 ( 98) -0.1253 (111) -0.1098 (112) -0.1524 (114)
          -0.1368 (115) -0.1676 (117) -0.1720 (118) -0.1560 (119) -0.1604 (120)
           0.1370 (121)  0.1384 (122)  0.1037 (124)  0.1166 (126) -0.1511 (127)
          -0.1522 (128) -0.1474 (129) -0.1485 (130)
 CRD 34=   0.2787 (  1)  0.1859 (  5) -0.1702 (  7)  0.1404 ( 10)  0.2095 ( 14)
           0.2394 ( 15) -0.1427 ( 16) -0.1250 ( 19)  0.1175 ( 32) -0.1011 ( 37)
          -0.1093 ( 59)  0.1120 ( 60)  0.1096 ( 69)  0.1227 ( 75)  0.1593 ( 77)
           0.1438 ( 97)  0.1072 ( 98) -0.1149 (101) -0.1494 (102) -0.1190 (106)
          -0.1159 (113) -0.1463 (116)  0.1072 (119)  0.1032 (120)  0.1534 (121)
           0.1167 (122)  0.1634 (127)  0.1624 (128)  0.1692 (129)  0.1681 (130)
           0.1051 (132)  0.1070 (135)
 CRD 35=  -0.2354 (  1) -0.1362 (  2)  0.1254 (  3)  0.1024 (  9)  0.2803 ( 14)
          -0.1687 ( 16) -0.3098 ( 17)  0.2563 ( 18)  0.2756 ( 19)  0.1006 ( 38)
          -0.1044 ( 39) -0.1018 ( 52)  0.1250 ( 64) -0.2138 ( 66)  0.1399 ( 67)
          -0.1665 ( 68)  0.1792 ( 75) -0.2170 ( 79) -0.1304 ( 81)  0.2095 ( 98)
          -0.1353 (103) -0.2220 (104)  0.1899 (122) -0.1435 (123) -0.2302 (124)
 CRD 36=  -0.1688 ( 21) -0.1692 ( 22)  0.6346 ( 23) -0.2908 ( 24) -0.2993 ( 25)
          -0.3281 ( 71)  0.1566 ( 72)  0.1612 ( 73)  0.1710 ( 94) -0.1724 ( 95)
          -0.1571 (131)  0.1863 (133) -0.1878 (134)  0.1556 (136)
 CRD 37=  -0.4293 ( 14)  0.3418 ( 15) -0.3212 ( 17)  0.3803 ( 18)  0.1750 ( 24)
          -0.1738 ( 25) -0.1754 ( 64)  0.2198 ( 66)  0.1743 ( 67) -0.1940 ( 68)
           0.1325 ( 75) -0.1458 ( 78)  0.1234 ( 98) -0.1413 (105)  0.1248 (122)
          -0.1583 (125)
 CRD 38=   0.1407 ( 14) -0.1777 ( 15) -0.1289 ( 18)  0.5170 ( 24) -0.5124 ( 25)
          -0.2767 ( 72)  0.2743 ( 73)  0.2125 ( 96)  0.2027 (132)  0.2029 (135)
 CRD 39=  -0.3493 ( 15)  0.2265 ( 16)  0.4183 ( 18) -0.5081 ( 19)  0.1743 ( 64)
          -0.1219 ( 65) -0.2062 ( 68)  0.2656 ( 69)  0.1051 ( 77) -0.1851 ( 80)
          -0.1088 ( 81)  0.1217 ( 97) -0.1685 ( 99) -0.1259 (103) -0.1994 (126)
 CRD 40=  -0.2050 (  1)  0.3148 ( 15) -0.4477 ( 16)  0.2746 ( 17) -0.2840 ( 19)
          -0.1737 ( 64)  0.2577 ( 65) -0.1680 ( 67)  0.1636 ( 69) -0.1566 ( 79)
          -0.1143 ( 80)  0.1098 ( 81) -0.1166 ( 99)  0.1164 (103) -0.1499 (104)
           0.1121 (123) -0.1542 (124) -0.1121 (126)
 CRD 41=   0.2868 (  1)  0.1265 (  2)  0.3145 ( 14) -0.1250 ( 15) -0.2843 ( 16)
          -0.2943 ( 17)  0.1741 ( 18)  0.1859 ( 65) -0.1084 ( 66)  0.1920 ( 67)
          -0.1759 ( 77)  0.1664 ( 78)  0.1926 ( 81) -0.2226 ( 97) -0.1332 ( 99)
           0.2288 (103)  0.2026 (105) -0.1943 (121)  0.2195 (123)  0.1933 (125)
          -0.1049 (126)
 CRD 42=  -0.1169 (  3)  0.3805 (  5)  0.3699 (  7) -0.4295 ( 11) -0.4195 ( 12)
           0.2510 ( 21)  0.2498 ( 22)  0.1330 ( 62) -0.1474 ( 63) -0.1326 (118)
           0.1337 (119)  0.1178 (128) -0.1023 (129)
 CRD 43=   0.1069 (  1)  0.1823 (  3) -0.4000 (  5) -0.3843 (  7) -0.1287 ( 11)
          -0.1445 ( 12)  0.4019 ( 21)  0.4041 ( 22)  0.1010 ( 23) -0.1627 ( 62)
           0.1581 ( 70)  0.1121 (112) -0.1027 (114) -0.1143 (129) -0.1130 (131)
 CRD 44=   0.1470 (  1)  0.2072 (  3) -0.1622 (  5) -0.1442 (  7) -0.3924 ( 11)
          -0.4099 ( 12)  0.1088 ( 13) -0.3454 ( 21) -0.3431 ( 22) -0.1905 ( 63)
          -0.1605 ( 70)  0.1181 (127) -0.1389 (130) -0.1075 (136)
 CRD 45=   0.4583 (  1)  0.5354 (  3) -0.1034 (  4)  0.1853 (  5)  0.2439 (  7)
           0.1303 ( 11) -0.1032 ( 32)  0.2379 ( 61)  0.1205 ( 62)  0.1026 ( 92)
           0.1297 (101)  0.1322 (102)  0.1579 (111) -0.1044 (115)  0.1338 (116)
 CRD 46=  -0.2716 (  1)  0.2951 (  3) -0.1823 ( 11)  0.1836 ( 12) -0.1175 ( 76)
          -0.1219 ( 82) -0.1447 ( 92) -0.1383 ( 93)  0.1140 ( 94)  0.1142 ( 95)
           0.1266 (101)  0.1369 (102)  0.1012 (106) -0.1901 (111) -0.1996 (112)
          -0.1837 (114) -0.1932 (115)  0.1139 (116) -0.1380 (117) -0.1336 (118)
          -0.1444 (119) -0.1401 (120)  0.1289 (127)  0.1307 (128)  0.1267 (129)
           0.1285 (130)  0.1605 (131)  0.1393 (132)  0.1603 (133)  0.1599 (134)
           0.1387 (135)  0.1597 (136)
 CRD 47=  -0.2055 (  1)  0.2065 (  3)  0.3624 (  5) -0.3546 (  7)  0.3200 ( 11)
          -0.3188 ( 12) -0.1461 ( 21)  0.1460 ( 22)  0.1143 ( 76)  0.1118 ( 82)
          -0.1009 ( 89) -0.1037 ( 90)  0.1222 (107)  0.1233 (108) -0.1490 (111)
          -0.1518 (112) -0.1433 (114) -0.1461 (115)  0.1898 (117)  0.1924 (118)
           0.1887 (119)  0.1913 (120)
 CRD 48=  -0.1013 (  1)  0.1010 (  3) -0.1537 ( 11)  0.1536 ( 12)  0.3453 ( 21)
          -0.3454 ( 22)  0.1147 ( 84)  0.1143 ( 85) -0.1616 ( 94) -0.1616 ( 95)
          -0.1753 ( 96)  0.1308 (127)  0.1313 (128)  0.1306 (129)  0.1310 (130)
          -0.2447 (131) -0.2584 (132) -0.2447 (133) -0.2450 (134) -0.2587 (135)
          -0.2451 (136)
 CRD 49=  -0.1214 (  2)  0.2134 ( 23)  0.1016 ( 25)  0.1632 ( 28)  0.1656 ( 31)
           0.1807 ( 36)  0.1770 ( 37)  0.1116 ( 42)  0.1055 ( 43) -0.1543 ( 46)
          -0.1453 ( 48)  0.1475 ( 49)  0.1491 ( 50) -0.1772 ( 54) -0.1735 ( 55)
           0.1090 ( 56)  0.1498 ( 57)  0.1086 ( 58) -0.1850 ( 59) -0.1843 ( 60)
          -0.1624 ( 72) -0.1609 ( 73)  0.1051 ( 76)  0.1096 ( 84) -0.1122 ( 85)
           0.1024 (109) -0.1048 (110) -0.1490 (112)  0.1441 (114)  0.1991 (118)
          -0.1869 (119)  0.2143 (128) -0.2147 (129)  0.1093 (131) -0.1117 (136)
 CRD 50=   0.1096 (  2) -0.1255 (  6) -0.1663 (  8) -0.1537 ( 10) -0.1054 ( 13)
           0.1558 ( 14)  0.1668 ( 15)  0.2046 ( 16) -0.1039 ( 18) -0.1208 ( 20)
           0.1799 ( 23)  0.1265 ( 24)  0.1182 ( 25)  0.1208 ( 32)  0.1129 ( 33)
           0.1634 ( 38)  0.1579 ( 39)  0.1800 ( 45) -0.1266 ( 51)  0.1279 ( 56)
           0.1450 ( 57)  0.1290 ( 58) -0.1845 ( 64) -0.1583 ( 65) -0.1932 ( 66)
          -0.1135 ( 71) -0.1556 ( 72) -0.1623 ( 73)  0.1279 ( 83) -0.1138 (102)
           0.1114 (112)  0.1919 (113) -0.1878 (121) -0.1244 (122) -0.1887 (126)
 CRD 51=   0.1452 (  8)  0.3198 (  9)  0.1273 ( 14) -0.2891 ( 17) -0.2370 ( 18)
          -0.2400 ( 19) -0.2448 ( 40) -0.2437 ( 41) -0.2582 ( 44)  0.1219 ( 53)
           0.2421 ( 67)  0.2762 ( 68)  0.2743 ( 69)  0.1248 ( 83)  0.1494 (113)
           0.1749 (116) -0.1538 (123) -0.1696 (125)
 CRD 52=   0.1784 (  8)  0.2367 ( 10) -0.1440 ( 13) -0.1442 ( 14) -0.1366 ( 15)
          -0.2291 ( 16) -0.1371 ( 17) -0.2072 ( 20)  0.1626 ( 23)  0.1420 ( 24)
           0.1493 ( 25) -0.1176 ( 28) -0.1029 ( 31) -0.1593 ( 38) -0.1558 ( 39)
          -0.1065 ( 42) -0.1822 ( 45)  0.1054 ( 46)  0.1281 ( 48)  0.1457 ( 56)
           0.1509 ( 57)  0.1440 ( 58)  0.2024 ( 64)  0.1333 ( 65)  0.1960 ( 66)
          -0.1484 ( 71) -0.1650 ( 72) -0.1595 ( 73) -0.1648 (114) -0.1006 (118)
           0.1128 (119)
 CRD 53=  -0.1365 (  2) -0.1822 (  3)  0.4100 (  8) -0.1558 (  9) -0.1898 ( 10)
           0.1230 ( 14)  0.2290 ( 15) -0.1274 ( 16) -0.1514 ( 17)  0.2401 ( 19)
           0.1017 ( 61) -0.2344 ( 65) -0.2265 ( 67) -0.1428 ( 75)  0.1269 ( 79)
          -0.1076 ( 80) -0.1122 ( 93)  0.1762 ( 97)  0.1241 (102) -0.1634 (103)
          -0.1444 (114) -0.1274 (115) -0.1793 (122)  0.1668 (124)  0.1276 (125)
          -0.1441 (126)
 CRD 54=  -0.1264 (  2)  0.1647 (  4)  0.2192 (  6) -0.2432 ( 10)  0.1216 ( 14)
          -0.3554 ( 20)  0.1688 ( 24)  0.1858 ( 25) -0.1425 ( 32) -0.1272 ( 33)
          -0.1183 ( 36) -0.1324 ( 37)  0.1326 ( 42)  0.1388 ( 43) -0.1023 ( 49)
           0.1131 ( 54)  0.1225 ( 55)  0.1268 ( 56)  0.1198 ( 57)  0.1272 ( 58)
          -0.1168 ( 64) -0.2170 ( 71) -0.1311 (112)  0.1005 (117)  0.1196 (126)
          -0.1486 (131)  0.1335 (136)
 CRD 55=   0.1137 (  1)  0.1313 (  2)  0.1281 (  4) -0.1885 (  9) -0.1301 ( 10)
          -0.1751 ( 13)  0.1320 ( 14) -0.1112 ( 15)  0.1643 ( 18)  0.1527 ( 20)
           0.1967 ( 22)  0.1047 ( 23) -0.2298 ( 24) -0.1009 ( 28) -0.1280 ( 30)
           0.1271 ( 48)  0.1529 ( 50) -0.1380 ( 64) -0.1415 ( 69)  0.1437 ( 71)
          -0.1074 ( 72)  0.1076 ( 96) -0.1377 (111) -0.1324 (124) -0.2265 (125)
           0.2059 (126)  0.1015 (129)  0.1173 (130) -0.1014 (133) -0.1238 (134)
          -0.2648 (136)
 CRD 56=   0.1096 (  7) -0.1351 ( 10) -0.1916 ( 11)  0.1835 ( 12) -0.1118 ( 13)
           0.2630 ( 21) -0.1948 ( 22)  0.1102 ( 24) -0.2357 ( 25) -0.1019 ( 31)
           0.1216 ( 49) -0.1031 ( 60)  0.1162 ( 72) -0.1416 ( 73) -0.1192 ( 96)
          -0.1126 (111) -0.1002 (114)  0.1214 (117)  0.1206 (118)  0.1705 (119)
           0.1697 (120)  0.1134 (126) -0.2136 (127) -0.2097 (128) -0.1833 (129)
          -0.1794 (130)  0.2710 (131)  0.1805 (133)  0.1678 (134)
 CRD 57=  -0.2064 (  1) -0.1001 (  2)  0.1612 (  4)  0.1758 (  5) -0.1318 (  7)
           0.1979 (  9) -0.1357 ( 10) -0.1227 ( 12) -0.2000 ( 13)  0.1053 ( 15)
           0.1732 ( 23) -0.1302 ( 25) -0.1297 ( 33)  0.1001 ( 42)  0.1138 ( 49)
          -0.1049 ( 53)  0.1077 ( 54) -0.1351 ( 70)  0.1333 ( 71) -0.1061 ( 94)
          -0.1508 (100) -0.1469 (106)  0.1147 (110)  0.1042 (111)  0.1795 (112)
          -0.2487 (113)  0.1010 (114)  0.1763 (115) -0.1083 (118) -0.1111 (119)
          -0.1246 (120)  0.1397 (125)  0.1466 (129)  0.1902 (131) -0.1263 (135)
          -0.1685 (136)
 CRD 58=  -0.1707 (  5)  0.2138 (  7)  0.2587 (  9) -0.1228 ( 11) -0.2463 ( 14)
           0.1364 ( 15)  0.1492 ( 16)  0.1127 ( 22) -0.1701 ( 24)  0.1575 ( 25)
           0.1105 ( 30) -0.2103 ( 66) -0.1376 ( 72)  0.1103 ( 73) -0.1222 ( 74)
          -0.2063 ( 79)  0.1061 ( 91)  0.1873 ( 96) -0.1422 (104)  0.1453 (105)
          -0.1089 (111) -0.1226 (114)  0.1286 (117)  0.1504 (118)  0.1132 (120)
           0.1025 (123)  0.2367 (125)  0.1075 (132) -0.1158 (136)
 CRD 59=   0.1142 (  1) -0.1491 (  2)  0.2388 (  6) -0.1325 (  9)  0.2392 ( 10)
          -0.1006 ( 11) -0.1212 ( 13)  0.1181 ( 17) -0.1930 ( 18)  0.1369 ( 19)
          -0.1380 ( 20)  0.1072 ( 21)  0.1046 ( 22)  0.1955 ( 23) -0.1101 ( 51)
           0.1016 ( 63) -0.1842 ( 68) -0.1647 ( 70)  0.1020 ( 71) -0.1025 ( 72)
           0.1370 ( 75)  0.1203 ( 83)  0.1002 ( 95)  0.1081 ( 98) -0.1262 ( 99)
          -0.1012 (109) -0.1527 (112)  0.1670 (113)  0.1318 (116) -0.2162 (126)
          -0.1828 (128)  0.1453 (129)  0.1616 (131) -0.1665 (136)
 CRD 60=  -0.2027 (  2)  0.1951 (  4) -0.1699 (  5) -0.1579 (  7)  0.1469 ( 11)
           0.1613 ( 12) -0.2149 ( 13)  0.2075 ( 20) -0.1258 ( 61)  0.2552 ( 62)
          -0.2410 ( 63) -0.1293 ( 76)  0.1300 ( 82) -0.1118 ( 90)  0.1352 (107)
          -0.1380 (108) -0.1899 (112)  0.1958 (114) -0.2608 (118)  0.2718 (119)
           0.1677 (128) -0.1704 (129)
 CRD 61=   0.1003 (  1) -0.2345 (  4)  0.1730 (  6) -0.1027 (  7)  0.1202 ( 15)
           0.2411 ( 18) -0.1586 ( 19) -0.1690 ( 20)  0.1320 ( 23)  0.1218 ( 32)
           0.1530 ( 33) -0.1015 ( 41) -0.1360 ( 61)  0.1314 ( 62)  0.1796 ( 68)
          -0.1207 ( 69) -0.1890 ( 75)  0.1115 ( 80)  0.1306 ( 89) -0.1579 ( 98)
           0.1427 ( 99)  0.1200 (100) -0.1384 (101) -0.1485 (102)  0.1100 (106)
           0.1128 (111) -0.1120 (112)  0.1029 (113)  0.1174 (114) -0.1074 (115)
          -0.1556 (116) -0.1474 (122)  0.1531 (126)  0.1086 (127)
 CRD 62=   0.2599 ( 15) -0.1897 ( 16)  0.2461 ( 17) -0.2287 ( 19) -0.1154 ( 29)
          -0.1363 ( 38)  0.1228 ( 40)  0.2072 ( 64) -0.1286 ( 65)  0.1698 ( 67)
          -0.1831 ( 69)  0.1108 ( 75) -0.1822 ( 77)  0.1282 ( 78)  0.1139 ( 80)
          -0.2137 ( 81) -0.2494 ( 97) -0.2577 (103) -0.1123 (111)  0.1041 (116)
          -0.2312 (121) -0.2368 (123)  0.1051 (125)
 CRD 63=   0.1882 (  1) -0.1128 (  3)  0.1379 ( 11) -0.1797 ( 12) -0.2032 ( 14)
           0.2080 ( 16)  0.1951 ( 24) -0.1678 ( 25) -0.1032 ( 45) -0.1007 ( 58)
           0.1602 ( 65) -0.1464 ( 66)  0.1459 ( 72) -0.1251 ( 73)  0.1133 ( 74)
          -0.1985 ( 79) -0.1413 ( 86) -0.1409 ( 87)  0.1046 ( 90)  0.1122 ( 91)
          -0.1846 ( 96)  0.1069 (103) -0.1598 (104) -0.1258 (111) -0.2070 (124)
          -0.1787 (132) -0.1924 (135)
 CRD 64=   0.1478 (  2) -0.1258 (  3) -0.2218 (  4)  0.2423 (  6) -0.2575 ( 13)
           0.1908 ( 20)  0.1534 ( 28)  0.1619 ( 31) -0.1276 ( 36) -0.1571 ( 37)
          -0.1639 ( 46) -0.1327 ( 48)  0.1670 ( 54)  0.1488 ( 55)  0.1231 ( 61)
           0.1022 ( 70) -0.1514 ( 76)  0.1347 ( 82) -0.1118 ( 85) -0.1188 ( 93)
          -0.1115 (107)  0.1498 (108)  0.1297 (111) -0.1811 (115)  0.2712 (117)
          -0.2761 (120) -0.1175 (127)  0.1404 (130)
 CRD 65=   0.1429 (  3) -0.1124 (  4)  0.1972 (  6) -0.1315 ( 11) -0.1477 ( 13)
          -0.1195 ( 17)  0.1747 ( 20) -0.2246 ( 23)  0.1137 ( 25) -0.1096 ( 34)
          -0.1012 ( 36)  0.1367 ( 49)  0.1419 ( 50) -0.1044 ( 56)  0.1151 ( 57)
          -0.1241 ( 59) -0.1509 ( 60) -0.1515 ( 61)  0.1681 ( 63) -0.1326 ( 71)
           0.1203 ( 73) -0.1146 ( 75)  0.1328 ( 94) -0.1573 ( 95) -0.1104 ( 98)
          -0.1033 (101) -0.1402 (102) -0.1353 (109)  0.1422 (110)  0.1108 (115)
          -0.1166 (122) -0.2247 (127)  0.2011 (130)  0.1176 (132)  0.2243 (133)
          -0.2368 (134)
 CRD 66=  -0.1065 (  3) -0.1563 (  5)  0.1253 (  6) -0.1038 ( 10) -0.1129 ( 13)
           0.1069 ( 17)  0.1419 ( 22) -0.1409 ( 23)  0.1197 ( 24) -0.1473 ( 26)
           0.1366 ( 47) -0.1015 ( 53)  0.1351 ( 57)  0.1194 ( 61)  0.1820 ( 62)
          -0.1725 ( 70) -0.1170 ( 71)  0.1292 ( 89) -0.1136 ( 90)  0.1159 ( 92)
           0.1446 ( 94)  0.1242 ( 98)  0.1179 (102)  0.1159 (107)  0.1945 (111)
          -0.2521 (115) -0.1141 (117)  0.1238 (120)  0.1363 (122)  0.1022 (127)
           0.2412 (133) -0.2349 (134) -0.1781 (135)
 CRD 67=  -0.1098 (  2) -0.1114 (  5)  0.1491 (  7)  0.1945 (  9)  0.1713 ( 14)
          -0.1025 ( 16) -0.1593 ( 21)  0.1046 ( 24) -0.1552 ( 25) -0.1349 ( 39)
          -0.1198 ( 52)  0.1203 ( 56)  0.1045 ( 60)  0.1202 ( 66) -0.1086 ( 73)
          -0.1873 ( 78) -0.1292 ( 82)  0.1644 ( 86) -0.1682 ( 87)  0.1096 ( 91)
           0.1503 ( 93)  0.1615 ( 95)  0.1532 (100)  0.1316 (104) -0.1201 (105)
          -0.1232 (109) -0.1004 (111) -0.1360 (116)  0.1083 (123)  0.2575 (124)
           0.1245 (130) -0.2357 (132) -0.1432 (135)
 CRD 68=   0.1810 (  2)  0.1330 (  6) -0.2032 ( 10)  0.1470 ( 13) -0.1469 ( 18)
          -0.1112 ( 22) -0.1168 ( 27) -0.1319 ( 30) -0.1329 ( 34)  0.1361 ( 41)
          -0.1394 ( 47)  0.1231 ( 51)  0.1406 ( 52)  0.1371 ( 63) -0.1068 ( 68)
           0.1373 ( 70) -0.2170 ( 80) -0.1078 ( 83) -0.1749 ( 99)  0.1679 (106)
           0.1084 (110) -0.1428 (116) -0.1358 (117)  0.1201 (120)  0.1710 (121)
           0.2672 (122) -0.1182 (123) -0.1849 (127)  0.1700 (130) -0.1413 (133)
           0.1432 (134)  0.1113 (135)
 CRD 69=   0.1465 (  2) -0.1614 (  4) -0.1258 (  6)  0.1112 (  7) -0.1195 ( 10)
          -0.1496 ( 13)  0.1098 ( 15)  0.1151 ( 19)  0.1081 ( 22)  0.1240 ( 26)
          -0.1127 ( 27) -0.1156 ( 30)  0.1504 ( 34) -0.1098 ( 40)  0.1220 ( 47)
           0.1325 ( 51) -0.1232 ( 62) -0.1410 ( 63) -0.1161 ( 70) -0.1173 ( 76)
          -0.1569 ( 80) -0.1011 ( 81) -0.2163 ( 99)  0.1438 (104)  0.1660 (105)
          -0.1160 (110)  0.1027 (115) -0.1201 (116)  0.1922 (117) -0.1697 (120)
           0.2020 (121)  0.1584 (122) -0.1791 (123)  0.1715 (127) -0.1504 (130)
           0.1154 (133) -0.1200 (134) -0.1124 (135)
 CRD 70=  -0.1773 (  1)  0.1661 (  2)  0.1236 (  4) -0.1071 (  5) -0.1457 (  9)
           0.1136 ( 10) -0.1138 ( 21) -0.1710 ( 29) -0.1454 ( 35) -0.1028 ( 38)
           0.1059 ( 44)  0.1725 ( 53)  0.1321 ( 61) -0.1220 ( 74)  0.1722 ( 77)
           0.1191 ( 78)  0.1953 ( 83) -0.1549 ( 90)  0.1518 ( 92)  0.1108 ( 94)
           0.1276 ( 95) -0.1661 ( 98) -0.1011 ( 99) -0.1561 (100)  0.1722 (105)
          -0.2270 (106) -0.1398 (109)  0.1345 (111) -0.1166 (115)  0.1679 (116)
           0.1123 (120) -0.1820 (123) -0.1173 (124) -0.1387 (132) -0.1100 (135)
 CRD 71=  -0.1201 (  3) -0.1847 (  8)  0.1068 ( 11) -0.1196 ( 12) -0.1002 ( 16)
           0.1151 ( 21) -0.1196 ( 22)  0.1002 ( 43)  0.1046 ( 45)  0.1009 ( 49)
           0.1150 ( 74)  0.1845 ( 77) -0.1313 ( 78) -0.1976 ( 81) -0.1554 ( 84)
          -0.1608 ( 85) -0.1566 ( 88)  0.1038 ( 89)  0.1469 ( 91) -0.1624 ( 94)
          -0.1601 ( 95) -0.1720 ( 98) -0.1195 ( 99)  0.1169 (100)  0.2095 (101)
           0.1910 (104) -0.1063 (106)  0.1566 (107)  0.1271 (108)  0.1659 (109)
           0.1762 (110)  0.1274 (132)  0.1310 (135)
 CRD 72=   0.1172 (  1) -0.1324 (  3)  0.1287 (  5) -0.1384 (  7) -0.1010 (  8)
          -0.1186 ( 11)  0.1154 ( 12) -0.1064 ( 28)  0.1169 ( 31) -0.1211 ( 32)
           0.1022 ( 33) -0.1061 ( 36)  0.1088 ( 37)  0.1048 ( 43)  0.1089 ( 46)
          -0.1133 ( 48)  0.2154 ( 76) -0.1247 ( 78) -0.1393 ( 81)  0.2114 ( 82)
          -0.1792 ( 83)  0.1813 ( 84)  0.1802 ( 85) -0.1955 ( 88)  0.2056 ( 89)
           0.1937 ( 90) -0.2144 ( 92) -0.2159 ( 93)  0.1175 ( 94)  0.1176 ( 95)
           0.1351 (100)  0.1599 (101) -0.1882 (107) -0.1940 (108) -0.1349 (109)
          -0.1325 (110)

 THE DETERMINANT OF THE G MATRIX IS 10**(   -24)


                     --------------------
                     INTERNAL COORDINATES
                     --------------------

                 - - ATOMS - -         COORDINATE      COORDINATE
 NO.   TYPE    I  J  K  L  M  N        (BOHR,RAD)       (ANG,DEG)
 ----------------------------------------------------------------
   1 STRETCH   1 10                     2.0942295       1.1082186
   2 STRETCH   1  3                     2.8909232       1.5298108
   3 STRETCH   1  9                     2.0955907       1.1089389
   4 STRETCH   1  2                     2.8740198       1.5208659
   5 STRETCH   2 11                     2.1064163       1.1146676
   6 STRETCH   2  4                     2.8699493       1.5187119
   7 STRETCH   2 12                     2.0946093       1.1084196
   8 STRETCH   3 13                     2.1127249       1.1180060
   9 STRETCH   3  6                     2.8733587       1.5205160
  10 STRETCH   3  5                     2.8706150       1.5190641
  11 STRETCH   4 15                     2.0953759       1.1088253
  12 STRETCH   4 14                     2.0946625       1.1084477
  13 STRETCH   4  7                     2.8732193       1.5204423
  14 STRETCH   5 16                     2.0743123       1.0976789
  15 STRETCH   5 18                     2.0743450       1.0976962
  16 STRETCH   5 17                     2.0759033       1.0985208
  17 STRETCH   6 21                     2.0751023       1.0980969
  18 STRETCH   6 20                     2.0842971       1.1029626
  19 STRETCH   6 19                     2.0724307       1.0966832
  20 STRETCH   7  8                     2.8571696       1.5119491
  21 STRETCH   7 23                     2.0944045       1.1083112
  22 STRETCH   7 22                     2.0944418       1.1083310
  23 STRETCH   8 26                     2.0736461       1.0973264
  24 STRETCH   8 25                     2.0754225       1.0982664
  25 STRETCH   8 24                     2.0752012       1.0981492
  26 BEND      1  2  4                  1.9472586     111.5697012
  27 BEND      1  3  6                  1.9294662     110.5502678
  28 BEND      1  2 11                  1.9010594     108.9226775
  29 BEND      1  3  5                  1.9273016     110.4262470
  30 BEND      1  3 13                  1.8896338     108.2680425
  31 BEND      1  2 12                  1.9201667     110.0174507
  32 BEND      2  1 10                  1.9190168     109.9515653
  33 BEND      2  1  9                  1.9227690     110.1665464
  34 BEND      2  4  7                  1.9441229     111.3900383
  35 BEND      2  1  3                  1.9447120     111.4237893
  36 BEND      2  4 14                  1.9183627     109.9140871
  37 BEND      2  4 15                  1.9210224     110.0664766
  38 BEND      3  5 18                  1.9403147     111.1718408
  39 BEND      3  5 16                  1.9457697     111.4843918
  40 BEND      3  6 19                  1.9482732     111.6278297
  41 BEND      3  6 20                  1.9244515     110.2629473
  42 BEND      3  1 10                  1.9167186     109.8198854
  43 BEND      3  1  9                  1.9140730     109.6683038
  44 BEND      3  6 21                  1.9496811     111.7084996
  45 BEND      3  5 17                  1.9484076     111.6355348
  46 BEND      4  2 12                  1.9211628     110.0745207
  47 BEND      4  7  8                  1.9457812     111.4850526
  48 BEND      4  2 11                  1.9305996     110.6152112
  49 BEND      4  7 22                  1.9170340     109.8379550
  50 BEND      4  7 23                  1.9176738     109.8746149
  51 BEND      5  3 13                  1.8940330     108.5200966
  52 BEND      5  3  6                  1.9288595     110.5155058
  53 BEND      6  3 13                  1.8934246     108.4852396
  54 BEND      7  4 14                  1.9188126     109.9398616
  55 BEND      7  4 15                  1.9176124     109.8710968
  56 BEND      7  8 24                  1.9487353     111.6543056
  57 BEND      7  8 26                  1.9426082     111.3032497
  58 BEND      7  8 25                  1.9483497     111.6322174
  59 BEND      8  7 22                  1.9196674     109.9888400
  60 BEND      8  7 23                  1.9191565     109.9595650
  61 BEND      9  1 10                  1.8439383     105.6498832
  62 BEND     11  2 12                  1.8405904     105.4580592
  63 BEND     14  4 15                  1.8412200     105.4941347
  64 BEND     16  5 17                  1.8744010     107.3952666
  65 BEND     16  5 18                  1.8768508     107.5356324
  66 BEND     17  5 18                  1.8744372     107.3973391
  67 BEND     19  6 20                  1.8868517     108.1086367
  68 BEND     19  6 21                  1.8776819     107.5832499
  69 BEND     20  6 21                  1.8739759     107.3709102
  70 BEND     22  7 23                  1.8417577     105.5249456
  71 BEND     24  8 25                  1.8713008     107.2176373
  72 BEND     24  8 26                  1.8743959     107.3949764
  73 BEND     25  8 26                  1.8744252     107.3966554
  74 TORSION   1  2  4  7               3.1342548     179.5795711
  75 TORSION   1  3  6 19               2.9734011     170.3633341
  76 TORSION   1  2  4 14               1.0031395      57.4756624
  77 TORSION   1  3  6 20               0.8757795      50.1784684
  78 TORSION   1  3  5 17               1.0378389      59.4637903
  79 TORSION   1  3  5 18               3.1305783     179.3689241
  80 TORSION   1  3  6 21              -1.2065590     -69.1307368
  81 TORSION   1  3  5 16              -1.0585834     -60.6523594
  82 TORSION   1  2  4 15              -1.0175007     -58.2984943
  83 TORSION   2  1  3 13               0.9306356      53.3214925
  84 TORSION   2  4  7 22               1.0086976      57.7941175
  85 TORSION   2  4  7 23              -1.0098963     -57.8627944
  86 TORSION   2  1  3  5               3.0019435     171.9986910
  87 TORSION   2  4  7  8               3.1410960     179.9715442
  88 TORSION   2  1  3  6              -1.1411901     -65.3853764
  89 TORSION   3  1  2 11               0.8756834      50.1729654
  90 TORSION   3  1  2 12              -1.1338208     -64.9631494
  91 TORSION   3  1  2  4               3.0118814     172.5680943
  92 TORSION   4  2  1  9               0.8833391      50.6116011
  93 TORSION   4  2  1 10              -1.1419955     -65.4315201
  94 TORSION   4  7  8 24              -1.0441276     -59.8241050
  95 TORSION   4  7  8 25               1.0503364      60.1798417
  96 TORSION   4  7  8 26              -3.1386006    -179.8285662
  97 TORSION   5  3  6 20               3.0149215     172.7422784
  98 TORSION   5  3  6 19              -1.1706422     -67.0728560
  99 TORSION   5  3  6 21               0.9325831      53.4330731
 100 TORSION   5  3  1  9              -1.1476766     -65.7570250
 101 TORSION   5  3  1 10               0.8713067      49.9221946
 102 TORSION   6  3  1 10               3.0113584     172.5381272
 103 TORSION   6  3  5 16               3.0841952     176.7113700
 104 TORSION   6  3  5 18               0.9901716      56.7326536
 105 TORSION   6  3  5 17              -1.1025678     -63.1724802
 106 TORSION   6  3  1  9               0.9923751      56.8589075
 107 TORSION   7  4  2 12               0.9973433      57.1435615
 108 TORSION   7  4  2 11              -1.0297860     -59.0023937
 109 TORSION   8  7  4 14              -1.0112341     -57.9394447
 110 TORSION   8  7  4 15               1.0076969      57.7367817
 111 TORSION   9  1  2 11              -1.2528589     -71.7835278
 112 TORSION   9  1  2 12               3.0208221     173.0803574
 113 TORSION   9  1  3 13               3.0642009     175.5657764
 114 TORSION  10  1  2 11               3.0049919     172.1733510
 115 TORSION  10  1  2 12               0.9954876      57.0372362
 116 TORSION  10  1  3 13              -1.2000012     -68.7550039
 117 TORSION  11  2  4 15               1.1016438      63.1195409
 118 TORSION  11  2  4 14               3.1222840     178.8936976
 119 TORSION  12  2  4 15               3.1287731     179.2654960
 120 TORSION  12  2  4 14              -1.1337719     -64.9603473
 121 TORSION  13  3  6 20              -1.1937404     -68.3962855
 122 TORSION  13  3  6 19               0.9038812      51.7885802
 123 TORSION  13  3  5 16               1.0100414      57.8711075
 124 TORSION  13  3  5 18              -1.0839823     -62.1076089
 125 TORSION  13  3  5 17               3.1064637     177.9872573
 126 TORSION  13  3  6 21               3.0071065     172.2945093
 127 TORSION  14  4  7 23               1.1209589      64.2262167
 128 TORSION  14  4  7 22               3.1395529     179.8831286
 129 TORSION  15  4  7 23               3.1398900     179.9024431
 130 TORSION  15  4  7 22              -1.1247014     -64.4406450
 131 TORSION  22  7  8 25              -3.1019694    -177.7297520
 132 TORSION  22  7  8 26              -1.0077210     -57.7381599
 133 TORSION  22  7  8 24               1.0867520      62.2663013
 134 TORSION  23  7  8 25              -1.0810016     -61.9368301
 135 TORSION  23  7  8 26               1.0132467      58.0547620
 136 TORSION  23  7  8 24               3.1077197     178.0592231

     ------------------------------------------
     THE POINT GROUP IS C1 , NAXIS= 1, ORDER= 1
     ------------------------------------------

     DIMENSIONS OF THE SYMMETRY SUBSPACES ARE
 A   =  260

 ..... DONE SETTING UP THE RUN .....
 STEP CPU TIME =     0.03 TOTAL CPU TIME =        0.0 (    0.0 MIN)
 TOTAL WALL CLOCK TIME=        0.0 SECONDS, CPU UTILIZATION IS 100.00%


          -----------------------------
          STATIONARY POINT LOCATION RUN
          -----------------------------

 OBTAINING INITIAL HESSIAN, HESS=GUESS   
 DIAGONAL GUESS HESSIAN IN INTERNAL COORDS IS
     1  0.3343     2  0.3673     3  0.3338     4  0.3737     5  0.3302
     6  0.3753     7  0.3342     8  0.3280     9  0.3740    10  0.3751
    11  0.3339    12  0.3342    13  0.3741    14  0.3412    15  0.3412
    16  0.3407    17  0.3410    18  0.3377    19  0.3419    20  0.3803
    21  0.3343    22  0.3342    23  0.3415    24  0.3408    25  0.3409
    26  0.2499    27  0.2492    28  0.2232    29  0.2493    30  0.2224
    31  0.2235    32  0.2235    33  0.2235    34  0.2500    35  0.2491
    36  0.2237    37  0.2236    38  0.2243    39  0.2243    40  0.2242
    41  0.2239    42  0.2230    43  0.2230    44  0.2242    45  0.2242
    46  0.2237    47  0.2504    48  0.2233    49  0.2236    50  0.2236
    51  0.2231    52  0.2499    53  0.2230    54  0.2235    55  0.2235
    56  0.2247    57  0.2247    58  0.2247    59  0.2241    60  0.2241
    61  0.2015    62  0.2013    63  0.2015    64  0.2026    65  0.2026
    66  0.2026    67  0.2024    68  0.2027    69  0.2023    70  0.2016
    71  0.2026    72  0.2026    73  0.2026    74  0.2500    75  0.2500
    76  0.2500    77  0.2500    78  0.2500    79  0.2500    80  0.2500
    81  0.2500    82  0.2500    83  0.2500    84  0.2500    85  0.2500
    86  0.2500    87  0.2500    88  0.2500    89  0.2500    90  0.2500
    91  0.2500    92  0.2500    93  0.2500    94  0.2500    95  0.2500
    96  0.2500    97  0.2500    98  0.2500    99  0.2500   100  0.2500
   101  0.2500   102  0.2500   103  0.2500   104  0.2500   105  0.2500
   106  0.2500   107  0.2500   108  0.2500   109  0.2500   110  0.2500
   111  0.2500   112  0.2500   113  0.2500   114  0.2500   115  0.2500
   116  0.2500   117  0.2500   118  0.2500   119  0.2500   120  0.2500
   121  0.2500   122  0.2500   123  0.2500   124  0.2500   125  0.2500
   126  0.2500   127  0.2500   128  0.2500   129  0.2500   130  0.2500
   131  0.2500   132  0.2500   133  0.2500   134  0.2500   135  0.2500
   136  0.2500
 TRANSFORMING HESSIAN TO SYMMETRY COORDINATES

          PARAMETERS CONTROLLING GEOMETRY SEARCH ARE
          METHOD =QA                  UPHESS =BFGS    
          NNEG   =         0          NFRZ   =         3
          NSTEP  =        50          IFOLOW =         1
          HESS   =GUESS               RESTAR =         F
          IHREP  =         0          HSSEND =         F
          NPRT   =         0          NPUN   =         0
          OPTTOL = 5.000E-04          RMIN   = 1.500E-03
          RMAX   = 1.000E-01          RLIM   = 7.000E-02
          DXMAX  = 3.000E-01          PURIFY =         F
          MOVIE  =         F          TRUPD  =         T
          TRMAX  = 5.000E-01          TRMIN  = 5.000E-02
          ITBMAT =         5          STPT   =         F
          STSTEP = 1.000E-02          PROJCT=          F
          FROZEN COORD(S)=   1   2   3


      ***** EQUILIBRIUM GEOMETRY LOCATED *****
            (SUBJECT TO   3 CONSTRAINT(S))
 COORDINATES OF ALL ATOMS ARE (ANGS)
   ATOM   CHARGE       X              Y              Z
 ------------------------------------------------------------
 C           6.0   5.1397069400   2.4327093602   1.8166635717
 C           6.0   4.0464811400   1.4083536749   2.1004982872
 C           6.0   6.3825312803   1.8366380733   1.1449849613
 C           6.0   2.8514036123   1.9721053401   2.8601073341
 C           6.0   7.3854771795   2.9385387294   0.7991024144
 C           6.0   7.0385676832   0.7535152400   2.0093213391
 C           6.0   1.9424175882   0.8662717793   3.3887246858
 C           6.0   0.7431435195   1.4017910174   4.1621652202
 H           1.0   5.4377878362   2.9062222250   2.7530924844
 H           1.0   4.7388545667   3.2262272110   1.1866346765
 H           1.0   4.4580900031   0.5977603650   2.6922601332
 H           1.0   3.7095767197   0.9657764821   1.1633725925
 H           1.0   6.0655774647   1.3696379714   0.2120492116
 H           1.0   2.2844964264   2.6512687666   2.2240353238
 H           1.0   3.2109239530   2.5655606541   3.7005105684
 H           1.0   6.9418967869   3.6740990267   0.1329884194
 H           1.0   7.7158546399   3.4555955826   1.6977850732
 H           1.0   8.2638971764   2.5286524174   0.3078619781
 H           1.0   7.9093119749   0.3363153323   1.5121967967
 H           1.0   6.3597136441  -0.0672196420   2.2116037675
 H           1.0   7.3580666168   1.1621854295   2.9663350889
 H           1.0   2.5300806048   0.2171378238   4.0359763822
 H           1.0   1.6053752686   0.2470316551   2.5586163118
 H           1.0   1.0721219673   2.0222442070   4.9925219248
 H           1.0   0.1082544366   2.0091626348   3.5223156446
 H           1.0   0.1415373919   0.5932760336   4.5666442231


                     --------------------
                     INTERNAL COORDINATES
                     --------------------

                 - - ATOMS - -         COORDINATE      COORDINATE
 NO.   TYPE    I  J  K  L  M  N        (BOHR,RAD)       (ANG,DEG)
 ----------------------------------------------------------------
   1 STRETCH   1 10                     2.0590987       1.0896282
   2 STRETCH   1  3                     2.8975517       1.5333185
   3 STRETCH   1  9                     2.0614180       1.0908555
   4 STRETCH   1  2                     2.8814507       1.5247981
   5 STRETCH   2 11                     2.0498654       1.0847421
   6 STRETCH   2  4                     2.8802252       1.5241496
   7 STRETCH   2 12                     2.0593537       1.0897632
   8 STRETCH   3 13                     2.0605102       1.0903751
   9 STRETCH   3  6                     2.8972749       1.5331719
  10 STRETCH   3  5                     2.8905521       1.5296144
  11 STRETCH   4 15                     2.0594734       1.0898264
  12 STRETCH   4 14                     2.0590508       1.0896028
  13 STRETCH   4  7                     2.8836499       1.5259619
  14 STRETCH   5 16                     2.0540899       1.0869776
  15 STRETCH   5 18                     2.0535902       1.0867132
  16 STRETCH   5 17                     2.0563550       1.0881763
  17 STRETCH   6 21                     2.0570830       1.0885615
  18 STRETCH   6 20                     2.0487338       1.0841433
  19 STRETCH   6 19                     2.0522322       1.0859946
  20 STRETCH   7  8                     2.8803599       1.5242209
  21 STRETCH   7 23                     2.0580979       1.0890986
  22 STRETCH   7 22                     2.0576829       1.0888790
  23 STRETCH   8 26                     2.0520977       1.0859234
  24 STRETCH   8 25                     2.0539782       1.0869185
  25 STRETCH   8 24                     2.0550987       1.0875115
  26 BEND      1  2  4                  1.9893675     113.9823644
  27 BEND      1  3  6                  1.9546585     111.9936834
  28 BEND      1  2 11                  1.9086969     109.3602766
  29 BEND      1  3  5                  1.9288732     110.5162922
  30 BEND      1  3 13                  1.8814592     107.7996686
  31 BEND      1  2 12                  1.9117765     109.5367226
  32 BEND      2  1 10                  1.9103941     109.4575202
  33 BEND      2  1  9                  1.9046960     109.1310420
  34 BEND      2  4  7                  1.9516072     111.8188547
  35 BEND      2  1  3                  1.9839676     113.6729711
  36 BEND      2  4 14                  1.9257719     110.3386037
  37 BEND      2  4 15                  1.9039991     109.0911132
  38 BEND      3  5 18                  1.9396152     111.1317670
  39 BEND      3  5 16                  1.9374325     111.0067029
  40 BEND      3  6 19                  1.9352238     110.8801565
  41 BEND      3  6 20                  1.9520326     111.8432315
  42 BEND      3  1 10                  1.9049822     109.1474407
  43 BEND      3  1  9                  1.9000133     108.8627423
  44 BEND      3  6 21                  1.9347789     110.8546638
  45 BEND      3  5 17                  1.9333013     110.7700051
  46 BEND      4  2 12                  1.9138739     109.6568961
  47 BEND      4  7  8                  1.9712786     112.9459420
  48 BEND      4  2 11                  1.8776311     107.5803401
  49 BEND      4  7 22                  1.8927784     108.4482126
  50 BEND      4  7 23                  1.9095863     109.4112346
  51 BEND      5  3 13                  1.8814234     107.7976210
  52 BEND      5  3  6                  1.9346005     110.8444432
  53 BEND      6  3 13                  1.8798597     107.7080267
  54 BEND      7  4 14                  1.9219722     110.1208929
  55 BEND      7  4 15                  1.9007427     108.9045328
  56 BEND      7  8 24                  1.9282374     110.4798659
  57 BEND      7  8 26                  1.9426208     111.3039745
  58 BEND      7  8 25                  1.9360679     110.9285207
  59 BEND      8  7 22                  1.9097076     109.4181846
  60 BEND      8  7 23                  1.9209430     110.0619288
  61 BEND      9  1 10                  1.8553856     106.3057649
  62 BEND     11  2 12                  1.8576642     106.4363177
  63 BEND     14  4 15                  1.8570692     106.4022248
  64 BEND     16  5 17                  1.8843646     107.9661371
  65 BEND     16  5 18                  1.8839791     107.9440499
  66 BEND     17  5 18                  1.8829734     107.8864311
  67 BEND     19  6 20                  1.8719697     107.2559648
  68 BEND     19  6 21                  1.8873928     108.1396422
  69 BEND     20  6 21                  1.8796389     107.6953778
  70 BEND     22  7 23                  1.8557637     106.3274296
  71 BEND     24  8 25                  1.8832243     107.9008070
  72 BEND     24  8 26                  1.8838557     107.9369784
  73 BEND     25  8 26                  1.8877948     108.1626753
  74 TORSION   1  2  4  7              -2.9192319    -167.2596687
  75 TORSION   1  3  6 19               3.1304203     179.3598709
  76 TORSION   1  2  4 14               1.2184530      69.8122125
  77 TORSION   1  3  6 20               1.0418374      59.6928853
  78 TORSION   1  3  5 17               1.0644736      60.9898468
  79 TORSION   1  3  5 18              -3.1257616    -179.0929492
  80 TORSION   1  3  6 21              -1.0561749     -60.5143663
  81 TORSION   1  3  5 16              -1.0287875     -58.9451830
  82 TORSION   1  2  4 15              -0.8157253     -46.7376162
  83 TORSION   2  1  3 13               1.0156528      58.1926199
  84 TORSION   2  4  7 22               1.0144773      58.1252687
  85 TORSION   2  4  7 23              -1.0027688     -57.4544219
  86 TORSION   2  1  3  5               3.0677203     175.7674238
  87 TORSION   2  4  7  8               3.1342511     179.5793614
  88 TORSION   2  1  3  6              -1.0492063     -60.1150957
  89 TORSION   3  1  2 11               0.9647447      55.2758014
  90 TORSION   3  1  2 12              -1.0648959     -61.0140420
  91 TORSION   3  1  2  4               3.0669042     175.7206645
  92 TORSION   4  2  1  9               0.9425458      54.0038936
  93 TORSION   4  2  1 10              -1.0813186     -61.9549904
  94 TORSION   4  7  8 24              -1.0007638     -57.3395392
  95 TORSION   4  7  8 25               1.0868505      62.2719444
  96 TORSION   4  7  8 26              -3.0934357    -177.2408077
  97 TORSION   5  3  6 20              -3.0782913    -176.3731006
  98 TORSION   5  3  6 19              -0.9897084     -56.7061150
  99 TORSION   5  3  6 21               1.1068817      63.4196478
 100 TORSION   5  3  1  9              -1.0885057     -62.3667823
 101 TORSION   5  3  1 10               0.9297720      53.2720121
 102 TORSION   6  3  1 10               3.0960307     177.3894927
 103 TORSION   6  3  5 16               3.0766672     176.2800462
 104 TORSION   6  3  5 18               0.9796931      56.1322800
 105 TORSION   6  3  5 17              -1.1132569     -63.7849240
 106 TORSION   6  3  1  9               1.0777530      61.7506983
 107 TORSION   7  4  2 12               1.2137079      69.5403379
 108 TORSION   7  4  2 11              -0.7997615     -45.8229612
 109 TORSION   8  7  4 14              -1.0012767     -57.3689282
 110 TORSION   8  7  4 15               1.0288470      58.9485882
 111 TORSION   9  1  2 11              -1.1596137     -66.4409695
 112 TORSION   9  1  2 12               3.0939310     177.2691871
 113 TORSION   9  1  3 13              -3.1405731    -179.9415861
 114 TORSION  10  1  2 11               3.0997073     177.6001465
 115 TORSION  10  1  2 12               1.0700667      61.3103031
 116 TORSION  10  1  3 13              -1.1222954     -64.3027917
 117 TORSION  11  2  4 15               1.3037451      74.6990912
 118 TORSION  11  2  4 14              -2.9452620    -168.7510800
 119 TORSION  12  2  4 15              -2.9659708    -169.9376096
 120 TORSION  12  2  4 14              -0.9317926     -53.3877809
 121 TORSION  13  3  6 20              -1.0239715     -58.6692441
 122 TORSION  13  3  6 19               1.0646114      60.9977416
 123 TORSION  13  3  5 16               1.0233019      58.6308796
 124 TORSION  13  3  5 18              -1.0736722     -61.5168867
 125 TORSION  13  3  5 17               3.1165631     178.5659094
 126 TORSION  13  3  6 21              -3.1219838    -178.8764957
 127 TORSION  14  4  7 23               1.1448887      65.5972884
 128 TORSION  14  4  7 22              -3.1210505    -178.8230209
 129 TORSION  15  4  7 23              -3.1081730    -178.0851952
 130 TORSION  15  4  7 22              -1.0909269     -62.5055046
 131 TORSION  22  7  8 25              -3.0861578    -176.8238149
 132 TORSION  22  7  8 26              -0.9832586     -56.3365670
 133 TORSION  22  7  8 24               1.1094133      63.5647014
 134 TORSION  23  7  8 25              -1.0529888     -60.3318158
 135 TORSION  23  7  8 26               1.0499104      60.1554320
 136 TORSION  23  7  8 24              -3.1406030    -179.9432995

          INTERNUCLEAR DISTANCES (ANGS.)


 =====================================================
   GAMESS/COSab RESULTS
 =====================================================

   Dielectric Constant                  = INFTY
   Basic Grid Size                      =                 1082
   Number of Segments                   =                   92
   Number of Segments located on spheres=                  297
   Number of Segments of the cavity     =                  861
   Solvent Radius (rsolv)               = 1.40
   Outlying Charge Error Method         = double cavity

 =====================================================

  Total solvated Energy (a.u.)          =  -313.5137591177
  Total Energy corrected (a.u.)         =  -313.5136490639

  Outlying charge effect (a.u.)         =     0.0001100538
  Outlying charge effect (kcal/mol)     =     0.0690598323

  Dielectric Energy (a.u.)              =    -0.0014961453
  Dielectric energy corr. (a.u.)        =    -0.0013860916

  Sum of polarization charges           =     0.0330372150
  Sum of polarization charges(cor.)     =    -0.0330372150

  Total surface area of cavity (A**2)   =  190.43
  Total volume of cavity (A**3)         =  189.56

 =====================================================
 NPS=                   861
NR.  ATOM  (X, Y, Z)(a.u.)                  CHARGE(e)  AREA(A**2) SIGMA(e/A**2)
   1   1   8.373343   8.009408   4.353320   0.001623   0.325193   0.004992
   2   1   8.295805   4.547777  -0.070495   0.000214   0.092912   0.002302
   3   1   8.691254   5.022038  -0.180943   0.000087   0.046456   0.001874
   4   1   8.976937   7.982480   4.943788   0.001249   0.232280   0.005378
   5   1  10.350201   8.312778   3.701081   0.000823   0.185824   0.004427
   6   1   9.528339   8.315129   4.086366   0.001995   0.325193   0.006135
   7   1   7.982186   4.741557   0.076066   0.000121   0.046456   0.002612
   8   1  10.417385   8.171900   4.437351   0.000657   0.139368   0.004717
   9   2   8.069715  -0.760793   2.422107   0.000703   0.139368   0.005045
  10   2   6.003286   4.171724   0.919409   0.000221   0.092912   0.002381
  11   2   5.582440   3.710839   0.982461   0.000080   0.046456   0.001723
  12   2   9.324675   2.509154   7.352499   0.000116   0.092912   0.001247
  13   2   9.019987   3.065283   7.467265   0.000035   0.046456   0.000758
  14   2   6.795763  -0.959501   3.299128   0.000905   0.185824   0.004872
  15   2   7.578852  -0.985132   2.978147   0.001748   0.278737   0.006272
  16   2   6.283713   3.991090   0.704654   0.000122   0.046456   0.002621
  17   2   7.317833  -1.100855   3.822498   0.000577   0.139368   0.004139
  18   2   8.986602   2.347793   7.489402   0.000064   0.046456   0.001371
  19   3  13.917964   1.726509  -0.628145   0.000174   0.092912   0.001868
  20   3  10.336246   4.655918  -0.983355   0.000225   0.185824   0.001212
  21   3  13.769496   1.385091  -0.485093   0.000071   0.046456   0.001519
  22   4   5.826356   7.465491   5.742706   0.001655   0.325193   0.005090
  23   4   7.467615   2.810287   8.424941   0.000174   0.092912   0.001869
  24   4   7.018494   3.096982   8.755998   0.000069   0.046456   0.001482
  25   4   5.199926   7.491227   5.126640   0.001502   0.278737   0.005388
  26   4   3.747784   3.449165   2.011348   0.000319   0.139368   0.002292
  27   4   4.022322   6.964051   6.796954   0.001184   0.232280   0.005096
  28   4   4.712499   7.350821   6.237599   0.001994   0.325193   0.006132
  29   4   7.701425   3.116676   8.330887   0.000096   0.046456   0.002064
  30   4   3.815755   7.117945   5.962412   0.000690   0.139368   0.004948
  31   4   3.279069   3.325514   2.294498   0.000136   0.046456   0.002917
  32   5  17.510584   6.420925   2.458620   0.002360   0.418105   0.005643
  33   5  13.577864   4.855450  -2.185077   0.001125   0.325193   0.003461
  34   5  14.760943   9.210348   2.021251   0.001971   0.418105   0.004713
  35   5  16.311461   7.134537  -0.987396   0.001507   0.371649   0.004054
  36   5  17.175426   4.778175   3.332867   0.001509   0.325193   0.004639
  37   5  15.369201   7.527408  -1.386548   0.001614   0.371649   0.004343
  38   5  14.099584   9.325317   1.326398   0.001260   0.278737   0.004519
  39   5  13.319446   5.709848  -2.211982   0.000594   0.185824   0.003198
  40   5  17.235042   5.676103   3.386374   0.001089   0.232280   0.004690
  41   5  17.557721   5.180654   2.594975   0.001322   0.278737   0.004744
  42   5  12.609805   8.847792   2.781001   0.001489   0.278737   0.005343
  43   5  13.489181   9.178963   2.468496   0.002120   0.371649   0.005704
  44   5  15.407267   8.981635   0.858651   0.001556   0.464561   0.003349
  45   5  16.128024   8.108748  -0.232678   0.001425   0.464561   0.003067
  46   5  15.435410   6.418871  -1.858519   0.001961   0.371649   0.005276
  47   5  14.639595   5.274645  -2.196687   0.001747   0.371649   0.004701
  48   5  14.312451   4.020156  -1.926166   0.001197   0.371649   0.003220
  49   5  16.056717   8.664322   1.949862   0.001347   0.418105   0.003223
  50   5  17.066309   7.628683   2.062565   0.001563   0.418105   0.003739
  51   5  17.485224   6.886686   1.277812   0.001731   0.464561   0.003726
  52   5  16.995412   7.220886   0.004185   0.000972   0.325193   0.002988
  53   5  15.304385   8.647909  -0.189719   0.000830   0.278737   0.002978
  54   5  12.613873   9.050064   2.012458   0.000613   0.139368   0.004401
  55   5  12.556182   5.266217  -1.988630   0.000669   0.232280   0.002881
  56   5  14.384647   6.258436  -2.178191   0.001525   0.325193   0.004689
  57   5  14.499004   3.157933  -1.362791   0.000206   0.092912   0.002222
  58   5  16.644145   8.145921   0.928755   0.001200   0.464561   0.002582
  59   6  16.744319   1.976792   5.253761   0.001256   0.232280   0.005406
  60   6  14.789447  -1.588966   5.526538   0.001016   0.371649   0.002735
  61   6  12.940650  -1.899387   2.033562   0.001807   0.371649   0.004863
  62   6  11.998127   0.932498   7.310650   0.000635   0.139368   0.004558
  63   6  14.166041   0.166248   0.339583   0.000149   0.092912   0.001609
  64   6  13.975550  -1.847992   2.029669   0.001267   0.278737   0.004546
  65   6  15.494572  -1.536499   4.638594   0.001362   0.418105   0.003257
  66   6  16.981339   1.477306   4.655148   0.001187   0.232280   0.005111
  67   6  12.628578   0.275784   7.334553   0.001170   0.232280   0.005038
  68   6  12.153231  -0.097621   7.060766   0.001095   0.232280   0.004714
  69   6  16.797756   2.564226   4.666839   0.000991   0.185824   0.005333
  70   6  16.562767   0.754053   5.584852   0.002695   0.511017   0.005273
  71   6  15.769755  -0.684885   5.731543   0.001362   0.418105   0.003257
  72   6  14.156492  -2.168158   4.602771   0.001680   0.418105   0.004018
  73   6  13.672152  -2.278626   3.135628   0.001969   0.371649   0.005299
  74   6  13.241145  -1.347192   1.227718   0.001062   0.278737   0.003809
  75   6  13.127087  -0.666356   0.653066   0.000415   0.139368   0.002975
  76   6  13.921884  -0.212560   7.146773   0.001441   0.371649   0.003878
  77   6  14.607262  -0.897318   6.478406   0.001377   0.464561   0.002963
  78   6  13.757858  -1.705054   5.867059   0.001034   0.325193   0.003179
  79   6  11.750075  -1.241875   1.612475   0.000577   0.185824   0.003107
  80   6  11.385665  -0.770124   1.388337   0.000140   0.092912   0.001508
  81   6  13.748914  -0.772163   0.753911   0.000581   0.185824   0.003124
  82   6  14.572238  -2.133850   3.695710   0.001439   0.325193   0.004425
  83   6  16.409031  -0.231103   5.170035   0.001087   0.278737   0.003898
  84   6  17.001300   2.181251   3.932420   0.000548   0.139368   0.003929
  85   6  13.166501  -0.915510   6.762381   0.001765   0.418105   0.004221
  86   6  15.517299   0.064487   6.540057   0.001231   0.371649   0.003313
  87   6  12.297178  -1.069904   1.140482   0.000751   0.232280   0.003232
  88   7   2.325328  -1.777440   7.307055   0.000822   0.278737   0.002948
  89   7   4.945740  -1.717056   5.216896   0.001256   0.232280   0.005409
  90   7   1.554769   2.431271   3.374486   0.000219   0.092912   0.002362
  91   7   1.220797   1.926871   3.540455   0.000091   0.046456   0.001962
  92   7   5.049996  -1.853693   5.960307   0.000945   0.185824   0.005087
  93   7   3.155864  -1.808791   7.868592   0.000905   0.278737   0.003247
  94   7   5.795975   2.167465   9.483665   0.000264   0.139368   0.001893
  95   7   2.947209  -2.070921   6.514090   0.001678   0.371649   0.004516
  96   7   4.163230  -2.055363   5.764993   0.001627   0.278737   0.005837
  97   7   2.010333  -1.755295   6.262585   0.000771   0.232280   0.003321
  98   7   1.841722   2.265325   3.156524   0.000116   0.046456   0.002493
  99   7   3.805988  -2.135224   6.594061   0.001425   0.278737   0.005111
 100   7   5.333825   2.036102   9.774040   0.000103   0.046456   0.002216
 101   8  -2.361348   2.487780   7.586165   0.002235   0.418105   0.005346
 102   8   2.682236   1.099332  11.066884   0.001023   0.325193   0.003145
 103   8  -0.521505   5.798229   8.676395   0.001958   0.418105   0.004682
 104   8  -0.778212   2.552858  10.949439   0.001504   0.371649   0.004046
 105   8  -0.382995  -0.238329   6.206123   0.000742   0.278737   0.002662
 106   8  -0.634441   1.789411   4.801249   0.000751   0.232280   0.003234
 107   8  -0.908113   0.888567   5.449217   0.001049   0.325193   0.003225
 108   8  -1.776982   1.302189   6.332511   0.001508   0.325193   0.004636
 109   8   0.066020   3.111726  11.369512   0.001612   0.371649   0.004337
 110   8   0.198904   5.928197   9.306913   0.001250   0.278737   0.004486
 111   8   2.088108   6.350763   8.202469   0.000428   0.139368   0.003068
 112   8   2.678549   1.945198  11.353238   0.000600   0.185824   0.003226
 113   8  -2.065284   2.178604   6.442414   0.001080   0.232280   0.004648
 114   8  -2.127006   1.459101   7.234422   0.001276   0.278737   0.004579
 115   8   1.410941   6.417582   7.579012   0.001371   0.278737   0.004920
 116   8   0.479905   6.310207   8.024283   0.001446   0.278737   0.005187
 117   8  -0.833167   5.041931   9.749970   0.001561   0.464561   0.003361
 118   8  -1.039278   3.703396  10.548885   0.001423   0.464561   0.003063
[...]
 602  20  11.084805  -0.447640   6.495343  -0.000193   0.073859  -0.002613
 603  11   9.890908   0.231610   6.990775  -0.000590   0.227479  -0.002592
 604  11   9.885052   1.220182   7.194114  -0.000223   0.227479  -0.000981
 605   6  11.293425   0.740509   7.061877   0.001815   0.634053   0.002862
 606   6  10.466740  -0.053466   1.386792   0.000380   0.249921   0.001520
 607  12   9.227899   0.255764   1.231413   0.000562   0.249921   0.002247
 608  13  10.218991   0.329032   0.786420  -0.000003   0.249921  -0.000012
 609  12   8.650165  -0.099639   1.280224   0.000070   0.010376   0.006762
 610   6  10.476098  -0.532776   1.520467   0.000077   0.015349   0.004992
 611  13  12.807548   0.723363  -0.536858  -0.000075   0.209002  -0.000360
 612  13  11.477154   0.241784   0.018289  -0.000926   0.429762  -0.002155
 613   6  12.873775  -0.108980   0.375498   0.001111   0.570807   0.001946
 614   6  11.341123  -0.500407   1.071045   0.000757   0.294581   0.002569
 615   6  16.931928   2.430304   3.018190   0.000140   0.087984   0.001594
 616  18  17.064005   3.110554   2.309886   0.000191   0.087984   0.002176
 617  19  16.998165   2.191856   2.838413  -0.000008   0.087984  -0.000093
 618  18  17.359170   3.587276   2.111794   0.000014   0.008630   0.001567
 619   6  17.076413   2.578029   3.131624   0.000083   0.012250   0.006781
 620  19  17.150681   1.629483   3.299806  -0.000038   0.066738  -0.000574
 621  19  17.096541   0.759760   3.934883  -0.000095   0.147153  -0.000642
 622  19  16.652557  -0.445593   4.168799  -0.000186   0.147153  -0.001265
 623  19  15.915025  -1.408123   3.684756  -0.000254   0.147153  -0.001726
 624  19  15.169748  -1.754837   2.670329  -0.000116   0.147153  -0.000791
 625  19  14.705528  -1.351380   1.518618  -0.000179   0.147153  -0.001219
 626  19  14.702258  -0.354096   0.675928  -0.000278   0.147153  -0.001887
 627   6  17.034467   1.573937   3.874229   0.000136   0.147273   0.000924
 628   6  16.784766   0.281331   4.521670   0.000188   0.147273   0.001276
 629   6  16.086264  -1.000303   4.373797  -0.000030   0.147273  -0.000200
 630   6  15.209639  -1.774318   3.487914   0.000090   0.147273   0.000608
 631   6  14.494594  -1.740772   2.207311   0.000123   0.147273   0.000833
 632   6  14.218218  -0.912665   1.028237  -0.000028   0.147273  -0.000190
 633   6  14.351490   0.097810   0.413639   0.000015   0.081535   0.000179
 634  20  11.016477  -1.332942   2.289232  -0.000119   0.069869  -0.001704
 635  20  11.883969  -1.964049   2.639901  -0.000213   0.155707  -0.001367
 636  20  12.685383  -2.374568   3.663783  -0.000230   0.155707  -0.001477
 637  20  12.884186  -2.209039   5.002515  -0.000272   0.155707  -0.001748
 638  20  12.395459  -1.538165   6.084273  -0.000312   0.155707  -0.002006
 639  20  11.642908  -0.811354   6.507618  -0.000018   0.069869  -0.000254
 640   6  11.576690  -1.406405   2.084310  -0.000091   0.152592  -0.000596
 641   6  12.683842  -2.132417   2.854198   0.000135   0.152592   0.000883
 642   6  13.278215  -2.278002   4.258168   0.000049   0.152592   0.000319
 643   6  13.105929  -1.780974   5.696531  -0.000075   0.152592  -0.000490
 644   6  12.240575  -0.853633   6.554906   0.000090   0.152592   0.000589
 645  21  12.384444   2.021972   7.526372  -0.000025   0.070480  -0.000354
 646  21  13.129974   1.179216   7.637358  -0.000100   0.156905  -0.000640
 647  21  14.391265   0.701791   7.420151  -0.000246   0.156905  -0.001571
 648  21  15.592429   1.049790   6.870539  -0.000235   0.156905  -0.001500
 649  21  16.221428   2.074866   6.222812  -0.000127   0.156905  -0.000809
 650  21  16.172694   3.119497   5.792996  -0.000058   0.070480  -0.000824
 651   6  12.354458   1.431215   7.405669   0.000191   0.154122   0.001240
 652   6  13.569578   0.494342   7.400073   0.000126   0.154122   0.000820
 653   6  15.032715   0.417440   6.944445  -0.000054   0.154122  -0.000353
 654   6  16.120157   1.233291   6.233013   0.000141   0.154122   0.000918
 655   6  16.368346   2.594112   5.569048   0.000229   0.154122   0.001488
 656   7   2.987642  -0.973077   9.061776   0.000039   0.028047   0.001386
 657   8   2.598749  -0.763918   9.289821   0.000062   0.028047   0.002215
 658  22   3.284316  -1.012038   9.116358   0.000021   0.028047   0.000735
 659   7   4.760632   1.598100  10.030670   0.000050   0.028047   0.001768
 660   8   4.348780   1.773966  10.246169   0.000093   0.028047   0.003330
 661  22   4.898561   1.328929   9.998501   0.000011   0.028047   0.000383
 662   7   0.841767   1.689140   3.886579   0.000041   0.027266   0.001502
 663   8   0.475568   1.864001   4.173438   0.000067   0.027266   0.002442
 664  23   0.930422   1.424718   3.765023   0.000021   0.027266   0.000763
 665   7   0.912125  -0.880179   5.774631   0.000060   0.027266   0.002216
 666   8   0.545005  -0.671688   6.036776   0.000104   0.027266   0.003801
 667  23   0.994469  -0.914161   5.483737   0.000021   0.027266   0.000771
 668   7   4.607801   2.458980  10.085893   0.000036   0.026608   0.001360
 669   8   4.241924   2.634327  10.372837   0.000017   0.026608   0.000621
 670  24   4.148839   2.895936  10.495210  -0.000027   0.026608  -0.001022
 671   7   0.692809   2.435243   4.035032   0.000043   0.025963   0.001665
 672   8   0.280291   2.610353   4.249734   0.000016   0.025963   0.000627
 673  25   0.125302   2.868478   4.285022  -0.000020   0.025963  -0.000768
 674   7   0.793274  -0.973839   6.553749   0.000093   0.025366   0.003680
 675   8   0.381792  -0.836245   6.795962   0.000034   0.025366   0.001353
 676  26   0.232182  -0.881773   7.055064  -0.000004   0.025366  -0.000162
 677   7   2.408067  -0.935924   9.031340   0.000051   0.025366   0.002011
 678   8   2.018418  -0.797818   9.307051   0.000023   0.025366   0.000911
 679  26   1.721631  -0.846801   9.340339  -0.000003   0.025366  -0.000128
 680   8   0.339475  -0.736651   6.422174   0.000189   0.078448   0.002411
 681   7   0.931726  -1.029000   6.139028   0.000249   0.078448   0.003173
 682   8   2.211207  -0.791057   9.362087   0.000072   0.029760   0.002420
 683   7   2.793832  -1.025748   9.024095   0.000078   0.029760   0.002626
 684   8   4.221879   2.189628  10.415986   0.000215   0.094428   0.002277
 685   7   4.816385   2.045705  10.033570   0.000196   0.094428   0.002072
 686   8   0.281210   2.318456   4.216521   0.000169   0.074417   0.002272
 687   7   0.815154   1.984310   3.871907   0.000173   0.074417   0.002325
 688   7   6.102847  -1.324215   6.097912   0.000164   0.083441   0.001966
 689  11   6.980615  -1.107263   5.836694   0.000128   0.083441   0.001532
 690  22   6.186495  -1.341084   6.392857  -0.000055   0.083441  -0.000653
 691  11   7.367596  -1.205889   5.308738   0.000032   0.166985   0.000193
 692   7   6.010509  -1.444472   5.527649   0.000812   0.235914   0.003441
 693   7   1.540770   3.408649   3.725042   0.000145   0.168408   0.000859
 694  14   1.882937   4.048735   3.506135  -0.000000   0.168408  -0.000001
 695  25   0.963089   3.777279   4.055344  -0.000040   0.168408  -0.000236
 696  14   2.426280   4.029131   2.861737  -0.000072   0.123515  -0.000581
 697   7   1.893503   3.120877   3.265232   0.000356   0.174125   0.002042
 698   7   5.185669   3.176669   9.597910   0.000112   0.166476   0.000670
 699  15   5.564026   3.804248   9.429081   0.000000   0.166476   0.000002
 700  24   4.660567   3.574959   9.973701  -0.000119   0.166476  -0.000715
 701  15   6.328046   3.773529   9.238985  -0.000165   0.161476  -0.001022
 702   7   5.916462   2.738214   9.379932   0.000440   0.227661   0.001934
 703  22   3.633698  -1.371931   8.860210  -0.000042   0.075249  -0.000559
 704  22   4.140205  -1.875967   7.894842  -0.000178   0.170029  -0.001050
 705  22   5.230502  -1.835471   6.945548  -0.000141   0.170029  -0.000829
 706   7   3.423143  -1.553353   8.302596  -0.000055   0.162286  -0.000342
 707   7   4.359322  -1.963647   7.041132   0.000261   0.162286   0.001605
 708   7   5.441764  -1.699164   6.323608   0.000205   0.091934   0.002228
 709  22   6.103644   1.431723   9.429471  -0.000067   0.067550  -0.000986
 710  22   5.406382   1.228525   9.858744  -0.000059   0.067550  -0.000873
 711   7   5.612128   1.717287   9.595288  -0.000156   0.148995  -0.001044
 712  23   1.294672   1.343404   3.344618  -0.000058   0.075300  -0.000773
 713  23   2.069394   1.564234   2.865329  -0.000074   0.075300  -0.000985
 714   7   1.675934   1.830550   3.268692  -0.000173   0.162396  -0.001066
 715  23   4.335744  -1.537161   4.258659   0.000026   0.066993   0.000395
 716  23   3.514189  -1.893115   4.857761  -0.000065   0.147552  -0.000442
 717  23   2.282605  -1.779250   5.272878  -0.000162   0.147552  -0.001098
 718  23   1.338669  -1.260070   5.268852  -0.000041   0.066993  -0.000609
 719   7   4.307856  -1.691531   4.827406   0.000138   0.148019   0.000933
 720   7   3.044328  -1.942053   5.527313   0.000205   0.148019   0.001384
 721   7   1.676715  -1.448272   5.714257   0.000024   0.148019   0.000162
 722  24   4.208553   3.210380  10.535706  -0.000143   0.113467  -0.001262
 723   7   4.994289   2.682737   9.922778   0.000301   0.159966   0.001881
 724  25   0.251820   3.415100   4.182108  -0.000289   0.170400  -0.001693
 725   7   1.011772   2.680621   3.765141   0.000479   0.240080   0.001995
 726  26   0.313221  -1.079007   7.456434  -0.000196   0.198351  -0.000990
 727  26   1.098677  -1.132498   8.644895  -0.001015   0.405688  -0.002502
 728   7   1.503850  -1.359987   7.260491   0.000878   0.543596   0.001615
 729   7   2.380856  -1.273865   8.621275   0.000721   0.279349   0.002581
 730   8   1.494961   6.137911   6.253787   0.000113   0.087993   0.001286
 731  14   2.179994   6.280826   5.537491   0.000232   0.087993   0.002639
 732  25   1.242582   6.096753   6.085355  -0.000091   0.087993  -0.001038
 733  14   2.647645   6.670363   5.322843   0.000106   0.073391   0.001440
 734   8   1.713979   6.375709   6.431163   0.000412   0.104280   0.003950
 735  22   4.794324   0.851276  10.069707  -0.000152   0.216278  -0.000701
 736  22   3.941440  -0.395052   9.692633  -0.001101   0.445378  -0.002472
 737   8   3.585812   0.891966  10.385612   0.000956   0.589944   0.001621
 738   8   2.636640  -0.475881   9.785848   0.000750   0.304694   0.002461
 739  23   0.868743  -0.735582   5.053831  -0.000114   0.211164  -0.000538
 740  23   0.759445   0.464335   4.130976  -0.000946   0.433871  -0.002180
 741   8   0.043592   0.134297   5.397571   0.001040   0.576813   0.001802
 742   8   0.074663   1.542266   4.400370   0.000803   0.297443   0.002699
 743  24   2.328766   6.231627   9.058490  -0.000042   0.067153  -0.000618
 744  24   1.354488   6.132029   9.518925  -0.000108   0.148112  -0.000728
 745  24   0.537160   5.493729  10.319702  -0.000204   0.148112  -0.001377
 746  24   0.439061   4.466026  11.126485  -0.000235   0.148112  -0.001589
 747  24   1.098418   3.449394  11.624888  -0.000149   0.148112  -0.001005
 748  24   2.258294   2.839996  11.620693  -0.000188   0.148112  -0.001267
 749  24   3.466709   2.875299  11.115535  -0.000340   0.148112  -0.002294
 750   8   1.785280   6.239691   8.827848   0.000169   0.148156   0.001139
 751   8   0.581637   5.862129   9.586857   0.000129   0.148156   0.000872
 752   8   0.040292   4.876926  10.537500  -0.000001   0.148156  -0.000008
 753   8   0.372197   3.667993  11.309332   0.000062   0.148156   0.000420
 754   8   1.448014   2.706428  11.601585   0.000124   0.148156   0.000837
 755   8   2.848521   2.366933  11.300375  -0.000091   0.148156  -0.000611
 756   8   3.874523   2.586814  10.729571   0.000011   0.082042   0.000131
 757  25  -0.382601   2.946819   4.425979  -0.000076   0.067232  -0.001133
 758  25  -1.235263   2.719208   5.055970  -0.000214   0.148374  -0.001440
 759  25  -1.996898   3.007582   6.085438  -0.000170   0.148374  -0.001143
 760  25  -2.166624   3.863364   7.066195  -0.000160   0.148374  -0.001075
 761  25  -1.677982   4.951462   7.614213  -0.000230   0.148374  -0.001552
 762  25  -0.722305   5.845819   7.514911  -0.000118   0.148374  -0.000795
 763  25   0.326199   6.196239   6.807170  -0.000237   0.148374  -0.001595
 764   8  -0.552339   2.445619   4.688520  -0.000133   0.148241  -0.000896
 765   8  -1.627070   2.384354   5.696763   0.000090   0.148241   0.000607
 766   8  -2.177971   3.061124   6.885813   0.000110   0.148241   0.000744
 767   8  -1.989332   4.210932   7.790086   0.000015   0.148241   0.000103
 768   8  -1.135016   5.383558   8.055502   0.000029   0.148241   0.000198
 769   8   0.050461   6.119845   7.578135   0.000166   0.148241   0.001120
 770   8   0.955364   6.252463   6.806135   0.000151   0.082138   0.001842
 771  26   1.397816  -0.743862   9.759781  -0.000088   0.069405  -0.001263
 772  26   1.033543  -0.066402  10.572179  -0.000281   0.154270  -0.001821
 773  26   0.121605   0.831078  11.009806  -0.000146   0.154270  -0.000949
 774  26  -1.003595   1.481281  10.635937  -0.000258   0.154270  -0.001673
 775  26  -1.871238   1.612140   9.607010  -0.000276   0.154270  -0.001791
 776  26  -2.118273   1.168902   8.353563  -0.000185   0.154270  -0.001197
 777  26  -1.641333   0.337029   7.400078  -0.000224   0.154270  -0.001454
 778  26  -0.639986  -0.535394   7.145523  -0.000312   0.154270  -0.002020
 779   8   1.673235  -0.331131  10.095791  -0.000138   0.151971  -0.000911
 780   8   0.943721   0.658172  10.988301   0.000125   0.151971   0.000822
 781   8  -0.265462   1.576830  11.026146   0.000119   0.151971   0.000785
 782   8  -1.448352   2.040445  10.193489  -0.000045   0.151971  -0.000293
 783   8  -2.109991   1.855026   8.838742  -0.000031   0.151971  -0.000204
 784   8  -1.973527   1.098159   7.528774   0.000088   0.151971   0.000580
 785   8  -1.096061   0.086541   6.811718  -0.000048   0.151971  -0.000319
 786   8  -0.106463  -0.651925   6.807463   0.000002   0.084793   0.000027
 787  15   8.385709   4.554960   8.267784   0.000175   0.257660   0.000677
 788  15   8.182175   5.736675   8.214294  -0.000449   0.515432  -0.000872
 789  15   7.672976   6.847088   7.416714  -0.000195   0.515432  -0.000379
 790   9   9.654514   5.215046   7.710365  -0.000285   0.515432  -0.000552
 791   9   9.290921   6.580314   7.346666  -0.000368   0.515432  -0.000715
 792   9   8.823854   7.300766   6.507896   0.000408   0.257660   0.001583
 793   9  12.830559   5.612774   6.223377  -0.000051   0.329045  -0.000156
 794  17  13.799445   5.845488   5.770158  -0.000163   0.329045  -0.000494
 795  21  13.646242   4.865793   6.308457  -0.000079   0.329045  -0.000241
 796  17  12.995591   8.147044   4.658550   0.000315   0.233488   0.001351
 797  17  13.473258   7.549955   5.378851  -0.000258   0.466791  -0.000553
 798  17  13.878781   6.677146   5.799885  -0.000079   0.233488  -0.000337
 799   9  11.808701   7.609436   5.583137   0.000345   0.466791   0.000739
 800   9  12.360016   6.691878   6.295594  -0.000161   0.466791  -0.000345
 801  21  13.479044   4.405766   7.063781  -0.000086   0.302067  -0.000285
 802  21  12.612664   3.499580   7.454278  -0.000242   0.604287  -0.000400
 803   9  11.994126   5.118846   7.124718  -0.000329   0.604287  -0.000545
 804   9  11.113212   4.180931   7.386596   0.000414   0.302067   0.001370
 805  14   5.365808   7.373778   3.395492   0.000539   0.276632   0.001948
 806  14   5.083131   6.807304   2.412761   0.000180   0.552963   0.000325
 807  14   5.015050   5.862333   1.727960   0.000328   0.276632   0.001186
 808  10   6.732593   7.532857   2.378607   0.000139   0.552963   0.000252
 809  10   6.513783   6.589986   1.338366   0.000076   0.552963   0.000137
 810  16  10.753077   6.805366  -0.979687   0.000055   0.251577   0.000219
 811  16  10.780547   7.849714  -0.478331  -0.000639   0.503149  -0.001271
 812  16  11.157876   8.623927   0.639709  -0.000097   0.503149  -0.000192
 813  10   9.427632   6.948097  -0.180678  -0.000307   0.503149  -0.000611
 814  10   9.600823   8.069731   0.658213  -0.000476   0.503149  -0.000947
 815  10   9.997440   8.485830   1.664361   0.000228   0.251577   0.000905
 816  20  10.857789  -0.859619   6.385875  -0.000293   0.235985  -0.001242
 817  20  10.370424  -1.568027   5.437772  -0.002228   0.472787  -0.004713
 818  20   9.997595  -1.760111   4.228488  -0.000781   0.235985  -0.003308
 819  11   9.538011  -0.765208   6.330607  -0.002068   0.472787  -0.004373
 820  11   9.002058  -1.326268   4.986425  -0.001470   0.472787  -0.003110
 821  22   6.445455  -1.464204   6.759662   0.000313   0.246111   0.001271
 822  22   6.983202  -0.955657   7.675292  -0.000508   0.492360  -0.001031
 823  22   7.249865   0.251836   8.399945  -0.000511   0.492360  -0.001039
 824  11   7.815722  -1.070364   6.315133  -0.000515   0.492360  -0.001046
 825  11   8.340053  -0.189614   7.316943  -0.000759   0.492360  -0.001542
 826  11   8.411528   0.910201   7.731033   0.000055   0.246111   0.000224
 827  13   9.936642   0.388508   0.168748   0.000339   0.246821   0.001375
 828  13   9.517761   1.097916  -0.567470  -0.000024   0.493481  -0.000048
 829  13   9.173259   2.363120  -0.883540   0.000017   0.493481   0.000034
 830  12   8.355119   0.394759   0.442123   0.000285   0.493481   0.000577
 831  12   7.892118   1.452157  -0.255632  -0.000135   0.493481  -0.000273
 832  12   7.687240   2.536852  -0.302547   0.000191   0.246821   0.000775
 833  14   4.195138   4.228560   1.632994   0.000178   0.050237   0.003542
 834  12   5.029550   3.197254   1.004984   0.000180   0.050237   0.003589
 835  23   3.213205   1.004998   2.205737   0.000200   0.281261   0.000711
 836  23   3.696948  -0.108117   2.361874  -0.000263   0.562431  -0.000467
 837  23   4.377336  -0.925788   2.966770   0.000241   0.281261   0.000857
 838  12   4.651873   1.000574   1.394531   0.000009   0.562431   0.000017
 839  12   5.377685  -0.203232   1.869020   0.000364   0.562431   0.000646
 840  25   0.969899   6.216379   5.748829   0.000361   0.243068   0.001487
 841  25   0.597253   5.713079   4.875260  -0.000109   0.485919  -0.000224
 842  25   0.492549   4.617329   4.157818  -0.000200   0.485919  -0.000412
 843  14   2.128205   6.434512   4.625159   0.000119   0.485919   0.000245
 844  14   1.797275   5.605932   3.660641  -0.000141   0.485919  -0.000291
 845  14   1.832894   4.620476   3.232964   0.000207   0.243068   0.000853
 846  24   4.520754   4.042154  10.397192   0.000076   0.252821   0.000302
 847  24   4.163396   5.110309  10.254808  -0.000475   0.505525  -0.000940
 848  24   3.464467   6.019468   9.480125  -0.000101   0.505525  -0.000200
 849  15   5.684221   4.784812   9.591268  -0.000140   0.505525  -0.000277
 850  15   5.126089   5.978874   9.169470  -0.000143   0.505525  -0.000284
 851  15   4.514309   6.532209   8.389419   0.000422   0.252821   0.001668
 852  21  15.900672   3.983017   5.851886   0.000401   0.297540   0.001346
 853  21  14.882627   4.473088   6.450759  -0.000381   0.595066  -0.000640
 854  17  15.748106   5.568151   5.345388  -0.000065   0.595066  -0.000110
 855  17  14.660592   6.015640   5.847682  -0.000081   0.297540  -0.000272
 856  19  15.685157   0.992704   0.309958   0.000028   0.258025   0.000107
 857  19  16.646327   1.186423   0.945590  -0.000661   0.516009  -0.001281
 858  19  17.201037   1.746819   2.129042  -0.000130   0.516009  -0.000251
 859  18  16.283266   2.369126  -0.192493  -0.000442   0.516009  -0.000857
 860  18  17.252597   2.745291   0.777662  -0.000559   0.516009  -0.001084
 861  18  17.464010   3.272153   1.798997   0.000224   0.258025   0.000869
 =====================================================

              6157928  WORDS OF DYNAMIC MEMORY USED
 EXECUTION OF GAMESS TERMINATED NORMALLY Wed Nov 23 08:37:25 2016
 DDI: 263640 bytes (0.3 MB / 0 MWords) used by master data server.

 ----------------------------------------
 CPU timing information for all processes
 ========================================
 0: 2803.192 + 0.832 = 2804.24
 ----------------------------------------
 ddikick.x: exited gracefully.
