----- GAMESS execution script -----

          ******************************************************
          *         GAMESS VERSION =  5 DEC 2014 (R1)          *
          *             FROM IOWA STATE UNIVERSITY             *
          * M.W.SCHMIDT, K.K.BALDRIDGE, J.A.BOATZ, S.T.ELBERT, *
          *   M.S.GORDON, J.H.JENSEN, S.KOSEKI, N.MATSUNAGA,   *
          *          K.A.NGUYEN, S.J.SU, T.L.WINDUS,           *
          *       TOGETHER WITH M.DUPUIS, J.A.MONTGOMERY       *
          *         J.COMPUT.CHEM.  14, 1347-1363(1993)        *
          **************** 64 BIT LINUX VERSION ****************

 EXECUTION OF GAMESS BEGUN Wed Nov 23 08:37:28 2016

            ECHO OF THE FIRST FEW INPUT CARDS -
 INPUT CARD>! SELECT RESTRICTED HARTREE-FOCK AS DEFAULT                                     
 INPUT CARD>$contrl scftyp=rhf $end                                                         
 INPUT CARD>                                                                                
 INPUT CARD>! THEORY: HF OR DFT                                                             
 INPUT CARD> $contrl mplevl=0 $end                                                          
 INPUT CARD>                                                                                
 INPUT CARD> $system timlim=10000 mwords=20 $end                                            
 INPUT CARD> $SCF DIRSCF=.TRUE. $end                                                        
 INPUT CARD>                                                                                
 INPUT CARD>                                                                                
 INPUT CARD>! BASIS SETS                                                                    
 INPUT CARD>! 6-311G(d,p)                                                                   
 INPUT CARD> $BASIS GBASIS=N311 NGAUSS=6 NDFUNC=1 NPFUNC=1 $END                             
 INPUT CARD>                                                                                
 INPUT CARD>! One of the following                                                          
 INPUT CARD> $guess guess=HUCKEL $end                                                       
 INPUT CARD>                                                                                
 INPUT CARD> $statpt projct=.FALSE. $end                                                    
 INPUT CARD> $STATPT IFREEZ(1)=1,2,3 $END                                                   
 INPUT CARD>                                                                                
 INPUT CARD>! Optimize the geometry with COSMO effects                                      
 INPUT CARD> $statpt opttol=0.0005 nstep=50 $end                                            
 INPUT CARD> $contrl nzvar=1 $end                                                           
 INPUT CARD> $zmat dlc=.t. auto=.t. $end                                                    
 INPUT CARD> $contrl runtyp=OPTIMIZE maxit=200 $end                                         
 INPUT CARD>                                                                                
 INPUT CARD>! Run COSMO on perfect conductor                                                
 INPUT CARD> $COSGMS PRFCND=.TRUE. $end                                                     
 INPUT CARD>                                                                                
 INPUT CARD>! Specifying RSOLV                                                              
 INPUT CARD> $COSGMS COSRAD = 1.4 $end                                                      
 INPUT CARD>                                                                                
 INPUT CARD>! available memory                                                              
 INPUT CARD> $SYSTEM MWORDS=40 $END                                                         
 INPUT CARD>                                                                                
 INPUT CARD> $DATA                                                                          
 INPUT CARD>Pentane, 2-methyl-, ID: C107835                                                 
 INPUT CARD>C1                                                                              
 INPUT CARD>C      6.0      1.7947000000    1.7942000000    2.4010000000                    
 INPUT CARD>C      6.0      1.0662000000    3.0999000000    2.1141000000                    
 INPUT CARD>C      6.0      1.1972000000    3.4989000000    0.6609000000                    
 INPUT CARD>C      6.0      3.3099000000    1.9763000000    2.2840000000                    
 INPUT CARD>C      6.0      3.8229000000    2.8700000000    3.4013000000                    
 INPUT CARD>C      6.0      4.0192000000    0.6351000000    2.2996000000                    
 INPUT CARD>H      1.0      1.4543000000    1.0076000000    1.6987000000                    
 INPUT CARD>H      1.0      1.5354000000    1.4285000000    3.4139000000                    
 INPUT CARD>H      1.0      1.4959000000    3.8938000000    2.7670000000                    
 INPUT CARD>H      1.0      0.0000000000    3.0120000000    2.3946000000                    
 INPUT CARD>H      1.0      0.8164000000    4.5111000000    0.4812000000                    
 INPUT CARD>H      1.0      0.6484000000    2.8155000000    0.0000000000                    
   40000000 WORDS OF MEMORY AVAILABLE

     BASIS OPTIONS
     -------------
     GBASIS=N311         IGAUSS=       6      POLAR=POPN311 
     NDFUNC=       1     NFFUNC=       0     DIFFSP=       F
     NPFUNC=       1      DIFFS=       F     BASNAM=        


     RUN TITLE
     ---------
 Pentane, 2-methyl-, ID: C107835                                                 

 THE POINT GROUP OF THE MOLECULE IS C1      
 THE ORDER OF THE PRINCIPAL AXIS IS     0

 ATOM      ATOMIC                      COORDINATES (BOHR)
           CHARGE         X                   Y                   Z
 C           6.0     3.3914912302        3.3905463672        4.5372320965
 C           6.0     2.0148258481        5.8579615893        3.9950697106
 C           6.0     2.2623799525        6.6119622584        1.2489199053
 C           6.0     6.2548040468        3.7346654695        4.3161341560
 C           6.0     7.2242334785        5.4235135848        6.4275250020
 C           6.0     7.5951866899        1.2001649748        4.3456138814
 H           1.0     2.7482285039        1.9040879052        3.2100775353
 H           1.0     2.9014852815        2.6994735735        6.4513355495
 H           1.0     2.8268411050        7.3582150510        5.2288718080
 H           1.0     0.0000000000        5.6918546750        4.5251378502
 H           1.0     1.5427722964        8.5247429032        0.9093361453
 H           1.0     1.2252983304        5.3205235184        0.0000000000
 H           1.0     4.2641666913        6.5630183554        0.6659394381
 H           1.0     6.6219778062        4.6978588055        2.4572107018
 H           1.0     9.1972963822        5.9766363814        6.1191217208
 H           1.0     7.1176529328        4.4845087415        8.2747321550
 H           1.0     6.0739572697        7.1584710141        6.5412865065
 H           1.0     7.2174304649        0.1572252022        6.0998465158
 H           1.0     9.6504526741        1.4378925041        4.1944358023
 H           1.0     6.9866949218        0.0000000000        2.7665588460

          INTERNUCLEAR DISTANCES (ANGS.)




     $CONTRL OPTIONS
     ---------------
 SCFTYP=RHF          RUNTYP=OPTIMIZE     EXETYP=RUN     
 MPLEVL=       0     CITYP =NONE         CCTYP =NONE         VBTYP =NONE    
 DFTTYP=NONE         TDDFT =NONE    
 MULT  =       1     ICHARG=       0     NZVAR =       1     COORD =UNIQUE  
 PP    =NONE         RELWFN=NONE         LOCAL =NONE         NUMGRD=       F
 ISPHER=      -1     NOSYM =       0     MAXIT =     200     UNITS =ANGS    
 PLTORB=       F     MOLPLT=       F     AIMPAC=       F     FRIEND=        
 NPRINT=       7     IREST =       0     GEOM  =INPUT   
 NORMF =       0     NORMP =       0     ITOL  =      20     ICUT  =       9
 INTTYP=BEST         GRDTYP=BEST         QMTTOL= 1.0E-06

     $SYSTEM OPTIONS
     ---------------
  REPLICATED MEMORY=    40000000 WORDS (ON EVERY NODE).
 DISTRIBUTED MEMDDI=           0 MILLION WORDS IN AGGREGATE,
 MEMDDI DISTRIBUTED OVER   1 PROCESSORS IS           0 WORDS/PROCESSOR.
 TOTAL MEMORY REQUESTED ON EACH PROCESSOR=    40000000 WORDS.
 TIMLIM=       10000.00 MINUTES, OR       6.9 DAYS.
 PARALL= F  BALTYP=  DLB     KDIAG=    0  COREFL= F
 MXSEQ2=     300 MXSEQ3=     150  mem10=         0

     $COSGMS OPTIONS
     ---------------
     EPSI  =   INFTY     NSPA  =      92     COSRAD=    1.40
     DISEX =   10.00     OUTCHG=DBLCAV       COSBUG=       F
     COSWRT=       F     DCOSMO=       F

     SYMMETRY COORDINATES WILL NOT BE USED FOR 
     THE COSMO CALCULATION, EVEN IF SPECIFIED:
         -- SWITCHING TO C1 POINT GROUP --


     DEFINITION OF CAVITY
     ---------------------------
     ATOM         COORDINATES           RADIUS 
     1    3.3915    3.3905    4.5372    2.0000
     2    2.0148    5.8580    3.9951    2.0000
     3    2.2624    6.6120    1.2489    2.0000
     4    6.2548    3.7347    4.3161    2.0000
     5    7.2242    5.4235    6.4275    2.0000
     6    7.5952    1.2002    4.3456    2.0000
     7    2.7482    1.9041    3.2101    1.3000
     8    2.9015    2.6995    6.4513    1.3000
     9    2.8268    7.3582    5.2289    1.3000
    10    0.0000    5.6919    4.5251    1.3000
    11    1.5428    8.5247    0.9093    1.3000
    12    1.2253    5.3205    0.0000    1.3000
    13    4.2642    6.5630    0.6659    1.3000
    14    6.6220    4.6979    2.4572    1.3000
    15    9.1973    5.9766    6.1191    1.3000
    16    7.1177    4.4845    8.2747    1.3000
    17    6.0740    7.1585    6.5413    1.3000
    18    7.2174    0.1572    6.0998    1.3000
    19    9.6505    1.4379    4.1944    1.3000
    20    6.9867    0.0000    2.7666    1.3000

          ----------------
          PROPERTIES INPUT
          ----------------

     MOMENTS            FIELD           POTENTIAL          DENSITY
 IEMOM =       1   IEFLD =       0   IEPOT =       0   IEDEN =       0
 WHERE =COMASS     WHERE =NUCLEI     WHERE =NUCLEI     WHERE =NUCLEI  
 OUTPUT=BOTH       OUTPUT=BOTH       OUTPUT=BOTH       OUTPUT=BOTH    
 IEMINT=       0   IEFINT=       0                     IEDINT=       0
                                                       MORB  =       0
          EXTRAPOLATION IN EFFECT
          SOSCF IN EFFECT
 ORBITAL PRINTING OPTION: NPREO=     1   198     2     1

     -------------------------------
     INTEGRAL TRANSFORMATION OPTIONS
     -------------------------------
     NWORD  =            0
     CUTOFF = 1.0E-09     MPTRAN =       0
     DIRTRF =       T     AOINTS =DUP     

          ----------------------
          INTEGRAL INPUT OPTIONS
          ----------------------
 NOPK  =       1 NORDER=       0 SCHWRZ=       T


 -----------------------------------------------
  STATISTICS ON AUTOMATIC COORDINATE GENERATION 
 -----------------------------------------------
  NUMBER OF USER SPECIFIED BONDS                             0
  NUMBER OF BONDS                                           19
  NUMBER OF ANGLES                                          36
  NUMBER OF TORSIONS                                        45
  NUMBER OF EXTRA COORD.                                     0
  NUMBER OF EXTRA COORD. FOR CONSTRAINTS                     0
  NUMBER OF CONSTRAINED COORD.                               0

  TOTAL NUMBER OF PRIMITIVES                               100
 -----------------------------------------------

   --- ENCODED Z MATRIX ---
 COORD  TYPE   I   J   K   L   M   N
    1      1    1   2
    2      1    1   4
    3      1    1   8
    4      1    1   7
    5      1    2  10
    6      1    2   3
    7      1    2   9
    8      1    3  13
    9      1    3  12
   10      1    3  11
   11      1    4  14
   12      1    4   6
   13      1    4   5
   14      1    5  16
   15      1    5  15
   16      1    5  17
   17      1    6  20
   18      1    6  19
   19      1    6  18
   20      2    1   4  14
   21      2    1   2   3
   22      2    1   4   5
   23      2    1   2  10
   24      2    1   4   6
   25      2    1   2   9
   26      2    2   3  12
   27      2    2   3  13
   28      2    2   3  11
   29      2    2   1   8
   30      2    2   1   7
   31      2    2   1   4
   32      2    3   2  10
   33      2    3   2   9
   34      2    4   1   8
   35      2    4   5  15
   36      2    4   5  16
   37      2    4   6  19
   38      2    4   6  20
   39      2    4   6  18
   40      2    4   5  17
   41      2    4   1   7
   42      2    5   4   6
   43      2    5   4  14
   44      2    6   4  14
   45      2    7   1   8
   46      2    9   2  10
   47      2   11   3  12
   48      2   11   3  13
   49      2   12   3  13
   50      2   15   5  16
   51      2   15   5  17
   52      2   16   5  17
   53      2   18   6  19
   54      2   18   6  20
   55      2   19   6  20
   56      3    1   4   5  17
   57      3    1   4   5  15
   58      3    1   2   3  13
   59      3    1   4   5  16
   60      3    1   4   6  18
   61      3    1   4   6  19
   62      3    1   4   6  20
   63      3    1   2   3  11
   64      3    1   2   3  12
   65      3    2   1   4   5
   66      3    2   1   4   6
   67      3    2   1   4  14
   68      3    3   2   1   7
   69      3    3   2   1   8
   70      3    3   2   1   4
   71      3    4   1   2   9
   72      3    4   1   2  10
   73      3    5   4   1   7
   74      3    5   4   1   8
   75      3    5   4   6  18
   76      3    5   4   6  20
   77      3    5   4   6  19
   78      3    6   4   5  16
   79      3    6   4   5  15
   80      3    6   4   1   7
   81      3    6   4   1   8
   82      3    6   4   5  17
   83      3    7   1   4  14
   84      3    7   1   2   9
   85      3    7   1   2  10
   86      3    8   1   2   9
   87      3    8   1   4  14
   88      3    8   1   2  10
   89      3    9   2   3  12
   90      3    9   2   3  11
   91      3    9   2   3  13
   92      3   10   2   3  12
   93      3   10   2   3  11
   94      3   10   2   3  13
   95      3   14   4   5  16
   96      3   14   4   5  15
   97      3   14   4   5  17
   98      3   14   4   6  18
   99      3   14   4   6  20
  100      3   14   4   6  19

          INDEP./SYM. INTERNAL COORDINATES
          --------------------------------
 CRD  1=  -0.1684 (  1) -0.1264 (  2) -0.4110 ( 21) -0.1691 ( 22)  0.1645 ( 23)
           0.1418 ( 24)  0.2050 ( 29)  0.1507 ( 30) -0.6051 ( 31)  0.1509 ( 32)
           0.2041 ( 34)  0.1794 ( 41) -0.1037 ( 45)
 CRD  2=  -0.1056 (  1) -0.1050 ( 12)  0.1139 ( 13) -0.5130 ( 21)  0.2495 ( 22)
           0.1270 ( 23) -0.2281 ( 24)  0.2107 ( 25)  0.1064 ( 28) -0.2170 ( 30)
           0.2613 ( 31)  0.1386 ( 32)  0.1529 ( 33) -0.1047 ( 38)  0.1173 ( 40)
          -0.1096 ( 57) -0.1005 ( 61)  0.2390 ( 65)  0.2296 ( 66)  0.1482 ( 67)
          -0.1027 ( 72)
 CRD  3=  -0.1509 (  1) -0.1141 (  2)  0.2712 ( 22) -0.3520 ( 24)  0.1217 ( 26)
          -0.1114 ( 27)  0.1951 ( 30) -0.1119 ( 31)  0.1201 ( 32) -0.1154 ( 33)
           0.2039 ( 34)  0.1278 ( 36) -0.1608 ( 41)  0.1402 ( 42) -0.1934 ( 43)
           0.1219 ( 44) -0.1091 ( 56) -0.1100 ( 61) -0.1440 ( 62) -0.2071 ( 65)
          -0.1275 ( 67) -0.1385 ( 68) -0.1648 ( 69) -0.2840 ( 70) -0.1762 ( 71)
          -0.1465 ( 72) -0.1443 ( 73) -0.1528 ( 74)  0.1078 ( 75)  0.1275 ( 79)
 CRD  4=  -0.1077 (  1) -0.2154 (  2)  0.2362 ( 20) -0.3169 ( 22) -0.2360 ( 24)
           0.1172 ( 31) -0.1400 ( 34)  0.1667 ( 35)  0.1615 ( 37) -0.1332 ( 38)
          -0.1439 ( 40)  0.5007 ( 42) -0.1113 ( 44) -0.1460 ( 59)  0.1646 ( 60)
          -0.1397 ( 65)  0.1140 ( 66)  0.1307 ( 70) -0.1277 ( 74) -0.1266 ( 76)
          -0.1345 ( 77)  0.1169 ( 79)  0.1606 ( 80)  0.1259 ( 81)  0.1016 ( 82)
 CRD  5=  -0.1581 (  1) -0.1771 (  2)  0.1989 (  6) -0.3338 ( 12)  0.1971 ( 13)
           0.2531 ( 21)  0.1926 ( 22) -0.1881 ( 24) -0.2132 ( 25)  0.2243 ( 27)
           0.2050 ( 29) -0.2765 ( 31) -0.1655 ( 32) -0.1182 ( 38) -0.1022 ( 39)
           0.1581 ( 40)  0.1814 ( 41)  0.1295 ( 65)  0.1237 ( 68)  0.1822 ( 70)
           0.1339 ( 72)  0.1048 ( 78)
 CRD  6=  -0.2144 (  1) -0.2437 (  2) -0.2257 (  6) -0.3312 ( 12) -0.4195 ( 13)
          -0.1050 ( 21) -0.1185 ( 26)  0.1030 ( 31) -0.2390 ( 36) -0.2933 ( 39)
          -0.1344 ( 42)  0.1274 ( 50)  0.1291 ( 52)  0.1219 ( 53) -0.1092 ( 57)
           0.1630 ( 61) -0.2266 ( 66) -0.1390 ( 80) -0.1497 ( 81)
 CRD  7=  -0.1436 (  1)  0.3828 (  2) -0.3308 (  6)  0.1377 ( 12)  0.2538 ( 13)
          -0.1021 ( 21)  0.2156 ( 23) -0.1540 ( 25) -0.1825 ( 26) -0.1359 ( 32)
           0.1965 ( 33)  0.1275 ( 36)  0.1517 ( 38) -0.1143 ( 39)  0.1057 ( 41)
          -0.1047 ( 43)  0.1007 ( 49)  0.1620 ( 58)  0.1143 ( 63)  0.1405 ( 64)
          -0.1647 ( 65) -0.1841 ( 66) -0.1098 ( 67)  0.1217 ( 69)  0.1860 ( 70)
           0.1074 ( 71)  0.1096 ( 77) -0.1087 ( 80)
 CRD  8=  -0.1256 (  6) -0.2498 ( 12) -0.2186 ( 13) -0.1358 ( 26)  0.1080 ( 27)
          -0.2901 ( 35)  0.3305 ( 36) -0.2634 ( 37) -0.2882 ( 38)  0.3457 ( 39)
          -0.2238 ( 40) -0.1012 ( 44)  0.1961 ( 51)  0.2114 ( 55)  0.1090 ( 75)
           0.1691 ( 76) -0.1173 ( 78) -0.1809 ( 82)
 CRD  9=  -0.3515 (  1) -0.3549 (  6) -0.1023 ( 10)  0.2220 ( 13)  0.1042 ( 21)
          -0.1238 ( 23)  0.1064 ( 26) -0.4270 ( 28) -0.1655 ( 33)  0.1273 ( 35)
          -0.1454 ( 36) -0.2002 ( 37)  0.1559 ( 39)  0.2083 ( 40)  0.1054 ( 43)
           0.1631 ( 47)  0.1741 ( 48) -0.1355 ( 51) -0.1102 ( 58)  0.1068 ( 74)
           0.1065 ( 81)
 CRD 10=  -0.3711 (  2)  0.3110 ( 12) -0.3539 ( 26)  0.2868 ( 27) -0.3355 ( 35)
           0.1440 ( 36)  0.2739 ( 38)  0.2242 ( 40)  0.1097 ( 47) -0.1377 ( 48)
          -0.1500 ( 52) -0.1677 ( 54) -0.1499 ( 63)
 CRD 11=   0.1472 (  1) -0.2401 (  6)  0.1742 ( 12) -0.2462 ( 13) -0.1092 ( 17)
           0.1026 ( 18)  0.1230 ( 23) -0.1153 ( 26)  0.1019 ( 27) -0.1959 ( 28)
          -0.1652 ( 32) -0.1283 ( 35) -0.2564 ( 36)  0.4347 ( 37) -0.3700 ( 38)
           0.1700 ( 40)  0.1382 ( 47)  0.1780 ( 50) -0.2305 ( 53)
 CRD 12=   0.4301 (  1) -0.1539 (  2) -0.3064 (  6) -0.1727 ( 12)  0.1709 ( 13)
           0.1141 ( 23)  0.1132 ( 25) -0.3044 ( 26)  0.1296 ( 30) -0.1540 ( 32)
          -0.1170 ( 33)  0.2642 ( 35) -0.1699 ( 37) -0.1872 ( 40) -0.1325 ( 41)
           0.1286 ( 47)  0.1589 ( 49) -0.1596 ( 50)  0.1133 ( 53) -0.1274 ( 72)
           0.1261 ( 84) -0.1110 ( 88)
 CRD 13=   0.2190 (  1) -0.2136 (  2) -0.1481 (  6) -0.1146 (  8)  0.1248 ( 23)
           0.2943 ( 26) -0.4241 ( 27)  0.1562 ( 29) -0.2224 ( 34) -0.3287 ( 35)
          -0.1295 ( 37)  0.2736 ( 40) -0.1129 ( 47)  0.1899 ( 48)  0.1066 ( 50)
          -0.1481 ( 52)  0.1329 ( 63) -0.1033 ( 69)  0.1507 ( 71)  0.1146 ( 84)
 CRD 14=  -0.1271 ( 14)  0.1036 ( 19) -0.1473 ( 25) -0.1702 ( 26)  0.3094 ( 28)
          -0.1109 ( 29)  0.1557 ( 30)  0.1199 ( 33)  0.1712 ( 35) -0.4112 ( 36)
          -0.2589 ( 37) -0.1169 ( 38)  0.3886 ( 39)  0.2453 ( 40) -0.1267 ( 41)
           0.1057 ( 50) -0.1820 ( 51) -0.1161 ( 54)  0.1570 ( 55) -0.1052 ( 57)
          -0.1289 ( 67)
 CRD 15=   0.1001 (  1)  0.1182 (  5)  0.1196 (  6) -0.1350 ( 10)  0.1489 ( 12)
          -0.1551 ( 13) -0.1023 ( 18) -0.1648 ( 21)  0.2323 ( 23) -0.1045 ( 24)
           0.2380 ( 26)  0.2667 ( 27) -0.3790 ( 28)  0.1366 ( 33)  0.1479 ( 35)
          -0.1285 ( 36) -0.2210 ( 37)  0.2102 ( 38)  0.1553 ( 39) -0.1761 ( 40)
          -0.1200 ( 43)  0.1123 ( 44) -0.2346 ( 49)  0.1527 ( 52) -0.1832 ( 54)
           0.1139 ( 64)
 CRD 16=  -0.2207 (  1) -0.2339 (  2) -0.1886 (  3) -0.1295 (  5)  0.1778 ( 12)
           0.1338 ( 19) -0.2025 ( 20)  0.1151 ( 22) -0.2773 ( 27)  0.1151 ( 28)
          -0.1357 ( 30)  0.1733 ( 35) -0.1167 ( 38)  0.2362 ( 39) -0.2920 ( 40)
          -0.1389 ( 42)  0.1936 ( 44) -0.1163 ( 50) -0.1602 ( 53)  0.1368 ( 56)
           0.1410 ( 57)  0.1119 ( 59) -0.1094 ( 62)  0.1000 ( 70)  0.1284 ( 79)
          -0.1352 ( 80)  0.1241 ( 82)
 CRD 17=   0.1998 (  2)  0.1269 (  3)  0.1610 (  4) -0.1047 ( 14)  0.1065 ( 20)
          -0.2045 ( 23) -0.1295 ( 24)  0.2129 ( 25) -0.1096 ( 26)  0.2153 ( 29)
          -0.1479 ( 30) -0.1605 ( 31)  0.1284 ( 32) -0.2489 ( 33) -0.1089 ( 34)
          -0.1450 ( 36) -0.1142 ( 37)  0.3143 ( 41) -0.1887 ( 43)  0.1010 ( 44)
          -0.1070 ( 45)  0.1089 ( 52) -0.1318 ( 58)  0.1033 ( 60)  0.1193 ( 61)
           0.1053 ( 62) -0.1179 ( 63) -0.1275 ( 64)  0.1267 ( 67) -0.1498 ( 68)
           0.1636 ( 71)  0.1089 ( 72)  0.1373 ( 75)  0.1394 ( 76)  0.1534 ( 77)
 CRD 18=   0.1499 (  1) -0.2154 (  3)  0.2723 (  4)  0.1526 (  5)  0.1548 (  7)
           0.1111 ( 11)  0.1824 ( 13) -0.1318 ( 17)  0.1058 ( 19) -0.1896 ( 21)
           0.1802 ( 25)  0.1650 ( 27) -0.1310 ( 28)  0.2146 ( 32) -0.1485 ( 34)
           0.1016 ( 36) -0.2804 ( 38)  0.1311 ( 39) -0.1141 ( 46) -0.1182 ( 49)
          -0.1054 ( 52) -0.1167 ( 53)  0.1257 ( 55) -0.1312 ( 65) -0.2302 ( 66)
          -0.1977 ( 67) -0.1017 ( 69)  0.1157 ( 71)  0.1723 ( 72) -0.1140 ( 80)
          -0.1675 ( 81) -0.1350 ( 87)
 CRD 19=  -0.2094 (  4)  0.3353 (  5) -0.4843 (  7)  0.1291 (  8) -0.1557 (  9)
          -0.1174 ( 25) -0.1716 ( 26)  0.1081 ( 27)  0.1694 ( 29) -0.1519 ( 30)
          -0.2106 ( 34) -0.1144 ( 48)  0.1707 ( 58)  0.2143 ( 63)  0.1787 ( 64)
          -0.1822 ( 68) -0.2579 ( 69) -0.1538 ( 70)
 CRD 20=  -0.6129 ( 11)  0.1337 ( 16)  0.1310 ( 18)  0.1373 ( 29) -0.1818 ( 30)
          -0.1299 ( 34) -0.1298 ( 36) -0.1317 ( 39)  0.1259 ( 41) -0.1725 ( 60)
          -0.1793 ( 61) -0.1513 ( 62) -0.2181 ( 73) -0.2005 ( 74) -0.1423 ( 78)
          -0.1160 ( 79) -0.1519 ( 82) -0.1410 ( 83) -0.1234 ( 87) -0.1025 ( 97)
          -0.1036 ( 98) -0.1104 (100)
 CRD 21=  -0.2537 (  3)  0.2024 (  5) -0.1285 (  7) -0.3467 ( 11) -0.2201 ( 14)
          -0.1091 ( 16)  0.2374 ( 17)  0.1812 ( 18)  0.2186 ( 19) -0.1148 ( 29)
          -0.1147 ( 38) -0.1250 ( 39)  0.1055 ( 40) -0.1163 ( 51)  0.1162 ( 53)
           0.1245 ( 54)  0.1076 ( 55)  0.1770 ( 56)  0.1973 ( 57)  0.1905 ( 59)
           0.1036 ( 60)  0.1478 ( 75)  0.1423 ( 76)  0.1431 ( 77)  0.1045 ( 78)
           0.1112 ( 79)  0.1024 ( 81)  0.1021 ( 87)  0.1187 ( 95)  0.1255 ( 96)
           0.1052 ( 97)  0.1216 ( 98)  0.1161 ( 99)  0.1169 (100)
 CRD 22=   0.1307 (  3) -0.1545 ( 13) -0.4841 ( 14) -0.4513 ( 15) -0.4451 ( 16)
          -0.1361 ( 17) -0.1081 ( 19)  0.1854 ( 35)  0.1679 ( 36)  0.1648 ( 40)
          -0.1909 ( 50) -0.1883 ( 51) -0.1703 ( 52)
 CRD 23=   0.1903 (  3) -0.1212 (  5)  0.3420 ( 11)  0.1370 ( 12)  0.3601 ( 17)
           0.3725 ( 18)  0.4635 ( 19) -0.1791 ( 37) -0.1542 ( 38) -0.1110 ( 39)
           0.1484 ( 53)  0.1358 ( 54)  0.1909 ( 55)
 CRD 24=  -0.1751 (  6) -0.4906 (  8) -0.5025 (  9) -0.4817 ( 10)  0.1758 ( 26)
           0.1712 ( 27)  0.1926 ( 28) -0.2016 ( 47) -0.1926 ( 48) -0.1796 ( 49)
 CRD 25=  -0.1807 (  4) -0.1859 ( 12)  0.1202 ( 13)  0.1750 ( 15)  0.1245 ( 16)
          -0.1896 ( 17) -0.2641 ( 18)  0.1113 ( 23) -0.1595 ( 30) -0.1333 ( 32)
           0.1237 ( 33)  0.1867 ( 56)  0.1790 ( 57)  0.1400 ( 59) -0.1320 ( 71)
          -0.1369 ( 72) -0.1394 ( 73)  0.1128 ( 78)  0.1519 ( 79) -0.1235 ( 80)
           0.1596 ( 82) -0.1657 ( 83) -0.1805 ( 84) -0.1854 ( 85) -0.1337 ( 86)
          -0.1232 ( 87) -0.1387 ( 88) -0.1001 ( 91) -0.1071 ( 94)  0.1368 ( 95)
           0.1758 ( 96)  0.1835 ( 97)
 CRD 26=   0.1534 (  2) -0.1508 (  3)  0.1494 (  4)  0.1036 (  5)  0.2671 ( 14)
          -0.2365 ( 15) -0.2459 ( 16) -0.3089 ( 17)  0.2109 ( 19) -0.1029 ( 37)
           0.1054 ( 38)  0.1087 ( 42)  0.1725 ( 50) -0.1180 ( 51)  0.2241 ( 53)
          -0.1121 ( 54)  0.1794 ( 57) -0.2330 ( 61) -0.1253 ( 62) -0.1369 ( 76)
          -0.2446 ( 77)  0.2127 ( 79)  0.1936 ( 96) -0.1408 ( 99) -0.2485 (100)
 CRD 27=   0.1673 (  5)  0.1440 (  7)  0.2027 (  8)  0.3804 (  9) -0.6125 ( 10)
          -0.1076 ( 47) -0.2075 ( 48)  0.3247 ( 49) -0.1881 ( 58)  0.1521 ( 64)
           0.1313 ( 89) -0.2089 ( 91)  0.1584 ( 92) -0.1817 ( 94)
 CRD 28=  -0.2208 (  8)  0.2427 (  9) -0.3706 ( 14)  0.1063 ( 15)  0.2951 ( 16)
          -0.4274 ( 17)  0.2011 ( 18)  0.2082 ( 19)  0.1144 ( 47) -0.1270 ( 48)
          -0.1451 ( 50)  0.2003 ( 51)  0.2182 ( 53) -0.1037 ( 54) -0.1095 ( 55)
          -0.1290 ( 57)  0.1070 ( 60) -0.1275 ( 61)  0.1032 ( 63)  0.1010 ( 75)
          -0.1336 ( 77) -0.1236 ( 79)  0.1113 ( 90)  0.1042 ( 93) -0.1221 ( 96)
           0.1179 ( 98) -0.1167 (100)
 CRD 29=   0.5371 (  8) -0.4259 (  9) -0.1052 ( 10) -0.1759 ( 14)  0.2197 ( 16)
          -0.1593 ( 17)  0.1392 ( 18) -0.2814 ( 47)  0.2283 ( 48) -0.1129 ( 50)
          -0.1952 ( 63)  0.1068 ( 64)  0.1087 ( 89) -0.1933 ( 90)  0.1167 ( 92)
          -0.1853 ( 93)
 CRD 30=  -0.1031 ( 14)  0.5178 ( 15) -0.4275 ( 16)  0.3173 ( 18) -0.2267 ( 19)
           0.2105 ( 50) -0.2737 ( 52) -0.1595 ( 54)  0.1220 ( 55)  0.1099 ( 56)
          -0.1891 ( 59) -0.1072 ( 62) -0.1246 ( 76) -0.1725 ( 78)  0.1265 ( 82)
          -0.2039 ( 95)
 CRD 31=  -0.1086 (  8)  0.1907 ( 14) -0.2884 ( 15)  0.1558 ( 16)  0.4808 ( 18)
          -0.4109 ( 19) -0.1110 ( 51)  0.1688 ( 52) -0.2505 ( 54)  0.2265 ( 55)
           0.1134 ( 59)  0.1500 ( 60)  0.1119 ( 61) -0.1283 ( 62)  0.1475 ( 75)
          -0.1308 ( 76)  0.1093 ( 77)  0.1226 ( 78)  0.1141 ( 95)  0.1548 ( 98)
          -0.1235 ( 99)  0.1166 (100)
 CRD 32=  -0.1430 (  2) -0.1894 (  4) -0.1258 (  5)  0.3065 ( 14) -0.1912 ( 16)
          -0.3162 ( 17)  0.1400 ( 18)  0.2698 ( 19) -0.2023 ( 51)  0.1075 ( 53)
          -0.1778 ( 55) -0.1704 ( 56)  0.1738 ( 60)  0.1915 ( 62)  0.2112 ( 75)
           0.2289 ( 76) -0.1355 ( 78) -0.2238 ( 82) -0.1084 ( 95) -0.1967 ( 97)
           0.2046 ( 98)  0.2223 ( 99)
 CRD 33=  -0.2331 (  3) -0.4269 (  4)  0.4417 (  5)  0.5146 (  7) -0.1115 (  9)
           0.1246 ( 10) -0.1379 ( 45)  0.1939 ( 46) -0.1161 ( 85)  0.1797 ( 86)
           0.1486 ( 94)
 CRD 34=  -0.1001 (  1) -0.1043 (  2)  0.4453 (  3)  0.4834 (  4)  0.3972 (  5)
           0.2476 (  7) -0.1217 (  8) -0.1172 ( 25)  0.2011 ( 45)  0.1421 ( 46)
          -0.1247 ( 69)  0.1070 ( 74)  0.1060 ( 81)  0.1082 ( 84)  0.1034 ( 87)
          -0.1765 ( 88) -0.1587 ( 89) -0.1083 ( 91)
 CRD 35=   0.4903 (  3) -0.2680 (  4)  0.1203 ( 25)  0.1100 ( 32)  0.1187 ( 57)
           0.1088 ( 58)  0.1042 ( 64)  0.1528 ( 68) -0.1944 ( 73) -0.1086 ( 74)
          -0.1759 ( 80) -0.1739 ( 83)  0.2041 ( 84)  0.2028 ( 85)  0.1500 ( 86)
           0.1487 ( 88)  0.1750 ( 89)  0.1513 ( 90)  0.1796 ( 91)  0.1727 ( 92)
           0.1490 ( 93)  0.1773 ( 94)
 CRD 36=   0.1276 (  3) -0.1353 (  4)  0.3337 (  5) -0.3524 (  7)  0.1150 ( 34)
          -0.1735 ( 58) -0.2066 ( 63) -0.1813 ( 64)  0.1089 ( 68)  0.1804 ( 69)
           0.1097 ( 71)  0.1255 ( 72)  0.1299 ( 84)  0.1457 ( 85)  0.2013 ( 86)
           0.2172 ( 88) -0.2235 ( 89) -0.2488 ( 90) -0.2157 ( 91) -0.2436 ( 92)
          -0.2689 ( 93) -0.2358 ( 94)
 CRD 37=  -0.1708 (  3) -0.1110 (  6)  0.1143 (  8)  0.1961 (  9)  0.2655 ( 10)
           0.2222 ( 11) -0.1040 ( 14) -0.1503 ( 19)  0.1515 ( 23)  0.1573 ( 25)
           0.1797 ( 26)  0.1575 ( 27)  0.2036 ( 28) -0.1066 ( 29) -0.1108 ( 30)
          -0.1875 ( 32) -0.1556 ( 33) -0.1246 ( 39) -0.2508 ( 47) -0.1904 ( 48)
          -0.1330 ( 49)  0.1213 ( 53)  0.1233 ( 54) -0.1286 ( 72) -0.1607 ( 73)
          -0.1002 ( 80)  0.1214 ( 84)  0.1494 ( 86)  0.1466 ( 89) -0.1229 ( 95)
          -0.1403 ( 97)
 CRD 38=  -0.1370 (  1) -0.1505 (  6)  0.1192 (  8)  0.1257 (  9)  0.1575 ( 10)
          -0.2167 ( 12)  0.1174 ( 13) -0.1674 ( 16)  0.2102 ( 17)  0.1845 ( 18)
           0.2078 ( 19)  0.1247 ( 26)  0.1288 ( 27)  0.1358 ( 28)  0.1879 ( 37)
           0.1959 ( 38)  0.1957 ( 39) -0.1196 ( 40)  0.1149 ( 43) -0.1407 ( 44)
          -0.1492 ( 47) -0.1453 ( 48) -0.1194 ( 49)  0.1488 ( 51)  0.1129 ( 52)
          -0.1992 ( 53) -0.2180 ( 54) -0.2021 ( 55) -0.1715 ( 67) -0.1513 ( 83)
           0.1030 ( 84) -0.2042 ( 87)  0.1537 ( 95)  0.1459 ( 97)
 CRD 39=   0.1168 (  6) -0.1161 (  8) -0.1163 ( 10)  0.2066 ( 11)  0.2854 ( 13)
          -0.2975 ( 14) -0.2150 ( 15) -0.1838 ( 16) -0.1225 ( 19) -0.1162 ( 20)
          -0.2230 ( 35) -0.2425 ( 36) -0.2133 ( 40)  0.1319 ( 48)  0.2747 ( 50)
           0.1930 ( 51)  0.2516 ( 52)  0.1161 ( 53) -0.1277 ( 83) -0.1013 ( 87)
           0.1665 ( 98)  0.1559 ( 99)
 CRD 40=   0.2013 (  2)  0.1226 (  3) -0.1709 (  5) -0.2114 (  6)  0.1060 (  7)
           0.1905 (  8) -0.2322 ( 11)  0.3288 ( 12)  0.2080 ( 13) -0.1541 ( 15)
          -0.1260 ( 16) -0.1834 ( 17) -0.1904 ( 18)  0.1016 ( 27)  0.1426 ( 30)
          -0.1110 ( 34) -0.1495 ( 37) -0.1528 ( 38) -0.1221 ( 39) -0.1435 ( 48)
          -0.1264 ( 49)  0.1769 ( 51)  0.1192 ( 53)  0.1127 ( 54)  0.2220 ( 55)
          -0.1033 ( 69)  0.1337 ( 73)  0.1123 ( 83) -0.1695 ( 89) -0.1317 ( 91)
 CRD 41=   0.1309 (  3)  0.1382 (  5) -0.3105 ( 11)  0.1539 ( 14) -0.2000 ( 15)
          -0.1419 ( 18)  0.2033 ( 19) -0.1550 ( 29)  0.1727 ( 34)  0.1728 ( 41)
           0.1217 ( 44)  0.1489 ( 51) -0.1210 ( 52) -0.1507 ( 54)  0.1107 ( 55)
          -0.1398 ( 57) -0.1411 ( 59)  0.1019 ( 60)  0.1142 ( 61) -0.1578 ( 68)
           0.1161 ( 74) -0.1495 ( 76)  0.1494 ( 82) -0.2263 ( 84) -0.1914 ( 85)
           0.1454 ( 89)  0.1023 ( 90)  0.1073 ( 91) -0.2155 ( 95) -0.2142 ( 96)
           0.1795 ( 98)  0.1918 (100)
 CRD 42=  -0.1722 (  1) -0.1637 (  4) -0.1121 (  5)  0.2725 (  6)  0.2619 (  7)
          -0.3084 (  9)  0.1553 ( 10)  0.1598 ( 13)  0.2235 ( 23)  0.1025 ( 25)
          -0.1375 ( 33)  0.1479 ( 45) -0.1298 ( 46) -0.1026 ( 48)  0.2444 ( 49)
          -0.1296 ( 58)  0.1043 ( 63) -0.1019 ( 69)  0.1125 ( 74)  0.1217 ( 84)
           0.1488 ( 87)  0.1182 ( 89)  0.1321 ( 90) -0.1017 ( 91) -0.1518 ( 92)
          -0.1378 ( 93) -0.3717 ( 94)
 CRD 43=  -0.2995 (  1)  0.1736 (  4)  0.1274 (  5)  0.2583 (  6) -0.1350 (  7)
          -0.2565 (  8) -0.1066 ( 11)  0.2924 ( 12)  0.1299 ( 14) -0.1246 ( 16)
           0.1424 ( 25)  0.1307 ( 29) -0.1096 ( 32) -0.1169 ( 44)  0.1373 ( 48)
           0.1394 ( 49) -0.1262 ( 50)  0.1030 ( 55) -0.1067 ( 57) -0.1423 ( 63)
          -0.1427 ( 72) -0.1100 ( 74) -0.1400 ( 81) -0.2324 ( 87)  0.2131 ( 89)
           0.1015 ( 91)  0.1151 ( 92) -0.1041 ( 93)  0.1644 ( 95)  0.1364 ( 97)
 CRD 44=   0.2882 (  2) -0.1429 (  3)  0.1048 (  4) -0.1671 (  5)  0.1619 (  6)
          -0.1207 (  9) -0.2760 ( 13)  0.1841 ( 16)  0.1987 ( 17) -0.1866 ( 18)
          -0.1451 ( 20) -0.1044 ( 41)  0.1268 ( 43)  0.1064 ( 47) -0.1644 ( 52)
           0.1290 ( 53) -0.1581 ( 54)  0.1378 ( 60)  0.1407 ( 75) -0.1023 ( 78)
           0.2145 ( 84)  0.1269 ( 86) -0.1477 ( 87) -0.1141 ( 89) -0.1119 ( 91)
          -0.1953 ( 95)  0.3060 ( 98)  0.1048 ( 99)  0.1173 (100)
 CRD 45=   0.1123 (  3) -0.2182 (  6)  0.1346 (  7)  0.1561 ( 10)  0.1797 ( 12)
          -0.2156 ( 13)  0.1041 ( 14)  0.1417 ( 15) -0.1455 ( 16)  0.2277 ( 17)
          -0.1150 ( 18) -0.2003 ( 19) -0.1078 ( 38)  0.1477 ( 41) -0.1632 ( 46)
          -0.1175 ( 48) -0.1740 ( 50)  0.2273 ( 53)  0.1126 ( 59) -0.2209 ( 61)
          -0.1297 ( 67)  0.1936 ( 72)  0.1291 ( 75) -0.1683 ( 77)  0.1197 ( 78)
          -0.1105 ( 83) -0.1516 ( 84)  0.1505 ( 88) -0.1443 ( 94)  0.1578 ( 95)
           0.1737 ( 98) -0.1237 (100)
 CRD 46=  -0.1599 (  1)  0.1579 (  2)  0.1289 (  5) -0.1745 (  6) -0.2241 (  8)
           0.2294 ( 10) -0.1007 ( 12) -0.1042 ( 14) -0.1280 ( 15)  0.2248 ( 16)
           0.1118 ( 27)  0.1186 ( 29)  0.1268 ( 30)  0.1057 ( 32) -0.1478 ( 34)
          -0.1299 ( 46) -0.2111 ( 47)  0.1287 ( 49)  0.1734 ( 50)  0.1898 ( 57)
          -0.1086 ( 58) -0.1568 ( 63)  0.1378 ( 64)  0.1243 ( 73) -0.1293 ( 78)
           0.1417 ( 79)  0.1140 ( 80)  0.1666 ( 83) -0.2015 ( 86)  0.2178 ( 89)
           0.1696 ( 92) -0.1250 ( 93) -0.1698 ( 95)  0.1011 ( 96)
 CRD 47=   0.2025 ( 14) -0.2546 ( 15)  0.2815 ( 18) -0.2232 ( 19)  0.1374 ( 35)
          -0.1464 ( 37)  0.1353 ( 51) -0.2044 ( 52)  0.2247 ( 54) -0.1523 ( 55)
           0.1966 ( 56) -0.1345 ( 59) -0.1432 ( 60)  0.2262 ( 62)  0.2773 ( 76)
           0.2524 ( 82)  0.2347 ( 97) -0.1087 ( 98)  0.2607 ( 99)
 CRD 48=   0.1248 (  2) -0.2230 (  4)  0.2422 (  9) -0.1744 ( 10)  0.1459 ( 14)
          -0.1013 ( 15)  0.1465 ( 17) -0.1231 ( 19) -0.1407 ( 26) -0.1308 ( 33)
           0.2020 ( 45)  0.1960 ( 48) -0.1147 ( 49)  0.1189 ( 51)  0.1006 ( 53)
          -0.1005 ( 55)  0.1422 ( 58) -0.1122 ( 61) -0.1804 ( 63) -0.1060 ( 66)
          -0.2199 ( 69)  0.1062 ( 75) -0.1117 ( 80)  0.1094 ( 82) -0.1423 ( 86)
           0.1522 ( 87) -0.1869 ( 88) -0.1254 ( 90)  0.1971 ( 91) -0.1074 ( 92)
          -0.2124 ( 93)  0.1101 ( 94) -0.1043 ( 96) -0.1455 (100)
 CRD 49=   0.2738 (  1)  0.1048 (  2) -0.2213 (  3) -0.1404 (  6) -0.1250 (  8)
           0.1698 ( 10)  0.1472 ( 14) -0.1268 ( 16) -0.1022 ( 17)  0.1058 ( 19)
          -0.1387 ( 23) -0.1229 ( 25)  0.1167 ( 27) -0.1052 ( 28) -0.1081 ( 30)
           0.1512 ( 32)  0.1193 ( 42)  0.1715 ( 45) -0.1175 ( 47)  0.1032 ( 49)
          -0.1010 ( 50)  0.1039 ( 51) -0.1476 ( 57)  0.1109 ( 61)  0.1375 ( 64)
           0.1220 ( 66)  0.1179 ( 68) -0.2061 ( 73)  0.1362 ( 77) -0.1644 ( 79)
          -0.1409 ( 83)  0.1028 ( 84)  0.1946 ( 85) -0.1748 ( 90) -0.2021 ( 91)
           0.2268 ( 92) -0.1797 ( 96)  0.1373 (100)
 CRD 50=  -0.1035 (  5)  0.1463 (  6) -0.1869 (  7)  0.1219 ( 10) -0.1138 ( 12)
           0.1883 ( 13)  0.1664 ( 17) -0.1114 ( 19) -0.1787 ( 21) -0.1423 ( 28)
          -0.1134 ( 38) -0.1106 ( 43)  0.1329 ( 44)  0.2191 ( 46)  0.1139 ( 49)
           0.1054 ( 53) -0.1262 ( 58)  0.1587 ( 60) -0.1062 ( 65) -0.1725 ( 66)
          -0.1562 ( 72) -0.1400 ( 77) -0.1418 ( 81)  0.1584 ( 83) -0.2117 ( 85)
           0.1177 ( 86) -0.1329 ( 88) -0.2208 ( 91)  0.2589 ( 92)  0.1770 ( 93)
          -0.2306 (100)
 CRD 51=   0.2078 (  1) -0.2021 (  2) -0.1476 (  5) -0.1021 (  8)  0.2390 ( 12)
           0.1629 ( 16)  0.1294 ( 20)  0.1399 ( 22) -0.1269 ( 29) -0.1452 ( 40)
           0.1262 ( 41) -0.1357 ( 42) -0.1418 ( 44)  0.1085 ( 46)  0.1125 ( 50)
          -0.1171 ( 56) -0.2422 ( 59)  0.1375 ( 64) -0.1580 ( 67) -0.1188 ( 68)
           0.1252 ( 71)  0.2270 ( 74) -0.1688 ( 78)  0.1098 ( 81) -0.1863 ( 83)
           0.1005 ( 86) -0.1904 ( 90) -0.1156 ( 91)  0.1166 ( 92)  0.2925 ( 96)
           0.1636 ( 97)
 CRD 52=   0.1346 (  2)  0.1045 (  3) -0.1671 (  5) -0.1187 (  8) -0.1251 ( 13)
           0.1419 ( 15)  0.1499 ( 18) -0.1401 ( 20) -0.1137 ( 24) -0.1094 ( 33)
          -0.1105 ( 35) -0.1338 ( 37)  0.1084 ( 42)  0.1339 ( 43)  0.1050 ( 54)
           0.1256 ( 58)  0.1137 ( 59) -0.1653 ( 60)  0.1549 ( 64) -0.1936 ( 68)
           0.1650 ( 71) -0.2470 ( 75) -0.1214 ( 77)  0.2261 ( 78)  0.1345 ( 79)
           0.1326 ( 86) -0.2068 ( 90) -0.1308 ( 93) -0.1030 ( 96) -0.2142 ( 97)
           0.2616 ( 99)  0.1554 (100)
 CRD 53=  -0.1937 (  2)  0.1724 (  4) -0.1220 (  5)  0.1825 (  7)  0.1043 (  9)
           0.1284 ( 23)  0.1411 ( 24) -0.1256 ( 25) -0.1122 ( 26)  0.1770 ( 31)
           0.1117 ( 32) -0.1114 ( 33) -0.1279 ( 43) -0.1553 ( 45)  0.1515 ( 56)
           0.2338 ( 58)  0.1874 ( 64)  0.1504 ( 67) -0.2223 ( 68) -0.2004 ( 70)
          -0.2013 ( 74)  0.1323 ( 75) -0.1396 ( 79) -0.1139 ( 81)  0.1346 ( 83)
           0.2013 ( 86)  0.2561 ( 88) -0.1490 ( 90) -0.2041 ( 93) -0.1391 ( 99)
 CRD 54=   0.1717 (  3) -0.1202 (  4)  0.2065 ( 11) -0.1276 ( 13)  0.1058 ( 19)
          -0.1283 ( 20)  0.1356 ( 22)  0.1214 ( 30) -0.1536 ( 34) -0.1185 ( 39)
           0.1040 ( 41)  0.1049 ( 42) -0.1224 ( 44)  0.1913 ( 56)  0.1012 ( 59)
          -0.1940 ( 60) -0.2484 ( 62) -0.2461 ( 65) -0.1838 ( 67)  0.1946 ( 70)
           0.2043 ( 71)  0.2085 ( 77) -0.1262 ( 78) -0.1752 ( 79)  0.2681 ( 80)
           0.1947 ( 81) -0.1692 ( 85) -0.1468 ( 88)  0.1325 (100)

 THE DETERMINANT OF THE G MATRIX IS 10**(   -16)


                     --------------------
                     INTERNAL COORDINATES
                     --------------------

                 - - ATOMS - -         COORDINATE      COORDINATE
 NO.   TYPE    I  J  K  L  M  N        (BOHR,RAD)       (ANG,DEG)
 ----------------------------------------------------------------
   1 STRETCH   1  2                     2.8770272       1.5224573
   2 STRETCH   1  4                     2.8923801       1.5305817
   3 STRETCH   1  8                     2.0931984       1.1076730
   4 STRETCH   1  7                     2.0939639       1.1080781
   5 STRETCH   2 10                     2.0899969       1.1059788
   6 STRETCH   2  3                     2.8585204       1.5126640
   7 STRETCH   2  9                     2.1053258       1.1140905
   8 STRETCH   3 13                     2.0855244       1.1036120
   9 STRETCH   3 12                     2.0744043       1.0977276
  10 STRETCH   3 11                     2.0716858       1.0962890
  11 STRETCH   4 14                     2.1255951       1.1248165
  12 STRETCH   4  6                     2.8672613       1.5172895
  13 STRETCH   4  5                     2.8722766       1.5199434
  14 STRETCH   5 16                     2.0749130       1.0979967
  15 STRETCH   5 15                     2.0722053       1.0965639
  16 STRETCH   5 17                     2.0847432       1.1031987
  17 STRETCH   6 20                     2.0746260       1.0978449
  18 STRETCH   6 19                     2.0744849       1.0977702
  19 STRETCH   6 18                     2.0755133       1.0983144
  20 BEND      1  4 14                  1.8668698     106.9637615
  21 BEND      1  2  3                  1.9453067     111.4578614
  22 BEND      1  4  5                  1.9261094     110.3579392
  23 BEND      1  2 10                  1.9233941     110.2023640
  24 BEND      1  4  6                  1.9356662     110.9055014
  25 BEND      1  2  9                  1.8924663     108.4303330
  26 BEND      2  3 12                  1.9507572     111.7701545
  27 BEND      2  3 13                  1.9235492     110.2112496
  28 BEND      2  3 11                  1.9508089     111.7731170
  29 BEND      2  1  8                  1.9213884     110.0874447
  30 BEND      2  1  7                  1.9202431     110.0218254
  31 BEND      2  1  4                  1.9361218     110.9316092
  32 BEND      3  2 10                  1.9263428     110.3713132
  33 BEND      3  2  9                  1.9194517     109.9764803
  34 BEND      4  1  8                  1.9186944     109.9330905
  35 BEND      4  5 15                  1.9486311     111.6483390
  36 BEND      4  5 16                  1.9508747     111.7768874
  37 BEND      4  6 19                  1.9402454     111.1678721
  38 BEND      4  6 20                  1.9459565     111.4950946
  39 BEND      4  6 18                  1.9474232     111.5791285
  40 BEND      4  5 17                  1.9211350     110.0729276
  41 BEND      4  1  7                  1.9178408     109.8841831
  42 BEND      5  4  6                  1.9330754     110.7570606
  43 BEND      5  4 14                  1.8945526     108.5498685
  44 BEND      6  4 14                  1.9058194     109.1954063
  45 BEND      7  1  8                  1.8476091     105.8602047
  46 BEND      9  2 10                  1.8544100     106.2498664
  47 BEND     11  3 12                  1.8780708     107.6055306
  48 BEND     11  3 13                  1.8852052     108.0143006
  49 BEND     12  3 13                  1.8723032     107.2750739
  50 BEND     15  5 16                  1.8777977     107.5898857
  51 BEND     15  5 17                  1.8874024     108.1401919
  52 BEND     16  5 17                  1.8751732     107.4395128
  53 BEND     18  6 19                  1.8749632     107.4274781
  54 BEND     18  6 20                  1.8746843     107.4115000
  55 BEND     19  6 20                  1.8769683     107.5423635
  56 TORSION   1  4  5 17              -0.8656153     -49.5961057
  57 TORSION   1  4  5 15              -2.9619363    -169.7064481
  58 TORSION   1  2  3 13              -0.8849695     -50.7050167
  59 TORSION   1  4  5 16               1.2167952      69.7172277
  60 TORSION   1  4  6 18              -1.0452572     -59.8888286
  61 TORSION   1  4  6 19              -3.1379533    -179.7914813
  62 TORSION   1  4  6 20               1.0509803      60.2167363
  63 TORSION   1  2  3 11              -2.9815734    -170.8315705
  64 TORSION   1  2  3 12               1.1953654      68.4893908
  65 TORSION   2  1  4  5               1.1862132      67.9650072
  66 TORSION   2  1  4  6              -2.9481256    -168.9151540
  67 TORSION   2  1  4 14              -0.8715518     -49.9362389
  68 TORSION   3  2  1  7              -0.9335433     -53.4880894
  69 TORSION   3  2  1  8              -2.9632507    -169.7817573
  70 TORSION   3  2  1  4               1.1922695      68.3120086
  71 TORSION   4  1  2  9              -0.9229312     -52.8800641
  72 TORSION   4  1  2 10              -2.9458953    -168.7873663
  73 TORSION   5  4  1  7              -2.9697550    -170.1544281
  74 TORSION   5  4  1  8              -0.9430250     -54.0313548
  75 TORSION   5  4  6 18               1.0995672      63.0005600
  76 TORSION   5  4  6 20              -3.0873805    -176.8938750
  77 TORSION   5  4  6 19              -0.9931289     -56.9020927
  78 TORSION   6  4  5 16              -0.9335599     -53.4890433
  79 TORSION   6  4  5 15               1.1708939      67.0872808
  80 TORSION   6  4  1  7              -0.8209084     -47.0345893
  81 TORSION   6  4  1  8               1.2058215      69.0884840
  82 TORSION   6  4  5 17              -3.0159704    -172.8023767
  83 TORSION   7  1  4 14               1.2556654      71.9443258
  84 TORSION   7  1  2  9              -3.0487440    -174.6801622
  85 TORSION   7  1  2 10               1.2114773      69.4125357
  86 TORSION   8  1  2  9               1.2047339      69.0261700
  87 TORSION   8  1  4 14              -3.0007900    -171.9326008
  88 TORSION   8  1  2 10              -0.8182301     -46.8811322
  89 TORSION   9  2  3 12              -2.9884251    -171.2241436
  90 TORSION   9  2  3 11              -0.8821785     -50.5451049
  91 TORSION   9  2  3 13               1.2144254      69.5814490
  92 TORSION  10  2  3 12              -0.9479672     -54.3145215
  93 TORSION  10  2  3 11               1.1582793      66.3645172
  94 TORSION  10  2  3 13              -3.0283021    -173.5089290
  95 TORSION  14  4  5 16              -3.0257197    -173.3609691
  96 TORSION  14  4  5 15              -0.9212658     -52.7846449
  97 TORSION  14  4  5 17               1.1750551      67.3256976
  98 TORSION  14  4  6 18              -3.0982166    -177.5147376
  99 TORSION  14  4  6 20              -1.0019791     -57.4091727
 100 TORSION  14  4  6 19               1.0922726      62.5826097

     ------------------------------------------
     THE POINT GROUP IS C1 , NAXIS= 1, ORDER= 1
     ------------------------------------------

     DIMENSIONS OF THE SYMMETRY SUBSPACES ARE
 A   =  198

 ..... DONE SETTING UP THE RUN .....
 STEP CPU TIME =     0.01 TOTAL CPU TIME =        0.0 (    0.0 MIN)
 TOTAL WALL CLOCK TIME=        0.0 SECONDS, CPU UTILIZATION IS  33.33%


          -----------------------------
          STATIONARY POINT LOCATION RUN
          -----------------------------

 OBTAINING INITIAL HESSIAN, HESS=GUESS   
 DIAGONAL GUESS HESSIAN IN INTERNAL COORDS IS
     1  0.3726     2  0.3668     3  0.3347     4  0.3344     5  0.3358
     6  0.3798     7  0.3305     8  0.3373     9  0.3412    10  0.3422
    11  0.3237    12  0.3764    13  0.3744    14  0.3410    15  0.3420
    16  0.3376    17  0.3411    18  0.3412    19  0.3408    20  0.2220
    21  0.2502    22  0.2492    23  0.2236    24  0.2493    25  0.2231
    26  0.2246    27  0.2243    28  0.2247    29  0.2235    30  0.2235
    31  0.2490    32  0.2242    33  0.2237    34  0.2230    35  0.2243
    36  0.2242    37  0.2244    38  0.2244    39  0.2243    40  0.2239
    41  0.2230    42  0.2501    43  0.2226    44  0.2228    45  0.2016
    46  0.2014    47  0.2027    48  0.2024    49  0.2023    50  0.2027
    51  0.2024    52  0.2023    53  0.2026    54  0.2026    55  0.2026
    56  0.2500    57  0.2500    58  0.2500    59  0.2500    60  0.2500
    61  0.2500    62  0.2500    63  0.2500    64  0.2500    65  0.2500
    66  0.2500    67  0.2500    68  0.2500    69  0.2500    70  0.2500
    71  0.2500    72  0.2500    73  0.2500    74  0.2500    75  0.2500
    76  0.2500    77  0.2500    78  0.2500    79  0.2500    80  0.2500
    81  0.2500    82  0.2500    83  0.2500    84  0.2500    85  0.2500
    86  0.2500    87  0.2500    88  0.2500    89  0.2500    90  0.2500
    91  0.2500    92  0.2500    93  0.2500    94  0.2500    95  0.2500
    96  0.2500    97  0.2500    98  0.2500    99  0.2500   100  0.2500
 TRANSFORMING HESSIAN TO SYMMETRY COORDINATES

          PARAMETERS CONTROLLING GEOMETRY SEARCH ARE
          METHOD =QA                  UPHESS =BFGS    
          NNEG   =         0          NFRZ   =         3
          NSTEP  =        50          IFOLOW =         1
          HESS   =GUESS               RESTAR =         F
          IHREP  =         0          HSSEND =         F
          NPRT   =         0          NPUN   =         0
          OPTTOL = 5.000E-04          RMIN   = 1.500E-03
          RMAX   = 1.000E-01          RLIM   = 7.000E-02
          DXMAX  = 3.000E-01          PURIFY =         F
          MOVIE  =         F          TRUPD  =         T
          TRMAX  = 5.000E-01          TRMIN  = 5.000E-02
          ITBMAT =         5          STPT   =         F
          STSTEP = 1.000E-02          PROJCT=          F
          FROZEN COORD(S)=   1   2   3


      ***** EQUILIBRIUM GEOMETRY LOCATED *****
            (SUBJECT TO   3 CONSTRAINT(S))
 COORDINATES OF ALL ATOMS ARE (ANGS)
   ATOM   CHARGE       X              Y              Z
 ------------------------------------------------------------
 C           6.0   1.7720111538   1.7963477413   2.4466185471
 C           6.0   1.0318419819   3.0960798837   2.0962193727
 C           6.0   1.2142747134   3.5243349212   0.6374171892
 C           6.0   3.2953367461   1.9509971289   2.3088321240
 C           6.0   3.8373495164   2.8737060354   3.4048184841
 C           6.0   4.0534724578   0.6242100723   2.2755368744
 H           1.0   1.4120059021   0.9965574168   1.7995661518
 H           1.0   1.5264133174   1.4977320559   3.4664313561
 H           1.0   1.3828356591   3.8916468606   2.7461185132
 H           1.0  -0.0286163121   2.9871502675   2.3074580663
 H           1.0   0.8314684777   4.5261932401   0.4719374142
 H           1.0   0.6970499671   2.8438817712  -0.0337783078
 H           1.0   2.2586157584   3.5322529311   0.3472689982
 H           1.0   3.4873776185   2.4243265330   1.3531626975
 H           1.0   4.8696484412   3.1496236466   3.2145630806
 H           1.0   3.7845048616   2.3863489170   4.3760095819
 H           1.0   3.2641441164   3.7916234386   3.4694188743
 H           1.0   3.9611649589   0.0735510007   3.2086006158
 H           1.0   5.1106861792   0.8101212262   2.0995758524
 H           1.0   3.6940205792  -0.0116315420   1.4699519304


                     --------------------
                     INTERNAL COORDINATES
                     --------------------

                 - - ATOMS - -         COORDINATE      COORDINATE
 NO.   TYPE    I  J  K  L  M  N        (BOHR,RAD)       (ANG,DEG)
 ----------------------------------------------------------------
   1 STRETCH   1  2                     2.9030113       1.5362075
   2 STRETCH   1  4                     2.9051563       1.5373426
   3 STRETCH   1  8                     2.0610213       1.0906456
   4 STRETCH   1  7                     2.0596671       1.0899290
   5 STRETCH   2 10                     2.0536890       1.0867655
   6 STRETCH   2  3                     2.8936808       1.5312700
   7 STRETCH   2  9                     2.0514560       1.0855838
   8 STRETCH   3 13                     2.0483243       1.0839266
   9 STRETCH   3 12                     2.0536734       1.0867573
  10 STRETCH   3 11                     2.0507178       1.0851932
  11 STRETCH   4 14                     2.0477380       1.0836164
  12 STRETCH   4  6                     2.8884029       1.5284771
  13 STRETCH   4  5                     2.8946480       1.5317819
  14 STRETCH   5 16                     2.0558288       1.0878978
  15 STRETCH   5 15                     2.0510003       1.0853427
  16 STRETCH   5 17                     2.0486844       1.0841172
  17 STRETCH   6 20                     2.0549128       1.0874131
  18 STRETCH   6 19                     2.0555721       1.0877620
  19 STRETCH   6 18                     2.0548144       1.0873610
  20 BEND      1  4 14                  1.8740120     107.3729764
  21 BEND      1  2  3                  1.9785173     113.3606891
  22 BEND      1  4  5                  1.9252597     110.3092526
  23 BEND      1  2 10                  1.9187913     109.9386418
  24 BEND      1  4  6                  1.9889960     113.9610756
  25 BEND      1  2  9                  1.9046681     109.1294426
  26 BEND      2  3 12                  1.9353906     110.8897116
  27 BEND      2  3 13                  1.9517916     111.8294197
  28 BEND      2  3 11                  1.9406103     111.1887794
  29 BEND      2  1  8                  1.9139220     109.6596532
  30 BEND      2  1  7                  1.9031698     109.0435955
  31 BEND      2  1  4                  1.9518184     111.8309561
  32 BEND      3  2 10                  1.9065296     109.2361010
  33 BEND      3  2  9                  1.9037688     109.0779148
  34 BEND      4  1  8                  1.9118505     109.5409671
  35 BEND      4  5 15                  1.9436398     111.3623548
  36 BEND      4  5 16                  1.9301830     110.5913409
  37 BEND      4  6 19                  1.9147824     109.7089522
  38 BEND      4  6 20                  1.9387961     111.0848365
  39 BEND      4  6 18                  1.9592899     112.2590397
  40 BEND      4  5 17                  1.9450480     111.4430435
  41 BEND      4  1  7                  1.9261253     110.3588510
  42 BEND      5  4  6                  1.9422454     111.2824657
  43 BEND      5  4 14                  1.8809298     107.7693386
  44 BEND      6  4 14                  1.8463211     105.7864085
  45 BEND      7  1  8                  1.8543999     106.2492866
  46 BEND      9  2 10                  1.8468770     105.8182551
  47 BEND     11  3 12                  1.8922886     108.4201476
  48 BEND     11  3 13                  1.8674364     106.9962249
  49 BEND     12  3 13                  1.8731860     107.3256515
  50 BEND     15  5 16                  1.8929155     108.4560682
  51 BEND     15  5 17                  1.8734839     107.3427218
  52 BEND     16  5 17                  1.8759341     107.4831090
  53 BEND     18  6 19                  1.8837496     107.9308991
  54 BEND     18  6 20                  1.8875934     108.1511357
  55 BEND     19  6 20                  1.8769268     107.5399815
  56 TORSION   1  4  5 17              -0.8578226     -49.1496120
  57 TORSION   1  4  5 15              -2.9493388    -168.9846665
  58 TORSION   1  2  3 13              -0.8777971     -50.2940691
  59 TORSION   1  4  5 16               1.2277683      70.3459405
  60 TORSION   1  4  6 18              -1.1234964     -64.3716023
  61 TORSION   1  4  6 19               3.0653159     175.6296659
  62 TORSION   1  4  6 20               0.9924790      56.8648596
  63 TORSION   1  2  3 11              -2.9641267    -169.8319511
  64 TORSION   1  2  3 12               1.2122797      69.4585123
  65 TORSION   2  1  4  5               1.2128197      69.4894524
  66 TORSION   2  1  4  6              -2.8709843    -164.4952816
  67 TORSION   2  1  4 14              -0.8323257     -47.6887525
  68 TORSION   3  2  1  7              -1.0251255     -58.7353664
  69 TORSION   3  2  1  8              -3.0489158    -174.6900058
  70 TORSION   3  2  1  4               1.1098859      63.5917805
  71 TORSION   4  1  2  9              -1.0155823     -58.1885790
  72 TORSION   4  1  2 10              -3.0339092    -173.8301938
  73 TORSION   5  4  1  7              -2.9485348    -168.9385974
  74 TORSION   5  4  1  8              -0.9127557     -52.2970512
  75 TORSION   5  4  6 18               1.0669267      61.1303994
  76 TORSION   5  4  6 20              -3.1002831    -177.6331387
  77 TORSION   5  4  6 19              -1.0274462     -58.8683324
  78 TORSION   6  4  5 16              -0.9976930     -57.1636006
  79 TORSION   6  4  5 15               1.1083852      63.5057924
  80 TORSION   6  4  1  7              -0.7491535     -42.9233314
  81 TORSION   6  4  1  8               1.2866256      73.7182148
  82 TORSION   6  4  5 17              -3.0832839    -176.6591531
  83 TORSION   7  1  4 14               1.2895051      73.8831976
  84 TORSION   7  1  2  9               3.1325915     179.4842741
  85 TORSION   7  1  2 10               1.1142646      63.8426593
  86 TORSION   8  1  2  9               1.1088013      63.5296347
  87 TORSION   8  1  4 14              -2.9579012    -169.4752561
  88 TORSION   8  1  2 10              -0.9095256     -52.1119801
  89 TORSION   9  2  3 12              -2.9449349    -168.7323383
  90 TORSION   9  2  3 11              -0.8381560     -48.0228018
  91 TORSION   9  2  3 13               1.2481736      71.5150803
  92 TORSION  10  2  3 12              -0.9338879     -53.5078377
  93 TORSION  10  2  3 11               1.1728909      67.2016989
  94 TORSION  10  2  3 13              -3.0239648    -173.2604191
  95 TORSION  14  4  5 16              -3.0145607    -172.7216031
  96 TORSION  14  4  5 15              -0.9084824     -52.0522101
  97 TORSION  14  4  5 17               1.1830338      67.7828444
  98 TORSION  14  4  6 18               3.1050326     177.9052609
  99 TORSION  14  4  6 20              -1.0621773     -60.8582772
 100 TORSION  14  4  6 19               1.0106596      57.9065291

          INTERNUCLEAR DISTANCES (ANGS.)


 =====================================================
   GAMESS/COSab RESULTS
 =====================================================

   Dielectric Constant                  = INFTY
   Basic Grid Size                      =                 1082
   Number of Segments                   =                   92
   Number of Segments located on spheres=                  240
   Number of Segments of the cavity     =                  637
   Solvent Radius (rsolv)               = 1.40
   Outlying Charge Error Method         = double cavity

 =====================================================

  Total solvated Energy (a.u.)          =  -235.4219173171
  Total Energy corrected (a.u.)         =  -235.4218323092

  Outlying charge effect (a.u.)         =     0.0000850079
  Outlying charge effect (kcal/mol)     =     0.0533433276

  Dielectric Energy (a.u.)              =    -0.0013263609
  Dielectric energy corr. (a.u.)        =    -0.0012413529

  Sum of polarization charges           =     0.0284802545
  Sum of polarization charges(cor.)     =    -0.0284802545

  Total surface area of cavity (A**2)   =  148.23
  Total volume of cavity (A**3)         =  143.76

 =====================================================
 NPS=                   637
NR.  ATOM  (X, Y, Z)(a.u.)                  CHARGE(e)  AREA(A**2) SIGMA(e/A**2)
   1   1   0.735560   0.976941   5.892719   0.001791   0.371649   0.004818
   2   1   0.911751   0.546650   5.108311   0.001340   0.278737   0.004807
   3   1   2.890314  -0.122572   5.928695   0.001716   0.371649   0.004617
   4   1   1.790692   0.187189   5.876281   0.001898   0.325193   0.005836
   5   1   0.098132   1.540940   5.154960   0.001185   0.325193   0.003644
   6   1  -0.129816   1.922031   4.495883   0.000379   0.139368   0.002717
   7   1   0.123160   2.181702   6.175697   0.001107   0.325193   0.003405
   8   1  -0.006478   1.791985   3.945793   0.000423   0.185824   0.002276
   9   1   2.384117  -0.209873   5.224900   0.000633   0.139368   0.004544
  10   2  -0.058180   9.041821   4.223631   0.000724   0.278737   0.002599
  11   2  -0.052588   6.647340   7.066065   0.001718   0.371649   0.004624
  12   2  -0.648024   3.519772   2.511563   0.000215   0.092912   0.002317
  13   2  -0.990912   4.038361   2.427918   0.000075   0.046456   0.001605
  14   2   0.548484   7.491369   7.064275   0.001375   0.278737   0.004935
  15   2   0.707959   9.318160   4.809091   0.000814   0.278737   0.002921
  16   2  -0.433713   8.562599   5.078605   0.001644   0.371649   0.004424
  17   2  -0.293062   7.732580   6.351261   0.001795   0.325193   0.005520
  18   2   0.679928   6.191648   7.504608   0.001106   0.325193   0.003400
  19   2  -0.888883   8.334915   4.194529   0.000711   0.232280   0.003062
  20   2   0.044326   5.267023   7.172557   0.000753   0.232280   0.003241
  21   2  -0.741422   3.425158   2.885344   0.000134   0.046456   0.002886
  22   2   1.473556   6.448814   7.662580   0.000719   0.232280   0.003095
  23   2   0.011757   8.511512   5.818185   0.001380   0.278737   0.004949
  24   3   4.671325   9.457847   0.305780   0.001090   0.232280   0.004693
  25   3   2.198654   7.712934  -2.424007   0.001004   0.371649   0.002703
  26   3  -1.045957   7.086104  -0.511004   0.002177   0.418105   0.005207
  27   3   4.236270   4.282849  -1.000762   0.000858   0.185824   0.004617
  28   3  -0.817745   8.607824   2.100860   0.000142   0.092912   0.001530
  29   3  -0.808297   8.021636  -0.469381   0.001375   0.278737   0.004934
  30   3   1.757809   8.651558  -1.962444   0.001355   0.418105   0.003242
  31   3   3.948953   9.949239   0.351003   0.001304   0.278737   0.004679
  32   3   3.055645  10.039997   2.714805   0.000267   0.139368   0.001919
  33   3   4.002974   5.015058  -1.738232   0.001401   0.278737   0.005025
  34   3   3.461243   4.454449  -1.634246   0.001115   0.232280   0.004799
  35   3   3.976342   9.807687   2.448865   0.000664   0.232280   0.002860
  36   3   4.488907   9.735260   1.315633   0.001658   0.371649   0.004462
  37   3   4.136861   9.251591  -0.838545   0.002514   0.511017   0.004920
  38   3   3.165394   8.532327  -1.960970   0.001341   0.418105   0.003208
  39   3   1.099667   7.581785  -2.260512   0.001575   0.371649   0.004239
  40   3  -0.291371   7.499254  -1.420806   0.001567   0.278737   0.005620
  41   3  -1.358862   7.471243   0.677203   0.001622   0.418105   0.003878
  42   3  -1.293498   7.769162   1.628018   0.000549   0.185824   0.002957
  43   3   4.001365   6.317388  -2.150143   0.001371   0.371649   0.003690
  44   3   3.175313   7.122097  -2.441704   0.001367   0.464561   0.002943
  45   3   1.995524   6.631683  -2.562942   0.000899   0.278737   0.003226
  46   3  -1.367876   6.195936   0.395316   0.001165   0.325193   0.003582
  47   3  -1.144973   5.098957   1.076470   0.000042   0.046456   0.000896
  48   3   3.566968   3.785846  -0.894158   0.000900   0.185824   0.004842
  49   3  -1.141835   8.232538   1.250151   0.000437   0.139368   0.003136
  50   3   0.348052   8.072172  -1.711078   0.001335   0.278737   0.004789
  51   3   3.192179   9.286505  -1.360652   0.001043   0.278737   0.003742
  52   3   3.692180  10.114522   1.835063   0.000590   0.185824   0.003174
  53   3   3.082565   5.755506  -2.379484   0.001785   0.418105   0.004270
  54   3   4.900993   9.280320   1.995246   0.000693   0.232280   0.002982
  55   3   4.008068   7.934723  -1.913712   0.000995   0.325193   0.003061
  56   3   0.362022   7.064009  -2.018189   0.000718   0.185824   0.003862
  57   3  -1.472230   6.371805   1.095570   0.000585   0.185824   0.003148
  58   4   9.258253   4.979149   2.511749   0.000050   0.046456   0.001085
  59   5   8.129048   9.028277   5.678907   0.001122   0.232280   0.004831
  60   5   8.919691   7.282010   9.275572   0.001032   0.371649   0.002777
  61   5   9.952495   3.799902   8.515077   0.001663   0.325193   0.005115
  62   5   4.808239   6.672898   9.036302   0.000638   0.139368   0.004577
  63   5  10.498171   4.548189   8.156125   0.000944   0.185824   0.005081
  64   5   9.799368   7.240518   8.559441   0.001391   0.418105   0.003327
  65   5   8.933295   8.702431   5.567810   0.001327   0.278737   0.004759
  66   5   9.102695   6.999474   3.536612   0.000343   0.185824   0.001843
  67   5   5.614767   7.044048   9.434474   0.001435   0.278737   0.005147
  68   5   5.495874   6.301780   9.665711   0.001147   0.232280   0.004938
  69   5   8.341199   7.847144   3.740321   0.000698   0.232280   0.003003
  70   5   8.226089   8.640757   4.693794   0.001689   0.371649   0.004544
  71   5   8.553472   8.950071   6.883658   0.002582   0.511017   0.005052
  72   5   8.849599   8.266056   8.355174   0.001372   0.418105   0.003281
  73   5   9.454034   6.304477   9.378574   0.001621   0.371649   0.004361
  74   5  10.052749   4.866779   8.907971   0.001615   0.278737   0.005794
  75   5  10.491916   3.864140   7.587710   0.000960   0.185824   0.005165
  76   5   6.697743   7.861032   9.274988   0.001414   0.371649   0.003805
  77   5   7.878553   7.743172   9.356980   0.001393   0.464561   0.002999
  78   5   8.252537   6.630346   9.875497   0.000925   0.278737   0.003318
  79   5   4.650966   5.886076   9.138572   0.001361   0.278737   0.004884
  80   5  10.162934   5.762151   8.821236   0.001367   0.278737   0.004903
  81   5   9.272797   8.438810   7.506090   0.001076   0.278737   0.003862
  82   5   8.884715   8.018780   4.216534   0.000619   0.185824   0.003332
  83   5   6.882261   6.954903   9.872805   0.001802   0.418105   0.004310
  84   5   7.505057   8.507399   4.254075   0.000634   0.185824   0.003413
  85   5   7.870580   8.595448   8.405043   0.001045   0.325193   0.003212
  86   5   9.456391   5.379631   9.503425   0.000747   0.185824   0.004018
  87   6   5.869340  -2.148363   4.351766   0.001192   0.232280   0.005131
  88   6   9.927178  -1.832803   4.563728   0.000990   0.371649   0.002664
  89   6  10.557904   1.159349   6.726194   0.001884   0.371649   0.005068
  90   6   8.145258   1.603489   0.576014   0.001439   0.418105   0.003442
  91   6   8.736212   0.701197   0.708881   0.000735   0.185824   0.003956
  92   6   9.256222   2.392537   1.096233   0.000591   0.185824   0.003182
  93   6   9.472150   1.872837   1.056732   0.000694   0.185824   0.003734
  94   6   9.984275   0.593513   7.222175   0.001360   0.278737   0.004880
  95   6   9.433725  -1.901094   5.583649   0.001335   0.418105   0.003193
  96   6   6.114833  -2.168639   5.128507   0.001151   0.232280   0.004955
  97   6   9.521375  -0.373863   1.400789   0.001930   0.371649   0.005193
  98   6  10.033258   0.114517   1.558354   0.001142   0.232280   0.004917
  99   6   5.161821  -1.610589   4.808520   0.001702   0.325193   0.005233
 100   6   7.080673  -2.552801   4.434084   0.002594   0.511017   0.005076
 101   6   8.725586  -2.441687   4.487377   0.001296   0.418105   0.003100
 102   6  10.578601  -1.016872   5.270372   0.001737   0.418105   0.004155
 103   6  10.674526   0.035555   6.271894   0.001834   0.325193   0.005641
 104   6   9.341100  -1.591918   2.356738   0.001406   0.371649   0.003784
 105   6   9.541331  -1.985557   3.447749   0.001326   0.464561   0.002853
 106   6  10.538038  -1.234439   3.883715   0.001050   0.325193   0.003230
 107   6   6.958111   1.633429   0.614254   0.000178   0.092912   0.001917
 108   6   9.446325   1.036663   0.972560   0.001748   0.371649   0.004703
 109   6   9.714427   2.950133   1.667907   0.000186   0.092912   0.002000
 110   6  10.226333  -0.851889   6.189866   0.001483   0.325193   0.004560
 111   6   7.956254  -2.509830   5.064758   0.001050   0.278737   0.003767
 112   6   5.296027  -1.414201   5.703100   0.000424   0.139368   0.003043
 113   6  10.238123  -1.004085   2.606345   0.001751   0.418105   0.004188
 114   6   8.298010  -2.445052   3.440404   0.001159   0.371649   0.003118
 115   7   1.681940   0.101747   2.026433  -0.001263   0.314043  -0.004022
 116   7   0.512985   1.226292   2.421836  -0.000858   0.294415  -0.002915
 117   7   1.331622  -0.154244   3.712370  -0.000560   0.372926  -0.001503
 118   7   2.624017   0.726504   1.233851  -0.001950   0.412182  -0.004732
 119   7   1.332539   0.828034   1.629407  -0.001453   0.314043  -0.004628
 120   7   0.961167   0.254388   2.716794  -0.001005   0.294415  -0.003414
 121   7   2.223300  -0.532776   3.409395  -0.001265   0.451437  -0.002801
 122   7   2.387646  -0.269894   2.251569  -0.001356   0.274788  -0.004935
 123   7   0.517666   0.696289   3.368150  -0.000322   0.274788  -0.001173
 124   8   2.121279   2.040490   8.748068  -0.001951   0.451437  -0.004321
 125   8   2.021918   3.862021   8.606489  -0.001039   0.392554  -0.002647
 126   8   2.065940   0.740109   7.548696  -0.000441   0.372926  -0.001182
 127   8   0.727897   2.305395   7.603547  -0.000564   0.353299  -0.001597
 128   8   2.584524   3.095007   8.974465  -0.001523   0.353299  -0.004310
 129   8   3.257570   1.866419   8.779257  -0.001660   0.333671  -0.004976
 130   8   2.969290   0.958377   8.139265  -0.001423   0.431809  -0.003296
 131   8   1.363532   1.424360   7.871640  -0.001142   0.451437  -0.002529
 132   8   1.190644   2.942739   8.326378  -0.001316   0.471065  -0.002793
 133   9   2.583546   9.286977   6.705468  -0.001682   0.372926  -0.004510
 134   9   3.370107   9.687425   5.055189  -0.000510   0.196277  -0.002599
 135   9   1.596247   8.661525   7.003725  -0.000443   0.333671  -0.001327
 136   9   1.835866   9.661702   5.515164  -0.000512   0.314043  -0.001630
 137   9   2.256313   8.035287   7.522608  -0.001035   0.353299  -0.002929
 138   9   1.609193   9.280977   6.335916  -0.000389   0.255160  -0.001524
 139   9   2.821458   9.769540   5.586452  -0.001341   0.353299  -0.003795
 140  10  -2.443217   5.445849   4.896590  -0.002626   0.549575  -0.004779
 141  10  -1.748923   3.936835   4.855530  -0.000833   0.333671  -0.002498
 142  10  -1.928026   4.597681   3.165999  -0.000624   0.353299  -0.001767
 143  10  -2.119816   6.810911   3.721561  -0.000926   0.372926  -0.002482
 144  10  -1.665316   6.975760   5.651876  -0.000492   0.372926  -0.001319
 145  10  -1.238588   5.124761   6.448868  -0.000566   0.353299  -0.001603
 146  10  -1.992021   4.178829   3.999777  -0.001243   0.431809  -0.002879
 147  10  -2.381810   5.675227   3.575731  -0.001510   0.471065  -0.003206
 148  10  -2.134910   6.906539   4.697268  -0.001197   0.431809  -0.002771
 149  10  -1.783193   6.021114   6.064473  -0.001286   0.471065  -0.002731
 150  10  -1.742718   4.495335   5.725032  -0.001445   0.490692  -0.002945
 151  11   0.683014  10.798723   0.440142  -0.003339   0.608459  -0.005487
 152  11   0.255066  10.321939   1.975600  -0.001162   0.353299  -0.003289
 153  11  -0.685464   9.411922   0.438994  -0.000542   0.333671  -0.001623
 154  11   0.619980   9.712309  -1.054130  -0.000678   0.353299  -0.001920
 155  11   2.471938  10.541709  -0.235061  -0.000719   0.372926  -0.001929
 156  11   2.274901  10.721529   1.807567  -0.000747   0.353299  -0.002114
 157  11  -0.407395   9.943526   1.324553  -0.001561   0.490692  -0.003182
 158  11  -0.140936   9.819483  -0.332993  -0.001530   0.490692  -0.003119
 159  11   1.471830  10.361423  -0.768207  -0.001721   0.510320  -0.003371
 160  11   2.188698  10.923499   0.702628  -0.001717   0.490692  -0.003499
 161  11   1.194893  10.769901   1.881760  -0.001924   0.490692  -0.003922
 162  12   0.142652   4.019130  -1.742919  -0.002745   0.549575  -0.004994
 163  12   1.886873   3.266433  -1.189912  -0.001000   0.353299  -0.002830
 164  12   1.685808   4.667250  -2.387513  -0.000645   0.353299  -0.001827
 165  12  -0.194639   5.706172  -1.971477  -0.000615   0.372926  -0.001650
 166  12  -1.047420   4.777880  -0.360451  -0.000811   0.412182  -0.001968
 167  12   0.537524   3.209421  -0.924664  -0.002102   0.431809  -0.004867
 168  12   1.659887   3.794238  -1.913560  -0.001256   0.431809  -0.002908
 169  12   0.688138   5.113379  -2.424195  -0.001380   0.471065  -0.002930
 170  12  -0.744750   5.057754  -1.361221  -0.001457   0.471065  -0.003092
 171  12  -0.480509   3.708811  -0.236564  -0.002197   0.549575  -0.003997
 172  13   6.344996   7.287279  -0.504376  -0.002090   0.392554  -0.005325
 173  13   5.440527   5.562766  -1.194076  -0.000417   0.235532  -0.001769
 174  13   5.783590   8.466434  -0.071329  -0.000548   0.294415  -0.001862
 175  13   5.367295   7.111656  -1.496987  -0.000614   0.333671  -0.001839
 176  13   6.233149   8.149432   0.656102  -0.001644   0.353299  -0.004652
 177  13   5.633286   7.979921  -0.914985  -0.000730   0.314043  -0.002326
 178  13   5.863410   6.328705  -1.179634  -0.001493   0.353299  -0.004227
 179  14   7.945613   5.355571   0.660161  -0.000942   0.215905  -0.004364
 180  14   7.601630   4.329515   0.332550  -0.000646   0.235532  -0.002741
 181  14   8.659646   5.302562   1.447060  -0.000571   0.274788  -0.002077
 182  14   8.285375   4.603610   0.779212  -0.000516   0.215905  -0.002391
 183  14   8.124183   6.148890   1.450486  -0.000746   0.314043  -0.002376
 184  14   6.851183   3.804395   0.241213  -0.000735   0.196277  -0.003743
 185  15  11.473483   6.833409   5.758723  -0.002491   0.490692  -0.005077
 186  15  11.378534   5.063505   6.788635  -0.000851   0.353299  -0.002408
 187  15  11.094636   6.563003   7.517125  -0.000654   0.353299  -0.001851
 188  15  10.413278   8.089157   6.104634  -0.000703   0.372926  -0.001886
 189  15  10.304544   7.197628   4.266777  -0.000921   0.412182  -0.002234
 190  15  11.570074   5.673333   5.482106  -0.002390   0.451437  -0.005295
 191  15  11.506050   5.920248   6.927178  -0.001310   0.392554  -0.003336
 192  15  10.971270   7.449512   6.888950  -0.001467   0.471065  -0.003114
 193  15  10.643887   7.715535   5.154526  -0.001572   0.471065  -0.003338
 194  15  10.929940   6.268526   4.357058  -0.002050   0.471065  -0.004352
 195  16   7.057732   3.903772  10.648380  -0.001899   0.412182  -0.004606
 196  16   5.546353   4.441802  10.127786  -0.000952   0.333671  -0.002854
 197  16   6.923965   5.299231  10.584538  -0.000706   0.372926  -0.001893
 198  16   8.766061   4.164977  10.088837  -0.000519   0.333671  -0.001556
 199  16   8.662794   3.129800   9.628847  -0.000898   0.333671  -0.002691
 200  16   6.099663   3.163158  10.034553  -0.002154   0.431809  -0.004989
 201  16   6.165910   4.745490  10.507232  -0.000888   0.333671  -0.002662
 202  16   8.002555   4.874972  10.544880  -0.001073   0.431809  -0.002485
 203  16   7.999318   3.383701  10.281687  -0.001381   0.333671  -0.004137
 204  16   7.106194   2.767455  10.000968  -0.001858   0.353299  -0.005258
 205  17   5.492854   9.461731   7.108003  -0.001898   0.353299  -0.005371
 206  17   5.009690   8.217773   8.449557  -0.000436   0.235532  -0.001849
 207  17   6.814743   9.501584   6.158516  -0.000403   0.255160  -0.001579
 208  17   6.442814   9.150693   7.976566  -0.000598   0.333671  -0.001793
 209  17   6.103516   9.428245   5.602753  -0.001609   0.333671  -0.004822
 210  17   6.505967   9.565920   6.952839  -0.001049   0.353299  -0.002968
 211  17   5.445980   8.899165   8.139424  -0.001345   0.372926  -0.003606
 212  18   7.428492  -1.373762   7.998159  -0.002342   0.490692  -0.004773
 213  18   6.001630  -1.687906   6.767357  -0.000663   0.372926  -0.001777
 214  18   8.966167  -0.227870   7.989036  -0.000706   0.353299  -0.002000
 215  18   8.349190  -2.029592   6.829122  -0.000849   0.412182  -0.002059
 216  18   6.114092  -1.194993   7.604398  -0.001837   0.431809  -0.004254
 217  18   6.620777  -0.362776   8.307376  -0.002274   0.431809  -0.005265
 218  18   7.937999  -0.220505   8.451074  -0.001996   0.431809  -0.004622
 219  18   8.809070  -1.258349   7.590041  -0.001431   0.510320  -0.002803
 220  18   7.157213  -2.170906   6.832556  -0.001329   0.510320  -0.002605
 221  19  11.907415   1.691281   2.993645  -0.002255   0.471065  -0.004786
 222  19  10.964802   2.213962   2.002859  -0.000832   0.392554  -0.002120
 223  19  11.547703   0.335098   2.951036  -0.000993   0.412182  -0.002410
 224  19  11.738658   0.804006   5.052409  -0.000643   0.353299  -0.001820
 225  19  11.705739   1.872807   5.280690  -0.001318   0.412182  -0.003197
 226  19  11.197618   3.003957   2.745255  -0.001975   0.471065  -0.004193
 227  19  11.218061   1.065498   2.128026  -0.000807   0.392554  -0.002055
 228  19  11.752803   0.250364   4.047044  -0.001029   0.412182  -0.002496
 229  19  12.107989   1.487040   4.140150  -0.001741   0.372926  -0.004670
 230  19  11.861509   2.614931   3.907148  -0.002303   0.412182  -0.005588
 231  20   6.664302  -1.659711   0.974253  -0.002375   0.471065  -0.005042
 232  20   7.859089  -0.658862   0.573758  -0.000786   0.392554  -0.002001
 233  20   6.185522   0.342465   0.482166  -0.001314   0.372926  -0.003523
 234  20   5.564772  -2.024975   2.642464  -0.000958   0.392554  -0.002440
 235  20   7.707214  -2.189506   1.878334  -0.000770   0.372926  -0.002066
 236  20   7.016363  -0.212496   0.328831  -0.001198   0.412182  -0.002906
 237  20   5.781850  -0.735712   0.755812  -0.002267   0.431809  -0.005249
 238  20   5.545455  -1.646756   1.622249  -0.002140   0.431809  -0.004956
 239  20   6.675463  -2.417804   2.328413  -0.001261   0.490692  -0.002570
 240  20   7.926362  -1.549401   1.102179  -0.000965   0.372926  -0.002587
 241   1   0.022494   2.273214   3.200113   0.000029   0.028705   0.000994
 242   2  -0.183821   2.718057   3.097679   0.000071   0.028705   0.002473
 243   7   0.152734   2.047831   3.041783  -0.000007   0.028705  -0.000255
 244   1  -0.389114   2.728220   3.784426   0.000107   0.027359   0.003905
 245   2  -0.665187   3.127828   3.661933   0.000067   0.027359   0.002441
 246  10  -0.878211   3.304278   3.785878   0.000023   0.027359   0.000841
 247   2  -0.501284   2.983813   3.294562   0.000243   0.088933   0.002727
 248   1  -0.189315   2.384028   3.558634   0.000215   0.088933   0.002420
 249   1   3.363251  -0.429940   4.587460   0.000166   0.071697   0.002318
 250   6   4.148907  -0.743940   4.521312   0.000277   0.071697   0.003861
 251   7   3.242425  -0.452141   4.306476   0.000030   0.071697   0.000419
 252   1   4.174832  -0.254582   6.121726   0.000230   0.061035   0.003772
 253   6   4.886135  -0.715938   6.105354   0.000129   0.061035   0.002121
 254  18   5.067996  -0.756333   6.346179   0.000004   0.061035   0.000074
 255   6   4.621709  -0.908316   5.486720   0.001148   0.404015   0.002842
 256   1   3.494997  -0.417140   5.292413   0.001049   0.404015   0.002597
 257   7   2.547846  -0.397296   4.309215   0.000007   0.068034   0.000108
 258   7   1.533906   0.000935   4.381116  -0.000053   0.150224  -0.000353
 259   7   0.584875   0.798308   3.923538  -0.000219   0.150224  -0.001458
 260   7   0.243200   1.539063   3.198022  -0.000081   0.068034  -0.001195
 261   1   2.244810  -0.171584   4.767704   0.000244   0.149957   0.001626
 262   1   0.946704   0.533192   4.618801   0.000177   0.149957   0.001182
 263   1   0.220412   1.529311   3.791633  -0.000038   0.149957  -0.000253
 264   1   0.182683   3.360372   6.719265   0.000061   0.032786   0.001875
 265   8   0.353327   3.261516   6.951401  -0.000022   0.032786  -0.000677
 266  10  -0.265019   3.897521   6.436577   0.000079   0.032786   0.002406
 267   1   3.763433   0.230366   6.759954   0.000179   0.087547   0.002045
 268   8   3.667000   0.377835   7.012026   0.000092   0.087547   0.001049
 269  18   4.736339  -0.144939   6.857295   0.000262   0.087547   0.002987
 270   8   0.517366   2.686885   7.192126  -0.000070   0.069735  -0.001011
 271   8   0.836933   1.642287   6.963219  -0.000132   0.154686  -0.000855
 272   8   1.813815   0.712102   6.926117  -0.000093   0.154686  -0.000602
 273   8   2.880872   0.436359   7.102359  -0.000012   0.069735  -0.000170
 274   1   0.438952   2.337913   6.709301  -0.000096   0.153037  -0.000629
 275   1   1.160095   1.021454   6.497504   0.000184   0.153037   0.001203
 276   1   2.517136   0.359069   6.630371   0.000193   0.153037   0.001260
 277  10  -1.071618   3.374220   4.191307  -0.000043   0.195515  -0.000220
 278  10  -0.930688   3.745572   5.545474  -0.000701   0.399707  -0.001755
 279   1  -0.360281   2.608073   4.846161   0.001087   0.536079   0.002027
 280   1  -0.121731   3.143386   6.340221   0.000760   0.275404   0.002760
 281  18   5.136115  -0.756649   6.779032   0.000083   0.138912   0.000599
 282   1   3.744446  -0.160964   6.451963   0.000652   0.198378   0.003286
 283   2  -1.252695   7.665992   3.070577   0.000062   0.028183   0.002205
 284   3  -1.156179   7.785011   2.595368   0.000108   0.028183   0.003833
 285  10  -1.422381   7.463100   3.218702   0.000012   0.028183   0.000411
 286   2  -0.609161   8.598261   2.948332   0.000089   0.025521   0.003502
 287   3  -0.584433   8.763860   2.478018   0.000039   0.025521   0.001546
 288  11  -0.494286   9.001983   2.315065  -0.000004   0.025521  -0.000169
 289   3  -0.947630   8.266323   2.413740   0.000343   0.145559   0.002359
 290   2  -0.940427   8.204169   3.147629   0.000356   0.145559   0.002445
 291   2   2.698777   5.608642   7.826325   0.000288   0.209463   0.001376
 292   5   3.652741   5.526137   8.233016   0.000409   0.209463   0.001953
 293   8   2.890428   4.930559   8.118767   0.000046   0.209463   0.000219
 294   2   2.710851   6.592084   7.683021  -0.000072   0.087758  -0.000823
 295   5   3.677100   6.503049   8.041469   0.000047   0.087758   0.000540
 296   9   2.837000   6.870499   7.675856  -0.000212   0.087758  -0.002415
 297   5   3.920368   6.179208   8.500202   0.000432   0.166919   0.002588
 298   2   2.571514   6.188107   7.888801   0.000400   0.166919   0.002398
 299   2   0.030134   3.168805   1.980243   0.000212   0.167572   0.001264
 300   7   0.416864   2.519896   2.010739   0.000058   0.167572   0.000346
 301  12   0.114799   3.303024   1.234269   0.000015   0.167572   0.000089
 302   7   0.259840   1.939288   2.695821  -0.000113   0.146112  -0.000771
 303   2  -0.240672   2.942798   2.580398   0.000442   0.205967   0.002144
 304   2  -0.084421   4.241108   6.733611   0.000056   0.031503   0.001771
 305   8   0.351560   3.702854   7.031362   0.000076   0.031503   0.002397
 306  10  -0.332002   4.318116   6.577416  -0.000023   0.031503  -0.000731
 307   8   2.175269   4.560368   8.206971  -0.000136   0.185247  -0.000735
 308   8   1.095219   3.874070   7.796245  -0.000625   0.377715  -0.001654
 309   2   1.335536   5.273829   7.676322   0.000992   0.509105   0.001948
 310   2   0.183284   4.438793   7.118156   0.000710   0.260974   0.002722
 311   2   1.647186   9.637417   4.000048   0.000044   0.037975   0.001171
 312   9   1.827462   9.638943   4.242858  -0.000029   0.037975  -0.000771
 313  11   1.603342   9.860846   3.276580   0.000053   0.037975   0.001404
 314   9   1.709184   9.617613   4.884635  -0.000096   0.069226  -0.001384
 315   9   1.141163   9.172275   5.736567  -0.000171   0.153821  -0.001114
 316   9   1.107702   8.327519   6.788746  -0.000086   0.153821  -0.000557
 317   9   1.861489   7.438722   7.469670  -0.000255   0.153821  -0.001656
 318   2   1.165113   9.370958   4.921689  -0.000037   0.151625  -0.000243
 319   2   0.666484   8.603456   6.130521   0.000246   0.151625   0.001620
 320   2   1.093963   7.574676   7.159034   0.000159   0.151625   0.001051
 321   2   1.955640   6.821329   7.615879   0.000022   0.084574   0.000259
 322   2  -1.036061   4.471931   2.064337   0.000060   0.030983   0.001949
 323  10  -1.206502   4.558683   2.298920  -0.000001   0.030983  -0.000031
 324  12  -0.862610   4.519814   1.328784   0.000055   0.030983   0.001771
 325  10  -1.424176   4.277489   2.854564  -0.000066   0.074641  -0.000885
 326  10  -1.227167   3.659782   3.525069  -0.000044   0.074641  -0.000583
[...]
 378  10  -1.677248   7.058519   3.120254  -0.000176   0.213086  -0.000825
 379  10  -1.692586   5.601164   2.640067  -0.001071   0.438271  -0.002443
 380   3  -1.403809   6.878735   1.916859   0.000971   0.581698   0.001670
 381   3  -1.279648   5.197295   1.468412   0.000853   0.300191   0.002843
 382  11   2.281679  10.357497   2.400805  -0.000119   0.068082  -0.001746
 383  11   2.914224  10.451368   1.505854  -0.000266   0.150794  -0.001761
 384  11   3.074472  10.295937   0.194122  -0.000159   0.150794  -0.001054
 385  11   2.457990   9.878246  -0.908585  -0.000241   0.150794  -0.001596
 386  11   1.314014   9.367162  -1.356457  -0.000262   0.150794  -0.001738
 387  11   0.105038   8.969310  -0.968426  -0.000097   0.150794  -0.000640
 388  11  -0.680165   8.845535   0.098633  -0.000137   0.150794  -0.000905
 389  11  -0.724148   9.045880   1.413321  -0.000247   0.150794  -0.001636
 390   3   2.841061  10.191047   2.290615  -0.000120   0.149580  -0.000802
 391   3   3.452759  10.199482   0.926628   0.000023   0.149580   0.000151
 392   3   3.182450   9.859919  -0.503874   0.000100   0.149580   0.000667
 393   3   2.139418   9.309640  -1.422558  -0.000042   0.149580  -0.000281
 394   3   0.745345   8.771116  -1.458013   0.000073   0.149580   0.000490
 395   3  -0.436163   8.462063  -0.595904   0.000200   0.149580   0.001339
 396   3  -0.927437   8.507429   0.815229   0.000024   0.149580   0.000162
 397   3  -0.744607   8.770698   1.986193   0.000034   0.083178   0.000412
 398  12  -0.996061   4.729535   0.459611  -0.000080   0.067286  -0.001189
 399  12  -1.075722   5.519792  -0.280149  -0.000201   0.148533  -0.001351
 400  12  -0.582382   6.164101  -1.313506  -0.000063   0.148533  -0.000426
 401  12   0.435835   6.208097  -2.142749  -0.000196   0.148533  -0.001317
 402  12   1.579313   5.634514  -2.442428  -0.000213   0.148533  -0.001432
 403  12   2.399273   4.668463  -2.094928  -0.000132   0.148533  -0.000886
 404  12   2.573909   3.689087  -1.236632  -0.000100   0.148533  -0.000677
 405   3  -1.118201   5.305205   0.513107  -0.000039   0.148322  -0.000262
 406   3  -0.959551   6.273051  -0.590332   0.000127   0.148322   0.000854
 407   3  -0.065357   6.680232  -1.692191   0.000139   0.148322   0.000939
 408   3   1.213438   6.366944  -2.360028   0.000082   0.148322   0.000551
 409   3   2.374950   5.456141  -2.331739   0.000081   0.148322   0.000549
 410   3   2.963325   4.305284  -1.618425   0.000184   0.148322   0.001238
 411   3   2.918822   3.481853  -0.749355   0.000151   0.082205   0.001831
 412   3   5.046856   4.553422  -0.515386  -0.000117   0.065951  -0.001771
 413  13   5.307696   4.706858  -0.492506  -0.000242   0.065951  -0.003665
 414  14   5.799190   4.286870  -0.015507  -0.000289   0.065951  -0.004379
 415  13   5.061427   5.013138  -0.971801  -0.000101   0.066479  -0.001515
 416  13   4.896700   5.913705  -1.540108  -0.000218   0.146652  -0.001484
 417  13   4.866684   7.216087  -1.612581  -0.000272   0.146652  -0.001858
 418  13   5.048542   8.311884  -0.928104  -0.000215   0.146652  -0.001466
 419  13   5.371710   8.775909   0.247735  -0.000205   0.146652  -0.001396
 420  13   5.657769   8.606437   1.272712  -0.000085   0.066479  -0.001276
 421   3   4.617593   5.177409  -1.319871   0.000111   0.146616   0.000759
 422   3   4.463720   6.540788  -1.836474  -0.000037   0.146616  -0.000253
 423   3   4.553493   7.958664  -1.474638  -0.000001   0.146616  -0.000006
 424   3   4.852080   8.880878  -0.374763   0.000066   0.146616   0.000447
 425   3   5.243622   8.949595   1.036382   0.000073   0.146616   0.000495
 426  14   5.953045   3.726223   0.209460  -0.000149   0.140842  -0.001055
 427   3   4.869200   4.186844  -0.536609   0.000457   0.199007   0.002295
 428  17   5.871150   9.056928   4.704642  -0.000122   0.295215  -0.000413
 429   3   4.721392   9.325193   3.163986   0.000857   0.438616   0.001953
 430  20   5.593374   1.082973   0.678653   0.000276   0.212792   0.001295
 431   3   4.175604   3.119817  -0.173128   0.000951   0.341749   0.002784
 432   4   6.284327   2.675748   0.711557   0.000004   0.031602   0.000137
 433   6   6.537917   2.247489   0.739751   0.000072   0.031602   0.002285
 434  14   6.374074   2.949448   0.621441  -0.000029   0.031602  -0.000932
 435   4   6.148207   2.088008   0.819279   0.000021   0.025819   0.000804
 436   6   6.387140   1.654003   0.765700  -0.000001   0.025819  -0.000050
 437  20   6.333714   1.356963   0.734978  -0.000037   0.025819  -0.001437
 438   6   6.475662   1.845205   0.711659   0.000084   0.038192   0.002201
 439   4   6.160374   2.487839   0.718809   0.000053   0.038192   0.001399
 440   4   9.156729   5.537295   2.805824   0.000028   0.037098   0.000760
 441  14   8.982650   5.587250   2.564859  -0.000043   0.037098  -0.001152
 442  15   9.528816   5.876560   3.374440   0.000041   0.037098   0.001109
 443   4   9.297060   4.272033   2.204002   0.000029   0.037037   0.000794
 444  14   9.115300   4.393683   1.996541  -0.000054   0.037037  -0.001455
 445  19   9.763509   3.698599   2.335482   0.000021   0.037037   0.000572
 446  14   6.226339   3.268334   0.485875  -0.000051   0.016126  -0.003157
 447   4   6.058286   2.901758   0.648142  -0.000016   0.019701  -0.000833
 448  14   8.882241   5.219494   1.985953  -0.000149   0.081004  -0.001843
 449   4   9.107763   4.917678   2.259383  -0.000053   0.098964  -0.000539
 450   4   9.754491   4.657683   3.147526   0.000129   0.169110   0.000765
 451  15  10.120292   5.056119   3.688719  -0.000004   0.169110  -0.000021
 452  19  10.222962   4.067796   3.216553  -0.000125   0.169110  -0.000740
 453  15  10.112488   5.791170   3.731171  -0.000204   0.125397  -0.001624
 454   4   9.463701   5.323238   2.922309   0.000380   0.176697   0.002151
 455  19  10.297880   3.527400   2.575575  -0.000211   0.123037  -0.001718
 456   4   9.608647   4.416668   2.563134   0.000318   0.173473   0.001833
 457  20   6.169221   1.150580   0.685397  -0.000074   0.049839  -0.001491
 458   4   5.908993   2.249271   0.737077   0.000149   0.070264   0.002118
 459   5   9.210091   2.750383   8.321500   0.000190   0.066606   0.002855
 460   6   9.230216   2.038013   7.889747   0.000286   0.066606   0.004296
 461  16   9.010582   2.746235   8.552519  -0.000001   0.066606  -0.000018
 462   5  10.517915   3.115196   6.672885   0.000277   0.066643   0.004156
 463   6  10.662581   2.365284   6.339725   0.000167   0.066643   0.002511
 464  19  10.844061   2.375364   6.094537  -0.000017   0.066643  -0.000259
 465   6  10.199103   2.072741   7.016566   0.001549   0.515666   0.003005
 466   5   9.860285   2.986426   7.792403   0.001620   0.515666   0.003142
 467   5   4.580256   4.744587   9.101571   0.000198   0.082935   0.002389
 468   8   3.851849   4.175440   8.816321   0.000187   0.082935   0.002260
 469  16   4.763996   4.566439   9.269796  -0.000041   0.082935  -0.000493
 470   8   3.122290   4.267614   8.664306  -0.000091   0.228257  -0.000398
 471   5   4.134777   5.265195   8.879786   0.000985   0.323083   0.003049
 472   5   4.294910   7.134650   8.274235  -0.000128   0.067954  -0.001876
 473   9   3.497396   7.431385   7.773116  -0.000264   0.067954  -0.003886
 474  17   4.246985   7.406508   8.147875  -0.000240   0.067954  -0.003529
 475   9   2.905343   7.218278   7.763407  -0.000099   0.139356  -0.000710
 476   5   4.120789   6.833346   8.474462   0.000479   0.197685   0.002423
 477   5   7.520411   7.216099   2.809093   0.000120   0.160693   0.000748
 478  13   6.769612   7.322580   1.741906  -0.000677   0.160693  -0.004212
 479  14   7.355174   6.937312   2.138980  -0.000567   0.160693  -0.003528
 480  13   6.275215   8.088298   1.669706  -0.000262   0.327759  -0.000799
 481   5   7.487004   7.896617   3.173318   0.000995   0.486796   0.002044
 482   5   9.274435   6.281323   3.338079   0.000045   0.026852   0.001669
 483  14   8.906342   5.983995   2.768439   0.000053   0.026852   0.001966
 484  15   9.514254   6.305028   3.519883  -0.000049   0.026852  -0.001808
 485  14   8.100415   6.467207   2.256317  -0.000658   0.296703  -0.002218
 486   5   8.726779   6.756396   3.160659   0.000872   0.417673   0.002088
 487   5  10.718638   3.785884   6.637324   0.000137   0.086739   0.001576
 488  15  10.865927   4.018693   6.505597  -0.000061   0.086739  -0.000706
 489  19  10.893083   3.049897   5.993482   0.000216   0.086739   0.002489
 490  15   9.822627   6.744431   3.831860  -0.000105   0.066349  -0.001581
 491  15   9.693744   7.632615   4.420645  -0.000227   0.146186  -0.001550
 492  15   9.741606   8.243937   5.566910  -0.000108   0.146186  -0.000742
 493  15  10.015157   8.090379   6.828463  -0.000209   0.146186  -0.001433
 494  15  10.409299   7.230938   7.720618  -0.000212   0.146186  -0.001450
 495  15  10.772602   5.995810   7.900610  -0.000114   0.146186  -0.000780
 496  15  10.965487   4.859530   7.299285  -0.000084   0.146186  -0.000577
 497   5   9.376190   7.124075   3.867192  -0.000093   0.146517  -0.000633
 498   5   9.288522   8.159787   4.893561   0.000040   0.146517   0.000275
 499   5   9.478458   8.430298   6.316434   0.000136   0.146517   0.000925
 500   5   9.873023   7.831677   7.589144   0.000009   0.146517   0.000064
 501   5  10.320627   6.593915   8.222717   0.000035   0.146517   0.000238
 502   5  10.649300   5.192558   7.973735   0.000250   0.146517   0.001707
 503   5  10.760700   4.269443   7.239427   0.000085   0.081060   0.001049
 504  16   9.095651   3.226946   9.051848  -0.000020   0.068898  -0.000295
 505  16   9.164030   4.213819   9.550804  -0.000099   0.152715  -0.000647
 506  16   8.552931   5.292600  10.058914  -0.000170   0.152715  -0.001111
 507  16   7.345307   5.835151  10.265476  -0.000227   0.152715  -0.001489
 508  16   6.035078   5.619567  10.086006  -0.000081   0.152715  -0.000531
 509  16   5.218848   4.968682   9.714969  -0.000015   0.068898  -0.000222
 510   5   9.425109   3.711697   8.936424   0.000127   0.151286   0.000839
 511   5   9.202361   5.047112   9.594448   0.000070   0.151286   0.000465
 512   5   8.124147   6.008305  10.018135   0.000047   0.151286   0.000311
 513   5   6.631460   6.202144  10.034196   0.000135   0.151286   0.000889
 514   5   5.334812   5.549350   9.636063   0.000125   0.151286   0.000828
 515  17   4.738480   7.536492   8.520925  -0.000097   0.066278  -0.001466
 516  17   5.640299   8.085760   8.718315  -0.000206   0.146106  -0.001409
 517  17   6.669030   8.758189   8.291863  -0.000250   0.146106  -0.001708
 518  17   7.262766   9.204137   7.223726  -0.000181   0.146106  -0.001238
 519  17   7.192660   9.251722   5.925600  -0.000208   0.146106  -0.001421
 520  17   6.690485   9.002623   5.009245  -0.000071   0.066278  -0.001074
 521   5   5.203988   7.409942   8.854844   0.000137   0.146274   0.000936
 522   5   6.442764   8.185472   8.827154   0.000007   0.146274   0.000048
 523   5   7.401695   8.846469   7.943802   0.000028   0.146274   0.000189
 524   5   7.711178   9.138164   6.545263   0.000093   0.146274   0.000639
 525   5   7.251926   8.948127   5.170580   0.000090   0.146274   0.000613
 526  19  11.110771   2.452139   5.923592   0.000068   0.070746   0.000960
 527   5  10.734590   3.508334   6.869705   0.000391   0.100440   0.003897
 528   6   4.662114  -1.116226   3.579162   0.000186   0.086293   0.002151
 529   7   3.808051  -0.671573   3.422062   0.000198   0.086293   0.002297
 530  20   4.730683  -1.170023   3.285395  -0.000072   0.086293  -0.000835
 531   7   3.182885  -0.618510   3.756071   0.000062   0.195305   0.000317
 532   6   4.450957  -1.165865   4.186091   0.000936   0.276689   0.003383
 533   6   9.634725   3.540460   2.081600   0.000046   0.025975   0.001753
 534  14   9.176779   4.084119   1.920025   0.000039   0.025975   0.001498
 535  19   9.885426   3.425908   2.207499  -0.000047   0.025975  -0.001821
 536  14   8.800217   4.321165   1.434780  -0.000225   0.173195  -0.001301
 537  14   7.901574   3.681549   0.738033  -0.000871   0.353104  -0.002467
 538  14   6.719260   3.185805   0.496173  -0.000202   0.173195  -0.001169
 539   6   9.026182   3.161262   1.350253   0.000808   0.476788   0.001694
 540   6   7.538114   2.349379   0.679067   0.000789   0.476788   0.001654
 541   6   9.030892   1.402930   7.883778   0.000130   0.087299   0.001492
 542  16   8.720643   2.175815   8.425976   0.000243   0.087299   0.002785
 543  18   8.853322   1.179556   7.995306  -0.000073   0.087299  -0.000831
 544  16   8.889601   2.645683   8.814224   0.000078   0.059057   0.001315
 545   6   9.324916   1.566848   7.919809   0.000355   0.083850   0.004238
 546  18   5.513752  -1.290015   6.399944  -0.000057   0.066710  -0.000860
 547  18   6.297376  -1.955996   6.084440  -0.000121   0.146958  -0.000822
 548  18   7.560790  -2.268075   6.025260  -0.000158   0.146958  -0.001074
 549  18   8.756673  -1.883618   6.370465  -0.000223   0.146958  -0.001516
 550  18   9.424709  -0.950610   6.987177  -0.000082   0.146958  -0.000558
 551  18   9.307758   0.171818   7.638014  -0.000199   0.146958  -0.001357
 552   6   5.628715  -1.533371   5.876362   0.000090   0.147351   0.000611
 553   6   6.874557  -2.242899   5.580887   0.000179   0.147351   0.001217
 554   6   8.327986  -2.200124   5.749926  -0.000003   0.147351  -0.000022
 555   6   9.429550  -1.421510   6.318412   0.000018   0.147351   0.000124
 556   6   9.755238  -0.206761   7.067526   0.000210   0.147351   0.001426
 557   6   9.425753   0.789622   7.622950   0.000092   0.081501   0.001124
 558  19  11.151043   1.768221   5.902030  -0.000035   0.071203  -0.000489
 559  19  11.277290   0.695911   5.527632  -0.000167   0.158954  -0.001049
 560  19  11.255974  -0.186636   4.467125  -0.000225   0.158954  -0.001416
 561  19  11.037292  -0.231845   3.105453  -0.000252   0.158954  -0.001584
 562  19  10.716662   0.580011   2.036760  -0.000170   0.158954  -0.001072
 563  19  10.433987   1.894689   1.727355  -0.000275   0.158954  -0.001731
 564  19  10.304599   2.971464   2.087601  -0.000130   0.071203  -0.001823
 565   6  10.930302   1.235772   6.090966   0.000052   0.155288   0.000337
 566   6  11.027897  -0.083459   5.283539   0.000101   0.155288   0.000652
 567   6  10.885108  -0.635436   3.842440  -0.000022   0.155288  -0.000139
 568   6  10.564239  -0.179312   2.396470   0.000141   0.155288   0.000908
 569   6  10.205296   1.085890   1.576557   0.000125   0.155288   0.000804
 570   6   9.964899   2.608118   1.740457  -0.000130   0.155288  -0.000835
 571  20   6.665187   0.960594   0.550526  -0.000075   0.071752  -0.001039
 572  20   7.679894   0.416614   0.527110  -0.000276   0.160491  -0.001718
 573  20   8.468848  -0.626181   0.998144  -0.000174   0.160491  -0.001085
 574  20   8.424723  -1.706964   1.870899  -0.000267   0.160491  -0.001662
 575  20   7.567090  -2.346345   2.758255  -0.000288   0.160491  -0.001793
 576  20   6.276363  -2.260719   3.266617  -0.000129   0.160491  -0.000805
 577  20   5.267037  -1.706474   3.279529  -0.000062   0.071752  -0.000869
 578   6   7.241448   1.151508   0.596039  -0.000152   0.156192  -0.000976
 579   6   8.468845   0.207569   0.793405   0.000132   0.156192   0.000842
 580   6   8.912408  -1.057073   1.593663   0.000138   0.156192   0.000884
 581   6   8.375390  -2.081471   2.641851  -0.000049   0.156192  -0.000314
 582   6   7.095991  -2.411245   3.473034   0.000081   0.156192   0.000519
 583   6   5.641700  -1.900120   3.718533   0.000187   0.156192   0.001196
 584  12   2.157774   2.827029  -0.405697   0.000443   0.277636   0.001594
 585  12   1.033578   2.746256  -0.048676  -0.000108   0.555020  -0.000195
 586  12   0.109661   3.054020   0.621744   0.000204   0.277636   0.000735
 587   7   2.154653   1.654431   0.817969  -0.000009   0.555020  -0.000017
 588   7   0.877175   1.796014   1.458820  -0.000049   0.555020  -0.000088
 589  20   4.635285  -1.312736   2.871423   0.000330   0.237326   0.001391
 590  20   4.674774  -0.895855   1.869692  -0.000355   0.474533  -0.000748
 591  20   4.998369   0.102233   1.057186  -0.000402   0.474533  -0.000846
 592   7   3.268309  -0.570945   2.677735  -0.000190   0.474533  -0.000401
 593   7   3.428365   0.151490   1.576131  -0.000285   0.474533  -0.000601
 594   7   3.763188   1.066172   1.096479   0.000190   0.237326   0.000799
 595  10  -0.606776   4.169288   6.534981   0.000275   0.096813   0.002840
 596   8   0.342077   3.320686   7.262732   0.000276   0.096813   0.002855
 597   8   4.856797   1.782953   8.242815   0.000154   0.349240   0.000441
 598  16   5.817387   2.147807   8.650595  -0.000118   0.349240  -0.000339
 599  18   5.900801   1.172527   8.131792   0.000086   0.349240   0.000246
 600  16   4.831031   4.200454   9.579684   0.000434   0.285432   0.001521
 601  16   5.330500   3.057822   9.456012  -0.000282   0.570881  -0.000495
 602   8   3.652166   3.218139   9.018896  -0.000402   0.570881  -0.000703
 603   8   4.183704   2.107892   8.783970  -0.000026   0.285432  -0.000092
 604  18   5.665689   0.272165   8.070342   0.000112   0.354323   0.000316
 605  18   5.183160  -0.427898   7.380647   0.000327   0.354323   0.000923
 606   8   3.953787   0.815961   7.847128   0.000326   0.708609   0.000460
 607  11   1.774405  10.214090   2.974477   0.000292   0.185096   0.001578
 608   9   2.212463   9.845926   4.313321   0.000310   0.185096   0.001672
 609  17   5.273632   9.372098   5.537962  -0.000913   0.231438  -0.003944
 610  17   4.808657   9.273967   6.733783  -0.002667   0.463790  -0.005751
 611  17   4.328138   8.293229   7.847971  -0.002041   0.463790  -0.004400
 612   9   3.980300   9.430822   5.571371  -0.002189   0.463790  -0.004719
 613   9   3.424994   8.956722   6.950147  -0.002458   0.463790  -0.005299
 614   9   3.095718   7.939313   7.665882  -0.000604   0.231438  -0.002609
 615  12  -1.007343   4.456325   0.933125   0.000103   0.021864   0.004693
 616  10  -1.447812   4.553675   2.333957   0.000117   0.021864   0.005329
 617  14   6.432094   4.279865   0.000104  -0.000565   0.216258  -0.002614
 618  14   7.158103   5.281015   0.215948  -0.002294   0.433379  -0.005293
 619  14   7.463295   6.456840   1.138233  -0.002041   0.433379  -0.004710
 620  13   6.000696   5.312924  -0.542233  -0.002020   0.433379  -0.004662
 621  13   6.686316   6.563718  -0.002087  -0.002714   0.433379  -0.006262
 622  13   6.722349   7.428899   0.906836  -0.000969   0.216258  -0.004479
 623  15   9.809211   6.215667   3.474857   0.000218   0.098001   0.002222
 624  14   8.954476   5.833504   2.359800   0.000241   0.098001   0.002462
 625  19  10.116896   3.492545   2.196368   0.000145   0.041011   0.003542
 626  14   9.151879   4.473701   1.768259   0.000148   0.041011   0.003610
 627  19  10.819245   3.854052   3.254569   0.000070   0.241304   0.000290
 628  19  11.399970   3.516078   4.089262  -0.000420   0.482399  -0.000871
 629  19  11.460491   2.958110   5.273092  -0.000119   0.482399  -0.000246
 630  15  10.917517   5.143109   4.232179  -0.000197   0.482399  -0.000407
 631  15  11.392127   4.657930   5.352800  -0.000135   0.482399  -0.000280
 632  15  11.225550   4.188593   6.301566   0.000367   0.241304   0.001520
 633  18   8.664193   0.956089   8.340791   0.000388   0.246569   0.001573
 634  18   7.632669   0.730460   8.631700  -0.000094   0.492948  -0.000191
 635  18   6.543413   0.703393   8.520495  -0.000042   0.246569  -0.000171
 636  16   8.173635   2.251998   9.178784  -0.000030   0.492948  -0.000060
 637  16   6.850122   2.094298   9.290932  -0.000354   0.492948  -0.000718
 =====================================================

              3632661  WORDS OF DYNAMIC MEMORY USED
 EXECUTION OF GAMESS TERMINATED NORMALLY Wed Nov 23 08:58:52 2016
 DDI: 263640 bytes (0.3 MB / 0 MWords) used by master data server.

 ----------------------------------------
 CPU timing information for all processes
 ========================================
 0: 1283.248 + 0.472 = 1283.720
 ----------------------------------------
 ddikick.x: exited gracefully.
