----- GAMESS execution script -----

          ******************************************************
          *         GAMESS VERSION =  5 DEC 2014 (R1)          *
          *             FROM IOWA STATE UNIVERSITY             *
          * M.W.SCHMIDT, K.K.BALDRIDGE, J.A.BOATZ, S.T.ELBERT, *
          *   M.S.GORDON, J.H.JENSEN, S.KOSEKI, N.MATSUNAGA,   *
          *          K.A.NGUYEN, S.J.SU, T.L.WINDUS,           *
          *       TOGETHER WITH M.DUPUIS, J.A.MONTGOMERY       *
          *         J.COMPUT.CHEM.  14, 1347-1363(1993)        *
          **************** 64 BIT LINUX VERSION ****************

 EXECUTION OF GAMESS BEGUN Wed Nov 23 06:55:22 2016

            ECHO OF THE FIRST FEW INPUT CARDS -
 INPUT CARD>! SELECT RESTRICTED HARTREE-FOCK AS DEFAULT                                     
 INPUT CARD>$contrl scftyp=rhf $end                                                         
 INPUT CARD>                                                                                
 INPUT CARD>! THEORY: HF OR DFT                                                             
 INPUT CARD> $contrl mplevl=0 $end                                                          
 INPUT CARD>                                                                                
 INPUT CARD> $system timlim=10000 mwords=20 $end                                            
 INPUT CARD> $SCF DIRSCF=.TRUE. $end                                                        
 INPUT CARD>                                                                                
 INPUT CARD>                                                                                
 INPUT CARD>! BASIS SETS                                                                    
 INPUT CARD>! 6-311G(d,p)                                                                   
 INPUT CARD> $BASIS GBASIS=N311 NGAUSS=6 NDFUNC=1 NPFUNC=1 $END                             
 INPUT CARD>                                                                                
 INPUT CARD>! One of the following                                                          
 INPUT CARD> $guess guess=HUCKEL $end                                                       
 INPUT CARD>                                                                                
 INPUT CARD> $statpt projct=.FALSE. $end                                                    
 INPUT CARD> $STATPT IFREEZ(1)=1,2,3 $END                                                   
 INPUT CARD>                                                                                
 INPUT CARD>! Optimize the geometry with COSMO effects                                      
 INPUT CARD> $statpt opttol=0.0005 nstep=50 $end                                            
 INPUT CARD> $contrl nzvar=1 $end                                                           
 INPUT CARD> $zmat dlc=.t. auto=.t. $end                                                    
 INPUT CARD> $contrl runtyp=OPTIMIZE maxit=200 $end                                         
 INPUT CARD>                                                                                
 INPUT CARD>! Run COSMO on perfect conductor                                                
 INPUT CARD> $COSGMS PRFCND=.TRUE. $end                                                     
 INPUT CARD>                                                                                
 INPUT CARD>! Specifying RSOLV                                                              
 INPUT CARD> $COSGMS COSRAD = 1.4 $end                                                      
 INPUT CARD>                                                                                
 INPUT CARD>! available memory                                                              
 INPUT CARD> $SYSTEM MWORDS=40 $END                                                         
 INPUT CARD>                                                                                
 INPUT CARD> $DATA                                                                          
 INPUT CARD>1-Butanol, 2-methyl-, ID: C137326                                               
 INPUT CARD>C1                                                                              
 INPUT CARD>C      6.0      2.1006000000    2.8005000000    1.0722000000                    
 INPUT CARD>C      6.0      0.7312000000    2.1782000000    1.2364000000                    
 INPUT CARD>C      6.0      3.1612000000    2.0356000000    1.8664000000                    
 INPUT CARD>C      6.0      3.3292000000    0.6303000000    1.3096000000                    
 INPUT CARD>C      6.0      4.5115000000    2.7663000000    1.8272000000                    
 INPUT CARD>O      8.0      4.4417000000    3.8725000000    2.6980000000                    
 INPUT CARD>H      1.0      2.3814000000    2.8229000000    0.0000000000                    
 INPUT CARD>H      1.0      2.0788000000    3.8581000000    1.4000000000                    
 INPUT CARD>H      1.0      0.3488000000    2.3005000000    2.2581000000                    
 INPUT CARD>H      1.0      0.0000000000    2.6267000000    0.5535000000                    
 INPUT CARD>H      1.0      0.7702000000    1.0952000000    1.0293000000                    
 INPUT CARD>H      1.0      2.8172000000    1.9608000000    2.9280000000                    
   40000000 WORDS OF MEMORY AVAILABLE

     BASIS OPTIONS
     -------------
     GBASIS=N311         IGAUSS=       6      POLAR=POPN311 
     NDFUNC=       1     NFFUNC=       0     DIFFSP=       F
     NPFUNC=       1      DIFFS=       F     BASNAM=        


     RUN TITLE
     ---------
 1-Butanol, 2-methyl-, ID: C137326                                               

 THE POINT GROUP OF THE MOLECULE IS C1      
 THE ORDER OF THE PRINCIPAL AXIS IS     0

 ATOM      ATOMIC                      COORDINATES (BOHR)
           CHARGE         X                   Y                   Z
 C           6.0     3.9695584098        5.2921776286        2.0261642040
 C           6.0     1.3817676422        4.1162011465        2.3364572112
 C           6.0     5.9738017924        3.8467262206        3.5269845835
 C           6.0     6.2912757583        1.1910942901        2.4747851535
 C           6.0     8.5254987936        5.2275489998        3.4529073248
 O           8.0     8.3935959197        7.3179638875        5.0984807149
 H           1.0     4.5001934672        5.3345074907        0.0000000000
 H           1.0     3.9283623833        7.2907518332        2.6456163828
 H           1.0     0.6591364245        4.3473146348        4.2671902529
 H           1.0     0.0000000000        4.9637432519        1.0459633342
 H           1.0     1.4554669557        2.0696279018        1.9450949592
 H           1.0     5.3237360526        3.7053747167        5.5331176920
 H           1.0     7.1985332050        1.2050782624        0.6088697132
 H           1.0     7.4404181315        0.0000000000        3.7225712232
 H           1.0     4.4281949070        0.2828919804        2.2529313226
 H           1.0    10.0635467750        3.9463147802        4.0700918324
 H           1.0     8.9784661129        5.8504026854        1.5053557218
 H           1.0     9.9339115723        8.2095366085        4.9072404449

          INTERNUCLEAR DISTANCES (ANGS.)




     $CONTRL OPTIONS
     ---------------
 SCFTYP=RHF          RUNTYP=OPTIMIZE     EXETYP=RUN     
 MPLEVL=       0     CITYP =NONE         CCTYP =NONE         VBTYP =NONE    
 DFTTYP=NONE         TDDFT =NONE    
 MULT  =       1     ICHARG=       0     NZVAR =       1     COORD =UNIQUE  
 PP    =NONE         RELWFN=NONE         LOCAL =NONE         NUMGRD=       F
 ISPHER=      -1     NOSYM =       0     MAXIT =     200     UNITS =ANGS    
 PLTORB=       F     MOLPLT=       F     AIMPAC=       F     FRIEND=        
 NPRINT=       7     IREST =       0     GEOM  =INPUT   
 NORMF =       0     NORMP =       0     ITOL  =      20     ICUT  =       9
 INTTYP=BEST         GRDTYP=BEST         QMTTOL= 1.0E-06

     $SYSTEM OPTIONS
     ---------------
  REPLICATED MEMORY=    40000000 WORDS (ON EVERY NODE).
 DISTRIBUTED MEMDDI=           0 MILLION WORDS IN AGGREGATE,
 MEMDDI DISTRIBUTED OVER   1 PROCESSORS IS           0 WORDS/PROCESSOR.
 TOTAL MEMORY REQUESTED ON EACH PROCESSOR=    40000000 WORDS.
 TIMLIM=       10000.00 MINUTES, OR       6.9 DAYS.
 PARALL= F  BALTYP=  DLB     KDIAG=    0  COREFL= F
 MXSEQ2=     300 MXSEQ3=     150  mem10=         0

     $COSGMS OPTIONS
     ---------------
     EPSI  =   INFTY     NSPA  =      92     COSRAD=    1.40
     DISEX =   10.00     OUTCHG=DBLCAV       COSBUG=       F
     COSWRT=       F     DCOSMO=       F

     SYMMETRY COORDINATES WILL NOT BE USED FOR 
     THE COSMO CALCULATION, EVEN IF SPECIFIED:
         -- SWITCHING TO C1 POINT GROUP --


     DEFINITION OF CAVITY
     ---------------------------
     ATOM         COORDINATES           RADIUS 
     1    3.9696    5.2922    2.0262    2.0000
     2    1.3818    4.1162    2.3365    2.0000
     3    5.9738    3.8467    3.5270    2.0000
     4    6.2913    1.1911    2.4748    2.0000
     5    8.5255    5.2275    3.4529    2.0000
     6    8.3936    7.3180    5.0985    1.7200
     7    4.5002    5.3345    0.0000    1.3000
     8    3.9284    7.2908    2.6456    1.3000
     9    0.6591    4.3473    4.2672    1.3000
    10    0.0000    4.9637    1.0460    1.3000
    11    1.4555    2.0696    1.9451    1.3000
    12    5.3237    3.7054    5.5331    1.3000
    13    7.1985    1.2051    0.6089    1.3000
    14    7.4404    0.0000    3.7226    1.3000
    15    4.4282    0.2829    2.2529    1.3000
    16   10.0635    3.9463    4.0701    1.3000
    17    8.9785    5.8504    1.5054    1.3000
    18    9.9339    8.2095    4.9072    1.3000

          ----------------
          PROPERTIES INPUT
          ----------------

     MOMENTS            FIELD           POTENTIAL          DENSITY
 IEMOM =       1   IEFLD =       0   IEPOT =       0   IEDEN =       0
 WHERE =COMASS     WHERE =NUCLEI     WHERE =NUCLEI     WHERE =NUCLEI  
 OUTPUT=BOTH       OUTPUT=BOTH       OUTPUT=BOTH       OUTPUT=BOTH    
 IEMINT=       0   IEFINT=       0                     IEDINT=       0
                                                       MORB  =       0
          EXTRAPOLATION IN EFFECT
          SOSCF IN EFFECT
 ORBITAL PRINTING OPTION: NPREO=     1   186     2     1

     -------------------------------
     INTEGRAL TRANSFORMATION OPTIONS
     -------------------------------
     NWORD  =            0
     CUTOFF = 1.0E-09     MPTRAN =       0
     DIRTRF =       T     AOINTS =DUP     

          ----------------------
          INTEGRAL INPUT OPTIONS
          ----------------------
 NOPK  =       1 NORDER=       0 SCHWRZ=       T


 -----------------------------------------------
  STATISTICS ON AUTOMATIC COORDINATE GENERATION 
 -----------------------------------------------
  NUMBER OF USER SPECIFIED BONDS                             0
  NUMBER OF BONDS                                           17
  NUMBER OF ANGLES                                          31
  NUMBER OF TORSIONS                                        39
  NUMBER OF EXTRA COORD.                                     0
  NUMBER OF EXTRA COORD. FOR CONSTRAINTS                     0
  NUMBER OF CONSTRAINED COORD.                               0

  TOTAL NUMBER OF PRIMITIVES                                87
 -----------------------------------------------

   --- ENCODED Z MATRIX ---
 COORD  TYPE   I   J   K   L   M   N
    1      1    1   7
    2      1    1   2
    3      1    1   3
    4      1    1   8
    5      1    2  11
    6      1    2  10
    7      1    2   9
    8      1    3   4
    9      1    3  12
   10      1    3   5
   11      1    4  15
   12      1    4  14
   13      1    4  13
   14      1    5  16
   15      1    5   6
   16      1    5  17
   17      1    6  18
   18      2    1   3   5
   19      2    1   3  12
   20      2    1   2   9
   21      2    1   2  11
   22      2    1   3   4
   23      2    1   2  10
   24      2    2   1   7
   25      2    2   1   8
   26      2    2   1   3
   27      2    3   5  17
   28      2    3   5   6
   29      2    3   5  16
   30      2    3   4  13
   31      2    3   1   7
   32      2    3   4  15
   33      2    3   1   8
   34      2    3   4  14
   35      2    4   3   5
   36      2    4   3  12
   37      2    5   6  18
   38      2    5   3  12
   39      2    6   5  16
   40      2    6   5  17
   41      2    7   1   8
   42      2    9   2  10
   43      2    9   2  11
   44      2   10   2  11
   45      2   13   4  14
   46      2   13   4  15
   47      2   14   4  15
   48      2   16   5  17
   49      3    1   3   5  17
   50      3    1   3   5   6
   51      3    1   3   4  13
   52      3    1   3   4  14
   53      3    1   3   4  15
   54      3    1   3   5  16
   55      3    2   1   3   5
   56      3    2   1   3   4
   57      3    2   1   3  12
   58      3    3   1   2  11
   59      3    3   1   2  10
   60      3    3   1   2   9
   61      3    3   5   6  18
   62      3    4   3   5  16
   63      3    4   3   5   6
   64      3    4   3   5  17
   65      3    4   3   1   8
   66      3    4   3   1   7
   67      3    5   3   4  14
   68      3    5   3   4  15
   69      3    5   3   1   8
   70      3    5   3   4  13
   71      3    5   3   1   7
   72      3    6   5   3  12
   73      3    7   1   3  12
   74      3    7   1   2  11
   75      3    7   1   2  10
   76      3    7   1   2   9
   77      3    8   1   2  11
   78      3    8   1   2  10
   79      3    8   1   2   9
   80      3    8   1   3  12
   81      3   12   3   4  14
   82      3   12   3   4  15
   83      3   12   3   4  13
   84      3   12   3   5  16
   85      3   12   3   5  17
   86      3   16   5   6  18
   87      3   17   5   6  18

          INDEP./SYM. INTERNAL COORDINATES
          --------------------------------
 CRD  1=   0.1101 (  3) -0.3474 ( 18)  0.3387 ( 22) -0.1116 ( 23) -0.1425 ( 24)
          -0.1799 ( 25)  0.5697 ( 26) -0.1050 ( 28) -0.1618 ( 31) -0.2155 ( 33)
          -0.1084 ( 36)  0.1095 ( 38)  0.1001 ( 41) -0.1385 ( 50) -0.1097 ( 51)
          -0.1463 ( 52) -0.1485 ( 53) -0.1017 ( 54)  0.1045 ( 64)  0.1115 ( 70)
 CRD  2=   0.1786 (  2)  0.2240 (  3)  0.1114 ( 10)  0.2874 ( 18) -0.1280 ( 19)
          -0.1089 ( 24)  0.2046 ( 26)  0.4464 ( 28) -0.1703 ( 29) -0.4123 ( 35)
          -0.1518 ( 37) -0.1418 ( 39) -0.1244 ( 40) -0.1932 ( 55)  0.1018 ( 65)
           0.1004 ( 66) -0.1114 ( 67) -0.1642 ( 69) -0.1656 ( 71)
 CRD  3=  -0.2829 ( 10) -0.1817 ( 19) -0.1740 ( 20)  0.3248 ( 22)  0.1017 ( 23)
           0.1702 ( 24) -0.2767 ( 26) -0.2681 ( 28)  0.1159 ( 31)  0.1747 ( 32)
          -0.1373 ( 34) -0.3216 ( 35)  0.1224 ( 39)  0.1177 ( 40) -0.1388 ( 49)
          -0.1119 ( 50) -0.1523 ( 54)  0.1304 ( 55)  0.2668 ( 56)  0.1236 ( 57)
           0.1281 ( 63)  0.1011 ( 64)  0.1142 ( 65)  0.1566 ( 66)
 CRD  4=  -0.2362 (  2) -0.2072 (  3) -0.1928 ( 10) -0.2557 ( 18) -0.2222 ( 21)
           0.2398 ( 22)  0.2205 ( 25) -0.2524 ( 26) -0.2070 ( 27)  0.2817 ( 28)
           0.1509 ( 31) -0.1238 ( 36) -0.1771 ( 37)  0.2060 ( 38) -0.1226 ( 50)
          -0.2253 ( 55) -0.1620 ( 56) -0.1384 ( 57)  0.1053 ( 61)  0.1333 ( 67)
           0.1074 ( 68) -0.1358 ( 69)  0.1356 ( 70) -0.1272 ( 71)
 CRD  5=   0.2924 (  3)  0.4175 (  8)  0.3924 ( 10)  0.1384 ( 15)  0.1411 ( 22)
           0.1291 ( 23) -0.1475 ( 26)  0.1098 ( 28)  0.3121 ( 30)  0.1874 ( 31)
          -0.1273 ( 36)  0.1043 ( 37) -0.1211 ( 45) -0.1414 ( 46)  0.1118 ( 52)
          -0.1242 ( 54) -0.1189 ( 56) -0.1141 ( 60)  0.1253 ( 63)  0.1151 ( 64)
          -0.1503 ( 65) -0.1122 ( 66)
 CRD  6=  -0.1076 (  2) -0.1494 (  3)  0.3495 (  8)  0.1009 ( 17) -0.2241 ( 20)
           0.1368 ( 21)  0.2067 ( 24) -0.1465 ( 25) -0.1511 ( 27)  0.3690 ( 28)
          -0.1394 ( 30) -0.1190 ( 31)  0.2013 ( 32)  0.1186 ( 33)  0.2069 ( 34)
          -0.1146 ( 39) -0.1596 ( 40) -0.1464 ( 47)  0.2090 ( 55)  0.2387 ( 56)
           0.1626 ( 57) -0.1456 ( 63)  0.1381 ( 68)
 CRD  7=   0.3739 (  2) -0.1609 (  3) -0.1371 (  8)  0.1599 ( 10) -0.1700 ( 19)
           0.1851 ( 21)  0.1111 ( 23)  0.1464 ( 25)  0.1211 ( 29) -0.1862 ( 30)
           0.1144 ( 31) -0.2247 ( 33)  0.1507 ( 34) -0.1156 ( 43) -0.1379 ( 44)
          -0.1394 ( 49) -0.2773 ( 50)  0.1413 ( 53) -0.1561 ( 54) -0.1622 ( 58)
          -0.1867 ( 59) -0.1752 ( 60)  0.1693 ( 61) -0.1279 ( 62) -0.2492 ( 63)
          -0.1112 ( 64)  0.1276 ( 68) -0.1239 ( 72)
 CRD  8=  -0.3219 (  3) -0.1089 (  4) -0.2650 (  8) -0.2788 ( 20)  0.3720 ( 21)
          -0.1083 ( 23)  0.1784 ( 28) -0.1095 ( 29)  0.2370 ( 30) -0.1208 ( 33)
          -0.3923 ( 34)  0.1500 ( 42)  0.1796 ( 47)  0.1202 ( 55)  0.1158 ( 57)
          -0.1575 ( 59) -0.1122 ( 61)  0.1315 ( 63)
 CRD  9=  -0.1972 (  2) -0.2011 (  3)  0.1288 ( 10)  0.4117 ( 15)  0.1591 ( 17)
           0.1309 ( 20) -0.2660 ( 23) -0.1072 ( 24) -0.1706 ( 29) -0.1440 ( 30)
           0.2345 ( 32)  0.5574 ( 37)  0.1429 ( 39)  0.1265 ( 44) -0.1048 ( 64)
 CRD 10=  -0.4322 (  2)  0.1275 ( 10) -0.2367 ( 15)  0.1085 ( 18) -0.3674 ( 23)
          -0.1989 ( 24)  0.2359 ( 27)  0.1922 ( 31)  0.1218 ( 34) -0.3024 ( 37)
          -0.1402 ( 40)  0.2038 ( 42)  0.1511 ( 44) -0.1104 ( 50) -0.1275 ( 54)
          -0.1185 ( 58) -0.1038 ( 59) -0.1026 ( 62) -0.1024 ( 65) -0.1028 ( 80)
           0.1346 ( 87)
 CRD 11=   0.1916 (  2) -0.3586 (  3)  0.1230 (  7)  0.2151 (  8) -0.1713 ( 15)
           0.4273 ( 20) -0.1842 ( 23)  0.1085 ( 24)  0.2480 ( 27)  0.1937 ( 30)
          -0.1688 ( 31)  0.1990 ( 32) -0.1982 ( 34) -0.2104 ( 37) -0.1138 ( 40)
          -0.1108 ( 42) -0.1653 ( 43) -0.1827 ( 46)  0.1258 ( 59) -0.1044 ( 61)
 CRD 12=   0.1643 (  8) -0.3743 ( 10) -0.1495 ( 11)  0.1104 ( 13)  0.1032 ( 15)
          -0.1141 ( 23)  0.1031 ( 28) -0.3114 ( 29)  0.3216 ( 30) -0.4629 ( 32)
           0.2770 ( 34)  0.1315 ( 39) -0.2733 ( 45)  0.1287 ( 48)  0.1640 ( 86)
 CRD 13=  -0.1040 ( 10) -0.1596 ( 14)  0.1090 ( 19) -0.1429 ( 20) -0.1117 ( 21)
           0.2866 ( 23)  0.1519 ( 25)  0.3220 ( 27) -0.3668 ( 29) -0.2668 ( 30)
           0.1791 ( 32) -0.2173 ( 33)  0.1237 ( 34) -0.1196 ( 38)  0.1133 ( 39)
          -0.1670 ( 40)  0.1094 ( 43) -0.1420 ( 47) -0.1102 ( 51) -0.1303 ( 52)
          -0.1077 ( 53) -0.1062 ( 60) -0.2621 ( 61) -0.1184 ( 67)  0.1073 ( 69)
 CRD 14=   0.1603 (  1)  0.1979 (  2)  0.1157 (  3)  0.1441 (  4)  0.1255 (  5)
          -0.1374 (  6) -0.1072 ( 10) -0.1200 ( 13) -0.1026 ( 14)  0.1729 ( 20)
           0.3905 ( 21) -0.3550 ( 23)  0.1436 ( 25) -0.1945 ( 26) -0.2410 ( 30)
           0.1511 ( 31)  0.1194 ( 32)  0.1926 ( 34)  0.1062 ( 40) -0.1211 ( 41)
          -0.2692 ( 43) -0.1606 ( 47)  0.1512 ( 50)  0.1823 ( 63)  0.1246 ( 72)
 CRD 15=   0.1182 (  8) -0.2586 ( 10) -0.1363 ( 12) -0.2290 ( 16)  0.1011 ( 18)
          -0.1598 ( 22) -0.1790 ( 24)  0.1456 ( 25) -0.2898 ( 27)  0.1650 ( 29)
           0.1201 ( 30)  0.1754 ( 31)  0.2421 ( 32) -0.1968 ( 33) -0.2310 ( 34)
           0.1627 ( 36) -0.2289 ( 38) -0.1283 ( 39)  0.1280 ( 40) -0.1905 ( 46)
          -0.1352 ( 57) -0.1241 ( 58) -0.1098 ( 59) -0.1185 ( 60)  0.1511 ( 61)
          -0.1344 ( 62) -0.1001 ( 63) -0.1041 ( 64) -0.1380 ( 67) -0.1130 ( 68)
           0.1310 ( 69) -0.1145 ( 70)  0.1225 ( 71) -0.1020 ( 87)
 CRD 16=  -0.1460 (  1)  0.1056 (  3)  0.2675 (  4)  0.1466 (  5) -0.1571 (  7)
           0.1201 (  8)  0.1347 (  9)  0.1359 ( 14) -0.2856 ( 20)  0.3425 ( 21)
          -0.1005 ( 28)  0.1059 ( 30)  0.1488 ( 32)  0.1395 ( 33) -0.1149 ( 34)
           0.2091 ( 39)  0.1535 ( 42) -0.1913 ( 44) -0.1306 ( 46) -0.2109 ( 55)
          -0.1451 ( 56) -0.1596 ( 57)  0.1173 ( 58)  0.1251 ( 59)  0.1239 ( 60)
          -0.1632 ( 63) -0.1411 ( 69) -0.1578 ( 71) -0.1729 ( 72) -0.1065 ( 73)
           0.1120 ( 86)
 CRD 17=   0.2600 (  1)  0.2975 (  3)  0.1092 (  7) -0.2192 (  8)  0.1206 ( 14)
          -0.2200 ( 16)  0.1508 ( 19)  0.2075 ( 20) -0.1008 ( 23)  0.1194 ( 24)
          -0.1082 ( 25) -0.1014 ( 26)  0.1170 ( 28) -0.1688 ( 29)  0.1421 ( 33)
          -0.1930 ( 34)  0.1265 ( 35) -0.1280 ( 36)  0.1673 ( 39) -0.2518 ( 40)
           0.1513 ( 45) -0.1587 ( 50)  0.1569 ( 55)  0.1324 ( 57)  0.1072 ( 61)
          -0.1433 ( 63) -0.2551 ( 72)  0.1426 ( 86)  0.1163 ( 87)
 CRD 18=  -0.1075 (  1) -0.6461 (  9)  0.1485 ( 24) -0.1621 ( 25) -0.1104 ( 27)
          -0.1194 ( 30) -0.1627 ( 31)  0.1109 ( 33) -0.1301 ( 39)  0.1049 ( 40)
          -0.1672 ( 49) -0.1801 ( 54) -0.1929 ( 65) -0.1942 ( 66) -0.1399 ( 67)
          -0.1782 ( 68) -0.1615 ( 70) -0.1349 ( 73) -0.1336 ( 80) -0.1128 ( 82)
          -0.1049 ( 84)
 CRD 19=   0.1029 (  1) -0.1373 (  4) -0.1600 (  8) -0.4524 ( 11) -0.4656 ( 12)
          -0.5087 ( 13)  0.1699 ( 30)  0.1868 ( 32)  0.1792 ( 34) -0.1868 ( 45)
          -0.1851 ( 46) -0.1976 ( 47)
 CRD 20=   0.1625 (  1)  0.1644 (  2)  0.4645 (  5)  0.4489 (  6)  0.4984 (  7)
           0.1032 (  9) -0.1596 ( 20) -0.1674 ( 21) -0.1942 ( 23)  0.1912 ( 42)
           0.1685 ( 43)  0.1955 ( 44)
 CRD 21=  -0.3176 (  1)  0.1704 (  4)  0.1799 (  5)  0.1688 (  6) -0.4237 (  9)
          -0.1190 ( 13)  0.1117 ( 14) -0.2045 ( 16) -0.1761 ( 24)  0.1217 ( 39)
          -0.1213 ( 40)  0.1060 ( 49)  0.1756 ( 51)  0.1821 ( 52)  0.1728 ( 53)
           0.1007 ( 59)  0.1400 ( 62)  0.1498 ( 64)  0.1193 ( 67)  0.1100 ( 68)
           0.1253 ( 69)  0.1128 ( 70)  0.1628 ( 71)  0.1425 ( 73)  0.1050 ( 80)
           0.1429 ( 81)  0.1336 ( 82)  0.1363 ( 83)  0.1084 ( 84)  0.1182 ( 85)
 CRD 22=   0.2838 (  4) -0.1082 (  8)  0.1158 ( 10) -0.1499 ( 11) -0.1414 ( 12)
          -0.2980 ( 14) -0.4075 ( 16)  0.1115 ( 17)  0.1536 ( 25)  0.1135 ( 27)
           0.1504 ( 29)  0.1342 ( 37) -0.1772 ( 48) -0.1322 ( 51) -0.1687 ( 52)
          -0.1729 ( 53)  0.1643 ( 65)  0.1233 ( 66) -0.1361 ( 67) -0.1403 ( 68)
           0.1166 ( 69)  0.1127 ( 73)  0.1536 ( 80) -0.1494 ( 81) -0.1536 ( 82)
          -0.1128 ( 83) -0.1548 ( 86)  0.1321 ( 87)
 CRD 23=  -0.2016 (  4) -0.1231 ( 10)  0.1194 ( 12) -0.5587 ( 14) -0.4317 ( 16)
          -0.1126 ( 25)  0.1170 ( 37) -0.2046 ( 48)  0.1187 ( 52)  0.1378 ( 53)
           0.1266 ( 54) -0.1116 ( 65)  0.1105 ( 67)  0.1296 ( 68) -0.1137 ( 69)
          -0.1207 ( 80)  0.1144 ( 81)  0.1336 ( 82)  0.1121 ( 84)  0.1013 ( 87)
 CRD 24=  -0.1256 (  1)  0.1256 (  3)  0.1669 (  4)  0.1696 (  6) -0.1763 (  7)
          -0.3507 ( 11) -0.1731 ( 12)  0.3204 ( 13) -0.2872 ( 14)  0.2925 ( 16)
           0.2114 ( 45) -0.1546 ( 47) -0.1336 ( 49)  0.1889 ( 52) -0.1551 ( 54)
          -0.1578 ( 62) -0.1363 ( 64)  0.2056 ( 67)  0.2023 ( 81) -0.1784 ( 84)
          -0.1569 ( 85)
 CRD 25=   0.1817 (  4)  0.2274 (  5) -0.5985 (  6)  0.3526 (  7) -0.1269 ( 11)
          -0.1238 ( 42)  0.3204 ( 43) -0.1907 ( 44) -0.1771 ( 58)  0.1596 ( 60)
          -0.1918 ( 74)  0.1449 ( 76) -0.1809 ( 77)  0.1558 ( 79)
 CRD 26=  -0.5557 (  5)  0.4751 (  7) -0.1241 ( 12)  0.1999 ( 13)  0.2938 ( 42)
          -0.2543 ( 44) -0.1096 ( 47)  0.2126 ( 59) -0.1029 ( 60)  0.2077 ( 75)
          -0.1078 ( 76)  0.1966 ( 78) -0.1189 ( 79)
 CRD 27=  -0.1134 (  5) -0.4450 ( 11)  0.6024 ( 12) -0.1830 ( 13)  0.1994 ( 45)
          -0.3068 ( 46)  0.1103 ( 47) -0.2363 ( 51)  0.1044 ( 53)  0.1114 ( 68)
          -0.2293 ( 70) -0.2490 ( 83)
 CRD 28=   0.2540 (  4) -0.1605 (  5)  0.3119 ( 11) -0.4481 ( 13) -0.2521 ( 14)
           0.2527 ( 16) -0.1395 ( 45)  0.2668 ( 47) -0.1210 ( 49) -0.1133 ( 52)
           0.1570 ( 53) -0.1387 ( 54) -0.1570 ( 62) -0.1393 ( 64)  0.1832 ( 68)
           0.1839 ( 82) -0.1602 ( 84) -0.1424 ( 85)
 CRD 29=  -0.5999 (  1)  0.1030 (  3) -0.5098 (  4)  0.1303 (  5) -0.1179 (  6)
          -0.2491 ( 41)  0.1415 ( 65)  0.1375 ( 69)  0.1184 ( 75)  0.1672 ( 76)
          -0.1188 ( 77)  0.1394 ( 80)
 CRD 30=   0.3368 (  1) -0.3329 (  4) -0.1570 (  9) -0.1006 ( 14)  0.1390 ( 15)
           0.1121 ( 31) -0.1450 ( 37)  0.1723 ( 58)  0.1729 ( 59)  0.1767 ( 60)
           0.2808 ( 74)  0.2814 ( 75)  0.2852 ( 76)  0.2738 ( 77)  0.2744 ( 78)
           0.2783 ( 79) -0.1183 ( 85)
 CRD 31=   0.1047 (  1) -0.1033 (  4) -0.6301 ( 15)  0.1507 ( 17)  0.5472 ( 37)
          -0.1348 ( 39) -0.1381 ( 40)  0.2072 ( 48)  0.1221 ( 49) -0.1427 ( 54)
          -0.1387 ( 62)  0.1261 ( 64) -0.1325 ( 84)  0.1323 ( 85)
 CRD 32=   0.1850 ( 10) -0.1102 ( 16) -0.8871 ( 17) -0.1276 ( 27)  0.1182 ( 28)
          -0.1388 ( 29)  0.1890 ( 37)  0.1107 ( 48)
 CRD 33=   0.2318 (  9)  0.3253 ( 14) -0.3441 ( 16) -0.1137 ( 49) -0.1086 ( 54)
          -0.4586 ( 61) -0.1212 ( 84) -0.1263 ( 85) -0.3883 ( 86) -0.4032 ( 87)
 CRD 34=   0.1712 (  2)  0.1609 (  3) -0.1726 (  5) -0.3131 (  6) -0.2289 (  7)
          -0.1083 (  9) -0.2201 ( 20) -0.2082 ( 21) -0.2473 ( 23)  0.1857 ( 24)
           0.1892 ( 25) -0.1565 ( 31) -0.1517 ( 33)  0.2903 ( 42)  0.1798 ( 43)
           0.2489 ( 44)  0.1480 ( 65) -0.1125 ( 66)  0.1159 ( 69) -0.1446 ( 71)
          -0.1982 ( 73) -0.1090 ( 76)  0.1210 ( 81)  0.1548 ( 82)  0.1571 ( 83)
 CRD 35=  -0.3360 (  8) -0.1108 (  9)  0.2438 ( 11)  0.2527 ( 12)  0.2844 ( 13)
          -0.1148 ( 15)  0.2589 ( 30)  0.2504 ( 32)  0.2524 ( 34) -0.1294 ( 36)
          -0.2804 ( 45) -0.2745 ( 46) -0.2545 ( 47)  0.1311 ( 57) -0.1422 ( 72)
           0.1670 ( 73)  0.1644 ( 80) -0.1165 ( 84) -0.1795 ( 85)
 CRD 36=   0.1263 (  1) -0.2513 (  2)  0.1712 (  5)  0.1173 (  6) -0.2390 (  9)
          -0.1288 ( 10) -0.1195 ( 11)  0.1592 ( 13)  0.1350 ( 14)  0.1445 ( 15)
           0.1528 ( 16) -0.2101 ( 17)  0.1011 ( 19)  0.1064 ( 20)  0.1142 ( 21)
           0.1168 ( 23)  0.2136 ( 27)  0.1230 ( 28)  0.1799 ( 29)  0.1835 ( 37)
          -0.1434 ( 39) -0.1992 ( 40) -0.1156 ( 43) -0.1716 ( 44) -0.1068 ( 45)
           0.1077 ( 47) -0.1791 ( 48) -0.1365 ( 52) -0.1263 ( 57)  0.1034 ( 68)
           0.1848 ( 82)  0.1609 ( 83) -0.2808 ( 86)  0.1470 ( 87)
 CRD 37=   0.2020 (  1) -0.1382 (  7)  0.1933 (  8) -0.3280 (  9)  0.1711 ( 10)
          -0.2360 ( 12)  0.1165 ( 13) -0.1978 ( 15)  0.1083 ( 17) -0.1271 ( 29)
           0.1243 ( 38)  0.2012 ( 39)  0.2077 ( 47) -0.1074 ( 52)  0.1004 ( 54)
          -0.2016 ( 61) -0.1006 ( 63)  0.1030 ( 65)  0.1803 ( 68) -0.2141 ( 77)
          -0.1171 ( 78) -0.1354 ( 79)  0.1134 ( 80) -0.1570 ( 81) -0.1423 ( 83)
           0.1178 ( 84) -0.1108 ( 86) -0.2781 ( 87)
 CRD 38=  -0.3368 (  2)  0.1315 (  3) -0.1262 (  4)  0.2365 (  5)  0.1270 (  7)
           0.1771 (  8)  0.2649 ( 10) -0.1283 ( 11) -0.1770 ( 15)  0.1036 ( 17)
           0.1021 ( 19)  0.1271 ( 25) -0.1218 ( 27) -0.1017 ( 29) -0.1696 ( 31)
          -0.1508 ( 33)  0.1014 ( 39)  0.1702 ( 40)  0.1205 ( 41) -0.2366 ( 43)
           0.1071 ( 46) -0.1087 ( 60) -0.1316 ( 75) -0.2704 ( 76)  0.1727 ( 77)
           0.1402 ( 78)  0.1504 ( 83) -0.1672 ( 85)  0.1612 ( 86)
 CRD 39=  -0.1674 (  1) -0.1999 (  2)  0.2509 (  3)  0.1990 (  4)  0.2903 (  7)
          -0.1846 (  8)  0.1058 ( 11) -0.1417 ( 12)  0.1418 ( 13) -0.1423 ( 33)
           0.1156 ( 36) -0.1330 ( 42) -0.1419 ( 43)  0.1467 ( 44) -0.1726 ( 46)
          -0.1186 ( 51)  0.1003 ( 54) -0.1775 ( 59) -0.1196 ( 66)  0.1141 ( 68)
          -0.1380 ( 71) -0.2002 ( 73)  0.1954 ( 74)  0.2409 ( 77) -0.1005 ( 80)
          -0.1446 ( 83)  0.1940 ( 84)  0.1711 ( 85) -0.1009 ( 86) -0.1424 ( 87)
 CRD 40=  -0.2282 (  3)  0.2008 (  4) -0.2236 (  5)  0.2037 (  6)  0.2797 ( 10)
          -0.2181 ( 11)  0.1600 ( 12) -0.1198 ( 15)  0.1226 ( 19)  0.1118 ( 31)
          -0.1367 ( 38)  0.1206 ( 40) -0.1635 ( 41) -0.1872 ( 42)  0.1328 ( 43)
          -0.1735 ( 45)  0.1093 ( 46)  0.1155 ( 51) -0.1223 ( 52) -0.1223 ( 59)
           0.1313 ( 60) -0.1058 ( 67)  0.1321 ( 70) -0.1958 ( 73)  0.2836 ( 76)
          -0.1388 ( 78)  0.1148 ( 79)  0.1028 ( 82)  0.2679 ( 83)  0.1164 ( 86)
 CRD 41=  -0.1614 (  5)  0.1747 (  7)  0.2841 (  8) -0.2086 ( 10)  0.2332 ( 14)
          -0.2487 ( 15)  0.1651 ( 16)  0.1054 ( 19)  0.1093 ( 28) -0.1095 ( 36)
           0.1289 ( 37)  0.1593 ( 44)  0.1050 ( 45) -0.2889 ( 48) -0.1056 ( 49)
           0.2045 ( 54)  0.1131 ( 57) -0.2000 ( 59)  0.1382 ( 62) -0.1719 ( 64)
           0.1424 ( 73) -0.1449 ( 75)  0.1016 ( 77) -0.1256 ( 78) -0.2739 ( 85)
           0.2021 ( 87)
 CRD 42=   0.1121 (  1) -0.2994 (  2)  0.2468 (  6)  0.2570 ( 11) -0.1385 ( 12)
          -0.1175 ( 13)  0.1029 ( 14)  0.1601 ( 24)  0.1492 ( 25) -0.1051 ( 31)
          -0.1136 ( 32) -0.1453 ( 41) -0.1025 ( 42)  0.1132 ( 43) -0.1412 ( 44)
           0.1927 ( 45) -0.1048 ( 46) -0.1038 ( 51)  0.2216 ( 52) -0.1358 ( 58)
           0.1239 ( 60)  0.1799 ( 65) -0.1039 ( 66)  0.1798 ( 67)  0.1598 ( 69)
          -0.1456 ( 70) -0.1239 ( 71) -0.1018 ( 73) -0.1471 ( 74)  0.1126 ( 76)
          -0.1424 ( 77)  0.1172 ( 79)  0.1819 ( 80)  0.1832 ( 81) -0.1422 ( 83)
           0.1131 ( 87)
 CRD 43=  -0.1058 (  2)  0.2239 ( 12) -0.2400 ( 13) -0.2231 ( 14)  0.2591 ( 16)
           0.1070 ( 18) -0.1089 ( 27)  0.1199 ( 29)  0.1094 ( 30) -0.1225 ( 34)
           0.1745 ( 39) -0.1656 ( 40)  0.1737 ( 46) -0.1708 ( 47) -0.1855 ( 50)
           0.1015 ( 51)  0.1056 ( 52) -0.1880 ( 53)  0.1042 ( 54) -0.2456 ( 63)
           0.1075 ( 65) -0.2448 ( 68) -0.1947 ( 72) -0.2313 ( 82) -0.2771 ( 86)
          -0.2541 ( 87)
 CRD 44=  -0.1013 (  3)  0.1512 (  4)  0.2268 (  5) -0.1539 (  6) -0.1549 (  8)
           0.1250 ( 14) -0.1920 ( 15) -0.1564 ( 21)  0.1286 ( 23) -0.1292 ( 25)
           0.1053 ( 26)  0.1088 ( 28)  0.1278 ( 36) -0.1458 ( 41)  0.1643 ( 42)
          -0.1201 ( 43) -0.1360 ( 48) -0.1831 ( 49)  0.1560 ( 55)  0.1177 ( 56)
           0.1237 ( 59) -0.1991 ( 60) -0.1767 ( 64)  0.1150 ( 69)  0.1271 ( 72)
          -0.1490 ( 73)  0.2077 ( 74)  0.2961 ( 75) -0.2769 ( 79)  0.2029 ( 84)
 CRD 45=   0.2129 (  1) -0.1718 (  3) -0.1563 (  6)  0.2076 (  7) -0.1079 ( 13)
           0.1616 ( 15) -0.1371 ( 16) -0.1537 ( 20)  0.1465 ( 23) -0.1415 ( 24)
           0.1225 ( 26) -0.1136 ( 28) -0.1248 ( 35) -0.1643 ( 41) -0.1243 ( 43)
           0.1457 ( 44)  0.1344 ( 48)  0.1118 ( 49) -0.1114 ( 54) -0.1898 ( 55)
           0.2192 ( 58) -0.1782 ( 62)  0.1610 ( 65)  0.1397 ( 67) -0.1129 ( 71)
           0.2417 ( 74) -0.3020 ( 78) -0.2509 ( 79)  0.1331 ( 80)  0.1242 ( 81)
          -0.1962 ( 84)
 CRD 46=  -0.1361 (  2)  0.2261 (  3) -0.2407 ( 10) -0.1693 ( 11)  0.1391 ( 12)
           0.1219 ( 14) -0.1726 ( 19) -0.1665 ( 22)  0.1096 ( 27)  0.1603 ( 32)
          -0.1372 ( 34)  0.1563 ( 35)  0.1845 ( 38) -0.1223 ( 45)  0.1061 ( 46)
           0.2698 ( 51) -0.1013 ( 56)  0.1018 ( 57) -0.1519 ( 62) -0.1616 ( 64)
          -0.1817 ( 66)  0.2741 ( 70)  0.1807 ( 72)  0.1931 ( 80) -0.3099 ( 81)
          -0.2626 ( 82)  0.1118 ( 87)
 CRD 47=  -0.1009 (  2) -0.1909 (  3)  0.1943 (  4)  0.1043 (  5)  0.1753 (  8)
          -0.1272 ( 10)  0.1123 ( 13)  0.1939 ( 18)  0.1520 ( 26)  0.1222 ( 29)
          -0.1234 ( 30) -0.2030 ( 36) -0.1401 ( 41)  0.1034 ( 47)  0.1345 ( 49)
           0.1962 ( 53)  0.2307 ( 57) -0.1660 ( 60)  0.1247 ( 62)  0.1892 ( 64)
          -0.2525 ( 66) -0.1886 ( 67) -0.1195 ( 70) -0.1800 ( 71) -0.2098 ( 72)
           0.1266 ( 74)  0.2152 ( 75) -0.1090 ( 79)  0.1862 ( 80)  0.1045 ( 82)
          -0.1212 ( 84)
 CRD 48=   0.1826 (  1) -0.1151 (  4) -0.1267 (  8)  0.2097 (  9) -0.1379 ( 19)
           0.1323 ( 22)  0.1146 ( 25) -0.1024 ( 27)  0.1016 ( 28) -0.1504 ( 31)
           0.1115 ( 33)  0.1079 ( 35) -0.1141 ( 38) -0.2171 ( 49) -0.2123 ( 50)
           0.1103 ( 51)  0.2000 ( 53) -0.2530 ( 56) -0.1815 ( 57)  0.2234 ( 58)
           0.1848 ( 60)  0.2040 ( 62) -0.1718 ( 67)  0.2714 ( 69) -0.1191 ( 70)
           0.1908 ( 71) -0.1324 ( 75) -0.1769 ( 78)  0.1351 ( 84)

 THE DETERMINANT OF THE G MATRIX IS 10**(   -16)


                     --------------------
                     INTERNAL COORDINATES
                     --------------------

                 - - ATOMS - -         COORDINATE      COORDINATE
 NO.   TYPE    I  J  K  L  M  N        (BOHR,RAD)       (ANG,DEG)
 ----------------------------------------------------------------
   1 STRETCH   1  7                     2.0949240       1.1085861
   2 STRETCH   1  2                     2.8593467       1.5131012
   3 STRETCH   1  3                     2.8911560       1.5299340
   4 STRETCH   1  8                     2.0927773       1.1074502
   5 STRETCH   2 11                     2.0849600       1.1033134
   6 STRETCH   2 10                     2.0719517       1.0964297
   7 STRETCH   2  9                     2.0744492       1.0977513
   8 STRETCH   3  4                     2.8740728       1.5208939
   9 STRETCH   3 12                     2.1135600       1.1184479
  10 STRETCH   3  5                     2.9022951       1.5358285
  11 STRETCH   4 15                     2.0844953       1.1030675
  12 STRETCH   4 14                     2.0727286       1.0968408
  13 STRETCH   4 13                     2.0748378       1.0979570
  14 STRETCH   5 16                     2.0947719       1.1085056
  15 STRETCH   5  6                     2.6636713       1.4095542
  16 STRETCH   5 17                     2.0942978       1.1082548
  17 STRETCH   6 18                     1.7899852       0.9472195
  18 BEND      1  3  5                  1.9373246     111.0005255
  19 BEND      1  3 12                  1.8890852     108.2366084
  20 BEND      1  2  9                  1.9502857     111.7431381
  21 BEND      1  2 11                  1.9298001     110.5693988
  22 BEND      1  3  4                  1.9267533     110.3948328
  23 BEND      1  2 10                  1.9473658     111.5758417
  24 BEND      2  1  7                  1.9203803     110.0296877
  25 BEND      2  1  8                  1.9207191     110.0490957
  26 BEND      2  1  3                  1.9449051     111.4348560
  27 BEND      3  5 17                  1.9341274     110.8173358
  28 BEND      3  5  6                  1.8902756     108.3048124
  29 BEND      3  5 16                  1.9251876     110.3051214
  30 BEND      3  4 13                  1.9512159     111.7964387
  31 BEND      3  1  7                  1.9140773     109.6685533
  32 BEND      3  4 15                  1.9207089     110.0485147
  33 BEND      3  1  8                  1.9149970     109.7212445
  34 BEND      3  4 14                  1.9517679     111.8280608
  35 BEND      4  3  5                  1.9104357     109.4599036
  36 BEND      4  3 12                  1.8961793     108.6430689
  37 BEND      5  6 18                  1.8569647     106.3962423
  38 BEND      5  3 12                  1.9033520     109.0540359
  39 BEND      6  5 16                  1.9117044     109.5325909
  40 BEND      6  5 17                  1.9302974     110.5978953
  41 BEND      7  1  8                  1.8462357     105.7815140
  42 BEND      9  2 10                  1.8773833     107.5661400
  43 BEND      9  2 11                  1.8716911     107.2400031
  44 BEND     10  2 11                  1.8840814     107.9499141
  45 BEND     13  4 14                  1.8784590     107.6277736
  46 BEND     13  4 15                  1.8734383     107.3401105
  47 BEND     14  4 15                  1.8851698     108.0122705
  48 BEND     16  5 17                  1.8724347     107.2826067
  49 TORSION   1  3  5 17              -0.7985906     -45.7558695
  50 TORSION   1  3  5  6               1.3216532      75.7251503
  51 TORSION   1  3  4 13               1.2231799      70.0830469
  52 TORSION   1  3  4 14              -2.9522635    -169.1522376
  53 TORSION   1  3  4 15              -0.8569920     -49.1020235
  54 TORSION   1  3  5 16              -2.8695585    -164.4135926
  55 TORSION   2  1  3  5              -3.0257060    -173.3601831
  56 TORSION   2  1  3  4               1.1358019      65.0766575
  57 TORSION   2  1  3 12              -0.9374625     -53.7126433
  58 TORSION   3  1  2 11              -0.8934147     -51.1888907
  59 TORSION   3  1  2 10              -2.9905470    -171.3457227
  60 TORSION   3  1  2  9               1.1900070      68.1823803
  61 TORSION   3  5  6 18              -3.0580710    -175.2145636
  62 TORSION   4  3  5 16              -0.7383534     -42.3045317
  63 TORSION   4  3  5  6              -2.8303269    -162.1657888
  64 TORSION   4  3  5 17               1.3326146      76.3531914
  65 TORSION   4  3  1  8              -3.0156473    -172.7838654
  66 TORSION   4  3  1  7              -0.9948726     -57.0020000
  67 TORSION   5  3  4 14               1.1933962      68.3765655
  68 TORSION   5  3  4 15              -2.9945176    -171.5732204
  69 TORSION   5  3  1  8              -0.8939700     -51.2207060
  70 TORSION   5  3  4 13              -0.9143457     -52.3881499
  71 TORSION   5  3  1  7               1.1268048      64.5611594
  72 TORSION   6  5  3 12              -0.7580479     -43.4329480
  73 TORSION   7  1  3 12              -3.0681370    -175.7913008
  74 TORSION   7  1  2 11               1.2336149      70.6809278
  75 TORSION   7  1  2 10              -0.8635174     -49.4759042
  76 TORSION   7  1  2  9              -2.9661487    -169.9478012
  77 TORSION   8  1  2 11              -3.0218443    -173.1389221
  78 TORSION   8  1  2 10               1.1642087      66.7042459
  79 TORSION   8  1  2  9              -0.9384225     -53.7676510
  80 TORSION   8  1  3 12               1.1942735      68.4268338
  81 TORSION  12  3  4 14              -0.8833257     -50.6108354
  82 TORSION  12  3  4 15               1.2119458      69.4393787
  83 TORSION  12  3  4 13              -2.9910676    -171.3755508
  84 TORSION  12  3  5 16               1.3339256      76.4283091
  85 TORSION  12  3  5 17              -2.8782917    -164.9139679
  86 TORSION  16  5  6 18               1.1247130      64.4413059
  87 TORSION  17  5  6 18              -0.9354691     -53.5984339

     ------------------------------------------
     THE POINT GROUP IS C1 , NAXIS= 1, ORDER= 1
     ------------------------------------------

     DIMENSIONS OF THE SYMMETRY SUBSPACES ARE
 A   =  186

 ..... DONE SETTING UP THE RUN .....
 STEP CPU TIME =     0.01 TOTAL CPU TIME =        0.0 (    0.0 MIN)
 TOTAL WALL CLOCK TIME=        0.1 SECONDS, CPU UTILIZATION IS  14.29%


          -----------------------------
          STATIONARY POINT LOCATION RUN
          -----------------------------

 OBTAINING INITIAL HESSIAN, HESS=GUESS   
 DIAGONAL GUESS HESSIAN IN INTERNAL COORDS IS
     1  0.3341     2  0.3794     3  0.3672     4  0.3348     5  0.3375
     6  0.3421     7  0.3412     8  0.3737     9  0.3277    10  0.3630
    11  0.3377    12  0.3418    13  0.3411    14  0.3341    15  0.3747
    16  0.3343    17  0.3692    18  0.2481    19  0.2224    20  0.2246
    21  0.2243    22  0.2491    23  0.2247    24  0.2240    25  0.2240
    26  0.2497    27  0.2227    28  0.2439    29  0.2226    30  0.2241
    31  0.2230    32  0.2238    33  0.2230    34  0.2242    35  0.2487
    36  0.2229    37  0.2165    38  0.2221    39  0.2195    40  0.2195
    41  0.2016    42  0.2027    43  0.2023    44  0.2024    45  0.2027
    46  0.2023    47  0.2024    48  0.2016    49  0.2500    50  0.2500
    51  0.2500    52  0.2500    53  0.2500    54  0.2500    55  0.2500
    56  0.2500    57  0.2500    58  0.2500    59  0.2500    60  0.2500
    61  0.2500    62  0.2500    63  0.2500    64  0.2500    65  0.2500
    66  0.2500    67  0.2500    68  0.2500    69  0.2500    70  0.2500
    71  0.2500    72  0.2500    73  0.2500    74  0.2500    75  0.2500
    76  0.2500    77  0.2500    78  0.2500    79  0.2500    80  0.2500
    81  0.2500    82  0.2500    83  0.2500    84  0.2500    85  0.2500
    86  0.2500    87  0.2500
 TRANSFORMING HESSIAN TO SYMMETRY COORDINATES

          PARAMETERS CONTROLLING GEOMETRY SEARCH ARE
          METHOD =QA                  UPHESS =BFGS    
          NNEG   =         0          NFRZ   =         3
          NSTEP  =        50          IFOLOW =         1
          HESS   =GUESS               RESTAR =         F
          IHREP  =         0          HSSEND =         F
          NPRT   =         0          NPUN   =         0
          OPTTOL = 5.000E-04          RMIN   = 1.500E-03
          RMAX   = 1.000E-01          RLIM   = 7.000E-02
          DXMAX  = 3.000E-01          PURIFY =         F
          MOVIE  =         F          TRUPD  =         T
          TRMAX  = 5.000E-01          TRMIN  = 5.000E-02
          ITBMAT =         5          STPT   =         F
          STSTEP = 1.000E-02          PROJCT=          F
          FROZEN COORD(S)=   1   2   3


      ***** EQUILIBRIUM GEOMETRY LOCATED *****
            (SUBJECT TO   3 CONSTRAINT(S))
 COORDINATES OF ALL ATOMS ARE (ANGS)
   ATOM   CHARGE       X              Y              Z
 ------------------------------------------------------------
 C           6.0   2.1097390329   2.8059134532   1.0819232663
 C           6.0   0.7206237539   2.1831288984   1.2438221271
 C           6.0   3.1788700097   2.0243099415   1.8582470707
 C           6.0   3.3207189789   0.6159077460   1.2725895935
 C           6.0   4.5302042993   2.7303518579   1.8971682535
 O           8.0   4.4189069633   3.9231939981   2.6461639317
 H           1.0   2.3823788287   2.8251851129   0.0265752698
 H           1.0   2.0873024668   3.8384189224   1.4173442820
 H           1.0   0.4156821700   2.1940636800   2.2872482596
 H           1.0  -0.0278481520   2.7115194146   0.6630448260
 H           1.0   0.7112702539   1.1509681793   0.9124049511
 H           1.0   2.8512877649   1.9393990776   2.8941391109
 H           1.0   3.6127658892   0.6600200834   0.2258700300
 H           1.0   4.0487804654   0.0201368049   1.8123678419
 H           1.0   2.3755963246   0.0897736680   1.3232212054
 H           1.0   5.2613965429   2.0753926259   2.3658084404
 H           1.0   4.8793292208   2.9532385449   0.8901732617
 H           1.0   5.2684922056   4.3281122302   2.7053831454


                     --------------------
                     INTERNAL COORDINATES
                     --------------------

                 - - ATOMS - -         COORDINATE      COORDINATE
 NO.   TYPE    I  J  K  L  M  N        (BOHR,RAD)       (ANG,DEG)
 ----------------------------------------------------------------
   1 STRETCH   1  7                     2.0601162       1.0901666
   2 STRETCH   1  2                     2.8930175       1.5309190
   3 STRETCH   1  3                     2.9009748       1.5351299
   4 STRETCH   1  8                     2.0519659       1.0858537
   5 STRETCH   2 11                     2.0486587       1.0841036
   6 STRETCH   2 10                     2.0499033       1.0847622
   7 STRETCH   2  9                     2.0543738       1.0871279
   8 STRETCH   3  4                     2.8948681       1.5318984
   9 STRETCH   3 12                     2.0593612       1.0897671
  10 STRETCH   3  5                     2.8821353       1.5251605
  11 STRETCH   4 15                     2.0463538       1.0828839
  12 STRETCH   4 14                     2.0496142       1.0846092
  13 STRETCH   4 13                     2.0552533       1.0875933
  14 STRETCH   5 16                     2.0555818       1.0877671
  15 STRETCH   5  6                     2.6699722       1.4128885
  16 STRETCH   5 17                     2.0576379       1.0888552
  17 STRETCH   6 18                     1.7820234       0.9430062
  18 BEND      1  3  5                  1.9760753     113.2207720
  19 BEND      1  3 12                  1.8870687     108.1210721
  20 BEND      1  2  9                  1.9304284     110.6053979
  21 BEND      1  2 11                  1.9420806     111.2730225
  22 BEND      1  3  4                  1.9169184     109.8313353
  23 BEND      1  2 10                  1.9512060     111.7958696
  24 BEND      2  1  7                  1.9139850     109.6632627
  25 BEND      2  1  8                  1.9128284     109.5969971
  26 BEND      2  1  3                  1.9512396     111.7977937
  27 BEND      3  5 17                  1.9339793     110.8088491
  28 BEND      3  5  6                  1.9119401     109.5461005
  29 BEND      3  5 16                  1.9048149     109.1378558
  30 BEND      3  4 13                  1.9342617     110.8250297
  31 BEND      3  1  7                  1.9011536     108.9280757
  32 BEND      3  4 15                  1.9262364     110.3652143
  33 BEND      3  1  8                  1.9201685     110.0175510
  34 BEND      3  4 14                  1.9572508     112.1422101
  35 BEND      4  3  5                  1.9319169     110.6906865
  36 BEND      4  3 12                  1.8961114     108.6391808
  37 BEND      5  6 18                  1.9016366     108.9557540
  38 BEND      5  3 12                  1.8526645     106.1498552
  39 BEND      6  5 16                  1.9101746     109.4449413
  40 BEND      6  5 17                  1.9205876     110.0415628
  41 BEND      7  1  8                  1.8623004     106.7019509
  42 BEND      9  2 10                  1.8917073     108.3868455
  43 BEND      9  2 11                  1.8760901     107.4920444
  44 BEND     10  2 11                  1.8693488     107.1057960
  45 BEND     13  4 14                  1.8975754     108.7230630
  46 BEND     13  4 15                  1.8745146     107.4017734
  47 BEND     14  4 15                  1.8710031     107.2005796
  48 BEND     16  5 17                  1.8819533     107.8279805
  49 TORSION   1  3  5 17              -0.9656875     -55.3298185
  50 TORSION   1  3  5  6               1.1566009      66.2683489
  51 TORSION   1  3  4 13               1.0454535      59.9000749
  52 TORSION   1  3  4 14              -3.1135728    -178.3945799
  53 TORSION   1  3  4 15              -1.0288512     -58.9488319
  54 TORSION   1  3  5 16              -3.0355059    -173.9216767
  55 TORSION   2  1  3  5              -2.9874982    -171.1710359
  56 TORSION   2  1  3  4               1.1263579      64.5355554
  57 TORSION   2  1  3 12              -0.9399815     -53.8569745
  58 TORSION   3  1  2 11              -1.0117953     -57.9716000
  59 TORSION   3  1  2 10              -3.1011621    -177.6835017
  60 TORSION   3  1  2  9               1.0722177      61.4335507
  61 TORSION   3  5  6 18               3.0872583     176.8868720
  62 TORSION   4  3  5 16              -0.8743669     -50.0975317
  63 TORSION   4  3  5  6              -2.9654454    -169.9075061
  64 TORSION   4  3  5 17               1.1954515      68.4943265
  65 TORSION   4  3  1  8              -3.0272464    -173.4484402
  66 TORSION   4  3  1  7              -0.9915990     -56.8144383
  67 TORSION   5  3  4 14               0.9748775      55.8563654
  68 TORSION   5  3  4 15               3.0595991     175.3021134
  69 TORSION   5  3  1  8              -0.8579171     -49.1550315
  70 TORSION   5  3  4 13              -1.1492815     -65.8489798
  71 TORSION   5  3  1  7               1.1777302      67.4789704
  72 TORSION   6  5  3 12              -0.9109609     -52.1942151
  73 TORSION   7  1  3 12              -3.0579385    -175.2069682
  74 TORSION   7  1  2 11               1.0987253      62.9523205
  75 TORSION   7  1  2 10              -0.9906416     -56.7595813
  76 TORSION   7  1  2  9              -3.1004470    -177.6425288
  77 TORSION   8  1  2 11               3.1376006     179.7712745
  78 TORSION   8  1  2 10               1.0482338      60.0593728
  79 TORSION   8  1  2  9              -1.0615716     -60.8235748
  80 TORSION   8  1  3 12               1.1895995      68.1590299
  81 TORSION  12  3  4 14              -1.0528294     -60.3226809
  82 TORSION  12  3  4 15               1.0318922      59.1230671
  83 TORSION  12  3  4 13               3.1061969     177.9719739
  84 TORSION  12  3  5 16               1.1801176      67.6157592
  85 TORSION  12  3  5 17              -3.0332493    -173.7923826
  86 TORSION  16  5  6 18               0.9994667      57.2652238
  87 TORSION  17  5  6 18              -1.0656042     -61.0546205

          INTERNUCLEAR DISTANCES (ANGS.)


 =====================================================
   GAMESS/COSab RESULTS
 =====================================================

   Dielectric Constant                  = INFTY
   Basic Grid Size                      =                 1082
   Number of Segments                   =                   92
   Number of Segments located on spheres=                  234
   Number of Segments of the cavity     =                  591
   Solvent Radius (rsolv)               = 1.40
   Outlying Charge Error Method         = double cavity

 =====================================================

  Total solvated Energy (a.u.)          =  -271.2646675822
  Total Energy corrected (a.u.)         =  -271.2646323584

  Outlying charge effect (a.u.)         =     0.0000352237
  Outlying charge effect (kcal/mol)     =     0.0221032320

  Dielectric Energy (a.u.)              =    -0.0099150582
  Dielectric energy corr. (a.u.)        =    -0.0098798345

  Sum of polarization charges           =     0.0240226078
  Sum of polarization charges(cor.)     =    -0.0240226078

  Total surface area of cavity (A**2)   =  140.84
  Total volume of cavity (A**3)         =  133.68

 =====================================================
 NPS=                   591
NR.  ATOM  (X, Y, Z)(a.u.)                  CHARGE(e)  AREA(A**2) SIGMA(e/A**2)
   1   1   2.267417   7.753259  -0.262234   0.000802   0.278737   0.002877
   2   1   5.556857   8.360879   0.474495   0.001410   0.278737   0.005059
   3   1   3.211405   6.856290   5.401373   0.000209   0.092912   0.002252
   4   1   5.429267   7.992840  -0.183741   0.001115   0.232280   0.004798
   5   1   2.820848   7.284273  -0.954957   0.000805   0.278737   0.002889
   6   1   3.131739   8.316586  -0.069179   0.001620   0.371649   0.004360
   7   1   4.540673   8.489203   0.089582   0.001563   0.278737   0.005608
   8   1   2.294832   8.414873   0.727751   0.000853   0.278737   0.003060
   9   1   3.892730   8.146126  -0.443167   0.001358   0.278737   0.004871
  10   2  -1.263566   2.608440   0.094307   0.002217   0.418105   0.005302
  11   2   0.292180   7.349338   4.007920   0.000923   0.278737   0.003310
  12   2  -2.254090   4.828305   3.196526   0.001915   0.418105   0.004580
  13   2  -0.638630   1.173543   3.602883   0.001171   0.278737   0.004200
  14   2   1.998053   2.684763  -1.085169   0.000474   0.185824   0.002550
  15   2   0.945645   4.659591  -1.367833   0.000738   0.232280   0.003179
  16   2   1.220137   3.550210  -1.382246   0.000958   0.325193   0.002945
  17   2   0.157091   2.887979  -1.011292   0.001558   0.325193   0.004792
  18   2  -0.621807   1.659406   4.416387   0.001429   0.325193   0.004395
  19   2  -1.915828   4.815225   4.101425   0.001221   0.278737   0.004380
  20   2  -0.237849   6.755809   4.542951   0.000853   0.232280   0.003673
  21   2  -0.646529   3.261876  -0.732553   0.000998   0.232280   0.004297
  22   2  -0.427137   2.389370  -0.490271   0.000870   0.185824   0.004680
  23   2   0.885987   6.952456   4.813451   0.000639   0.232280   0.002752
  24   2  -0.661264   7.073799   3.574860   0.001258   0.278737   0.004513
  25   2  -1.735472   5.893595   3.601529   0.001545   0.278737   0.005542
  26   2  -2.175197   3.525299   3.539503   0.001505   0.464561   0.003240
  27   2  -1.572356   2.147531   3.678145   0.001267   0.418105   0.003030
  28   2   0.354829   0.971984   4.174101   0.001327   0.278737   0.004760
  29   2   1.453277   1.503018   5.070487   0.000750   0.185824   0.004037
  30   2  -0.028150   7.580459   2.995182   0.001058   0.325193   0.003254
  31   2  -2.400562   3.774454   2.274454   0.001254   0.418105   0.002998
  32   2  -2.018997   2.923128   1.163519   0.001458   0.418105   0.003488
  33   2  -1.452762   1.912839   1.139404   0.001614   0.464561   0.003473
  34   2  -1.438705   1.602440   2.625552   0.001473   0.464561   0.003170
  35   2   0.377594   3.929276  -1.293300   0.000784   0.232280   0.003376
  36   2   1.258259   2.644509  -1.125178   0.000828   0.232280   0.003564
  37   2  -1.682404   2.861062   4.199361   0.000677   0.232280   0.002914
  38   2  -1.141703   6.325609   4.132713   0.001415   0.278737   0.005075
  39   2   0.615555   1.358664   4.814618   0.001117   0.232280   0.004810
  40   2   0.278534   7.740867   2.150503   0.000424   0.139368   0.003042
  41   2  -1.319136   6.666323   3.151216   0.000776   0.185824   0.004174
  42   2  -2.095785   2.600735   2.417978   0.001007   0.418105   0.002409
  43   3   7.281074   1.997690   6.564615   0.000129   0.139368   0.000926
  44   3   7.545985   2.476700   6.689225  -0.000002   0.046456  -0.000038
  45   4   5.860107  -2.383737   3.640253   0.002127   0.418105   0.005087
  46   4   8.498455  -1.684789   1.297359   0.001173   0.325193   0.003607
  47   4   4.853858  -1.494989   0.125765   0.001215   0.325193   0.003737
  48   4   4.339316   0.044782   5.451827   0.000558   0.232280   0.002403
  49   4   6.422025   0.089712   6.025468   0.000476   0.139368   0.003413
  50   4   5.333205  -0.279257   5.768504   0.000929   0.325193   0.002857
  51   4   5.425705  -1.308853   5.133968   0.001442   0.325193   0.004433
  52   4   5.315102  -0.966744  -0.565457   0.001326   0.325193   0.004078
  53   4   8.624304  -0.982925   0.365909   0.001659   0.371649   0.004464
  54   4   9.626800   1.084607   0.659861   0.000478   0.139368   0.003428
  55   4   6.034356  -1.821344   4.710189   0.000912   0.232280   0.003925
  56   4   5.087814  -1.799215   4.428278   0.001155   0.278737   0.004142
  57   4   9.822132   0.640773   1.208968   0.000802   0.185824   0.004314
  58   4   9.297403  -0.752771   1.189470   0.001557   0.325193   0.004787
  59   4   7.550948  -1.792493   0.425822   0.001391   0.464561   0.002994
  60   4   5.996989  -1.901816   0.212088   0.001331   0.464561   0.002866
  61   4   4.402129  -0.415130  -0.473058   0.001586   0.325193   0.004876
  62   4   7.580727  -2.300015   1.642448   0.001178   0.418105   0.002819
  63   4   6.630426  -2.595771   2.556478   0.001368   0.418105   0.003271
  64   4   5.479951  -2.530785   2.437863   0.001529   0.464561   0.003292
  65   4   5.160427  -2.206777   1.108708   0.000890   0.325193   0.002738
  66   4   6.113711  -0.643956   5.719947   0.000696   0.232280   0.002996
  67   4   4.478225  -0.736775   5.132939   0.000841   0.278737   0.003019
  68   4   6.746995  -1.472768  -0.261546   0.000741   0.278737   0.002657
  69   4   9.451680   0.121119   0.642161   0.000911   0.185824   0.004904
  70   4   4.455870   0.559166  -0.852206   0.000997   0.232280   0.004292
  71   4   9.819479   0.085483   1.656765   0.000996   0.232280   0.004288
  72   4   6.420390  -2.429324   1.242124   0.000948   0.418105   0.002268
  73   5   8.594164   4.294009   7.263969   0.000508   0.139368   0.003648
  74   5  12.053592   4.988176   2.151404   0.001095   0.418105   0.002619
  75   5   8.417796   8.222752   1.375818   0.000414   0.092912   0.004455
  76   5  11.989102   5.513796   5.136216  -0.000371   0.092912  -0.003989
  77   5  12.155321   4.287306   2.808570   0.000663   0.278737   0.002378
  78   5   9.190487   4.096412   7.156878   0.000234   0.139368   0.001679
  79   5  10.973286   3.159316   1.472516   0.000184   0.232280   0.000793
  80   5  11.571260   3.793463   1.753397   0.000955   0.371649   0.002568
  81   5  12.316640   5.422108   3.254438   0.000155   0.325193   0.000478
  82   5  12.238662   5.980550   3.874952  -0.000201   0.139368  -0.001441
  83   5  11.941305   6.191972   2.246848   0.000194   0.278737   0.000696
  84   5  11.457346   7.150138   2.195022  -0.000153   0.139368  -0.001099
  85   5  12.283263   5.350194   4.210861   0.000079   0.139368   0.000564
  86   5  11.329191   2.962821   2.245519   0.000124   0.139368   0.000886
  87   5   8.817480   3.522447   6.981899   0.000123   0.139368   0.000883
  88   5   9.724884   4.564231   7.131223  -0.000055   0.139368  -0.000396
  89   5  12.070148   6.425612   2.979887  -0.000456   0.185824  -0.002453
  90   6   6.296297   8.279353   7.365998   0.004466   0.240512   0.018567
  91   6   8.288999  10.529231   5.925026   0.001678   0.274871   0.006104
  92   6   9.528287   7.880676   7.993762   0.003135   0.343589   0.009124
  93   6   9.106405   9.577522   2.695858   0.002139   0.240512   0.008894
  94   6   5.805559   7.794120   6.986233   0.005435   0.240512   0.022599
  95   6   5.837410   8.846697   6.482255   0.006214   0.309230   0.020096
  96   6   6.561219   7.329989   7.712705   0.005818   0.274871   0.021167
  97   6   7.397264   6.496074   7.969313   0.003683   0.171795   0.021437
  98   6   8.667815  10.043834   6.883785   0.000773   0.274871   0.002812
  99   6   9.074901   9.064845   7.704931   0.001684   0.309230   0.005447
 100   6   9.924179   6.999930   7.814235   0.002328   0.240512   0.009678
 101   6  10.402952   6.464541   7.335293   0.001064   0.171795   0.006196
 102   6   8.738564  10.328922   3.616346   0.002778   0.309230   0.008983
 103   6   8.468408  10.651315   4.737817   0.002131   0.309230   0.006891
 104   6   6.642548  10.175673   4.861650   0.005876   0.309230   0.019003
 105   6   7.441663  10.515744   5.341569   0.004388   0.343589   0.012771
 106   6   7.504125  10.093858   6.633100   0.005449   0.481025   0.011328
 107   6   6.692491   9.296564   7.067058   0.006204   0.377948   0.016416
 108   6   7.188107   8.431778   7.860069   0.007192   0.412307   0.017443
 109   6   8.348961   8.144309   8.167681   0.006679   0.446666   0.014952
 110   6   8.851596   6.900539   8.170716   0.006232   0.377948   0.016490
 111   6   8.377064   6.001307   7.927783   0.005274   0.309230   0.017054
 112   6   8.430210   9.459428   2.475926   0.002847   0.206154   0.013809
 113   6   7.967850  10.011686   3.085054   0.004193   0.274871   0.015255
 114   6   7.188039  10.146160   3.678676   0.005076   0.240512   0.021103
 115   6   6.396684   9.817703   5.984483   0.007413   0.377948   0.019613
 116   6   7.643389   7.197416   8.165603   0.006735   0.343589   0.019603
 117   6   7.657556   9.466408   2.577486   0.002814   0.137436   0.020472
 118   6   8.015822   9.340987   7.596362   0.004521   0.412307   0.010965
 119   6   9.498942   6.122401   7.753364   0.003127   0.206154   0.015167
 120   6   7.639172  10.490112   4.229354   0.003992   0.274871   0.014523
 121   7   4.730383   5.835742  -2.344783  -0.001772   0.431809  -0.004104
 122   7   3.944164   4.155391  -2.029054  -0.001033   0.333671  -0.003097
 123   7   5.309851   7.105914  -1.453085  -0.000544   0.372926  -0.001460
 124   7   3.417747   6.306206  -1.930578  -0.000644   0.353299  -0.001823
 125   7   4.824941   4.664632  -2.289936  -0.001675   0.372926  -0.004492
 126   7   5.845403   5.154456  -1.998320  -0.001711   0.353299  -0.004843
 127   7   5.838515   6.253106  -1.797220  -0.001589   0.392554  -0.004049
 128   7   4.312621   6.887922  -1.847015  -0.000713   0.372926  -0.001912
 129   7   3.505302   5.253132  -2.193498  -0.000937   0.412182  -0.002273
 130   8   3.765010   9.664847   3.112677  -0.002733   0.490692  -0.005570
 131   8   3.049250   8.350407   4.686060  -0.000941   0.353299  -0.002663
 132   8   2.394427   9.159501   2.679237  -0.001092   0.372926  -0.002928
 133   8   3.904862   9.412186   1.506285  -0.000440   0.294415  -0.001496
 134   8   3.423508   9.185529   4.103616  -0.001453   0.314043  -0.004625
 135   8   2.491943   8.918505   3.752349  -0.000784   0.333671  -0.002350
 136   8   3.056970   9.432442   1.971299  -0.001029   0.412182  -0.002496
 137   8   4.643669   9.487674   1.933504  -0.001049   0.353299  -0.002970
 138   9  -0.211599   4.205181   6.566679  -0.002283   0.451437  -0.005056
 139   9   0.911983   2.545794   6.181800  -0.000996   0.333671  -0.002984
 140   9  -0.667549   2.709858   5.686321  -0.000654   0.353299  -0.001852
 141   9  -1.286143   4.797763   5.470639  -0.000650   0.372926  -0.001743
 142   9   0.347188   5.979005   5.898263  -0.000750   0.392554  -0.001911
 143   9   0.860731   3.907139   6.766101  -0.002212   0.412182  -0.005367
 144   9   0.105893   2.792952   6.256685  -0.001332   0.392554  -0.003392
 145   9  -1.151520   3.687497   5.761910  -0.001478   0.471065  -0.003138
 146   9  -0.563474   5.358794   5.979044  -0.001513   0.471065  -0.003212
 147   9   0.971901   5.263297   6.502280  -0.002218   0.510320  -0.004347
 148  10  -1.803812   6.302735  -0.003642  -0.003425   0.608459  -0.005630
 149  10  -0.387639   7.174262  -0.058292  -0.001188   0.353299  -0.003363
 150  10  -1.376713   7.144231   1.700888  -0.000572   0.333671  -0.001715
 151  10  -2.470779   5.473991   1.508132  -0.000730   0.353299  -0.002067
 152  10  -1.825927   4.393802  -0.282366  -0.000750   0.372926  -0.002011
 153  10  -0.288741   5.437265  -1.172160  -0.000681   0.353299  -0.001928
 154  10  -0.868945   7.395056   0.793475  -0.001597   0.490692  -0.003254
 155  10  -2.104264   6.460445   1.452518  -0.001602   0.490692  -0.003265
 156  10  -2.389768   5.009783   0.504789  -0.001791   0.510320  -0.003509
 157  10  -1.320744   5.119489  -0.851063  -0.001775   0.490692  -0.003617
 158  10  -0.492618   6.427569  -0.782294  -0.001822   0.490692  -0.003712
 159  11   0.582813   0.083446   0.684530  -0.001869   0.353299  -0.005290
 160  11   1.279372   1.232321  -0.543452  -0.000511   0.255160  -0.002004
 161  11  -0.373434   0.755340   0.689929  -0.000590   0.294415  -0.002003
 162  11   0.363522   0.134732   2.678583  -0.000652   0.274788  -0.002371
 163  11   1.261987   0.472220  -0.044661  -0.001602   0.294415  -0.005442
 164  11   0.260540   0.996150  -0.138939  -0.000653   0.333671  -0.001957
 165  11  -0.293137   0.343709   1.694154  -0.000940   0.372926  -0.002522
 166  11   0.532886  -0.143768   1.706421  -0.001277   0.235532  -0.005423
 167  12   4.855603   3.184938   7.818835  -0.001324   0.333671  -0.003967
 168  12   4.392543   1.963788   6.935405  -0.000704   0.274788  -0.002563
 169  12   4.452174   5.034086   7.281453  -0.001175   0.314043  -0.003741
 170  12   6.381939   2.569306   7.430526  -0.000789   0.372926  -0.002117
 171  12   4.100219   2.677403   7.313344  -0.001239   0.294415  -0.004208
 172  12   4.123716   3.933253   7.558231  -0.001501   0.314043  -0.004780
 173  12   5.139062   4.336352   7.819084  -0.001236   0.314043  -0.003937
 174  12   5.981128   3.623246   7.852773  -0.001565   0.392554  -0.003987
 175  12   5.397937   2.257277   7.482461  -0.000962   0.372926  -0.002580
 176  13   7.585451   0.940609  -1.889649  -0.002191   0.431809  -0.005073
 177  13   8.953888   0.763589  -0.703726  -0.000636   0.353299  -0.001800
 178  13   5.656334   0.781898  -1.682143  -0.001060   0.412182  -0.002572
 179  13   7.357407  -0.461186  -1.256966  -0.000842   0.372926  -0.002259
 180  13   8.608558   1.534026  -1.240342  -0.001878   0.412182  -0.004555
 181  13   7.595921   2.202911  -1.701748  -0.002644   0.431809  -0.006124
 182  13   6.480178   1.457285  -1.996110  -0.002184   0.431809  -0.005058
 183  13   6.496075  -0.016383  -1.653731  -0.001210   0.412182  -0.002936
 184  13   8.252488   0.056439  -1.181113  -0.001326   0.431809  -0.003070
 185  14   8.989432  -1.632719   4.630068  -0.002597   0.471065  -0.005514
 186  14  10.000268  -0.543320   3.002465  -0.000976   0.353299  -0.002763
 187  14   9.118120  -1.854966   2.877698  -0.001011   0.392554  -0.002576
 188  14   7.670153  -2.190044   4.459465  -0.000973   0.372926  -0.002609
 189  14   7.849370  -0.603052   5.788097  -0.000975   0.392554  -0.002484
 190  14   9.752464  -0.720173   4.446843  -0.002328   0.412182  -0.005648
 191  14   9.686167  -1.337917   3.408760  -0.001490   0.372926  -0.003995
 192  14   8.339948  -2.315726   3.567454  -0.001348   0.431809  -0.003122
 193  14   7.765625  -1.587458   5.263286  -0.001402   0.431809  -0.003246
 194  14   8.868762  -0.496222   5.490535  -0.002110   0.412182  -0.005119
 195  15   2.774427  -1.554522   2.849514  -0.002452   0.392554  -0.006246
 196  15   3.543217  -1.150885   4.343447  -0.000469   0.255160  -0.001836
 197  15   3.880489  -2.197750   2.745337  -0.000698   0.294415  -0.002370
 198  15   3.478905  -1.460395   0.965181  -0.000538   0.235532  -0.002285
 199  15   2.872915  -0.803962   4.073654  -0.001562   0.314043  -0.004975
 200  15   3.565181  -1.820853   3.604667  -0.001072   0.353299  -0.003033
 201  15   3.628462  -2.035125   1.842403  -0.000963   0.314043  -0.003066
 202  15   2.921702  -1.492489   1.597613  -0.001228   0.215905  -0.005686
 203  16  11.887739   2.880775   5.551265  -0.002513   0.451437  -0.005566
 204  16  10.505500   3.489742   6.822628  -0.000789   0.353299  -0.002233
 205  16  12.033015   4.279550   5.710638  -0.001557   0.372926  -0.004174
 206  16  12.171261   3.100274   3.843745  -0.001011   0.353299  -0.002862
 207  16  10.272035   2.489451   6.439121  -0.002365   0.490692  -0.004820
 208  16  11.418417   3.775057   6.429168  -0.001849   0.451437  -0.004097
 209  16  12.380936   3.753676   4.718402  -0.001489   0.451437  -0.003298
 210  16  11.704378   2.265846   4.036351  -0.002375   0.471065  -0.005042
 211  16  11.214186   2.110984   5.537814  -0.002678   0.431809  -0.006202
 212  17  10.326764   6.261311  -0.403086  -0.002384   0.451437  -0.005282
 213  17   9.374383   7.670364   0.399542  -0.001072   0.392554  -0.002731
 214  17  11.025866   4.678935   0.281228  -0.001121   0.372926  -0.003005
 215  17  11.253774   6.643508   0.803604  -0.001114   0.412182  -0.002703
 216  17   9.164941   6.943682  -0.360984  -0.002271   0.431809  -0.005260
 217  17   9.319517   5.622384  -0.772107  -0.002711   0.431809  -0.006279
 218  17  10.172466   4.799321  -0.443439  -0.002297   0.412182  -0.005572
 219  17  11.250066   5.660679   0.300187  -0.001615   0.431809  -0.003740
 220  17  10.445182   7.323054   0.457432  -0.001547   0.431809  -0.003584
 221  18  12.138590   9.303789   5.191027  -0.008777   0.471065  -0.018632
 222  18  10.919763   8.945577   7.238121  -0.006026   0.451437  -0.013349
 223  18  10.319841  10.571820   5.533056  -0.006769   0.471065  -0.014369
 224  18  10.832332   9.669466   3.367285  -0.006207   0.471065  -0.013177
 225  18  12.278751   8.383228   4.338979  -0.005855   0.353299  -0.016572
 226  18  12.003647   7.474821   6.272801  -0.005751   0.353299  -0.016277
 227  18  11.419689   9.834782   6.185263  -0.008593   0.490692  -0.017511
 228  18  11.376283  10.139775   4.696379  -0.008484   0.490692  -0.017290
 229  18  11.762575   9.034784   3.684506  -0.007419   0.451437  -0.016433
 230  18  12.385548   7.861592   5.290492  -0.007503   0.412182  -0.018202
 231  18  11.986675   8.656593   6.409868  -0.007800   0.451437  -0.017278
 232  18  10.325642  10.011939   6.705742  -0.005306   0.412182  -0.012874
 233  18  10.286518  10.463627   4.272108  -0.004493   0.372926  -0.012048
 234  18  11.335690   7.684928   7.084106  -0.004432   0.392554  -0.011290
 235   1   2.237952   5.955671  -1.250650   0.000035   0.027913   0.001258
 236   2   1.797678   5.738827  -1.159461   0.000062   0.027913   0.002213
 237   7   2.490818   5.895551  -1.409781   0.000013   0.027913   0.000456
 238   1   2.356940   7.271914   4.838810   0.000038   0.027671   0.001360
 239   2   1.913350   7.043831   4.858400   0.000063   0.027671   0.002290
 240   8   2.471212   7.532811   4.736336   0.000016   0.027671   0.000594
 241   1   1.583117   8.223219   1.858771   0.000055   0.027671   0.001996
 242   2   1.149647   7.982694   1.917334   0.000110   0.027671   0.003966
 243   8   1.766712   8.398893   2.023263   0.000012   0.027671   0.000445
 244   1   2.189939   6.631513   5.226339   0.000040   0.026469   0.001494
 245   2   1.731706   6.453963   5.313736   0.000013   0.026469   0.000483
 246   9   1.588479   6.259443   5.497073  -0.000024   0.026469  -0.000910
 247   1   1.169444   7.865250   1.255624   0.000098   0.024609   0.003984
 248   2   0.699838   7.701940   1.299122   0.000051   0.024609   0.002058
 249  10   0.457271   7.618813   1.139467   0.000006   0.024609   0.000237
 250   1   1.682671   6.140677  -0.974804   0.000053   0.024609   0.002139
 251   2   1.220113   5.953682  -0.961939   0.000029   0.024609   0.001170
 252  10   0.930680   6.028038  -0.917916   0.000003   0.024609   0.000107
 253   2   1.734177   6.702450   5.163247   0.000145   0.072826   0.001990
 254   1   2.349952   7.054467   5.034825   0.000164   0.072826   0.002255
 255   2   0.809812   7.852312   1.655353   0.000238   0.083247   0.002862
 256   1   1.456602   8.123467   1.481980   0.000246   0.083247   0.002952
 257   2   1.390096   5.847518  -1.077651   0.000116   0.046394   0.002508
 258   1   2.057781   6.091467  -1.176390   0.000115   0.046394   0.002483
 259   1   6.673593   8.212349   1.368760   0.000625   0.113686   0.005499
 260   5   7.486989   8.252810   1.592761   0.000734   0.113686   0.006454
 261   6   7.466494   8.574818   1.940766   0.001453   0.113686   0.012785
 262   1   6.923521   7.646712   0.626590   0.000132   0.067531   0.001948
 263   5   7.736698   7.689474   0.845051  -0.000038   0.067531  -0.000560
 264  17   7.923935   7.554756   0.644343  -0.000155   0.067531  -0.002292
 265   5   7.588339   7.996044   1.054291   0.000421   0.170706   0.002466
 266   1   6.418685   8.103330   0.765045   0.000476   0.170706   0.002791
 267   1   5.885224   8.641398   1.585685   0.000209   0.090434   0.002317
 268   6   6.664146   8.887145   2.231321   0.001715   0.090434   0.018961
 269   8   5.750795   8.821936   1.793075   0.000138   0.090434   0.001522
 270   1   3.973716   7.393570   5.298781   0.000232   0.090434   0.002566
 271   6   4.873728   7.718364   5.709200   0.001714   0.090434   0.018954
 272   8   4.000623   7.679428   5.192777   0.000108   0.090434   0.001189
 273   1   4.240403   6.473627   5.801470   0.000707   0.209255   0.003378
 274   6   5.116253   6.833010   6.248664   0.003150   0.209255   0.015053
 275  12   4.577113   6.014754   6.296591   0.000384   0.209255   0.001837
 276   6   7.340697   8.975958   2.099511   0.001893   0.163800   0.011556
 277   1   6.146304   8.589282   1.282067   0.000690   0.183506   0.003758
 278   6   5.160726   7.627270   6.280962   0.002914   0.183562   0.015877
 279   1   3.940662   7.011964   5.664714   0.000729   0.205644   0.003543
 280   1   6.487957   7.170355  -0.196477   0.000133   0.087963   0.001513
 281   7   6.427670   7.001042  -0.446207  -0.000076   0.087963  -0.000866
 282  17   7.460366   6.988796  -0.025336   0.000039   0.087963   0.000448
 283   7   2.878368   6.231915  -1.564970  -0.000049   0.067450  -0.000721
 284   7   3.568768   7.043043  -1.371801  -0.000183   0.148661  -0.001234
 285   7   4.769475   7.461738  -1.053965  -0.000060   0.148661  -0.000402
 286   7   5.798313   7.250120  -0.792039  -0.000049   0.067450  -0.000724
 287   1   2.832250   6.709999  -1.219111  -0.000048   0.148938  -0.000324
 288   1   3.970274   7.591960  -0.909010   0.000194   0.148938   0.001302
 289   1   5.396148   7.604048  -0.540428   0.000147   0.148938   0.000984
 290   8   5.128377   8.950570   1.364915   0.000013   0.076511   0.000169
 291   8   3.940432   9.019093   1.074503  -0.000204   0.174008  -0.001175
 292   8   2.558970   8.834310   1.550852  -0.000333   0.174008  -0.001915
 293   1   4.774747   8.745978   0.887570   0.000143   0.163987   0.000872
 294   1   3.121961   8.718530   0.861466   0.000051   0.163987   0.000309
 295   1   1.988187   8.469084   1.553433   0.000008   0.093475   0.000081
 296   8   3.023189   7.762923   4.879808  -0.000102   0.089119  -0.001147
 297   1   3.109745   7.345868   5.085909   0.000013   0.108878   0.000118
 298   1   3.092019   5.886727   5.752383   0.000095   0.166847   0.000569
 299   9   2.449080   5.522412   5.936833  -0.000098   0.166847  -0.000587
 300  12   3.476344   5.415932   6.194033  -0.000105   0.166847  -0.000628
 301   9   1.757727   5.875880   5.854204  -0.000246   0.162811  -0.001511
 302   1   2.590751   6.540290   5.459201   0.000435   0.229393   0.001897
 303  10   0.364128   7.528041   0.717355  -0.000135   0.192744  -0.000698
 304  10   0.616755   6.751674  -0.396876  -0.000863   0.393406  -0.002194
 305   1   1.527610   7.629630   0.307122   0.000945   0.529052   0.001786
 306   1   1.803713   6.635777  -0.877900   0.000716   0.271400   0.002637
 307  12   4.126465   5.604190   6.476598  -0.000148   0.083971  -0.001760
 308   1   3.517725   6.251595   5.803322   0.000222   0.118467   0.001870
 309  17   8.051398   7.343171   0.181930  -0.000212   0.175882  -0.001204
 310   1   6.596773   7.646183   0.137262   0.000688   0.249896   0.002754
 311   2   3.187321   2.704688  -0.834336   0.000242   0.206991   0.001167
 312   4   4.063227   2.190957  -0.789948   0.000291   0.206991   0.001406
 313   7   3.794406   3.082775  -1.093836  -0.000059   0.206991  -0.000287
 314   2   2.562816   1.885847  -0.563655  -0.000085   0.085432  -0.000996
 315   4   3.437677   1.387355  -0.477083   0.000150   0.085432   0.001752
 316  11   2.495362   1.604432  -0.467619  -0.000155   0.085432  -0.001818
 317   2   2.748225   1.719165   5.256974   0.000262   0.205860   0.001273
 318   4   3.605418   1.174484   5.295668   0.000146   0.205860   0.000711
 319  12   3.590099   1.773363   5.756376  -0.000118   0.205860  -0.000571
 320   2   2.479095   1.045606   4.728822   0.000108   0.084532   0.001283
 321   4   3.317839   0.486747   4.803515  -0.000139   0.084532  -0.001642
 322  15   3.118052   0.336509   4.630064  -0.000179   0.084532  -0.002116
 323   4   3.437147   0.665346   5.158329   0.000284   0.129789   0.002189
 324   2   2.168545   1.355014   5.099742   0.000394   0.129789   0.003033
 325   4   3.950726   1.407689  -0.816981   0.000559   0.187597   0.002982
 326   2   2.771278   2.245511  -0.862304   0.000400   0.187597   0.002134
 327   7   3.467978   3.716254  -1.532721  -0.000215   0.199180  -0.001081
 328   7   2.864554   5.015399  -1.671247  -0.000874   0.407742  -0.002143
 329   2   2.252352   3.737917  -1.315120   0.000899   0.545586   0.001648
 330   2   1.641657   5.255872  -1.348156   0.000745   0.280593   0.002657
 331   8   1.820894   8.529683   2.489118  -0.000169   0.213401  -0.000792
 332   8   2.126411   8.125666   3.936853  -0.001085   0.438854  -0.002472
 333   2   0.963723   7.812732   3.046592   0.001037   0.582587   0.001779
 334   2   1.438752   7.254646   4.628958   0.000728   0.300605   0.002423
 335   2   2.109775   2.168042   5.572269   0.000058   0.085930   0.000673
 336   9   1.951839   2.352034   5.759334  -0.000109   0.085930  -0.001267
 337  12   2.991817   2.306842   5.961619   0.000089   0.085930   0.001035
 338   9   1.051377   6.220266   5.608077  -0.000102   0.071701  -0.001416
 339   9  -0.052938   6.174886   5.285816  -0.000270   0.160384  -0.001683
 340   9  -1.157047   5.392047   4.971351  -0.000132   0.160384  -0.000820
 341   9  -1.546495   4.061957   4.871487  -0.000256   0.160384  -0.001597
 342   9  -1.048569   2.774493   5.030511  -0.000312   0.160384  -0.001948
 343   9   0.115910   2.100629   5.377899  -0.000145   0.160384  -0.000903
 344   9   1.219591   2.161314   5.699815  -0.000056   0.071701  -0.000781
 345   2   0.735796   6.490337   5.163323  -0.000141   0.156075  -0.000904
 346   2  -0.713231   6.090596   4.744037   0.000151   0.156075   0.000965
 347   2  -1.602671   4.832309   4.497296   0.000100   0.156075   0.000639
 348   2  -1.538070   3.273508   4.532527  -0.000034   0.156075  -0.000217
 349   2  -0.548078   2.105502   4.834105   0.000042   0.156075   0.000271
 350   2   0.928258   1.846285   5.268284   0.000069   0.156075   0.000440
 351  10   0.476047   5.768872  -1.056818  -0.000088   0.069882  -0.001255
 352  10  -0.136031   4.824208  -1.127472  -0.000318   0.155680  -0.002042
 353  10  -1.107181   4.025253  -0.602814  -0.000182   0.155680  -0.001167
 354  10  -1.977648   3.940768   0.442116  -0.000299   0.155680  -0.001923
 355  10  -2.376460   4.606759   1.561997  -0.000310   0.155680  -0.001992
 356  10  -2.133656   5.739398   2.279564  -0.000157   0.155680  -0.001005
 357  10  -1.352712   6.855984   2.289011  -0.000184   0.155680  -0.001180
 358  10  -0.366445   7.480658   1.586310  -0.000283   0.155680  -0.001818
 359   2   0.623678   5.193228  -1.147210  -0.000185   0.152681  -0.001213
 360   2  -0.344286   4.021593  -0.965722   0.000022   0.152681   0.000141
 361   2  -1.438519   3.496680  -0.033120  -0.000019   0.152681  -0.000122
 362   2  -2.192685   3.842193   1.253144  -0.000040   0.152681  -0.000265
 363   2  -2.285381   4.910884   2.344900   0.000003   0.152681   0.000021
 364   2  -1.677101   6.247305   2.776869   0.000133   0.152681   0.000868
 365   2  -0.627078   7.281908   2.364959   0.000065   0.152681   0.000427
 366   2   0.254033   7.654826   1.568727   0.000056   0.085377   0.000661
 367   2   1.212182   0.476013   3.629007  -0.000079   0.070330  -0.001130
 368  11   1.245320   0.295682   3.386719  -0.000268   0.070330  -0.003806
 369  15   1.975881  -0.094180   3.514049  -0.000449   0.070330  -0.006386
 370  11   0.619298   0.430219   3.294022  -0.000099   0.068723  -0.001445
 371  11  -0.260882   0.644887   2.650302  -0.000275   0.152616  -0.001799
 372  11  -0.752884   1.031191   1.461074  -0.000321   0.152616  -0.002103
 373  11  -0.381645   1.422939   0.230517  -0.000207   0.152616  -0.001358
 374  11   0.699262   1.658074  -0.532314  -0.000212   0.152616  -0.001389
 375  11   1.805396   1.681842  -0.637568  -0.000153   0.068723  -0.002222
 376   2   0.127928   0.756697   3.381618   0.000018   0.150592   0.000118
 377   2  -0.847127   1.116982   2.287063  -0.000007   0.150592  -0.000046
 378   2  -0.918764   1.578524   0.851641  -0.000089   0.150592  -0.000590
 379   2  -0.057347   1.950393  -0.330841   0.000095   0.150592   0.000630
 380   2   1.380771   2.078753  -0.771214  -0.000090   0.150592  -0.000596
 381  12   3.491650   2.041083   6.194468  -0.000013   0.056338  -0.000226
 382   2   2.230546   1.861990   5.525770   0.000253   0.079839   0.003169
 383  15   2.711340  -0.055775   4.257535  -0.001263   0.370979  -0.003405
 384   2   1.503923   0.728446   4.288567   0.001103   0.524116   0.002104
 385   3   6.769275   1.603688   6.483310   0.000005   0.029118   0.000155
 386   4   6.804993   1.160787   6.255060   0.000041   0.029118   0.001402
 387  12   6.561513   1.743359   6.656864  -0.000014   0.029118  -0.000467
 388   3   7.417759   1.319828   6.131592   0.000002   0.024080   0.000073
 389   4   7.477212   0.847433   5.980907  -0.000009   0.024080  -0.000357
 390  14   7.682217   0.640278   5.901897  -0.000043   0.024080  -0.001798
 391   4   7.216354   0.902782   6.110376   0.000128   0.078088   0.001642
 392   3   7.060473   1.543559   6.404440   0.000096   0.078088   0.001224
 393   3   7.532577   2.842890   6.838108  -0.000027   0.031649  -0.000848
 394   5   7.963512   3.090323   6.816033  -0.000019   0.031649  -0.000607
 395  12   7.276495   2.904389   6.991427  -0.000044   0.031649  -0.001376
 396   3   8.197692   2.529276   6.448199  -0.000055   0.028310  -0.001957
 397   5   8.646538   2.737970   6.496051  -0.000076   0.028310  -0.002691
 398  16   8.934145   2.659829   6.437960  -0.000103   0.028310  -0.003630
 399   5   8.388835   2.972734   6.725081  -0.000003   0.084485  -0.000041
 400   3   7.798701   2.566326   6.654294   0.000026   0.084485   0.000304
 401  12   6.676907   2.278931   6.998404  -0.000184   0.097237  -0.001893
 402   3   7.105300   2.326885   6.782647  -0.000140   0.118797  -0.001176
 403   3   8.129945   1.828725   6.051272  -0.000164   0.167961  -0.000978
 404  14   8.347658   1.146449   5.770899  -0.000256   0.167961  -0.001521
 405  16   8.858726   2.011327   6.006268  -0.000468   0.167961  -0.002787
 406  14   8.021040   0.595237   5.863984  -0.000155   0.084701  -0.001828
 407   3   7.599928   1.568869   6.281018   0.000187   0.119356   0.001564
 408  16   9.126358   2.497556   6.391492  -0.000175   0.065240  -0.002679
 409   3   8.052313   2.197370   6.416781   0.000083   0.092041   0.000907
 410   4   9.468323   1.917420   0.459757   0.000028   0.061843   0.000454
 411   5   9.799590   2.631460   0.719918  -0.000126   0.061843  -0.002031
 412  13   9.318038   1.903163   0.195049  -0.000096   0.061843  -0.001544
 413   4  10.260268   1.506443   2.405842  -0.000025   0.069654  -0.000356
 414   5  10.724282   2.168666   2.591052  -0.000172   0.069654  -0.002466
 415  16  10.828374   2.118450   2.873890  -0.000287   0.069654  -0.004122
 416   5  10.542601   2.438873   1.774581  -0.000529   0.515292  -0.001027
 417   4   9.863214   1.600513   1.162378   0.000623   0.515292   0.001209
 418   4   4.654494   1.900905  -1.002922   0.000030   0.086294   0.000351
 419   7   4.436526   2.832479  -1.182906   0.000084   0.086294   0.000970
 420  13   4.913406   1.897789  -1.166998  -0.000151   0.086294  -0.001749
 421   7   4.065825   3.226999  -1.405223   0.000004   0.013616   0.000316
 422   4   4.416725   1.876596  -1.060669   0.000086   0.019295   0.004479
 423   4   3.388357  -0.229315   0.233384  -0.000097   0.069591  -0.001398
 424  11   2.502926   0.152167   0.312831  -0.000424   0.069591  -0.006097
 425  15   3.175829  -0.334738   0.422171  -0.000299   0.069591  -0.004290
 426  11   2.292496   0.987482  -0.276319  -0.001236   0.373080  -0.003313
 427   4   3.567196   0.295335  -0.288366   0.001084   0.527425   0.002055
 428  12   4.211552   1.631137   6.294931  -0.000247   0.196411  -0.001257
 429  12   5.582106   1.617683   6.702680  -0.000929   0.402047  -0.002310
 430   4   4.851108   0.667708   5.884067   0.000798   0.538162   0.001483
 431   4   6.430344   0.769655   6.258039   0.000654   0.276795   0.002363
 432  13   9.218589   1.286851  -0.129615  -0.000104   0.070563  -0.001473
 433  13   8.878750   0.214656  -0.269622  -0.000216   0.157229  -0.001375
 434  13   7.874091  -0.659800  -0.586792  -0.000303   0.157229  -0.001925
 435  13   6.556142  -0.695586  -0.956033  -0.000339   0.157229  -0.002158
 436  13   5.490317   0.122650  -1.218935  -0.000233   0.157229  -0.001481
 437  13   5.073733   1.174307  -1.290850  -0.000143   0.070563  -0.002020
 438   4   9.270798   0.792342   0.213223   0.000054   0.154164   0.000353
 439   4   8.518884  -0.522703  -0.051995   0.000050   0.154164   0.000322
 440   4   7.138350  -1.063741  -0.459991  -0.000096   0.154164  -0.000622
 441   4   5.721459  -0.598661  -0.835730  -0.000002   0.154164  -0.000012
 442   4   4.876074   0.673013  -1.018016  -0.000014   0.154164  -0.000093
 443   4  10.094508   0.838977   2.689255  -0.000018   0.084277  -0.000209
 444  14  10.097582   0.640047   2.920451  -0.000165   0.084277  -0.001959
 445  16  10.537323   1.532967   3.176805  -0.000175   0.084277  -0.002075
 446  14   7.656477   0.110632   5.881540  -0.000141   0.066936  -0.002107
 447  14   7.113313  -0.789726   5.620407  -0.000309   0.147800  -0.002093
 448  14   6.902651  -1.790800   4.799620  -0.000197   0.147800  -0.001333
 449  14   7.297684  -2.330311   3.671306  -0.000313   0.147800  -0.002121
 450  14   8.143522  -2.196722   2.677863  -0.000320   0.147800  -0.002163
 451  14   9.108522  -1.442413   2.208811  -0.000242   0.147800  -0.001637
 452  14   9.814317  -0.363140   2.448060  -0.000209   0.147800  -0.001414
 453   4   7.079066  -0.005614   5.861421  -0.000208   0.147494  -0.001409
 454   4   6.520402  -1.230815   5.262649  -0.000029   0.147494  -0.000196
 455   4   6.629465  -2.142136   4.109674  -0.000011   0.147494  -0.000077
 456   4   7.363492  -2.382256   2.854566  -0.000081   0.147494  -0.000552
 457   4   8.434679  -1.857027   1.989439  -0.000160   0.147494  -0.001082
 458   4   9.423024  -0.772386   1.853501   0.000014   0.147494   0.000092
 459   4   9.937079   0.226748   2.262922   0.000067   0.081777   0.000819
 460  15   3.575455  -0.836008   0.453564  -0.000152   0.067752  -0.002246
 461  15   4.061993  -1.657744   0.996686  -0.000359   0.150132  -0.002391
 462  15   4.430361  -2.208615   2.148650  -0.000366   0.150132  -0.002437
 463  15   4.402267  -2.031435   3.465461  -0.000222   0.150132  -0.001480
 464  15   3.989076  -1.197873   4.414472  -0.000360   0.150132  -0.002396
 465  15   3.484852  -0.264598   4.700316  -0.000137   0.067752  -0.002023
 466   4   4.100455  -1.101537   0.383875  -0.000070   0.148766  -0.000473
 467   4   4.683584  -2.053656   1.375184  -0.000140   0.148766  -0.000944
 468   4   4.885194  -2.275066   2.837920  -0.000120   0.148766  -0.000804
 469   4   4.623736  -1.676207   4.180407  -0.000024   0.148766  -0.000159
 470   4   4.004967  -0.499317   4.859612  -0.000231   0.148766  -0.001550
 471  16  10.981206   1.951385   3.145230  -0.000155   0.083226  -0.001867
 472   4  10.258026   1.009588   2.377443   0.000337   0.117761   0.002861
 473   5   7.826209   4.675990   7.300714   0.000596   0.095179   0.006258
 474   6   7.796082   5.129209   7.434469   0.001465   0.095179   0.015397
 475  12   7.148519   4.401875   7.363440   0.000192   0.095179   0.002015
 476   5  10.955094   5.877008   6.533572  -0.000124   0.038658  -0.003215
 477   6  10.871741   6.289807   6.745668  -0.000128   0.038658  -0.003313
 478  18  11.079782   6.518443   6.655487  -0.000372   0.038658  -0.009615
 479   5  10.012535   8.481850   2.245054  -0.000082   0.038658  -0.002108
 480   6   9.946848   8.845827   2.537529  -0.000107   0.038658  -0.002765
 481  18  10.211751   8.917321   2.706062  -0.000401   0.038658  -0.010368
 482   6   9.450395   8.875301   2.308227   0.000719   0.157234   0.004573
 483   6   8.239385   8.891465   2.102542   0.002087   0.157234   0.013273
 484   5   8.912658   8.376562   1.766557   0.001369   0.338001   0.004050
 485   6   8.688095   5.505644   7.561463   0.003186   0.229241   0.013898
 486   6  10.317377   5.959227   7.081181   0.001376   0.229241   0.006003
 487   5   9.577262   5.142054   7.016577   0.003121   0.496543   0.006286
 488  12   7.026856   3.341210   7.269256  -0.000613   0.253102  -0.002422
 489   5   7.987283   3.903664   7.173840   0.000341   0.356814   0.000956
 490   5   9.979658   3.198637   0.601124  -0.000279   0.088074  -0.003167
 491  13   9.365972   2.501914   0.184317  -0.000056   0.088074  -0.000633
 492  17   9.972214   3.441263   0.413211  -0.000378   0.088074  -0.004292
 493  13   9.306000   1.909855  -0.076121   0.000030   0.038087   0.000795
 494   5  10.134346   2.945717   0.629602   0.000101   0.054214   0.001866
 495   5  11.812966   5.665772   5.463442  -0.000184   0.018214  -0.010114
 496  16  11.825340   5.365282   5.499992  -0.000114   0.018214  -0.006268
 497  18  11.798302   6.308103   5.628031  -0.000423   0.018214  -0.023206
 498   5  11.132062   5.535263   6.343440  -0.000111   0.018214  -0.006116
 499  16  11.212746   5.247866   6.291706  -0.000127   0.018214  -0.006966
 500  18  11.194429   6.192358   6.408473  -0.000171   0.018214  -0.009404
 501  16  11.369443   2.530455   3.036200  -0.000252   0.070683  -0.003566
 502  16  11.993632   3.433497   3.324391  -0.000534   0.157536  -0.003391
 503  16  12.280982   4.410765   4.241880  -0.000615   0.157536  -0.003901
 504  16  12.062356   4.887026   5.248622  -0.000288   0.070683  -0.004069
 505   5  11.512871   3.040135   2.744573  -0.000376   0.154389  -0.002438
 506   5  12.176327   4.258678   3.412441  -0.000329   0.154389  -0.002134
 507   5  12.122688   5.114100   4.691675  -0.000628   0.154389  -0.004070
 508  16  11.078504   4.685536   6.502097  -0.000302   0.078727  -0.003842
 509  16  10.159667   3.902376   6.841187  -0.000811   0.180125  -0.004505
 510  16   9.407574   2.919177   6.640536  -0.000249   0.078727  -0.003158
 511   5  10.487431   4.748689   6.732425  -0.000554   0.167858  -0.003302
 512   5   9.328089   3.523136   6.828478  -0.000593   0.167858  -0.003530
 513  17   8.613672   7.736526   0.676878  -0.000221   0.071973  -0.003070
 514  17   9.688921   7.852176   1.075261  -0.000698   0.160938  -0.004338
 515  17  10.909770   7.252133   1.365719  -0.000810   0.160938  -0.005032
 516  17  11.548771   6.017670   1.314035  -0.000598   0.160938  -0.003719
 517  17  11.322536   4.696255   0.943130  -0.000537   0.160938  -0.003334
 518  17  10.593212   3.912325   0.516767  -0.000367   0.071973  -0.005103
 519   5   8.847197   7.992179   1.178729  -0.000486   0.156733  -0.003103
 520   5  10.325343   7.813788   1.651716  -0.000708   0.156733  -0.004520
 521   5  11.432917   6.721307   1.793910  -0.000598   0.156733  -0.003814
 522   5  11.678727   5.199235   1.542250  -0.000372   0.156733  -0.002376
 523   5  10.953758   3.922591   1.008345  -0.000541   0.156733  -0.003449
 524  18  11.262343   6.587869   6.647277  -0.000077   0.021718  -0.003547
 525   5  11.116256   5.670611   6.466038  -0.000007   0.026533  -0.000281
 526  18  12.066913   6.829642   5.434356  -0.002910   0.202936  -0.014339
 527  18  12.065859   7.498967   4.112126  -0.007900   0.423944  -0.018636
 528  18  11.111376   8.503959   2.997255  -0.005968   0.423944  -0.014077
 529   5  12.045702   6.223749   4.523504  -0.004077   0.478201  -0.008526
 530   5  11.600196   7.261912   2.878115  -0.003932   0.478201  -0.008223
 531   5  10.466543   8.167191   2.124036  -0.000595   0.247931  -0.002399
 532   8   3.985469   8.155268   5.138047   0.000568   0.244623   0.002323
 533   8   4.342215   9.099226   4.396012   0.000444   0.492130   0.000903
 534   8   5.009136   9.534591   3.100520   0.000485   0.492130   0.000986
 535   8   5.581091   9.196887   2.038557   0.000598   0.244623   0.002444
 536   6   5.299706   8.712891   5.714434   0.009980   0.604054   0.016522
 537   6   5.899035   9.705764   4.508733   0.010712   0.604054   0.017734
 538   6   6.680450   9.614238   3.032344   0.009940   0.604054   0.016455
 539  12   6.618945   4.420558   7.641743   0.000129   0.229110   0.000561
 540  12   5.660972   5.161072   7.509799   0.000313   0.461053   0.000679
 541  12   4.798557   5.766162   6.898578   0.000411   0.229110   0.001794
 542   6   7.123513   5.810155   7.712879   0.007828   0.563411   0.013894
 543   6   5.879358   6.729816   7.204958   0.008233   0.563411   0.014614
 544  18  10.198139   9.405072   3.001746  -0.000498   0.083867  -0.005938
 545  18   9.761193  10.196621   3.857917  -0.001593   0.182367  -0.008737
 546  18   9.509481  10.512108   5.311786  -0.001979   0.182367  -0.010854
 547  18   9.685793   9.939636   6.696639  -0.002024   0.182367  -0.011096
 548  18  10.214511   8.724737   7.418515  -0.001736   0.182367  -0.009517
 549  18  10.868868   7.388478   7.167802  -0.001574   0.182367  -0.008629
 550   6   9.606905   9.661510   3.129634  -0.000423   0.179378  -0.002358
 551   6   9.135477  10.453598   4.476776  -0.000656   0.179378  -0.003654
 552   6   9.092312  10.306481   6.101870  -0.001221   0.179378  -0.006808
 553   6   9.495924   9.283257   7.307918  -0.001038   0.179378  -0.005787
 554   6  10.173203   7.822786   7.577646  -0.000574   0.179378  -0.003202
 555   6  10.734147   6.716533   7.094384  -0.000294   0.096025  -0.003062
 556   7   6.904696   4.514398  -0.987904  -0.000440   0.331120  -0.001330
 557  13   7.425586   3.592236  -0.898017  -0.000613   0.331120  -0.001851
 558  17   7.963062   4.569465  -0.600580  -0.000698   0.331120  -0.002108
 559  13   5.169209   1.982897  -1.537616   0.000190   0.246461   0.000773
 560  13   6.142285   2.515495  -1.758918  -0.000691   0.492864  -0.001402
 561  13   7.090280   3.077643  -1.504342  -0.000261   0.246461  -0.001058
 562   7   4.798306   3.480963  -1.770644  -0.000276   0.492864  -0.000560
 563   7   5.996756   4.163914  -1.749886  -0.000625   0.492864  -0.001269
 564  17   8.303060   5.347993  -0.840572  -0.000325   0.276177  -0.001176
 565  17   8.139439   6.493513  -0.537352  -0.000799   0.552194  -0.001447
 566   7   6.743399   5.719025  -1.276459  -0.000341   0.552194  -0.000617
 567   7   6.547645   6.828735  -0.875021   0.000386   0.276177   0.001399
 568  12   3.535126   5.111280   6.753019   0.000077   0.245257   0.000316
 569  12   3.345937   4.057356   7.070029  -0.000436   0.490415  -0.000888
 570  12   3.289514   2.735870   6.741943  -0.000254   0.490415  -0.000519
 571   9   1.994012   4.871185   6.536186  -0.000379   0.490415  -0.000773
 572   9   1.824665   3.523809   6.650427  -0.000427   0.490415  -0.000872
 573   9   1.839499   2.516660   6.168271   0.000271   0.245257   0.001107
 574  15   2.172472  -0.656920   3.335609  -0.000892   0.200842  -0.004441
 575  15   2.235395  -0.977461   2.252695  -0.002391   0.402051  -0.005947
 576  15   2.690770  -0.761485   0.965739  -0.001752   0.402051  -0.004357
 577  11   1.193675  -0.172732   2.684684  -0.001679   0.402051  -0.004175
 578  11   1.424673  -0.334258   1.331607  -0.002300   0.402051  -0.005720
 579  11   1.893720   0.028484   0.368372  -0.000833   0.200842  -0.004148
 580  17   9.965632   3.617617  -0.023803  -0.000108   0.272849  -0.000395
 581  17   9.156892   4.229076  -0.592649  -0.001106   0.545425  -0.002028
 582  13   8.907350   2.462016  -0.670106  -0.000466   0.545425  -0.000854
 583  13   8.045519   3.077081  -1.150179  -0.000182   0.272849  -0.000666
 584  16   9.491205   1.865285   6.101181  -0.000228   0.255675  -0.000893
 585  16  10.384425   1.529506   5.391021  -0.001400   0.511433  -0.002738
 586  16  10.945261   1.557594   4.057866  -0.001308   0.511433  -0.002557
 587  14   9.120669   0.489936   5.522958  -0.000891   0.511433  -0.001741
 588  14  10.039853   0.240819   4.434074  -0.001027   0.511433  -0.002008
 589  14  10.284636   0.406647   3.281903   0.000051   0.255675   0.000198
 590  18  11.604312   6.509576   6.267961  -0.002255   0.316479  -0.007124
 591  16  11.722039   5.189691   5.907863  -0.000647   0.316479  -0.002045
 =====================================================

              3173564  WORDS OF DYNAMIC MEMORY USED
 EXECUTION OF GAMESS TERMINATED NORMALLY Wed Nov 23 07:21:25 2016
 DDI: 263640 bytes (0.3 MB / 0 MWords) used by master data server.

 ----------------------------------------
 CPU timing information for all processes
 ========================================
 0: 1561.172 + 0.544 = 1561.716
 ----------------------------------------
 ddikick.x: exited gracefully.
