----- GAMESS execution script -----

          ******************************************************
          *         GAMESS VERSION =  5 DEC 2014 (R1)          *
          *             FROM IOWA STATE UNIVERSITY             *
          * M.W.SCHMIDT, K.K.BALDRIDGE, J.A.BOATZ, S.T.ELBERT, *
          *   M.S.GORDON, J.H.JENSEN, S.KOSEKI, N.MATSUNAGA,   *
          *          K.A.NGUYEN, S.J.SU, T.L.WINDUS,           *
          *       TOGETHER WITH M.DUPUIS, J.A.MONTGOMERY       *
          *         J.COMPUT.CHEM.  14, 1347-1363(1993)        *
          **************** 64 BIT LINUX VERSION ****************

 EXECUTION OF GAMESS BEGUN Wed Nov 23 06:52:20 2016

            ECHO OF THE FIRST FEW INPUT CARDS -
 INPUT CARD>! SELECT RESTRICTED HARTREE-FOCK AS DEFAULT                                     
 INPUT CARD>$contrl scftyp=rhf $end                                                         
 INPUT CARD>                                                                                
 INPUT CARD>! THEORY: HF OR DFT                                                             
 INPUT CARD> $contrl mplevl=0 $end                                                          
 INPUT CARD>                                                                                
 INPUT CARD> $system timlim=10000 mwords=20 $end                                            
 INPUT CARD> $SCF DIRSCF=.TRUE. $end                                                        
 INPUT CARD>                                                                                
 INPUT CARD>                                                                                
 INPUT CARD>! BASIS SETS                                                                    
 INPUT CARD>! 6-311G(d,p)                                                                   
 INPUT CARD> $BASIS GBASIS=N311 NGAUSS=6 NDFUNC=1 NPFUNC=1 $END                             
 INPUT CARD>                                                                                
 INPUT CARD>! One of the following                                                          
 INPUT CARD> $guess guess=HUCKEL $end                                                       
 INPUT CARD>                                                                                
 INPUT CARD> $statpt projct=.FALSE. $end                                                    
 INPUT CARD> $STATPT IFREEZ(1)=1,2,3 $END                                                   
 INPUT CARD>                                                                                
 INPUT CARD>! Optimize the geometry with COSMO effects                                      
 INPUT CARD> $statpt opttol=0.0005 nstep=50 $end                                            
 INPUT CARD> $contrl nzvar=1 $end                                                           
 INPUT CARD> $zmat dlc=.t. auto=.t. $end                                                    
 INPUT CARD> $contrl runtyp=OPTIMIZE maxit=200 $end                                         
 INPUT CARD>                                                                                
 INPUT CARD>! Run COSMO on perfect conductor                                                
 INPUT CARD> $COSGMS PRFCND=.TRUE. $end                                                     
 INPUT CARD>                                                                                
 INPUT CARD>! Specifying RSOLV                                                              
 INPUT CARD> $COSGMS COSRAD = 1.4 $end                                                      
 INPUT CARD>                                                                                
 INPUT CARD>! available memory                                                              
 INPUT CARD> $SYSTEM MWORDS=40 $END                                                         
 INPUT CARD>                                                                                
 INPUT CARD> $DATA                                                                          
 INPUT CARD>1,3-Butadiene, 2-methyl-, ID: C78795                                            
 INPUT CARD>C1                                                                              
 INPUT CARD>C      6.0      1.8461000000    2.1459000000    1.0538000000                    
 INPUT CARD>C      6.0      3.2546000000    2.1159000000    1.4485000000                    
 INPUT CARD>C      6.0      4.0054000000    0.8839000000    1.0874000000                    
 INPUT CARD>C      6.0      3.8310000000    3.1344000000    2.0943000000                    
 INPUT CARD>C      6.0      1.0444000000    3.1790000000    1.3048000000                    
 INPUT CARD>H      1.0      1.4747000000    1.2565000000    0.5296000000                    
 INPUT CARD>H      1.0      3.9965000000    0.7286000000    0.0000000000                    
 INPUT CARD>H      1.0      3.5474000000    0.0000000000    1.5516000000                    
 INPUT CARD>H      1.0      5.0541000000    0.9239000000    1.4096000000                    
 INPUT CARD>H      1.0      4.8729000000    3.1362000000    2.3977000000                    
 INPUT CARD>H      1.0      3.2687000000    4.0322000000    2.3531000000                    
 INPUT CARD>H      1.0      1.4005000000    4.0690000000    1.8248000000                    
   40000000 WORDS OF MEMORY AVAILABLE

     BASIS OPTIONS
     -------------
     GBASIS=N311         IGAUSS=       6      POLAR=POPN311 
     NDFUNC=       1     NFFUNC=       0     DIFFSP=       F
     NPFUNC=       1      DIFFS=       F     BASNAM=        


     RUN TITLE
     ---------
 1,3-Butadiene, 2-methyl-, ID: C78795                                            

 THE POINT GROUP OF THE MOLECULE IS C1      
 THE ORDER OF THE PRINCIPAL AXIS IS     0

 ATOM      ATOMIC                      COORDINATES (BOHR)
           CHARGE         X                   Y                   Z
 C           6.0     3.4886231459        4.0551629971        1.9913932459
 C           6.0     6.1503021996        3.9984712174        2.7372680932
 C           6.0     7.5691084712        1.6703288005        2.0548880390
 C           6.0     7.2395402590        5.9231571359        3.9576531361
 C           6.0     1.9736298216        6.0074389150        2.4657144688
 H           1.0     2.7867789141        2.3744407036        1.0007988831
 H           1.0     7.5522899099        1.3768543547        0.0000000000
 H           1.0     6.7036139688        0.0000000000        2.9320988425
 H           1.0     9.5508641145        1.7459178401        2.6637577523
 H           1.0     9.2084457656        5.9265586427        4.5309960008
 H           1.0     6.1769473361        7.6197531277        4.4467142217
 H           1.0     2.6465612458        7.6892950440        3.4483719824
 H           1.0     0.0000000000        6.0541151469        1.9146703708

          INTERNUCLEAR DISTANCES (ANGS.)




     $CONTRL OPTIONS
     ---------------
 SCFTYP=RHF          RUNTYP=OPTIMIZE     EXETYP=RUN     
 MPLEVL=       0     CITYP =NONE         CCTYP =NONE         VBTYP =NONE    
 DFTTYP=NONE         TDDFT =NONE    
 MULT  =       1     ICHARG=       0     NZVAR =       1     COORD =UNIQUE  
 PP    =NONE         RELWFN=NONE         LOCAL =NONE         NUMGRD=       F
 ISPHER=      -1     NOSYM =       0     MAXIT =     200     UNITS =ANGS    
 PLTORB=       F     MOLPLT=       F     AIMPAC=       F     FRIEND=        
 NPRINT=       7     IREST =       0     GEOM  =INPUT   
 NORMF =       0     NORMP =       0     ITOL  =      20     ICUT  =       9
 INTTYP=BEST         GRDTYP=BEST         QMTTOL= 1.0E-06

     $SYSTEM OPTIONS
     ---------------
  REPLICATED MEMORY=    40000000 WORDS (ON EVERY NODE).
 DISTRIBUTED MEMDDI=           0 MILLION WORDS IN AGGREGATE,
 MEMDDI DISTRIBUTED OVER   1 PROCESSORS IS           0 WORDS/PROCESSOR.
 TOTAL MEMORY REQUESTED ON EACH PROCESSOR=    40000000 WORDS.
 TIMLIM=       10000.00 MINUTES, OR       6.9 DAYS.
 PARALL= F  BALTYP=  DLB     KDIAG=    0  COREFL= F
 MXSEQ2=     300 MXSEQ3=     150  mem10=         0

     $COSGMS OPTIONS
     ---------------
     EPSI  =   INFTY     NSPA  =      92     COSRAD=    1.40
     DISEX =   10.00     OUTCHG=DBLCAV       COSBUG=       F
     COSWRT=       F     DCOSMO=       F

     SYMMETRY COORDINATES WILL NOT BE USED FOR 
     THE COSMO CALCULATION, EVEN IF SPECIFIED:
         -- SWITCHING TO C1 POINT GROUP --


     DEFINITION OF CAVITY
     ---------------------------
     ATOM         COORDINATES           RADIUS 
     1    3.4886    4.0552    1.9914    2.0000
     2    6.1503    3.9985    2.7373    2.0000
     3    7.5691    1.6703    2.0549    2.0000
     4    7.2395    5.9232    3.9577    2.0000
     5    1.9736    6.0074    2.4657    2.0000
     6    2.7868    2.3744    1.0008    1.3000
     7    7.5523    1.3769    0.0000    1.3000
     8    6.7036    0.0000    2.9321    1.3000
     9    9.5509    1.7459    2.6638    1.3000
    10    9.2084    5.9266    4.5310    1.3000
    11    6.1769    7.6198    4.4467    1.3000
    12    2.6466    7.6893    3.4484    1.3000
    13    0.0000    6.0541    1.9147    1.3000

          ----------------
          PROPERTIES INPUT
          ----------------

     MOMENTS            FIELD           POTENTIAL          DENSITY
 IEMOM =       1   IEFLD =       0   IEPOT =       0   IEDEN =       0
 WHERE =COMASS     WHERE =NUCLEI     WHERE =NUCLEI     WHERE =NUCLEI  
 OUTPUT=BOTH       OUTPUT=BOTH       OUTPUT=BOTH       OUTPUT=BOTH    
 IEMINT=       0   IEFINT=       0                     IEDINT=       0
                                                       MORB  =       0
          EXTRAPOLATION IN EFFECT
          SOSCF IN EFFECT
 ORBITAL PRINTING OPTION: NPREO=     1   143     2     1

     -------------------------------
     INTEGRAL TRANSFORMATION OPTIONS
     -------------------------------
     NWORD  =            0
     CUTOFF = 1.0E-09     MPTRAN =       0
     DIRTRF =       T     AOINTS =DUP     

          ----------------------
          INTEGRAL INPUT OPTIONS
          ----------------------
 NOPK  =       1 NORDER=       0 SCHWRZ=       T


 -----------------------------------------------
  STATISTICS ON AUTOMATIC COORDINATE GENERATION 
 -----------------------------------------------
  NUMBER OF USER SPECIFIED BONDS                             0
  NUMBER OF BONDS                                           12
  NUMBER OF ANGLES                                          18
  NUMBER OF TORSIONS                                        18
  NUMBER OF EXTRA COORD.                                     0
  NUMBER OF EXTRA COORD. FOR CONSTRAINTS                     0
  NUMBER OF CONSTRAINED COORD.                               0

  TOTAL NUMBER OF PRIMITIVES                                48
 -----------------------------------------------

   --- ENCODED Z MATRIX ---
 COORD  TYPE   I   J   K   L   M   N
    1      1    1   2
    2      1    1   5
    3      1    1   6
    4      1    2   4
    5      1    2   3
    6      1    3   8
    7      1    3   7
    8      1    3   9
    9      1    4  11
   10      1    4  10
   11      1    5  13
   12      1    5  12
   13      2    1   5  12
   14      2    1   2   4
   15      2    1   5  13
   16      2    1   2   3
   17      2    2   3   9
   18      2    2   1   5
   19      2    2   3   7
   20      2    2   4  10
   21      2    2   4  11
   22      2    2   3   8
   23      2    2   1   6
   24      2    3   2   4
   25      2    5   1   6
   26      2    7   3   8
   27      2    7   3   9
   28      2    8   3   9
   29      2   10   4  11
   30      2   12   5  13
   31      3    1   2   3   9
   32      3    1   2   4  10
   33      3    1   2   3   7
   34      3    1   2   3   8
   35      3    1   2   4  11
   36      3    2   1   5  13
   37      3    2   1   5  12
   38      3    3   2   4  11
   39      3    3   2   4  10
   40      3    3   2   1   6
   41      3    3   2   1   5
   42      3    4   2   3   9
   43      3    4   2   3   8
   44      3    4   2   1   5
   45      3    4   2   3   7
   46      3    4   2   1   6
   47      3    6   1   5  13
   48      3    6   1   5  12

          INDEP./SYM. INTERNAL COORDINATES
          --------------------------------
 CRD  1=  -0.1102 (  1) -0.1570 ( 13) -0.5395 ( 14)  0.1485 ( 15)  0.4202 ( 16)
          -0.5121 ( 18)  0.1081 ( 20) -0.1449 ( 21)  0.2880 ( 23)  0.1193 ( 24)
           0.2241 ( 25)
 CRD  2=  -0.2775 (  1) -0.1590 (  2)  0.1429 (  4) -0.1323 ( 14) -0.5102 ( 16)
           0.2146 ( 17) -0.1134 ( 19)  0.2017 ( 20) -0.1433 ( 21) -0.1131 ( 22)
           0.6425 ( 24)  0.1106 ( 25)
 CRD  3=  -0.2299 (  1) -0.3025 (  2) -0.4883 (  5) -0.2361 ( 13)  0.3441 ( 14)
           0.1100 ( 15) -0.1564 ( 16) -0.1613 ( 17) -0.3483 ( 18) -0.1005 ( 19)
          -0.1747 ( 20)  0.1499 ( 21)  0.1321 ( 23) -0.1877 ( 24)  0.2163 ( 25)
           0.1132 ( 26)  0.1359 ( 27)  0.1359 ( 28)  0.1261 ( 30)
 CRD  4=   0.2899 ( 19) -0.2905 ( 22)  0.1626 ( 31) -0.1517 ( 35)  0.1215 ( 36)
          -0.1481 ( 37) -0.3750 ( 40) -0.4989 ( 41) -0.4100 ( 44) -0.2862 ( 46)
          -0.2779 ( 48)
 CRD  5=  -0.3568 (  1) -0.1503 (  3) -0.5750 (  4) -0.2689 (  5) -0.1238 (  9)
           0.1017 ( 12)  0.2528 ( 13) -0.1450 ( 14) -0.2314 ( 15)  0.1240 ( 16)
           0.2094 ( 18) -0.2280 ( 21) -0.2269 ( 23)  0.2589 ( 29)
 CRD  6=   0.1300 (  6) -0.1301 (  7) -0.5093 ( 19)  0.5090 ( 22)  0.1862 ( 27)
          -0.1862 ( 28) -0.1664 ( 31) -0.1153 ( 35) -0.1248 ( 36) -0.1963 ( 37)
          -0.2562 ( 38) -0.1476 ( 40) -0.2279 ( 44) -0.2803 ( 46) -0.1412 ( 48)
 CRD  7=   0.1650 (  1)  0.4620 (  2)  0.1188 (  3) -0.1664 (  4)  0.1003 (  8)
           0.1903 ( 11) -0.1920 ( 13)  0.4141 ( 15)  0.3248 ( 17) -0.2002 ( 19)
          -0.2012 ( 22) -0.2492 ( 23)  0.2976 ( 25)  0.1585 ( 26) -0.2221 ( 30)
 CRD  8=  -0.3353 (  1)  0.2392 (  2)  0.1703 (  5) -0.1360 (  8)  0.1137 (  9)
           0.1422 ( 15) -0.3761 ( 17)  0.2685 ( 19) -0.1504 ( 20)  0.1960 ( 21)
           0.2683 ( 22) -0.3814 ( 23)  0.3752 ( 25) -0.2288 ( 26) -0.1177 ( 30)
 CRD  9=   0.1643 (  1)  0.1291 (  2)  0.1548 (  4) -0.2806 (  5) -0.1161 (  8)
          -0.2356 (  9)  0.2871 ( 10) -0.4209 ( 17)  0.4947 ( 20) -0.4208 ( 21)
           0.1606 ( 27)  0.1608 ( 28)
 CRD 10=   0.1447 ( 19) -0.1447 ( 22) -0.3027 ( 31)  0.1214 ( 32) -0.3363 ( 33)
          -0.3363 ( 34)  0.2309 ( 35) -0.4361 ( 36) -0.2940 ( 37)  0.1315 ( 38)
          -0.1188 ( 40)  0.1468 ( 41) -0.2090 ( 42) -0.2426 ( 43) -0.2426 ( 45)
          -0.2124 ( 46) -0.1576 ( 47)
 CRD 11=  -0.2860 (  2) -0.4862 (  3) -0.1494 (  4)  0.2664 ( 11) -0.3271 ( 12)
          -0.4739 ( 13)  0.2811 ( 15)  0.2403 ( 18) -0.1066 ( 21) -0.1171 ( 23)
          -0.1233 ( 25)  0.1928 ( 30)
 CRD 12=   0.2116 ( 31)  0.5138 ( 32)  0.1819 ( 33)  0.1819 ( 34)  0.2684 ( 35)
          -0.2309 ( 36) -0.1565 ( 37)  0.1981 ( 38)  0.4435 ( 39)  0.2779 ( 42)
           0.2482 ( 43)  0.2482 ( 45) -0.1277 ( 47)
 CRD 13=   0.1756 (  6) -0.1552 (  7) -0.1408 ( 19)  0.1312 ( 22)  0.1665 ( 27)
          -0.1561 ( 28)  0.1201 ( 32) -0.1063 ( 33) -0.1062 ( 34)  0.3315 ( 35)
           0.3577 ( 36)  0.2198 ( 37)  0.4420 ( 38)  0.2306 ( 39) -0.1372 ( 40)
          -0.1821 ( 41) -0.2104 ( 43) -0.2105 ( 45)  0.3107 ( 47)  0.1727 ( 48)
 CRD 14=   0.4383 (  6)  0.4460 (  7)  0.4502 (  8) -0.1969 ( 10) -0.2025 ( 17)
          -0.2018 ( 19)  0.1507 ( 21) -0.2082 ( 22)  0.2129 ( 26)  0.2155 ( 27)
           0.2231 ( 28) -0.1626 ( 29)
 CRD 15=   0.1041 (  6)  0.1041 (  7)  0.5116 (  9)  0.4677 ( 10) -0.1959 ( 11)
          -0.2224 ( 12)  0.1067 ( 15) -0.2504 ( 20) -0.2092 ( 21)  0.4596 ( 29)
          -0.1959 ( 30)
 CRD 16=   0.1057 (  6)  0.1057 (  7)  0.1076 (  8)  0.1881 (  9)  0.1939 ( 10)
           0.4740 ( 11)  0.5355 ( 12) -0.2044 ( 13) -0.2463 ( 15)  0.1707 ( 29)
           0.4508 ( 30)
 CRD 17=   0.3022 (  6)  0.3022 (  7) -0.5711 (  8)  0.4151 ( 26) -0.2066 ( 27)
          -0.2066 ( 28)  0.2293 ( 33) -0.2294 ( 34) -0.2294 ( 43)  0.2293 ( 45)
 CRD 18=  -0.5180 (  6)  0.5180 (  7)  0.3474 ( 27) -0.3474 ( 28)  0.2796 ( 31)
          -0.1164 ( 33) -0.1163 ( 34)  0.2661 ( 42) -0.1298 ( 43) -0.1298 ( 45)
 CRD 19=  -0.2423 (  2)  0.2994 (  5)  0.1359 (  6)  0.1354 (  7)  0.2963 (  8)
          -0.3300 (  9)  0.2706 ( 10) -0.3461 ( 11)  0.2012 ( 14) -0.1131 ( 15)
           0.1797 ( 17)  0.1449 ( 20) -0.1703 ( 21) -0.2278 ( 23) -0.2232 ( 24)
           0.3221 ( 25) -0.1300 ( 27) -0.1304 ( 28)  0.1439 ( 30)
 CRD 20=  -0.1713 (  1) -0.4783 (  3)  0.3293 (  4) -0.1378 (  5) -0.1984 (  6)
          -0.1982 (  7)  0.2363 (  9)  0.3098 ( 10)  0.1266 ( 12)  0.2419 ( 16)
          -0.1487 ( 19)  0.1491 ( 20)  0.1363 ( 21) -0.1487 ( 22) -0.1805 ( 23)
          -0.1466 ( 24)  0.1322 ( 25)  0.1764 ( 26) -0.2854 ( 29)
 CRD 21=  -0.1427 (  6)  0.1432 (  7) -0.1599 ( 31)  0.3552 ( 32) -0.1010 ( 33)
          -0.1010 ( 34) -0.2058 ( 35)  0.2838 ( 37) -0.3879 ( 38)  0.1731 ( 39)
          -0.1163 ( 40) -0.2879 ( 46)  0.2716 ( 47)  0.5069 ( 48)
 CRD 22=   0.3181 (  1)  0.2977 (  3) -0.1086 (  6) -0.1085 (  7) -0.1257 (  8)
           0.2745 (  9) -0.2164 ( 10) -0.3109 ( 11) -0.2672 ( 12) -0.1920 ( 13)
          -0.1506 ( 14) -0.1733 ( 15)  0.1210 ( 16) -0.1292 ( 17)  0.1503 ( 18)
          -0.3322 ( 23)  0.1819 ( 25)  0.1056 ( 26)  0.1124 ( 27)  0.1124 ( 28)
           0.3653 ( 30)
 CRD 23=  -0.4128 (  1)  0.4590 (  3)  0.1201 (  8)  0.2682 ( 10)  0.4073 ( 11)
          -0.4829 ( 12) -0.1236 ( 15)  0.1289 ( 16)  0.1051 ( 21) -0.1931 ( 29)
 CRD 24=  -0.1502 (  6)  0.1503 (  7) -0.1060 ( 27)  0.1057 ( 28) -0.2415 ( 31)
           0.2943 ( 32) -0.1009 ( 33) -0.1010 ( 34)  0.4543 ( 36) -0.2925 ( 37)
          -0.1236 ( 38)  0.1670 ( 39)  0.2794 ( 40) -0.1214 ( 42)  0.1594 ( 46)
           0.2635 ( 47) -0.4833 ( 48)
 CRD 25=  -0.2044 (  4) -0.3920 (  5)  0.1870 (  6)  0.1868 (  7)  0.2017 (  8)
           0.5050 (  9) -0.1919 ( 10)  0.1809 ( 17)  0.1991 ( 19)  0.2918 ( 20)
           0.1991 ( 22) -0.1979 ( 26) -0.2088 ( 27) -0.2090 ( 28) -0.2129 ( 29)
 CRD 26=   0.1517 (  2) -0.4604 (  4) -0.1862 (  8)  0.4961 ( 10) -0.2599 ( 11)
           0.1092 ( 12) -0.1830 ( 13)  0.3526 ( 21)  0.1352 ( 24) -0.1281 ( 25)
          -0.1212 ( 26) -0.3156 ( 29)  0.1031 ( 30)
 CRD 27=   0.5435 (  2) -0.2253 (  3)  0.2404 (  4) -0.2948 (  5) -0.2163 (  9)
          -0.1680 ( 11) -0.3133 ( 12) -0.2390 ( 15)  0.1081 ( 17) -0.1757 ( 20)
           0.1167 ( 23)  0.1485 ( 29)  0.3328 ( 30)
 CRD 28=   0.3528 (  1) -0.1141 (  2) -0.2684 (  3) -0.1380 (  4)  0.1159 (  6)
           0.1160 (  7) -0.2236 (  8)  0.3429 ( 11) -0.2755 ( 12)  0.3342 ( 13)
          -0.2877 ( 15) -0.2688 ( 18)  0.3378 ( 25) -0.1599 ( 26) -0.1196 ( 33)
           0.1198 ( 34)  0.1197 ( 43) -0.1196 ( 45)
 CRD 29=   0.2006 (  1) -0.3341 (  2)  0.1809 (  3)  0.2374 (  4) -0.4482 (  5)
          -0.2469 (  9)  0.1202 ( 10)  0.1298 ( 12) -0.3224 ( 14)  0.1068 ( 15)
           0.1714 ( 16)  0.1005 ( 17)  0.1936 ( 18) -0.2617 ( 20)  0.1713 ( 21)
          -0.2532 ( 23)  0.1510 ( 24) -0.1117 ( 26) -0.1234 ( 30)
 CRD 30=  -0.3390 (  6)  0.3391 (  7) -0.1304 ( 19)  0.1308 ( 22) -0.2364 ( 27)
           0.2359 ( 28) -0.2121 ( 31) -0.1733 ( 32)  0.1810 ( 33)  0.1808 ( 34)
           0.3378 ( 35)  0.2939 ( 38) -0.2172 ( 39) -0.1665 ( 40) -0.1707 ( 42)
           0.2222 ( 43) -0.1205 ( 44)  0.2224 ( 45) -0.2079 ( 46)  0.1062 ( 47)
 CRD 31=   0.2813 (  1) -0.1069 (  3) -0.2220 (  4) -0.1857 (  6) -0.1863 (  7)
           0.3789 (  8)  0.1204 ( 10) -0.2277 ( 16) -0.2446 ( 17) -0.1072 ( 18)
           0.1308 ( 19)  0.1311 ( 21)  0.1305 ( 22)  0.2619 ( 24)  0.1010 ( 25)
           0.2602 ( 26) -0.1339 ( 27) -0.1344 ( 28)  0.2462 ( 33) -0.2465 ( 34)
          -0.2465 ( 43)  0.2462 ( 45)
 CRD 32=  -0.1438 (  6)  0.1436 (  7) -0.1554 ( 31)  0.1596 ( 32) -0.1146 ( 35)
           0.4023 ( 37)  0.3035 ( 39)  0.1248 ( 40) -0.3048 ( 41) -0.2912 ( 42)
          -0.1691 ( 44)  0.2605 ( 46) -0.5312 ( 47)
 CRD 33=   0.1044 ( 19) -0.1045 ( 22) -0.2361 ( 33) -0.2361 ( 34)  0.3693 ( 35)
           0.1145 ( 36)  0.2868 ( 37) -0.3520 ( 39)  0.3279 ( 40)  0.3066 ( 42)
           0.1667 ( 43) -0.3991 ( 44)  0.1666 ( 45) -0.2259 ( 47)

 THE DETERMINANT OF THE G MATRIX IS 10**(   -13)


                     --------------------
                     INTERNAL COORDINATES
                     --------------------

                 - - ATOMS - -         COORDINATE      COORDINATE
 NO.   TYPE    I  J  K  L  M  N        (BOHR,RAD)       (ANG,DEG)
 ----------------------------------------------------------------
   1 STRETCH   1  2                     2.7647927       1.4630654
   2 STRETCH   1  5                     2.5162605       1.3315478
   3 STRETCH   1  6                     2.0733282       1.0971581
   4 STRETCH   2  4                     2.5259048       1.3366514
   5 STRETCH   2  3                     2.8104983       1.4872518
   6 STRETCH   3  8                     2.0757114       1.0984193
   7 STRETCH   3  7                     2.0758071       1.0984699
   8 STRETCH   3  9                     2.0745581       1.0978090
   9 STRETCH   4 11                     2.0607577       1.0905061
  10 STRETCH   4 10                     2.0506883       1.0851776
  11 STRETCH   5 13                     2.0496446       1.0846253
  12 STRETCH   5 12                     2.0608475       1.0905536
  13 BEND      1  5 12                  2.1252345     121.7669666
  14 BEND      1  2  4                  2.1292336     121.9961006
  15 BEND      1  5 13                  2.1492646     123.1437881
  16 BEND      1  2  3                  2.0235920     115.9432789
  17 BEND      2  3  9                  1.9614566     112.3831844
  18 BEND      2  1  5                  2.1468063     123.0029407
  19 BEND      2  3  7                  1.9319717     110.6938260
  20 BEND      2  4 10                  2.1536088     123.3926953
  21 BEND      2  4 11                  2.1172191     121.3077201
  22 BEND      2  3  8                  1.9320992     110.7011282
  23 BEND      2  1  6                  2.0243443     115.9863833
  24 BEND      3  2  4                  2.1303597     122.0606201
  25 BEND      5  1  6                  2.1120347     121.0106760
  26 BEND      7  3  8                  1.8767499     107.5298504
  27 BEND      7  3  9                  1.8790835     107.6635551
  28 BEND      8  3  9                  1.8792633     107.6738533
  29 BEND     10  4 11                  2.0123573     115.2995820
  30 BEND     12  5 13                  2.0086863     115.0892452
  31 TORSION   1  2  3  9               3.1407554     179.9520297
  32 TORSION   1  2  4 10               3.1414385     179.9911665
  33 TORSION   1  2  3  7               1.0390146      59.5311488
  34 TORSION   1  2  3  8              -1.0403703     -59.6088247
  35 TORSION   1  2  4 11               0.0001845       0.0105715
  36 TORSION   2  1  5 13               3.1415154     179.9955751
  37 TORSION   2  1  5 12              -0.0000012      -0.0000677
  38 TORSION   3  2  4 11              -3.1415418    -179.9970872
  39 TORSION   3  2  4 10              -0.0002878      -0.0164922
  40 TORSION   3  2  1  6               0.0014118       0.0808881
  41 TORSION   3  2  1  5              -3.1401435    -179.9169692
  42 TORSION   4  2  3  9              -0.0007112      -0.0407472
  43 TORSION   4  2  3  8               2.1013485     120.3983984
  44 TORSION   4  2  1  5               0.0013232       0.0758127
  45 TORSION   4  2  3  7              -2.1024520    -120.4616281
  46 TORSION   4  2  1  6              -3.1403069    -179.9263299
  47 TORSION   6  1  5 13              -0.0000380      -0.0021777
  48 TORSION   6  1  5 12              -3.1415546    -179.9978205

     ------------------------------------------
     THE POINT GROUP IS C1 , NAXIS= 1, ORDER= 1
     ------------------------------------------

     DIMENSIONS OF THE SYMMETRY SUBSPACES ARE
 A   =  143

 ..... DONE SETTING UP THE RUN .....
 STEP CPU TIME =     0.00 TOTAL CPU TIME =        0.0 (    0.0 MIN)
 TOTAL WALL CLOCK TIME=        0.0 SECONDS, CPU UTILIZATION IS   0.00%


          -----------------------------
          STATIONARY POINT LOCATION RUN
          -----------------------------

 OBTAINING INITIAL HESSIAN, HESS=GUESS   
 DIAGONAL GUESS HESSIAN IN INTERNAL COORDS IS
     1  0.4182     2  0.5400     3  0.3416     4  0.5347     5  0.3990
     6  0.3407     7  0.3407     8  0.3411     9  0.3460    10  0.3496
    11  0.3500    12  0.3460    13  0.2364    14  0.2678    15  0.2368
    16  0.2564    17  0.2262    18  0.2682    19  0.2261    20  0.2364
    21  0.2360    22  0.2261    23  0.2277    24  0.2659    25  0.2359
    26  0.2026    27  0.2026    28  0.2026    29  0.2036    30  0.2036
    31  0.2500    32  0.2500    33  0.2500    34  0.2500    35  0.2500
    36  0.2500    37  0.2500    38  0.2500    39  0.2500    40  0.2500
    41  0.2500    42  0.2500    43  0.2500    44  0.2500    45  0.2500
    46  0.2500    47  0.2500    48  0.2500
 TRANSFORMING HESSIAN TO SYMMETRY COORDINATES

          PARAMETERS CONTROLLING GEOMETRY SEARCH ARE
          METHOD =QA                  UPHESS =BFGS    
          NNEG   =         0          NFRZ   =         3
          NSTEP  =        50          IFOLOW =         1
          HESS   =GUESS               RESTAR =         F
          IHREP  =         0          HSSEND =         F
          NPRT   =         0          NPUN   =         0
          OPTTOL = 5.000E-04          RMIN   = 1.500E-03
          RMAX   = 1.000E-01          RLIM   = 7.000E-02
          DXMAX  = 3.000E-01          PURIFY =         F
          MOVIE  =         F          TRUPD  =         T
          TRMAX  = 5.000E-01          TRMIN  = 5.000E-02
          ITBMAT =         5          STPT   =         F
          STSTEP = 1.000E-02          PROJCT=          F
          FROZEN COORD(S)=   1   2   3


      ***** EQUILIBRIUM GEOMETRY LOCATED *****
            (SUBJECT TO   3 CONSTRAINT(S))
 COORDINATES OF ALL ATOMS ARE (ANGS)
   ATOM   CHARGE       X              Y              Z
 ------------------------------------------------------------
 C           6.0   1.8344034692   2.1552479383   1.0548914562
 C           6.0   3.2680738218   2.1233742922   1.4559572714
 C           6.0   4.0143252558   0.8707259521   1.0837298292
 C           6.0   3.8315368110   3.1366427615   2.0955640138
 C           6.0   1.0353258117   3.1764468873   1.3008789654
 H           1.0   1.4596717300   1.2842088996   0.5384392016
 H           1.0   3.9883358923   0.7236735615   0.0066423534
 H           1.0   3.5443724244   0.0031843753   1.5408094254
 H           1.0   5.0473889071   0.9172270066   1.4044917882
 H           1.0   4.8636560795   3.1280105771   2.3909521793
 H           1.0   3.2712702342   4.0187686751   2.3476408197
 H           1.0   1.4106838881   4.0420813086   1.8148583363
 H           1.0   0.0036405405   3.1932026077   1.0093144453


                     --------------------
                     INTERNAL COORDINATES
                     --------------------

                 - - ATOMS - -         COORDINATE      COORDINATE
 NO.   TYPE    I  J  K  L  M  N        (BOHR,RAD)       (ANG,DEG)
 ----------------------------------------------------------------
   1 STRETCH   1  2                     2.8139031       1.4890535
   2 STRETCH   1  5                     2.4940677       1.3198039
   3 STRETCH   1  6                     2.0404279       1.0797480
   4 STRETCH   2  4                     2.5022286       1.3241225
   5 STRETCH   2  3                     2.8437534       1.5048496
   6 STRETCH   3  8                     2.0548594       1.0873848
   7 STRETCH   3  7                     2.0548694       1.0873901
   8 STRETCH   3  9                     2.0460341       1.0827147
   9 STRETCH   4 11                     2.0314225       1.0749825
  10 STRETCH   4 10                     2.0287939       1.0735916
  11 STRETCH   5 13                     2.0262103       1.0722244
  12 STRETCH   5 12                     2.0303709       1.0744261
  13 BEND      1  5 12                  2.0955855     120.0682043
  14 BEND      1  2  4                  2.1216718     121.5628411
  15 BEND      1  5 13                  2.1459577     122.9543203
  16 BEND      1  2  3                  2.0137932     115.3818515
  17 BEND      2  3  9                  1.9434909     111.3538269
  18 BEND      2  1  5                  2.1523163     123.3186387
  19 BEND      2  3  7                  1.9238088     110.2261249
  20 BEND      2  4 10                  2.1363105     122.4015756
  21 BEND      2  4 11                  2.1169882     121.2944872
  22 BEND      2  3  8                  1.9239097     110.2319040
  23 BEND      2  1  6                  2.0327610     116.4686235
  24 BEND      3  2  4                  2.1477203     123.0553069
  25 BEND      5  1  6                  2.0981081     120.2127374
  26 BEND      7  3  8                  1.8735422     107.3460581
  27 BEND      7  3  9                  1.8987041     108.7877306
  28 BEND      8  3  9                  1.8987448     108.7900661
  29 BEND     10  4 11                  2.0298866     116.3039369
  30 BEND     12  5 13                  2.0416421     116.9774753
  31 TORSION   1  2  3  9               3.1408222     179.9558547
  32 TORSION   1  2  4 10              -3.1415247    -179.9961094
  33 TORSION   1  2  3  7               1.0318418      59.1201803
  34 TORSION   1  2  3  8              -1.0332632     -59.2016212
  35 TORSION   1  2  4 11               0.0001789       0.0102484
  36 TORSION   2  1  5 13               3.1415334     179.9966037
  37 TORSION   2  1  5 12              -0.0000194      -0.0011142
  38 TORSION   3  2  4 11              -3.1415641    -179.9983654
  39 TORSION   3  2  4 10              -0.0000824      -0.0047232
  40 TORSION   3  2  1  6               0.0015506       0.0888417
  41 TORSION   3  2  1  5              -3.1399095    -179.9035601
  42 TORSION   4  2  3  9              -0.0006287      -0.0360215
  43 TORSION   4  2  3  8               2.1084712     120.8065025
  44 TORSION   4  2  1  5               0.0015437       0.0884490
  45 TORSION   4  2  3  7              -2.1096091    -120.8716959
  46 TORSION   4  2  1  6              -3.1401815    -179.9191493
  47 TORSION   6  1  5 13               0.0000781       0.0044746
  48 TORSION   6  1  5 12              -3.1414747    -179.9932433

          INTERNUCLEAR DISTANCES (ANGS.)


 =====================================================
   GAMESS/COSab RESULTS
 =====================================================

   Dielectric Constant                  = INFTY
   Basic Grid Size                      =                 1082
   Number of Segments                   =                   92
   Number of Segments located on spheres=                  215
   Number of Segments of the cavity     =                  477
   Solvent Radius (rsolv)               = 1.40
   Outlying Charge Error Method         = double cavity

 =====================================================

  Total solvated Energy (a.u.)          =  -194.0035047750
  Total Energy corrected (a.u.)         =  -194.0035180531

  Outlying charge effect (a.u.)         =    -0.0000132781
  Outlying charge effect (kcal/mol)     =    -0.0083321501

  Dielectric Energy (a.u.)              =    -0.0052589214
  Dielectric energy corr. (a.u.)        =    -0.0052721995

  Sum of polarization charges           =     0.0219508633
  Sum of polarization charges(cor.)     =    -0.0219508633

  Total surface area of cavity (A**2)   =  122.97
  Total volume of cavity (A**3)         =  110.55

 =====================================================
 NPS=                   477
NR.  ATOM  (X, Y, Z)(a.u.)                  CHARGE(e)  AREA(A**2) SIGMA(e/A**2)
   1   1   3.002327   3.519243   5.703208   0.001395   0.185824   0.007509
   2   1   0.647427   1.913692   3.287701   0.001849   0.278737   0.006634
   3   1   3.805261   4.244706  -1.766869   0.001482   0.371649   0.003988
   4   1   3.012079   3.421757  -1.701665   0.000695   0.232280   0.002993
   5   1   1.005308   3.485821  -0.814060   0.000215   0.092912   0.002317
   6   1   0.398862   1.895383   2.357393   0.000536   0.278737   0.001922
   7   1   2.345145   1.004895   3.894652   0.000849   0.325193   0.002612
   8   1   1.302576   1.581448   3.835900   0.001201   0.232280   0.005169
   9   1   1.530574   3.753318  -1.236764   0.000595   0.185824   0.003200
  10   1   2.551963   4.408950  -1.658245   0.002154   0.371649   0.005795
  11   1   3.865902   3.156351  -1.651390   0.000558   0.278737   0.002003
  12   1   2.891198   1.628855   4.818386   0.000865   0.325193   0.002661
  13   1   2.933005   2.615449   5.439557   0.001247   0.232280   0.005369
  14   1   2.154489   2.702645   5.262304   0.002322   0.232280   0.009997
  15   1   1.254101   2.296649   4.490373   0.001624   0.278737   0.005827
  16   1   3.638587   5.437994  -1.526633   0.003930   0.464561   0.008459
  17   1   4.662080   4.781529  -1.521186   0.000906   0.325193   0.002787
  18   1   2.190651   3.560733  -1.527088   0.000593   0.185824   0.003190
  19   1   1.713569   0.960525   3.228358   0.000839   0.325193   0.002579
  20   1   4.777542   6.078759  -0.929174   0.003033   0.418105   0.007254
  21   1   1.989127   1.816274   4.641000   0.001384   0.278737   0.004965
  22   2   6.516668   4.919110  -0.901897   0.000140   0.139368   0.001006
  23   2   7.913321   5.398389  -0.305556   0.001474   0.232280   0.006346
  24   2   7.219363   5.126196  -0.706250   0.000549   0.185824   0.002953
  25   2   6.455736   5.765393  -0.585341   0.000675   0.139368   0.004842
  26   2   4.835611   3.043323   6.149704   0.002353   0.325193   0.007235
  27   2   6.164153   2.405004   6.171853   0.001767   0.232280   0.007607
  28   2   5.047260   2.024886   5.761303   0.000840   0.371649   0.002259
  29   2   6.880271   6.038819  -0.360285   0.001494   0.232280   0.006433
  30   3  10.797003   1.745942   0.057126   0.000787   0.232280   0.003387
  31   3   8.844548  -1.729808   0.904263   0.000419   0.371649   0.001126
  32   3   5.411365  -1.049010   0.532907   0.000593   0.185824   0.003194
  33   3   8.965187   1.197023   5.538078   0.000801   0.325193   0.002464
  34   3   9.322715   0.295174   5.121195   0.000726   0.232280   0.003124
  35   3   7.659969   0.995108   5.770304   0.000612   0.278737   0.002196
  36   3   7.811739   0.148182   5.510838   0.000478   0.232280   0.002060
  37   3   5.791955  -0.847346  -0.154738   0.000591   0.185824   0.003180
  38   3   8.565538  -1.299818  -0.108486   0.000654   0.418105   0.001564
  39   3  10.286731   1.734388  -0.594433   0.001059   0.325193   0.003256
  40   3   8.607414   3.706241  -0.951033   0.000248   0.185824   0.001336
  41   3   9.526555  -0.773405   4.208430   0.001303   0.371649   0.003505
  42   3   8.871759  -1.007229   4.413211   0.000747   0.232280   0.003217
  43   3   9.472776   3.891828  -0.334875   0.000659   0.325193   0.002026
  44   3  10.501077   2.782045  -0.072066   0.001223   0.325193   0.003762
  45   3  10.583450   0.484173   0.060281   0.001700   0.511017   0.003327
  46   3   9.821588  -0.932997   0.423766   0.000630   0.418105   0.001508
  47   3   7.602472  -1.929744   0.822335   0.001017   0.418105   0.002433
  48   3   6.248022  -1.521458   0.477923   0.001219   0.325193   0.003749
  49   3  10.030939  -1.142067   2.780257   0.000779   0.371649   0.002096
  50   3   9.688556  -1.476386   1.704918   0.000555   0.464561   0.001194
  51   3   8.498901  -2.019103   1.899473   0.000497   0.325193   0.001527
  52   3   8.611861  -0.005928   5.289073   0.001197   0.371649   0.003222
  53   3   6.803760   0.661477   5.612260   0.000194   0.139368   0.001392
  54   3   7.142107  -1.522714   0.035461   0.000943   0.325193   0.002901
  55   3   9.879649  -0.265488  -0.269736   0.000522   0.278737   0.001873
  56   3   9.768398   3.060933  -0.693867   0.000676   0.278737   0.002425
  57   3   9.100904  -1.673050   3.036367   0.000967   0.418105   0.002313
  58   3  10.338241   3.663808   0.424570   0.000603   0.325193   0.001856
  59   3  10.532924  -0.573673   1.226182   0.000526   0.371649   0.001414
  60   4   6.898733   7.927928   0.771746   0.002911   0.325193   0.008953
  61   4   5.136399   6.413323   7.061778   0.001844   0.371649   0.004962
  62   4   9.606881   6.250999   1.030890   0.001333   0.139368   0.009566
  63   4   9.166691   9.003075   2.904389   0.001124   0.418105   0.002689
  64   4   8.054619   8.187818   6.877591   0.000345   0.278737   0.001238
  65   4   7.962565   4.427142   7.353012   0.002351   0.371649   0.006327
  66   4   9.002275   4.635084   7.043960   0.001722   0.371649   0.004633
  67   4   9.140360   7.994087   6.490615   0.000153   0.371649   0.000412
  68   4   9.999261   8.473181   3.521049   0.000764   0.418105   0.001827
  69   4  10.378351   6.070534   1.858162   0.001129   0.232280   0.004862
  70   4   6.799768   8.731386   1.464532   0.001049   0.232280   0.004517
  71   4   6.374387   9.046983   2.010126   0.000467   0.139368   0.003347
  72   4   5.151117   4.952056   6.954590   0.002676   0.278737   0.009601
  73   4   9.941543   6.823238   1.472817   0.001781   0.278737   0.006388
  74   4   9.695642   8.136350   2.122314   0.002051   0.464561   0.004415
  75   4   9.135179   9.181132   4.288421   0.000600   0.371649   0.001615
  76   4   8.725423   8.943988   5.686195   0.000321   0.371649   0.000864
  77   4   8.322976   7.178726   7.358107   0.001365   0.603929   0.002260
  78   4   8.182147   5.626775   7.607965   0.001933   0.464561   0.004162
  79   4   8.451590   3.633999   6.709225   0.001292   0.232280   0.005564
  80   4   8.977512   6.746970   0.704978   0.003031   0.325193   0.009322
  81   4   7.886943   7.347551   0.517729   0.003982   0.371649   0.010715
  82   4   7.765348   8.441803   1.187580   0.001984   0.325193   0.006102
  83   4   8.474987   8.904207   1.985460   0.001945   0.464561   0.004187
  84   4   8.342252   9.518552   3.542794   0.000685   0.371649   0.001843
  85   4   7.504556   9.545877   2.901204   0.000651   0.232280   0.002801
  86   4   8.011148   8.843500   6.237500   0.000109   0.278737   0.000391
  87   4   7.000955   7.938886   7.150783   0.000680   0.418105   0.001627
  88   4   5.915110   7.104118   7.298136   0.001315   0.371649   0.003539
  89   4   5.908250   5.683795   7.488494   0.002398   0.418105   0.005736
  90   4   6.872813   4.947848   7.591789   0.003248   0.511017   0.006356
  91   4   7.178524   3.676507   6.995494   0.004014   0.418105   0.009601
  92   4   8.972621   6.135636   7.312783   0.000625   0.278737   0.002242
  93   4   9.498391   8.754292   5.053236   0.000105   0.325193   0.000324
  94   4  10.308045   7.313162   2.241229   0.001446   0.325193   0.004448
  95   4   9.264101   3.805166   6.344504   0.000616   0.139368   0.004423
  96   4   7.353301   9.231830   2.129132   0.001413   0.325193   0.004345
  97   4   5.973833   4.270868   7.112132   0.003466   0.325193   0.010660
  98   4   8.950563   7.752920   1.126757   0.003140   0.464561   0.006759
  99   4   8.162550   9.511179   4.728602   0.000072   0.232280   0.000308
 100   4   7.031887   6.528578   7.685545   0.001960   0.557473   0.003516
 101   5   1.882322   6.560300  -1.279039   0.002226   0.325193   0.006846
 102   5  -1.035639   4.382485   4.103489   0.001959   0.511017   0.003834
 103   5   1.209151   9.270395   0.712618   0.000571   0.418105   0.001366
 104   5  -0.682401   8.024483   4.256263   0.000141   0.278737   0.000505
 105   5   1.811162   5.946491   6.234547   0.001986   0.418105   0.004751
 106   5   0.911126   5.626487  -1.154173   0.001624   0.232280   0.006992
 107   5  -0.041309   4.299229  -0.260432  -0.000065   0.092912  -0.000695
 108   5  -0.746167   3.438073   1.823463  -0.000027   0.092912  -0.000293
 109   5  -0.809451   3.490163   3.025242   0.001234   0.325193   0.003794
 110   5   1.918319   6.979540   6.109120   0.000840   0.325193   0.002583
 111   5   0.183488   8.809521   4.264431  -0.000054   0.371649  -0.000145
 112   5   1.704780   9.691952   1.677435   0.000380   0.418105   0.000908
 113   5   0.736367   6.397329  -1.096941   0.001707   0.325193   0.005250
 114   5   0.233694   6.811668  -0.806921   0.000526   0.185824   0.002829
 115   5  -0.182395   3.526270   4.349638   0.003437   0.464561   0.007399
 116   5   3.700374   8.689222   0.451995   0.001402   0.278737   0.005031
 117   5   2.475060   9.207054   0.522600   0.001274   0.464561   0.002742
 118   5   0.394066   9.387932   1.839589   0.000298   0.371649   0.000801
 119   5  -0.316341   8.961591   3.060844   0.000165   0.371649   0.000444
 120   5  -0.055586   7.706953   5.165908   0.000803   0.603929   0.001330
 121   5   0.577160   6.686710   5.909938   0.001048   0.464561   0.002257
 122   5   3.920929   7.841821  -0.195475   0.002274   0.325193   0.006994
 123   5   2.923901   7.211832  -0.989326   0.003622   0.371649   0.009745
 124   5   1.615387   7.585133  -0.956891   0.002205   0.464561   0.004747
 125   5   1.382814   8.609244  -0.217641   0.001149   0.464561   0.002474
 126   5   0.046653   8.846622   0.861908   0.000417   0.418105   0.000998
 127   5  -0.071741   8.203596   0.150430   0.000253   0.278737   0.000906
 128   5  -0.865736   8.329095   3.410611  -0.000125   0.278737  -0.000448
 129   5  -1.158406   7.018115   4.342588   0.000211   0.418105   0.000505
 130   5  -1.167455   5.657458   4.557388   0.000863   0.371649   0.002323
 131   5  -0.294509   4.723032   5.211477   0.002493   0.511017   0.004878
 132   5   0.718157   5.275024   5.954220   0.002289   0.511017   0.004479
 133   5   1.933587   4.833912   6.052447   0.002693   0.325193   0.008282
 134   5   0.237900   5.078877  -0.778579   0.000663   0.232280   0.002854
 135   5   1.039910   7.671072   5.723339   0.000253   0.278737   0.000909
 136   5   0.510753   9.480148   2.776039  -0.000070   0.325193  -0.000216
 137   5   3.314062   9.266912   1.122023   0.000792   0.325193   0.002436
 138   5   0.529045   7.792854  -0.548646   0.001110   0.371649   0.002987
 139   5   0.864127   4.059657   5.510502   0.003472   0.418105   0.008303
 140   5   2.874926   8.247308  -0.440333   0.002338   0.464561   0.005034
 141   5  -0.539674   8.774130   1.848204  -0.000175   0.232280  -0.000753
 142   5  -0.464252   6.137362   5.357644   0.001004   0.511017   0.001964
 143   6   1.630809   0.576076  -0.139426  -0.003979   0.471065  -0.008446
 144   6   2.608196   1.795950  -1.352013  -0.001916   0.372926  -0.005139
 145   6   0.693125   1.933878  -0.218146  -0.002317   0.353299  -0.006559
 146   6   0.963483   0.822933   1.508410  -0.001894   0.412182  -0.004595
 147   6   2.524016   0.085428   0.311718  -0.003638   0.392554  -0.009267
 148   6   2.757040   0.831622  -0.850791  -0.003453   0.412182  -0.008377
 149   6   1.507347   1.748465  -0.984967  -0.003260   0.510320  -0.006388
 150   6   0.704895   1.176075   0.513578  -0.003087   0.451437  -0.006838
 151   6   1.918107   0.159000   1.448863  -0.003414   0.490692  -0.006958
 152   7   7.721848   0.933268  -2.398320  -0.003468   0.529948  -0.006545
 153   7   9.226035   1.559859  -1.760814  -0.001205   0.372926  -0.003230
 154   7   7.834605   2.835946  -1.934299  -0.001680   0.392554  -0.004280
 155   7   6.327002  -0.196348  -1.445394  -0.001512   0.392554  -0.003852
 156   7   8.449536  -0.364858  -1.471009  -0.001413   0.412182  -0.003428
 157   7   8.512768   2.079948  -2.126418  -0.002018   0.431809  -0.004674
 158   7   6.917266   2.047369  -2.265393  -0.002959   0.471065  -0.006281
 159   7   6.353155   0.876895  -2.083447  -0.003105   0.490692  -0.006327
 160   7   7.381333  -0.337107  -1.749581  -0.002286   0.490692  -0.004659
 161   7   8.975794   0.527517  -1.792708  -0.001748   0.412182  -0.004240
 162   8   5.815728  -2.096858   3.825406  -0.003750   0.569203  -0.006589
 163   8   5.286185  -0.546116   4.844943  -0.001913   0.353299  -0.005416
 164   8   6.972931  -0.964225   5.151825  -0.000856   0.314043  -0.002726
 165   8   7.441587  -2.233765   3.593910  -0.001455   0.392554  -0.003707
 166   8   5.861060  -2.159444   2.108218  -0.001296   0.372926  -0.003474
 167   8   5.995909  -1.078933   5.001028  -0.002235   0.431809  -0.005176
 168   8   7.095949  -1.835111   4.488707  -0.002198   0.490692  -0.004479
 169   8   6.739919  -2.441448   2.703742  -0.001908   0.451437  -0.004226
 170   8   4.990179  -1.712432   2.504551  -0.002706   0.490692  -0.005515
 171   8   4.830800  -1.322009   3.797974  -0.002949   0.451437  -0.006532
 172   9  11.920366   1.423865   3.168432  -0.002703   0.412182  -0.006559
 173   9  10.753330   0.561015   4.438542  -0.001036   0.353299  -0.002932
 174   9  11.674940   1.895654   1.452853  -0.001178   0.372926  -0.003158
 175   9  11.418519   0.159522   2.503786  -0.001458   0.412182  -0.003538
 176   9  10.957644   1.583052   4.653516  -0.002546   0.471065  -0.005405
 177   9  11.746487   2.219682   3.614278  -0.002926   0.392554  -0.007454
 178   9  11.711980   2.771749   2.173109  -0.002841   0.490692  -0.005789
 179   9  11.809566   1.062078   2.001919  -0.001961   0.431809  -0.004542
 180   9  11.361257   0.392421   3.609870  -0.001992   0.431809  -0.004612
 181  10  11.479878   6.088045   5.392740  -0.003925   0.490692  -0.007999
 182  10  11.343194   5.938002   3.334015  -0.001673   0.314043  -0.005328
 183  10  10.366476   5.275490   6.579630  -0.001372   0.353299  -0.003884
 184  10  10.535542   7.327412   6.008630  -0.001697   0.333671  -0.005084
 185  10  11.043219   7.471077   4.105019  -0.001265   0.294415  -0.004296
 186  10  11.580669   5.350529   4.619739  -0.003499   0.412182  -0.008489
 187  10  10.887409   4.767437   5.878136  -0.003240   0.451437  -0.007177
 188  10  10.636326   6.328430   6.460377  -0.002839   0.471065  -0.006026
 189  10  11.097185   7.340794   5.116088  -0.003060   0.471065  -0.006496
 190  10  11.457121   6.615220   3.882683  -0.002315   0.392554  -0.005898
 191  11   5.511586   9.807776   5.265087  -0.003469   0.353299  -0.009819
 192  11   6.010385   9.869510   3.525677  -0.001957   0.333671  -0.005865
 193  11   6.819593   9.853908   5.159437  -0.001540   0.294415  -0.005232
 194  11   5.958676   8.746466   6.594638  -0.000951   0.235532  -0.004037
 195  11   6.337135  10.044432   4.346224  -0.002157   0.372926  -0.005783
 196  11   6.274380   9.489445   5.996914  -0.002415   0.412182  -0.005860
 197  11   5.097666   8.627526   6.383794  -0.002620   0.372926  -0.007024
 198  12   2.871094   9.825376   4.529699  -0.003583   0.353299  -0.010141
 199  12   2.450285   8.493903   5.722366  -0.001833   0.294415  -0.006226
 200  12   1.587372   9.549319   4.534404  -0.001598   0.294415  -0.005427
 201  12   2.516524  10.012803   2.817061  -0.000982   0.235532  -0.004169
 202  12   2.130344   9.167038   5.276684  -0.002501   0.392554  -0.006372
 203  12   2.122116  10.013854   3.740859  -0.002518   0.412182  -0.006109
 204  12   3.380258   9.934919   2.928784  -0.002729   0.353299  -0.007723
 205  13  -2.336522   6.049837   1.170244  -0.005496   0.608459  -0.009032
 206  13  -1.911412   4.522405   2.170865  -0.002262   0.412182  -0.005488
 207  13  -1.267411   4.810784   0.200181  -0.001885   0.353299  -0.005336
 208  13  -1.193059   6.890670  -0.057833  -0.001896   0.353299  -0.005368
 209  13  -1.693924   7.804132   1.807570  -0.001996   0.333671  -0.005981
 210  13  -2.056086   6.473469   3.166818  -0.001654   0.314043  -0.005268
 211  13  -1.816992   4.618711   1.067840  -0.003269   0.490692  -0.006662
 212  13  -1.481926   5.877371  -0.040478  -0.003234   0.490692  -0.006591
 213  13  -1.687947   7.413725   0.784929  -0.003500   0.510320  -0.006858
 214  13  -2.202914   7.035609   2.293589  -0.003554   0.490692  -0.007244
 215  13  -2.271104   5.475941   2.638140  -0.003702   0.549575  -0.006737
 216   1   5.509659   6.776458   0.080872   0.000526   0.048191   0.010910
 217   2   5.984611   6.794618   0.181367   0.000645   0.048191   0.013389
 218   4   6.168865   7.103053   0.420548   0.000675   0.048191   0.014015
 219   1   3.830360   4.057463   5.867640   0.000505   0.048191   0.010488
 220   2   4.284912   4.042594   6.038430   0.000598   0.048191   0.012400
 221   4   4.487306   4.380401   6.215099   0.000661   0.048191   0.013719
 222   1   5.791847   4.154536  -1.154992  -0.000215   0.099063  -0.002174
 223   2   6.270921   4.154401  -1.062931  -0.000263   0.099063  -0.002657
 224   7   6.552785   3.508408  -1.310303  -0.000404   0.099063  -0.004077
 225   1   4.074706   1.373508   4.763078  -0.000224   0.099042  -0.002259
 226   2   4.532903   1.339568   4.927051  -0.000271   0.099042  -0.002733
 227   8   4.803843   0.675208   4.719206  -0.000427   0.099042  -0.004311
 228   2   4.179126   3.387736   5.907112   0.001323   0.204104   0.006484
 229   2   4.300525   2.014240   5.363997   0.000106   0.204104   0.000521
 230   1   3.580828   2.731890   5.410105   0.001436   0.414734   0.003463
 231   2   6.122112   4.963984  -0.913055   0.000145   0.204067   0.000710
 232   2   5.970913   6.288957  -0.267272   0.001442   0.204067   0.007064
 233   1   5.365846   5.622285  -0.740943   0.001243   0.414656   0.002997
 234   1   5.119497   6.960047   0.094486   0.000964   0.099589   0.009678
 235   4   5.764899   7.244944   0.494010   0.001108   0.099589   0.011122
 236   5   4.846977   7.281389   0.193259   0.000946   0.099589   0.009495
 237   1   3.454500   4.278349   5.818633   0.000899   0.099589   0.009028
 238   4   4.134843   4.619521   6.098036   0.001110   0.099589   0.011150
 239   5   3.194247   4.619447   5.875236   0.000993   0.099589   0.009970
 240   4   6.243545   7.331981   0.433503   0.000174   0.010197   0.017090
 241   1   5.299829   6.875659  -0.052652   0.000071   0.010197   0.006960
 242   4   4.504444   4.537306   6.406401   0.000201   0.012617   0.015947
 243   1   3.569274   4.067256   5.916792   0.000076   0.012617   0.005997
 244   1   0.361099   3.138699   0.049386  -0.000071   0.007055  -0.010035
 245   5   0.129449   3.485513   0.151610  -0.000042   0.007055  -0.006000
 246   6   0.465116   2.861633   0.004303  -0.000093   0.007055  -0.013196
 247   1   0.091422   2.703901   0.978378  -0.000061   0.007055  -0.008678
 248   5  -0.137043   3.055849   1.069632  -0.000049   0.007055  -0.006996
 249   6   0.219671   2.465904   0.849819  -0.000059   0.007055  -0.008328
 250   5  -0.377456   3.154066   1.665463  -0.000121   0.193930  -0.000625
 251   5   0.148160   3.085427   3.657811   0.002874   0.398303   0.007215
 252   5   1.730436   3.900056   5.415837   0.004889   0.398303   0.012275
 253   1   0.153129   2.613388   2.325604   0.000447   0.398303   0.001122
 254   1   1.201364   2.890571   4.579988   0.004690   0.398303   0.011776
 255   1   2.697015   3.798151   5.670749   0.001944   0.193930   0.010022
 256   5   4.121140   7.170438  -0.394773   0.002026   0.194053   0.010440
 257   5   2.521615   6.096373  -1.131818   0.004746   0.398582   0.011908
 258   5   0.661153   4.510938  -0.593604   0.000637   0.398582   0.001599
 259   1   3.891134   6.302453  -0.846555   0.004796   0.398582   0.012032
 260   1   1.899105   4.828522  -1.198617   0.003022   0.398582   0.007582
 261   1   0.538562   3.551918  -0.318541  -0.000238   0.194053  -0.001226
 262   1   4.180432   2.176215  -1.272487  -0.000269   0.087103  -0.003084
 263   6   3.995704   1.945621  -1.206772  -0.000476   0.087103  -0.005460
 264   7   5.080062   1.726810  -1.343944  -0.000363   0.087103  -0.004169
 265   1   3.033362   0.318249   2.692855  -0.000276   0.087148  -0.003166
 266   6   2.949477   0.250956   2.409917  -0.000464   0.087148  -0.005321
 267   8   3.879349  -0.218711   2.806643  -0.000362   0.087148  -0.004153
 268   6   0.712648   2.618656  -0.326058  -0.000431   0.069756  -0.006182
 269   6   1.578347   2.679183  -1.056278  -0.000779   0.155867  -0.004995
 270   6   2.859950   2.318106  -1.377208  -0.000871   0.155867  -0.005587
 271   1   0.983071   3.076649  -0.604545  -0.000756   0.151916  -0.004974
 272   1   2.310301   2.961743  -1.373765  -0.000472   0.151916  -0.003110
 273   1   3.473157   2.504240  -1.445905  -0.000294   0.085222  -0.003455
 274   6   2.199398   0.415998   2.310121  -0.000382   0.069835  -0.005474
 275   6   1.217703   0.952745   2.117161  -0.000677   0.156085  -0.004336
 276   6   0.471017   1.759665   1.298015  -0.000962   0.156085  -0.006165
 277   1   1.854125   0.774109   2.646831  -0.000505   0.152052  -0.003320
 278   1   0.674679   1.602724   2.105099  -0.000495   0.152052  -0.003258
 279   1   0.200917   2.338347   1.208172  -0.000363   0.085319  -0.004257
 280   7   5.765806   1.903066  -1.757630  -0.001217   0.298550  -0.004076
 281   7   6.474678   2.935438  -1.710941  -0.001111   0.298550  -0.003723
 282   1   4.922853   3.229823  -1.477605  -0.000822   0.832178  -0.000987
 283   8   4.678290   0.024579   4.486627  -0.001176   0.297478  -0.003952
 284   8   4.256512  -0.542941   3.457427  -0.001262   0.297478  -0.004243
 285   1   3.368453   0.712048   3.886834  -0.000854   0.829306  -0.001030
 286   2   8.787463   5.176700   0.261220   0.000586   0.047706   0.012294
 287   3   9.007516   4.747272   0.170586   0.000336   0.047706   0.007033
 288   4   8.949887   5.496955   0.500604   0.000830   0.047706   0.017391
 289   2   7.100576   2.443608   6.077004   0.000529   0.047706   0.011098
 290   3   7.341676   2.048281   5.913808   0.000342   0.047706   0.007160
 291   4   7.281568   2.793947   6.252371   0.000680   0.047706   0.014248
 292   2   7.516247   4.209173  -0.889551  -0.000005   0.026747  -0.000174
 293   3   7.768241   3.819031  -1.047479  -0.000064   0.026747  -0.002381
 294   7   7.728853   3.580559  -1.230883  -0.000122   0.026747  -0.004554
 295   2   5.686835   1.241522   5.429776  -0.000003   0.026739  -0.000123
 296   3   5.917669   0.817058   5.344936  -0.000049   0.026739  -0.001841
 297   8   5.851709   0.535356   5.253570  -0.000084   0.026739  -0.003126
 298   3   8.315510   4.161892  -0.631337   0.000168   0.277747   0.000606
 299   2   8.227711   4.847454  -0.271220   0.000895   0.277747   0.003221
 300   3   6.795067   1.374355   5.701365   0.000325   0.277132   0.001172
 301   2   6.157778   1.814221   5.786691   0.000638   0.277132   0.002302
 302   4   5.210148   4.169295   6.584091   0.002605   0.214791   0.012130
 303   4   6.724871   3.313322   6.605749   0.002513   0.214791   0.011701
 304   2   5.718909   3.292516   6.244328   0.005467   0.446547   0.012243
 305   4   8.513742   6.211243   0.439003   0.002612   0.214714   0.012166
 306   4   7.006453   7.078140   0.393488   0.002575   0.214714   0.011991
 307   2   7.481460   6.147249   0.169185   0.005547   0.446364   0.012428
 308   7   7.245525   3.338068  -1.492790  -0.000707   0.178381  -0.003965
 309   2   7.046024   4.335983  -1.017717   0.000072   0.251477   0.000284
 310   8   5.520881   0.310842   5.092129  -0.000627   0.179185  -0.003502
 311   2   5.048593   1.308933   5.298040   0.000019   0.252607   0.000077
 312   3   9.530977   2.230495   5.286589  -0.000030   0.068692  -0.000437
 313   4   9.432172   2.997739   5.560267   0.000161   0.068692   0.002345
 314   9   9.803114   2.234507   5.153170  -0.000221   0.068692  -0.003214
 315   3  10.596029   3.960148   1.605584  -0.000014   0.068692  -0.000201
 316   4  10.471384   4.685428   1.968570   0.000120   0.068692   0.001744
 317   9  10.773218   3.809963   1.800324  -0.000226   0.068692  -0.003286
 318   4   8.176628   3.046397   6.238808   0.003473   0.573450   0.006056
 319   3   8.658750   2.057888   5.660179   0.000904   0.573450   0.001576
 320   4   9.952911   5.362907   1.372074   0.003026   0.572315   0.005288
 321   3   9.756054   4.401545   0.609993   0.001165   0.572315   0.002035
 322   3   5.125121   0.172553  -0.487741  -0.000100   0.075757  -0.001316
 323   6   4.258361   0.555672  -0.446057  -0.000442   0.075757  -0.005834
 324   7   5.298664   0.264910  -0.721398  -0.000260   0.075757  -0.003429
 325   3   4.622774  -0.642398   1.247854  -0.000102   0.075747  -0.001345
 326   6   3.806034  -0.178137   1.116750  -0.000442   0.075747  -0.005832
 327   8   4.651118  -0.785701   1.515996  -0.000259   0.075747  -0.003426
 328   6   3.575079   0.352373  -0.253157  -0.001379   0.207390  -0.006650
 329   6   3.338493  -0.031407   0.564202  -0.001336   0.207390  -0.006440
 330   3   4.740227  -0.359285   0.282966   0.000168   0.578462   0.000291
 331   7   8.103464   3.257268  -1.450213  -0.000217   0.070057  -0.003102
 332   7   9.031629   2.622683  -1.385966  -0.000497   0.155881  -0.003191
 333   7   9.590556   1.391582  -1.231371  -0.000480   0.155881  -0.003080
 334   7   9.267957   0.082741  -1.044895  -0.000553   0.155881  -0.003550
 335   7   8.200428  -0.749641  -0.905498  -0.000577   0.155881  -0.003704
 336   7   6.839991  -0.753111  -0.872204  -0.000402   0.155881  -0.002578
 337   7   5.874277  -0.176364  -0.927649  -0.000261   0.070057  -0.003722
 338   3   8.610839   3.309366  -1.130522  -0.000422   0.153263  -0.002753
 339   3   9.657815   2.202719  -1.004692  -0.000255   0.153263  -0.001662
 340   3   9.798184   0.694104  -0.802110  -0.000204   0.153263  -0.001330
 341   3   8.972508  -0.577689  -0.608556  -0.000393   0.153263  -0.002562
 342   3   7.530403  -1.074149  -0.505986  -0.000273   0.153263  -0.001778
 343   3   6.082494  -0.585060  -0.537830  -0.000270   0.153263  -0.001761
 344   8   5.153225  -1.346272   1.563709  -0.000184   0.070062  -0.002625
 345   8   6.139789  -1.889347   1.547303  -0.000544   0.155895  -0.003489
 346   8   7.310106  -2.194547   2.171312  -0.000591   0.155895  -0.003789
 347   8   8.005200  -1.966447   3.318914  -0.000586   0.155895  -0.003761
 348   8   7.930699  -1.301646   4.504100  -0.000420   0.155895  -0.002694
 349   8   7.118152  -0.481689   5.224943  -0.000577   0.155895  -0.003703
 350   8   6.148277   0.085399   5.304082  -0.000215   0.070062  -0.003068
 351   3   5.592870  -1.379446   1.153856  -0.000249   0.153270  -0.001628
 352   3   6.970997  -1.981989   1.427171  -0.000292   0.153270  -0.001906
 353   3   8.078981  -2.027784   2.479440  -0.000417   0.153270  -0.002723
 354   3   8.447589  -1.497434   3.865028  -0.000188   0.153270  -0.001228
 355   3   7.920716  -0.615544   4.997137  -0.000193   0.153270  -0.001260
 356   3   6.721493   0.244406   5.396319  -0.000410   0.153270  -0.002678
 357   9  10.048495   1.590434   5.050835  -0.000224   0.070912  -0.003166
 358   9  10.230048   0.544261   4.617809  -0.000506   0.158707  -0.003187
 359   9  10.602204  -0.228115   3.531206  -0.000515   0.158707  -0.003244
 360   9  11.006293  -0.110168   2.212656  -0.000600   0.158707  -0.003780
 361   9  11.263556   0.845926   1.245458  -0.000486   0.158707  -0.003063
 362   9  11.260185   2.217212   1.057477  -0.000530   0.158707  -0.003340
 363   9  11.075959   3.259043   1.499741  -0.000241   0.070912  -0.003397
 364   3   9.723590   1.079851   5.049489  -0.000348   0.154227  -0.002257
 365   3  10.049734  -0.166622   4.179819  -0.000154   0.154227  -0.000999
 366   3  10.511936  -0.556290   2.747716  -0.000349   0.154227  -0.002264
 367   3  10.905725   0.083228   1.386710  -0.000367   0.154227  -0.002380
 368   3  11.056900   1.469023   0.698880  -0.000173   0.154227  -0.001121
 369   3  10.898583   2.988049   0.988507  -0.000270   0.154227  -0.001750
 370   4   4.439974   7.136737   6.322866  -0.000110   0.080745  -0.001364
 371   5   3.533549   7.130207   5.990337  -0.000318   0.080745  -0.003942
 372  11   4.391506   7.417016   6.226594  -0.000466   0.080745  -0.005766
 373   4   5.209428   8.950860   2.239740  -0.000247   0.080386  -0.003073
 374   5   4.293345   9.030494   1.945316  -0.000246   0.080386  -0.003054
 375  12   4.300649   9.153910   2.218657  -0.000529   0.080386  -0.006577
 376   5   3.034340   5.199844   6.154512   0.002156   0.369582   0.005833
 377   5   3.043529   6.591538   6.191895   0.000752   0.369582   0.002034
 378   4   4.375589   5.877839   6.509256   0.003466   0.739986   0.004684
 379   5   4.445005   8.848527   1.373700   0.000724   0.369518   0.001959
 380   5   4.711122   7.900442   0.389845   0.002077   0.369518   0.005621
 381   4   5.894922   8.324758   1.285880   0.003364   0.739857   0.004547
 382   4  10.669716   5.078079   2.453957  -0.000060   0.080960  -0.000743
 383   9  10.839367   4.160875   2.332364  -0.000150   0.080960  -0.001858
 384  10  10.825856   5.107085   2.707926  -0.000239   0.080960  -0.002948
 385   4   9.735593   3.563759   5.673769  -0.000044   0.080960  -0.000545
 386   9  10.021064   2.834312   5.152959  -0.000135   0.080960  -0.001664
 387  10   9.978423   3.733300   5.628927  -0.000263   0.080960  -0.003253
 388   9  10.995876   3.743952   1.920972  -0.000055   0.056081  -0.000990
 389   4  10.690960   5.078370   2.163720   0.000260   0.079257   0.003278
 390   9  10.099208   2.254185   5.127827  -0.000059   0.055170  -0.001064
 391   4   9.593325   3.329483   5.849170   0.000286   0.077970   0.003670
 392  10  10.943091   5.824921   2.800354  -0.000159   0.068034  -0.002331
 393  10  10.864433   6.897340   3.106553  -0.000477   0.151827  -0.003141
 394  10  10.596369   7.805753   4.069796  -0.000777   0.151827  -0.005117
 395  10  10.226464   7.905154   5.365250  -0.000881   0.151827  -0.005806
 396  10   9.911856   7.153319   6.442597  -0.000826   0.151827  -0.005441
 397  10   9.786194   5.869630   6.844173  -0.000599   0.151827  -0.003943
 398  10   9.902858   4.599407   6.399386  -0.000489   0.151827  -0.003218
 399   4  10.678133   6.296324   2.556878  -0.000118   0.148286  -0.000795
 400   4  10.487787   7.626988   3.260893  -0.000308   0.148286  -0.002076
 401   4  10.108793   8.225694   4.602703  -0.000595   0.148286  -0.004012
 402   4   9.702149   7.838107   6.012297  -0.000683   0.148286  -0.004605
 403   4   9.440600   6.628876   6.890871  -0.000489   0.148286  -0.003295
 404   4   9.435255   5.111691   6.865201  -0.000343   0.148286  -0.002311
 405   4   9.604393   4.059352   6.243426  -0.000052   0.083118  -0.000622
 406   4   5.608899   9.094726   2.458770  -0.000213   0.065570  -0.003253
 407  11   5.463619   9.232319   2.681233  -0.000434   0.065570  -0.006624
 408  12   4.682417   9.183210   2.501470  -0.000575   0.065570  -0.008776
 409  11   4.939904   7.673461   6.555969  -0.000239   0.064657  -0.003693
 410  11   5.847133   8.195568   6.745299  -0.000568   0.142639  -0.003983
 411  11   6.821824   8.931759   6.335401  -0.000744   0.142639  -0.005215
 412  11   7.310916   9.536007   5.307933  -0.000824   0.142639  -0.005780
 413  11   7.127436   9.777314   4.055687  -0.000638   0.142639  -0.004470
 414  11   6.341525   9.563432   3.057381  -0.000621   0.142639  -0.004355
 415   4   5.428396   7.509988   6.821237  -0.000346   0.142527  -0.002428
 416   4   6.646828   8.291540   6.794338  -0.000481   0.142527  -0.003374
 417   4   7.511621   9.083462   5.945153  -0.000610   0.142527  -0.004280
 418   4   7.692174   9.583010   4.598313  -0.000544   0.142527  -0.003814
 419   4   7.119465   9.599212   3.268703  -0.000386   0.142527  -0.002707
 420   4   6.283050   9.285753   2.506614  -0.000063   0.078993  -0.000798
 421   6   0.343380   2.455107   0.444535  -0.001077   0.190909  -0.005642
 422   5  -0.172856   3.416559   0.525253  -0.000356   0.269616  -0.001321
 423   5   3.101432   7.303800   5.915311  -0.000317   0.065211  -0.004855
 424  11   3.992581   7.564952   6.026029  -0.000552   0.065211  -0.008470
 425  12   3.203858   7.581812   5.875722  -0.000473   0.065211  -0.007253
 426  12   3.668252   9.470688   2.142115  -0.000332   0.070629  -0.004698
 427  12   2.585634   9.794109   2.388043  -0.000866   0.158877  -0.005452
 428  12   1.512153   9.732182   3.276291  -0.000979   0.158877  -0.006160
 429  12   1.156381   9.161078   4.497949  -0.001049   0.158877  -0.006600
 430  12   1.680278   8.340787   5.496865  -0.000828   0.158877  -0.005211
 431  12   2.579668   7.723239   5.880109  -0.000429   0.070629  -0.006076
 432   5   3.151530   9.475463   1.829702  -0.000575   0.152788  -0.003760
 433   5   1.734406   9.722100   2.449236  -0.000749   0.152788  -0.004899
 434   5   0.881943   9.344535   3.707666  -0.000814   0.152788  -0.005327
 435   5   0.982220   8.514652   5.032103  -0.000716   0.152788  -0.004685
 436   5   1.989584   7.610249   5.819608  -0.000633   0.152788  -0.004142
 437  13  -0.598836   6.689801  -0.382654  -0.000209   0.064223  -0.003249
 438  13  -0.615510   5.628574  -0.384624  -0.000589   0.141737  -0.004157
 439  13  -0.805949   4.512934   0.225124  -0.000808   0.141737  -0.005697
 440  13  -1.132740   3.985652   1.351131  -0.000791   0.141737  -0.005578
 441  13  -1.471059   4.248130   2.563301  -0.000622   0.141737  -0.004389
 442  13  -1.691680   5.200111   3.398626  -0.000587   0.141737  -0.004143
 443  13  -1.710333   6.477971   3.538041  -0.000822   0.141737  -0.005801
 444  13  -1.519893   7.593611   2.928293  -0.000859   0.141737  -0.006059
 445  13  -1.193103   8.120893   1.802286  -0.000943   0.141737  -0.006652
 446  13  -0.854784   7.858415   0.590117  -0.000740   0.141737  -0.005221
 447  13  -0.648894   7.156299  -0.178732  -0.000242   0.064223  -0.003761
 448   5  -0.214956   6.301326  -0.570083  -0.000294   0.141494  -0.002079
 449   5  -0.316442   4.887322  -0.292226  -0.000508   0.141494  -0.003590
 450   5  -0.622006   3.916735   0.733203  -0.000809   0.141494  -0.005716
 451   5  -1.014931   3.760297   2.114524  -0.000487   0.141494  -0.003444
 452   5  -1.345135   4.477762   3.324120  -0.000373   0.141494  -0.002635
 453   5  -1.486491   5.795081   3.899966  -0.000532   0.141494  -0.003761
 454   5  -1.385005   7.209085   3.622108  -0.000705   0.141494  -0.004980
 455   5  -1.079441   8.179672   2.596679  -0.000778   0.141494  -0.005500
 456   5  -0.686516   8.336110   1.215358  -0.000687   0.141494  -0.004857
 457   5  -0.356312   7.618645   0.005762  -0.000482   0.141494  -0.003404
 458   7   5.301563   0.409710  -1.152488  -0.000111   0.264555  -0.000418
 459   7   5.377783   1.169276  -1.590690  -0.000340   0.264555  -0.001286
 460   6   3.821189   1.140518  -1.027255  -0.001725   0.528904  -0.003261
 461   8   4.145262  -0.828159   2.668886  -0.000344   0.265284  -0.001296
 462   8   4.431887  -1.000712   1.852261  -0.000099   0.265284  -0.000373
 463   6   3.044866  -0.117508   1.655657  -0.001777   0.530364  -0.003351
 464  10  10.436619   3.818016   5.584331  -0.000254   0.257092  -0.000989
 465  10  11.177165   4.255828   4.741063  -0.002035   0.514324  -0.003957
 466  10  11.288934   4.858364   3.411516  -0.001644   0.514324  -0.003196
 467   9  10.856549   2.655166   4.690405  -0.001571   0.514324  -0.003055
 468   9  11.476141   3.238249   3.499038  -0.001916   0.514324  -0.003724
 469   9  11.297453   3.711274   2.405646  -0.000364   0.257092  -0.001414
 470  12   3.263886   8.006953   5.918875  -0.001034   0.189732  -0.005450
 471  12   3.416140   8.995793   5.430456  -0.003553   0.379849  -0.009353
 472  12   3.738088   9.743731   4.338887  -0.003838   0.379849  -0.010103
 473  12   4.111782   9.677834   3.030990  -0.002919   0.379849  -0.007684
 474  11   4.417181   8.382656   6.071523  -0.002725   0.379849  -0.007174
 475  11   4.663594   9.446295   5.257559  -0.003761   0.379849  -0.009900
 476  11   5.029407   9.804957   3.995764  -0.003455   0.379849  -0.009096
 477  11   5.323575   9.534406   2.956628  -0.000905   0.189732  -0.004771
 =====================================================

              1883633  WORDS OF DYNAMIC MEMORY USED
 EXECUTION OF GAMESS TERMINATED NORMALLY Wed Nov 23 06:55:19 2016
 DDI: 263640 bytes (0.3 MB / 0 MWords) used by master data server.

 ----------------------------------------
 CPU timing information for all processes
 ========================================
 0: 178.356 + 0.96 = 178.452
 ----------------------------------------
 ddikick.x: exited gracefully.
