----- GAMESS execution script -----

          ******************************************************
          *         GAMESS VERSION =  5 DEC 2014 (R1)          *
          *             FROM IOWA STATE UNIVERSITY             *
          * M.W.SCHMIDT, K.K.BALDRIDGE, J.A.BOATZ, S.T.ELBERT, *
          *   M.S.GORDON, J.H.JENSEN, S.KOSEKI, N.MATSUNAGA,   *
          *          K.A.NGUYEN, S.J.SU, T.L.WINDUS,           *
          *       TOGETHER WITH M.DUPUIS, J.A.MONTGOMERY       *
          *         J.COMPUT.CHEM.  14, 1347-1363(1993)        *
          **************** 64 BIT LINUX VERSION ****************

 EXECUTION OF GAMESS BEGUN Wed Nov 23 08:34:26 2016

            ECHO OF THE FIRST FEW INPUT CARDS -
 INPUT CARD>! SELECT RESTRICTED HARTREE-FOCK AS DEFAULT                                     
 INPUT CARD>$contrl scftyp=rhf $end                                                         
 INPUT CARD>                                                                                
 INPUT CARD>! THEORY: HF OR DFT                                                             
 INPUT CARD> $contrl mplevl=0 $end                                                          
 INPUT CARD>                                                                                
 INPUT CARD> $system timlim=10000 mwords=20 $end                                            
 INPUT CARD> $SCF DIRSCF=.TRUE. $end                                                        
 INPUT CARD>                                                                                
 INPUT CARD>                                                                                
 INPUT CARD>! BASIS SETS                                                                    
 INPUT CARD>! 6-311G(d,p)                                                                   
 INPUT CARD> $BASIS GBASIS=N311 NGAUSS=6 NDFUNC=1 NPFUNC=1 $END                             
 INPUT CARD>                                                                                
 INPUT CARD>! One of the following                                                          
 INPUT CARD> $guess guess=HUCKEL $end                                                       
 INPUT CARD>                                                                                
 INPUT CARD> $statpt projct=.FALSE. $end                                                    
 INPUT CARD> $STATPT IFREEZ(1)=1,2,3 $END                                                   
 INPUT CARD>                                                                                
 INPUT CARD>! Optimize the geometry with COSMO effects                                      
 INPUT CARD> $statpt opttol=0.0005 nstep=50 $end                                            
 INPUT CARD> $contrl nzvar=1 $end                                                           
 INPUT CARD> $zmat dlc=.t. auto=.t. $end                                                    
 INPUT CARD> $contrl runtyp=OPTIMIZE maxit=200 $end                                         
 INPUT CARD>                                                                                
 INPUT CARD>! Run COSMO on perfect conductor                                                
 INPUT CARD> $COSGMS PRFCND=.TRUE. $end                                                     
 INPUT CARD>                                                                                
 INPUT CARD>! Specifying RSOLV                                                              
 INPUT CARD> $COSGMS COSRAD = 1.4 $end                                                      
 INPUT CARD>                                                                                
 INPUT CARD>! available memory                                                              
 INPUT CARD> $SYSTEM MWORDS=40 $END                                                         
 INPUT CARD>                                                                                
 INPUT CARD> $DATA                                                                          
 INPUT CARD>http://cactus.nci.nih.gov/chemical/structure/2-METHYLNONANE/file?format=sdf&get3
 INPUT CARD>C1                                                                              
 INPUT CARD>C      6.0      4.5776000000   -0.8357000000    0.0115000000                    
 INPUT CARD>C      6.0      3.3771000000    0.0577000000    0.3301000000                    
 INPUT CARD>C      6.0      3.5270000000    1.3933000000   -0.4010000000                    
 INPUT CARD>C      6.0      2.0913000000   -0.6332000000   -0.1285000000                    
 INPUT CARD>C      6.0      0.8829000000    0.2013000000    0.3010000000                    
 INPUT CARD>C      6.0     -0.4029000000   -0.4896000000   -0.1577000000                    
 INPUT CARD>C      6.0     -1.6113000000    0.3448000000    0.2718000000                    
 INPUT CARD>C      6.0     -2.8971000000   -0.3460000000   -0.1868000000                    
 INPUT CARD>C      6.0     -4.1055000000    0.4884000000    0.2427000000                    
 INPUT CARD>C      6.0     -5.3913000000   -0.2024000000   -0.2160000000                    
 INPUT CARD>H      1.0      5.4936000000   -0.3435000000    0.3383000000                    
 INPUT CARD>H      1.0      4.4707000000   -1.7872000000    0.5324000000                    
   40000000 WORDS OF MEMORY AVAILABLE

     BASIS OPTIONS
     -------------
     GBASIS=N311         IGAUSS=       6      POLAR=POPN311 
     NDFUNC=       1     NFFUNC=       0     DIFFSP=       F
     NPFUNC=       1      DIFFS=       F     BASNAM=        


     RUN TITLE
     ---------
 http://cactus.nci.nih.gov/chemical/structure/2-METHYLNONANE/file?format=sdf&get3

 THE POINT GROUP OF THE MOLECULE IS C1      
 THE ORDER OF THE PRINCIPAL AXIS IS     0

 ATOM      ATOMIC                      COORDINATES (BOHR)
           CHARGE         X                   Y                   Z
 C           6.0     8.6504096814       -1.5792440079        0.0217318489
 C           6.0     6.3817936331        0.1090371895        0.6237985485
 C           6.0     6.6650635587        2.6329552187       -0.7577801211
 C           6.0     3.9519839581       -1.1965744954       -0.2428297894
 C           6.0     1.6684390746        0.3804018413        0.5688075223
 C           6.0    -0.7613706005       -0.9252098436       -0.2980097883
 C           6.0    -3.0449154840        0.6515775206        0.5136275235
 C           6.0    -5.4747251590       -0.6538451918       -0.3530008145
 C           6.0    -7.7582700426        0.9229421724        0.4586364972
 C           6.0   -10.1880797176       -0.3824805399       -0.4081808133
 H           1.0    10.3813986861       -0.6491208768        0.6392943016
 H           1.0     8.4483979733       -3.3773182853        1.0060901159
 H           1.0     8.7375260494       -1.9139144804       -2.0087787249
 H           1.0     6.2946772651        0.4437076619        2.6543091224
 H           1.0     6.7521799267        2.2982847463       -2.7882906949
 H           1.0     5.0489698940        3.8357658099       -0.3288123219
 H           1.0     8.3962415360        3.5630783498       -0.1402176683
 H           1.0     3.9654010126       -1.3800668888       -2.2943163217
 H           1.0     3.8342540291       -3.0662693877        0.6130271104
 H           1.0     1.6550220200        0.5638942347        2.6202940546
 H           1.0     1.7859800310        2.2500967336       -0.2872383501
 H           1.0    -0.7479535459       -1.1088912096       -2.3494963205
 H           1.0    -0.8791005295       -2.7950937084        0.5580360842
 H           1.0    -3.0583325385        0.8352588866        2.5653030283
 H           1.0    -2.9273745276        2.5214613854       -0.3422293764
 H           1.0    -5.4613081045       -0.8375265578       -2.4044873468
 H           1.0    -5.5924550881       -2.5237290566        0.5028560853
 H           1.0    -7.7716870971        1.1066235384        2.5101230295
 H           1.0    -7.6405401136        2.7928260373       -0.3974093752
 H           1.0   -10.1746626631       -0.5661619059       -2.4596673456
 H           1.0   -10.3056206740       -2.2523644048        0.4478650591
 H           1.0   -11.8149448204        0.7407725872        0.1700753389

          INTERNUCLEAR DISTANCES (ANGS.)




     $CONTRL OPTIONS
     ---------------
 SCFTYP=RHF          RUNTYP=OPTIMIZE     EXETYP=RUN     
 MPLEVL=       0     CITYP =NONE         CCTYP =NONE         VBTYP =NONE    
 DFTTYP=NONE         TDDFT =NONE    
 MULT  =       1     ICHARG=       0     NZVAR =       1     COORD =UNIQUE  
 PP    =NONE         RELWFN=NONE         LOCAL =NONE         NUMGRD=       F
 ISPHER=      -1     NOSYM =       0     MAXIT =     200     UNITS =ANGS    
 PLTORB=       F     MOLPLT=       F     AIMPAC=       F     FRIEND=        
 NPRINT=       7     IREST =       0     GEOM  =INPUT   
 NORMF =       0     NORMP =       0     ITOL  =      20     ICUT  =       9
 INTTYP=BEST         GRDTYP=BEST         QMTTOL= 1.0E-06

     $SYSTEM OPTIONS
     ---------------
  REPLICATED MEMORY=    40000000 WORDS (ON EVERY NODE).
 DISTRIBUTED MEMDDI=           0 MILLION WORDS IN AGGREGATE,
 MEMDDI DISTRIBUTED OVER   1 PROCESSORS IS           0 WORDS/PROCESSOR.
 TOTAL MEMORY REQUESTED ON EACH PROCESSOR=    40000000 WORDS.
 TIMLIM=       10000.00 MINUTES, OR       6.9 DAYS.
 PARALL= F  BALTYP=  DLB     KDIAG=    0  COREFL= F
 MXSEQ2=     300 MXSEQ3=     150  mem10=         0

     $COSGMS OPTIONS
     ---------------
     EPSI  =   INFTY     NSPA  =      92     COSRAD=    1.40
     DISEX =   10.00     OUTCHG=DBLCAV       COSBUG=       F
     COSWRT=       F     DCOSMO=       F

     SYMMETRY COORDINATES WILL NOT BE USED FOR 
     THE COSMO CALCULATION, EVEN IF SPECIFIED:
         -- SWITCHING TO C1 POINT GROUP --


     DEFINITION OF CAVITY
     ---------------------------
     ATOM         COORDINATES           RADIUS 
     1    8.6504   -1.5792    0.0217    2.0000
     2    6.3818    0.1090    0.6238    2.0000
     3    6.6651    2.6330   -0.7578    2.0000
     4    3.9520   -1.1966   -0.2428    2.0000
     5    1.6684    0.3804    0.5688    2.0000
     6   -0.7614   -0.9252   -0.2980    2.0000
     7   -3.0449    0.6516    0.5136    2.0000
     8   -5.4747   -0.6538   -0.3530    2.0000
     9   -7.7583    0.9229    0.4586    2.0000
    10  -10.1881   -0.3825   -0.4082    2.0000
    11   10.3814   -0.6491    0.6393    1.3000
    12    8.4484   -3.3773    1.0061    1.3000
    13    8.7375   -1.9139   -2.0088    1.3000
    14    6.2947    0.4437    2.6543    1.3000
    15    6.7522    2.2983   -2.7883    1.3000
    16    5.0490    3.8358   -0.3288    1.3000
    17    8.3962    3.5631   -0.1402    1.3000
    18    3.9654   -1.3801   -2.2943    1.3000
    19    3.8343   -3.0663    0.6130    1.3000
    20    1.6550    0.5639    2.6203    1.3000
    21    1.7860    2.2501   -0.2872    1.3000
    22   -0.7480   -1.1089   -2.3495    1.3000
    23   -0.8791   -2.7951    0.5580    1.3000
    24   -3.0583    0.8353    2.5653    1.3000
    25   -2.9274    2.5215   -0.3422    1.3000
    26   -5.4613   -0.8375   -2.4045    1.3000
    27   -5.5925   -2.5237    0.5029    1.3000
    28   -7.7717    1.1066    2.5101    1.3000
    29   -7.6405    2.7928   -0.3974    1.3000
    30  -10.1747   -0.5662   -2.4597    1.3000
    31  -10.3056   -2.2524    0.4479    1.3000
    32  -11.8149    0.7408    0.1701    1.3000

          ----------------
          PROPERTIES INPUT
          ----------------

     MOMENTS            FIELD           POTENTIAL          DENSITY
 IEMOM =       1   IEFLD =       0   IEPOT =       0   IEDEN =       0
 WHERE =COMASS     WHERE =NUCLEI     WHERE =NUCLEI     WHERE =NUCLEI  
 OUTPUT=BOTH       OUTPUT=BOTH       OUTPUT=BOTH       OUTPUT=BOTH    
 IEMINT=       0   IEFINT=       0                     IEDINT=       0
                                                       MORB  =       0
          EXTRAPOLATION IN EFFECT
          SOSCF IN EFFECT
 ORBITAL PRINTING OPTION: NPREO=     1   322     2     1

     -------------------------------
     INTEGRAL TRANSFORMATION OPTIONS
     -------------------------------
     NWORD  =            0
     CUTOFF = 1.0E-09     MPTRAN =       0
     DIRTRF =       T     AOINTS =DUP     

          ----------------------
          INTEGRAL INPUT OPTIONS
          ----------------------
 NOPK  =       1 NORDER=       0 SCHWRZ=       T


 -----------------------------------------------
  STATISTICS ON AUTOMATIC COORDINATE GENERATION 
 -----------------------------------------------
  NUMBER OF USER SPECIFIED BONDS                             0
  NUMBER OF BONDS                                           31
  NUMBER OF ANGLES                                          60
  NUMBER OF TORSIONS                                        81
  NUMBER OF EXTRA COORD.                                     0
  NUMBER OF EXTRA COORD. FOR CONSTRAINTS                     0
  NUMBER OF CONSTRAINED COORD.                               0

  TOTAL NUMBER OF PRIMITIVES                               172
 -----------------------------------------------

   --- ENCODED Z MATRIX ---
 COORD  TYPE   I   J   K   L   M   N
    1      1    1  11
    2      1    1   2
    3      1    1  12
    4      1    1  13
    5      1    2  14
    6      1    2   4
    7      1    2   3
    8      1    3  16
    9      1    3  15
   10      1    3  17
   11      1    4  19
   12      1    4  18
   13      1    4   5
   14      1    5   6
   15      1    5  21
   16      1    5  20
   17      1    6   7
   18      1    6  23
   19      1    6  22
   20      1    7   8
   21      1    7  25
   22      1    7  24
   23      1    8  27
   24      1    8  26
   25      1    8   9
   26      1    9  29
   27      1    9  28
   28      1    9  10
   29      1   10  32
   30      1   10  31
   31      1   10  30
   32      2    1   2   4
   33      2    1   2  14
   34      2    1   2   3
   35      2    2   3  15
   36      2    2   3  17
   37      2    2   4   5
   38      2    2   4  19
   39      2    2   3  16
   40      2    2   4  18
   41      2    2   1  12
   42      2    2   1  11
   43      2    2   1  13
   44      2    3   2   4
   45      2    3   2  14
   46      2    4   5  20
   47      2    4   5  21
   48      2    4   2  14
   49      2    4   5   6
   50      2    5   6   7
   51      2    5   4  19
   52      2    5   4  18
   53      2    5   6  23
   54      2    5   6  22
   55      2    6   5  20
   56      2    6   5  21
   57      2    6   7  24
   58      2    6   7  25
   59      2    6   7   8
   60      2    7   8   9
   61      2    7   8  26
   62      2    7   8  27
   63      2    7   6  22
   64      2    7   6  23
   65      2    8   9  28
   66      2    8   9  29
   67      2    8   9  10
   68      2    8   7  24
   69      2    8   7  25
   70      2    9  10  30
   71      2    9  10  31
   72      2    9  10  32
   73      2    9   8  26
   74      2    9   8  27
   75      2   10   9  28
   76      2   10   9  29
   77      2   11   1  13
   78      2   11   1  12
   79      2   12   1  13
   80      2   15   3  17
   81      2   15   3  16
   82      2   16   3  17
   83      2   18   4  19
   84      2   20   5  21
   85      2   22   6  23
   86      2   24   7  25
   87      2   26   8  27
   88      2   28   9  29
   89      2   30  10  31
   90      2   30  10  32
   91      2   31  10  32
   92      3    1   2   3  17
   93      3    1   2   3  15
   94      3    1   2   3  16
   95      3    1   2   4   5
   96      3    1   2   4  18
   97      3    1   2   4  19
   98      3    2   4   5  20
   99      3    2   4   5  21
  100      3    2   4   5   6
  101      3    3   2   4  19
  102      3    3   2   4  18
  103      3    3   2   4   5
  104      3    3   2   1  13
  105      3    3   2   1  12
  106      3    3   2   1  11
  107      3    4   2   1  13
  108      3    4   2   3  16
  109      3    4   2   3  17
  110      3    4   2   3  15
  111      3    4   2   1  12
  112      3    4   2   1  11
  113      3    4   5   6  22
  114      3    4   5   6  23
  115      3    4   5   6   7
  116      3    5   4   2  14
  117      3    5   6   7  24
  118      3    5   6   7  25
  119      3    5   6   7   8
  120      3    6   7   8   9
  121      3    6   7   8  26
  122      3    6   7   8  27
  123      3    6   5   4  18
  124      3    6   5   4  19
  125      3    7   8   9  10
  126      3    7   8   9  28
  127      3    7   8   9  29
  128      3    7   6   5  20
  129      3    7   6   5  21
  130      3    8   7   6  22
  131      3    8   7   6  23
  132      3    8   9  10  30
  133      3    8   9  10  31
  134      3    8   9  10  32
  135      3    9   8   7  24
  136      3    9   8   7  25
  137      3   10   9   8  26
  138      3   10   9   8  27
  139      3   11   1   2  14
  140      3   12   1   2  14
  141      3   13   1   2  14
  142      3   14   2   4  19
  143      3   14   2   3  17
  144      3   14   2   4  18
  145      3   14   2   3  15
  146      3   14   2   3  16
  147      3   18   4   5  21
  148      3   18   4   5  20
  149      3   19   4   5  21
  150      3   19   4   5  20
  151      3   20   5   6  22
  152      3   20   5   6  23
  153      3   21   5   6  22
  154      3   21   5   6  23
  155      3   22   6   7  25
  156      3   22   6   7  24
  157      3   23   6   7  25
  158      3   23   6   7  24
  159      3   24   7   8  27
  160      3   24   7   8  26
  161      3   25   7   8  27
  162      3   25   7   8  26
  163      3   26   8   9  28
  164      3   26   8   9  29
  165      3   27   8   9  28
  166      3   27   8   9  29
  167      3   28   9  10  32
  168      3   28   9  10  31
  169      3   28   9  10  30
  170      3   29   9  10  32
  171      3   29   9  10  31
  172      3   29   9  10  30

          INDEP./SYM. INTERNAL COORDINATES
          --------------------------------
 CRD  1=  -0.3256 ( 37) -0.1082 ( 46) -0.1187 ( 47)  0.3913 ( 49) -0.4226 ( 50)
           0.1051 ( 51)  0.1266 ( 53)  0.1197 ( 54) -0.1098 ( 55) -0.1205 ( 56)
          -0.1075 ( 57) -0.1131 ( 58)  0.3695 ( 59) -0.2720 ( 60)  0.1190 ( 63)
           0.1290 ( 64)  0.1450 ( 67) -0.1021 ( 68) -0.1091 ( 69)
 CRD  2=   0.1235 (  6)  0.1322 ( 14) -0.1150 ( 32)  0.2749 ( 37) -0.1670 ( 38)
           0.2228 ( 44) -0.1227 ( 51) -0.1064 ( 57)  0.2286 ( 59) -0.1458 ( 60)
           0.1022 ( 61)  0.1803 ( 67) -0.1554 ( 68) -0.1220 ( 95)  0.1081 ( 98)
           0.1134 ( 99)  0.2557 (100) -0.1233 (103)  0.1054 (112) -0.2194 (115)
           0.1375 (117)  0.1112 (118)  0.2530 (119) -0.1599 (120)  0.1051 (123)
           0.1443 (124)  0.1339 (125)  0.1080 (130)  0.1094 (131)
 CRD  3=   0.1358 ( 14)  0.1046 ( 20)  0.3647 ( 37) -0.1503 ( 40)  0.1098 ( 46)
          -0.1318 ( 49) -0.1456 ( 52) -0.1295 ( 58)  0.2639 ( 59) -0.2284 ( 60)
           0.1161 ( 62) -0.1000 ( 66)  0.2703 ( 67) -0.1496 ( 69)  0.1121 ( 74)
          -0.1121 ( 76)  0.1079 ( 95) -0.1576 (100)  0.1017 (113)  0.2119 (115)
          -0.1105 (118) -0.2114 (119)  0.1760 (120)  0.1076 (122) -0.1077 (123)
          -0.1231 (125)  0.1053 (128)
 CRD  4=   0.2199 (  6)  0.2874 ( 13)  0.2641 ( 14)  0.3064 ( 17)  0.2370 ( 20)
           0.1785 ( 25)  0.1212 ( 28)  0.2077 ( 32) -0.1487 ( 34) -0.1306 ( 46)
           0.3425 ( 49)  0.2235 ( 50) -0.1186 ( 56)  0.3347 ( 60) -0.1098 ( 61)
          -0.1032 ( 73) -0.1193 ( 74)
 CRD  5=   0.1028 ( 38) -0.1221 ( 40) -0.1496 ( 44) -0.1088 ( 46)  0.1924 ( 47)
          -0.1314 ( 49) -0.1703 ( 51)  0.1360 ( 52)  0.1045 ( 53) -0.1274 ( 54)
           0.1517 ( 55) -0.1286 ( 57)  0.1165 ( 58) -0.1402 ( 60)  0.1255 ( 62)
           0.1402 ( 63) -0.1422 ( 64) -0.1057 ( 69)  0.1293 ( 73) -0.1949 ( 95)
          -0.1034 ( 98) -0.1421 (100) -0.1978 (103) -0.1481 (113) -0.1547 (114)
          -0.2534 (115) -0.1575 (116) -0.1386 (119) -0.1714 (120) -0.1284 (121)
          -0.1145 (122) -0.1011 (123) -0.1325 (128) -0.1450 (129)
 CRD  6=  -0.1318 (  6) -0.1109 (  7)  0.1244 ( 20)  0.1564 ( 32)  0.1118 ( 34)
          -0.2161 ( 37) -0.1110 ( 39) -0.2744 ( 44) -0.1634 ( 49)  0.3170 ( 50)
           0.1180 ( 51) -0.1663 ( 53) -0.1386 ( 60) -0.1045 ( 63) -0.1235 ( 65)
          -0.1308 ( 66)  0.4093 ( 67)  0.1236 ( 70) -0.1600 ( 75)  0.1374 (103)
           0.1320 (119)  0.1256 (125)  0.1046 (126)
 CRD  7=  -0.1323 (  6)  0.1281 ( 17)  0.1558 ( 20)  0.1631 ( 25) -0.2572 ( 32)
           0.3905 ( 34)  0.1309 ( 36)  0.1084 ( 37) -0.1159 ( 39) -0.1022 ( 41)
           0.1510 ( 42) -0.1718 ( 44) -0.1074 ( 45)  0.1940 ( 48) -0.1276 ( 50)
          -0.1306 ( 57)  0.2436 ( 59)  0.2817 ( 60) -0.1264 ( 74) -0.1137 ( 92)
          -0.1160 ( 97)  0.1380 (102)  0.1727 (103) -0.1132 (107)  0.1360 (110)
 CRD  8=  -0.1655 (  2) -0.1305 (  6)  0.1363 (  7) -0.1682 ( 13)  0.1283 ( 20)
           0.1533 ( 25)  0.1738 ( 28) -0.2229 ( 32) -0.2696 ( 37)  0.1196 ( 40)
          -0.1365 ( 41)  0.2111 ( 44)  0.1390 ( 52) -0.1170 ( 59)  0.1746 ( 60)
          -0.1442 ( 61) -0.1020 ( 66)  0.3281 ( 67)  0.1071 ( 68)  0.1598 ( 71)
          -0.1590 ( 76) -0.1538 ( 95)  0.1216 (100)  0.1203 (111)  0.1331 (112)
           0.1123 (120) -0.1597 (125) -0.1034 (127)
 CRD  9=  -0.2264 (  2) -0.1298 (  6) -0.1969 (  7) -0.1842 ( 13) -0.1429 ( 14)
           0.1379 ( 20)  0.1851 ( 25)  0.1299 ( 28)  0.1201 ( 32) -0.2912 ( 34)
          -0.1296 ( 35) -0.1097 ( 36) -0.1291 ( 42) -0.1483 ( 43) -0.2767 ( 49)
          -0.1938 ( 50)  0.1046 ( 55) -0.1275 ( 57)  0.1968 ( 59)  0.2650 ( 60)
          -0.1045 ( 62)  0.1094 ( 63)  0.1035 ( 64)  0.1577 ( 95)  0.1089 ( 96)
           0.1485 ( 97) -0.1298 (102)
 CRD 10=   0.1168 (  6) -0.1419 ( 17)  0.1033 ( 28)  0.1857 ( 37) -0.1077 ( 40)
           0.2542 ( 49) -0.2141 ( 50)  0.1338 ( 53) -0.1685 ( 56)  0.1560 ( 58)
          -0.3821 ( 59) -0.1018 ( 62) -0.1455 ( 65)  0.3019 ( 67)  0.1436 ( 68)
           0.1370 ( 69)  0.1495 ( 70) -0.1144 ( 75)  0.1321 ( 95) -0.1446 (100)
          -0.1601 (120) -0.1077 (122)  0.1178 (125) -0.1191 (136)
 CRD 11=  -0.1867 (  2)  0.1161 ( 14)  0.1185 ( 17) -0.1690 ( 32)  0.1419 ( 33)
          -0.1882 ( 37) -0.1857 ( 43)  0.1781 ( 44) -0.1008 ( 45) -0.1203 ( 47)
           0.2785 ( 50)  0.1836 ( 51) -0.1167 ( 54)  0.1290 ( 58) -0.1487 ( 60)
           0.1288 ( 62) -0.1359 ( 64)  0.1373 ( 66) -0.1241 ( 67) -0.1319 ( 69)
           0.1449 ( 73) -0.1027 ( 74)  0.1892 ( 95)  0.1053 ( 96)  0.1310 (103)
           0.1177 (116) -0.2327 (120) -0.1377 (121) -0.1002 (132) -0.1167 (133)
          -0.1085 (134) -0.1663 (135) -0.1098 (136)
 CRD 12=  -0.2410 (  2)  0.1578 (  7) -0.1161 ( 32)  0.1350 ( 38)  0.1483 ( 39)
          -0.1378 ( 40) -0.1103 ( 41) -0.1169 ( 46)  0.1133 ( 49)  0.1501 ( 50)
           0.1739 ( 52)  0.1753 ( 61) -0.1073 ( 62) -0.1129 ( 68)  0.1584 ( 70)
          -0.1949 ( 71)  0.1168 ( 74) -0.1156 ( 75)  0.1477 ( 76) -0.1098 ( 95)
          -0.1450 ( 99) -0.1790 (100) -0.1258 (101) -0.1764 (103)  0.1011 (120)
          -0.1051 (124)  0.2475 (125)  0.1385 (126)  0.1405 (127)  0.1346 (137)
           0.1409 (138)
 CRD 13=   0.2759 (  2)  0.2164 (  6)  0.4484 (  7)  0.2791 ( 35) -0.1317 ( 37)
           0.1181 ( 38)  0.1172 ( 39)  0.1014 ( 40)  0.1973 ( 43)  0.1123 ( 44)
          -0.1855 ( 49)  0.1310 ( 70) -0.1310 ( 71) -0.1107 ( 79) -0.1214 ( 80)
          -0.1619 ( 81) -0.1003 (105) -0.1079 (120) -0.1137 (123)  0.1313 (125)
          -0.1046 (134)
 CRD 14=   0.1923 (  2)  0.3315 (  7) -0.2565 ( 35)  0.2527 ( 36)  0.2980 ( 39)
           0.2943 ( 41)  0.1891 ( 42) -0.3127 ( 43) -0.1873 ( 70)  0.1849 ( 71)
          -0.1730 ( 78) -0.2078 ( 82) -0.1284 ( 94)  0.1305 (105)  0.1309 (119)
 CRD 15=   0.3285 (  2) -0.1412 (  6) -0.1285 (  7)  0.1198 ( 13) -0.1153 ( 14)
           0.1392 ( 33) -0.1845 ( 36)  0.1940 ( 41)  0.2739 ( 42) -0.1689 ( 43)
           0.1200 ( 47) -0.1398 ( 54) -0.1012 ( 56)  0.1414 ( 63)  0.1449 ( 65)
          -0.1287 ( 66)  0.1347 ( 70) -0.1625 ( 71)  0.1088 ( 74) -0.1328 ( 75)
           0.1057 ( 76) -0.1753 ( 78) -0.1081 ( 92) -0.1124 ( 93) -0.1550 (115)
          -0.1185 (119) -0.1132 (128)  0.1125 (132)  0.1133 (133)  0.1159 (136)
 CRD 16=  -0.2507 (  6)  0.2084 ( 13) -0.1453 ( 14)  0.1488 ( 17) -0.1082 ( 20)
           0.1043 ( 25) -0.1611 ( 28) -0.2489 ( 35) -0.1133 ( 38)  0.1644 ( 39)
          -0.1201 ( 41)  0.1254 ( 43)  0.1438 ( 46) -0.1414 ( 55)  0.1252 ( 64)
           0.1520 ( 66)  0.1584 ( 70) -0.2305 ( 71)  0.1235 ( 73)  0.1196 ( 91)
           0.1008 (100) -0.1025 (101)  0.1115 (106)  0.1059 (113)  0.1615 (115)
           0.1317 (129) -0.1321 (132) -0.1207 (133) -0.1618 (134) -0.1158 (135)
 CRD 17=  -0.1364 ( 17) -0.1032 ( 25)  0.5671 ( 28) -0.1489 ( 35) -0.1324 ( 60)
          -0.1088 ( 65) -0.1075 ( 67)  0.1764 ( 70)  0.4180 ( 72)  0.1541 ( 75)
           0.1813 ( 76) -0.2558 ( 90) -0.1708 ( 91) -0.1064 (127)  0.1016 (169)
 CRD 18=   0.2200 (  6) -0.1800 ( 13)  0.1915 ( 14) -0.1851 ( 17)  0.2298 ( 20)
          -0.2443 ( 25) -0.1597 ( 28) -0.2247 ( 35)  0.2309 ( 36)  0.1481 ( 40)
           0.1728 ( 42) -0.1016 ( 57)  0.1217 ( 68)  0.2665 ( 70) -0.1097 ( 71)
          -0.3060 ( 72) -0.1047 ( 74)  0.1130 ( 81)  0.1638 ( 91)  0.1080 ( 98)
          -0.1030 (130)
 CRD 19=  -0.1787 (  2)  0.2882 (  6)  0.1031 ( 10)  0.1035 ( 17) -0.2269 ( 20)
           0.3491 ( 25)  0.3791 ( 36) -0.2926 ( 39)  0.1115 ( 40) -0.1917 ( 43)
          -0.2221 ( 71)  0.2309 ( 72)  0.1216 ( 74) -0.1405 ( 80)  0.1221 ( 81)
           0.1127 ( 89)
 CRD 20=  -0.1169 (  1) -0.1437 (  2)  0.1209 (  3) -0.2380 (  6)  0.2116 (  7)
           0.1773 ( 13) -0.1949 ( 25)  0.1427 ( 35)  0.2527 ( 36) -0.1270 ( 38)
          -0.1937 ( 39)  0.3787 ( 41) -0.4123 ( 42) -0.1034 ( 43)  0.1770 ( 70)
          -0.1142 ( 72)  0.2153 ( 77) -0.1013 ( 79) -0.1687 ( 80)
 CRD 21=   0.1328 (  6)  0.2532 ( 13) -0.2708 ( 14)  0.1486 ( 17) -0.2323 ( 25)
           0.1104 ( 28)  0.2055 ( 35) -0.2597 ( 39) -0.1882 ( 41)  0.3394 ( 42)
          -0.2215 ( 43)  0.1030 ( 47)  0.1080 ( 64)  0.2025 ( 71) -0.1642 ( 72)
           0.1618 ( 79) -0.1008 ( 80) -0.1194 ( 89)
 CRD 22=   0.1209 (  6) -0.1104 (  9) -0.1894 ( 14)  0.2910 ( 17) -0.1491 ( 20)
          -0.1515 ( 25)  0.1212 ( 28) -0.3306 ( 35)  0.1672 ( 36)  0.1545 ( 39)
          -0.1465 ( 41) -0.1405 ( 42)  0.2931 ( 43) -0.1109 ( 52) -0.1357 ( 54)
           0.1173 ( 58)  0.1464 ( 63) -0.1140 ( 66)  0.2560 ( 71) -0.1403 ( 72)
           0.1135 ( 78) -0.1352 ( 82) -0.1154 ( 89)
 CRD 23=  -0.1037 (  6)  0.2754 ( 13) -0.2849 ( 17)  0.2720 ( 20)  0.1230 ( 24)
          -0.1195 ( 28) -0.1021 ( 31)  0.2087 ( 36) -0.1796 ( 41)  0.1535 ( 43)
          -0.1162 ( 48)  0.1069 ( 51)  0.1084 ( 53) -0.1126 ( 57)  0.1212 ( 61)
          -0.1088 ( 64)  0.1064 ( 69) -0.3452 ( 70)  0.1384 ( 72)  0.1143 ( 89)
           0.1007 (111)  0.1033 (112) -0.1122 (118)
 CRD 24=   0.1944 (  6) -0.4132 ( 14) -0.1111 ( 16) -0.1161 ( 18)  0.3981 ( 20)
           0.1017 ( 21)  0.1096 ( 23) -0.1131 ( 28)  0.1044 ( 39)  0.1185 ( 48)
          -0.1470 ( 53) -0.1092 ( 56)  0.1469 ( 62) -0.2762 ( 71)  0.1786 ( 72)
           0.1294 ( 89)  0.1033 (117)  0.1138 (156) -0.1043 (157)
 CRD 25=  -0.1235 (  2)  0.1076 (  7) -0.1061 ( 33)  0.1350 ( 35) -0.1781 ( 36)
           0.1564 ( 39) -0.1338 ( 41)  0.1137 ( 42) -0.1100 ( 43)  0.2113 ( 46)
          -0.1845 ( 47) -0.2082 ( 55)  0.1781 ( 56) -0.1580 ( 57)  0.1541 ( 58)
           0.1005 ( 62)  0.2164 ( 65) -0.2245 ( 66)  0.1478 ( 68) -0.1289 ( 69)
          -0.1902 ( 75)  0.1872 ( 76)  0.1177 ( 79) -0.1351 ( 81)  0.1325 (113)
           0.1311 (114) -0.1049 (120) -0.1210 (121) -0.1154 (122)  0.1157 (123)
           0.1174 (124)  0.1638 (132)  0.1613 (133)  0.1495 (134)  0.1055 (138)
 CRD 26=  -0.1485 ( 11) -0.2313 ( 13)  0.2819 ( 17)  0.1512 ( 18)  0.1272 ( 20)
           0.1695 ( 22) -0.1625 ( 25) -0.1459 ( 27)  0.1064 ( 37) -0.1111 ( 43)
          -0.1140 ( 47) -0.1138 ( 52)  0.1284 ( 53) -0.1244 ( 54) -0.1056 ( 59)
           0.2192 ( 61) -0.1413 ( 62)  0.1613 ( 63) -0.1740 ( 65) -0.2140 ( 70)
           0.1452 ( 72) -0.1596 ( 73) -0.1035 ( 76) -0.1033 (117) -0.1143 (118)
           0.1011 (125)  0.1534 (126)  0.1465 (127)
 CRD 27=   0.1715 (  2) -0.1277 (  6) -0.1082 ( 12) -0.2379 ( 13)  0.2345 ( 17)
           0.1271 ( 21) -0.1374 ( 25)  0.1530 ( 33)  0.1346 ( 36)  0.1153 ( 38)
          -0.2479 ( 39) -0.1174 ( 40)  0.1620 ( 43) -0.1003 ( 48) -0.1683 ( 51)
           0.1023 ( 57) -0.1277 ( 61)  0.1772 ( 62)  0.1053 ( 64) -0.1702 ( 66)
          -0.1070 ( 70)  0.1158 ( 72)  0.1217 ( 73) -0.1717 ( 74) -0.1342 ( 75)
           0.1217 ( 76) -0.1032 ( 79)  0.1038 ( 81) -0.1017 ( 92)  0.1128 ( 97)
          -0.1168 (116) -0.1006 (127) -0.1190 (135)
 CRD 28=   0.1355 ( 46) -0.1252 ( 47)  0.2579 ( 53) -0.2611 ( 54) -0.1005 ( 55)
           0.2518 ( 57) -0.2613 ( 58) -0.1240 ( 61)  0.1218 ( 62)  0.2465 ( 63)
          -0.2551 ( 64) -0.2768 ( 68)  0.2759 ( 69)  0.1511 ( 73) -0.1465 ( 74)
          -0.1615 (117) -0.1622 (118)  0.1518 (121)  0.1488 (122) -0.1585 (128)
          -0.1515 (129)  0.1844 (130)  0.1832 (131) -0.1040 (136)
 CRD 29=   0.1011 (  2)  0.1140 ( 33)  0.2237 ( 38) -0.1242 ( 39) -0.2058 ( 40)
           0.1375 ( 43)  0.1822 ( 46) -0.2147 ( 47) -0.1626 ( 51)  0.1621 ( 52)
          -0.2439 ( 55)  0.2061 ( 56) -0.1167 ( 57)  0.1373 ( 61) -0.1333 ( 62)
          -0.1380 ( 64)  0.1122 ( 66)  0.1165 ( 70) -0.1441 ( 73)  0.1738 ( 74)
           0.1210 ( 75) -0.1097 ( 76) -0.1702 ( 98) -0.1579 ( 99)  0.1097 (114)
           0.1526 (123)  0.1546 (124) -0.1127 (128) -0.1218 (129)  0.1269 (135)
           0.1099 (136)
 CRD 30=  -0.1781 ( 11) -0.2122 ( 13) -0.2564 ( 14) -0.1296 ( 15) -0.1220 ( 16)
          -0.1225 ( 17) -0.2064 ( 19)  0.1011 ( 20)  0.1877 ( 24)  0.2336 ( 25)
           0.1712 ( 26)  0.1202 ( 30)  0.1604 ( 41)  0.1653 ( 49)  0.1349 ( 50)
          -0.1007 ( 51) -0.1075 ( 54) -0.1010 ( 60)  0.1168 ( 65) -0.1437 ( 67)
           0.2793 ( 71) -0.1611 ( 72)  0.1302 ( 73)  0.1040 ( 76)  0.1023 ( 84)
          -0.1049 ( 89)  0.1066 ( 90) -0.1007 ( 95)  0.1219 (125) -0.1025 (136)
           0.1091 (138)
 CRD 31=   0.1716 (  6) -0.1315 (  7)  0.2460 ( 12)  0.1974 ( 13)  0.1236 ( 18)
          -0.1472 ( 20) -0.1774 ( 23) -0.1891 ( 25) -0.1593 ( 27) -0.1031 ( 32)
           0.1040 ( 34) -0.1420 ( 35) -0.1283 ( 37)  0.1995 ( 41) -0.1124 ( 42)
          -0.1416 ( 45)  0.1069 ( 46)  0.1272 ( 48) -0.1101 ( 49)  0.1431 ( 52)
           0.1239 ( 60)  0.1244 ( 67) -0.2162 ( 70)  0.1201 ( 72) -0.1146 ( 95)
          -0.1079 (104) -0.1129 (105) -0.1121 (106) -0.1249 (116)  0.1086 (125)
 CRD 32=  -0.1637 ( 13) -0.2175 ( 14) -0.1249 ( 15) -0.1170 ( 16) -0.2491 ( 17)
          -0.1642 ( 18) -0.1342 ( 19) -0.2600 ( 20) -0.1515 ( 21) -0.1712 ( 22)
          -0.1434 ( 23) -0.1636 ( 24) -0.2201 ( 25) -0.1162 ( 26)  0.1004 ( 37)
           0.1731 ( 49)  0.2178 ( 50)  0.2329 ( 59)  0.2099 ( 60)  0.1561 ( 67)
          -0.1055 ( 71)  0.1264 ( 72)  0.1235 ( 85)  0.1329 ( 86)  0.1238 ( 87)
 CRD 33=   0.1598 (  5)  0.1679 ( 11) -0.1294 ( 12)  0.2325 ( 15) -0.2169 ( 16)
          -0.2424 ( 21)  0.2434 ( 22)  0.2370 ( 26) -0.2368 ( 27) -0.1006 ( 40)
          -0.1057 ( 41) -0.1047 ( 70)  0.1047 ( 71)  0.1230 ( 95)  0.1388 ( 96)
           0.1178 ( 97) -0.1323 (113) -0.1323 (114) -0.1281 (115)  0.1015 (120)
           0.1322 (121)  0.1320 (122)  0.1282 (123)  0.1202 (124)  0.1094 (125)
          -0.1313 (130) -0.1306 (131) -0.1043 (132) -0.1043 (133) -0.1266 (134)
           0.1370 (137)  0.1370 (138)  0.1027 (144)
 CRD 34=  -0.1799 (  5)  0.1237 ( 15) -0.1111 ( 16)  0.2082 ( 18) -0.2064 ( 19)
          -0.1391 ( 23)  0.1392 ( 24) -0.1939 ( 26)  0.1939 ( 27)  0.1395 ( 38)
          -0.1592 ( 40) -0.1708 ( 51)  0.2002 ( 52)  0.1259 ( 92)  0.1425 ( 93)
           0.1329 ( 94)  0.1468 ( 96)  0.1249 ( 97)  0.1626 (101)  0.1845 (102)
           0.1055 (104)  0.1433 (107)  0.1087 (110)  0.1263 (111)  0.1345 (112)
           0.1176 (139)  0.1094 (140)  0.1264 (141)  0.1429 (142)  0.1080 (143)
           0.1647 (144)  0.1245 (145)  0.1149 (146)
 CRD 35=   0.1208 (  1)  0.1108 (  3) -0.7035 (  5)  0.1177 (  8) -0.1936 ( 12)
          -0.1150 ( 15) -0.1447 ( 18)  0.1372 ( 19)  0.1035 ( 23) -0.1041 ( 24)
           0.1335 ( 26) -0.1336 ( 27) -0.1335 ( 35) -0.1419 ( 43)  0.1280 (101)
 CRD 36=   0.2017 (  1)  0.2308 (  3)  0.2833 (  4) -0.1174 (  5) -0.1739 (  8)
          -0.2692 (  9) -0.1587 ( 10) -0.1778 ( 12)  0.1497 ( 15) -0.1836 ( 16)
          -0.1605 ( 23)  0.1599 ( 24) -0.1464 ( 26)  0.1462 ( 27)  0.1418 ( 39)
          -0.1455 ( 41) -0.1027 ( 42) -0.1013 ( 43)  0.1327 ( 78)  0.1172 ( 79)
          -0.1305 ( 82) -0.1101 ( 92) -0.1022 ( 93) -0.1072 (104) -0.1102 (106)
          -0.1103 (107) -0.1393 (108) -0.1563 (109) -0.1484 (110) -0.1027 (111)
          -0.1133 (112) -0.1019 (139) -0.1056 (143)
 CRD 37=  -0.3144 (  1) -0.1172 (  2) -0.3497 (  3) -0.3891 (  4) -0.2051 (  5)
          -0.1111 (  7) -0.3380 (  8) -0.3680 (  9) -0.2919 ( 10)  0.1529 ( 36)
           0.1101 ( 39)  0.1179 ( 41)  0.1590 ( 42)  0.1058 ( 43) -0.1328 ( 77)
          -0.1457 ( 78) -0.1042 ( 79) -0.1278 ( 80) -0.1383 ( 82)
 CRD 38=   0.1743 (  1)  0.1390 (  3)  0.2012 (  4)  0.1248 (  5) -0.2360 (  8)
          -0.2585 (  9) -0.2795 ( 10) -0.1347 ( 11)  0.1705 ( 12)  0.2124 ( 21)
          -0.2122 ( 22)  0.2595 ( 23) -0.2595 ( 24)  0.1908 ( 26) -0.1909 ( 27)
          -0.1007 ( 81)
 CRD 39=  -0.1817 ( 28) -0.4903 ( 29) -0.5104 ( 30) -0.5103 ( 31)  0.1711 ( 70)
           0.1710 ( 71)  0.1868 ( 72) -0.1683 ( 89) -0.1803 ( 90) -0.1802 ( 91)
 CRD 40=   0.1435 (  1)  0.1122 (  3)  0.1184 (  4) -0.1250 (  8) -0.1103 (  9)
          -0.1637 ( 10) -0.1287 ( 11)  0.2192 ( 12) -0.2706 ( 15)  0.2823 ( 16)
          -0.2852 ( 18)  0.2881 ( 19) -0.2624 ( 21)  0.2631 ( 22) -0.2140 ( 23)
           0.2142 ( 24) -0.1342 ( 26)  0.1343 ( 27)
 CRD 41=  -0.1923 (  1) -0.1348 (  2) -0.1487 (  3)  0.1221 (  8)  0.1053 ( 10)
          -0.1455 ( 11) -0.1053 ( 46)  0.1244 ( 47) -0.1194 ( 51)  0.1113 ( 53)
          -0.1065 ( 54) -0.1226 ( 56)  0.1093 ( 63) -0.1155 ( 64)  0.1056 ( 68)
          -0.1072 ( 69) -0.1002 ( 92)  0.1034 (101) -0.1239 (108) -0.1249 (109)
          -0.1063 (110)  0.1133 (142) -0.1159 (143) -0.1149 (146)  0.1163 (147)
           0.1035 (148)  0.1506 (149)  0.1378 (150)  0.1355 (151)  0.1387 (152)
           0.1496 (153)  0.1528 (154)  0.1359 (155)  0.1351 (156)  0.1395 (157)
           0.1387 (158)  0.1195 (159)  0.1193 (160)  0.1204 (161)  0.1202 (162)
 CRD 42=  -0.2081 (  1) -0.1267 (  2) -0.1674 (  3)  0.1197 (  8) -0.2413 ( 11)
          -0.1449 ( 15)  0.1120 ( 16) -0.1164 ( 18)  0.1042 ( 19) -0.1162 ( 51)
           0.1067 ( 57) -0.1050 ( 58)  0.1110 ( 61) -0.1106 ( 62) -0.1125 ( 73)
           0.1121 ( 74) -0.1095 ( 75)  0.1094 ( 76) -0.1029 ( 94)  0.1092 ( 97)
           0.1339 (101)  0.1118 (102) -0.1226 (108) -0.1073 (109)  0.1315 (142)
           0.1094 (144) -0.1132 (146) -0.1100 (155) -0.1108 (156) -0.1053 (157)
          -0.1061 (158) -0.1568 (159) -0.1570 (160) -0.1555 (161) -0.1557 (162)
          -0.1552 (163) -0.1552 (164) -0.1549 (165) -0.1549 (166)
 CRD 43=  -0.1598 (  1) -0.1539 (  3)  0.1936 (  4)  0.1579 (  6) -0.1063 (  7)
          -0.1901 (  8)  0.2977 (  9) -0.3462 ( 10)  0.2936 ( 11)  0.1058 ( 34)
           0.1498 ( 77)  0.1335 ( 80) -0.1246 ( 82) -0.2109 ( 92) -0.1178 ( 93)
          -0.1054 ( 96)  0.1049 (104)  0.1140 (105)  0.2156 (106) -0.1839 (109)
           0.1057 (111)  0.2074 (112)  0.2239 (139)  0.1223 (140)  0.1132 (141)
          -0.1955 (143) -0.1023 (145)
 CRD 44=   0.2586 ( 26)  0.2585 ( 27) -0.6031 ( 29)  0.2687 ( 30)  0.2688 ( 31)
           0.3182 ( 89) -0.1502 ( 90) -0.1503 ( 91) -0.1599 (132)  0.1600 (133)
           0.1897 (168) -0.1302 (169)  0.1303 (171) -0.1895 (172)
 CRD 45=  -0.2769 (  1)  0.4027 (  3) -0.5011 (  8)  0.1560 (  9)  0.3115 ( 10)
          -0.2040 ( 77)  0.1447 ( 79)  0.2586 ( 80) -0.1673 ( 81) -0.1112 ( 92)
           0.1599 ( 93)  0.1385 (104)  0.1352 (107) -0.1144 (109)  0.1568 (110)
           0.1443 (141) -0.1054 (143)  0.1657 (145)
 CRD 46=   0.4386 (  1) -0.4217 (  3) -0.3485 (  8)  0.3576 ( 10)  0.2187 ( 77)
          -0.2228 ( 79)  0.1825 ( 80) -0.1793 ( 81)  0.1270 ( 93) -0.1590 (104)
          -0.1647 (107)  0.1362 (110) -0.1773 (141)  0.1448 (145)
 CRD 47=   0.5451 ( 30) -0.5450 ( 31) -0.2958 ( 90)  0.2958 ( 91)  0.2259 (134)
           0.2198 (167)  0.2197 (170)
 CRD 48=   0.2902 (  1)  0.1252 (  3) -0.4530 (  4)  0.3568 (  9) -0.2953 ( 10)
          -0.1401 ( 11) -0.1159 ( 12)  0.2522 ( 78) -0.1597 ( 79)  0.1651 ( 81)
          -0.2019 ( 82) -0.1087 ( 92)  0.1117 (105) -0.1495 (106)  0.1083 (108)
           0.1132 (111) -0.1479 (112) -0.1410 (139)  0.1202 (140) -0.1026 (143)
           0.1044 (146)
 CRD 49=   0.1182 (  4) -0.1076 ( 11)  0.2714 ( 15)  0.2661 ( 16) -0.3388 ( 18)
          -0.3495 ( 19)  0.3484 ( 21)  0.3365 ( 22) -0.2508 ( 23) -0.2563 ( 24)
           0.1029 ( 27) -0.1077 ( 85)  0.1073 ( 86) -0.1011 (156)
 CRD 50=   0.2280 (  4)  0.1940 (  9) -0.2482 ( 11) -0.1483 ( 12)  0.2964 ( 15)
           0.2819 ( 16) -0.1817 ( 21) -0.1950 ( 22)  0.3005 ( 23)  0.2940 ( 24)
          -0.1731 ( 26) -0.1692 ( 27) -0.1031 ( 29) -0.1411 ( 78) -0.1202 ( 82)
           0.1371 ( 94) -0.1380 (105)  0.1212 (108) -0.1138 (111) -0.1155 (140)
           0.1142 (146)
 CRD 51=   0.2069 (  4)  0.2302 (  9) -0.2056 ( 11)  0.3060 ( 18)  0.3055 ( 19)
          -0.2405 ( 23) -0.2407 ( 24)  0.2380 ( 26)  0.2381 ( 27)  0.1179 ( 29)
          -0.1322 ( 78) -0.1475 ( 82)  0.1103 ( 85)  0.1632 ( 94) -0.1573 (105)
           0.1383 (108) -0.1299 (111) -0.1376 (140)  0.1394 (146)
 CRD 52=  -0.1080 (  4) -0.1510 (  9)  0.2907 ( 15)  0.3061 ( 16) -0.3249 ( 21)
          -0.3383 ( 22)  0.3138 ( 26)  0.3172 ( 27)  0.1265 ( 29) -0.1010 ( 30)
           0.1007 ( 82)  0.1166 ( 84) -0.1309 ( 86)  0.1198 ( 88) -0.1098 ( 94)
           0.1068 (105)
 CRD 53=   0.1024 (  9)  0.1440 ( 12) -0.2440 ( 15) -0.2579 ( 16) -0.3042 ( 18)
          -0.2891 ( 19)  0.2602 ( 23)  0.2714 ( 24)  0.2972 ( 26)  0.2921 ( 27)
          -0.1088 ( 84) -0.1291 ( 85)  0.1156 ( 87)  0.1256 ( 88)
 CRD 54=   0.1224 ( 11)  0.1702 ( 12) -0.2586 ( 18) -0.2406 ( 19) -0.3402 ( 21)
          -0.3132 ( 22) -0.3150 ( 23) -0.3003 ( 24) -0.1868 ( 26) -0.1931 ( 27)
          -0.1180 ( 85) -0.1548 ( 86) -0.1455 ( 87)  0.1068 (158) -0.1194 (159)
           0.1030 (162) -0.1018 (164)
 CRD 55=   0.1197 (  6) -0.4439 ( 11) -0.4687 ( 12)  0.1074 ( 13) -0.2438 ( 15)
          -0.2152 ( 16) -0.1527 ( 19) -0.1178 ( 22) -0.2056 ( 83) -0.1172 ( 84)
          -0.1105 (123) -0.1621 (147) -0.1270 (152)
 CRD 56=  -0.1166 ( 11)  0.3189 ( 12)  0.1038 ( 16)  0.1310 ( 21) -0.1280 ( 22)
           0.1044 ( 23) -0.1031 ( 24)  0.1008 ( 75) -0.1010 ( 76)  0.1461 ( 97)
           0.1528 (101) -0.1013 (113) -0.1053 (129)  0.1439 (142) -0.1643 (151)
          -0.1596 (152) -0.1712 (153) -0.1665 (154) -0.1295 (155) -0.1312 (156)
          -0.1301 (157) -0.1318 (158)  0.1634 (163)  0.1636 (164)  0.1634 (165)
           0.1635 (166)  0.1095 (167)  0.1273 (168)  0.1274 (169)  0.1094 (170)
           0.1272 (171)  0.1273 (172)
 CRD 57=   0.2200 ( 11) -0.2291 ( 12) -0.1422 ( 18)  0.1419 ( 19)  0.1578 ( 23)
          -0.1578 ( 24) -0.1077 (121) -0.1080 (122)  0.1315 (123)  0.1263 (124)
          -0.1009 (130) -0.1026 (131)  0.1834 (147)  0.1901 (148)  0.1783 (149)
           0.1850 (150) -0.1327 (155) -0.1319 (156) -0.1343 (157) -0.1335 (158)
          -0.1464 (159) -0.1461 (160) -0.1470 (161) -0.1467 (162)  0.1304 (167)
           0.1448 (168)  0.1448 (169)  0.1303 (170)  0.1447 (171)  0.1448 (172)
 CRD 58=   0.1087 ( 11) -0.1093 ( 12) -0.2509 ( 15)  0.2509 ( 16)  0.3223 ( 18)
          -0.3222 ( 19) -0.2839 ( 21)  0.2839 ( 22)  0.2056 ( 23) -0.2055 ( 24)
          -0.1370 ( 26)  0.1370 ( 27) -0.1472 (151) -0.1476 (152) -0.1479 (153)
          -0.1482 (154)  0.1430 (155)  0.1431 (156)  0.1428 (157)  0.1429 (158)
 CRD 59=  -0.2026 ( 11)  0.2036 ( 12)  0.2511 ( 15) -0.2514 ( 16) -0.2114 ( 21)
           0.2114 ( 22)  0.2304 ( 23) -0.2304 ( 24) -0.1133 ( 98) -0.1101 ( 99)
          -0.1222 (121) -0.1220 (122) -0.1122 (123) -0.1038 (124)  0.1076 (128)
           0.1100 (129) -0.1143 (135) -0.1139 (136) -0.1720 (147) -0.1752 (148)
          -0.1636 (149) -0.1668 (150)  0.1258 (151)  0.1271 (152)  0.1283 (153)
           0.1295 (154) -0.1782 (159) -0.1784 (160) -0.1778 (161) -0.1780 (162)
 CRD 60=  -0.1330 ( 18)  0.1330 ( 19)  0.1556 ( 23) -0.1556 ( 24) -0.3356 ( 26)
           0.3354 ( 27)  0.1201 (126)  0.1200 (127) -0.1469 (132) -0.1469 (133)
          -0.1624 (134)  0.1045 (137)  0.1044 (138) -0.1045 (155) -0.1044 (156)
          -0.1047 (157) -0.1046 (158)  0.1445 (163)  0.1445 (164)  0.1445 (165)
           0.1444 (166) -0.2480 (167) -0.2326 (168) -0.2326 (169) -0.2480 (170)
          -0.2326 (171) -0.2326 (172)
 CRD 61=   0.1943 ( 29)  0.1038 ( 30)  0.1037 ( 31)  0.1050 ( 46)  0.1041 ( 47)
           0.1336 ( 53)  0.1320 ( 54)  0.1479 ( 57)  0.1474 ( 58)  0.1482 ( 61)
           0.1480 ( 62) -0.1239 ( 63) -0.1251 ( 64)  0.1245 ( 65)  0.1247 ( 66)
          -0.1445 ( 68) -0.1448 ( 69)  0.1200 ( 70)  0.1200 ( 71)  0.1564 ( 72)
          -0.1465 ( 73) -0.1461 ( 74) -0.1598 ( 75) -0.1599 ( 76) -0.1575 ( 90)
          -0.1576 ( 91) -0.1039 (126)  0.1042 (127) -0.1370 (151)  0.1415 (154)
          -0.1687 (156)  0.1687 (157) -0.1786 (160)  0.1776 (161) -0.1955 (163)
           0.1959 (166)
 CRD 62=   0.1182 (  4) -0.1132 (  5)  0.1232 (  6) -0.1184 ( 20) -0.1529 ( 28)
           0.2026 ( 29)  0.1374 ( 30)  0.1381 ( 31) -0.1013 ( 38) -0.1065 ( 40)
           0.1001 ( 42)  0.1133 ( 43) -0.1334 ( 46) -0.1291 ( 47)  0.1047 ( 51)
          -0.1016 ( 53)  0.1376 ( 55)  0.1218 ( 56)  0.1114 ( 63)  0.1157 ( 64)
           0.1567 ( 70)  0.1567 ( 71)  0.1799 ( 72) -0.1192 ( 75) -0.1189 ( 76)
          -0.1151 ( 77) -0.1053 ( 79) -0.1289 ( 89) -0.1825 ( 90) -0.1819 ( 91)
           0.1393 (144) -0.1365 (145) -0.1292 (146)  0.1517 (148) -0.1228 (149)
           0.1381 (151) -0.1542 (154) -0.1137 (163)  0.1119 (166)
 CRD 63=   0.1918 (  1) -0.2950 (  2)  0.2109 (  3)  0.2428 (  4) -0.1516 (  5)
          -0.1108 (  8)  0.1270 ( 28) -0.1048 ( 29)  0.2215 ( 41)  0.2189 ( 42)
           0.2410 ( 43) -0.1022 ( 72) -0.2297 ( 77) -0.2056 ( 78) -0.2460 ( 79)
           0.1023 ( 90)  0.1030 ( 91)  0.1285 (116)  0.1001 (142)  0.1371 (144)
          -0.1331 (145) -0.1305 (146)
 CRD 64=   0.1856 (  5)  0.3655 (  7) -0.2207 (  8) -0.2990 (  9) -0.2332 ( 10)
          -0.2817 ( 35) -0.2595 ( 36) -0.2568 ( 39)  0.2907 ( 80)  0.2803 ( 81)
           0.2271 ( 82) -0.1464 (140) -0.1486 (141)  0.1407 (142)  0.1313 (144)
 CRD 65=   0.1712 (  2)  0.1310 (  6) -0.1668 ( 14) -0.1809 ( 17)  0.1204 ( 25)
           0.2980 ( 28) -0.1446 ( 30) -0.1451 ( 31) -0.1395 ( 38) -0.1372 ( 40)
          -0.1055 ( 46) -0.1092 ( 47)  0.1032 ( 51)  0.1129 ( 52)  0.1284 ( 55)
           0.1327 ( 56)  0.1212 ( 57)  0.1207 ( 58)  0.1221 ( 61)  0.1216 ( 62)
          -0.1407 ( 70) -0.1407 ( 71) -0.1318 ( 72) -0.1448 ( 73) -0.1441 ( 74)
           0.1026 ( 79)  0.1698 ( 89)  0.1219 ( 90)  0.1215 ( 91)  0.1552 (148)
          -0.1674 (149) -0.1562 (160)  0.1544 (161)
 CRD 66=  -0.2145 (  1)  0.2216 (  2) -0.1197 (  3)  0.1278 (  4) -0.4323 (  5)
           0.1392 (  6)  0.1765 (  7) -0.1368 (  8)  0.1666 (  9) -0.1944 ( 10)
           0.1987 ( 12)  0.2331 ( 78)  0.2385 ( 82) -0.1702 ( 94) -0.1398 (101)
           0.1615 (105)  0.1585 (109) -0.1224 (112)  0.1047 (124) -0.1431 (139)
          -0.1032 (141)  0.1692 (143)  0.1434 (149)  0.1326 (150)
 CRD 67=   0.1839 (  2) -0.1695 ( 13) -0.1952 ( 14)  0.2247 ( 20) -0.2936 ( 28)
           0.1355 ( 30)  0.1329 ( 31) -0.1171 ( 38) -0.1290 ( 40)  0.1269 ( 51)
           0.1201 ( 52)  0.1235 ( 53)  0.1286 ( 54) -0.1152 ( 63) -0.1071 ( 64)
          -0.1189 ( 65) -0.1183 ( 66) -0.1817 ( 89)  0.1027 (141) -0.1552 (145)
           0.1084 (148) -0.1221 (156)  0.1249 (157)  0.1590 (169) -0.1547 (171)
 CRD 68=  -0.1295 ( 15)  0.1223 ( 16)  0.1033 ( 18) -0.1924 ( 23)  0.1921 ( 24)
           0.2606 ( 26) -0.2760 ( 27) -0.1724 ( 30)  0.2105 ( 31) -0.1008 ( 61)
          -0.1471 ( 90)  0.1526 ( 91)  0.1415 (134)  0.1072 (151)  0.1058 (152)
          -0.1135 (159) -0.1099 (160)  0.2019 (163)  0.1942 (164)  0.2043 (165)
           0.1966 (166) -0.1848 (168) -0.1593 (169) -0.2171 (171) -0.1916 (172)
 CRD 69=   0.1402 (  2) -0.1099 (  6)  0.1125 (  7) -0.1481 (  8)  0.1092 ( 10)
          -0.1055 ( 11) -0.1291 ( 13)  0.1267 ( 15)  0.1402 ( 17) -0.1149 ( 18)
          -0.1638 ( 25)  0.1336 ( 26)  0.1193 ( 28)  0.1097 ( 29) -0.1497 ( 30)
           0.1153 ( 46)  0.1106 ( 48)  0.1129 ( 65)  0.1197 ( 79)  0.1256 ( 81)
           0.1286 ( 89) -0.1048 (128)  0.1167 (139)  0.1809 (141) -0.2056 (145)
           0.1533 (147)  0.1058 (149) -0.1732 (151) -0.1276 (152)  0.1325 (156)
           0.1354 (158) -0.1231 (161) -0.1162 (162)  0.1123 (164) -0.2066 (169)
 CRD 70=  -0.1187 (  3)  0.1436 (  7) -0.1095 ( 15)  0.1341 ( 16)  0.2122 ( 18)
          -0.2393 ( 19) -0.2127 ( 21)  0.2184 ( 22)  0.1029 ( 23) -0.1071 ( 24)
           0.1209 ( 47)  0.1229 ( 69)  0.1595 (141)  0.1063 (151)  0.1377 (152)
           0.1697 (153)  0.2011 (154) -0.2209 (155) -0.1677 (156) -0.2179 (157)
          -0.1648 (158)  0.1604 (159)  0.1661 (160)  0.1214 (161)  0.1271 (162)
 CRD 71=   0.1301 (  1) -0.1353 (  2) -0.1306 (  6)  0.2194 (  7) -0.1940 ( 11)
           0.1761 ( 13)  0.1094 ( 15) -0.1003 ( 16) -0.1528 ( 17)  0.1968 ( 25)
          -0.1180 ( 27) -0.1541 ( 29)  0.1608 ( 31) -0.1238 ( 45) -0.1418 ( 52)
          -0.1190 ( 66) -0.1117 ( 77)  0.1048 ( 88) -0.1361 ( 89)  0.1110 ( 91)
          -0.1449 ( 96) -0.1409 (102)  0.1872 (141) -0.2590 (144)  0.1268 (148)
           0.1394 (150)  0.1076 (167)  0.1148 (169) -0.2086 (171)
 CRD 72=   0.1839 (  2)  0.1204 (  3) -0.1434 (  4) -0.1090 (  6) -0.1733 (  7)
          -0.1268 (  8)  0.1370 ( 10) -0.1250 ( 16) -0.1441 ( 21)  0.1232 ( 23)
          -0.1051 ( 27) -0.1163 ( 29)  0.1099 ( 31)  0.1474 ( 77) -0.1492 ( 80)
          -0.1203 ( 83)  0.1318 ( 84) -0.1160 ( 85)  0.1121 ( 86) -0.1248 ( 87)
           0.1160 ( 88)  0.1137 ( 91) -0.1042 ( 93) -0.1030 (110)  0.1237 (112)
           0.1078 (113)  0.1173 (116) -0.1030 (137) -0.1027 (141)  0.1679 (144)
          -0.1667 (145) -0.1328 (148)  0.1549 (149)  0.1013 (151) -0.1210 (154)
          -0.1139 (156)  0.1505 (160) -0.1427 (163)  0.1279 (166) -0.1402 (171)
 CRD 73=  -0.2113 (  3)  0.1316 (  7)  0.1076 ( 11) -0.1890 ( 15)  0.1155 ( 16)
          -0.1814 ( 22)  0.1507 ( 24) -0.1335 ( 26)  0.1809 ( 30) -0.1158 ( 31)
           0.1069 ( 48) -0.1232 ( 55) -0.1096 ( 58) -0.1559 ( 77)  0.1647 ( 90)
           0.1091 (100)  0.1177 (104) -0.1123 (106) -0.1662 (112)  0.1161 (120)
          -0.1650 (134)  0.1014 (138)  0.1765 (141) -0.1599 (148) -0.1180 (150)
           0.1170 (151)  0.1030 (153) -0.1590 (161) -0.1156 (162)  0.1187 (166)
           0.1639 (169) -0.1293 (170)
 CRD 74=  -0.1340 (  2)  0.1423 (  8) -0.1819 ( 14) -0.1029 ( 16)  0.1034 ( 18)
           0.1387 ( 19)  0.1462 ( 20) -0.1445 ( 21) -0.1163 ( 22) -0.2047 ( 25)
           0.1086 ( 29)  0.1056 ( 54)  0.1321 ( 80)  0.1065 ( 84) -0.2081 ( 85)
           0.2229 ( 86) -0.1258 ( 87)  0.1014 ( 89) -0.1087 (109) -0.1051 (117)
           0.1040 (118) -0.1136 (130)  0.1381 (131) -0.1008 (136) -0.1186 (142)
           0.1382 (145)  0.1152 (151) -0.1655 (154) -0.2275 (156)  0.2334 (157)
           0.1966 (160) -0.1773 (161) -0.1007 (169)
 CRD 75=   0.1918 (  6) -0.1706 ( 13)  0.1216 ( 15)  0.2460 ( 17) -0.1920 ( 20)
           0.1114 ( 23) -0.1014 ( 27)  0.2228 ( 28) -0.1431 ( 29)  0.1091 ( 83)
          -0.1779 ( 84)  0.1151 ( 85) -0.1699 ( 87)  0.1639 ( 88) -0.1028 (126)
           0.1123 (127) -0.1017 (128)  0.1033 (145)  0.1612 (148) -0.1418 (149)
          -0.1854 (151)  0.1653 (154)  0.1343 (160) -0.1197 (161) -0.1947 (163)
           0.1899 (166) -0.1120 (171)
 CRD 76=  -0.1377 (  1) -0.2133 (  8)  0.1788 ( 10) -0.1124 ( 11)  0.1915 ( 13)
          -0.1459 ( 14)  0.1128 ( 16)  0.1211 ( 20)  0.1026 ( 24) -0.1026 ( 25)
          -0.1044 ( 51) -0.1429 ( 52) -0.1068 ( 79) -0.1648 ( 80)  0.1419 ( 81)
           0.1484 ( 83) -0.1396 ( 84)  0.1017 ( 86)  0.1269 ( 92) -0.1325 ( 93)
          -0.1194 ( 96)  0.1342 ( 97) -0.1364 ( 99)  0.1446 (101) -0.1090 (102)
           0.1072 (108)  0.1461 (109) -0.1133 (110)  0.1051 (118)  0.1383 (142)
           0.1237 (143) -0.1153 (144) -0.1356 (145)  0.1184 (148) -0.1294 (149)
          -0.1142 (158) -0.1079 (161)
 CRD 77=  -0.2559 (  1)  0.2149 (  4) -0.2699 (  9)  0.2125 ( 10)  0.1144 ( 32)
           0.1074 ( 35) -0.1075 ( 36)  0.1272 ( 42)  0.1569 ( 78) -0.2089 ( 79)
           0.1756 ( 81) -0.1993 ( 82)  0.2584 ( 94)  0.2583 (105) -0.1128 (107)
           0.1868 (108) -0.1346 (109)  0.2099 (111)  0.2369 (140)  0.2287 (146)
 CRD 78=  -0.1817 (  3)  0.1811 (  4)  0.1564 ( 11) -0.1475 ( 12) -0.1681 ( 18)
           0.1260 ( 19)  0.1698 ( 23) -0.1256 ( 24) -0.1890 ( 30)  0.1631 ( 31)
          -0.1025 ( 51) -0.1375 ( 77)  0.1443 ( 78) -0.1435 ( 90)  0.1304 ( 91)
          -0.1260 ( 95)  0.1069 ( 98)  0.1079 (100) -0.1491 (106) -0.1805 (112)
           0.1046 (115) -0.1159 (119)  0.1323 (125)  0.1725 (134) -0.1835 (139)
          -0.1145 (147)  0.1791 (167)  0.1641 (170)
 CRD 79=   0.1240 (  6) -0.2166 ( 13)  0.1912 ( 14)  0.1797 ( 25) -0.2307 ( 28)
           0.1513 ( 29)  0.1380 ( 46)  0.1317 ( 47) -0.1124 ( 54) -0.1206 ( 55)
          -0.1083 ( 56)  0.1018 ( 61)  0.1008 ( 63)  0.1121 ( 64) -0.1047 ( 65)
          -0.1102 ( 66) -0.1032 ( 74)  0.1243 ( 75)  0.1383 ( 76)  0.1185 ( 86)
           0.1212 (126) -0.1080 (127) -0.1084 (128)  0.1246 (129)  0.1173 (147)
          -0.1303 (150) -0.2143 (152)  0.2072 (153)  0.1118 (155) -0.1004 (158)
           0.1046 (159) -0.2024 (164)  0.1900 (165)  0.1110 (168) -0.1195 (172)
 CRD 80=   0.1026 (  8) -0.1194 (  9)  0.1191 ( 12) -0.1253 ( 13)  0.2120 ( 14)
          -0.1535 ( 17) -0.1148 ( 19)  0.1014 ( 20)  0.1136 ( 24) -0.1122 ( 25)
           0.1145 ( 29) -0.1057 ( 53)  0.1292 ( 57)  0.1256 ( 58) -0.1264 ( 68)
          -0.1015 ( 69) -0.1489 ( 83)  0.1588 ( 85) -0.1530 ( 87)  0.1002 ( 89)
          -0.1060 ( 92) -0.1036 ( 97) -0.1369 (101) -0.1133 (109)  0.1207 (121)
          -0.1407 (122)  0.1345 (130) -0.1272 (131)  0.1117 (136) -0.1210 (143)
           0.1709 (155) -0.1920 (158) -0.2325 (159)  0.2234 (162)  0.1464 (168)
          -0.1341 (172)
 CRD 81=   0.1065 ( 13) -0.1671 ( 14)  0.2723 ( 17) -0.2882 ( 20)  0.2044 ( 25)
          -0.1519 ( 28)  0.1488 ( 29)  0.1057 ( 55)  0.1104 ( 61)  0.1237 ( 62)
          -0.1094 ( 63) -0.1129 ( 64) -0.1179 ( 65) -0.1171 ( 66)  0.1179 ( 75)
           0.1044 ( 76) -0.1014 (113)  0.1121 (114) -0.1151 (137)  0.1096 (138)
          -0.1265 (147)  0.1404 (150)  0.1723 (152) -0.1731 (153) -0.1760 (164)
           0.1865 (165)  0.1669 (168) -0.1623 (172)
 CRD 82=  -0.1355 ( 15) -0.1093 ( 20)  0.1440 ( 21) -0.1229 ( 26)  0.1209 ( 29)
          -0.1149 ( 30) -0.1072 ( 49)  0.1151 ( 59) -0.1061 ( 67) -0.1111 ( 72)
           0.1201 ( 83)  0.1521 ( 84) -0.1736 ( 86)  0.1523 ( 88)  0.1042 ( 89)
          -0.1110 ( 98) -0.1003 (118)  0.1226 (123) -0.1249 (132) -0.1187 (135)
           0.1068 (143) -0.1031 (144)  0.1813 (147) -0.2119 (150) -0.1259 (155)
           0.1598 (158) -0.1435 (159)  0.1334 (162)  0.1663 (167)  0.1947 (168)
          -0.2035 (172)
 CRD 83=  -0.1447 (  3)  0.1209 (  4) -0.1328 (  7) -0.1067 ( 12)  0.1141 ( 15)
          -0.1364 ( 16)  0.1647 ( 22) -0.1461 ( 27)  0.1137 ( 30) -0.1605 ( 31)
           0.1085 ( 34)  0.1072 ( 41)  0.1000 ( 46)  0.1146 ( 70)  0.1021 ( 75)
          -0.1108 ( 77) -0.1187 ( 91) -0.1630 ( 95) -0.1022 ( 96) -0.1437 (106)
           0.1187 (107)  0.1194 (113)  0.1269 (115)  0.1152 (119) -0.1009 (121)
          -0.1066 (122) -0.1464 (124) -0.1641 (125)  0.1309 (131)  0.1453 (133)
          -0.2101 (139)  0.1067 (142) -0.1123 (155) -0.1415 (167) -0.2240 (170)
 CRD 84=   0.1179 (  2) -0.1720 ( 14)  0.1148 ( 16)  0.1100 ( 18)  0.1585 ( 25)
          -0.1331 ( 26)  0.1047 ( 28)  0.1414 ( 49)  0.1310 ( 50) -0.1018 ( 60)
          -0.1511 ( 67) -0.1590 ( 84) -0.1548 ( 85)  0.1198 ( 87)  0.1747 ( 88)
          -0.1207 ( 99) -0.1090 (114) -0.1041 (126) -0.1054 (128) -0.1099 (130)
           0.1048 (137) -0.1408 (143) -0.1394 (147)  0.1464 (150) -0.1811 (152)
           0.2036 (153) -0.1162 (155)  0.1244 (158)  0.1723 (164) -0.1921 (165)
           0.1428 (167)  0.1754 (168) -0.1740 (172)
 CRD 85=   0.1311 (  1) -0.2103 (  2)  0.2346 (  6) -0.1299 (  8)  0.1483 ( 10)
          -0.1394 ( 13)  0.1751 ( 33)  0.1472 ( 34) -0.1423 ( 36)  0.1315 ( 39)
          -0.1467 ( 44) -0.1815 ( 48) -0.1018 ( 80)  0.1120 ( 81) -0.2553 ( 93)
           0.1554 (102)  0.1888 (104)  0.1235 (106) -0.2366 (110) -0.1002 (139)
          -0.2126 (140) -0.1758 (142)  0.2654 (143)  0.2890 (146)
 CRD 86=  -0.1149 (  6)  0.1115 (  7)  0.1461 ( 17) -0.1164 ( 18)  0.1672 ( 20)
          -0.1318 ( 21) -0.1142 ( 24)  0.1518 ( 25) -0.1228 ( 27) -0.1120 ( 45)
          -0.1156 ( 50) -0.1571 ( 59) -0.1580 ( 60) -0.1200 ( 67)  0.1149 ( 85)
           0.1567 ( 86)  0.1581 ( 87)  0.1192 ( 88) -0.1315 (104) -0.1065 (107)
          -0.1401 (117) -0.1287 (121)  0.1007 (127)  0.1148 (130) -0.1088 (136)
          -0.1466 (138)  0.1221 (139)  0.1452 (140) -0.1150 (153)  0.1735 (155)
          -0.1663 (158)  0.2158 (159) -0.1804 (162)  0.1839 (164) -0.1604 (165)
           0.1025 (168) -0.1292 (170) -0.1119 (172)
 CRD 87=  -0.1635 (  7) -0.1327 ( 11)  0.1365 ( 13)  0.1109 ( 14) -0.1031 ( 16)
          -0.1516 ( 19) -0.1012 ( 22) -0.1170 ( 26) -0.1027 ( 32) -0.1242 ( 37)
           0.1062 ( 45) -0.1158 ( 49) -0.1047 ( 50)  0.1197 ( 83)  0.1104 ( 84)
          -0.1894 ( 96) -0.1234 ( 98) -0.1119 (100) -0.1460 (102)  0.1358 (107)
           0.1093 (114)  0.1517 (116)  0.1469 (118)  0.1098 (120) -0.1604 (129)
          -0.1204 (131) -0.1195 (132)  0.1403 (137) -0.1578 (139)  0.1690 (142)
           0.1705 (147) -0.1058 (150)  0.1512 (152) -0.1122 (153) -0.1258 (158)
          -0.1227 (162)  0.1319 (167)
 CRD 88=   0.1638 (  5) -0.1303 (  6)  0.1122 (  9) -0.1115 ( 13)  0.1251 ( 15)
           0.1099 ( 18)  0.1020 ( 27)  0.1369 ( 32) -0.1124 ( 35)  0.1198 ( 37)
          -0.1362 ( 45) -0.1140 ( 83)  0.1982 ( 92)  0.1118 ( 93) -0.1427 ( 97)
           0.1927 (102) -0.1416 (104) -0.1686 (106) -0.1973 (108) -0.1107 (110)
           0.1300 (111)  0.1278 (113)  0.1085 (117)  0.1110 (120) -0.1532 (123)
          -0.1421 (128) -0.1204 (132) -0.1228 (133)  0.1189 (137)  0.1288 (138)
           0.1346 (140) -0.1398 (142)  0.1286 (150)  0.1058 (167)  0.1105 (170)
 CRD 89=  -0.1378 (  5) -0.1384 ( 12) -0.1277 ( 23)  0.1272 ( 24)  0.1088 ( 40)
           0.1009 ( 48) -0.1087 ( 92)  0.1341 ( 96)  0.1840 ( 97)  0.1435 ( 98)
           0.1575 ( 99) -0.1727 (103)  0.1268 (106) -0.1359 (107)  0.1231 (108)
          -0.1659 (111)  0.1223 (115) -0.1394 (116)  0.1055 (119) -0.1412 (121)
          -0.1405 (122) -0.1051 (124) -0.1725 (126) -0.1723 (127)  0.1273 (130)
           0.1240 (131) -0.1358 (132) -0.1357 (133)  0.1725 (135)  0.1712 (136)
           0.1482 (137)  0.1478 (138)
 CRD 90=  -0.1114 ( 12)  0.1179 ( 15) -0.1217 ( 16)  0.1223 ( 18) -0.1233 ( 19)
           0.1103 ( 21) -0.1106 ( 22) -0.1043 ( 53)  0.1053 ( 54)  0.1043 ( 55)
          -0.1041 ( 56)  0.1016 ( 63) -0.1019 ( 64)  0.1016 ( 96)  0.1223 ( 97)
           0.1564 ( 98)  0.1608 ( 99) -0.1526 (103) -0.1060 (111)  0.1839 (113)
           0.1855 (114) -0.1453 (116)  0.1862 (117)  0.1865 (118)  0.1658 (121)
           0.1659 (122) -0.1768 (123) -0.1868 (124)  0.1257 (126)  0.1257 (127)
          -0.1859 (128) -0.1895 (129) -0.1711 (130) -0.1718 (131) -0.1344 (135)
          -0.1346 (136)

 THE DETERMINANT OF THE G MATRIX IS 10**(   -31)


                     --------------------
                     INTERNAL COORDINATES
                     --------------------

                 - - ATOMS - -         COORDINATE      COORDINATE
 NO.   TYPE    I  J  K  L  M  N        (BOHR,RAD)       (ANG,DEG)
 ----------------------------------------------------------------
   1 STRETCH   1 11                     2.0598144       1.0900069
   2 STRETCH   1  2                     2.8912621       1.5299901
   3 STRETCH   1 12                     2.0598158       1.0900076
   4 STRETCH   1 13                     2.0597492       1.0899724
   5 STRETCH   2 14                     2.0597492       1.0899724
   6 STRETCH   2  4                     2.8913045       1.5300126
   7 STRETCH   2  3                     2.8912218       1.5299688
   8 STRETCH   3 16                     2.0597392       1.0899671
   9 STRETCH   3 15                     2.0597492       1.0899724
  10 STRETCH   3 17                     2.0599732       1.0900910
  11 STRETCH   4 19                     2.0596384       1.0899138
  12 STRETCH   4 18                     2.0597200       1.0899570
  13 STRETCH   4  5                     2.8913987       1.5300624
  14 STRETCH   5  6                     2.8913611       1.5300425
  15 STRETCH   5 21                     2.0597061       1.0899496
  16 STRETCH   5 20                     2.0597200       1.0899570
  17 STRETCH   6  7                     2.8912957       1.5300079
  18 STRETCH   6 23                     2.0598885       1.0900461
  19 STRETCH   6 22                     2.0597368       1.0899659
  20 STRETCH   7  8                     2.8912192       1.5299674
  21 STRETCH   7 25                     2.0597992       1.0899989
  22 STRETCH   7 24                     2.0599251       1.0900655
  23 STRETCH   8 27                     2.0598100       1.0900046
  24 STRETCH   8 26                     2.0597368       1.0899659
  25 STRETCH   8  9                     2.8912957       1.5300079
  26 STRETCH   9 29                     2.0598885       1.0900461
  27 STRETCH   9 28                     2.0597368       1.0899659
  28 STRETCH   9 10                     2.8912758       1.5299974
  29 STRETCH  10 32                     2.0597980       1.0899982
  30 STRETCH  10 31                     2.0598777       1.0900404
  31 STRETCH  10 30                     2.0597368       1.0899659
  32 BEND      1  2  4                  1.9106067     109.4697024
  33 BEND      1  2 14                  1.9106444     109.4718601
  34 BEND      1  2  3                  1.9106616     109.4728451
  35 BEND      2  3 15                  1.9106765     109.4736979
  36 BEND      2  3 17                  1.9105360     109.4656521
  37 BEND      2  4  5                  1.9105869     109.4685657
  38 BEND      2  4 19                  1.9107104     109.4756401
  39 BEND      2  3 16                  1.9106862     109.4742572
  40 BEND      2  4 18                  1.9105892     109.4686974
  41 BEND      2  1 12                  1.9105554     109.4667604
  42 BEND      2  1 11                  1.9105748     109.4678719
  43 BEND      2  1 13                  1.9106444     109.4718601
  44 BEND      3  2  4                  1.9106036     109.4695202
  45 BEND      3  2 14                  1.9106765     109.4736979
  46 BEND      4  5 20                  1.9106167     109.4702752
  47 BEND      4  5 21                  1.9106532     109.4723621
  48 BEND      4  2 14                  1.9106067     109.4696980
  49 BEND      4  5  6                  1.9105605     109.4670539
  50 BEND      5  6  7                  1.9106044     109.4695694
  51 BEND      5  4 19                  1.9106152     109.4701899
  52 BEND      5  4 18                  1.9106167     109.4702752
  53 BEND      5  6 23                  1.9106465     109.4719792
  54 BEND      5  6 22                  1.9106924     109.4746086
  55 BEND      6  5 20                  1.9106513     109.4722566
  56 BEND      6  5 21                  1.9105521     109.4665693
  57 BEND      6  7 24                  1.9106683     109.4732323
  58 BEND      6  7 25                  1.9106673     109.4731696
  59 BEND      6  7  8                  1.9106790     109.4738453
  60 BEND      7  8  9                  1.9106790     109.4738453
  61 BEND      7  8 26                  1.9106345     109.4712931
  62 BEND      7  8 27                  1.9106724     109.4734624
  63 BEND      7  6 22                  1.9106733     109.4735184
  64 BEND      7  6 23                  1.9105478     109.4663230
  65 BEND      8  9 28                  1.9106733     109.4735184
  66 BEND      8  9 29                  1.9105478     109.4663230
  67 BEND      8  9 10                  1.9106527     109.4723333
  68 BEND      8  7 24                  1.9106314     109.4711133
  69 BEND      8  7 25                  1.9105924     109.4688830
  70 BEND      9 10 30                  1.9106966     109.4748523
  71 BEND      9 10 31                  1.9105141     109.4643923
  72 BEND      9 10 32                  1.9106799     109.4738935
  73 BEND      9  8 26                  1.9106733     109.4735184
  74 BEND      9  8 27                  1.9105885     109.4686601
  75 BEND     10  9 28                  1.9106966     109.4748523
  76 BEND     10  9 29                  1.9105940     109.4689714
  77 BEND     11  1 13                  1.9106884     109.4743816
  78 BEND     11  1 12                  1.9106153     109.4701953
  79 BEND     12  1 13                  1.9107211     109.4762540
  80 BEND     15  3 17                  1.9106570     109.4725838
  81 BEND     15  3 16                  1.9106770     109.4737277
  82 BEND     16  3 17                  1.9105666     109.4674047
  83 BEND     18  4 19                  1.9106810     109.4739553
  84 BEND     20  5 21                  1.9107656     109.4788062
  85 BEND     22  6 23                  1.9106351     109.4713249
  86 BEND     24  7 25                  1.9105610     109.4670800
  87 BEND     26  8 27                  1.9105516     109.4665443
  88 BEND     28  9 29                  1.9106351     109.4713249
  89 BEND     30 10 31                  1.9106363     109.4713948
  90 BEND     30 10 32                  1.9106880     109.4743600
  91 BEND     31 10 32                  1.9105845     109.4684302
  92 TORSION   1  2  3 17              -1.0472512     -60.0030715
  93 TORSION   1  2  3 15               1.0471400      59.9967049
  94 TORSION   1  2  3 16              -3.1415376    -179.9968476
  95 TORSION   1  2  4  5               3.0543446     175.0010541
  96 TORSION   1  2  4 18              -1.1345212     -65.0032744
  97 TORSION   1  2  4 19               0.9599527      55.0012360
  98 TORSION   2  4  5 20              -1.0472900     -60.0052948
  99 TORSION   2  4  5 21               1.0472694      60.0041158
 100 TORSION   2  4  5  6               3.1415327     179.9965668
 101 TORSION   3  2  4 19               3.0543481     175.0012546
 102 TORSION   3  2  4 18               0.9598743      54.9967441
 103 TORSION   3  2  4  5              -1.1344453     -64.9989273
 104 TORSION   3  2  1 13              -1.0471204     -59.9955795
 105 TORSION   3  2  1 12              -3.1415823    -179.9994042
 106 TORSION   3  2  1 11               1.0473133      60.0066326
 107 TORSION   4  2  1 13               1.0472395      60.0024030
 108 TORSION   4  2  3 16               1.0472858      60.0050584
 109 TORSION   4  2  3 17               3.1415723     179.9988345
 110 TORSION   4  2  3 15              -1.0472218     -60.0013891
 111 TORSION   4  2  1 12              -1.0472224     -60.0014218
 112 TORSION   4  2  1 11              -3.1415121    -179.9953849
 113 TORSION   4  5  6 22              -1.0471646     -59.9981135
 114 TORSION   4  5  6 23               1.0472770      60.0045537
 115 TORSION   4  5  6  7               3.1415579     179.9980088
 116 TORSION   5  4  2 14               0.9599683      55.0021330
 117 TORSION   5  6  7 24              -1.0471251     -59.9958501
 118 TORSION   5  6  7 25               1.0472238      60.0015041
 119 TORSION   5  6  7  8              -3.1415675    -179.9985581
 120 TORSION   6  7  8  9               3.1415927     180.0000000
 121 TORSION   6  7  8 26              -1.0471196     -59.9955340
 122 TORSION   6  7  8 27               1.0472003      60.0001558
 123 TORSION   6  5  4 18               1.0472300      60.0018616
 124 TORSION   6  5  4 19              -1.0472024     -60.0002775
 125 TORSION   7  8  9 10               3.1415327     179.9965667
 126 TORSION   7  8  9 28              -1.0471434     -59.9968966
 127 TORSION   7  8  9 29               1.0472262      60.0016390
 128 TORSION   7  6  5 20               1.0472165      60.0010838
 129 TORSION   7  6  5 21              -1.0473021     -60.0059924
 130 TORSION   8  7  6 22               1.0471434      59.9968966
 131 TORSION   8  7  6 23              -1.0472262     -60.0016390
 132 TORSION   8  9 10 30              -1.0470977     -59.9942801
 133 TORSION   8  9 10 31               1.0472669      60.0039755
 134 TORSION   8  9 10 32               3.1415580     179.9980134
 135 TORSION   9  8  7 24               1.0471276      59.9959946
 136 TORSION   9  8  7 25              -1.0471528     -59.9974373
 137 TORSION  10  9  8 26               1.0470835      59.9934633
 138 TORSION  10  9  8 27              -1.0472089     -60.0006485
 139 TORSION  11  1  2 14              -1.0471589     -59.9977879
 140 TORSION  12  1  2 14               1.0471308      59.9961753
 141 TORSION  13  1  2 14               3.1415927     180.0000000
 142 TORSION  14  2  4 19              -1.1344236     -64.9976850
 143 TORSION  14  2  3 17               1.0472015      60.0002236
 144 TORSION  14  2  4 18               3.0542879     174.9978045
 145 TORSION  14  2  3 15               3.1415927     180.0000000
 146 TORSION  14  2  3 16              -1.0470850     -59.9935524
 147 TORSION  18  4  5 21              -1.0470333     -59.9905894
 148 TORSION  18  4  5 20               3.1415927     180.0000000
 149 TORSION  19  4  5 21              -3.1414657    -179.9927285
 150 TORSION  19  4  5 20               1.0471602      59.9978609
 151 TORSION  20  5  6 22              -3.1415061    -179.9950385
 152 TORSION  20  5  6 23              -1.0470644     -59.9923713
 153 TORSION  21  5  6 22               1.0471606      59.9978853
 154 TORSION  21  5  6 23              -3.1415830    -179.9994475
 155 TORSION  22  6  7 25              -1.0472506     -60.0030412
 156 TORSION  22  6  7 24               3.1415858     179.9996045
 157 TORSION  23  6  7 25               3.1415651     179.9984231
 158 TORSION  23  6  7 24               1.0472162      60.0010689
 159 TORSION  24  7  8 27              -1.0472647     -60.0038496
 160 TORSION  24  7  8 26              -3.1415846    -179.9995394
 161 TORSION  25  7  8 27              -3.1415452    -179.9972815
 162 TORSION  25  7  8 26               1.0473202      60.0070287
 163 TORSION  26  8  9 28               3.1415927     180.0000000
 164 TORSION  26  8  9 29              -1.0472231     -60.0014644
 165 TORSION  27  8  9 28               1.0473003      60.0058882
 166 TORSION  27  8  9 29              -3.1415154    -179.9955762
 167 TORSION  28  9 10 32               1.0470630      59.9922935
 168 TORSION  28  9 10 31              -1.0472280     -60.0017445
 169 TORSION  28  9 10 30               3.1415927     180.0000000
 170 TORSION  29  9 10 32              -1.0473491     -60.0086808
 171 TORSION  29  9 10 31               3.1415452     179.9972813
 172 TORSION  29  9 10 30               1.0471805      59.9990257

     ------------------------------------------
     THE POINT GROUP IS C1 , NAXIS= 1, ORDER= 1
     ------------------------------------------

     DIMENSIONS OF THE SYMMETRY SUBSPACES ARE
 A   =  322

 ..... DONE SETTING UP THE RUN .....
 STEP CPU TIME =     0.03 TOTAL CPU TIME =        0.0 (    0.0 MIN)
 TOTAL WALL CLOCK TIME=        0.0 SECONDS, CPU UTILIZATION IS  75.00%


          -----------------------------
          STATIONARY POINT LOCATION RUN
          -----------------------------

 OBTAINING INITIAL HESSIAN, HESS=GUESS   
 DIAGONAL GUESS HESSIAN IN INTERNAL COORDS IS
     1  0.3464     2  0.3672     3  0.3464     4  0.3464     5  0.3464
     6  0.3672     7  0.3672     8  0.3464     9  0.3464    10  0.3463
    11  0.3464    12  0.3464    13  0.3671    14  0.3671    15  0.3464
    16  0.3464    17  0.3672    18  0.3463    19  0.3464    20  0.3672
    21  0.3464    22  0.3463    23  0.3464    24  0.3464    25  0.3672
    26  0.3463    27  0.3464    28  0.3672    29  0.3464    30  0.3463
    31  0.3464    32  0.2485    33  0.2241    34  0.2485    35  0.2241
    36  0.2241    37  0.2485    38  0.2241    39  0.2241    40  0.2241
    41  0.2241    42  0.2241    43  0.2241    44  0.2485    45  0.2241
    46  0.2241    47  0.2241    48  0.2241    49  0.2485    50  0.2485
    51  0.2241    52  0.2241    53  0.2241    54  0.2241    55  0.2241
    56  0.2241    57  0.2241    58  0.2241    59  0.2485    60  0.2485
    61  0.2241    62  0.2241    63  0.2241    64  0.2241    65  0.2241
    66  0.2241    67  0.2485    68  0.2241    69  0.2241    70  0.2241
    71  0.2241    72  0.2241    73  0.2241    74  0.2241    75  0.2241
    76  0.2241    77  0.2034    78  0.2034    79  0.2034    80  0.2034
    81  0.2034    82  0.2034    83  0.2034    84  0.2034    85  0.2034
    86  0.2034    87  0.2034    88  0.2034    89  0.2034    90  0.2034
    91  0.2034    92  0.2500    93  0.2500    94  0.2500    95  0.2500
    96  0.2500    97  0.2500    98  0.2500    99  0.2500   100  0.2500
   101  0.2500   102  0.2500   103  0.2500   104  0.2500   105  0.2500
   106  0.2500   107  0.2500   108  0.2500   109  0.2500   110  0.2500
   111  0.2500   112  0.2500   113  0.2500   114  0.2500   115  0.2500
   116  0.2500   117  0.2500   118  0.2500   119  0.2500   120  0.2500
   121  0.2500   122  0.2500   123  0.2500   124  0.2500   125  0.2500
   126  0.2500   127  0.2500   128  0.2500   129  0.2500   130  0.2500
   131  0.2500   132  0.2500   133  0.2500   134  0.2500   135  0.2500
   136  0.2500   137  0.2500   138  0.2500   139  0.2500   140  0.2500
   141  0.2500   142  0.2500   143  0.2500   144  0.2500   145  0.2500
   146  0.2500   147  0.2500   148  0.2500   149  0.2500   150  0.2500
   151  0.2500   152  0.2500   153  0.2500   154  0.2500   155  0.2500
   156  0.2500   157  0.2500   158  0.2500   159  0.2500   160  0.2500
   161  0.2500   162  0.2500   163  0.2500   164  0.2500   165  0.2500
   166  0.2500   167  0.2500   168  0.2500   169  0.2500   170  0.2500
   171  0.2500   172  0.2500
 TRANSFORMING HESSIAN TO SYMMETRY COORDINATES

          PARAMETERS CONTROLLING GEOMETRY SEARCH ARE
          METHOD =QA                  UPHESS =BFGS    
          NNEG   =         0          NFRZ   =         3
          NSTEP  =        50          IFOLOW =         1
          HESS   =GUESS               RESTAR =         F
          IHREP  =         0          HSSEND =         F
          NPRT   =         0          NPUN   =         0
          OPTTOL = 5.000E-04          RMIN   = 1.500E-03
          RMAX   = 1.000E-01          RLIM   = 7.000E-02
          DXMAX  = 3.000E-01          PURIFY =         F
          MOVIE  =         F          TRUPD  =         T
          TRMAX  = 5.000E-01          TRMIN  = 5.000E-02
          ITBMAT =         5          STPT   =         F
          STSTEP = 1.000E-02          PROJCT=          F
          FROZEN COORD(S)=   1   2   3


      ***** EQUILIBRIUM GEOMETRY LOCATED *****
            (SUBJECT TO   3 CONSTRAINT(S))
 COORDINATES OF ALL ATOMS ARE (ANGS)
   ATOM   CHARGE       X              Y              Z
 ------------------------------------------------------------
 C           6.0   4.6644688810  -0.8100237767   0.1039807181
 C           6.0   3.4333583768   0.0825746501   0.2726840195
 C           6.0   3.6152299952   1.3946020827  -0.4997376029
 C           6.0   2.1395776503  -0.6361020422  -0.1376905268
 C           6.0   0.8877244927   0.1270625853   0.2976686301
 C           6.0  -0.4302890545  -0.4922393781  -0.1489281771
 C           6.0  -1.6384404180   0.3045282378   0.3436303572
 C           6.0  -2.9517743230  -0.2671143080  -0.1780117636
 C           6.0  -4.2090954516   0.4509569480   0.3062351985
 C           6.0  -5.4680682262  -0.1756372052  -0.2910445224
 H           1.0   5.5601303660  -0.2936669817   0.4404164508
 H           1.0   4.5708386937  -1.7240279209   0.6847186755
 H           1.0   4.8108863230  -1.0870412262  -0.9380575922
 H           1.0   3.3471712228   0.3219770729   1.3325717694
 H           1.0   3.6931804943   1.1982747444  -1.5677555835
 H           1.0   2.7842581263   2.0746264097  -0.3499923374
 H           1.0   4.5179782079   1.9102856523  -0.1859287678
 H           1.0   2.1348146488  -0.7841269785  -1.2184638678
 H           1.0   2.1183046375  -1.6287194281   0.3109635278
 H           1.0   0.8964368425   0.2067257396   1.3842761297
 H           1.0   0.9230802244   1.1423555333  -0.0844498136
 H           1.0  -0.4529281057  -0.5456756559  -1.2370471032
 H           1.0  -0.5053070039  -1.5167186678   0.2142434813
 H           1.0  -1.6433073478   0.3096223222   1.4334667864
 H           1.0  -1.5411359187   1.3437513843   0.0297855801
 H           1.0  -2.9320323573  -0.2477421797  -1.2670802971
 H           1.0  -3.0175351612  -1.3158717904   0.1092900395
 H           1.0  -4.2581091714   0.4088006261   1.3932661402
 H           1.0  -4.1602365890   1.5051252837   0.0373069870
 H           1.0  -5.4474372911  -0.1134251231  -1.3765564024
 H           1.0  -5.5354211481  -1.2272689002  -0.0220385125
 H           1.0  -6.3711086888   0.3173472872   0.0559858588


                     --------------------
                     INTERNAL COORDINATES
                     --------------------

                 - - ATOMS - -         COORDINATE      COORDINATE
 NO.   TYPE    I  J  K  L  M  N        (BOHR,RAD)       (ANG,DEG)
 ----------------------------------------------------------------
   1 STRETCH   1 11                     2.0545266       1.0872087
   2 STRETCH   1  2                     2.8912350       1.5299758
   3 STRETCH   1 12                     2.0540085       1.0869346
   4 STRETCH   1 13                     2.0562620       1.0881271
   5 STRETCH   2 14                     2.0598046       1.0900017
   6 STRETCH   2  4                     2.9022968       1.5358294
   7 STRETCH   2  3                     2.8975905       1.5333390
   8 STRETCH   3 16                     2.0487375       1.0841453
   9 STRETCH   3 15                     2.0573581       1.0887071
  10 STRETCH   3 17                     2.0522110       1.0859834
  11 STRETCH   4 19                     2.0588756       1.0895101
  12 STRETCH   4 18                     2.0614521       1.0908735
  13 STRETCH   4  5                     2.8901653       1.5294097
  14 STRETCH   5  6                     2.8784338       1.5232017
  15 STRETCH   5 21                     2.0511009       1.0853959
  16 STRETCH   5 20                     2.0589672       1.0895586
  17 STRETCH   6  7                     2.8889221       1.5287519
  18 STRETCH   6 23                     2.0589162       1.0895316
  19 STRETCH   6 22                     2.0591691       1.0896654
  20 STRETCH   7  8                     2.8806588       1.5243791
  21 STRETCH   7 25                     2.0596726       1.0899319
  22 STRETCH   7 24                     2.0595353       1.0898592
  23 STRETCH   8 27                     2.0586386       1.0893847
  24 STRETCH   8 26                     2.0587047       1.0894197
  25 STRETCH   8  9                     2.8851468       1.5267540
  26 STRETCH   9 29                     2.0579632       1.0890273
  27 STRETCH   9 28                     2.0578203       1.0889517
  28 STRETCH   9 10                     2.8872488       1.5278664
  29 STRETCH  10 32                     2.0518508       1.0857927
  30 STRETCH  10 31                     2.0552279       1.0875798
  31 STRETCH  10 30                     2.0550560       1.0874889
  32 BEND      1  2  4                  1.9556052     112.0479255
  33 BEND      1  2 14                  1.8744204     107.3963807
  34 BEND      1  2  3                  1.9264612     110.3780979
  35 BEND      2  3 15                  1.9266256     110.3875180
  36 BEND      2  3 17                  1.9383675     111.0602783
  37 BEND      2  4  5                  1.9605502     112.3312511
  38 BEND      2  4 19                  1.9100059     109.4352754
  39 BEND      2  3 16                  1.9565095     112.0997357
  40 BEND      2  4 18                  1.9091149     109.3842252
  41 BEND      2  1 12                  1.9415940     111.2451444
  42 BEND      2  1 11                  1.9301715     110.5906802
  43 BEND      2  1 13                  1.9416317     111.2473014
  44 BEND      3  2  4                  1.9451990     111.4516928
  45 BEND      3  2 14                  1.8873343     108.1362881
  46 BEND      4  5 20                  1.8900164     108.2899616
  47 BEND      4  5 21                  1.9175925     109.8699590
  48 BEND      4  2 14                  1.8712835     107.2166451
  49 BEND      4  5  6                  2.0063562     114.9557410
  50 BEND      5  6  7                  1.9578448     112.1762430
  51 BEND      5  4 19                  1.8980184     108.7484453
  52 BEND      5  4 18                  1.9242704     110.2525712
  53 BEND      5  6 23                  1.9221311     110.1299978
  54 BEND      5  6 22                  1.9078370     109.3110080
  55 BEND      6  5 20                  1.9060917     109.2110090
  56 BEND      6  5 21                  1.8810332     107.7752651
  57 BEND      6  7 24                  1.9051461     109.1568300
  58 BEND      6  7 25                  1.9109274     109.4880744
  59 BEND      6  7  8                  1.9553790     112.0349638
  60 BEND      7  8  9                  2.0093188     115.1254871
  61 BEND      7  8 26                  1.8963237     108.6513425
  62 BEND      7  8 27                  1.8994563     108.8308304
  63 BEND      7  6 22                  1.9080310     109.3221226
  64 BEND      7  6 23                  1.9052560     109.1631262
  65 BEND      8  9 28                  1.9129047     109.6013664
  66 BEND      8  9 29                  1.9177125     109.8768343
  67 BEND      8  9 10                  1.9409026     111.2055301
  68 BEND      8  7 24                  1.9178174     109.8828428
  69 BEND      8  7 25                  1.9133922     109.6292987
  70 BEND      9 10 30                  1.9295631     110.5558201
  71 BEND      9 10 31                  1.9293204     110.5419160
  72 BEND      9 10 32                  1.9542979     111.9730242
  73 BEND      9  8 26                  1.9003620     108.8827243
  74 BEND      9  8 27                  1.8959191     108.6281634
  75 BEND     10  9 28                  1.9148112     109.7106010
  76 BEND     10  9 29                  1.9149668     109.7195142
  77 BEND     11  1 13                  1.8822057     107.8424406
  78 BEND     11  1 12                  1.8807402     107.7584770
  79 BEND     12  1 13                  1.8851189     108.0093575
  80 BEND     15  3 17                  1.8855518     108.0341581
  81 BEND     15  3 16                  1.8791482     107.6672591
  82 BEND     16  3 17                  1.8748484     107.4209016
  83 BEND     18  4 19                  1.8590412     106.5152155
  84 BEND     20  5 21                  1.8571410     106.4063428
  85 BEND     22  6 23                  1.8601298     106.5775866
  86 BEND     24  7 25                  1.8586397     106.4922130
  87 BEND     26  8 27                  1.8565246     106.3710259
  88 BEND     28  9 29                  1.8608471     106.6186852
  89 BEND     30 10 31                  1.8790395     107.6610353
  90 BEND     30 10 32                  1.8847625     107.9889377
  91 BEND     31 10 32                  1.8843756     107.9667670
[...]
 814   8  -5.150947  -1.813622   3.311774   0.000394   0.174832   0.002252
 815   8  -5.374638   2.959003  -2.008126   0.000197   0.166619   0.001180
 816  25  -4.795360   3.346056  -1.717159   0.000025   0.166619   0.000153
 817  29  -5.902825   3.414131  -1.713761   0.000067   0.166619   0.000402
 818  25  -3.937275   3.211332  -2.125035  -0.000123   0.169106  -0.000725
 819   8  -4.864829   2.667086  -2.466327   0.000505   0.238348   0.002117
 820  26  -5.850349   1.683253  -3.537203  -0.000071   0.070911  -0.001002
 821  26  -4.967905   1.636781  -3.522025  -0.000061   0.070911  -0.000861
 822   8  -5.402710   1.893486  -3.187886  -0.000156   0.154964  -0.001007
 823  26  -4.841027  -2.492075  -3.593173   0.000049   0.073039   0.000676
 824  26  -6.008135  -2.475640  -3.614048  -0.000102   0.163804  -0.000623
 825   8  -5.273706  -2.782885  -3.268735   0.000309   0.158623   0.001945
 826   8  -6.555121  -2.651452  -3.289637   0.000244   0.089234   0.002737
 827  27  -6.597441  -4.095134  -1.414067   0.000065   0.075175   0.000866
 828  27  -5.401994  -4.180575  -1.452336  -0.000134   0.169757  -0.000791
 829   8  -6.158064  -3.877464  -1.797953   0.000217   0.162225   0.001337
 830   8  -4.838422  -3.940026  -1.724281   0.000275   0.091843   0.002998
 831  27  -5.327283  -3.086555   2.558348  -0.000067   0.070560  -0.000945
 832  27  -6.205265  -3.034577   2.547131  -0.000059   0.070560  -0.000836
 833   8  -5.745118  -2.672411   2.695461  -0.000132   0.154348  -0.000852
 834  28  -7.077592  -1.231105   3.779106  -0.000142   0.165481  -0.000860
 835   8  -6.200512  -1.749433   3.293955   0.000460   0.233240   0.001973
 836  29  -6.586216   3.497675  -1.996999  -0.000123   0.127737  -0.000965
 837   8  -5.929222   2.726443  -2.489379   0.000373   0.180084   0.002070
 838   9  -9.152722  -1.604484   3.199955   0.000029   0.027731   0.001034
 839  10  -9.558559  -1.782265   2.972223   0.000063   0.027731   0.002260
 840  28  -9.086487  -1.412484   3.426388   0.000006   0.027731   0.000220
 841   9 -10.608795   1.277113   3.246059   0.000046   0.027731   0.001650
 842  10 -10.995600   1.061669   3.017724   0.000105   0.027731   0.003803
 843  28 -10.412045   1.210821   3.468359   0.000013   0.027731   0.000473
 844   9 -10.390071   3.728844   0.213057   0.000042   0.027726   0.001511
 845  10 -10.779158   3.487766   0.016427   0.000070   0.027726   0.002513
 846  29 -10.170525   3.917674   0.119863   0.000020   0.027726   0.000725
 847   9  -8.745086   2.970901  -2.459126   0.000051   0.027726   0.001836
 848  10  -9.155677   2.739731  -2.620825   0.000099   0.027726   0.003589
 849  29  -8.672993   3.227671  -2.312791   0.000013   0.027726   0.000484
 850   9  -8.755177   2.332064  -2.926191   0.000050   0.026536   0.001867
 851  10  -9.161128   2.154923  -3.154145   0.000026   0.026536   0.000977
 852  30  -9.237393   1.968523  -3.381100  -0.000013   0.026536  -0.000480
 853   9  -9.117843  -2.237356   2.632051   0.000028   0.026562   0.001055
 854  10  -9.528134  -2.469132   2.470559   0.000011   0.026562   0.000415
 855  31  -9.609559  -2.722880   2.325364  -0.000027   0.026562  -0.001012
 856   9 -11.079014   1.540485   2.789564   0.000091   0.024411   0.003717
 857  10 -11.511071   1.350450   2.630519   0.000037   0.024411   0.001504
 858  32 -11.776225   1.422620   2.503944  -0.000000   0.024411  -0.000018
 859   9 -10.936399   3.348690   0.592003   0.000056   0.024411   0.002300
 860  10 -11.366498   3.183477   0.402790   0.000030   0.024411   0.001225
 861  32 -11.644680   3.090470   0.476959   0.000003   0.024411   0.000136
 862  10 -11.357968   1.150200   2.834787   0.000163   0.060078   0.002715
 863   9 -10.785056   1.505441   3.081165   0.000167   0.060078   0.002780
 864  10 -11.197298   3.322287   0.217427   0.000167   0.072965   0.002294
 865   9 -10.581839   3.637359   0.416263   0.000184   0.072965   0.002527
 866  10  -9.269811   2.463924  -2.944871   0.000208   0.077658   0.002684
 867   9  -8.628802   2.695407  -2.712197   0.000181   0.077658   0.002325
 868  10  -9.603467  -2.237504   2.690598   0.000188   0.089746   0.002092
 869   9  -9.075824  -1.873671   3.023382   0.000152   0.089746   0.001695
 870   9  -6.161030   2.452174   3.583673   0.000095   0.090316   0.001049
 871  24  -5.200800   2.170465   3.751257   0.000238   0.090316   0.002637
 872  28  -6.297077   2.278199   3.797423   0.000024   0.090316   0.000262
 873  24  -4.603517   2.377873   3.879914   0.000052   0.043528   0.001194
 874   9  -6.031816   2.706683   3.572901   0.000243   0.061936   0.003921
 875   9  -7.769750   1.701796  -3.180928   0.000093   0.166763   0.000556
 876  26  -7.250306   1.278653  -3.522792  -0.000034   0.166763  -0.000202
 877  30  -8.311475   1.334490  -3.568079  -0.000139   0.166763  -0.000832
 878  26  -6.559988   1.495981  -3.588072  -0.000126   0.126190  -0.000999
 879   9  -7.206371   2.197056  -3.001786   0.000364   0.177969   0.002045
 880   9  -8.190877  -2.629341   2.225021   0.000092   0.166449   0.000555
 881  27  -7.666130  -3.088523   1.946596  -0.000086   0.166449  -0.000518
 882  31  -8.728190  -3.050349   1.890041  -0.000089   0.166449  -0.000538
 883  27  -6.848445  -3.053972   2.360129  -0.000129   0.156423  -0.000824
 884   9  -7.694146  -2.399529   2.695376   0.000413   0.220570   0.001871
 885  28  -8.616873  -1.363224   3.702589  -0.000072   0.070664  -0.001022
 886  28  -7.736916  -1.397057   3.740952  -0.000075   0.070664  -0.001067
 887   9  -8.170517  -1.606692   3.375686  -0.000180   0.154483  -0.001163
 888  28  -6.993956   2.574618   3.928480  -0.000007   0.069687  -0.000101
 889  28  -8.084050   2.820243   3.888856  -0.000073   0.154726  -0.000474
 890  28  -9.365341   2.396263   3.814643  -0.000215   0.154726  -0.001392
 891  28 -10.092403   1.549340   3.749016  -0.000066   0.069687  -0.000951
 892   9  -7.309494   2.958818   3.591568   0.000225   0.152778   0.001473
 893   9  -8.826303   2.972735   3.523718   0.000179   0.152778   0.001175
 894   9 -10.034270   2.057188   3.433747  -0.000038   0.152778  -0.000247
 895  29  -9.851228   4.240978   0.421760  -0.000047   0.070244  -0.000673
 896  29  -9.174632   4.434012   1.301359  -0.000163   0.156221  -0.001041
 897  29  -7.912080   4.504002   1.805095  -0.000071   0.156221  -0.000457
 898  29  -6.802085   4.410008   1.638315  -0.000051   0.070244  -0.000726
 899   9  -9.853220   4.037648   0.989221  -0.000087   0.153760  -0.000567
 900   9  -8.696399   4.234096   1.969448   0.000212   0.153760   0.001378
 901   9  -7.170851   4.186346   2.059440   0.000208   0.153760   0.001350
 902  29  -7.283466   3.443233  -2.238788  -0.000068   0.072059  -0.000949
 903  29  -8.180239   3.474127  -2.280616  -0.000065   0.072059  -0.000897
 904   9  -7.738251   3.073145  -2.407266  -0.000155   0.156900  -0.000991
 905  30  -9.093995   1.736169  -3.633136  -0.000181   0.145275  -0.001246
 906   9  -8.231283   2.201463  -3.065234   0.000362   0.204735   0.001766
 907  31  -9.409077  -3.066379   2.121013  -0.000180   0.122944  -0.001467
 908   9  -8.729478  -2.348452   2.669753   0.000314   0.173295   0.001811
 909  32 -11.953746   1.774356   2.309255  -0.000155   0.191550  -0.000812
 910  32 -11.893109   2.696280   1.293145  -0.000851   0.390846  -0.002178
 911   9 -10.923733   2.458401   2.337716   0.000900   0.525918   0.001712
 912   9 -10.838307   3.402011   1.095863   0.000701   0.269721   0.002599
 913  10  -8.580823  -2.081694  -3.491067   0.000067   0.086708   0.000771
 914  26  -7.627849  -1.887954  -3.604921   0.000199   0.086708   0.002295
 915  30  -8.682423  -1.891809  -3.709139  -0.000008   0.086708  -0.000093
 916  26  -7.059807  -2.152988  -3.668037   0.000066   0.055208   0.001203
 917  10  -8.475017  -2.356217  -3.452940   0.000299   0.078274   0.003819
 918  10  -8.662981  -3.658870  -1.516949   0.000187   0.087466   0.002137
 919  27  -7.742093  -3.797762  -1.196761   0.000231   0.087466   0.002639
 920  31  -8.796869  -3.830034  -1.300668  -0.000105   0.087466  -0.001196
 921  28 -10.276401   0.820406   3.727972  -0.000156   0.214013  -0.000728
 922  28  -9.643441  -0.579744   3.759115  -0.001059   0.440167  -0.002406
 923  10 -10.929379  -0.086022   3.167408   0.001038   0.584198   0.001776
 924  10 -10.088412  -1.615953   3.094158   0.000781   0.301457   0.002589
 925  29  -8.901743   3.578981  -2.063041  -0.000134   0.213976  -0.000624
 926  29  -9.735389   3.988526  -0.839019  -0.001016   0.440080  -0.002310
 927  10 -10.068140   3.131541  -2.023136   0.001025   0.584105   0.001755
 928  10 -10.910220   3.496371  -0.536644   0.000774   0.301404   0.002567
 929  30  -9.392158  -2.109196  -3.874530  -0.000020   0.071935  -0.000276
 930  30 -10.541393  -2.212189  -3.902268  -0.000156   0.160984  -0.000968
 931  30 -11.783060  -1.581195  -3.889692  -0.000265   0.160984  -0.001644
 932  30 -12.351276  -0.311025  -3.827685  -0.000285   0.160984  -0.001771
 933  30 -11.992833   1.032308  -3.743878  -0.000153   0.160984  -0.000952
 934  30 -10.867461   1.850186  -3.675618  -0.000297   0.160984  -0.001843
 935  30  -9.716271   1.928818  -3.649239  -0.000088   0.071935  -0.001228
 936  10  -9.788149  -2.454280  -3.565322   0.000170   0.156514   0.001089
 937  10 -11.338998  -2.250778  -3.583123   0.000092   0.156514   0.000587
 938  10 -12.417118  -1.118283  -3.538694  -0.000036   0.156514  -0.000229
 939  10 -12.542077   0.438541  -3.451835   0.000072   0.156514   0.000461
 940  10 -11.658191   1.725942  -3.361252   0.000045   0.156514   0.000287
 941  10 -10.159336   2.170226  -3.307309  -0.000161   0.156514  -0.001030
 942  31 -10.083937  -2.963879   2.300482  -0.000071   0.066849  -0.001062
 943  31 -11.154342  -2.925251   2.183480  -0.000201   0.147306  -0.001366
 944  31 -12.216736  -3.048396   1.436073  -0.000156   0.147306  -0.001060
 945  31 -12.629178  -3.330311   0.230719  -0.000180   0.147306  -0.001222
 946  31 -12.232415  -3.662144  -0.967166  -0.000220   0.147306  -0.001495
 947  31 -11.179647  -3.915765  -1.695051  -0.000130   0.147306  -0.000880
 948  31  -9.877371  -3.993247  -1.671882  -0.000216   0.147306  -0.001469
 949  10 -10.476972  -2.552206   2.453106  -0.000121   0.147621  -0.000821
 950  10 -11.874608  -2.575831   2.010810   0.000105   0.147621   0.000712
 951  10 -12.746362  -2.815256   0.856561   0.000105   0.147621   0.000710
 952  10 -12.755630  -3.178034  -0.563959   0.000013   0.147621   0.000090
 953  10 -11.898832  -3.524087  -1.702254   0.000071   0.147621   0.000478
 954  10 -10.506800  -3.719797  -2.118802   0.000151   0.147621   0.001021
 955  10  -9.342222  -3.732750  -1.877852   0.000149   0.081671   0.001819
 956  32 -12.095052   3.053637   0.178726  -0.000087   0.070178  -0.001242
 957  32 -12.624478   2.754877  -0.774520  -0.000277   0.156372  -0.001769
 958  32 -13.382707   1.840810  -1.449068  -0.000143   0.156372  -0.000917
 959  32 -13.987493   0.625713  -1.296697  -0.000281   0.156372  -0.001797
 960  32 -14.180133  -0.370646  -0.382585  -0.000301   0.156372  -0.001924
 961  32 -13.878224  -0.722068   0.902249  -0.000173   0.156372  -0.001106
 962  32 -13.210910  -0.278228   2.008206  -0.000212   0.156372  -0.001355
 963  32 -12.463641   0.771018   2.462205  -0.000315   0.156372  -0.002015
 964  10 -11.921767   3.039986  -0.397999  -0.000109   0.153304  -0.000712
 965  10 -12.721425   2.364808  -1.519709  -0.000009   0.153304  -0.000062
 966  10 -13.531454   1.099462  -1.830034   0.000112   0.153304   0.000733
 967  10 -14.005358  -0.214790  -1.196231  -0.000072   0.153304  -0.000472
 968  10 -13.940421  -1.015766   0.110585  -0.000058   0.153304  -0.000379
 969  10 -13.364419  -0.960842   1.531414   0.000099   0.153304   0.000645
 970  10 -12.523743  -0.073513   2.458484  -0.000044   0.153304  -0.000284
 971  10 -11.878837   0.978862   2.641670   0.000010   0.085738   0.000114
 972  17  10.029933   3.074999   1.803567   0.000051   0.256603   0.000200
 973  17  10.783363   3.180042   0.919580  -0.000633   0.513172  -0.001234
 974  17  11.059627   2.921823  -0.448698  -0.000213   0.513172  -0.000415
 975  11  10.964233   1.806406   1.860811  -0.000506   0.513172  -0.000985
 976  11  11.660075   1.783859   0.623685  -0.000562   0.513172  -0.001094
 977  11  11.654786   1.462738  -0.497464   0.000278   0.256603   0.001083
 978  19   5.571541  -5.229089   0.382009   0.000152   0.249746   0.000608
 979  19   5.405275  -5.079434   1.511167  -0.000525   0.499476  -0.001050
 980  19   5.276784  -4.183670   2.582695  -0.000230   0.499476  -0.000460
 981  12   6.977556  -5.259436   1.041450  -0.000108   0.499476  -0.000215
 982  12   6.796926  -4.783060   2.348169  -0.000559   0.499476  -0.001119
 983  12   6.724931  -3.875116   3.052081   0.000021   0.249746   0.000086
 984  13   7.379806  -1.209682  -3.805779  -0.000043   0.334527  -0.000129
 985  15   6.902539  -0.239750  -4.089748  -0.000186   0.334527  -0.000555
 986  18   6.237192  -1.081250  -3.932844  -0.000030   0.334527  -0.000090
 987  15   9.089701   1.051758  -4.092409   0.000419   0.307226   0.001364
 988  15   7.997917   0.410047  -4.483415  -0.000587   0.614610  -0.000955
 989  13   9.358516  -0.576635  -3.902202  -0.000227   0.614610  -0.000369
 990  13   8.221657  -1.205140  -4.165272  -0.000119   0.307226  -0.000386
 991  18   5.950241  -1.839338  -4.181723   0.000132   0.267066   0.000495
 992  18   5.786007  -2.870527  -3.728322   0.000390   0.533837   0.000731
 993  13   7.508636  -2.429161  -3.866693  -0.000268   0.533837  -0.000502
 994  13   7.340152  -3.416039  -3.324861   0.000268   0.267066   0.001004
 995  20   3.367083  -0.674244   4.397854   0.000109   0.244309   0.000445
 996  20   3.320401   0.434430   4.656338  -0.000334   0.488617  -0.000683
 997  20   3.249219   1.748766   4.211929   0.000174   0.488617   0.000356
 998  14   4.819010  -0.188522   4.494700  -0.000141   0.488617  -0.000288
 999  14   4.754221   1.199055   4.516575  -0.000285   0.488617  -0.000583
1000  14   4.695980   2.175314   3.932043   0.000174   0.244309   0.000712
1001  18   3.935316   0.358089  -4.254266   0.000209   0.236900   0.000881
1002  18   4.716917  -0.310423  -4.561294  -0.000259   0.473647  -0.000547
1003  18   5.565641  -0.956832  -4.443402  -0.000047   0.236900  -0.000196
1004  15   5.161831   1.297327  -4.606491   0.000099   0.473647   0.000209
1005  15   6.179349   0.476659  -4.724534  -0.000434   0.473647  -0.000916
1006  21   2.310430   4.419920   1.001397  -0.000169   0.233516  -0.000723
1007  21   2.011302   4.678362  -0.187847  -0.001827   0.467705  -0.003907
1008  21   2.045377   4.199092  -1.631637  -0.001862   0.467705  -0.003982
1009  16   3.287018   5.103524   0.398015  -0.002154   0.467705  -0.004605
1010  16   3.069050   5.109730  -1.107921  -0.002213   0.467705  -0.004732
1011  16   3.226925   4.487908  -2.184483  -0.000299   0.233516  -0.001278
1012  22   0.928023  -0.037435  -4.090912   0.000200   0.248291   0.000804
1013  22   0.832084  -1.100005  -4.365146  -0.000116   0.496393  -0.000234
1014  22   0.711191  -2.381722  -3.976256   0.000338   0.496393   0.000682
1015  18   2.451289  -0.579369  -4.211681   0.000082   0.496393   0.000166
1016  18   2.328408  -1.917394  -4.268570  -0.000083   0.496393  -0.000167
1017  18   2.236059  -2.878293  -3.737901   0.000335   0.248291   0.001347
1018  23   0.674879  -4.913874  -0.248897   0.000362   0.243051   0.001491
1019  23   0.634201  -4.943673   0.820031  -0.000032   0.485868  -0.000067
1020  23   0.618792  -4.314277   1.966945   0.000092   0.485868   0.000190
1021  19   2.240740  -5.019424   0.215855   0.000321   0.485868   0.000660
1022  19   2.203025  -4.790938   1.503550  -0.000101   0.485868  -0.000207
1023  19   2.202596  -4.097334   2.318452   0.000165   0.243051   0.000680
1024  24  -1.486290  -0.727269   4.396340   0.000147   0.246390   0.000597
1025  24  -1.436848   0.336584   4.723870  -0.000222   0.492659  -0.000450
1026  24  -1.389984   1.653581   4.388674   0.000277   0.492659   0.000562
1027  20   0.059584  -0.391668   4.519253  -0.000057   0.492659  -0.000115
1028  20   0.116727   0.961649   4.638838  -0.000095   0.492659  -0.000194
1029  20   0.147601   1.959889   4.144807   0.000327   0.246390   0.001325
1030  25  -1.123343   4.324919   0.911332   0.000285   0.252649   0.001129
1031  25  -1.166482   4.454185  -0.247046  -0.000324   0.505313  -0.000640
1032  25  -1.276587   3.826969  -1.516284  -0.000223   0.505313  -0.000441
1033  21   0.340807   4.284736   0.403300   0.000064   0.505313   0.000128
1034  21   0.262999   4.132362  -1.006386  -0.000463   0.505313  -0.000917
1035  21   0.161448   3.402822  -1.910748   0.000068   0.252649   0.000270
1036  26  -3.763152   0.662693  -4.038905   0.000135   0.251158   0.000536
1037  26  -3.888218  -0.416422  -4.420359  -0.000328   0.502285  -0.000653
1038  26  -4.055083  -1.773127  -4.105504   0.000170   0.502285   0.000338
1039  22  -2.321408   0.081578  -4.195597  -0.000176   0.502285  -0.000351
1040  22  -2.485540  -1.301194  -4.364793  -0.000205   0.502285  -0.000408
1041  22  -2.615547  -2.333180  -3.871090   0.000303   0.251158   0.001205
1042  27  -4.197936  -4.531753  -0.645512   0.000305   0.247001   0.001235
1043  27  -4.254656  -4.658266   0.470117  -0.000149   0.493911  -0.000302
1044  27  -4.260185  -4.078101   1.712746  -0.000156   0.493911  -0.000316
1045  23  -2.712561  -4.729687  -0.160017   0.000265   0.493911   0.000537
1046  23  -2.758769  -4.594937   1.203969  -0.000243   0.493911  -0.000491
1047  23  -2.741985  -3.916601   2.100311   0.000143   0.247001   0.000580
1048  28  -6.439221  -0.600994   4.303343   0.000191   0.248764   0.000767
1049  28  -6.405831   0.430294   4.676047  -0.000110   0.497318  -0.000221
1050  28  -6.352009   1.742782   4.413538   0.000277   0.497318   0.000556
1051  24  -4.850794  -0.277031   4.496105   0.000034   0.497318   0.000068
1052  24  -4.803323   1.048988   4.680093  -0.000065   0.497318  -0.000130
1053  24  -4.758467   2.055848   4.246735   0.000379   0.248764   0.001525
1054  29  -6.059320   4.601546   1.035680   0.000348   0.248185   0.001402
1055  29  -6.052080   4.769359  -0.043588  -0.000088   0.496150  -0.000177
1056  29  -6.086611   4.266446  -1.278639  -0.000002   0.496150  -0.000003
1057  25  -4.475357   4.595660   0.623926   0.000320   0.496150   0.000646
1058  25  -4.483570   4.524435  -0.708111  -0.000077   0.496150  -0.000156
1059  25  -4.523836   3.913014  -1.612310   0.000205   0.248185   0.000825
1060  30  -8.528798   1.097116  -4.128262   0.000035   0.249553   0.000141
1061  30  -8.566342   0.045929  -4.555393  -0.000537   0.499028  -0.001075
1062  30  -8.649291  -1.315474  -4.319862  -0.000038   0.499028  -0.000077
1063  26  -7.030280   0.626169  -4.253262  -0.000205   0.499028  -0.000411
1064  26  -7.092727  -0.736132  -4.489922  -0.000250   0.499028  -0.000501
1065  26  -7.167324  -1.785696  -4.063662   0.000299   0.249553   0.001196
1066  31  -8.845920  -4.208814  -1.035283   0.000323   0.254241   0.001270
1067  31  -8.912616  -4.427042   0.096139  -0.000477   0.508424  -0.000938
1068  31  -8.962533  -3.909536   1.402248  -0.000473   0.508424  -0.000930
1069  27  -7.359553  -4.375802  -0.529876   0.000126   0.508424   0.000248
1070  27  -7.431384  -4.336808   0.873529  -0.000356   0.508424  -0.000700
1071  27  -7.458462  -3.689947   1.829052   0.000127   0.254241   0.000500
 =====================================================


   1 warning(s) detected.
     A line exceeding 80 characters begins with "http://cactus.nci.ni".
 There may be a problem in your input file.

              9360015  WORDS OF DYNAMIC MEMORY USED
 EXECUTION OF GAMESS TERMINATED NORMALLY Wed Nov 23 09:49:58 2016
 DDI: 263640 bytes (0.3 MB / 0 MWords) used by master data server.

 ----------------------------------------
 CPU timing information for all processes
 ========================================
 0: 4529.240 + 1.176 = 4530.416
 ----------------------------------------
 ddikick.x: exited gracefully.
