----- GAMESS execution script -----

          ******************************************************
          *         GAMESS VERSION =  5 DEC 2014 (R1)          *
          *             FROM IOWA STATE UNIVERSITY             *
          * M.W.SCHMIDT, K.K.BALDRIDGE, J.A.BOATZ, S.T.ELBERT, *
          *   M.S.GORDON, J.H.JENSEN, S.KOSEKI, N.MATSUNAGA,   *
          *          K.A.NGUYEN, S.J.SU, T.L.WINDUS,           *
          *       TOGETHER WITH M.DUPUIS, J.A.MONTGOMERY       *
          *         J.COMPUT.CHEM.  14, 1347-1363(1993)        *
          **************** 64 BIT LINUX VERSION ****************

 EXECUTION OF GAMESS BEGUN Wed Nov 23 07:20:16 2016

            ECHO OF THE FIRST FEW INPUT CARDS -
 INPUT CARD>! SELECT RESTRICTED HARTREE-FOCK AS DEFAULT                                     
 INPUT CARD>$contrl scftyp=rhf $end                                                         
 INPUT CARD>                                                                                
 INPUT CARD>! THEORY: HF OR DFT                                                             
 INPUT CARD> $contrl mplevl=0 $end                                                          
 INPUT CARD>                                                                                
 INPUT CARD> $system timlim=10000 mwords=20 $end                                            
 INPUT CARD> $SCF DIRSCF=.TRUE. $end                                                        
 INPUT CARD>                                                                                
 INPUT CARD>                                                                                
 INPUT CARD>! BASIS SETS                                                                    
 INPUT CARD>! 6-311G(d,p)                                                                   
 INPUT CARD> $BASIS GBASIS=N311 NGAUSS=6 NDFUNC=1 NPFUNC=1 $END                             
 INPUT CARD>                                                                                
 INPUT CARD>! One of the following                                                          
 INPUT CARD> $guess guess=HUCKEL $end                                                       
 INPUT CARD>                                                                                
 INPUT CARD> $statpt projct=.FALSE. $end                                                    
 INPUT CARD> $STATPT IFREEZ(1)=1,2,3 $END                                                   
 INPUT CARD>                                                                                
 INPUT CARD>! Optimize the geometry with COSMO effects                                      
 INPUT CARD> $statpt opttol=0.0005 nstep=50 $end                                            
 INPUT CARD> $contrl nzvar=1 $end                                                           
 INPUT CARD> $zmat dlc=.t. auto=.t. $end                                                    
 INPUT CARD> $contrl runtyp=OPTIMIZE maxit=200 $end                                         
 INPUT CARD>                                                                                
 INPUT CARD>! Run COSMO on perfect conductor                                                
 INPUT CARD> $COSGMS PRFCND=.TRUE. $end                                                     
 INPUT CARD>                                                                                
 INPUT CARD>! Specifying RSOLV                                                              
 INPUT CARD> $COSGMS COSRAD = 1.4 $end                                                      
 INPUT CARD>                                                                                
 INPUT CARD>! available memory                                                              
 INPUT CARD> $SYSTEM MWORDS=40 $END                                                         
 INPUT CARD>                                                                                
 INPUT CARD> $DATA                                                                          
 INPUT CARD>http://cactus.nci.nih.gov/chemical/structure/2-METHYL-2-HEXANOL/file?format=sdf&
 INPUT CARD>C1                                                                              
 INPUT CARD>C      6.0      2.5655000000   -0.9659000000   -0.1747000000                    
 INPUT CARD>C      6.0      1.3860000000   -0.0061000000   -0.0062000000                    
 INPUT CARD>C      6.0      1.3911000000    1.0135000000   -1.1469000000                    
 INPUT CARD>C      6.0      0.0767000000   -0.7971000000   -0.0351000000                    
 INPUT CARD>C      6.0     -1.1060000000    0.1725000000    0.0080000000                    
 INPUT CARD>C      6.0     -2.4154000000   -0.6185000000   -0.0209000000                    
 INPUT CARD>C      6.0     -3.5981000000    0.3512000000    0.0223000000                    
 INPUT CARD>O      8.0      1.5024000000    0.6768000000    1.2437000000                    
 INPUT CARD>H      1.0      3.4983000000   -0.4024000000   -0.1541000000                    
 INPUT CARD>H      1.0      2.5619000000   -1.6923000000    0.6380000000                    
 INPUT CARD>H      1.0      2.4767000000   -1.4868000000   -1.1281000000                    
 INPUT CARD>H      1.0      1.3023000000    0.4926000000   -2.1002000000                    
   40000000 WORDS OF MEMORY AVAILABLE

     BASIS OPTIONS
     -------------
     GBASIS=N311         IGAUSS=       6      POLAR=POPN311 
     NDFUNC=       1     NFFUNC=       0     DIFFSP=       F
     NPFUNC=       1      DIFFS=       F     BASNAM=        


     RUN TITLE
     ---------
 http://cactus.nci.nih.gov/chemical/structure/2-METHYL-2-HEXANOL/file?format=sdf&

 THE POINT GROUP OF THE MOLECULE IS C1      
 THE ORDER OF THE PRINCIPAL AXIS IS     0

 ATOM      ATOMIC                      COORDINATES (BOHR)
           CHARGE         X                   Y                   Z
 C           6.0     4.8480920215       -1.8252863315       -0.3301351301
 C           6.0     2.6191602190       -0.0115273285       -0.0117163011
 C           6.0     2.6287978215        1.9152372886       -2.1673267353
 C           6.0     0.1449419833       -1.5063005848       -0.0663293822
 C           6.0    -2.0900369424        0.3259777329        0.0151178079
 C           6.0    -4.5644441507       -1.1687955234       -0.0394952731
 C           6.0    -6.7994230764        0.6636717669        0.0421408895
 O           8.0     2.8391243240        1.2789665485        2.3502522109
 H           1.0     6.6108284228       -0.7604257375       -0.2912067747
 H           1.0     4.8412890079       -3.1979832890        1.2056451802
 H           1.0     4.6802843538       -2.8096445985       -2.1317998867
 H           1.0     2.4609901538        0.9308790216       -3.9688025194
 H           1.0     1.0408610740        3.2074319190       -1.9403706442
 H           1.0     4.3915342229        2.9802868552       -2.1283983800
 H           1.0     0.0549910262       -2.6223727532       -1.7952396883
 H           1.0     0.0642506836       -2.7607006955        1.5656379808
 H           1.0    -2.0002749580        1.4420499012        1.7440281141
 H           1.0    -2.0095346153        1.5803778435       -1.6166605825
 H           1.0    -4.6542061352       -2.2848676918       -1.7684055793
 H           1.0    -4.6449464778       -2.4230066615        1.5924720899
 H           1.0    -6.7094721194        1.7797439352        1.7708622231
 H           1.0    -6.7187317767        1.9178829049       -1.5898264735
 H           1.0    -8.5621594778       -0.4013777998        0.0032125342
 H           1.0     4.3669677850        2.2676711853        2.5174929608

          INTERNUCLEAR DISTANCES (ANGS.)




     $CONTRL OPTIONS
     ---------------
 SCFTYP=RHF          RUNTYP=OPTIMIZE     EXETYP=RUN     
 MPLEVL=       0     CITYP =NONE         CCTYP =NONE         VBTYP =NONE    
 DFTTYP=NONE         TDDFT =NONE    
 MULT  =       1     ICHARG=       0     NZVAR =       1     COORD =UNIQUE  
 PP    =NONE         RELWFN=NONE         LOCAL =NONE         NUMGRD=       F
 ISPHER=      -1     NOSYM =       0     MAXIT =     200     UNITS =ANGS    
 PLTORB=       F     MOLPLT=       F     AIMPAC=       F     FRIEND=        
 NPRINT=       7     IREST =       0     GEOM  =INPUT   
 NORMF =       0     NORMP =       0     ITOL  =      20     ICUT  =       9
 INTTYP=BEST         GRDTYP=BEST         QMTTOL= 1.0E-06

     $SYSTEM OPTIONS
     ---------------
  REPLICATED MEMORY=    40000000 WORDS (ON EVERY NODE).
 DISTRIBUTED MEMDDI=           0 MILLION WORDS IN AGGREGATE,
 MEMDDI DISTRIBUTED OVER   1 PROCESSORS IS           0 WORDS/PROCESSOR.
 TOTAL MEMORY REQUESTED ON EACH PROCESSOR=    40000000 WORDS.
 TIMLIM=       10000.00 MINUTES, OR       6.9 DAYS.
 PARALL= F  BALTYP=  DLB     KDIAG=    0  COREFL= F
 MXSEQ2=     300 MXSEQ3=     150  mem10=         0

     $COSGMS OPTIONS
     ---------------
     EPSI  =   INFTY     NSPA  =      92     COSRAD=    1.40
     DISEX =   10.00     OUTCHG=DBLCAV       COSBUG=       F
     COSWRT=       F     DCOSMO=       F

     SYMMETRY COORDINATES WILL NOT BE USED FOR 
     THE COSMO CALCULATION, EVEN IF SPECIFIED:
         -- SWITCHING TO C1 POINT GROUP --


     DEFINITION OF CAVITY
     ---------------------------
     ATOM         COORDINATES           RADIUS 
     1    4.8481   -1.8253   -0.3301    2.0000
     2    2.6192   -0.0115   -0.0117    2.0000
     3    2.6288    1.9152   -2.1673    2.0000
     4    0.1449   -1.5063   -0.0663    2.0000
     5   -2.0900    0.3260    0.0151    2.0000
     6   -4.5644   -1.1688   -0.0395    2.0000
     7   -6.7994    0.6637    0.0421    2.0000
     8    2.8391    1.2790    2.3503    1.7200
     9    6.6108   -0.7604   -0.2912    1.3000
    10    4.8413   -3.1980    1.2056    1.3000
    11    4.6803   -2.8096   -2.1318    1.3000
    12    2.4610    0.9309   -3.9688    1.3000
    13    1.0409    3.2074   -1.9404    1.3000
    14    4.3915    2.9803   -2.1284    1.3000
    15    0.0550   -2.6224   -1.7952    1.3000
    16    0.0643   -2.7607    1.5656    1.3000
    17   -2.0003    1.4420    1.7440    1.3000
    18   -2.0095    1.5804   -1.6167    1.3000
    19   -4.6542   -2.2849   -1.7684    1.3000
    20   -4.6449   -2.4230    1.5925    1.3000
    21   -6.7095    1.7797    1.7709    1.3000
    22   -6.7187    1.9179   -1.5898    1.3000
    23   -8.5622   -0.4014    0.0032    1.3000
    24    4.3670    2.2677    2.5175    1.3000

          ----------------
          PROPERTIES INPUT
          ----------------

     MOMENTS            FIELD           POTENTIAL          DENSITY
 IEMOM =       1   IEFLD =       0   IEPOT =       0   IEDEN =       0
 WHERE =COMASS     WHERE =NUCLEI     WHERE =NUCLEI     WHERE =NUCLEI  
 OUTPUT=BOTH       OUTPUT=BOTH       OUTPUT=BOTH       OUTPUT=BOTH    
 IEMINT=       0   IEFINT=       0                     IEDINT=       0
                                                       MORB  =       0
          EXTRAPOLATION IN EFFECT
          SOSCF IN EFFECT
 ORBITAL PRINTING OPTION: NPREO=     1   248     2     1

     -------------------------------
     INTEGRAL TRANSFORMATION OPTIONS
     -------------------------------
     NWORD  =            0
     CUTOFF = 1.0E-09     MPTRAN =       0
     DIRTRF =       T     AOINTS =DUP     

          ----------------------
          INTEGRAL INPUT OPTIONS
          ----------------------
 NOPK  =       1 NORDER=       0 SCHWRZ=       T


 -----------------------------------------------
  STATISTICS ON AUTOMATIC COORDINATE GENERATION 
 -----------------------------------------------
  NUMBER OF USER SPECIFIED BONDS                             0
  NUMBER OF BONDS                                           23
  NUMBER OF ANGLES                                          43
  NUMBER OF TORSIONS                                        57
  NUMBER OF EXTRA COORD.                                     0
  NUMBER OF EXTRA COORD. FOR CONSTRAINTS                     0
  NUMBER OF CONSTRAINED COORD.                               0

  TOTAL NUMBER OF PRIMITIVES                               123
 -----------------------------------------------

   --- ENCODED Z MATRIX ---
 COORD  TYPE   I   J   K   L   M   N
    1      1    1   9
    2      1    1  11
    3      1    1  10
    4      1    1   2
    5      1    2   4
    6      1    2   3
    7      1    2   8
    8      1    3  14
    9      1    3  13
   10      1    3  12
   11      1    4  16
   12      1    4  15
   13      1    4   5
   14      1    5   6
   15      1    5  18
   16      1    5  17
   17      1    6   7
   18      1    6  20
   19      1    6  19
   20      1    7  23
   21      1    7  22
   22      1    7  21
   23      1    8  24
   24      2    1   2   3
   25      2    1   2   8
   26      2    1   2   4
   27      2    2   3  13
   28      2    2   4  15
   29      2    2   3  12
   30      2    2   4  16
   31      2    2   1   9
   32      2    2   1  11
   33      2    2   4   5
   34      2    2   1  10
   35      2    2   3  14
   36      2    2   8  24
   37      2    3   2   4
   38      2    3   2   8
   39      2    4   5  18
   40      2    4   5  17
   41      2    4   5   6
   42      2    4   2   8
   43      2    5   6   7
   44      2    5   4  15
   45      2    5   4  16
   46      2    5   6  19
   47      2    5   6  20
   48      2    6   5  17
   49      2    6   5  18
   50      2    6   7  21
   51      2    6   7  22
   52      2    6   7  23
   53      2    7   6  19
   54      2    7   6  20
   55      2    9   1  10
   56      2    9   1  11
   57      2   10   1  11
   58      2   12   3  13
   59      2   12   3  14
   60      2   13   3  14
   61      2   15   4  16
   62      2   17   5  18
   63      2   19   6  20
   64      2   21   7  22
   65      2   21   7  23
   66      2   22   7  23
   67      3    1   2   4  15
   68      3    1   2   4  16
   69      3    1   2   3  12
   70      3    1   2   3  13
   71      3    1   2   8  24
   72      3    1   2   4   5
   73      3    1   2   3  14
   74      3    2   4   5  17
   75      3    2   4   5  18
   76      3    2   4   5   6
   77      3    3   2   4  16
   78      3    3   2   1   9
   79      3    3   2   1  10
   80      3    3   2   8  24
   81      3    3   2   1  11
   82      3    3   2   4  15
   83      3    3   2   4   5
   84      3    4   2   1  10
   85      3    4   2   1  11
   86      3    4   2   8  24
   87      3    4   2   3  12
   88      3    4   2   3  14
   89      3    4   2   1   9
   90      3    4   2   3  13
   91      3    4   5   6  19
   92      3    4   5   6  20
   93      3    4   5   6   7
   94      3    5   6   7  21
   95      3    5   6   7  22
   96      3    5   6   7  23
   97      3    5   4   2   8
   98      3    6   5   4  15
   99      3    6   5   4  16
  100      3    7   6   5  17
  101      3    7   6   5  18
  102      3    8   2   1   9
  103      3    8   2   4  16
  104      3    8   2   3  12
  105      3    8   2   3  14
  106      3    8   2   4  15
  107      3    8   2   3  13
  108      3    8   2   1  10
  109      3    8   2   1  11
  110      3   15   4   5  18
  111      3   15   4   5  17
  112      3   16   4   5  18
  113      3   16   4   5  17
  114      3   17   5   6  20
  115      3   17   5   6  19
  116      3   18   5   6  20
  117      3   18   5   6  19
  118      3   19   6   7  23
  119      3   19   6   7  22
  120      3   19   6   7  21
  121      3   20   6   7  23
  122      3   20   6   7  22
  123      3   20   6   7  21

          INDEP./SYM. INTERNAL COORDINATES
          --------------------------------
 CRD  1=   0.1616 ( 26)  0.1530 ( 28)  0.1702 ( 30) -0.5659 ( 33) -0.1454 ( 37)
          -0.1331 ( 39) -0.1301 ( 40)  0.4282 ( 41) -0.3156 ( 43)  0.1648 ( 44)
           0.1752 ( 45)  0.1003 ( 47) -0.1130 ( 48) -0.1268 ( 49)  0.1115 ( 86)
 CRD  2=   0.2715 (  5)  0.2002 ( 13)  0.1831 ( 14)  0.1129 ( 17) -0.2193 ( 24)
           0.1082 ( 27) -0.1077 ( 30)  0.1383 ( 33)  0.2330 ( 37) -0.1542 ( 40)
           0.3259 ( 41) -0.1786 ( 42) -0.1334 ( 45) -0.1683 ( 48) -0.1599 ( 72)
           0.1242 ( 74)  0.2251 ( 76)  0.1455 ( 80) -0.2356 ( 83)  0.1028 ( 84)
           0.1336 ( 85) -0.1026 ( 87)  0.1300 ( 89) -0.1193 ( 91) -0.1868 ( 93)
          -0.1552 ( 97)
 CRD  3=   0.1513 (  4)  0.2048 (  5)  0.3262 ( 13)  0.2373 ( 14)  0.2085 ( 17)
          -0.1203 ( 25)  0.2353 ( 26)  0.1126 ( 34) -0.2180 ( 37)  0.1823 ( 41)
           0.3792 ( 43) -0.1200 ( 46) -0.1010 ( 49)  0.1299 ( 50) -0.1633 ( 53)
          -0.1244 ( 71)  0.1244 ( 72) -0.1058 ( 75) -0.1737 ( 76) -0.1205 ( 84)
           0.1212 ( 86) -0.1124 ( 89)  0.1181 ( 93)
 CRD  4=  -0.1833 (  5)  0.1684 ( 26)  0.1310 ( 30) -0.2320 ( 33) -0.1658 ( 37)
           0.1421 ( 38)  0.2013 ( 39) -0.2767 ( 41)  0.2884 ( 43)  0.2105 ( 44)
          -0.1478 ( 46)  0.1332 ( 48)  0.1400 ( 51) -0.1584 ( 54) -0.1009 ( 67)
          -0.2320 ( 72) -0.2265 ( 83) -0.1015 ( 90) -0.1290 ( 91) -0.1863 ( 92)
          -0.2480 ( 93) -0.1885 ( 97) -0.1268 (101)
 CRD  5=  -0.1065 (  5) -0.1911 ( 24)  0.1156 ( 25)  0.1183 ( 26)  0.2386 ( 28)
          -0.2457 ( 33)  0.1192 ( 36)  0.1347 ( 37)  0.1469 ( 40) -0.1667 ( 41)
          -0.2305 ( 42)  0.2591 ( 43)  0.1892 ( 45) -0.1873 ( 47)  0.1956 ( 49)
           0.1114 ( 50) -0.1347 ( 53)  0.1341 ( 68)  0.1713 ( 72)  0.1558 ( 74)
           0.1467 ( 75)  0.2292 ( 76)  0.1020 ( 84)  0.1246 ( 85) -0.1113 ( 87)
          -0.1081 ( 88)  0.1268 ( 91)  0.1343 ( 93)  0.1047 ( 95)  0.1249 ( 98)
           0.1065 ( 99)
 CRD  6=   0.1174 (  4)  0.1016 (  6)  0.1053 ( 14)  0.1249 ( 17)  0.3865 ( 24)
          -0.1967 ( 26) -0.1604 ( 27)  0.1032 ( 28)  0.1714 ( 29)  0.1210 ( 31)
           0.1248 ( 32) -0.1011 ( 33) -0.1543 ( 34) -0.1857 ( 38)  0.1470 ( 41)
           0.1443 ( 42)  0.2198 ( 43) -0.1256 ( 47) -0.1000 ( 48)  0.1023 ( 51)
          -0.1227 ( 67) -0.1468 ( 68)  0.1771 ( 71) -0.1527 ( 72)  0.1309 ( 74)
           0.2062 ( 76)  0.1721 ( 77) -0.1258 ( 80)  0.1962 ( 82)  0.1662 ( 83)
           0.1274 ( 98)
 CRD  7=  -0.1858 (  4)  0.1440 ( 17)  0.2334 ( 25) -0.2558 ( 26)  0.1037 ( 27)
           0.1271 ( 30) -0.1863 ( 32) -0.2263 ( 33)  0.2389 ( 37) -0.1439 ( 38)
          -0.1376 ( 40)  0.1755 ( 41)  0.2880 ( 43)  0.1685 ( 44) -0.1616 ( 46)
           0.1061 ( 50) -0.1076 ( 54) -0.1559 ( 69) -0.1126 ( 70)  0.1076 ( 71)
          -0.1185 ( 73) -0.1332 ( 75) -0.1872 ( 76)  0.1389 ( 80) -0.1045 ( 94)
          -0.1398 ( 99)
 CRD  8=  -0.3650 (  4) -0.4030 (  6) -0.2642 (  7) -0.2332 ( 31) -0.2513 ( 35)
          -0.4461 ( 36) -0.1148 ( 38)  0.1441 ( 42)  0.1130 ( 55)  0.1094 ( 56)
           0.1161 ( 59)  0.1282 ( 60)  0.1176 ( 70) -0.1216 ( 79)  0.1190 (102)
          -0.1282 (104) -0.1153 (105)  0.1427 (109)
 CRD  9=  -0.1768 (  5) -0.4274 (  6)  0.2076 (  7)  0.1244 ( 25) -0.1460 ( 27)
          -0.2396 ( 29) -0.1273 ( 30)  0.1573 ( 31) -0.2397 ( 32)  0.1048 ( 33)
           0.2455 ( 36) -0.1588 ( 50)  0.1727 ( 51)  0.1524 ( 58)  0.1126 ( 59)
           0.1355 ( 67) -0.1296 ( 70)  0.1408 ( 72)  0.1249 ( 79) -0.1266 ( 89)
          -0.1705 ( 93)  0.1194 ( 96)  0.1000 ( 98) -0.1127 (100)
 CRD 10=  -0.4999 (  4) -0.1223 (  5)  0.1681 (  6) -0.1880 ( 25) -0.1598 ( 29)
          -0.1242 ( 31) -0.2074 ( 34)  0.2041 ( 35)  0.2320 ( 38) -0.1041 ( 39)
           0.1166 ( 41)  0.1453 ( 55)  0.1276 ( 56)  0.1463 ( 57) -0.1325 ( 77)
           0.1246 ( 78) -0.1120 ( 80) -0.1740 ( 86)  0.1098 ( 88)  0.1659 ( 97)
           0.1227 (103)  0.1731 (106) -0.1058 (107)
 CRD 11=   0.3407 (  5)  0.2666 (  6)  0.1740 (  7)  0.1010 ( 11) -0.2028 ( 13)
          -0.1124 ( 17)  0.1137 ( 23)  0.1489 ( 28)  0.1098 ( 29) -0.1134 ( 31)
          -0.1428 ( 32)  0.2005 ( 34) -0.1326 ( 44) -0.3233 ( 50)  0.2921 ( 51)
          -0.1523 ( 54)  0.1284 ( 65)  0.1452 ( 72)  0.1253 ( 83) -0.1453 ( 93)
           0.1620 ( 97) -0.1031 (100) -0.1684 (101)  0.1116 (103)
 CRD 12=   0.3410 (  5) -0.1410 (  6)  0.1593 (  7) -0.1482 ( 13) -0.3865 ( 17)
           0.1262 ( 23) -0.1940 ( 29)  0.1418 ( 30)  0.1679 ( 31) -0.1352 ( 34)
           0.1012 ( 36) -0.1056 ( 45)  0.1479 ( 46)  0.1402 ( 50) -0.2385 ( 51)
          -0.2560 ( 52) -0.2193 ( 53)  0.1983 ( 66) -0.1119 ( 97)  0.1162 ( 99)
           0.1062 (100) -0.1005 (106)
 CRD 13=  -0.1633 (  4) -0.1579 (  6)  0.2698 (  7)  0.1029 ( 23) -0.3513 ( 27)
           0.3317 ( 29) -0.1470 ( 31)  0.3116 ( 32) -0.3162 ( 34) -0.1272 ( 35)
           0.3968 ( 36)  0.1852 ( 55)  0.1897 ( 60)
 CRD 14=  -0.2246 (  5) -0.1118 (  7)  0.2269 ( 13) -0.1262 ( 14) -0.4373 ( 17)
          -0.1429 ( 30)  0.1765 ( 41)  0.1304 ( 47) -0.1499 ( 49)  0.1186 ( 51)
          -0.4751 ( 52) -0.1767 ( 54)  0.2238 ( 65)  0.1698 ( 66) -0.1210 (115)
           0.1066 (116)
 CRD 15=   0.2262 (  7) -0.3791 ( 14)  0.1623 ( 17)  0.1499 ( 23)  0.3353 ( 27)
          -0.1551 ( 31)  0.2091 ( 32) -0.3186 ( 35)  0.1720 ( 36)  0.1185 ( 42)
          -0.1317 ( 47) -0.1217 ( 48)  0.1831 ( 50)  0.2106 ( 51) -0.2387 ( 52)
           0.1149 ( 54) -0.1185 ( 58)  0.1321 ( 59) -0.1725 ( 64)
 CRD 16=   0.1466 (  4) -0.2881 (  5)  0.1104 (  9) -0.1297 ( 13)  0.3999 ( 14)
          -0.1737 ( 17)  0.3515 ( 27) -0.1629 ( 31)  0.2653 ( 32) -0.2920 ( 35)
          -0.1029 ( 39) -0.2330 ( 50)  0.1639 ( 52) -0.1295 ( 57) -0.1067 ( 58)
           0.1549 ( 59)  0.1513 ( 64)  0.1068 (111) -0.1025 (112)
 CRD 17=  -0.1045 (  1)  0.1431 (  3) -0.1329 (  5)  0.1032 (  7) -0.1993 ( 27)
          -0.1330 ( 28)  0.3038 ( 29) -0.3492 ( 31) -0.1794 ( 32)  0.4725 ( 34)
           0.1258 ( 44)  0.1360 ( 46) -0.1034 ( 47)  0.1236 ( 50) -0.2005 ( 51)
          -0.1218 ( 53)  0.2159 ( 56) -0.1159 ( 57) -0.1214 ( 59) -0.1125 ( 97)
 CRD 18=  -0.1386 (  1)  0.1109 (  2)  0.1440 (  8) -0.1298 ( 10) -0.1212 ( 13)
          -0.3810 ( 29) -0.4228 ( 31)  0.3371 ( 32)  0.1344 ( 34)  0.4383 ( 35)
          -0.1027 ( 38)  0.1001 ( 50)  0.1203 ( 55) -0.1991 ( 57)  0.2027 ( 58)
          -0.1437 ( 60)
 CRD 19=   0.1111 ( 15) -0.1416 ( 16) -0.1177 ( 21)  0.1314 ( 22)  0.1464 ( 27)
           0.1894 ( 28) -0.1846 ( 30) -0.1762 ( 32)  0.1603 ( 34) -0.1302 ( 35)
           0.1024 ( 39) -0.1366 ( 40) -0.1280 ( 44) -0.1903 ( 46)  0.1940 ( 47)
           0.1213 ( 48) -0.1166 ( 49)  0.3661 ( 50) -0.3063 ( 51)  0.1335 ( 53)
          -0.1275 ( 54) -0.1478 ( 65)  0.1490 ( 66)  0.1781 ( 74)  0.1725 ( 75)
           0.1028 ( 76) -0.1368 ( 93) -0.1590 ( 94) -0.1541 ( 95) -0.1807 ( 96)
 CRD 20=   0.1221 (  5)  0.1443 ( 11)  0.1602 ( 12)  0.4911 ( 13) -0.1774 ( 14)
          -0.1610 ( 17) -0.1139 ( 18) -0.1063 ( 19)  0.1188 ( 27) -0.1171 ( 29)
          -0.1619 ( 33)  0.1294 ( 39)  0.1101 ( 40)  0.1009 ( 43)  0.1621 ( 45)
          -0.2039 ( 50) -0.2600 ( 51)  0.2929 ( 52) -0.1204 ( 61)  0.2024 ( 64)
 CRD 21=   0.1020 ( 11) -0.1026 ( 12)  0.1099 ( 28) -0.1148 ( 30)  0.3141 ( 39)
          -0.3147 ( 40)  0.2282 ( 46) -0.2309 ( 47)  0.2955 ( 48) -0.2972 ( 49)
          -0.2437 ( 53)  0.2423 ( 54) -0.2076 ( 91) -0.2074 ( 92)  0.1417 ( 94)
           0.1414 ( 95)  0.1170 ( 96) -0.1777 ( 98) -0.1810 ( 99)  0.1529 (100)
           0.1533 (101)
 CRD 22=   0.1009 ( 11)  0.1111 ( 12)  0.3131 ( 13)  0.3937 ( 14)  0.2044 ( 15)
           0.2078 ( 16)  0.1783 ( 18)  0.1711 ( 19) -0.1577 ( 33)  0.1034 ( 39)
          -0.2604 ( 41) -0.2573 ( 43)  0.1072 ( 45)  0.1538 ( 46)  0.1567 ( 47)
           0.1180 ( 48)  0.1041 ( 49)  0.1671 ( 50)  0.1803 ( 51) -0.2444 ( 52)
          -0.1634 ( 62) -0.1468 ( 63) -0.1618 ( 64)
 CRD 23=   0.1074 (  3) -0.2351 ( 11)  0.2147 ( 12) -0.1335 ( 15)  0.1096 ( 16)
           0.2122 ( 18) -0.2233 ( 19)  0.1404 ( 21) -0.1425 ( 22)  0.1697 ( 28)
          -0.1529 ( 30) -0.1230 ( 32)  0.1503 ( 34) -0.2218 ( 50)  0.2143 ( 51)
           0.1261 ( 65) -0.1280 ( 66) -0.1511 ( 67) -0.1325 ( 68) -0.1738 ( 72)
           0.1660 ( 74)  0.1693 ( 75) -0.1074 ( 83)  0.2162 ( 93) -0.1108 ( 94)
          -0.1109 ( 95) -0.1330 ( 96) -0.1277 ( 97) -0.1100 ( 98)  0.1705 (100)
           0.1654 (101) -0.1050 (106)
 CRD 24=  -0.2173 (  7)  0.1381 (  8)  0.1243 ( 12) -0.2856 ( 23)  0.2261 ( 36)
          -0.1056 ( 68)  0.1129 ( 69)  0.1441 ( 70)  0.1110 ( 73) -0.2526 ( 78)
          -0.2807 ( 79) -0.2659 ( 81) -0.2411 ( 84) -0.2263 ( 85) -0.2131 ( 89)
           0.1053 ( 90) -0.2347 (102)  0.1282 (107) -0.2627 (108) -0.2479 (109)
 CRD 25=   0.1082 (  1)  0.1158 ( 12)  0.1667 ( 15) -0.1346 ( 16)  0.2211 ( 18)
          -0.2158 ( 19) -0.1099 ( 23) -0.1350 ( 28)  0.1083 ( 30)  0.1829 ( 44)
          -0.1146 ( 45)  0.1337 ( 67)  0.2357 ( 69)  0.2292 ( 70)  0.2243 ( 73)
           0.1078 ( 77)  0.1562 ( 82)  0.2206 ( 87)  0.2092 ( 88)  0.2141 ( 90)
           0.1000 (101)  0.2252 (104)  0.2138 (105)  0.1448 (106)  0.2188 (107)
 CRD 26=  -0.1062 (  2) -0.1945 ( 15)  0.2130 ( 16) -0.2473 ( 18)  0.2504 ( 19)
           0.1074 ( 28) -0.1249 ( 30) -0.1110 ( 44)  0.1523 ( 45) -0.1053 ( 67)
          -0.1341 ( 68)  0.1604 ( 69)  0.1490 ( 70)  0.1131 ( 71)  0.1736 ( 73)
          -0.1280 ( 77)  0.1531 ( 78)  0.1242 ( 79)  0.1122 ( 80)  0.1385 ( 81)
           0.1281 ( 84)  0.1424 ( 85)  0.1172 ( 86)  0.1558 ( 87)  0.1690 ( 88)
           0.1570 ( 89)  0.1444 ( 90)  0.1003 ( 96) -0.1023 ( 98) -0.1096 ( 99)
          -0.1063 (100) -0.1043 (101)  0.1605 (102) -0.1391 (103)  0.1607 (104)
           0.1739 (105) -0.1103 (106)  0.1493 (107)  0.1316 (108)  0.1459 (109)
 CRD 27=   0.3897 (  1)  0.4056 (  2)  0.3883 (  3) -0.2969 (  8) -0.2693 (  9)
          -0.2997 ( 10)  0.1470 ( 27)  0.1028 ( 29) -0.1544 ( 31) -0.1503 ( 32)
          -0.1752 ( 34)  0.1014 ( 35)  0.1671 ( 55)  0.1505 ( 56)  0.1623 ( 57)
          -0.1271 ( 58) -0.1268 ( 60)
 CRD 28=  -0.2694 (  1) -0.2978 (  2) -0.3015 (  3) -0.1196 (  6) -0.3736 (  8)
          -0.4283 (  9) -0.3838 ( 10)  0.1254 ( 27)  0.1598 ( 29)  0.1254 ( 31)
           0.1187 ( 32)  0.1639 ( 35) -0.1059 ( 55) -0.1254 ( 56) -0.1383 ( 58)
          -0.1685 ( 59) -0.1422 ( 60)
 CRD 29=  -0.1817 ( 17) -0.4903 ( 20) -0.5103 ( 21) -0.5104 ( 22)  0.1711 ( 50)
           0.1711 ( 51)  0.1867 ( 52) -0.1684 ( 64) -0.1803 ( 65) -0.1802 ( 66)
 CRD 30=  -0.1455 ( 10) -0.2711 ( 11)  0.2868 ( 12) -0.3324 ( 15)  0.3324 ( 16)
          -0.2159 ( 18)  0.2157 ( 19)  0.1943 ( 44) -0.1956 ( 45)  0.1292 ( 48)
          -0.1298 ( 49)  0.1495 ( 67)  0.1496 ( 68)  0.1116 ( 74)  0.1120 ( 75)
           0.1793 ( 77)  0.1792 ( 82)  0.1101 ( 91)  0.1102 ( 92)  0.1761 (103)
           0.1759 (106)  0.1067 (110)  0.1063 (111)  0.1082 (112)  0.1078 (113)
 CRD 31=   0.2601 ( 18)  0.2578 ( 19) -0.6018 ( 20)  0.2658 ( 21)  0.2702 ( 22)
           0.3175 ( 64) -0.1488 ( 65) -0.1510 ( 66) -0.1605 ( 94)  0.1586 ( 95)
           0.1876 (119) -0.1316 (120)  0.1281 (122) -0.1911 (123)
 CRD 32=  -0.2738 (  1) -0.1562 (  2)  0.3958 (  3)  0.3196 (  8) -0.4227 (  9)
           0.1118 ( 10) -0.1719 ( 12) -0.2053 ( 56)  0.1405 ( 57) -0.1658 ( 58)
           0.2285 ( 59)  0.1431 ( 69)  0.1247 ( 81)  0.1186 ( 85)  0.1331 ( 87)
          -0.1037 ( 88) -0.1006 ( 89)  0.1432 (104)  0.1296 (109)
 CRD 33=  -0.3922 (  1)  0.2495 (  2)  0.1359 (  3)  0.1622 (  8)  0.1877 (  9)
          -0.3436 ( 10) -0.2945 ( 21)  0.2904 ( 22) -0.1345 ( 55)  0.2122 ( 57)
           0.1867 ( 60)  0.1583 ( 65) -0.1563 ( 66)  0.1236 ( 73) -0.1030 ( 79)
           0.1198 ( 81) -0.1100 ( 84)  0.1128 ( 85)  0.1128 ( 88) -0.1340 ( 96)
           0.1122 (105) -0.1078 (108)  0.1150 (109) -0.1396 (118) -0.1396 (121)
 CRD 34=  -0.2186 (  1) -0.1833 (  2)  0.3956 (  3) -0.2799 (  8)  0.3788 (  9)
          -0.1087 ( 10)  0.2598 ( 21) -0.2624 ( 22) -0.2118 ( 56)  0.1171 ( 57)
           0.1505 ( 58) -0.2037 ( 59) -0.1409 ( 65)  0.1422 ( 66) -0.1225 ( 69)
          -0.1175 ( 78)  0.1078 ( 81)  0.1110 ( 85) -0.1248 ( 87) -0.1142 ( 89)
           0.1094 ( 96) -0.1077 (102) -0.1303 (104)  0.1175 (109)  0.1072 (118)
           0.1071 (121)
 CRD 35=  -0.1266 (  1)  0.3431 (  2) -0.2151 (  3)  0.2810 (  8) -0.2068 ( 10)
           0.3796 ( 21) -0.3825 ( 22) -0.1841 ( 55)  0.1140 ( 56) -0.1531 ( 58)
           0.1159 ( 60) -0.2073 ( 65)  0.2086 ( 66)  0.1252 ( 78)  0.1177 ( 89)
           0.1473 ( 96)  0.1142 (102)  0.1358 (118)  0.1355 (121)
 CRD 36=  -0.3334 (  1)  0.3796 (  2) -0.3288 (  8) -0.1173 (  9)  0.4463 ( 10)
           0.1243 ( 12) -0.2039 ( 55)  0.1845 ( 57)  0.1823 ( 58) -0.2413 ( 60)
           0.1816 ( 70) -0.1754 ( 79) -0.1580 ( 84)  0.1617 ( 90)  0.1624 (107)
          -0.1568 (108)
 CRD 37=  -0.3574 ( 11) -0.3461 ( 12)  0.4341 ( 15)  0.4381 ( 16) -0.2293 ( 18)
          -0.2323 ( 19) -0.1467 ( 20)  0.1038 ( 21) -0.1136 ( 61)  0.1443 ( 62)
          -0.1266 (111)  0.1183 (112) -0.1072 (116)
 CRD 38=   0.4029 ( 11)  0.4337 ( 12)  0.1055 ( 15)  0.1055 ( 16) -0.3913 ( 18)
          -0.3926 ( 19) -0.1634 ( 20)  0.1272 ( 21)  0.1261 ( 22)  0.1597 ( 61)
          -0.1456 ( 63) -0.1169 (120)  0.1152 (122)
 CRD 39=  -0.1820 ( 11) -0.2659 ( 12)  0.1113 ( 14) -0.4085 ( 15) -0.4194 ( 16)
          -0.3372 ( 18) -0.3296 ( 19) -0.1054 ( 20) -0.1004 ( 61) -0.1871 ( 62)
          -0.1479 ( 63)  0.1187 (113) -0.1030 (114)  0.1373 (117)  0.1131 (122)
 CRD 40=  -0.1001 (  3)  0.1069 (  9) -0.1114 ( 10)  0.3243 ( 11) -0.1891 ( 12)
           0.1505 ( 15)  0.1095 ( 39) -0.1261 ( 40) -0.1276 ( 46)  0.1175 ( 47)
           0.1426 ( 53) -0.1504 ( 54) -0.1342 ( 67) -0.1069 ( 82)  0.1287 ( 91)
           0.1363 ( 92)  0.1046 ( 94)  0.1018 ( 95)  0.1333 (100)  0.1170 (101)
          -0.1221 (106)  0.1247 (110)  0.1048 (111)  0.1117 (112)  0.2414 (114)
           0.2338 (115)  0.2251 (116)  0.2176 (117)  0.1388 (118)  0.1667 (119)
           0.1695 (120)  0.1299 (121)  0.1578 (122)  0.1606 (123)
 CRD 41=  -0.1123 (  1) -0.1246 (  2) -0.1136 (  4) -0.4312 (  7) -0.1033 (  8)
           0.2698 ( 11) -0.1508 ( 12)  0.1260 ( 16)  0.1287 ( 24)  0.4987 ( 36)
          -0.1045 ( 45)  0.1193 ( 59)  0.1508 ( 77)  0.1048 ( 84) -0.1020 ( 87)
          -0.1599 ( 88)  0.1269 ( 89) -0.1083 ( 90)
 CRD 42=   0.1881 (  7)  0.2730 ( 11) -0.2771 ( 12) -0.2883 ( 15)  0.2897 ( 16)
          -0.1575 ( 36)  0.1667 ( 74)  0.1549 ( 75) -0.1182 ( 77)  0.1671 ( 98)
           0.1546 ( 99)  0.2535 (110)  0.2653 (111)  0.2411 (112)  0.2529 (113)
          -0.1131 (119) -0.1122 (120) -0.1031 (121) -0.1163 (122) -0.1153 (123)
 CRD 43=   0.2139 ( 15) -0.2144 ( 16) -0.3668 ( 18)  0.3667 ( 19)  0.1140 ( 91)
           0.1149 ( 92) -0.1507 ( 94) -0.1504 ( 95) -0.1647 ( 96)  0.1064 (100)
           0.1081 (101)  0.1474 (114)  0.1465 (115)  0.1492 (116)  0.1483 (117)
          -0.2618 (118) -0.2475 (119) -0.2478 (120) -0.2611 (121) -0.2469 (122)
          -0.2471 (123)
 CRD 44=  -0.1719 (  1) -0.1999 (  3) -0.1241 (  4)  0.2059 (  9) -0.2277 ( 23)
           0.1828 ( 27) -0.1205 ( 31) -0.1789 ( 34) -0.1321 ( 37) -0.1628 ( 44)
          -0.1132 ( 45)  0.1863 ( 55) -0.1393 ( 58) -0.1193 ( 60)  0.1388 ( 68)
           0.2574 ( 71)  0.1403 ( 77)  0.1996 ( 80)  0.3975 ( 86) -0.1790 (106)
           0.1227 (112)
 CRD 45=   0.1254 (  1) -0.2326 (  5) -0.1310 (  7)  0.2144 (  8)  0.7291 ( 23)
           0.1178 ( 26)  0.1583 ( 35) -0.1210 ( 59) -0.1629 ( 60)  0.1395 ( 70)
          -0.1339 ( 79)  0.1482 ( 80)  0.1523 ( 86)  0.1051 (111)
 CRD 46=   0.1092 (  5)  0.1129 ( 13)  0.1396 ( 17) -0.2876 ( 20) -0.1747 ( 21)
          -0.1713 ( 22) -0.1338 ( 23) -0.1371 ( 39) -0.1428 ( 40) -0.1606 ( 46)
          -0.1638 ( 47)  0.1174 ( 48)  0.1105 ( 49) -0.1991 ( 50) -0.1996 ( 51)
          -0.2424 ( 52)  0.2025 ( 53)  0.2024 ( 54)  0.1501 ( 64)  0.2440 ( 65)
           0.2470 ( 66)  0.1369 ( 91) -0.1430 ( 92)  0.1230 (111) -0.1065 (112)
           0.2195 (115) -0.2230 (116)  0.1122 (120) -0.1149 (122)
 CRD 47=   0.1375 (  1)  0.2468 (  2)  0.1112 (  3) -0.2474 (  4) -0.2411 (  6)
          -0.2691 (  7)  0.1396 (  8)  0.2526 ( 10)  0.1004 ( 12) -0.1953 ( 23)
           0.1570 ( 27)  0.1975 ( 29)  0.1647 ( 31)  0.2050 ( 32)  0.1564 ( 34)
           0.1584 ( 35)  0.1912 ( 36)  0.1109 ( 42) -0.1100 ( 55) -0.2187 ( 56)
          -0.1975 ( 57) -0.1871 ( 58) -0.2296 ( 59) -0.1053 (104) -0.1174 (107)
           0.1066 (108)
 CRD 48=  -0.1491 (  2) -0.1604 (  3)  0.2913 (  4)  0.1232 (  5) -0.2161 (  6)
           0.1011 (  8)  0.1184 (  9) -0.1155 ( 14) -0.2508 ( 17)  0.1299 ( 21)
           0.1245 ( 22) -0.1318 ( 23) -0.1100 ( 28)  0.1083 ( 29) -0.1297 ( 30)
          -0.1520 ( 31) -0.1529 ( 32) -0.1330 ( 34)  0.1215 ( 35)  0.1029 ( 44)
           0.1107 ( 48)  0.1314 ( 49)  0.1286 ( 50)  0.1264 ( 51)  0.1219 ( 52)
           0.1340 ( 55)  0.1211 ( 56)  0.1828 ( 57) -0.1088 ( 58) -0.1263 ( 60)
          -0.1457 ( 64) -0.1132 ( 65) -0.1180 ( 66) -0.1795 ( 71) -0.1480 ( 80)
          -0.1215 ( 86) -0.1176 (103)  0.1213 (111) -0.1619 (112)
 CRD 49=   0.1200 (  4) -0.1105 (  5) -0.2932 (  6)  0.1557 (  9)  0.1202 ( 10)
           0.2616 ( 17) -0.1213 ( 21) -0.1284 ( 22)  0.1141 ( 27)  0.1203 ( 28)
           0.1317 ( 29)  0.1430 ( 35)  0.1060 ( 39)  0.1048 ( 40) -0.1439 ( 48)
          -0.1118 ( 49) -0.1167 ( 50) -0.1206 ( 51) -0.1095 ( 52) -0.1661 ( 58)
          -0.1275 ( 60)  0.1484 ( 64)  0.1025 ( 65) -0.2585 ( 71) -0.2860 ( 80)
          -0.2744 ( 86)  0.1093 (104) -0.1832 (111)  0.1212 (112)
 CRD 50=  -0.2104 (  1)  0.1142 (  2) -0.1140 (  3)  0.2332 (  4)  0.1348 (  5)
           0.1276 (  6) -0.4411 (  7) -0.1771 (  8) -0.1128 (  9)  0.1748 ( 10)
          -0.1025 ( 11)  0.1901 ( 12)  0.2544 ( 23)  0.2247 ( 55)  0.2132 ( 60)
          -0.1634 ( 70) -0.1352 ( 77)  0.1497 ( 79)  0.1467 ( 88) -0.1122 ( 89)
          -0.1387 (102)  0.1630 (105) -0.1043 (109)  0.1252 (112)  0.1281 (113)
 CRD 51=  -0.1338 (  3)  0.2399 (  4)  0.1394 (  6)  0.1001 (  8) -0.1758 (  9)
          -0.1983 ( 13) -0.1294 ( 14)  0.2629 ( 17) -0.1286 ( 21) -0.1257 ( 22)
          -0.1853 ( 23) -0.1133 ( 28)  0.1834 ( 36)  0.1196 ( 42)  0.1277 ( 45)
           0.1307 ( 46)  0.1152 ( 47) -0.1060 ( 53)  0.1407 ( 57)  0.1395 ( 58)
           0.1769 ( 64)  0.1067 ( 80) -0.1044 ( 87)  0.1003 (102) -0.2343 (104)
          -0.1064 (107)  0.1705 (109)  0.1676 (110)  0.1003 (111) -0.1028 (115)
          -0.1549 (120)  0.1146 (121)  0.1764 (122)
 CRD 52=   0.1109 (  6) -0.1984 ( 15)  0.2064 ( 16)  0.2922 ( 18) -0.2830 ( 19)
          -0.2237 ( 21)  0.1947 ( 22)  0.1058 ( 39) -0.1653 ( 65)  0.1621 ( 66)
           0.1560 ( 96) -0.1325 (112) -0.1303 (113)  0.2138 (114)  0.2064 (115)
           0.2189 (116)  0.2115 (117) -0.2044 (119) -0.2235 (120) -0.1819 (122)
          -0.2010 (123)
 CRD 53=   0.1774 (  1) -0.1924 (  3) -0.2212 (  5)  0.2381 (  6) -0.1147 ( 11)
           0.2247 ( 14) -0.1158 ( 17) -0.1631 ( 20)  0.1228 ( 22) -0.1018 ( 23)
           0.1207 ( 36) -0.1147 ( 38) -0.1209 ( 44) -0.1061 ( 46) -0.1296 ( 47)
          -0.1492 ( 56)  0.1421 ( 57)  0.1136 ( 63) -0.1673 ( 64) -0.1055 ( 67)
          -0.1861 ( 71) -0.1243 ( 80)  0.1300 ( 81) -0.1167 ( 82)  0.1354 ( 85)
          -0.1368 ( 86)  0.1040 ( 94) -0.1865 (106)  0.2572 (109)  0.1033 (112)
           0.1168 (118)  0.1952 (120) -0.1914 (122)
 CRD 54=  -0.1244 (  1) -0.1306 (  2)  0.1399 (  3)  0.2511 (  4) -0.1026 (  5)
          -0.2097 (  6)  0.1981 (  8) -0.1966 (  9)  0.1977 ( 14) -0.1041 ( 19)
          -0.1494 ( 20)  0.1391 ( 22) -0.1052 ( 25)  0.1868 ( 56) -0.2186 ( 59)
          -0.1279 ( 64) -0.1433 ( 69)  0.1480 ( 71)  0.1091 ( 73)  0.1046 ( 78)
           0.1582 ( 80) -0.1263 ( 87)  0.1262 ( 88)  0.1187 ( 89)  0.1455 ( 97)
           0.1443 (103) -0.2189 (104)  0.1639 (106) -0.1363 (109) -0.1072 (111)
           0.1067 (120) -0.1877 (122)
 CRD 55=   0.2223 (  5) -0.1105 ( 12) -0.2338 ( 13)  0.1029 ( 15)  0.1756 ( 16)
           0.2635 ( 17) -0.1452 ( 18) -0.1090 ( 19) -0.1934 ( 20) -0.1303 ( 30)
           0.1088 ( 39) -0.1030 ( 53) -0.1169 ( 54)  0.1208 ( 61) -0.2373 ( 62)
           0.2165 ( 63)  0.1414 ( 65) -0.1414 ( 91)  0.1161 ( 92)  0.1094 ( 98)
          -0.1019 ( 99) -0.1198 (100)  0.1430 (101)  0.1583 (111) -0.2160 (112)
          -0.2523 (115)  0.2680 (116)  0.1736 (120) -0.1299 (122)
 CRD 56=  -0.1492 (  2)  0.1858 (  3) -0.2062 ( 11)  0.1345 ( 12)  0.2206 ( 15)
          -0.1453 ( 16) -0.2258 ( 21)  0.2007 ( 22) -0.1231 ( 28)  0.1414 ( 48)
          -0.1313 ( 55)  0.1310 ( 56) -0.1645 ( 65)  0.1703 ( 66) -0.1702 ( 76)
           0.1341 ( 78)  0.2032 ( 89)  0.2389 ( 96)  0.1285 (102) -0.1095 (106)
           0.1246 (110)  0.2018 (111)  0.1445 (113)  0.1644 (118)  0.1574 (121)
          -0.1006 (123)
 CRD 57=   0.1171 (  8) -0.1891 (  9) -0.1188 ( 12)  0.2282 ( 13) -0.1832 ( 14)
           0.1357 ( 16)  0.1617 ( 20) -0.1027 ( 22) -0.1585 ( 44) -0.1611 ( 45)
           0.1111 ( 49) -0.1484 ( 59)  0.1756 ( 61) -0.1929 ( 62)  0.1267 ( 64)
          -0.1487 ( 67)  0.1665 ( 68) -0.1028 ( 69)  0.1264 ( 73)  0.1405 ( 74)
          -0.1487 ( 75)  0.1849 ( 77) -0.1019 ( 80) -0.1303 ( 82) -0.1192 ( 86)
           0.1692 ( 88)  0.1039 ( 95)  0.1785 (103)  0.1309 (105) -0.1367 (106)
          -0.1501 (110)  0.1391 (111) -0.1695 (112)  0.1197 (113)  0.1316 (119)
          -0.1195 (123)
 CRD 58=  -0.2500 (  1)  0.2524 (  2)  0.2377 (  8) -0.2849 ( 10)  0.1221 ( 29)
           0.1172 ( 31) -0.1076 ( 32) -0.1117 ( 35)  0.1917 ( 55) -0.1979 ( 57)
           0.1887 ( 58) -0.2166 ( 60)  0.2789 ( 70)  0.2769 ( 79)  0.2300 ( 84)
          -0.1226 ( 88)  0.2223 ( 90) -0.1033 (105)  0.2416 (107)  0.2391 (108)
 CRD 59=   0.1409 (  5) -0.2475 ( 13)  0.2854 ( 14) -0.2790 ( 17)  0.1775 ( 20)
           0.1650 ( 39)  0.1581 ( 40) -0.1513 ( 46) -0.1498 ( 47) -0.1559 ( 48)
          -0.1516 ( 49)  0.1686 ( 53)  0.1618 ( 54)  0.1010 ( 61)  0.1359 ( 91)
          -0.1411 ( 92)  0.1040 ( 95)  0.1086 ( 98) -0.1022 ( 99) -0.1300 (100)
           0.1283 (101)  0.1678 (110) -0.1708 (113) -0.2647 (114)  0.2705 (117)
           0.1577 (119) -0.1547 (123)
 CRD 60=  -0.1728 (  3) -0.1032 (  6)  0.1684 ( 11) -0.1145 ( 13)  0.1286 ( 15)
          -0.1388 ( 18)  0.1458 ( 20) -0.1809 ( 21)  0.1188 ( 51) -0.1182 ( 52)
          -0.1233 ( 56) -0.1632 ( 61) -0.1058 ( 62)  0.1382 ( 63)  0.1199 ( 64)
          -0.1340 ( 65) -0.1135 ( 68)  0.1709 ( 71) -0.1186 ( 72)  0.1286 ( 74)
           0.1051 ( 80)  0.1245 ( 81)  0.1256 ( 85)  0.1118 ( 93) -0.1666 ( 94)
          -0.1555 ( 98) -0.1762 (102)  0.1482 (106) -0.1800 (110)  0.1779 (113)
          -0.1353 (115)  0.2319 (118)  0.2001 (119) -0.2274 (123)
 CRD 61=  -0.1278 (  2)  0.1168 (  3) -0.1107 (  5)  0.1079 (  9) -0.1260 ( 10)
           0.1981 ( 12)  0.1207 ( 16) -0.1543 ( 19)  0.1015 ( 21) -0.2057 ( 22)
          -0.1135 ( 24) -0.1064 ( 40) -0.1000 ( 44)  0.1340 ( 50)  0.1118 ( 53)
          -0.1248 ( 61)  0.1070 ( 63) -0.1519 ( 66)  0.1503 ( 72) -0.1496 ( 73)
          -0.1389 ( 75) -0.1588 ( 77)  0.1547 ( 78) -0.1118 ( 88)  0.1089 ( 89)
          -0.1728 ( 93)  0.1680 ( 95) -0.1082 ( 96)  0.1625 ( 99)  0.1458 (102)
          -0.1053 (103) -0.1378 (105) -0.1177 (110)  0.1451 (113)  0.1236 (116)
          -0.1121 (118)  0.1641 (119) -0.2642 (121) -0.1281 (123)
 CRD 62=  -0.1457 (  4)  0.1065 (  6) -0.1166 (  9)  0.2199 ( 14) -0.1053 ( 15)
          -0.1044 ( 16)  0.1260 ( 17) -0.1524 ( 18) -0.1094 ( 19) -0.1071 ( 38)
          -0.1547 ( 41) -0.1872 ( 43) -0.1187 ( 52)  0.1707 ( 62)  0.2128 ( 63)
          -0.1318 ( 71)  0.1128 ( 73)  0.1201 ( 75) -0.1470 ( 80)  0.1283 ( 82)
          -0.1250 ( 87) -0.1265 ( 91)  0.1218 ( 92) -0.1059 ( 94) -0.1092 ( 97)
           0.1272 (100) -0.1119 (103)  0.1508 (105)  0.1259 (110) -0.1452 (113)
           0.2231 (114) -0.2381 (117)  0.1590 (118)  0.2116 (119) -0.2101 (123)
 CRD 63=   0.1553 (  1) -0.1699 (  4)  0.2532 (  5)  0.1793 (  8) -0.1322 (  9)
          -0.1176 ( 13)  0.1623 ( 24)  0.1237 ( 25)  0.1295 ( 27) -0.1162 ( 31)
          -0.1507 ( 35) -0.1267 ( 36) -0.1344 ( 37) -0.1485 ( 42)  0.1295 ( 58)
          -0.1091 ( 59) -0.2794 ( 69)  0.1199 ( 78) -0.2097 ( 80)  0.2345 ( 81)
           0.1004 ( 82)  0.1358 ( 85) -0.2295 ( 87) -0.1183 (102) -0.1130 (103)
           0.2071 (105)  0.2629 (107) -0.2188 (108)
 CRD 64=   0.1172 (  3) -0.1151 (  4) -0.1102 (  5)  0.1898 (  6)  0.1553 ( 11)
          -0.1751 ( 13) -0.1060 ( 14)  0.1180 ( 16)  0.1397 ( 19)  0.1309 ( 26)
           0.1627 ( 33) -0.1087 ( 37) -0.1031 ( 38)  0.1262 ( 41) -0.1609 ( 61)
          -0.1225 ( 62)  0.2351 ( 67) -0.1775 ( 71)  0.1249 ( 74)  0.1116 ( 76)
          -0.1113 ( 80)  0.1874 ( 82) -0.1759 ( 85) -0.1072 ( 92) -0.1292 ( 95)
          -0.1468 ( 97)  0.1188 ( 99)  0.1751 (101)  0.1715 (102) -0.2004 (103)
          -0.2012 (110)  0.1321 (113) -0.1457 (114)  0.1108 (117)  0.1522 (121)
 CRD 65=   0.1127 (  2) -0.1201 (  5)  0.1853 (  7)  0.1169 ( 10)  0.1319 ( 15)
           0.1482 ( 18) -0.1196 ( 19)  0.1257 ( 26) -0.1145 ( 29) -0.1171 ( 38)
          -0.1084 ( 47) -0.1625 ( 68)  0.1221 ( 69) -0.1009 ( 72)  0.2092 ( 73)
          -0.1445 ( 76) -0.1922 ( 78) -0.1412 ( 81)  0.1668 ( 82)  0.1594 ( 84)
          -0.1087 ( 87) -0.2002 ( 90)  0.1454 ( 91)  0.1113 ( 92)  0.1707 ( 94)
           0.1583 ( 95) -0.1561 ( 98) -0.1951 (100) -0.1406 (101) -0.1099 (103)
           0.1194 (108)  0.1250 (113) -0.1579 (118) -0.1332 (121)
 CRD 66=  -0.1426 (  7)  0.1435 ( 11) -0.1668 ( 12)  0.1335 ( 15) -0.1396 ( 16)
           0.1272 ( 28) -0.1149 ( 30) -0.1015 ( 37) -0.1223 ( 39)  0.1247 ( 40)
           0.1148 ( 42)  0.1222 ( 44) -0.1321 ( 45)  0.1009 ( 48) -0.1011 ( 49)
           0.1640 ( 67)  0.1936 ( 68) -0.1065 ( 73)  0.2159 ( 74)  0.2232 ( 75)
           0.1202 ( 78) -0.2332 ( 83) -0.1750 ( 84) -0.1507 ( 85)  0.1362 ( 90)
           0.1952 ( 91)  0.1979 ( 92)  0.1289 ( 94)  0.1294 ( 95) -0.1830 ( 97)
          -0.1980 ( 98) -0.2140 ( 99) -0.1413 (100) -0.1471 (101)

 THE DETERMINANT OF THE G MATRIX IS 10**(   -24)


                     --------------------
                     INTERNAL COORDINATES
                     --------------------

                 - - ATOMS - -         COORDINATE      COORDINATE
 NO.   TYPE    I  J  K  L  M  N        (BOHR,RAD)       (ANG,DEG)
 ----------------------------------------------------------------
   1 STRETCH   1  9                     2.0597774       1.0899874
   2 STRETCH   1 11                     2.0598826       1.0900430
   3 STRETCH   1 10                     2.0598457       1.0900235
   4 STRETCH   1  2                     2.8912366       1.5299766
   5 STRETCH   2  4                     2.8912083       1.5299617
   6 STRETCH   2  3                     2.8912231       1.5299695
   7 STRETCH   2  8                     2.7004914       1.4290386
   8 STRETCH   3 14                     2.0598751       1.0900391
   9 STRETCH   3 13                     2.0598105       1.0900048
  10 STRETCH   3 12                     2.0597174       1.0899556
  11 STRETCH   4 16                     2.0599389       1.0900728
  12 STRETCH   4 15                     2.0598153       1.0900074
  13 STRETCH   4  5                     2.8911950       1.5299546
  14 STRETCH   5  6                     2.8913700       1.5300472
  15 STRETCH   5 18                     2.0597818       1.0899897
  16 STRETCH   5 17                     2.0598071       1.0900030
  17 STRETCH   6  7                     2.8913200       1.5300208
  18 STRETCH   6 20                     2.0598164       1.0900080
  19 STRETCH   6 19                     2.0598071       1.0900030
  20 STRETCH   7 23                     2.0598751       1.0900391
  21 STRETCH   7 22                     2.0598238       1.0900119
  22 STRETCH   7 21                     2.0596567       1.0899235
  23 STRETCH   8 24                     1.8275152       0.9670795
  24 BEND      1  2  3                  1.9106859     109.4742360
  25 BEND      1  2  8                  1.9106154     109.4701977
  26 BEND      1  2  4                  1.9106239     109.4706848
  27 BEND      2  3 13                  1.9106507     109.4722227
  28 BEND      2  4 15                  1.9106574     109.4726070
  29 BEND      2  3 12                  1.9106336     109.4712401
  30 BEND      2  4 16                  1.9106915     109.4745612
  31 BEND      2  1  9                  1.9106549     109.4724644
  32 BEND      2  1 11                  1.9106044     109.4695685
  33 BEND      2  4  5                  1.9106571     109.4725869
  34 BEND      2  1 10                  1.9107026     109.4751954
  35 BEND      2  3 14                  1.9106311     109.4710960
  36 BEND      2  8 24                  1.9896051     113.9959726
  37 BEND      3  2  4                  1.9106105     109.4699201
  38 BEND      3  2  8                  1.9106756     109.4736467
  39 BEND      4  5 18                  1.9107238     109.4764094
  40 BEND      4  5 17                  1.9106426     109.4717545
  41 BEND      4  5  6                  1.9106909     109.4745242
  42 BEND      4  2  8                  1.9105882     109.4686383
  43 BEND      5  6  7                  1.9106384     109.4715192
  44 BEND      5  4 15                  1.9105659     109.4673635
  45 BEND      5  4 16                  1.9106189     109.4703973
  46 BEND      5  6 19                  1.9105588     109.4669572
  47 BEND      5  6 20                  1.9105619     109.4671345
  48 BEND      6  5 17                  1.9105588     109.4669572
  49 BEND      6  5 18                  1.9106200     109.4704627
  50 BEND      6  7 21                  1.9106709     109.4733758
  51 BEND      6  7 22                  1.9105489     109.4663909
  52 BEND      6  7 23                  1.9105583     109.4669298
  53 BEND      7  6 19                  1.9107230     109.4763641
  54 BEND      7  6 20                  1.9106254     109.4707733
  55 BEND      9  1 10                  1.9105489     109.4663914
  56 BEND      9  1 11                  1.9105935     109.4689422
  57 BEND     10  1 11                  1.9106950     109.4747619
  58 BEND     12  3 13                  1.9106736     109.4735309
  59 BEND     12  3 14                  1.9106497     109.4721658
  60 BEND     13  3 14                  1.9105608     109.4670683
  61 BEND     15  4 16                  1.9106086     109.4698075
  62 BEND     17  5 18                  1.9105633     109.4672152
  63 BEND     19  6 20                  1.9106918     109.4745751
  64 BEND     21  7 22                  1.9106312     109.4711025
  65 BEND     21  7 23                  1.9107123     109.4757529
  66 BEND     22  7 23                  1.9106778     109.4737714
  67 TORSION   1  2  4 15              -0.9599949     -55.0036567
  68 TORSION   1  2  4 16               1.1344205      64.9975074
  69 TORSION   1  2  3 12               1.0471788      59.9989264
  70 TORSION   1  2  3 13              -3.1415511    -179.9976186
  71 TORSION   1  2  8 24               1.0472960      60.0056435
  72 TORSION   1  2  4  5              -3.0543370    -175.0006185
  73 TORSION   1  2  3 14              -1.0472354     -60.0021668
  74 TORSION   2  4  5 17              -1.0472479     -60.0028827
  75 TORSION   2  4  5 18               1.0471228      59.9957161
  76 TORSION   2  4  5  6               3.1415925     179.9999891
  77 TORSION   3  2  4 16              -3.0543249    -174.9999241
  78 TORSION   3  2  1  9               1.0472136      60.0009181
  79 TORSION   3  2  1 10               3.1415612     179.9981992
  80 TORSION   3  2  8 24              -1.0471785     -59.9989089
  81 TORSION   3  2  1 11              -1.0471285     -59.9960412
  82 TORSION   3  2  4 15               1.1344450      64.9989118
  83 TORSION   3  2  4  5              -0.9598971     -54.9980499
  84 TORSION   4  2  1 10              -1.0472303     -60.0018752
  85 TORSION   4  2  1 11               1.0472653      60.0038844
  86 TORSION   4  2  8 24              -3.1415441    -179.9972203
  87 TORSION   4  2  3 12              -1.0472232     -60.0014675
  88 TORSION   4  2  3 14               3.1415480     179.9974394
  89 TORSION   4  2  1  9              -3.1415779    -179.9991562
  90 TORSION   4  2  3 13               1.0472322      60.0019875
  91 TORSION   4  5  6 19              -1.0471964     -59.9999342
  92 TORSION   4  5  6 20               1.0471812      59.9990617
  93 TORSION   4  5  6  7               3.1415262     179.9961945
  94 TORSION   5  6  7 21              -1.0471311     -59.9961930
  95 TORSION   5  6  7 22               1.0472329      60.0020246
  96 TORSION   5  6  7 23               3.1415850     179.9995642
  97 TORSION   5  4  2  8               1.1345084      65.0025437
  98 TORSION   6  5  4 15               1.0471943      59.9998164
  99 TORSION   6  5  4 16              -1.0471205     -59.9955870
 100 TORSION   7  6  5 17               1.0471300      59.9961287
 101 TORSION   7  6  5 18              -1.0471258     -59.9958914
 102 TORSION   8  2  1  9              -1.0472547     -60.0032734
 103 TORSION   8  2  4 16              -0.9599194     -54.9993305
 104 TORSION   8  2  3 12              -3.1415751    -179.9989940
 105 TORSION   8  2  3 14               1.0471960      59.9999129
 106 TORSION   8  2  4 15              -3.0543348    -175.0004946
 107 TORSION   8  2  3 13              -1.0471197     -59.9955390
 108 TORSION   8  2  1 10               1.0470930      59.9940076
 109 TORSION   8  2  1 11               3.1415886     179.9997672
 110 TORSION  15  4  5 18              -1.0472753     -60.0044565
 111 TORSION  15  4  5 17               3.1415393     179.9969447
 112 TORSION  16  4  5 18              -3.1415902    -179.9998600
 113 TORSION  16  4  5 17               1.0472245      60.0015412
 114 TORSION  17  5  6 20              -1.0472151     -60.0010042
 115 TORSION  17  5  6 19               3.1415927     180.0000000
 116 TORSION  18  5  6 20              -3.1414709    -179.9930242
 117 TORSION  18  5  6 19               1.0473368      60.0079800
 118 TORSION  19  6  7 23               1.0472229      60.0014532
 119 TORSION  19  6  7 22              -1.0471292     -59.9960863
 120 TORSION  19  6  7 21              -3.1414932    -179.9943039
 121 TORSION  20  6  7 23              -1.0472941     -60.0055314
 122 TORSION  20  6  7 22               3.1415391     179.9969290
 123 TORSION  20  6  7 21               1.0471751      59.9987115

     ------------------------------------------
     THE POINT GROUP IS C1 , NAXIS= 1, ORDER= 1
     ------------------------------------------

     DIMENSIONS OF THE SYMMETRY SUBSPACES ARE
 A   =  248

 ..... DONE SETTING UP THE RUN .....
 STEP CPU TIME =     0.01 TOTAL CPU TIME =        0.0 (    0.0 MIN)
 TOTAL WALL CLOCK TIME=        0.0 SECONDS, CPU UTILIZATION IS  50.00%


          -----------------------------
          STATIONARY POINT LOCATION RUN
          -----------------------------

 OBTAINING INITIAL HESSIAN, HESS=GUESS   
 DIAGONAL GUESS HESSIAN IN INTERNAL COORDS IS
     1  0.3464     2  0.3463     3  0.3464     4  0.3672     5  0.3672
     6  0.3672     7  0.3608     8  0.3463     9  0.3464    10  0.3464
    11  0.3463    12  0.3464    13  0.3672    14  0.3671    15  0.3464
    16  0.3464    17  0.3672    18  0.3464    19  0.3464    20  0.3463
    21  0.3464    22  0.3464    23  0.3552    24  0.2485    25  0.2430
    26  0.2485    27  0.2241    28  0.2241    29  0.2241    30  0.2241
    31  0.2241    32  0.2241    33  0.2485    34  0.2241    35  0.2241
    36  0.2143    37  0.2485    38  0.2430    39  0.2241    40  0.2241
    41  0.2485    42  0.2430    43  0.2485    44  0.2241    45  0.2241
    46  0.2241    47  0.2241    48  0.2241    49  0.2241    50  0.2241
    51  0.2241    52  0.2241    53  0.2241    54  0.2241    55  0.2034
    56  0.2034    57  0.2034    58  0.2034    59  0.2034    60  0.2034
    61  0.2034    62  0.2034    63  0.2034    64  0.2034    65  0.2034
    66  0.2034    67  0.2500    68  0.2500    69  0.2500    70  0.2500
    71  0.2500    72  0.2500    73  0.2500    74  0.2500    75  0.2500
    76  0.2500    77  0.2500    78  0.2500    79  0.2500    80  0.2500
    81  0.2500    82  0.2500    83  0.2500    84  0.2500    85  0.2500
    86  0.2500    87  0.2500    88  0.2500    89  0.2500    90  0.2500
    91  0.2500    92  0.2500    93  0.2500    94  0.2500    95  0.2500
    96  0.2500    97  0.2500    98  0.2500    99  0.2500   100  0.2500
   101  0.2500   102  0.2500   103  0.2500   104  0.2500   105  0.2500
   106  0.2500   107  0.2500   108  0.2500   109  0.2500   110  0.2500
   111  0.2500   112  0.2500   113  0.2500   114  0.2500   115  0.2500
   116  0.2500   117  0.2500   118  0.2500   119  0.2500   120  0.2500
   121  0.2500   122  0.2500   123  0.2500
 TRANSFORMING HESSIAN TO SYMMETRY COORDINATES

          PARAMETERS CONTROLLING GEOMETRY SEARCH ARE
          METHOD =QA                  UPHESS =BFGS    
          NNEG   =         0          NFRZ   =         3
          NSTEP  =        50          IFOLOW =         1
          HESS   =GUESS               RESTAR =         F
          IHREP  =         0          HSSEND =         F
          NPRT   =         0          NPUN   =         0
          OPTTOL = 5.000E-04          RMIN   = 1.500E-03
          RMAX   = 1.000E-01          RLIM   = 7.000E-02
          DXMAX  = 3.000E-01          PURIFY =         F
          MOVIE  =         F          TRUPD  =         T
          TRMAX  = 5.000E-01          TRMIN  = 5.000E-02
          ITBMAT =         5          STPT   =         F
          STSTEP = 1.000E-02          PROJCT=          F
          FROZEN COORD(S)=   1   2   3


      ***** EQUILIBRIUM GEOMETRY LOCATED *****
            (SUBJECT TO   3 CONSTRAINT(S))
 COORDINATES OF ALL ATOMS ARE (ANGS)
   ATOM   CHARGE       X              Y              Z
 ------------------------------------------------------------
 C           6.0   2.5733903212  -0.9637116882  -0.2221038629
 C           6.0   1.4083048458   0.0022962396  -0.0323878565
 C           6.0   1.4119779107   1.0932347178  -1.1067574447
 C           6.0   0.0936564267  -0.7790186328  -0.0112955723
 C           6.0  -1.1331751275   0.1182668098  -0.0089564564
 C           6.0  -2.4556939151  -0.6215073607   0.1208789214
 C           6.0  -3.6063198055   0.3569740134  -0.0885958737
 O           8.0   1.5119411861   0.6142191826   1.2492176592
 H           1.0   3.5225395126  -0.4387239171  -0.1645534211
 H           1.0   2.5521147983  -1.7237314796   0.5532149943
 H           1.0   2.5116282547  -1.4544130165  -1.1888804000
 H           1.0   1.1673420211   0.6863503152  -2.0834018494
 H           1.0   0.6867547528   1.8621615215  -0.8674156808
 H           1.0   2.3883616451   1.5653391811  -1.1676607744
 H           1.0   0.0622706310  -1.4392925090  -0.8752486942
 H           1.0   0.0983551709  -1.4116432051   0.8742703957
 H           1.0  -1.0465775256   0.8401952090   0.7988987202
 H           1.0  -1.1596855730   0.6859512240  -0.9335664235
 H           1.0  -2.5057592003  -1.4202992599  -0.6177838806
 H           1.0  -2.5259878874  -1.0939654012   1.0990794565
 H           1.0  -3.5437432961   1.1673942870   0.6338997342
 H           1.0  -3.5356879138   0.7986064484  -1.0800419871
 H           1.0  -4.5779459740  -0.1149335344   0.0061992271
 H           1.0   2.2540935715   1.1956022851   1.2594380368


                     --------------------
                     INTERNAL COORDINATES
                     --------------------

                 - - ATOMS - -         COORDINATE      COORDINATE
 NO.   TYPE    I  J  K  L  M  N        (BOHR,RAD)       (ANG,DEG)
 ----------------------------------------------------------------
   1 STRETCH   1  9                     2.0526012       1.0861899
   2 STRETCH   1 11                     2.0521234       1.0859370
   3 STRETCH   1 10                     2.0520737       1.0859107
   4 STRETCH   1  2                     2.8824285       1.5253156
   5 STRETCH   2  4                     2.8902297       1.5294438
   6 STRETCH   2  3                     2.8934601       1.5311532
   7 STRETCH   2  8                     2.6909213       1.4239743
   8 STRETCH   3 14                     2.0526957       1.0862399
   9 STRETCH   3 13                     2.0479622       1.0837350
  10 STRETCH   3 12                     2.0521031       1.0859263
  11 STRETCH   4 16                     2.0566462       1.0883304
  12 STRETCH   4 15                     2.0556898       1.0878243
  13 STRETCH   4  5                     2.8722855       1.5199481
  14 STRETCH   5  6                     2.8741105       1.5209139
  15 STRETCH   5 18                     2.0509160       1.0852981
  16 STRETCH   5 17                     2.0539068       1.0868807
  17 STRETCH   6  7                     2.8815969       1.5248755
  18 STRETCH   6 20                     2.0571420       1.0885927
  19 STRETCH   6 19                     2.0581517       1.0891271
  20 STRETCH   7 23                     2.0490593       1.0843156
  21 STRETCH   7 22                     2.0553700       1.0876550
  22 STRETCH   7 21                     2.0551122       1.0875186
  23 STRETCH   8 24                     1.7816628       0.9428154
  24 BEND      1  2  3                  1.9413478     111.2310378
  25 BEND      1  2  8                  1.9055176     109.1781182
  26 BEND      1  2  4                  1.9121316     109.5570729
  27 BEND      2  3 13                  1.9272541     110.4235237
  28 BEND      2  4 15                  1.9006620     108.8999101
  29 BEND      2  3 12                  1.9428792     111.3187787
  30 BEND      2  4 16                  1.8801643     107.7254808
  31 BEND      2  1  9                  1.9334661     110.7794482
  32 BEND      2  1 11                  1.9320677     110.6993239
  33 BEND      2  4  5                  1.9738657     113.0941768
  34 BEND      2  1 10                  1.9171649     109.8454546
  35 BEND      2  3 14                  1.9296104     110.5585298
  36 BEND      2  8 24                  1.9092582     109.3924375
  37 BEND      3  2  4                  1.9559654     112.0685627
  38 BEND      3  2  8                  1.9019837     108.9756369
  39 BEND      4  5 18                  1.9041275     109.0984722
  40 BEND      4  5 17                  1.9059870     109.2050083
  41 BEND      4  5  6                  1.9985790     114.5101408
  42 BEND      4  2  8                  1.8438498     105.6448117
  43 BEND      5  6  7                  1.9095376     109.4084426
  44 BEND      5  4 15                  1.9137298     109.6486386
  45 BEND      5  4 16                  1.9234454     110.2053032
  46 BEND      5  6 19                  1.9164515     109.8045825
  47 BEND      5  6 20                  1.9219293     110.1184349
  48 BEND      6  5 17                  1.9059438     109.2025358
  49 BEND      6  5 18                  1.8816879     107.8127740
  50 BEND      6  7 21                  1.9214361     110.0901772
  51 BEND      6  7 22                  1.9142776     109.6800295
  52 BEND      6  7 23                  1.9658675     112.6359109
  53 BEND      7  6 19                  1.9206594     110.0456789
  54 BEND      7  6 20                  1.9317965     110.6837879
  55 BEND      9  1 10                  1.8939615     108.5159982
  56 BEND      9  1 11                  1.8915378     108.3771354
  57 BEND     10  1 11                  1.8946911     108.5578011
  58 BEND     12  3 13                  1.8899021     108.2834118
  59 BEND     12  3 14                  1.8911663     108.3558482
  60 BEND     13  3 14                  1.8812827     107.7895565
  61 BEND     15  4 16                  1.8687276     107.0702069
  62 BEND     17  5 18                  1.8626661     106.7229080
  63 BEND     19  6 20                  1.8630997     106.7477469
  64 BEND     21  7 22                  1.8747217     107.4136428
  65 BEND     21  7 23                  1.8942058     108.5300002
  66 BEND     22  7 23                  1.8908268     108.3363939
  67 TORSION   1  2  4 15              -0.8777387     -50.2907247
  68 TORSION   1  2  4 16               1.1432832      65.5053049
  69 TORSION   1  2  3 12               1.2072965      69.1729947
  70 TORSION   1  2  3 13              -2.9760928    -170.5175596
  71 TORSION   1  2  8 24               1.2052598      69.0563000
  72 TORSION   1  2  4  5              -3.0099338    -172.4565007
  73 TORSION   1  2  3 14              -0.8956768     -51.3185024
  74 TORSION   2  4  5 17              -0.9195329     -52.6853534
  75 TORSION   2  4  5 18               1.1102731      63.6139631
  76 TORSION   2  4  5  6              -3.0626746    -175.4783261
  77 TORSION   3  2  4 16              -2.9762844    -170.5285357
  78 TORSION   3  2  1  9               1.0445268      59.8469758
  79 TORSION   3  2  1 10               3.1366845     179.7187859
  80 TORSION   3  2  8 24              -0.9182935     -52.6143408
  81 TORSION   3  2  1 11              -1.0543223     -60.4082200
  82 TORSION   3  2  4 15               1.2858789      73.6754346
  83 TORSION   3  2  4  5              -0.8463161     -48.4903414
  84 TORSION   4  2  1 10              -0.9743488     -55.8260712
  85 TORSION   4  2  1 11               1.1178297      64.0469229
  86 TORSION   4  2  8 24              -3.0229819    -173.2041042
  87 TORSION   4  2  3 12              -0.9399072     -53.8527142
  88 TORSION   4  2  3 14              -3.0428805    -174.3442114
  89 TORSION   4  2  1  9              -3.0665065    -175.6978813
  90 TORSION   4  2  3 13               1.1598888      66.4567314
  91 TORSION   4  5  6 19              -0.8920338     -51.1097721
  92 TORSION   4  5  6 20               1.1546072      66.1541216
  93 TORSION   4  5  6  7              -3.0016724    -171.9831599
  94 TORSION   5  6  7 21              -1.0115742     -57.9589346
  95 TORSION   5  6  7 22               1.0476524      60.0260631
  96 TORSION   5  6  7 23              -3.1282277    -179.2342433
  97 TORSION   5  4  2  8               1.2227529      70.0585788
  98 TORSION   6  5  4 15               1.0956414      62.7756258
  99 TORSION   6  5  4 16              -0.9571348     -54.8397851
 100 TORSION   7  6  5 17               1.1383479      65.2225308
 101 TORSION   7  6  5 18              -0.8790985     -50.3686331
 102 TORSION   8  2  1  9              -1.0550299     -60.4487631
 103 TORSION   8  2  4 16              -0.9072154     -51.9796156
 104 TORSION   8  2  3 12              -2.9742453    -170.4117009
 105 TORSION   8  2  3 14               1.2059667      69.0968020
 106 TORSION   8  2  4 15              -2.9282374    -167.7756452
 107 TORSION   8  2  3 13              -0.8744493     -50.1022552
 108 TORSION   8  2  1 10               1.0371278      59.4230470
 109 TORSION   8  2  1 11               3.1293063     179.2960411
 110 TORSION  15  4  5 18              -1.0145963     -58.1320850
 111 TORSION  15  4  5 17              -3.0444023    -174.4314015
 112 TORSION  16  4  5 18              -3.0673725    -175.7474959
 113 TORSION  16  4  5 17               1.1860069      67.9531876
 114 TORSION  17  5  6 20              -0.9885578     -56.6401877
 115 TORSION  17  5  6 19              -3.0351988    -173.9040815
 116 TORSION  18  5  6 20              -3.0060042    -172.2313516
 117 TORSION  18  5  6 19               1.2305401      70.5047547
 118 TORSION  19  6  7 23               1.0478778      60.0389756
 119 TORSION  19  6  7 22              -1.0594274     -60.7007180
 120 TORSION  19  6  7 21              -3.1186541    -178.6857157
 121 TORSION  20  6  7 23              -1.0072657     -57.7120756
 122 TORSION  20  6  7 22              -3.1145709    -178.4517692
 123 TORSION  20  6  7 21               1.1093877      63.5632330

          INTERNUCLEAR DISTANCES (ANGS.)


 =====================================================
   GAMESS/COSab RESULTS
 =====================================================

   Dielectric Constant                  = INFTY
   Basic Grid Size                      =                 1082
   Number of Segments                   =                   92
   Number of Segments located on spheres=                  281
   Number of Segments of the cavity     =                  749
   Solvent Radius (rsolv)               = 1.40
   Outlying Charge Error Method         = double cavity

 =====================================================

  Total solvated Energy (a.u.)          =  -349.3584720752
  Total Energy corrected (a.u.)         =  -349.3583588019

  Outlying charge effect (a.u.)         =     0.0001132733
  Outlying charge effect (kcal/mol)     =     0.0710801208

  Dielectric Energy (a.u.)              =    -0.0093594848
  Dielectric energy corr. (a.u.)        =    -0.0092462115

  Sum of polarization charges           =     0.0283471764
  Sum of polarization charges(cor.)     =    -0.0283471764

  Total surface area of cavity (A**2)   =  176.68
  Total volume of cavity (A**3)         =  177.52

 =====================================================
 NPS=                   749
NR.  ATOM  (X, Y, Z)(a.u.)                  CHARGE(e)  AREA(A**2) SIGMA(e/A**2)
   1   1   5.342835  -5.549650  -0.810063   0.001754   0.371649   0.004720
   2   1   7.751373  -3.448819   1.394753   0.001695   0.418105   0.004053
   3   1   7.641906  -3.217239  -2.567501   0.001162   0.371649   0.003126
   4   1   3.513511  -5.347480  -0.587532   0.001082   0.278737   0.003883
   5   1   8.133525  -2.288589  -2.255342   0.001280   0.371649   0.003445
   6   1   8.176360  -2.598105   1.224147   0.000993   0.278737   0.003562
   7   1   6.938168  -0.894968   2.600233   0.000474   0.185824   0.002552
   8   1   4.292684  -5.556716  -0.487469   0.000727   0.185824   0.003914
   9   1   4.557952  -5.462915  -1.383465   0.001147   0.278737   0.004115
  10   1   6.742416  -1.701903   2.857144   0.001040   0.278737   0.003731
  11   1   7.487718  -2.460831   2.223375   0.001596   0.325193   0.004908
  12   1   8.199523  -3.511480   0.123172   0.001271   0.464561   0.002735
  13   1   8.066392  -3.546006  -1.443195   0.001058   0.464561   0.002276
  14   1   7.440607  -1.943869  -3.181099   0.001656   0.371649   0.004455
  15   1   6.666886  -0.924593  -3.617608   0.001230   0.325193   0.003782
  16   1   7.394585  -4.473378   0.497394   0.001086   0.418105   0.002597
  17   1   6.509444  -5.222836  -0.374021   0.001256   0.418105   0.003004
  18   1   6.311039  -5.136917  -1.512063   0.001358   0.464561   0.002924
  19   1   7.234360  -4.247019  -2.085900   0.000692   0.325193   0.002127
  20   1   3.617362  -5.194806  -1.582099   0.000560   0.185824   0.003011
  21   1   8.457877  -2.930623  -0.780652   0.000600   0.278737   0.002152
  22   1   7.502810  -1.495367   2.265339   0.000542   0.139368   0.003887
  23   1   7.414015  -0.844321  -3.031700   0.001255   0.325193   0.003861
  24   1   6.733552  -2.359226   2.819999   0.000628   0.185824   0.003382
  25   1   7.519111  -4.485178  -0.783553   0.000873   0.464561   0.001880
  26   3   3.200520   5.806704  -2.177289   0.001953   0.418105   0.004672
  27   3   0.661227   4.280434  -4.404903   0.001158   0.325193   0.003561
  28   3   4.363843   3.728195  -5.031872   0.001188   0.371649   0.003195
  29   3   3.647353   5.338606  -0.474356   0.001227   0.325193   0.003772
  30   3   3.929508   2.872555  -5.561736   0.001223   0.371649   0.003290
  31   3   0.584893   3.259777  -5.010123   0.000688   0.232280   0.002962
  32   3   4.892848   0.747783  -4.847901   0.000564   0.185824   0.003035
  33   3   3.003098   5.704456  -1.125501   0.000698   0.185824   0.003754
  34   3   3.938913   5.554506  -1.384829   0.001130   0.278737   0.004055
  35   3   0.164909   3.663079  -4.429541   0.000791   0.185824   0.004259
  36   3   1.633436   4.153460  -5.067290   0.001188   0.464561   0.002556
  37   3   3.199138   4.132928  -5.210731   0.001036   0.464561   0.002231
  38   3   4.979531   2.486178  -5.052137   0.001413   0.325193   0.004347
  39   3   5.408577   1.316714  -4.584164   0.000606   0.185824   0.003259
  40   3   1.509560   5.059626  -4.086293   0.000944   0.371649   0.002539
  41   3   2.492727   5.639103  -3.310362   0.001268   0.418105   0.003033
  42   3   3.642844   5.501927  -3.327656   0.001388   0.464561   0.002987
  43   3   4.007265   4.713961  -4.432209   0.000714   0.325193   0.002197
  44   3   2.787199   5.306290  -0.149810   0.000430   0.139368   0.003084
  45   3   2.451614   3.585073  -5.545369   0.000526   0.278737   0.001887
  46   3   4.726314   1.608754  -5.228281   0.001127   0.278737   0.004043
  47   3   2.687460   5.016595  -4.453099   0.000915   0.464561   0.001971
  48   3   5.723317   1.619597  -4.271281   0.000353   0.139368   0.002531
  49   4  -0.896509  -5.074538   0.371792   0.001514   0.325193   0.004655
  50   4  -0.712859  -5.115726  -0.486806   0.001158   0.278737   0.004153
  51   4   0.920349  -5.161948   0.320570   0.000672   0.139368   0.004821
  52   4   0.127008  -5.235517   0.323166   0.000985   0.185824   0.005301
  53   4   0.614080  -5.213095  -0.334995   0.000881   0.185824   0.004739
  54   5  -2.926994   3.881989  -0.548481   0.000470   0.092912   0.005054
  55   5  -2.408313  -0.840102  -3.633794   0.000138   0.092912   0.001481
  56   5  -2.591919   3.974471   0.090367   0.000715   0.139368   0.005130
  57   5  -2.227786   0.018894   3.755997   0.000309   0.139368   0.002215
  58   5  -1.562218  -0.412049   3.663415   0.000067   0.046456   0.001442
  59   5  -2.535315   3.943485  -0.556185   0.000197   0.046456   0.004236
  60   5  -2.706968  -0.580984  -3.666195   0.000074   0.046456   0.001597
  61   5  -1.668070  -0.011733   3.725387   0.000068   0.046456   0.001462
  62   6  -6.214308  -4.458513   1.239723   0.001742   0.371649   0.004687
  63   6  -4.607190   0.240571   3.732814   0.000195   0.092912   0.002100
  64   6  -5.773144  -4.777905   0.358225   0.001333   0.278737   0.004782
  65   6  -3.457834  -4.758228   0.023255   0.000099   0.046456   0.002122
  66   6  -4.848503  -1.302778  -3.543128   0.000246   0.139368   0.001763
  67   6  -3.838998  -4.737307   1.202051   0.001179   0.232280   0.005075
  68   6  -4.888041  -4.845647   1.091854   0.002083   0.371649   0.005605
  69   6  -6.936062  -4.160892   0.538797   0.001495   0.418105   0.003575
  70   6  -7.439597  -3.708377   0.057838   0.000348   0.139368   0.002498
  71   6  -7.141579  -3.533582   1.798092   0.000547   0.185824   0.002944
  72   6  -7.456417  -2.787338   2.165940   0.000142   0.092912   0.001523
  73   6  -4.938247   0.031846   3.797794   0.000105   0.046456   0.002266
  74   6  -7.145195  -3.863461  -0.655047   0.000462   0.185824   0.002487
  75   6  -4.119688  -4.914191   0.394129   0.000629   0.139368   0.004511
  76   6  -4.289378  -1.351532  -3.530513   0.000087   0.046456   0.001875
  77   6  -7.493979  -3.425704   1.264921   0.000414   0.185824   0.002228
  78   7  -9.632319   1.158115  -2.639852   0.002238   0.418105   0.005354
  79   7  -7.940419  -0.170619   3.340171   0.000924   0.325193   0.002841
  80   7  -7.656385   4.159797  -1.363029   0.001925   0.418105   0.004604
  81   7 -10.114392   2.174871   0.903590   0.001525   0.371649   0.004103
  82   7  -8.434891  -2.216355  -1.984729   0.000783   0.278737   0.002810
  83   7  -7.138553  -0.860114  -3.606069   0.000768   0.232280   0.003308
  84   7  -8.023429  -1.378471  -3.101509   0.001062   0.325193   0.003265
  85   7  -8.988783  -0.501710  -3.026634   0.001532   0.325193   0.004711
  86   7  -9.467928   2.674474   1.634346   0.001636   0.371649   0.004403
  87   7  -7.239028   4.422280  -0.410564   0.001275   0.278737   0.004575
  88   7  -7.914355   0.921022   3.440183   0.001009   0.278737   0.003618
  89   7  -8.934751   0.389600  -3.283432   0.001109   0.232280   0.004774
  90   7  -9.661559   0.048360  -2.573448   0.001274   0.278737   0.004570
  91   7  -5.353416   4.048454  -1.042123   0.000863   0.185824   0.004646
  92   7  -6.269062   4.280451  -1.159348   0.002306   0.418105   0.005516
  93   7  -8.597181   3.987914  -0.527555   0.001594   0.464561   0.003431
  94   7  -9.673497   3.116859   0.217581   0.001416   0.464561   0.003049
  95   7  -9.671711   1.593438   2.130157   0.001988   0.371649   0.005350
  96   7  -8.729310   0.497858   3.086537   0.000947   0.232280   0.004075
  97   7  -8.600414  -0.723882   2.855935   0.001116   0.325193   0.003430
  98   7  -8.863175   3.459628  -1.694682   0.001211   0.371649   0.003259
  99   7  -9.477249   2.422149  -2.202717   0.001551   0.418105   0.003710
 100   7 -10.155635   1.691220  -1.613293   0.001688   0.464561   0.003632
 101   7 -10.296037   2.141310  -0.289875   0.000972   0.325193   0.002989
 102   7  -8.012953  -0.557149  -3.533716   0.000881   0.232280   0.003791
 103   7  -8.776173  -1.507769  -2.549704   0.000831   0.232280   0.003577
 104   7  -8.947178   3.725689   0.487225   0.000858   0.278737   0.003079
 105   7  -5.589994   4.245072  -0.355227   0.000569   0.139368   0.004082
 106   7  -7.082840   0.718151   3.602269   0.000736   0.232280   0.003169
 107   7  -8.861495   1.548324   2.887486   0.001573   0.325193   0.004837
 108   7  -8.428496  -1.591307   2.391192   0.000219   0.092912   0.002354
 109   7  -9.669503   3.004097  -1.009519   0.001046   0.418105   0.002502
 110   7  -9.313006   0.499130   2.663336   0.001037   0.232280   0.004466
 111   8   1.890551   0.064121   5.263763   0.005467   0.274871   0.019888
 112   8   2.862732   3.284049   4.821585   0.001827   0.274871   0.006648
 113   8   4.926200   0.633127   4.811262   0.002418   0.240512   0.010053
 114   8   0.973763   0.226332   4.839491   0.005657   0.240512   0.023521
 115   8   0.783833   1.451817   4.846904   0.002667   0.137436   0.019404
 116   8   1.142929   0.894262   5.109345   0.004014   0.206154   0.019472
 117   8   2.186564  -0.648187   4.976577   0.005626   0.274871   0.020469
 118   8   2.922310  -1.121842   4.673777   0.005439   0.240512   0.022614
 119   8   3.668629   2.562107   5.178880   0.000910   0.274871   0.003312
 120   8   4.494050   1.505645   5.147478   0.001862   0.309230   0.006022
 121   8   5.422755   0.430185   4.217736   0.001849   0.206154   0.008969
 122   8   2.347139   4.344392   2.771372   0.002537   0.274871   0.009231
 123   8   2.497516   3.992411   3.915275   0.002198   0.309230   0.007107
 124   8   1.135468   2.955920   4.452975   0.004851   0.240512   0.020169
 125   8   1.900407   3.302535   4.610544   0.003873   0.309230   0.012525
 126   8   2.512969   2.343147   5.368679   0.005687   0.481025   0.011823
 127   8   2.060211   1.221790   5.511213   0.006323   0.377948   0.016730
 128   8   2.940347   0.301232   5.494221   0.007269   0.412307   0.017629
 129   8   4.051315   0.256985   5.245457   0.005945   0.377948   0.015731
 130   8   4.715526  -0.314659   4.582031   0.004264   0.240512   0.017730
 131   8   1.532581   4.089246   2.844226   0.004100   0.206154   0.019886
 132   8   1.314520   2.087593   5.067314   0.006478   0.343589   0.018854
 133   8   3.661109  -0.744381   4.868463   0.006747   0.343589   0.019638
 134   8   3.468854   1.441340   5.540577   0.004703   0.412307   0.011405
 135   8   1.427914   3.754714   3.699736   0.005482   0.309230   0.017727
 136   9   8.990067  -0.061213  -0.286474  -0.002058   0.372926  -0.005518
 137   9   8.203626   0.144424  -1.952377  -0.001139   0.314043  -0.003627
 138   9   8.902111  -1.221356  -1.226947  -0.001015   0.372926  -0.002721
 139   9   8.709485  -1.143575   1.001282  -0.000901   0.353299  -0.002550
 140   9   8.159413  -0.171570   1.517827  -0.001155   0.353299  -0.003270
 141   9   8.443048   0.796169  -0.760915  -0.002278   0.372926  -0.006109
 142   9   8.737530  -0.354972  -1.527600  -0.001388   0.372926  -0.003723
 143   9   9.039470  -1.383085  -0.086816  -0.001437   0.431809  -0.003327
 144   9   8.758110  -0.113478   0.741104  -0.001616   0.333671  -0.004843
 145   9   8.252421   0.902942   0.388136  -0.002623   0.392554  -0.006682
 146  10   5.322331  -5.011633   2.691070  -0.002506   0.451437  -0.005552
 147  10   3.985970  -5.566267   1.107497  -0.001060   0.353299  -0.003000
 148  10   4.564772  -3.770096   3.434064  -0.001658   0.314043  -0.005280
 149  10   6.283252  -3.881600   2.919596  -0.000952   0.353299  -0.002693
 150  10   6.129914  -5.278138   1.538488  -0.001156   0.412182  -0.002805
 151  10   4.161092  -5.345576   2.157476  -0.002275   0.412182  -0.005520
 152  10   4.304040  -4.592569   3.041225  -0.002071   0.353299  -0.005861
 153  10   5.468718  -3.466437   3.406388  -0.001448   0.392554  -0.003689
 154  10   6.438237  -4.615302   2.303008  -0.001149   0.372926  -0.003082
 155  10   5.158115  -5.685096   1.215340  -0.001340   0.451437  -0.002968
 156  11   4.904787  -4.195374  -4.225638  -0.002482   0.431809  -0.005748
 157  11   3.847902  -4.856806  -3.131438  -0.001330   0.314043  -0.004234
 158  11   5.513520  -4.905580  -3.137292  -0.001112   0.372926  -0.002982
 159  11   6.335622  -3.077828  -4.090727  -0.000906   0.333671  -0.002716
 160  11   5.587863  -2.284775  -4.507592  -0.001406   0.353299  -0.003979
 161  11   3.775700  -3.957557  -4.152204  -0.002134   0.333671  -0.006397
 162  11   4.585961  -4.967071  -3.289302  -0.001247   0.333671  -0.003738
 163  11   6.177293  -4.130351  -3.688063  -0.001560   0.431809  -0.003613
 164  11   5.348745  -3.229020  -4.579289  -0.001721   0.333671  -0.005159
 165  11   4.216870  -3.055392  -4.625855  -0.002446   0.353299  -0.006924
 166  12   1.788904   0.768097  -6.299555  -0.002416   0.412182  -0.005861
 167  12   3.501925   0.360252  -5.801996  -0.001602   0.392554  -0.004081
 168  12   2.736388   1.930265  -6.250652  -0.001140   0.372926  -0.003058
 169  12   0.652907   1.945226  -5.726743  -0.001136   0.333671  -0.003404
 170  12   2.207403  -0.324652  -5.782391  -0.003039   0.471065  -0.006452
 171  12   3.012054   1.004711  -6.239194  -0.001594   0.392554  -0.004060
 172  12   1.599612   2.094882  -6.180015  -0.001630   0.431809  -0.003775
 173  12   0.582357   0.941617  -5.746123  -0.002090   0.392554  -0.005325
 174  12   0.980680  -0.018275  -5.611510  -0.002296   0.353299  -0.006500
 175  13  -0.186566   5.446102  -1.295708  -0.003616   0.549575  -0.006580
 176  13   1.495666   5.810041  -0.774916  -0.001008   0.392554  -0.002568
 177  13   0.702297   5.666235  -2.673484  -0.000951   0.372926  -0.002549
 178  13   0.722909   5.416696  -0.188922  -0.002590   0.490692  -0.005279
 179  13  -0.210374   5.082921  -2.785757  -0.001857   0.451437  -0.004114
 180  13   1.012161   5.955547  -1.768170  -0.001362   0.392554  -0.003471
 181  14   6.416274   4.480335  -2.517389  -0.001935   0.353299  -0.005477
 182  14   5.563485   4.926014  -1.177265  -0.001374   0.333671  -0.004119
 183  14   5.313598   5.184266  -2.868876  -0.001060   0.372926  -0.002843
 184  14   6.025544   3.436701  -4.082520  -0.000739   0.314043  -0.002353
 185  14   6.581036   2.616974  -3.488513  -0.001417   0.353299  -0.004012
 186  14   6.534163   4.057354  -1.344618  -0.002630   0.412182  -0.006381
 187  14   5.633692   5.133048  -1.984472  -0.001221   0.333671  -0.003660
 188  14   5.710877   4.489657  -3.708288  -0.001474   0.431809  -0.003413
 189  14   6.632377   3.634894  -3.248999  -0.001682   0.333671  -0.005040
 190  14   6.931423   3.389641  -2.248146  -0.002277   0.353299  -0.006444
 191  15  -0.185855  -4.355671  -3.461487  -0.001177   0.255160  -0.004613
 192  15  -0.684762  -2.648701  -3.974783  -0.001277   0.294415  -0.004337
 193  15  -0.357639  -5.120341  -1.870478  -0.000637   0.333671  -0.001909
 194  15   0.323864  -3.310750  -4.029567  -0.002223   0.392554  -0.005664
 195  15  -0.866794  -3.667054  -3.695730  -0.001839   0.353299  -0.005206
 196  15  -0.673986  -4.746244  -2.795094  -0.001641   0.333671  -0.004919
 197  15   0.628532  -5.025053  -2.332357  -0.001710   0.451437  -0.003788
 198  15   0.620712  -4.310936  -3.456897  -0.001728   0.294415  -0.005868
 199  16   0.220029  -4.023276   3.700568  -0.001293   0.294415  -0.004393
 200  16   0.411664  -5.092479   1.974890  -0.000558   0.333671  -0.001672
 201  16  -0.750792  -4.866762   2.219161  -0.000898   0.333671  -0.002692
 202  16  -0.265153  -2.682996   4.066959  -0.002030   0.490692  -0.004138
[...]
 492  18  -2.155884   3.825060  -1.614955  -0.000090   0.080115  -0.001118
 493  13  -0.866139   4.705131  -1.127795  -0.001535   0.345110  -0.004449
 494   5  -1.947226   4.123435  -0.388375   0.001776   0.487567   0.003642
 495   5  -2.489574  -1.765605  -3.299098   0.000056   0.165716   0.000335
 496  15  -1.950692  -2.289977  -3.339223  -0.000151   0.165716  -0.000909
 497  19  -3.035380  -2.281950  -3.230252  -0.000081   0.165716  -0.000490
 498  15  -1.230254  -2.117417  -3.670447  -0.000447   0.174687  -0.002559
 499   5  -1.859183  -1.184387  -3.625764   0.000347   0.246235   0.001407
 500   5  -2.008859  -1.208842   3.553525   0.000188   0.166303   0.001132
 501  16  -1.507912  -1.774295   3.576260   0.000014   0.166303   0.000086
 502  20  -2.618361  -1.639874   3.671391   0.000027   0.166303   0.000163
 503  16  -0.770067  -1.678141   3.767963  -0.000078   0.090522  -0.000862
 504   5  -1.556956  -0.882552   3.683094   0.000263   0.127660   0.002060
 505   5  -3.450707   3.734433   0.837404   0.000173   0.085897   0.002017
 506  17  -3.341143   3.741037   1.123177  -0.000031   0.085897  -0.000356
 507  21  -4.398370   3.795954   1.054896   0.000177   0.085897   0.002058
 508  17  -2.354136   3.953301   1.025052  -0.000023   0.085202  -0.000271
 509   5  -2.632486   3.902366   0.649102   0.000230   0.104093   0.002214
 510  17  -2.276489   0.833459   3.804686  -0.000112   0.095637  -0.001168
 511   5  -2.131838   0.380844   3.742345  -0.000041   0.116841  -0.000355
 512  18  -2.355984   0.115996  -3.874745  -0.000269   0.105247  -0.002555
 513   5  -2.610417  -0.265137  -3.709093  -0.000114   0.128583  -0.000888
 514  18  -2.854931   3.673382  -1.676310  -0.000016   0.046795  -0.000337
 515   5  -2.821873   3.748815  -1.238582   0.000157   0.057170   0.002747
 516  19  -3.683252  -2.204280  -3.416169  -0.000057   0.057261  -0.000987
 517   5  -2.846936  -1.463880  -3.472572   0.000153   0.080773   0.001898
 518  20  -3.394720  -1.249825   3.962314  -0.000354   0.234881  -0.001507
 519   5  -2.694336  -0.375248   3.758877   0.000674   0.330768   0.002038
 520  21  -4.941496   4.093085   0.889997   0.000059   0.102245   0.000578
 521   5  -3.576889   3.916161   0.465372   0.000590   0.144885   0.004069
 522   6  -5.528945  -1.496779  -3.438796   0.000023   0.027296   0.000842
 523   7  -5.902585  -1.169863  -3.465188   0.000057   0.027296   0.002088
 524  19  -5.489237  -1.798371  -3.433202   0.000007   0.027296   0.000250
 525   6  -7.349227  -3.213481  -1.458952   0.000059   0.027296   0.002148
 526   7  -7.699028  -2.864083  -1.511272   0.000111   0.027296   0.004064
 527  19  -7.146256  -3.361100  -1.630932   0.000015   0.027296   0.000563
 528   6  -7.399693  -2.429179   2.498195   0.000041   0.026427   0.001547
 529   7  -7.748680  -2.087915   2.403857   0.000075   0.026427   0.002820
 530  20  -7.200640  -2.505594   2.714830   0.000023   0.026427   0.000887
 531   6  -5.685650  -0.151710   3.721361   0.000055   0.026427   0.002087
 532   7  -6.057316   0.159420   3.610840   0.000099   0.026427   0.003743
 533  20  -5.640572  -0.432714   3.828118   0.000013   0.026427   0.000477
 534   6  -5.493363   0.735497   3.504728   0.000037   0.027118   0.001346
 535   7  -5.866285   1.063213   3.478152   0.000021   0.027118   0.000787
 536  21  -5.905973   1.363893   3.467538  -0.000024   0.027118  -0.000878
 537   6  -5.504917  -0.788828  -3.541235   0.000032   0.027642   0.001156
 538   7  -5.878056  -0.479083  -3.650850   0.000008   0.027642   0.000272
 539  22  -5.913157  -0.199963  -3.764894  -0.000029   0.027642  -0.001053
 540   6  -7.910564  -3.013946  -0.797592   0.000090   0.023255   0.003866
 541   7  -8.310367  -2.729753  -0.878007   0.000043   0.023255   0.001840
 542  23  -8.578254  -2.642973  -0.769433  -0.000000   0.023255  -0.000013
 543   6  -7.921488  -2.453499   1.880352   0.000061   0.023255   0.002624
 544   7  -8.321442  -2.161564   1.836931   0.000036   0.023255   0.001528
 545  23  -8.588330  -2.126043   1.700581   0.000010   0.023255   0.000428
 546   7  -5.948909  -0.737309  -3.625320   0.000130   0.061393   0.002117
 547   6  -5.459615  -1.249279  -3.516454   0.000114   0.061393   0.001855
 548   7  -8.095179  -2.758049  -1.275034   0.000255   0.098638   0.002582
 549   6  -7.594513  -3.235254  -1.066241   0.000265   0.098638   0.002683
 550   7  -8.159030  -2.112601   2.090694   0.000204   0.082557   0.002477
 551   6  -7.591654  -2.518104   2.267980   0.000178   0.082557   0.002160
 552   7  -6.088655   0.642693   3.588524   0.000258   0.105960   0.002436
 553   6  -5.467301   0.279921   3.668904   0.000219   0.105960   0.002069
 554   6  -3.126954  -4.225323   2.006366   0.000148   0.087232   0.001693
 555  16  -2.135849  -4.202605   2.157622   0.000172   0.087232   0.001968
 556  20  -3.246884  -4.153706   2.279597  -0.000056   0.087232  -0.000642
 557  16  -1.549785  -4.568086   1.982356   0.000023   0.164919   0.000137
 558   6  -2.974918  -4.549072   1.567259   0.000737   0.234306   0.003146
 559   6  -4.566370   1.101152   3.342527   0.000104   0.165700   0.000625
 560  17  -3.971224   1.558464   3.319451  -0.000029   0.165700  -0.000177
 561  21  -5.024578   1.696389   3.248960  -0.000157   0.165700  -0.000949
 562  17  -3.219076   1.259793   3.633702  -0.000269   0.214385  -0.001255
 563   6  -3.912899   0.372074   3.699152   0.000604   0.302095   0.002000
 564   6  -4.399686  -0.167311  -3.495267  -0.000009   0.161903  -0.000055
 565  18  -3.874565   0.346990  -3.606367  -0.000205   0.161903  -0.001264
 566  22  -4.873769   0.394819  -3.666350  -0.000218   0.161903  -0.001346
 567  18  -3.266063   0.186059  -3.760844  -0.000079   0.058968  -0.001339
 568   6  -4.073731  -0.543162  -3.583984   0.000148   0.083256   0.001778
 569  19  -5.040901  -2.083036  -3.530189  -0.000066   0.068892  -0.000962
 570  19  -4.185145  -2.160645  -3.504264  -0.000098   0.068892  -0.001417
 571   6  -4.577363  -1.711597  -3.466206  -0.000190   0.151399  -0.001253
 572  19  -3.921571  -4.915386  -0.543113  -0.000022   0.070684  -0.000317
 573  19  -5.048467  -4.947326  -0.432192  -0.000098   0.157400  -0.000625
 574  19  -6.274959  -4.495553  -0.837614  -0.000226   0.157400  -0.001435
 575  19  -6.880615  -3.825436  -1.521236  -0.000065   0.070684  -0.000914
 576   6  -4.287084  -4.876671  -0.063126   0.000198   0.154538   0.001284
 577   6  -5.810737  -4.695777  -0.155474   0.000167   0.154538   0.001078
 578   6  -6.890912  -3.917563  -0.923831  -0.000041   0.154538  -0.000264
 579  20  -4.262426  -0.729874   4.069441  -0.000085   0.073675  -0.001153
 580  20  -5.177184  -0.653044   4.040805  -0.000073   0.073675  -0.000995
 581   6  -4.683480  -0.333170   3.856047  -0.000187   0.159606  -0.001172
 582  20  -6.939386  -2.977691   2.791391  -0.000045   0.070671  -0.000640
 583  20  -6.336426  -3.858181   2.409465  -0.000186   0.157418  -0.001184
 584  20  -5.111758  -4.439373   2.216776  -0.000065   0.157418  -0.000411
 585  20  -3.985230  -4.379649   2.326586  -0.000057   0.070671  -0.000803
 586   6  -6.944476  -3.282175   2.269231  -0.000064   0.154458  -0.000415
 587   6  -5.867385  -4.299010   1.855529   0.000207   0.154458   0.001342
 588   6  -4.344832  -4.515892   1.860205   0.000188   0.154458   0.001215
 589  21  -5.776091   1.649201   3.477499  -0.000136   0.106808  -0.001269
 590   6  -5.042670   0.801661   3.570239   0.000275   0.150602   0.001827
 591  22  -5.575770   0.219405  -3.881904  -0.000287   0.160328  -0.001790
 592   6  -5.041172  -0.736109  -3.615184   0.000370   0.225999   0.001637
 593  23  -8.789860  -2.680662  -0.404311  -0.000142   0.183605  -0.000772
 594  23  -8.809665  -2.469114   0.896720  -0.000717   0.373841  -0.001917
 595   6  -7.852646  -3.235359   0.169406   0.000900   0.505042   0.001783
 596   6  -7.845375  -2.875378   1.625052   0.000616   0.258531   0.002381
 597   7  -4.920781   3.509079  -1.940077   0.000110   0.082612   0.001330
 598  18  -4.026236   3.328641  -2.144299   0.000110   0.082612   0.001328
 599  22  -5.014205   3.447679  -2.225345  -0.000095   0.082612  -0.001145
 600  18  -3.448281   3.535218  -1.999781   0.000044   0.129892   0.000335
 601   7  -4.736736   3.764218  -1.547593   0.000632   0.183459   0.003443
 602  19  -6.959652  -3.324423  -2.074296  -0.000112   0.211320  -0.000532
 603  19  -6.148016  -2.523320  -3.076816  -0.000966   0.434204  -0.002224
 604   7  -7.478397  -2.255865  -2.455884   0.001086   0.577228   0.001881
 605   7  -6.445828  -1.314528  -3.469899   0.000781   0.297661   0.002623
 606  20  -5.898094  -0.816135   3.912634  -0.000106   0.205531  -0.000514
 607  20  -6.764413  -1.889844   3.388947  -0.000806   0.421357  -0.001912
 608   7  -6.986740  -0.429758   3.450053   0.001018   0.562278   0.001810
 609   7  -7.865812  -1.668282   2.736620   0.000810   0.289471   0.002799
 610  21  -5.557022   4.280977   0.547153  -0.000017   0.071275  -0.000240
 611  21  -6.677808   4.476446   0.424970  -0.000162   0.159175  -0.001019
 612  21  -7.968325   4.207583   0.838336  -0.000247   0.159175  -0.001552
 613  21  -8.672632   3.447456   1.751983  -0.000252   0.159175  -0.001584
 614  21  -8.482502   2.528722   2.766070  -0.000125   0.159175  -0.000783
 615  21  -7.481141   1.853449   3.436798  -0.000278   0.159175  -0.001746
 616  21  -6.362258   1.651766   3.566116  -0.000098   0.071275  -0.001374
 617   7  -5.925758   4.288291   0.065238   0.000157   0.155385   0.001013
 618   7  -7.474387   4.330659   0.151848   0.000087   0.155385   0.000557
 619   7  -8.661430   3.718347   0.941501  -0.000016   0.155385  -0.000104
 620   7  -8.967396   2.719322   2.088620   0.000104   0.155385   0.000669
 621   7  -8.258387   1.770791   3.091188   0.000059   0.155385   0.000377
 622   7  -6.844686   1.287861   3.510447  -0.000155   0.155385  -0.000998
 623  22  -6.361785   0.025851  -3.972561  -0.000067   0.069665  -0.000965
 624  22  -7.455567   0.264566  -3.944146  -0.000208   0.154798  -0.001344
 625  22  -8.444959   1.132576  -3.627978  -0.000150   0.154798  -0.000971
 626  22  -8.664543   2.358441  -3.097565  -0.000211   0.154798  -0.001365
 627  22  -8.022452   3.429305  -2.574812  -0.000223   0.154798  -0.001442
 628  22  -6.787314   3.897158  -2.278420  -0.000100   0.154798  -0.000648
 629  22  -5.678588   3.739677  -2.269585  -0.000068   0.069665  -0.000971
 630   7  -6.838061  -0.281627  -3.774824  -0.000132   0.152607  -0.000864
 631   7  -8.223837   0.320853  -3.605173   0.000113   0.152607   0.000738
 632   7  -8.941442   1.563702  -3.102673   0.000079   0.152607   0.000520
 633   7  -8.690657   2.926958  -2.477552   0.000016   0.152607   0.000103
 634   7  -7.576401   3.840285  -1.991337   0.000044   0.152607   0.000289
 635   7  -6.064837   3.921580  -1.847443   0.000003   0.152607   0.000021
 636  23  -9.011696  -1.838159   1.824041  -0.000078   0.066368  -0.001172
 637  23  -9.425905  -0.913154   2.183229  -0.000249   0.146326  -0.001702
 638  23 -10.003914   0.230750   1.953206  -0.000097   0.146326  -0.000662
 639  23 -10.470272   1.002223   1.013598  -0.000216   0.146326  -0.001478
 640  23 -10.644907   1.103380  -0.272790  -0.000215   0.146326  -0.001467
 641  23 -10.460388   0.495163  -1.409253  -0.000227   0.146326  -0.001552
 642  23  -9.987963  -0.587582  -1.956976  -0.000132   0.146326  -0.000904
 643  23  -9.410046  -1.726782  -1.704471  -0.000268   0.146326  -0.001831
 644  23  -9.000171  -2.429449  -1.001278  -0.000075   0.066368  -0.001137
 645   7  -8.798685  -1.435884   2.194793  -0.000083   0.146455  -0.000569
 646   7  -9.416067  -0.124529   2.394789   0.000052   0.146455   0.000358
 647   7 -10.033377   1.007623   1.703437   0.000180   0.146455   0.001231
 648   7 -10.412259   1.523422   0.387682   0.000002   0.146455   0.000012
 649   7 -10.406417   1.223706  -1.044430  -0.000030   0.146455  -0.000202
 650   7 -10.018107   0.224202  -2.039928   0.000029   0.146455   0.000196
 651   7  -9.397264  -1.089158  -2.214427   0.000081   0.146455   0.000550
 652   7  -8.783611  -2.209254  -1.500549  -0.000106   0.146455  -0.000727
 653   8   2.837638  -2.036930   3.689863   0.004068   0.269695   0.015085
 654  10   3.274087  -2.874501   3.275816   0.000355   0.269695   0.001315
 655  16   2.235231  -2.746124   3.423581   0.000351   0.269695   0.001303
 656  10   5.015878  -2.531200   3.553511   0.000421   0.261266   0.001610
 657  10   4.080532  -2.942246   3.536375   0.000109   0.261266   0.000418
 658   8   3.993967  -1.499272   4.114200   0.009414   0.645180   0.014591
 659   8   0.717036   3.820769   1.798293   0.005098   0.284227   0.017938
 660  13   0.462884   4.178386   0.891567   0.000890   0.284227   0.003131
 661  17  -0.273970   3.742733   1.599442   0.001678   0.284227   0.005904
 662  13   1.178462   4.793207   0.600102   0.000095   0.355329   0.000268
 663   8   1.817441   4.374734   1.844313   0.004476   0.441023   0.010148
 664  16   1.529606  -2.654548   3.876624   0.000110   0.242345   0.000456
 665  16   0.457256  -1.939284   4.054834   0.000512   0.488497   0.001048
 666   8   1.919561  -1.341350   4.400098   0.008780   0.594318   0.014772
 667   8   0.752635  -0.540349   4.471631   0.004266   0.299744   0.014231
 668  17  -1.238829   1.158867   3.982142   0.000668   0.242956   0.002751
 669  17  -1.091349   2.387108   3.760563   0.000730   0.488917   0.001493
 670  17  -0.814869   3.489746   2.743041   0.000824   0.488917   0.001685
 671   8   0.178457   1.529303   4.399422   0.010456   0.599081   0.017453
 672   8   0.426495   3.059804   3.758196   0.010905   0.599081   0.018203
 673   8   0.688635   3.830284   2.655467   0.004933   0.301842   0.016343
 674  24   3.277792   4.503922   2.491943  -0.000632   0.084478  -0.007481
 675  24   3.548230   4.138168   3.660407  -0.001875   0.183951  -0.010191
 676  24   4.286985   3.179000   4.577487  -0.002091   0.183951  -0.011370
 677  24   5.223641   1.983950   4.541083  -0.001814   0.183951  -0.009860
 678  24   5.878206   1.160349   3.858846  -0.000520   0.084478  -0.006159
 679   8   2.922210   4.276916   2.998708  -0.000510   0.180538  -0.002823
 680   8   3.471157   3.552117   4.367232  -0.001060   0.180538  -0.005872
 681   8   4.431097   2.317841   4.871822  -0.001084   0.180538  -0.006004
 682   8   5.384254   1.111256   4.292878  -0.000574   0.180538  -0.003179
 683   9   6.942669   1.866990   0.115284  -0.001840   0.295050  -0.006238
 684  14   6.464919   2.720645  -0.309533  -0.002019   0.295050  -0.006842
 685  24   6.407982   2.563805   0.720086  -0.004710   0.295050  -0.015962
 686  14   6.886364   2.892090  -0.967325  -0.000540   0.237216  -0.002277
 687  14   7.090080   2.508591  -1.963834  -0.001170   0.474319  -0.002466
 688  14   6.900937   1.945789  -2.874371  -0.000126   0.237216  -0.000532
 689   9   7.668871   1.555779  -0.745030  -0.001220   0.474319  -0.002571
 690   9   7.677965   0.965251  -1.935099  -0.000619   0.474319  -0.001304
 691  24   6.743628   1.360383   2.769056  -0.002102   0.275723  -0.007623
 692  24   6.807295   2.206198   1.855024  -0.006893   0.551570  -0.012497
 693   9   7.561123   0.715956   1.576857  -0.001672   0.551570  -0.003031
 694   9   7.522982   1.517774   0.622634  -0.000849   0.275723  -0.003078
 695  16   1.551414  -4.957847   1.820206   0.000258   0.253059   0.001020
 696  16   1.752722  -4.402803   2.819225  -0.000538   0.506101  -0.001064
 697  16   1.957772  -3.472881   3.482428  -0.000160   0.253059  -0.000631
 698  10   3.099547  -4.960099   2.024768  -0.000761   0.506101  -0.001504
 699  10   3.352999  -4.033904   3.061520  -0.000967   0.506101  -0.001911
 700  11   2.696299  -2.387084  -4.039786  -0.001078   0.329482  -0.003272
 701  12   2.126892  -1.463365  -4.403831  -0.000856   0.329482  -0.002597
 702  15   1.654825  -2.380601  -3.906266  -0.000885   0.329482  -0.002687
 703  12   3.913474  -0.336919  -5.248238   0.000128   0.267387   0.000478
 704  12   2.929357  -0.925162  -5.177093  -0.000940   0.534519  -0.001759
 705  11   4.353762  -1.865766  -4.709560  -0.000875   0.534519  -0.001638
 706  11   3.361217  -2.419890  -4.544094  -0.000409   0.267387  -0.001531
 707  15   1.428765  -3.192678  -3.933505  -0.000372   0.229214  -0.001625
 708  15   1.491589  -4.115314  -3.398363  -0.001003   0.458339  -0.002188
 709  15   1.596209  -4.756817  -2.550360  -0.000110   0.229214  -0.000480
 710  11   2.918483  -3.566353  -3.940171  -0.001157   0.458339  -0.002524
 711  11   3.022982  -4.542501  -3.076978  -0.000545   0.458339  -0.001189
 712  15  -0.166344  -1.827332  -4.172443   0.000003   0.343722   0.000010
 713  15   0.807325  -2.364242  -4.226495  -0.000277   0.343722  -0.000806
 714  12   1.000251  -0.793626  -4.889188  -0.001923   0.687915  -0.002796
 715  18  -1.601370   1.692116  -4.341194  -0.000299   0.331697  -0.000901
 716  18  -1.563031   0.587786  -4.263985   0.000052   0.331697   0.000157
 717  12  -0.160896   1.143633  -4.955699  -0.000711   0.664050  -0.001071
 718  17  -1.130468   4.081732   1.284914   0.000649   0.449556   0.001443
 719  13  -0.265192   4.731583   0.114418  -0.000754   0.449556  -0.001678
 720  18  -2.147378   3.886839  -2.111887   0.000055   0.259585   0.000210
 721  18  -1.902621   3.555241  -3.047733  -0.000265   0.259585  -0.001021
 722  13  -0.909651   4.393926  -2.526530  -0.001558   0.520054  -0.002996
 723  24   6.322771   3.301072   1.045850  -0.003100   0.236108  -0.013128
 724  24   5.598948   4.127919   1.131769  -0.006086   0.472166  -0.012889
 725  14   6.148224   3.855995  -0.372365  -0.002056   0.472166  -0.004354
 726  14   5.359053   4.622058  -0.299321  -0.000361   0.236108  -0.001530
 727  19  -3.293370  -2.818999  -3.434510   0.000168   0.238042   0.000704
 728  19  -3.261908  -3.811395  -3.047515  -0.000294   0.475894  -0.000618
 729  19  -3.166227  -4.624371  -2.033198  -0.000177   0.475894  -0.000371
 730  15  -1.737837  -3.217981  -3.466502  -0.000347   0.475894  -0.000729
 731  15  -1.675216  -4.312309  -2.761201  -0.000415   0.475894  -0.000871
 732  15  -1.584088  -4.796939  -1.816514   0.000238   0.238042   0.000998
 733  20  -3.245314  -4.176285   2.764918   0.000464   0.287241   0.001614
 734  20  -3.066691  -3.316352   3.634893  -0.000129   0.574370  -0.000225
 735  20  -2.893759  -2.149498   4.004748   0.000209   0.287241   0.000728
 736  16  -1.593124  -4.063787   2.988587  -0.000312   0.574370  -0.000544
 737  16  -1.373955  -2.800235   3.761530  -0.000287   0.574370  -0.000499
 738  21  -5.188304   2.287255   3.411389   0.000038   0.238703   0.000160
 739  21  -5.030227   3.255423   2.938965  -0.000529   0.477282  -0.001107
 740  21  -4.862541   3.978153   1.834437  -0.000254   0.477282  -0.000532
 741  17  -3.627875   2.471736   3.355044  -0.000175   0.477282  -0.000367
 742  17  -3.438219   3.511555   2.546808  -0.000104   0.477282  -0.000218
 743  17  -3.319818   3.907088   1.539307   0.000420   0.238703   0.001762
 744  22  -5.005183   3.460810  -2.688880   0.000191   0.245626   0.000780
 745  22  -4.985170   2.709707  -3.591179  -0.000796   0.491383  -0.001620
 746  22  -5.022815   1.348713  -4.027193  -0.000744   0.491383  -0.001513
 747  18  -3.574244   3.130517  -2.966475  -0.000522   0.491383  -0.001062
 748  18  -3.573891   2.000037  -3.841600  -0.000830   0.491383  -0.001688
 749  18  -3.622634   0.831827  -3.949341   0.000008   0.245626   0.000033
 =====================================================


   1 warning(s) detected.
     A line exceeding 80 characters begins with "http://cactus.nci.ni".
 There may be a problem in your input file.

              5552099  WORDS OF DYNAMIC MEMORY USED
 EXECUTION OF GAMESS TERMINATED NORMALLY Wed Nov 23 08:15:34 2016
 DDI: 263640 bytes (0.3 MB / 0 MWords) used by master data server.

 ----------------------------------------
 CPU timing information for all processes
 ========================================
 0: 3315.800 + 1.96 = 3316.896
 ----------------------------------------
 ddikick.x: exited gracefully.
