----- GAMESS execution script -----

          ******************************************************
          *         GAMESS VERSION =  5 DEC 2014 (R1)          *
          *             FROM IOWA STATE UNIVERSITY             *
          * M.W.SCHMIDT, K.K.BALDRIDGE, J.A.BOATZ, S.T.ELBERT, *
          *   M.S.GORDON, J.H.JENSEN, S.KOSEKI, N.MATSUNAGA,   *
          *          K.A.NGUYEN, S.J.SU, T.L.WINDUS,           *
          *       TOGETHER WITH M.DUPUIS, J.A.MONTGOMERY       *
          *         J.COMPUT.CHEM.  14, 1347-1363(1993)        *
          **************** 64 BIT LINUX VERSION ****************

 EXECUTION OF GAMESS BEGUN Wed Nov 23 07:14:23 2016

            ECHO OF THE FIRST FEW INPUT CARDS -
 INPUT CARD>! SELECT RESTRICTED HARTREE-FOCK AS DEFAULT                                     
 INPUT CARD>$contrl scftyp=rhf $end                                                         
 INPUT CARD>                                                                                
 INPUT CARD>! THEORY: HF OR DFT                                                             
 INPUT CARD> $contrl mplevl=0 $end                                                          
 INPUT CARD>                                                                                
 INPUT CARD> $system timlim=10000 mwords=20 $end                                            
 INPUT CARD> $SCF DIRSCF=.TRUE. $end                                                        
 INPUT CARD>                                                                                
 INPUT CARD>                                                                                
 INPUT CARD>! BASIS SETS                                                                    
 INPUT CARD>! 6-311G(d,p)                                                                   
 INPUT CARD> $BASIS GBASIS=N311 NGAUSS=6 NDFUNC=1 NPFUNC=1 $END                             
 INPUT CARD>                                                                                
 INPUT CARD>! One of the following                                                          
 INPUT CARD> $guess guess=HUCKEL $end                                                       
 INPUT CARD>                                                                                
 INPUT CARD> $statpt projct=.FALSE. $end                                                    
 INPUT CARD> $STATPT IFREEZ(1)=1,2,3 $END                                                   
 INPUT CARD>                                                                                
 INPUT CARD>! Optimize the geometry with COSMO effects                                      
 INPUT CARD> $statpt opttol=0.0005 nstep=50 $end                                            
 INPUT CARD> $contrl nzvar=1 $end                                                           
 INPUT CARD> $zmat dlc=.t. auto=.t. $end                                                    
 INPUT CARD> $contrl runtyp=OPTIMIZE maxit=200 $end                                         
 INPUT CARD>                                                                                
 INPUT CARD>! Run COSMO on perfect conductor                                                
 INPUT CARD> $COSGMS PRFCND=.TRUE. $end                                                     
 INPUT CARD>                                                                                
 INPUT CARD>! Specifying RSOLV                                                              
 INPUT CARD> $COSGMS COSRAD = 1.4 $end                                                      
 INPUT CARD>                                                                                
 INPUT CARD>! available memory                                                              
 INPUT CARD> $SYSTEM MWORDS=40 $END                                                         
 INPUT CARD>                                                                                
 INPUT CARD> $DATA                                                                          
 INPUT CARD>1-Pentene, 2-methyl-, ID: C763291                                               
 INPUT CARD>C1                                                                              
 INPUT CARD>C      6.0      2.5914000000    2.1471000000    3.1259000000                    
 INPUT CARD>C      6.0      2.1145000000    1.3661000000    1.9409000000                    
 INPUT CARD>C      6.0      3.1500000000    1.2462000000    4.2210000000                    
 INPUT CARD>C      6.0      0.7346000000    0.8193000000    2.0247000000                    
 INPUT CARD>C      6.0      2.8850000000    1.1765000000    0.8697000000                    
 INPUT CARD>C      6.0      4.5174000000    0.7020000000    3.8742000000                    
 INPUT CARD>H      1.0      3.3603000000    2.8832000000    2.8165000000                    
 INPUT CARD>H      1.0      1.7484000000    2.7439000000    3.5279000000                    
 INPUT CARD>H      1.0      2.4474000000    0.4114000000    4.4166000000                    
 INPUT CARD>H      1.0      3.2064000000    1.8168000000    5.1690000000                    
 INPUT CARD>H      1.0      0.6205000000    0.1839000000    2.9142000000                    
 INPUT CARD>H      1.0      0.0000000000    1.6325000000    2.1024000000                    
   40000000 WORDS OF MEMORY AVAILABLE

     BASIS OPTIONS
     -------------
     GBASIS=N311         IGAUSS=       6      POLAR=POPN311 
     NDFUNC=       1     NFFUNC=       0     DIFFSP=       F
     NPFUNC=       1      DIFFS=       F     BASNAM=        


     RUN TITLE
     ---------
 1-Pentene, 2-methyl-, ID: C763291                                               

 THE POINT GROUP OF THE MOLECULE IS C1      
 THE ORDER OF THE PRINCIPAL AXIS IS     0

 ATOM      ATOMIC                      COORDINATES (BOHR)
           CHARGE         X                   Y                   Z
 C           6.0     4.8970359246        4.0574306682        5.9070944650
 C           6.0     3.9958256010        2.5815546718        3.6677691696
 C           6.0     5.9526368613        2.3549765259        7.9765333942
 C           6.0     1.3881927106        1.5482525017        3.8261282073
 C           6.0     5.4518594746        2.2232626246        1.6434946915
 C           6.0     8.5366481769        1.3265876434        7.3211764216
 H           1.0     6.3500462365        5.4484579678        5.3224132444
 H           1.0     3.3039969169        5.1852191377        6.6667643121
 H           1.0     4.6249153824        0.7774332713        8.3461637974
 H           1.0     6.0592174070        3.4332541745        9.7679936305
 H           1.0     1.1725749754        0.3475206091        5.5070394734
 H           1.0     0.0000000000        3.0849776750        3.9729599166
 H           1.0     0.8859035430        0.4053462244        2.1694054339
 H           1.0     4.8337301040        1.1604807291        0.0000000000
 H           1.0     7.3593488866        2.9700823349        1.5030880506
 H           1.0     8.5117037939        0.3204975275        5.5040159118
 H           1.0     9.9454389008        2.8421478855        7.1620614935
 H           1.0     9.2105244642        0.0000000000        8.7649270763

          INTERNUCLEAR DISTANCES (ANGS.)




     $CONTRL OPTIONS
     ---------------
 SCFTYP=RHF          RUNTYP=OPTIMIZE     EXETYP=RUN     
 MPLEVL=       0     CITYP =NONE         CCTYP =NONE         VBTYP =NONE    
 DFTTYP=NONE         TDDFT =NONE    
 MULT  =       1     ICHARG=       0     NZVAR =       1     COORD =UNIQUE  
 PP    =NONE         RELWFN=NONE         LOCAL =NONE         NUMGRD=       F
 ISPHER=      -1     NOSYM =       0     MAXIT =     200     UNITS =ANGS    
 PLTORB=       F     MOLPLT=       F     AIMPAC=       F     FRIEND=        
 NPRINT=       7     IREST =       0     GEOM  =INPUT   
 NORMF =       0     NORMP =       0     ITOL  =      20     ICUT  =       9
 INTTYP=BEST         GRDTYP=BEST         QMTTOL= 1.0E-06

     $SYSTEM OPTIONS
     ---------------
  REPLICATED MEMORY=    40000000 WORDS (ON EVERY NODE).
 DISTRIBUTED MEMDDI=           0 MILLION WORDS IN AGGREGATE,
 MEMDDI DISTRIBUTED OVER   1 PROCESSORS IS           0 WORDS/PROCESSOR.
 TOTAL MEMORY REQUESTED ON EACH PROCESSOR=    40000000 WORDS.
 TIMLIM=       10000.00 MINUTES, OR       6.9 DAYS.
 PARALL= F  BALTYP=  DLB     KDIAG=    0  COREFL= F
 MXSEQ2=     300 MXSEQ3=     150  mem10=         0

     $COSGMS OPTIONS
     ---------------
     EPSI  =   INFTY     NSPA  =      92     COSRAD=    1.40
     DISEX =   10.00     OUTCHG=DBLCAV       COSBUG=       F
     COSWRT=       F     DCOSMO=       F

     SYMMETRY COORDINATES WILL NOT BE USED FOR 
     THE COSMO CALCULATION, EVEN IF SPECIFIED:
         -- SWITCHING TO C1 POINT GROUP --


     DEFINITION OF CAVITY
     ---------------------------
     ATOM         COORDINATES           RADIUS 
     1    4.8970    4.0574    5.9071    2.0000
     2    3.9958    2.5816    3.6678    2.0000
     3    5.9526    2.3550    7.9765    2.0000
     4    1.3882    1.5483    3.8261    2.0000
     5    5.4519    2.2233    1.6435    2.0000
     6    8.5366    1.3266    7.3212    2.0000
     7    6.3500    5.4485    5.3224    1.3000
     8    3.3040    5.1852    6.6668    1.3000
     9    4.6249    0.7774    8.3462    1.3000
    10    6.0592    3.4333    9.7680    1.3000
    11    1.1726    0.3475    5.5070    1.3000
    12    0.0000    3.0850    3.9730    1.3000
    13    0.8859    0.4053    2.1694    1.3000
    14    4.8337    1.1605    0.0000    1.3000
    15    7.3593    2.9701    1.5031    1.3000
    16    8.5117    0.3205    5.5040    1.3000
    17    9.9454    2.8421    7.1621    1.3000
    18    9.2105    0.0000    8.7649    1.3000

          ----------------
          PROPERTIES INPUT
          ----------------

     MOMENTS            FIELD           POTENTIAL          DENSITY
 IEMOM =       1   IEFLD =       0   IEPOT =       0   IEDEN =       0
 WHERE =COMASS     WHERE =NUCLEI     WHERE =NUCLEI     WHERE =NUCLEI  
 OUTPUT=BOTH       OUTPUT=BOTH       OUTPUT=BOTH       OUTPUT=BOTH    
 IEMINT=       0   IEFINT=       0                     IEDINT=       0
                                                       MORB  =       0
          EXTRAPOLATION IN EFFECT
          SOSCF IN EFFECT
 ORBITAL PRINTING OPTION: NPREO=     1   186     2     1

     -------------------------------
     INTEGRAL TRANSFORMATION OPTIONS
     -------------------------------
     NWORD  =            0
     CUTOFF = 1.0E-09     MPTRAN =       0
     DIRTRF =       T     AOINTS =DUP     

          ----------------------
          INTEGRAL INPUT OPTIONS
          ----------------------
 NOPK  =       1 NORDER=       0 SCHWRZ=       T


 -----------------------------------------------
  STATISTICS ON AUTOMATIC COORDINATE GENERATION 
 -----------------------------------------------
  NUMBER OF USER SPECIFIED BONDS                             0
  NUMBER OF BONDS                                           17
  NUMBER OF ANGLES                                          30
  NUMBER OF TORSIONS                                        34
  NUMBER OF EXTRA COORD.                                     0
  NUMBER OF EXTRA COORD. FOR CONSTRAINTS                     0
  NUMBER OF CONSTRAINED COORD.                               0

  TOTAL NUMBER OF PRIMITIVES                                81
 -----------------------------------------------

   --- ENCODED Z MATRIX ---
 COORD  TYPE   I   J   K   L   M   N
    1      1    1   2
    2      1    1   8
    3      1    1   7
    4      1    1   3
    5      1    2   4
    6      1    2   5
    7      1    3   6
    8      1    3  10
    9      1    3   9
   10      1    4  13
   11      1    4  12
   12      1    4  11
   13      1    5  15
   14      1    5  14
   15      1    6  16
   16      1    6  18
   17      1    6  17
   18      2    1   2   4
   19      2    1   2   5
   20      2    1   3   9
   21      2    1   3   6
   22      2    1   3  10
   23      2    2   1   8
   24      2    2   1   3
   25      2    2   4  11
   26      2    2   5  14
   27      2    2   4  12
   28      2    2   5  15
   29      2    2   4  13
   30      2    2   1   7
   31      2    3   1   8
   32      2    3   6  17
   33      2    3   6  18
   34      2    3   6  16
   35      2    3   1   7
   36      2    4   2   5
   37      2    6   3   9
   38      2    6   3  10
   39      2    7   1   8
   40      2    9   3  10
   41      2   11   4  12
   42      2   11   4  13
   43      2   12   4  13
   44      2   14   5  15
   45      2   16   6  17
   46      2   16   6  18
   47      2   17   6  18
   48      3    1   2   4  11
   49      3    1   2   5  14
   50      3    1   2   4  12
   51      3    1   3   6  17
   52      3    1   2   5  15
   53      3    1   3   6  18
   54      3    1   3   6  16
   55      3    1   2   4  13
   56      3    2   1   3   6
   57      3    2   1   3   9
   58      3    2   1   3  10
   59      3    3   1   2   4
   60      3    3   1   2   5
   61      3    4   2   1   7
   62      3    4   2   1   8
   63      3    4   2   5  15
   64      3    4   2   5  14
   65      3    5   2   1   8
   66      3    5   2   4  13
   67      3    5   2   4  12
   68      3    5   2   4  11
   69      3    5   2   1   7
   70      3    6   3   1   7
   71      3    6   3   1   8
   72      3    7   1   3   9
   73      3    7   1   3  10
   74      3    8   1   3   9
   75      3    8   1   3  10
   76      3    9   3   6  16
   77      3    9   3   6  18
   78      3    9   3   6  17
   79      3   10   3   6  16
   80      3   10   3   6  18
   81      3   10   3   6  17

          INDEP./SYM. INTERNAL COORDINATES
          --------------------------------
 CRD  1=  -0.1532 (  1) -0.1926 (  4) -0.2162 ( 19)  0.1077 ( 20) -0.4368 ( 21)
           0.1517 ( 22)  0.2187 ( 23) -0.5566 ( 24)  0.1374 ( 30)  0.2022 ( 31)
           0.1125 ( 35)  0.1530 ( 36)  0.1740 ( 38) -0.1402 ( 56) -0.1036 ( 58)
           0.1327 ( 60)
 CRD  2=  -0.1301 (  1) -0.1264 (  5) -0.5270 ( 18)  0.3669 ( 19) -0.1506 ( 20)
           0.2468 ( 21) -0.3560 ( 24) -0.1527 ( 25)  0.1425 ( 30)  0.2196 ( 35)
           0.1602 ( 36)  0.1366 ( 58) -0.2289 ( 59) -0.1833 ( 60)
 CRD  3=  -0.3227 ( 18)  0.4021 ( 19)  0.1142 ( 20) -0.3971 ( 21)  0.1581 ( 22)
          -0.1797 ( 23)  0.1233 ( 24) -0.1212 ( 27)  0.1080 ( 28)  0.1223 ( 30)
           0.1080 ( 31) -0.1482 ( 32) -0.2111 ( 35)  0.2012 ( 37)  0.2092 ( 56)
           0.1440 ( 57)  0.2234 ( 59)  0.1897 ( 60)  0.1263 ( 61)  0.1303 ( 62)
           0.1185 ( 70)  0.1381 ( 71)
 CRD  4=  -0.2231 (  1)  0.1443 (  5) -0.2923 ( 18) -0.3446 ( 19) -0.1340 ( 23)
           0.1952 ( 24)  0.2447 ( 26) -0.2150 ( 28)  0.2156 ( 29)  0.6368 ( 36)
 CRD  5=   0.2069 (  5) -0.1639 (  6)  0.2845 (  7)  0.1577 ( 18) -0.2110 ( 20)
           0.3065 ( 21) -0.2943 ( 24)  0.1345 ( 25)  0.2337 ( 30)  0.2377 ( 31)
           0.2285 ( 34) -0.2203 ( 38)  0.1114 ( 51)  0.2019 ( 56)  0.1122 ( 57)
           0.1344 ( 58)  0.1845 ( 59)  0.2042 ( 60)  0.1143 ( 62)  0.1341 ( 65)
           0.1164 ( 69)  0.1341 ( 70)  0.1026 ( 71)
 CRD  6=  -0.4693 (  1) -0.4928 (  5) -0.4270 (  6)  0.1041 (  7) -0.1444 ( 22)
          -0.1159 ( 26) -0.1717 ( 27) -0.1786 ( 29)  0.1166 ( 41)  0.1330 ( 42)
           0.1571 ( 43)  0.1844 ( 44)
 CRD  7=   0.1541 (  2)  0.4246 (  4) -0.1008 (  5)  0.2112 (  6)  0.4081 (  7)
          -0.1242 ( 18)  0.1099 ( 19)  0.1073 ( 20)  0.1216 ( 31)  0.3070 ( 32)
           0.1924 ( 33) -0.1732 ( 34) -0.1655 ( 37)  0.1386 ( 38) -0.2069 ( 47)
          -0.2002 ( 56)  0.1302 ( 59)  0.1348 ( 60)  0.1040 ( 69) -0.1329 ( 70)
          -0.1501 ( 71)
 CRD  8=   0.3484 (  4) -0.1668 (  6)  0.1281 (  7) -0.1163 ( 21)  0.1210 ( 22)
          -0.4082 ( 25)  0.3311 ( 27) -0.1019 ( 28) -0.3155 ( 32)  0.3558 ( 33)
           0.1464 ( 37)  0.1284 ( 42) -0.1047 ( 43) -0.1654 ( 46)  0.1177 ( 55)
          -0.1262 ( 59) -0.1505 ( 62)  0.1080 ( 70)
 CRD  9=  -0.3708 (  4)  0.1224 (  5)  0.1572 (  6)  0.3276 (  7) -0.2335 ( 22)
          -0.1413 ( 25)  0.4294 ( 27)  0.1527 ( 28) -0.1774 ( 29)  0.1765 ( 34)
          -0.1557 ( 35)  0.2030 ( 38) -0.1213 ( 41) -0.1407 ( 45) -0.1057 ( 46)
          -0.1109 ( 51) -0.1102 ( 53) -0.1062 ( 54) -0.1008 ( 61)  0.1223 ( 63)
          -0.1058 ( 68) -0.1088 ( 72)
 CRD 10=   0.1015 (  1) -0.2705 (  7) -0.1325 ( 12)  0.1304 ( 20) -0.4653 ( 25)
           0.2593 ( 27)  0.1498 ( 29)  0.2099 ( 32) -0.3740 ( 33) -0.1497 ( 35)
          -0.1827 ( 37)  0.1269 ( 42) -0.1522 ( 43)  0.1958 ( 46)  0.1030 ( 55)
           0.1276 ( 59)  0.1900 ( 60)  0.1447 ( 63)  0.1017 ( 65)
 CRD 11=   0.2021 (  1) -0.2781 (  4) -0.2622 (  6)  0.2385 (  7)  0.1358 ( 10)
          -0.1785 ( 20) -0.2157 ( 25) -0.2289 ( 27) -0.1377 ( 28)  0.4058 ( 29)
           0.2605 ( 32)  0.1191 ( 33) -0.1697 ( 34)  0.1656 ( 37)  0.1792 ( 41)
           0.1275 ( 44) -0.1711 ( 47)  0.1066 ( 53)  0.1082 ( 58)
 CRD 12=   0.2691 (  1)  0.1394 (  2) -0.1697 (  5)  0.1145 (  6)  0.1330 ( 15)
           0.2546 ( 23) -0.1238 ( 25)  0.1526 ( 26) -0.2243 ( 27)  0.1879 ( 29)
          -0.1377 ( 31) -0.3003 ( 32) -0.1012 ( 33)  0.4827 ( 34)  0.1536 ( 41)
          -0.1697 ( 46)  0.1666 ( 47) -0.1349 ( 53) -0.1443 ( 57) -0.1286 ( 58)
 CRD 13=   0.1294 (  1) -0.2676 (  5)  0.1435 (  6) -0.1112 ( 10) -0.2074 ( 13)
           0.2567 ( 14) -0.1625 ( 20)  0.1340 ( 22)  0.4459 ( 26)  0.1089 ( 27)
          -0.3731 ( 28) -0.4018 ( 29)  0.1488 ( 32)  0.1463 ( 37)  0.1644 ( 42)
           0.1418 ( 43)  0.1100 ( 51)  0.1074 ( 53)  0.1047 ( 54)
 CRD 14=  -0.1047 (  1)  0.1335 (  4)  0.1717 (  7)  0.1788 (  8)  0.1167 (  9)
           0.1068 ( 13) -0.1507 ( 16) -0.2157 ( 21)  0.2771 ( 22) -0.1500 ( 26)
           0.1691 ( 28) -0.2043 ( 30)  0.2419 ( 32) -0.3901 ( 33)  0.3227 ( 34)
           0.1407 ( 35)  0.2010 ( 37) -0.1222 ( 40) -0.2737 ( 45)  0.1366 ( 51)
           0.1076 ( 53)  0.1015 ( 54) -0.1090 ( 65)
 CRD 15=   0.1960 (  3)  0.1339 (  4) -0.1468 (  6)  0.1222 (  9) -0.1381 ( 13)
           0.2325 ( 20) -0.1593 ( 21) -0.1868 ( 23)  0.1390 ( 25)  0.1340 ( 26)
          -0.2182 ( 28)  0.2599 ( 30)  0.1684 ( 31) -0.1667 ( 33)  0.1439 ( 34)
          -0.1680 ( 35)  0.1837 ( 38) -0.1171 ( 45) -0.1645 ( 52)  0.1439 ( 57)
           0.1553 ( 58) -0.1283 ( 59) -0.1384 ( 60) -0.1848 ( 61) -0.1861 ( 62)
          -0.1752 ( 63) -0.1963 ( 65) -0.1950 ( 69) -0.1053 ( 70)
 CRD 16=  -0.1145 (  2) -0.1485 ( 31)  0.1019 ( 37)  0.3456 ( 48)  0.2582 ( 49)
           0.3456 ( 50)  0.3467 ( 55)  0.2561 ( 64)  0.3487 ( 66)  0.3476 ( 67)
           0.3476 ( 68)
 CRD 17=  -0.1061 (  2) -0.1756 (  8)  0.2550 (  9)  0.1115 ( 11)  0.1031 ( 17)
           0.1629 ( 23) -0.1985 ( 31)  0.1285 ( 32) -0.4137 ( 49) -0.3746 ( 52)
          -0.1114 ( 53)  0.1070 ( 62) -0.3530 ( 63) -0.3920 ( 64)  0.1275 ( 65)
           0.1199 ( 70)  0.1633 ( 71)
 CRD 18=  -0.3780 (  3) -0.1002 (  4) -0.2767 (  9) -0.1635 ( 20)  0.1219 ( 22)
          -0.1532 ( 23)  0.1247 ( 30)  0.2154 ( 31) -0.3252 ( 35) -0.1226 ( 38)
          -0.1336 ( 49) -0.2574 ( 52)  0.1065 ( 53) -0.1171 ( 58) -0.2109 ( 61)
          -0.1334 ( 62) -0.2609 ( 63) -0.1372 ( 64) -0.1367 ( 65) -0.2142 ( 69)
          -0.1204 ( 75)
 CRD 19=   0.3276 (  2) -0.4068 (  8)  0.3306 (  9)  0.1393 ( 12) -0.1271 ( 15)
           0.1178 ( 17) -0.1041 ( 27)  0.1608 ( 31) -0.1108 ( 35)  0.1341 ( 37)
          -0.2038 ( 38)  0.1319 ( 49) -0.1427 ( 51) -0.1799 ( 53) -0.1443 ( 54)
          -0.1043 ( 57) -0.1373 ( 58) -0.1457 ( 61) -0.1772 ( 62)  0.1042 ( 63)
           0.1425 ( 64) -0.1672 ( 65) -0.1357 ( 69)  0.1233 ( 70)  0.1775 ( 71)
          -0.1033 ( 73)
 CRD 20=   0.1124 (  2) -0.1104 (  3) -0.1197 (  5) -0.4713 ( 10) -0.4706 ( 11)
          -0.4540 ( 12)  0.1287 ( 14)  0.1916 ( 25)  0.1862 ( 27)  0.1947 ( 29)
          -0.1950 ( 41) -0.2130 ( 42) -0.2017 ( 43)
 CRD 21=   0.1740 (  7)  0.5012 ( 15)  0.4818 ( 16)  0.5031 ( 17) -0.1769 ( 32)
          -0.1942 ( 33) -0.1760 ( 34)  0.1862 ( 45)  0.1989 ( 46)  0.2005 ( 47)
 CRD 22=   0.1067 ( 12)  0.5495 ( 13)  0.5137 ( 14) -0.2647 ( 26) -0.2331 ( 28)
           0.4978 ( 44)
 CRD 23=  -0.5729 ( 10)  0.2816 ( 11)  0.3210 ( 12)  0.4137 ( 41) -0.1888 ( 42)
          -0.2227 ( 43) -0.2236 ( 48)  0.2345 ( 50)  0.2363 ( 67) -0.2218 ( 68)
 CRD 24=  -0.5208 ( 11)  0.4943 ( 12)  0.3633 ( 42) -0.3467 ( 43)  0.1305 ( 48)
           0.1105 ( 50) -0.2819 ( 55) -0.2636 ( 66)  0.1288 ( 67)  0.1488 ( 68)
 CRD 25=   0.1652 (  8)  0.1643 (  9)  0.2772 ( 15) -0.6306 ( 16)  0.3152 ( 17)
           0.3295 ( 45) -0.1703 ( 46) -0.1494 ( 47)  0.1664 ( 51) -0.1784 ( 54)
          -0.1934 ( 76)  0.1514 ( 78) -0.1655 ( 79)  0.1793 ( 81)
 CRD 26=  -0.2082 (  2) -0.3066 (  3) -0.5056 ( 15)  0.4793 ( 17) -0.1128 ( 39)
          -0.2504 ( 46)  0.2636 ( 47)  0.1980 ( 53)  0.2245 ( 77)  0.2191 ( 80)
 CRD 27=  -0.4963 (  2) -0.5485 (  3)  0.1360 (  9)  0.2204 ( 15) -0.2540 ( 17)
          -0.2449 ( 39)  0.1403 ( 46) -0.1278 ( 47) -0.1315 ( 53)  0.1039 ( 61)
          -0.1371 ( 62) -0.1335 ( 65)  0.1075 ( 69)  0.1326 ( 71)  0.1144 ( 74)
 CRD 28=  -0.1221 (  2)  0.1053 (  3)  0.5548 (  8)  0.5139 (  9) -0.1705 ( 15)
           0.1423 ( 16) -0.1356 ( 20) -0.1340 ( 38)  0.2162 ( 40) -0.1434 ( 58)
          -0.2026 ( 73) -0.1856 ( 75) -0.1422 ( 76) -0.1475 ( 77) -0.2304 ( 78)
 CRD 29=  -0.4346 (  2)  0.2565 (  3) -0.2512 (  8) -0.2295 (  9) -0.1018 ( 20)
           0.1473 ( 22)  0.1071 ( 30)  0.1499 ( 37) -0.1305 ( 54) -0.1335 ( 57)
           0.1059 ( 61)  0.1096 ( 69) -0.1706 ( 70) -0.1243 ( 71) -0.2845 ( 72)
          -0.1939 ( 73) -0.2382 ( 74) -0.1476 ( 75) -0.1586 ( 76) -0.1218 ( 78)
          -0.2458 ( 79) -0.1854 ( 80) -0.2091 ( 81)
 CRD 30=   0.1828 (  2) -0.2120 (  3) -0.1469 (  6)  0.3172 (  8) -0.3146 (  9)
           0.1265 ( 12) -0.1240 ( 13)  0.1531 ( 23)  0.1021 ( 44) -0.1724 ( 51)
          -0.1888 ( 53) -0.1697 ( 54)  0.1580 ( 71)  0.1717 ( 74)  0.1823 ( 75)
          -0.2129 ( 76) -0.2320 ( 77) -0.2156 ( 78) -0.2428 ( 79) -0.2619 ( 80)
          -0.2455 ( 81)
 CRD 31=  -0.3200 (  1)  0.1305 (  2) -0.1385 (  4)  0.1695 (  5)  0.2738 ( 10)
           0.1814 ( 11) -0.2475 ( 13)  0.3884 ( 14)  0.1567 ( 19)  0.1317 ( 26)
           0.2072 ( 29) -0.1507 ( 30)  0.1189 ( 31)  0.1623 ( 35) -0.2262 ( 36)
          -0.2172 ( 43)  0.1374 ( 49)  0.1468 ( 61) -0.1898 ( 63) -0.1002 ( 71)
          -0.1083 ( 78)
 CRD 32=  -0.1236 (  2)  0.1958 (  3) -0.1636 (  5)  0.2313 (  6)  0.1478 (  8)
          -0.1620 (  9) -0.1577 ( 11) -0.2542 ( 12)  0.3379 ( 13)  0.1293 ( 14)
           0.2004 ( 18) -0.1571 ( 19) -0.1850 ( 25)  0.1041 ( 26) -0.1281 ( 27)
           0.1544 ( 28)  0.1127 ( 31)  0.1849 ( 41)  0.1202 ( 42) -0.2584 ( 44)
           0.1060 ( 49)  0.1522 ( 56)  0.1744 ( 57)  0.1713 ( 58) -0.1206 ( 63)
           0.1169 ( 70)  0.1143 ( 71)  0.1391 ( 72)  0.1359 ( 73)  0.1365 ( 74)
           0.1333 ( 75)
 CRD 33=  -0.3136 (  1) -0.1271 (  2)  0.1473 ( 10) -0.2321 ( 11)  0.1671 ( 12)
           0.2680 ( 14)  0.1010 ( 29) -0.1113 ( 35) -0.1110 ( 36)  0.1871 ( 39)
          -0.1969 ( 42) -0.1352 ( 44) -0.3458 ( 49)  0.1069 ( 50)  0.1483 ( 52)
           0.2203 ( 55) -0.1309 ( 59) -0.2408 ( 61)  0.3429 ( 63) -0.1512 ( 64)
           0.1341 ( 65) -0.1181 ( 68)
 CRD 34=   0.1199 (  2)  0.1658 (  4)  0.1730 (  7) -0.1897 ( 15) -0.3239 ( 16)
          -0.2249 ( 17) -0.1715 ( 20) -0.1666 ( 22) -0.2242 ( 32) -0.2548 ( 33)
          -0.2156 ( 34)  0.1894 ( 37)  0.2002 ( 38)  0.1857 ( 45)  0.2658 ( 46)
           0.2919 ( 47) -0.1176 ( 49) -0.1005 ( 57)  0.1688 ( 58) -0.1507 ( 72)
           0.1185 ( 73) -0.1651 ( 74)  0.1042 ( 75) -0.1188 ( 78)
 CRD 35=  -0.3944 (  5) -0.2261 (  6)  0.2066 ( 10)  0.1956 ( 11)  0.1819 ( 12)
           0.4982 ( 13) -0.1496 ( 14)  0.2018 ( 25)  0.2900 ( 26)  0.2000 ( 27)
           0.1845 ( 29) -0.1996 ( 41) -0.2073 ( 42) -0.2172 ( 43) -0.2328 ( 44)
 CRD 36=   0.1290 (  1)  0.2134 (  6) -0.2126 (  7) -0.1725 (  8)  0.1769 ( 13)
          -0.4246 ( 14)  0.1869 ( 15)  0.1026 ( 19) -0.1868 ( 23)  0.1193 ( 26)
          -0.2867 ( 28) -0.1345 ( 30)  0.1090 ( 31)  0.1287 ( 35) -0.1234 ( 36)
           0.1672 ( 44) -0.1364 ( 45) -0.1218 ( 46) -0.1532 ( 49)  0.1048 ( 50)
          -0.1226 ( 64) -0.1244 ( 71)  0.1423 ( 72)  0.1287 ( 73) -0.1358 ( 76)
          -0.1005 ( 77) -0.1913 ( 78)
 CRD 37=  -0.1495 (  1) -0.1589 (  2)  0.1559 (  3) -0.2063 (  5)  0.4859 (  6)
           0.2327 (  7)  0.1053 (  8) -0.1067 (  9)  0.2028 ( 10) -0.1609 ( 13)
          -0.3148 ( 14) -0.1789 ( 15) -0.1069 ( 26) -0.2168 ( 28) -0.1268 ( 42)
          -0.1120 ( 43)  0.3238 ( 44)  0.1173 ( 45)  0.1296 ( 46)  0.1255 ( 78)
 CRD 38=  -0.1966 (  3)  0.2580 (  5)  0.2125 (  7)  0.2198 (  9) -0.1538 ( 12)
           0.1852 ( 13) -0.1319 ( 14)  0.1268 ( 16) -0.2402 ( 17)  0.1158 ( 20)
           0.1973 ( 22)  0.1677 ( 26) -0.1310 ( 28) -0.1329 ( 31) -0.1052 ( 37)
           0.1342 ( 39) -0.1550 ( 40)  0.1370 ( 41)  0.2025 ( 45)  0.1222 ( 49)
          -0.1027 ( 54)  0.1575 ( 62)  0.1340 ( 65)  0.1393 ( 77)  0.1374 ( 78)
          -0.3126 ( 79) -0.1351 ( 80) -0.1370 ( 81)
 CRD 39=   0.2945 (  1) -0.1775 (  2) -0.1850 (  4) -0.2288 (  5)  0.2388 (  7)
          -0.2140 (  8)  0.1426 (  9) -0.1258 ( 10)  0.2002 ( 12) -0.1178 ( 13)
           0.1053 ( 14) -0.2204 ( 17) -0.1338 ( 26)  0.1252 ( 28)  0.1087 ( 29)
          -0.1607 ( 30) -0.1268 ( 37) -0.1816 ( 41)  0.1086 ( 45)  0.1375 ( 47)
          -0.1067 ( 50)  0.1025 ( 53)  0.1178 ( 57) -0.1144 ( 67)  0.1262 ( 70)
           0.2892 ( 72)  0.1749 ( 73)  0.1127 ( 74) -0.1618 ( 76) -0.1761 ( 79)
          -0.1079 ( 81)
 CRD 40=   0.1067 (  3) -0.2338 (  4)  0.2747 (  5) -0.1640 (  6)  0.2160 (  7)
          -0.1675 (  9) -0.2145 ( 10)  0.1201 ( 12)  0.1586 ( 13) -0.2248 ( 15)
           0.1110 ( 17)  0.1853 ( 19)  0.1240 ( 20) -0.1219 ( 25)  0.1626 ( 26)
          -0.1033 ( 28) -0.1881 ( 30)  0.1108 ( 31)  0.1333 ( 35) -0.1433 ( 36)
           0.1702 ( 43)  0.1560 ( 46)  0.1038 ( 48) -0.1748 ( 53)  0.1077 ( 55)
          -0.2114 ( 58) -0.1122 ( 62) -0.1008 ( 65) -0.1629 ( 75)  0.1367 ( 78)
           0.1364 ( 81)
 CRD 41=  -0.1015 (  2)  0.2039 (  4)  0.1069 (  5) -0.1136 (  8) -0.2804 ( 11)
           0.2032 ( 12)  0.1414 ( 15) -0.1915 ( 16) -0.1028 ( 25)  0.1337 ( 40)
          -0.1613 ( 42)  0.1746 ( 43) -0.1253 ( 45)  0.1238 ( 47) -0.1878 ( 48)
           0.1893 ( 49) -0.1380 ( 50) -0.1131 ( 51) -0.2694 ( 52)  0.1176 ( 55)
           0.1178 ( 60)  0.1453 ( 62) -0.2480 ( 63)  0.2107 ( 64)  0.1656 ( 65)
          -0.1585 ( 67) -0.2083 ( 68) -0.1994 ( 78)  0.1335 ( 79)
 CRD 42=  -0.1260 (  1) -0.1357 (  2)  0.1627 (  4)  0.1054 (  5)  0.1559 (  7)
          -0.1054 (  8) -0.1329 ( 10)  0.2786 ( 11) -0.1880 ( 12)  0.1323 ( 15)
          -0.2357 ( 16)  0.1145 ( 23) -0.1549 ( 27) -0.1039 ( 36)  0.1365 ( 40)
           0.2199 ( 42) -0.1041 ( 43) -0.1336 ( 45)  0.1411 ( 47)  0.1473 ( 48)
          -0.1337 ( 51)  0.1632 ( 52)  0.1180 ( 54) -0.2070 ( 55) -0.1143 ( 58)
          -0.1937 ( 61)  0.1565 ( 63) -0.2008 ( 66)  0.1535 ( 68) -0.2003 ( 69)
           0.1292 ( 72)  0.1246 ( 74) -0.1877 ( 78)  0.1372 ( 79) -0.1144 ( 81)
 CRD 43=  -0.1776 (  1)  0.1245 (  4)  0.2301 (  6) -0.2027 (  7) -0.3322 ( 10)
           0.1329 ( 11)  0.2206 ( 12)  0.2257 ( 18) -0.1262 ( 25)  0.2291 ( 29)
           0.1023 ( 30) -0.2104 ( 36) -0.1127 ( 40) -0.2451 ( 41)  0.1402 ( 43)
           0.1724 ( 48) -0.2708 ( 50)  0.1417 ( 58)  0.1043 ( 62)  0.1081 ( 65)
          -0.2750 ( 67)  0.1681 ( 68) -0.1031 ( 72) -0.1160 ( 74)
 CRD 44=   0.2720 (  1) -0.1062 (  2) -0.2440 (  3) -0.1791 ( 15)  0.2545 ( 17)
          -0.1206 ( 23) -0.1217 ( 24) -0.1308 ( 32)  0.2573 ( 39)  0.1846 ( 46)
          -0.1397 ( 47) -0.2350 ( 53)  0.1404 ( 62)  0.1172 ( 64)  0.1581 ( 65)
          -0.1036 ( 66) -0.2653 ( 71)  0.1141 ( 72)  0.1498 ( 73) -0.2108 ( 74)
          -0.1751 ( 75)  0.1222 ( 76) -0.2078 ( 77) -0.2425 ( 80)
 CRD 45=   0.2179 (  2) -0.2852 (  4)  0.1197 (  7)  0.1090 ( 15) -0.2400 ( 16)
           0.1056 ( 18) -0.1019 ( 19)  0.1473 ( 20)  0.1530 ( 22) -0.1067 ( 23)
           0.1625 ( 33) -0.1071 ( 34)  0.1073 ( 35) -0.1410 ( 37) -0.1345 ( 38)
          -0.1043 ( 40) -0.1577 ( 45)  0.1031 ( 47) -0.1667 ( 51)  0.1700 ( 54)
           0.1111 ( 56)  0.1374 ( 57) -0.1136 ( 60)  0.1557 ( 61)  0.1059 ( 66)
           0.1222 ( 69) -0.1169 ( 70) -0.1340 ( 73)  0.3066 ( 76)  0.1485 ( 77)
          -0.1355 ( 80) -0.3142 ( 81)
 CRD 46=  -0.1894 (  2)  0.1350 (  3) -0.1247 (  4) -0.1917 (  7)  0.2013 (  8)
           0.1218 (  9)  0.1113 ( 15) -0.1093 ( 18)  0.1020 ( 19)  0.2335 ( 21)
          -0.1464 ( 30)  0.1885 ( 31)  0.1248 ( 33) -0.2389 ( 40) -0.1441 ( 51)
          -0.1040 ( 56) -0.3309 ( 57)  0.1674 ( 59)  0.1869 ( 60)  0.1828 ( 70)
           0.2836 ( 73) -0.1501 ( 74)  0.1777 ( 75)  0.2111 ( 76)  0.2025 ( 77)
          -0.2175 ( 81)
 CRD 47=   0.1481 (  1) -0.1537 (  3)  0.1792 (  8) -0.2255 (  9)  0.1249 ( 15)
          -0.1498 ( 17)  0.1642 ( 20) -0.1367 ( 22) -0.1107 ( 23) -0.1258 ( 24)
           0.1481 ( 32) -0.1287 ( 34)  0.1437 ( 35)  0.1419 ( 37) -0.1619 ( 38)
           0.1089 ( 39) -0.1056 ( 46) -0.2523 ( 51) -0.2874 ( 54)  0.2664 ( 56)
          -0.1070 ( 59)  0.2628 ( 70) -0.2266 ( 74) -0.2811 ( 75)  0.2381 ( 77)
           0.2664 ( 80)
 CRD 48=   0.1025 (  4) -0.1404 ( 24) -0.1088 ( 25)  0.1173 ( 27) -0.2379 ( 48)
          -0.2269 ( 50)  0.3830 ( 52)  0.1927 ( 59) -0.2178 ( 60)  0.2589 ( 62)
          -0.3834 ( 64) -0.1516 ( 65)  0.3351 ( 66)  0.1846 ( 67)  0.1736 ( 68)
          -0.3243 ( 69)

 THE DETERMINANT OF THE G MATRIX IS 10**(   -17)


                     --------------------
                     INTERNAL COORDINATES
                     --------------------

                 - - ATOMS - -         COORDINATE      COORDINATE
 NO.   TYPE    I  J  K  L  M  N        (BOHR,RAD)       (ANG,DEG)
 ----------------------------------------------------------------
   1 STRETCH   1  2                     2.8293052       1.4972039
   2 STRETCH   1  8                     2.0944637       1.1083426
   3 STRETCH   1  7                     2.0947668       1.1085029
   4 STRETCH   1  3                     2.8801425       1.5241059
   5 STRETCH   2  4                     2.8093665       1.4866528
   6 STRETCH   2  5                     2.5191457       1.3330746
   7 STRETCH   3  6                     2.8573048       1.5120207
   8 STRETCH   3 10                     2.0936504       1.1079121
   9 STRETCH   3  9                     2.0947825       1.1085112
  10 STRETCH   4 13                     2.0744299       1.0977411
  11 STRETCH   4 12                     2.0760932       1.0986213
  12 STRETCH   4 11                     2.0769475       1.0990733
  13 STRETCH   5 15                     2.0532826       1.0865505
  14 STRETCH   5 14                     2.0524775       1.0861244
  15 STRETCH   6 16                     2.0772366       1.0992263
  16 STRETCH   6 18                     2.0732487       1.0971160
  17 STRETCH   6 17                     2.0753148       1.0982094
  18 BEND      1  2  4                  2.0296296     116.2892125
  19 BEND      1  2  5                  2.1247828     121.7410858
  20 BEND      1  3  9                  1.9173195     109.8543166
  21 BEND      1  3  6                  1.9599437     112.2964993
  22 BEND      1  3 10                  1.9060815     109.2104258
  23 BEND      2  1  8                  1.9025309     109.0069922
  24 BEND      2  1  3                  1.9574516     112.1537167
  25 BEND      2  4 11                  1.9333010     110.7699852
  26 BEND      2  5 14                  2.1448197     122.8891165
  27 BEND      2  4 12                  1.9309073     110.6328399
  28 BEND      2  5 15                  2.1414290     122.6948453
  29 BEND      2  4 13                  1.9631575     112.4806420
  30 BEND      2  1  7                  1.9245522     110.2687168
  31 BEND      3  1  8                  1.9139313     109.6601885
  32 BEND      3  6 17                  1.9483526     111.6323786
  33 BEND      3  6 18                  1.9439134     111.3780312
  34 BEND      3  6 16                  1.9434702     111.3526417
  35 BEND      3  1  7                  1.9164843     109.8064645
  36 BEND      4  2  5                  2.1287675     121.9693948
  37 BEND      6  3  9                  1.9205060     110.0368898
  38 BEND      6  3 10                  1.9130214     109.6080511
  39 BEND      7  1  8                  1.8454870     105.7386142
  40 BEND      9  3 10                  1.8432921     105.6128555
  41 BEND     11  4 12                  1.8768225     107.5340069
  42 BEND     11  4 13                  1.8783206     107.6198439
  43 BEND     12  4 13                  1.8779983     107.6013784
  44 BEND     14  5 15                  1.9969358     114.4159946
  45 BEND     16  6 17                  1.8700268     107.1446413
  46 BEND     16  6 18                  1.8788209     107.6485052
  47 BEND     17  6 18                  1.8755138     107.4590269
  48 TORSION   1  2  4 11              -0.9857017     -56.4765458
  49 TORSION   1  2  5 14              -3.1407192    -179.9499547
  50 TORSION   1  2  4 12               1.0938611      62.6736223
  51 TORSION   1  3  6 17               1.1159806      63.9409796
  52 TORSION   1  2  5 15               0.0022743       0.1303099
  53 TORSION   1  3  6 18              -3.0706754    -175.9367389
  54 TORSION   1  3  6 16              -0.9732645     -55.7639474
  55 TORSION   1  2  4 13              -3.0885590    -176.9613956
  56 TORSION   2  1  3  6               1.3059765      74.8269392
  57 TORSION   2  1  3  9              -0.8373785     -47.9782553
  58 TORSION   2  1  3 10              -2.8513802    -163.3720540
  59 TORSION   3  1  2  4               1.4685741      84.1431006
  60 TORSION   3  1  2  5              -1.6764714     -96.0547355
  61 TORSION   4  2  1  7              -2.6729505    -153.1487850
  62 TORSION   4  2  1  8              -0.6542964     -37.4884223
  63 TORSION   4  2  5 15               3.1402178     179.9212242
  64 TORSION   4  2  5 14              -0.0027758      -0.1590404
  65 TORSION   5  2  1  8               2.4838434     142.3137417
  66 TORSION   5  2  4 13               0.0564951       3.2369310
  67 TORSION   5  2  4 12              -2.0442701    -117.1280512
  68 TORSION   5  2  4 11               2.1593524     123.7217807
  69 TORSION   5  2  1  7               0.4651892      26.6533789
  70 TORSION   6  3  1  7              -0.8402432     -48.1423881
  71 TORSION   6  3  1  8              -2.8608799    -163.9163420
  72 TORSION   7  1  3  9              -2.9835982    -170.9475827
  73 TORSION   7  1  3 10               1.2855854      73.6586187
  74 TORSION   8  1  3  9               1.2789505      73.2784634
  75 TORSION   8  1  3 10              -0.7350513     -42.1153353
  76 TORSION   9  3  6 16               1.1682930      66.9382568
  77 TORSION   9  3  6 18              -0.9291179     -53.2345347
  78 TORSION   9  3  6 17              -3.0256472    -173.3568162
  79 TORSION  10  3  6 16              -3.0951321    -177.3380050
  80 TORSION  10  3  6 18               1.0906423      62.4892035
  81 TORSION  10  3  6 17              -1.0058870     -57.6330780

     ------------------------------------------
     THE POINT GROUP IS C1 , NAXIS= 1, ORDER= 1
     ------------------------------------------

     DIMENSIONS OF THE SYMMETRY SUBSPACES ARE
 A   =  186

 ..... DONE SETTING UP THE RUN .....
 STEP CPU TIME =     0.01 TOTAL CPU TIME =        0.0 (    0.0 MIN)
 TOTAL WALL CLOCK TIME=        0.0 SECONDS, CPU UTILIZATION IS  50.00%


          -----------------------------
          STATIONARY POINT LOCATION RUN
          -----------------------------

 OBTAINING INITIAL HESSIAN, HESS=GUESS   
 DIAGONAL GUESS HESSIAN IN INTERNAL COORDS IS
     1  0.3913     2  0.3342     3  0.3341     4  0.3714     5  0.3995
     6  0.5384     7  0.3802     8  0.3345     9  0.3341    10  0.3412
    11  0.3406    12  0.3403    13  0.3487    14  0.3490    15  0.3402
    16  0.3416    17  0.3409    18  0.2539    19  0.2655    20  0.2233
    21  0.2502    22  0.2234    23  0.2249    24  0.2512    25  0.2261
    26  0.2366    27  0.2262    28  0.2365    29  0.2262    30  0.2249
    31  0.2233    32  0.2247    33  0.2247    34  0.2246    35  0.2233
    36  0.2663    37  0.2240    38  0.2241    39  0.2016    40  0.2016
    41  0.2025    42  0.2026    43  0.2026    44  0.2038    45  0.2025
    46  0.2026    47  0.2026    48  0.2500    49  0.2500    50  0.2500
    51  0.2500    52  0.2500    53  0.2500    54  0.2500    55  0.2500
    56  0.2500    57  0.2500    58  0.2500    59  0.2500    60  0.2500
    61  0.2500    62  0.2500    63  0.2500    64  0.2500    65  0.2500
    66  0.2500    67  0.2500    68  0.2500    69  0.2500    70  0.2500
    71  0.2500    72  0.2500    73  0.2500    74  0.2500    75  0.2500
    76  0.2500    77  0.2500    78  0.2500    79  0.2500    80  0.2500
    81  0.2500
 TRANSFORMING HESSIAN TO SYMMETRY COORDINATES

          PARAMETERS CONTROLLING GEOMETRY SEARCH ARE
          METHOD =QA                  UPHESS =BFGS    
          NNEG   =         0          NFRZ   =         3
          NSTEP  =        50          IFOLOW =         1
          HESS   =GUESS               RESTAR =         F
          IHREP  =         0          HSSEND =         F
          NPRT   =         0          NPUN   =         0
          OPTTOL = 5.000E-04          RMIN   = 1.500E-03
          RMAX   = 1.000E-01          RLIM   = 7.000E-02
          DXMAX  = 3.000E-01          PURIFY =         F
          MOVIE  =         F          TRUPD  =         T
          TRMAX  = 5.000E-01          TRMIN  = 5.000E-02
          ITBMAT =         5          STPT   =         F
          STSTEP = 1.000E-02          PROJCT=          F
          FROZEN COORD(S)=   1   2   3


      ***** EQUILIBRIUM GEOMETRY LOCATED *****
            (SUBJECT TO   3 CONSTRAINT(S))
 COORDINATES OF ALL ATOMS ARE (ANGS)
   ATOM   CHARGE       X              Y              Z
 ------------------------------------------------------------
 C           6.0   2.5844421609   2.1565819334   3.1316473714
 C           6.0   2.1164245149   1.3776868905   1.9201063963
 C           6.0   3.1550434641   1.2437175562   4.2327512512
 C           6.0   0.7211109783   0.8132012555   2.0209093026
 C           6.0   2.8820066765   1.1792539849   0.8594797037
 C           6.0   4.5350804178   0.6901043059   3.8833120058
 H           1.0   3.3415333453   2.8814128473   2.8462420880
 H           1.0   1.7433939726   2.7169715624   3.5328308607
 H           1.0   2.4660279767   0.4230700113   4.4192272316
 H           1.0   3.2162960391   1.8069420090   5.1603716508
 H           1.0   0.5887333855   0.2718723322   2.9538802270
 H           1.0  -0.0061568178   1.6224167248   2.0208973476
 H           1.0   0.4939175632   0.1440657892   1.1996051430
 H           1.0   2.5483030330   0.5874987360   0.0231206439
 H           1.0   3.8752930781   1.5918767859   0.7946104101
 H           1.0   4.5146312174   0.1528482836   2.9412828797
 H           1.0   5.2562225089   1.4985195588   3.7874627948
 H           1.0   4.8926187197   0.0082659869   4.6488329113


                     --------------------
                     INTERNAL COORDINATES
                     --------------------

                 - - ATOMS - -         COORDINATE      COORDINATE
 NO.   TYPE    I  J  K  L  M  N        (BOHR,RAD)       (ANG,DEG)
 ----------------------------------------------------------------
   1 STRETCH   1  2                     2.8618897       1.5144469
   2 STRETCH   1  8                     2.0548081       1.0873577
   3 STRETCH   1  7                     2.0527879       1.0862887
   4 STRETCH   1  3                     2.9100166       1.5399146
   5 STRETCH   2  4                     2.8507349       1.5085440
   6 STRETCH   2  5                     2.5001729       1.3230346
   7 STRETCH   3  6                     2.8864582       1.5274480
   8 STRETCH   3 10                     2.0540315       1.0869468
   9 STRETCH   3  9                     2.0553566       1.0876479
  10 STRETCH   4 13                     2.0474548       1.0834665
  11 STRETCH   4 12                     2.0560255       1.0880019
  12 STRETCH   4 11                     2.0536336       1.0867362
  13 STRETCH   5 15                     2.0362475       1.0775358
  14 STRETCH   5 14                     2.0361996       1.0775105
  15 STRETCH   6 16                     2.0497048       1.0846571
  16 STRETCH   6 18                     2.0516885       1.0857069
  17 STRETCH   6 17                     2.0551743       1.0875515
  18 BEND      1  2  4                  2.0095746     115.1401456
  19 BEND      1  2  5                  2.1407980     122.6586923
  20 BEND      1  3  9                  1.9125471     109.5808796
  21 BEND      1  3  6                  1.9671478     112.7092670
  22 BEND      1  3 10                  1.9006857     108.9012673
  23 BEND      2  1  8                  1.8977766     108.7345882
  24 BEND      2  1  3                  1.9623795     112.4360634
  25 BEND      2  4 11                  1.9352400     110.8810834
  26 BEND      2  5 14                  2.1239891     121.6956105
  27 BEND      2  4 12                  1.9176700     109.8743983
  28 BEND      2  5 15                  2.1226195     121.6171387
  29 BEND      2  4 13                  1.9545413     111.9869652
  30 BEND      2  1  7                  1.9266320     110.3878836
  31 BEND      3  1  8                  1.9052997     109.1656331
  32 BEND      3  6 17                  1.9281968     110.4775360
  33 BEND      3  6 18                  1.9431898     111.3365739
  34 BEND      3  6 16                  1.9403330     111.1728938
  35 BEND      3  1  7                  1.9019842     108.9756669
  36 BEND      4  2  5                  2.1325464     122.1859072
  37 BEND      6  3  9                  1.9157021     109.7616453
  38 BEND      6  3 10                  1.9093599     109.3982660
  39 BEND      7  1  8                  1.8672522     106.9856683
  40 BEND      9  3 10                  1.8549548     106.2810811
  41 BEND     11  4 12                  1.8640524     106.8023337
  42 BEND     11  4 13                  1.8939933     108.5178213
  43 BEND     12  4 13                  1.8956432     108.6123559
  44 BEND     14  5 15                  2.0365065     116.6832299
  45 BEND     16  6 17                  1.8798410     107.7069533
  46 BEND     16  6 18                  1.8833739     107.9093781
  47 BEND     17  6 18                  1.8866227     108.0955179
  48 TORSION   1  2  4 11              -0.8715743     -49.9375284
  49 TORSION   1  2  5 14               3.0958212     177.3774886
  50 TORSION   1  2  4 12               1.1849904      67.8949476
  51 TORSION   1  3  6 17               1.0986552      62.9483040
  52 TORSION   1  2  5 15              -0.0326154      -1.8687241
  53 TORSION   1  3  6 18              -3.0880296    -176.9310633
  54 TORSION   1  3  6 16              -0.9874589     -56.5772255
  55 TORSION   1  2  4 13              -2.9899432    -171.3111248
  56 TORSION   2  1  3  6               1.2884555      73.8230594
  57 TORSION   2  1  3  9              -0.8502649     -48.7165927
  58 TORSION   2  1  3 10              -2.8725570    -164.5853951
  59 TORSION   3  1  2  4               1.4642155      83.8933686
  60 TORSION   3  1  2  5              -1.6530607     -94.7134042
  61 TORSION   4  2  1  7              -2.6910281    -154.1845526
  62 TORSION   4  2  1  8              -0.6477011     -37.1105371
  63 TORSION   4  2  5 15               3.1349877     179.6215637
  64 TORSION   4  2  5 14              -0.0197610      -1.1322237
  65 TORSION   5  2  1  8               2.5182080     144.2826901
  66 TORSION   5  2  4 13               0.1274602       7.3029325
  67 TORSION   5  2  4 12              -1.9807915    -113.4909951
  68 TORSION   5  2  4 11               2.2458291     128.6765289
  69 TORSION   5  2  1  7               0.4748810      27.2086747
  70 TORSION   6  3  1  7              -0.8534214     -48.8974426
  71 TORSION   6  3  1  8              -2.8871328    -165.4205217
  72 TORSION   7  1  3  9              -2.9921418    -171.4370947
  73 TORSION   7  1  3 10               1.2687514      72.6941030
  74 TORSION   8  1  3  9               1.2573322      72.0398262
  75 TORSION   8  1  3 10              -0.7649599     -43.8289762
  76 TORSION   9  3  6 16               1.1494904      65.8609482
  77 TORSION   9  3  6 18              -0.9510803     -54.4928896
  78 TORSION   9  3  6 17              -3.0475809    -174.6135223
  79 TORSION  10  3  6 16              -3.1047067    -177.8865896
  80 TORSION  10  3  6 18               1.0779079      61.7595726
  81 TORSION  10  3  6 17              -1.0185927     -58.3610601

          INTERNUCLEAR DISTANCES (ANGS.)


 =====================================================
   GAMESS/COSab RESULTS
 =====================================================

   Dielectric Constant                  = INFTY
   Basic Grid Size                      =                 1082
   Number of Segments                   =                   92
   Number of Segments located on spheres=                  243
   Number of Segments of the cavity     =                  602
   Solvent Radius (rsolv)               = 1.40
   Outlying Charge Error Method         = double cavity

 =====================================================

  Total solvated Energy (a.u.)          =  -234.2385886750
  Total Energy corrected (a.u.)         =  -234.2385142087

  Outlying charge effect (a.u.)         =     0.0000744663
  Outlying charge effect (kcal/mol)     =     0.0467283480

  Dielectric Energy (a.u.)              =    -0.0029661729
  Dielectric energy corr. (a.u.)        =    -0.0028917066

  Sum of polarization charges           =     0.0261159714
  Sum of polarization charges(cor.)     =    -0.0261159714

  Total surface area of cavity (A**2)   =  144.66
  Total volume of cavity (A**3)         =  139.36

 =====================================================
 NPS=                   602
NR.  ATOM  (X, Y, Z)(a.u.)                  CHARGE(e)  AREA(A**2) SIGMA(e/A**2)
   1   1   3.813721   7.086519   3.900075   0.000653   0.278737   0.002343
   2   1   4.814226   7.532850   7.442757   0.001177   0.325193   0.003619
   3   1   5.462723   7.712242   6.767759   0.001031   0.278737   0.003698
   4   1   4.738508   7.236192   3.851028   0.000925   0.371649   0.002489
   5   1   3.784142   7.549050   4.913874   0.001618   0.418105   0.003869
   6   1   4.441939   7.809852   6.295272   0.001499   0.325193   0.004610
   7   1   5.768727   7.164576   7.907410   0.000896   0.371649   0.002411
   8   1   6.294985   6.677929   8.267335   0.000225   0.139368   0.001611
   9   1   2.866910   6.883937   4.392222   0.000531   0.325193   0.001633
  10   1   4.733446   6.808202   8.524305   0.000655   0.325193   0.002015
  11   1   6.851388   6.754627   7.716461   0.000126   0.185824   0.000677
  12   1   4.589326   7.794667   5.314525   0.001148   0.278737   0.004119
  13   2   2.358742   5.944706   2.974070   0.000172   0.139368   0.001231
  14   2   2.342605   5.274390   1.529636   0.001727   0.232280   0.007434
  15   2   2.268548   5.676594   2.270561   0.000547   0.185824   0.002943
  16   2   3.131498   6.115199   2.533734   0.000664   0.139368   0.004761
  17   2   4.684126  -1.097223   3.975718   0.000360   0.046456   0.007756
  18   2   3.236522   5.937736   2.020784   0.001490   0.232280   0.006413
  19   3   6.323036   0.319830  11.165969   0.000682   0.278737   0.002448
  20   3   3.484316   2.695312  10.831674   0.001610   0.371649   0.004332
  21   3   7.927957   5.439827   8.933937   0.000143   0.092912   0.001536
  22   3   8.112944   5.107454   9.432747   0.000054   0.046456   0.001164
  23   3   3.478327   1.663881  10.763466   0.001018   0.232280   0.004384
  24   3   5.575648  -0.207442  10.754274   0.000666   0.278737   0.002391
  25   3   5.571755   0.973824  11.496918   0.001511   0.371649   0.004067
  26   3   4.275096   1.760480  11.328941   0.001664   0.325193   0.005116
  27   3   2.762986   2.932776   9.924940   0.000959   0.371649   0.002581
  28   3   6.652844   1.384127  11.586748   0.000715   0.278737   0.002565
  29   3   3.307398   3.912428  10.188762   0.000575   0.232280   0.002477
  30   3   7.586030   5.592127   9.065384   0.000074   0.046456   0.001596
  31   3   2.700112   2.095540   9.890411   0.000603   0.232280   0.002597
  32   3   4.743225   0.888442  11.263938   0.001239   0.278737   0.004445
  33   4  -1.819492   1.713271   1.787524   0.001765   0.418105   0.004222
  34   4   2.836568  -1.943387   3.846173   0.000530   0.232280   0.002283
  35   4  -1.953712   1.827630   5.608136   0.001198   0.371649   0.003224
  36   4  -1.037604  -1.380067   3.695947   0.000985   0.371649   0.002652
  37   4   0.718189   4.085697   1.103899   0.000640   0.185824   0.003443
  38   4   0.289538   3.107781   0.553337   0.000585   0.278737   0.002098
  39   4  -0.559479   2.539785   0.723270   0.001521   0.371649   0.004093
  40   4  -0.620147  -1.559708   4.693435   0.001010   0.371649   0.002717
  41   4  -1.413606   1.395288   6.379525   0.000843   0.278737   0.003023
  42   4   0.432302   2.437082   7.369749   0.000003   0.046456   0.000066
  43   4   2.372438  -1.949682   4.872355   0.000762   0.325193   0.002344
  44   4  -1.224764   2.664870   1.305685   0.000783   0.232280   0.003372
  45   4  -1.091926   1.663315   0.947898   0.000973   0.278737   0.003489
  46   4   3.228826  -1.692151   4.432274   0.000355   0.185824   0.001911
  47   4  -0.361858   3.068665   6.812861   0.000601   0.185824   0.003234
  48   4  -1.124939   2.504157   6.494798   0.001552   0.371649   0.004175
  49   4  -1.997015   0.650720   5.306124   0.000974   0.464561   0.002097
  50   4  -1.714167  -0.585935   4.377090   0.000797   0.464561   0.001717
  51   4   0.174661  -2.050497   3.887168   0.001638   0.418105   0.003918
  52   4   1.920922  -2.198325   3.967344   0.000749   0.232280   0.003226
  53   4   2.605197  -1.946817   3.040931   0.000578   0.278737   0.002072
  54   4  -2.382300   1.409112   4.311930   0.000684   0.371649   0.001840
  55   4  -2.326977   1.444253   3.005311   0.000950   0.418105   0.002272
  56   4  -1.973713   0.574315   2.326857   0.001106   0.464561   0.002380
  57   4  -1.703354  -0.557639   3.113822   0.000506   0.325193   0.001555
  58   4   0.053312   3.775996   1.070254   0.000576   0.232280   0.002480
  59   4   0.444053   2.223356   0.217739   0.000602   0.232280   0.002591
  60   4  -1.543414  -0.356797   5.320096   0.000400   0.278737   0.001434
  61   4  -0.294872   2.380074   7.109189   0.000421   0.139368   0.003020
  62   4   1.071271  -2.143728   4.627409   0.001120   0.325193   0.003444
  63   4  -2.235284   0.379657   3.816219   0.000556   0.418105   0.001330
  64   4   1.368395  -2.229675   3.505249   0.000772   0.232280   0.003325
  65   5   5.050303   5.921870   0.926783   0.003424   0.325193   0.010530
  66   5   2.790967   3.962021  -0.432225   0.001214   0.139368   0.008714
  67   5   5.889027   3.917943  -1.727513   0.001450   0.418105   0.003468
  68   5   8.231509   0.600217  -0.344341   0.000639   0.325193   0.001966
  69   5   5.966862  -1.514915   1.610542   0.001576   0.232280   0.006785
  70   5   5.513761  -1.485524   0.927125   0.001610   0.278737   0.005775
  71   5   7.351058   0.537258  -1.167870   0.000465   0.371649   0.001250
  72   5   5.503523   2.884157  -2.097517   0.001148   0.418105   0.002747
  73   5   2.785351   2.946461  -0.962056   0.001517   0.232280   0.006530
  74   5   6.105796   5.895889   0.992294   0.002138   0.278737   0.007670
  75   5   6.736911   5.642181   0.641864   0.001088   0.185824   0.005856
  76   5   3.259336   3.767458  -1.046661   0.002062   0.278737   0.007397
  77   5   4.611520   3.956360  -1.631886   0.002433   0.464561   0.005236
  78   5   6.831795   2.893636  -1.828635   0.000853   0.371649   0.002294
  79   5   7.696531   1.785184  -1.379775   0.000576   0.371649   0.001549
  80   5   7.583661  -0.325965  -0.161973   0.001276   0.464561   0.002746
  81   5   6.934960  -1.185825   0.983561   0.002696   0.464561   0.005802
  82   5   4.984160  -1.508087   1.954136   0.001600   0.232280   0.006890
  83   5   3.226562   4.675883  -0.210935   0.003262   0.325193   0.010030
  84   5   4.034879   5.482586   0.319116   0.004536   0.371649   0.012205
  85   5   5.327301   5.593075  -0.093257   0.003491   0.464561   0.007514
  86   5   5.620977   4.846450  -1.096098   0.002353   0.464561   0.005064
  87   5   6.997544   3.925864  -1.375229   0.001024   0.371649   0.002756
  88   5   6.961395   4.779277  -0.717155   0.001136   0.278737   0.004076
  89   5   8.300909   1.530072  -0.752186   0.000323   0.278737   0.001158
  90   5   8.725838   0.808963   0.394052   0.000626   0.278737   0.002245
  91   5   8.694114   0.373831   1.080480   0.000906   0.232280   0.003900
  92   5   6.506620  -1.377401   2.020941   0.001395   0.185824   0.007506
  93   5   5.541805  -1.419862   2.606397   0.002455   0.232280   0.010570
  94   5   6.708877  -0.967018   0.049788   0.000861   0.278737   0.003088
  95   5   6.827528   1.946991  -1.882519   0.000380   0.325193   0.001169
  96   5   3.850404   3.258230  -1.643430   0.001755   0.325193   0.005396
  97   5   4.539449  -1.400043   1.080216   0.000421   0.092912   0.004529
  98   5   6.435547   5.356258  -0.252633   0.001867   0.325193   0.005741
  99   5   4.139751   4.827798  -0.788486   0.003527   0.464561   0.007591
 100   5   7.775522   3.022487  -1.244278   0.000264   0.232280   0.001138
 101   5   8.041374  -0.439909   0.969159   0.001424   0.371649   0.003831
 102   6  12.033695   1.448331   8.843960   0.002249   0.418105   0.005380
 103   6   7.033833  -2.147148   7.452618   0.000741   0.278737   0.002660
 104   6  11.683833   1.638343   5.222490   0.001125   0.278737   0.004036
 105   6  10.936399  -1.630900   7.072959   0.001495   0.371649   0.004023
 106   6   9.151206   1.757251  11.045299   0.000745   0.278737   0.002674
 107   6   9.876954   3.805988   9.851735   0.000758   0.232280   0.003265
 108   6   9.920055   2.867922  10.503238   0.001058   0.325193   0.003253
 109   6  10.967584   2.186087  10.123758   0.001528   0.325193   0.004700
 110   6  10.365688  -1.803155   6.153099   0.001631   0.371649   0.004389
 111   6  11.129404   0.923853   4.583487   0.001161   0.278737   0.004164
 112   6   7.169526  -2.079295   6.402810   0.001462   0.464561   0.003146
 113   6  11.529869   2.402234   9.416358   0.001108   0.232280   0.004772
 114   6  11.447010   1.400163   9.787517   0.001271   0.278737   0.004559
 115   6  11.093574   1.910610   4.590962   0.001175   0.232280   0.005060
 116   6  11.671452   0.371725   5.389968   0.001383   0.418105   0.003309
 117   6  11.503619  -0.838887   6.296225   0.001426   0.464561   0.003069
 118   6   9.674311  -2.295549   7.010736   0.001950   0.371649   0.005246
 119   6   8.237220  -2.460218   7.395777   0.001905   0.418105   0.004556
 120   6   7.379286  -2.141630   8.334961   0.001053   0.325193   0.003240
 121   6  12.189612   1.150854   6.261502   0.001201   0.371649   0.003232
 122   6  12.340965   1.180792   7.560635   0.001539   0.418105   0.003680
 123   6  12.091971   0.310590   8.283572   0.001687   0.464561   0.003631
 124   6  11.692047  -0.815938   7.545518   0.000972   0.325193   0.002988
 125   6  10.571151   3.194540   9.928020   0.000882   0.232280   0.003798
 126   6  10.151720   1.891152  10.720400   0.001061   0.278737   0.003806
 127   6  11.188375  -0.604440   5.392579   0.000853   0.278737   0.003061
 128   6   8.701141  -2.374899   6.482837   0.001529   0.325193   0.004703
 129   6   7.074483  -1.655048   9.152458   0.000118   0.092912   0.001271
 130   6  12.114242   0.120397   6.771011   0.001054   0.418105   0.002522
 131   7   7.627956   7.476744   4.951457  -0.001923   0.372926  -0.005157
 132   7   7.761338   7.026360   6.579253  -0.001073   0.294415  -0.003643
 133   7   6.514201   7.880534   5.631147  -0.000695   0.314043  -0.002213
 134   7   6.306043   7.320401   3.791743  -0.000820   0.294415  -0.002786
 135   7   8.318611   6.483903   4.409177  -0.002153   0.353299  -0.006095
 136   7   8.301797   6.886014   5.477473  -0.001858   0.314043  -0.005918
 137   7   7.245787   7.573010   6.178514  -0.001063   0.333671  -0.003187
 138   7   6.436044   7.790504   4.657995  -0.001115   0.392554  -0.002840
 139   7   7.380618   7.090097   3.897884  -0.001776   0.353299  -0.005027
 140   8   1.679617   6.560140   7.856867  -0.001936   0.372926  -0.005191
 141   8   1.686018   4.942316   8.522962  -0.001402   0.353299  -0.003970
 142   8   1.966998   7.019968   5.829256  -0.001025   0.333671  -0.003071
 143   8   2.713828   7.518526   6.792258  -0.000840   0.372926  -0.002253
 144   8   3.140556   6.728958   8.538497  -0.001043   0.333671  -0.003126
 145   8   1.198331   5.437228   7.920805  -0.001774   0.333671  -0.005318
 146   8   1.090883   6.164618   7.018957  -0.001781   0.274788  -0.006482
 147   8   1.658230   6.965790   6.734259  -0.001732   0.353299  -0.004902
 148   8   2.753319   7.276419   7.750171  -0.001291   0.392554  -0.003289
 149   8   2.259543   6.085703   8.690737  -0.001812   0.412182  -0.004396
 150   9   3.290936  -0.909751   9.464195  -0.002049   0.392554  -0.005220
 151   9   4.506323  -1.618569   7.945657  -0.001273   0.333671  -0.003814
 152   9   3.311542   0.149252  10.298853  -0.000395   0.255160  -0.001549
 153   9   4.727752  -1.026158   9.993538  -0.000572   0.274788  -0.002081
 154   9   3.712491  -1.445968   8.659340  -0.001516   0.274788  -0.005518
 155   9   2.660608   0.361211   9.709426  -0.001219   0.353299  -0.003450
 156   9   3.928740  -0.524202  10.287106  -0.000800   0.353299  -0.002263
 157   9   4.671778  -1.520413   9.159201  -0.000963   0.392554  -0.002452
 158  10   6.159368   4.646153  11.875779  -0.002786   0.549575  -0.005069
 159  10   6.031450   5.701630  10.647523  -0.001093   0.333671  -0.003277
 160  10   7.670841   5.059751  10.641219  -0.000723   0.353299  -0.002045
 161  10   7.261855   3.185697  11.892008  -0.000999   0.372926  -0.002679
 162  10   5.286588   2.994551  12.039127  -0.000573   0.372926  -0.001536
 163  10   4.356785   4.503434  11.125453  -0.000821   0.353299  -0.002323
 164  10   6.888437   5.524271  10.714777  -0.001320   0.412182  -0.003203
 165  10   7.428663   4.310538  11.597742  -0.001678   0.471065  -0.003561
 166  10   6.326046   3.181491  12.184617  -0.001304   0.431809  -0.003021
 167  10   4.900970   3.928264  11.845967  -0.001353   0.451437  -0.002996
 168  10   5.184403   5.253423  11.113856  -0.001724   0.451437  -0.003819
 169  11   0.278559  -0.540177   7.638435  -0.003113   0.451437  -0.006896
 170  11   1.602283  -1.800986   6.243256  -0.001255   0.314043  -0.003995
 171  11  -0.358083  -1.261445   6.431165  -0.001352   0.372926  -0.003625
 172  11  -0.664928   0.474945   7.277377  -0.000859   0.294415  -0.002916
 173  11   0.821926  -1.450702   7.028248  -0.002326   0.372926  -0.006238
 174  11   0.487638  -1.812350   6.065587  -0.000776   0.294415  -0.002635
 175  11  -0.730459  -0.446799   6.891910  -0.001410   0.372926  -0.003781
 176  11   0.095375   0.860309   7.791187  -0.002098   0.412182  -0.005090
 177  12  -1.724815   4.824509   3.732127  -0.003180   0.510320  -0.006232
 178  12  -1.654362   3.817100   2.153920  -0.001014   0.372926  -0.002720
 179  12  -0.271340   5.114191   2.487674  -0.001227   0.353299  -0.003474
 180  12  -1.484174   4.025481   5.535341  -0.001352   0.392554  -0.003445
 181  12  -2.464171   3.123211   3.948997  -0.001263   0.412182  -0.003065
 182  12  -1.147331   4.740641   2.425873  -0.002020   0.451437  -0.004475
 183  12  -0.440184   5.479390   3.655638  -0.002903   0.490692  -0.005916
 184  12  -1.154378   4.996365   4.820284  -0.002589   0.431809  -0.005995
 185  12  -2.167420   3.791668   4.746859  -0.002065   0.471065  -0.004383
 186  12  -2.246405   3.714677   3.031510  -0.002181   0.490692  -0.004446
 187  13  -0.168163  -1.312838   0.747305  -0.002706   0.451437  -0.005993
 188  13   0.183815   0.686289  -0.035653  -0.001233   0.333671  -0.003696
 189  13  -1.119756  -0.429145   1.114619  -0.001178   0.353299  -0.003334
 190  13  -0.015838  -1.990561   2.149479  -0.000973   0.314043  -0.003099
 191  13   1.680570  -1.992843   1.678549  -0.001241   0.333671  -0.003719
 192  13   0.475731  -0.562648   0.002272  -0.002663   0.412182  -0.006461
 193  13  -0.616826   0.104425   0.368547  -0.001596   0.431809  -0.003697
 194  13  -0.846904  -1.340494   1.752363  -0.001334   0.372926  -0.003578
 195  13   0.686762  -2.103842   1.693777  -0.001507   0.372926  -0.004041
 196  13   1.112995  -1.566048   0.647189  -0.002780   0.431809  -0.006437
 197  14   4.568529  -0.190359  -2.025747  -0.003091   0.431809  -0.007159
 198  14   3.183862   1.406628  -1.768674  -0.001739   0.392554  -0.004429
 199  14   4.741724  -1.299894  -0.426489  -0.001694   0.431809  -0.003923
 200  14   5.918885   0.186619  -1.947492  -0.001787   0.392554  -0.004553
 201  14   4.425009   1.671260  -2.315913  -0.001154   0.353299  -0.003266
 202  14   3.378656   0.043259  -1.639142  -0.002685   0.353299  -0.007599
 203  14   3.950455  -0.886336  -1.096685  -0.002902   0.412182  -0.007040
 204  14   5.529968  -0.807770  -1.315032  -0.002536   0.510320  -0.004969
 205  14   5.241004   0.932107  -2.369269  -0.001991   0.392554  -0.005073
 206  14   3.895475   0.803171  -2.213340  -0.001904   0.314043  -0.006063
 207  15   9.472725   4.006560   0.854982  -0.002614   0.372926  -0.007009
 208  15   8.202883   4.985692   0.339307  -0.000818   0.274788  -0.002977
 209  15   8.931959   3.207077  -0.344360  -0.001524   0.333671  -0.004567
 210  15   9.522541   2.041800   0.987604  -0.001574   0.333671  -0.004718
 211  15   9.276384   4.477706   1.748419  -0.003279   0.372926  -0.008792
 212  15   8.458741   5.167355   1.212006  -0.002074   0.372926  -0.005562
 213  15   8.763215   4.272037  -0.036037  -0.002046   0.412182  -0.004963
 214  15   9.448623   2.778371   0.291228  -0.002087   0.392554  -0.005315
 215  15   9.778189   3.099346   1.502330  -0.002831   0.372926  -0.007592
 216  16   9.235543  -1.356807   3.875602  -0.001287   0.255160  -0.005042
 217  16   8.343164  -2.134241   5.199970  -0.000148   0.176649  -0.000839
 218  16   9.814027  -1.628269   4.712793  -0.000401   0.274788  -0.001460
 219  16  10.192204  -0.090619   3.788201  -0.000698   0.235532  -0.002964
 220  16   7.656400  -1.885762   4.822998  -0.000713   0.255160  -0.002796
 221  16   8.847611  -1.954278   4.607657  -0.001282   0.372926  -0.003438
 222  16  10.095729  -0.862559   4.054103  -0.000999   0.353299  -0.002828
 223  17  11.815603   4.409410   7.121207  -0.002413   0.490692  -0.004918
 224  17  11.795167   3.610279   8.557520  -0.000644   0.372926  -0.001728
 225  17  10.348944   4.868875   8.465785  -0.000951   0.353299  -0.002691
 226  17  11.349781   3.654414   5.326815  -0.000844   0.333671  -0.002530
 227  17  12.353427   2.901885   6.743980  -0.000731   0.372926  -0.001961
 228  17  11.277920   4.436108   8.442552  -0.001246   0.412182  -0.003022
 229  17  10.741742   5.145338   7.325224  -0.002326   0.471065  -0.004938
 230  17  11.065204   4.692097   6.020600  -0.002403   0.471065  -0.005101
 231  17  11.997337   3.482046   5.995380  -0.001330   0.431809  -0.003079
 232  17  12.293319   3.269143   7.678650  -0.001022   0.392554  -0.002605
 233  18  10.132358  -1.501853  10.501466  -0.003400   0.608459  -0.005588
 234  18   8.741226  -0.776373  11.055112  -0.001181   0.353299  -0.003344
 235  18  10.389439   0.381711  10.928138  -0.000602   0.333671  -0.001803
 236  18  11.478113  -0.630486   9.581259  -0.000725   0.353299  -0.002051
 237  18  10.252836  -2.224034   8.716489  -0.000709   0.372926  -0.001901
 238  18   8.372688  -2.147796   9.554772  -0.000660   0.353299  -0.001869
 239  18   9.514160  -0.159065  11.220693  -0.001607   0.490692  -0.003275
 240  18  11.012015  -0.293398  10.464232  -0.001615   0.490692  -0.003292
 241  18  11.025886  -1.599976   9.290867  -0.001755   0.510320  -0.003439
 242  18   9.471221  -2.349930   9.408208  -0.001746   0.490692  -0.003558
 243  18   8.608768  -1.641328  10.483221  -0.001779   0.490692  -0.003626
 244   1   4.672333   6.349741   2.762852   0.000364   0.048247   0.007537
 245   2   4.518416   6.133947   2.345814   0.000633   0.048247   0.013123
 246   5   4.770199   6.032180   2.010845   0.000672   0.048247   0.013921
 247   1   2.011498   5.959863   4.019462  -0.000234   0.097859  -0.002393
 248   2   1.834784   5.744133   3.609343  -0.000182   0.097859  -0.001856
 249  12   1.125441   5.524548   3.685582  -0.000310   0.097859  -0.003167
 250   2   2.544952   6.082446   3.300038   0.000056   0.213945   0.000261
 251   2   3.916294   6.260487   2.655822   0.001185   0.213945   0.005537
 252   1   3.463446   6.496940   3.563492   0.000172   0.435353   0.000395
 253   1   7.512962   6.169416   7.664251  -0.000049   0.028553  -0.001721
 254   3   7.673918   5.840804   8.008167  -0.000029   0.028553  -0.001001
 255   7   7.614528   6.281420   7.401748  -0.000093   0.028553  -0.003273
 256   1   6.705659   6.127179   8.671981   0.000036   0.028692   0.001251
 257   3   6.908596   5.864379   9.048711   0.000014   0.028692   0.000492
 258  10   6.841379   5.808197   9.339034  -0.000018   0.028692  -0.000619
 259   3   7.443189   5.810011   8.567971   0.000114   0.173199   0.000661
 260   1   7.014844   6.280056   8.173053   0.000088   0.173199   0.000510
 261   1   5.494711   6.547046   3.068280   0.000101   0.068312   0.001478
 262   5   5.590727   6.156056   2.352195   0.000628   0.068312   0.009188
 263   7   5.773674   6.624035   3.163777  -0.000008   0.068312  -0.000122
 264   5   5.131479   6.125854   1.844810   0.001403   0.170189   0.008242
 265   1   5.115758   6.593035   2.927170   0.000683   0.170189   0.004016
 266   7   5.764106   7.121904   3.676524  -0.000126   0.075278  -0.001678
 267   7   5.659434   7.655122   4.753059  -0.000371   0.170444  -0.002179
 268   7   6.128255   7.705986   6.125886  -0.000424   0.170444  -0.002487
 269   7   7.091410   7.036719   6.981135  -0.000600   0.170444  -0.003518
 270   1   5.285388   7.266311   4.048448  -0.000207   0.162008  -0.001279
 271   1   5.413569   7.743800   5.601144   0.000002   0.162008   0.000009
 272   1   6.271505   7.373298   6.936046  -0.000262   0.162008  -0.001617
 273   1   7.211754   6.606170   7.481997  -0.000124   0.091969  -0.001353
 274   1   4.185144   6.006023   9.116064   0.000026   0.043039   0.000607
 275   8   3.900526   6.050828   9.020495  -0.000083   0.043039  -0.001934
 276  10   4.528172   5.637266   9.672653   0.000029   0.043039   0.000678
 277   1   1.883092   6.145414   4.652470  -0.000243   0.093593  -0.002599
 278   8   1.739484   6.188657   4.920294  -0.000319   0.093593  -0.003413
 279  12   1.036462   5.643254   4.315085  -0.000265   0.093593  -0.002836
 280   8   3.651957   6.544370   8.653676  -0.000178   0.071463  -0.002491
 281   8   3.685380   7.244695   7.745522  -0.000364   0.159704  -0.002277
 282   8   3.256128   7.522039   6.458246  -0.000328   0.159704  -0.002054
 283   8   2.442080   7.016038   5.458474  -0.000521   0.159704  -0.003265
 284   1   4.107448   6.799127   8.342546  -0.000291   0.155692  -0.001872
 285   1   3.937939   7.522935   6.976168  -0.000026   0.155692  -0.000169
 286   1   3.197853   7.386825   5.614782  -0.000075   0.155692  -0.000481
 287   1   2.407954   6.733317   4.871677  -0.000141   0.087307  -0.001609
 288  10   6.428711   5.862457   9.659004  -0.000365   0.234925  -0.001554
 289  10   5.182542   5.705855  10.020139  -0.000523   0.234925  -0.002227
 290   1   5.476968   6.250719   8.907791   0.000089   0.638367   0.000139
 291  12   0.615500   5.608141   3.824852  -0.000155   0.084020  -0.001840
 292   1   1.932010   6.256506   4.277026   0.000213   0.119891   0.001778
 293   2   2.059461   4.378944   0.896396   0.000615   0.048376   0.012707
 294   4   1.619659   4.166987   0.959037   0.000393   0.048376   0.008132
 295   5   2.330334   4.291139   0.572535   0.000728   0.048376   0.015057
 296   2   4.500285  -1.154909   3.693514   0.000442   0.048376   0.009142
 297   4   4.030286  -1.298405   3.721552   0.000348   0.048376   0.007184
 298   5   4.744644  -1.182603   3.339270   0.000685   0.048376   0.014167
 299   2   4.757059  -0.957250   4.774404   0.000586   0.106003   0.005532
 300   4   4.275583  -1.056682   4.798523   0.000232   0.106003   0.002193
 301   6   5.581847  -1.004998   5.441006   0.000530   0.106003   0.004998
 302   2   1.392351   5.015353   2.054251   0.000089   0.027264   0.003253
 303   4   0.924378   4.864563   2.065521  -0.000002   0.027264  -0.000086
 304  12   0.670738   4.926088   2.220850  -0.000078   0.027264  -0.002848
 305   4   3.748799  -1.433023   4.161724   0.000281   0.102610   0.002741
 306   2   4.402482  -1.151085   4.237990   0.000542   0.102610   0.005280
 307   4   1.120817   4.605493   1.599965   0.000382   0.191562   0.001997
 308   2   1.815285   4.732020   1.370521   0.001047   0.191562   0.005467
 309   2   5.438153  -0.979821   4.025242   0.001548   0.129557   0.011951
 310   5   5.690258  -1.048385   3.676409   0.002012   0.129557   0.015533
 311  16   6.395390  -1.127685   4.422210   0.001108   0.129557   0.008550
 312   5   5.247575  -1.201379   3.296348   0.000786   0.046185   0.017015
 313   2   4.837978  -1.122134   3.756837   0.000508   0.046185   0.011002
 314   5   2.990796   4.844317   0.536320   0.003041   0.223418   0.013609
 315   5   4.317876   5.790462   1.317228   0.003030   0.223418   0.013561
 316   2   3.319418   5.356376   1.448700   0.006488   0.467518   0.013877
 317   2   5.643191  -0.961833   4.774321   0.000945   0.093307   0.010127
 318   6   6.426940  -1.284814   5.418824   0.000092   0.093307   0.000985
 319  16   6.563570  -1.289865   5.145434  -0.000019   0.093307  -0.000199
 320   6   6.206406  -1.441952   5.627649   0.000228   0.081789   0.002788
 321   2   5.081379  -1.115719   4.653989   0.000439   0.081789   0.005373
 322  12   0.577183   5.299716   3.012335  -0.001126   0.280583  -0.004015
 323   2   1.619686   5.422636   2.569525   0.000386   0.394991   0.000977
 324  16   6.657318  -1.432972   4.929855   0.000106   0.065055   0.001634
 325   2   5.272304  -1.151674   4.313447   0.000471   0.092882   0.005070
 326   3   2.067222   2.997699   8.407929  -0.000125   0.212166  -0.000591
 327   4   1.270542   2.850412   7.640362  -0.000217   0.212166  -0.001021
 328   8   1.729909   3.577658   8.049478  -0.000482   0.212166  -0.002271
 329   3   1.848351   2.326073   8.272774  -0.000133   0.099646  -0.001331
 330   4   0.963281   2.208304   7.613534  -0.000235   0.099646  -0.002360
 331  11   0.976207   1.922758   7.725687  -0.000372   0.099646  -0.003732
 332   4   0.858357   2.447676   7.704840   0.000157   0.045541   0.003453
 333   3   2.025320   2.678432   8.758825   0.000093   0.045541   0.002032
 334   3   6.093491  -1.049323   9.662547   0.000015   0.027565   0.000551
 335   6   6.549463  -1.194919   9.524982   0.000042   0.027565   0.001514
 336   9   5.805164  -1.108889   9.588661  -0.000015   0.027565  -0.000558
 337   3   8.408171   4.734603   9.634671   0.000019   0.027961   0.000669
 338   6   8.838413   4.521725   9.501926   0.000052   0.027961   0.001857
 339  10   8.237566   4.756303   9.884414  -0.000007   0.027961  -0.000251
 340   3   7.749279   2.026859  11.322272   0.000034   0.027961   0.001212
 341   6   8.188078   1.849143  11.167613   0.000089   0.027961   0.003172
 342  10   7.637663   2.290974  11.420930  -0.000007   0.027961  -0.000267
 343   3   8.792380   4.757386   9.143633   0.000039   0.026641   0.001466
 344   6   9.259074   4.611051   9.049883   0.000013   0.026641   0.000485
 345  17   9.487687   4.673209   8.860249  -0.000020   0.026641  -0.000766
 346   3   7.883864   1.200356  11.177778   0.000079   0.025327   0.003128
 347   6   8.340647   1.015244  11.106685   0.000030   0.025327   0.001169
 348  18   8.494184   0.754569  11.105060  -0.000005   0.025327  -0.000205
 349   3   6.620903  -1.053288   9.760367   0.000038   0.025327   0.001503
 350   6   7.060536  -1.269003   9.670027   0.000021   0.025327   0.000833
 351  18   7.329230  -1.324191   9.797642  -0.000006   0.025327  -0.000227
 352   6   8.388833   1.436433  11.161257   0.000188   0.089908   0.002094
 353   3   7.703650   1.594978  11.324618   0.000211   0.089908   0.002352
 354   6   6.898008  -1.300036   9.608866   0.000041   0.016477   0.002461
 355   3   6.245389  -1.050227   9.756244   0.000038   0.016477   0.002305
 356   6   9.164762   4.577321   9.249662   0.000091   0.040532   0.002249
 357   3   8.520369   4.811155   9.454832   0.000085   0.040532   0.002104
 358   3   8.244022   5.460998   7.956030  -0.000051   0.167737  -0.000301
 359   7   8.135028   5.861539   7.323786  -0.000281   0.167737  -0.001675
 360  17   8.942930   5.277454   7.720793  -0.000191   0.167737  -0.001141
 361   7   7.754900   6.360469   7.247491  -0.000112   0.039639  -0.002827
 362   3   7.925284   5.730251   8.157616   0.000089   0.055911   0.001597
 363   3   3.669901   4.711647   9.900169   0.000052   0.043524   0.001194
 364   8   3.301074   5.119686   9.387181   0.000016   0.043524   0.000369
 365  10   3.892529   4.757874  10.101018  -0.000044   0.043524  -0.001007
 366   8   1.981545   4.211945   8.571347  -0.000557   0.217939  -0.002558
 367   8   2.651444   5.092778   9.074305  -0.000605   0.217939  -0.002775
 368   3   2.842387   3.904796   9.431595   0.000289   0.594446   0.000486
 369   3   2.288163   1.567839   9.007026  -0.000181   0.087374  -0.002074
 370   9   2.251451   1.264437   8.984170  -0.000302   0.087374  -0.003459
 371  11   1.536899   1.186316   8.290496  -0.000353   0.087374  -0.004037
 372   9   5.360342  -1.007599   9.863801  -0.000092   0.066508  -0.001381
 373   9   4.749985  -0.359385  10.461235  -0.000270   0.146404  -0.001843
 374   9   3.770804   0.487032  10.568135  -0.000151   0.146404  -0.001029
 375   9   2.846000   1.112814   9.904976  -0.000257   0.146404  -0.001759
 376   3   5.504322  -0.594007  10.256094  -0.000141   0.147015  -0.000960
 377   3   4.536320   0.345327  10.813207   0.000095   0.147015   0.000644
 378   3   3.411472   1.215081  10.484578   0.000085   0.147015   0.000577
 379   3   2.652175   1.674691   9.701664  -0.000012   0.081254  -0.000149
 380  10   7.837877   5.111343   9.988931  -0.000094   0.069739  -0.001350
 381  10   7.172891   5.613049   9.728223  -0.000102   0.069739  -0.001465
 382   3   7.641555   5.340556   9.469603  -0.000229   0.152661  -0.001501
 383  10   4.032189   4.409121  10.666641  -0.000128   0.075601  -0.001695
 384  10   4.239306   3.384482  11.275102  -0.000241   0.171272  -0.001406
 385  10   5.243307   2.455364  11.772938  -0.000287   0.171272  -0.001674
 386  10   6.690618   2.299136  11.772213  -0.000398   0.171272  -0.002321
 387   3   3.801834   3.829226  10.640834  -0.000173   0.162627  -0.001064
 388   3   4.443609   2.526214  11.389612   0.000068   0.162627   0.000419
 389   3   5.912783   1.875721  11.687551  -0.000043   0.162627  -0.000266
 390   3   7.234638   1.981130  11.536251  -0.000048   0.092363  -0.000522
 391  11   0.928363   1.420174   8.032455  -0.000472   0.214044  -0.002205
 392   3   2.053480   2.157359   8.963155   0.000401   0.307882   0.001301
 393  17   9.506600   5.007216   8.293656  -0.000414   0.202415  -0.002048
 394   3   8.523817   5.131935   8.855726   0.000436   0.285101   0.001529
 395  18   8.397392   0.312058  11.112097  -0.000188   0.197894  -0.000948
 396  18   7.759227  -0.794620  10.491121  -0.001008   0.404634  -0.002491
 397   3   7.164482   0.420037  11.040108   0.000703   0.542446   0.001297
 398   3   6.500159  -0.794609  10.207786   0.000626   0.278687   0.002246
 399   4   2.924992  -1.517158   2.133147   0.000039   0.068312   0.000564
 400   5   3.629245  -1.324253   1.764768   0.000340   0.068312   0.004971
 401  13   2.721263  -1.529133   1.908590  -0.000150   0.068312  -0.002194
 402   4   1.686503   1.891706  -0.155173   0.000147   0.063767   0.002312
 403   5   2.356097   2.019998  -0.606362   0.000100   0.063767   0.001574
 404  14   2.457490   1.775030  -0.747123  -0.000103   0.063767  -0.001618
 405   5   4.552474  -1.372942   2.585268   0.003389   0.472187   0.007178
 406   4   3.375848  -1.570416   2.826250   0.001246   0.472187   0.002639
 407   5   2.219370   2.615133  -0.498628   0.001516   0.327513   0.004629
 408   5   2.311542   3.923792   0.085322   0.002693   0.327513   0.008222
 409   4   1.269561   3.080791   0.373363   0.001764   0.657485   0.002684
 410   4   4.143778  -1.007793   5.700885   0.000106   0.252334   0.000421
 411   6   5.456801  -1.116437   6.336003   0.000311   0.252334   0.001233
 412   9   4.748801  -1.087747   6.610508  -0.000476   0.252334  -0.001888
 413   6   5.862829  -1.485829   5.981954   0.000543   0.186930   0.002902
 414   4   3.982483  -1.422022   4.974529   0.000424   0.186930   0.002270
 415   4  -0.085131   4.016806   6.358582   0.000014   0.080264   0.000180
 416   8   0.550231   4.609502   6.732544  -0.000161   0.080264  -0.002006
 417  12  -0.240253   4.173773   6.146401  -0.000210   0.080264  -0.002615
 418   8   0.862234   4.713661   7.376977  -0.000637   0.203685  -0.003125
 419   8   1.292437   4.078977   7.885273  -0.000391   0.203685  -0.001921
 420   4   0.282353   3.408403   7.070405   0.000733   0.568153   0.001289
 421   4   2.836592  -1.385880   5.911511  -0.000240   0.088160  -0.002726
 422   9   3.456167  -1.216045   6.793562  -0.000300   0.088160  -0.003397
 423  11   2.686827  -1.383288   6.178528  -0.000398   0.088160  -0.004514
 424   9   4.110337  -1.357751   6.976619  -0.000334   0.204066  -0.001638
 425   4   3.340214  -1.503514   5.566320   0.000338   0.292944   0.001155
 426  11   0.247352   1.722985   7.536956  -0.000224   0.069708  -0.003210
 427  11  -0.629068   1.178203   7.096507  -0.000423   0.155005  -0.002729
 428  11  -1.105842   0.110743   6.409490  -0.000536   0.155005  -0.003461
 429  11  -0.710277  -1.034701   5.800997  -0.000554   0.155005  -0.003577
 430  11   0.391288  -1.776459   5.526905  -0.000461   0.155005  -0.002975
 431  11   1.735635  -1.802615   5.702473  -0.000521   0.155005  -0.003363
 432   4  -0.205754   1.901088   7.185396  -0.000148   0.152586  -0.000967
 433   4  -1.170803   0.946334   6.494495  -0.000197   0.152586  -0.001293
 434   4  -1.219019  -0.367534   5.725312  -0.000329   0.152586  -0.002155
 435   4  -0.330127  -1.488023   5.201294  -0.000225   0.152586  -0.001477
 436   4   1.122085  -1.943957   5.142797  -0.000162   0.152586  -0.001059
 437   4   2.313178  -1.752973   5.422611  -0.000158   0.085163  -0.001858
 438  12   0.158531   4.803179   2.091222  -0.000177   0.070126  -0.002529
 439  12  -0.636908   4.088291   1.738180  -0.000420   0.156005  -0.002693
 440  12  -1.623220   3.201873   2.044095  -0.000422   0.156005  -0.002703
 441  12  -2.260912   2.628782   3.101000  -0.000474   0.156005  -0.003039
 442  12  -2.280155   2.611513   4.461686  -0.000509   0.156005  -0.003265
 443  12  -1.672808   3.157372   5.550401  -0.000349   0.156005  -0.002235
 444  12  -0.895433   3.856026   5.969920  -0.000213   0.070126  -0.003044
 445   4   0.163380   4.355389   1.688506  -0.000329   0.153447  -0.002145
 446   4  -0.967413   3.339114   1.528973  -0.000124   0.153447  -0.000809
 447   4  -1.931964   2.472263   2.338398  -0.000206   0.153447  -0.001340
 448   4  -2.322140   2.121628   3.774286  -0.000308   0.153447  -0.002005
 449   4  -1.972845   2.435575   5.229067  -0.000173   0.153447  -0.001129
 450   4  -1.031877   3.281262   6.087175  -0.000143   0.153447  -0.000931
 451   4   1.257669   1.554028  -0.031542  -0.000088   0.086373  -0.001022
 452  13   1.204500   1.257932  -0.079827  -0.000251   0.086373  -0.002907
 453  14   2.105856   1.425123  -0.502636  -0.000018   0.086373  -0.000210
 454  13   2.139426  -1.859296   2.101342  -0.000189   0.070998  -0.002659
 455  13   1.123420  -2.097751   2.576651  -0.000398   0.158859  -0.002507
 456  13  -0.220059  -1.785896   2.694197  -0.000533   0.158859  -0.003356
 457  13  -1.163943  -0.888954   2.224533  -0.000583   0.158859  -0.003669
 458  13  -1.291061   0.196654   1.375236  -0.000514   0.158859  -0.003237
 459  13  -0.545232   0.991118   0.521673  -0.000356   0.158859  -0.002243
 460  13   0.474394   1.222874   0.050821  -0.000202   0.070998  -0.002848
 461   4   1.961342  -1.959493   2.671396  -0.000241   0.154459  -0.001557
 462   4   0.477145  -2.018561   3.130062  -0.000166   0.154459  -0.001072
 463   4  -0.884749  -1.298844   2.920412  -0.000314   0.154459  -0.002035
 464   4  -1.522424  -0.118434   2.135103  -0.000329   0.154459  -0.002131
 465   4  -1.154043   1.000960   1.121221  -0.000216   0.154459  -0.001400
 466   4   0.057578   1.564599   0.326872  -0.000187   0.154459  -0.001213
 467  14   2.451488   1.595397  -0.930596  -0.000003   0.032485  -0.000096
 468   4   1.241908   1.802114  -0.168401   0.000172   0.046056   0.003733
 469   5   7.158462   5.653477   1.918672   0.000274   0.082443   0.003325
 470   7   7.189147   6.022155   2.797919   0.000109   0.082443   0.001327
 471  15   7.440534   5.547987   1.904927  -0.000091   0.082443  -0.001100
 472   7   6.672342   6.589376   3.163895  -0.000597   0.346243  -0.001725
 473   5   6.241393   6.056964   1.909056   0.002644   0.489052   0.005406
 474   5   3.862179  -1.207718   0.957427   0.000055   0.081799   0.000670
 475  13   2.947547  -1.280241   1.168138  -0.000046   0.081799  -0.000558
 476  14   3.814193  -1.169518   0.662241  -0.000191   0.081799  -0.002329
 477  13   2.556211  -1.598509   1.532741  -0.000158   0.113816  -0.001391
 478   5   3.927924  -1.436258   1.352897   0.000667   0.160836   0.004145
 479  14   2.889593   1.871665  -1.276668  -0.000115   0.067671  -0.001705
 480  14   3.786098   2.175032  -1.849020  -0.000322   0.150441  -0.002140
 481  14   5.057567   1.948155  -2.195806  -0.000525   0.150441  -0.003491
 482  14   6.075114   1.102075  -2.003161  -0.000611   0.150441  -0.004062
 483  14   6.418333  -0.013645  -1.350676  -0.000679   0.150441  -0.004514
 484  14   5.945420  -0.938037  -0.507930  -0.000403   0.150441  -0.002681
 485  14   4.851762  -1.289181   0.176889  -0.000372   0.150441  -0.002470
 486   5   3.172219   2.388614  -1.332057   0.000052   0.148076   0.000349
 487   5   4.519611   2.542354  -1.978442  -0.000102   0.148076  -0.000692
 488   5   5.877368   1.905917  -2.069873  -0.000414   0.148076  -0.002793
 489   5   6.684522   0.742252  -1.568574  -0.000500   0.148076  -0.003377
 490   5   6.607592  -0.467865  -0.681660  -0.000332   0.148076  -0.002243
 491   5   5.678362  -1.224464   0.224433  -0.000118   0.148076  -0.000796
 492   5   4.582581  -1.346993   0.748343   0.000090   0.082675   0.001094
 493   5   9.078436   1.002963   1.952284   0.000218   0.089445   0.002442
 494  15   9.200539   1.278641   1.938790  -0.000054   0.089445  -0.000604
 495  16   9.390400   0.703302   2.884185   0.000360   0.089445   0.004030
 496  15   9.237479   1.495562   1.206392  -0.000175   0.065655  -0.002658
 497  15   9.017369   1.870869   0.223297  -0.000580   0.145050  -0.003996
 498  15   8.572609   2.820237  -0.548142  -0.000672   0.145050  -0.004631
 499  15   8.073194   4.022241  -0.549506  -0.000480   0.145050  -0.003312
 500  15   7.713621   5.008753   0.219735  -0.000370   0.145050  -0.002548
 501  15   7.602176   5.431439   1.201924  -0.000025   0.065655  -0.000382
 502   5   8.949736   1.259791   0.756677  -0.000310   0.144541  -0.002142
 503   5   8.558476   2.014558  -0.433402  -0.000436   0.144541  -0.003020
 504   5   8.000147   3.286751  -0.890392  -0.000400   0.144541  -0.002770
 505   5   7.492193   4.580908  -0.436316  -0.000202   0.144541  -0.001399
 506   5   7.232438   5.393014   0.751984   0.000099   0.144541   0.000684
 507  16   7.062126  -1.517913   4.434471   0.000114   0.240918   0.000472
 508  16   8.120771  -1.340503   3.691708  -0.001043   0.485789  -0.002148
 509  16   9.289305  -0.366776   3.255383  -0.001114   0.485789  -0.002294
 510   5   6.546705  -1.292454   2.952285   0.005993   0.677145   0.008851
 511   5   8.038941  -0.676076   2.085913   0.003999   0.677145   0.005906
 512   5   9.005760   0.445156   1.880507   0.001504   0.343073   0.004383
 513   9   5.082279  -1.433684   7.331418  -0.000365   0.198898  -0.001837
 514   9   5.443478  -1.434932   8.725298  -0.001103   0.407218  -0.002708
 515   6   6.266617  -1.699952   7.549702   0.000770   0.544793   0.001414
 516   6   6.657494  -1.551368   9.132818   0.000639   0.280224   0.002282
 517  10   7.776366   2.762720  11.441369  -0.000286   0.215501  -0.001326
 518  10   8.155732   4.066745  10.692713  -0.001337   0.443627  -0.003014
 519   6   8.854805   2.742121  10.810974   0.000877   0.587951   0.001492
 520   6   9.150697   4.190358   9.849998   0.000750   0.303594   0.002470
 521   6  10.130093   1.274838   3.760672   0.000122   0.100926   0.001205
 522  15   9.589976   1.687595   2.756384   0.000358   0.100926   0.003548
 523  16   9.979415   1.061314   3.601728  -0.000064   0.100926  -0.000636
 524   6  10.350603   2.955275   4.354813   0.000456   0.087141   0.005234
 525  15   9.735953   3.158058   3.333303   0.000293   0.087141   0.003358
 526  17  10.452718   3.159194   4.557381   0.000092   0.087141   0.001060
 527  15   9.743285   2.768039   2.367361  -0.001334   0.463912  -0.002874
 528   6  10.438095   2.014918   3.858022   0.002510   0.677412   0.003705
 529  16  10.411923   0.552306   4.001286  -0.000077   0.070061  -0.001105
 530  16  10.592096  -0.419008   4.551335  -0.000261   0.156174  -0.001670
 531  16  10.074049  -1.511971   5.185920  -0.000272   0.156174  -0.001744
 532  16   8.885431  -2.085081   5.538578  -0.000174   0.156174  -0.001117
 533  16   7.535544  -1.892771   5.458202  -0.000304   0.156174  -0.001945
 534   6  10.768869   0.403862   4.462525  -0.000018   0.152978  -0.000117
 535   6  10.683552  -0.925970   5.222808  -0.000041   0.152978  -0.000269
 536   6   9.669198  -1.916199   5.809575   0.000118   0.152978   0.000773
 537   6   8.160440  -2.142527   5.971405  -0.000002   0.152978  -0.000012
 538   6   6.990602  -1.754727   5.775629  -0.000013   0.085594  -0.000153
 539  17  10.011346   4.555783   8.906207  -0.000072   0.068559  -0.001049
 540  17  10.829616   3.853640   9.140576  -0.000197   0.151843  -0.001297
 541  17  11.750853   2.982449   8.723786  -0.000155   0.151843  -0.001023
 542  17  12.251799   2.405830   7.629287  -0.000198   0.151843  -0.001303
 543  17  12.129216   2.357719   6.301121  -0.000219   0.151843  -0.001442
 544  17  11.432839   2.857637   5.278132  -0.000156   0.151843  -0.001026
 545   6  10.054608   4.112162   9.301864  -0.000130   0.150654  -0.000866
 546   6  11.174014   3.114537   9.309700   0.000106   0.150654   0.000702
 547   6  12.016781   2.256583   8.414130   0.000087   0.150654   0.000580
 548   6  12.240994   1.886377   6.978489   0.000013   0.150654   0.000088
 549   6  11.755690   2.154112   5.585225   0.000081   0.150654   0.000539
 550   6  11.004436   2.733753   4.821798   0.000210   0.083760   0.002506
 551  18   7.708929  -1.685562   9.666436  -0.000092   0.069448  -0.001329
 552  18   8.343483  -2.207210   8.905453  -0.000285   0.154410  -0.001849
 553  18   9.528283  -2.311084   8.259582  -0.000147   0.154410  -0.000954
 554  18  10.758056  -1.751049   8.184035  -0.000273   0.154410  -0.001769
 555  18  11.517131  -0.761939   8.710491  -0.000288   0.154410  -0.001863
 556  18  11.487211   0.241489   9.618195  -0.000198   0.154410  -0.001284
 557  18  10.680842   0.838476  10.526525  -0.000220   0.154410  -0.001425
 558  18   9.436152   0.778691  11.054600  -0.000304   0.154410  -0.001967
 559   6   7.609617  -1.844227   9.096994  -0.000132   0.152026  -0.000868
 560   6   8.694677  -2.335820   8.152374   0.000124   0.152026   0.000818
 561   6  10.128060  -2.065025   7.724113   0.000114   0.152026   0.000749
 562   6  11.308717  -1.145393   7.991790  -0.000061   0.152026  -0.000402
 563   6  11.741571   0.037454   8.843163  -0.000054   0.152026  -0.000353
 564   6  11.245118   0.987522   9.921230   0.000088   0.152026   0.000577
 565   6  10.027530   1.306425  10.773936  -0.000029   0.152026  -0.000189
 566   6   8.861048   1.061445  11.100535   0.000008   0.084846   0.000097
 567   7   8.721288   5.037191   4.318336  -0.000719   0.359743  -0.001998
 568  15   8.877065   4.442053   3.460426  -0.000409   0.359743  -0.001136
 569  17   9.473002   4.397469   4.763141   0.000527   0.359743   0.001465
 570  15   7.957313   5.533346   2.014837  -0.000063   0.321783  -0.000196
 571  15   8.749368   4.972770   2.573242  -0.000860   0.321783  -0.002672
 572   7   8.003444   5.996079   3.536249  -0.001621   0.644580  -0.002515
 573  17  10.077698   4.839533   5.387564  -0.000073   0.253879  -0.000286
 574  17   9.942265   5.345239   6.406072  -0.000569   0.507667  -0.001120
 575  17   9.508000   5.460888   7.459390  -0.000004   0.253879  -0.000017
 576   7   8.894624   5.885856   5.202664  -0.000912   0.507667  -0.001796
 577   7   8.539239   6.273465   6.495094  -0.000777   0.507667  -0.001531
 578  10   4.326887   5.325515  10.163929   0.000134   0.351572   0.000380
 579   8   3.303436   5.717335   9.234926  -0.000015   0.351572  -0.000043
 580  12  -0.429474   4.559764   6.009195   0.000024   0.249860   0.000097
 581  12  -0.189840   5.297651   5.197715  -0.000989   0.499589  -0.001981
 582  12   0.351475   5.682623   4.292631  -0.000279   0.249860  -0.001118
 583   8   0.693966   5.517996   6.619409  -0.001089   0.499589  -0.002179
 584   8   1.181217   6.218572   5.548408  -0.000894   0.499589  -0.001790
 585  11   2.486322  -1.547304   6.544402  -0.000296   0.227544  -0.001303
 586  11   1.824183  -1.250713   7.362084  -0.001826   0.455093  -0.004013
 587  11   1.204031  -0.292972   8.057752  -0.001976   0.455093  -0.004343
 588  11   0.988613   0.765703   8.224486  -0.000592   0.227544  -0.002600
 589   9   3.353440  -1.369991   7.739332  -0.001417   0.455093  -0.003114
 590   9   2.592456  -0.757174   8.651016  -0.001616   0.455093  -0.003550
 591   9   2.177542   0.446022   9.058417  -0.001008   0.455093  -0.002216
 592  14   3.617263  -1.251289   0.244656  -0.000157   0.254736  -0.000614
 593  14   3.006916  -0.635620  -0.589088  -0.001716   0.509631  -0.003368
 594  14   2.487347   0.665877  -1.005815  -0.001427   0.509631  -0.002800
 595  13   2.149996  -1.308958   0.611845  -0.001340   0.509631  -0.002629
 596  13   1.466743  -0.305716  -0.203126  -0.001614   0.509631  -0.003167
 597  13   1.152698   0.849855  -0.315968  -0.000142   0.254736  -0.000558
 598  16   9.926625   0.655206   3.265742   0.000303   0.212201   0.001429
 599  15   9.589706   1.617608   2.016892   0.000152   0.212201   0.000718
 600  17  10.658614   3.580670   4.554438   0.000622   0.258856   0.002402
 601  17  10.311095   4.190497   4.733810   0.000414   0.258856   0.001599
 602  15   9.599638   3.931973   2.771375  -0.000695   0.516801  -0.001345
 =====================================================

              3173004  WORDS OF DYNAMIC MEMORY USED
 EXECUTION OF GAMESS TERMINATED NORMALLY Wed Nov 23 07:34:32 2016
 DDI: 263640 bytes (0.3 MB / 0 MWords) used by master data server.

 ----------------------------------------
 CPU timing information for all processes
 ========================================
 0: 1207.984 + 0.540 = 1208.524
 ----------------------------------------
 ddikick.x: exited gracefully.
