----- GAMESS execution script -----

          ******************************************************
          *         GAMESS VERSION =  5 DEC 2014 (R1)          *
          *             FROM IOWA STATE UNIVERSITY             *
          * M.W.SCHMIDT, K.K.BALDRIDGE, J.A.BOATZ, S.T.ELBERT, *
          *   M.S.GORDON, J.H.JENSEN, S.KOSEKI, N.MATSUNAGA,   *
          *          K.A.NGUYEN, S.J.SU, T.L.WINDUS,           *
          *       TOGETHER WITH M.DUPUIS, J.A.MONTGOMERY       *
          *         J.COMPUT.CHEM.  14, 1347-1363(1993)        *
          **************** 64 BIT LINUX VERSION ****************

 EXECUTION OF GAMESS BEGUN Wed Nov 23 07:39:24 2016

            ECHO OF THE FIRST FEW INPUT CARDS -
 INPUT CARD>! SELECT RESTRICTED HARTREE-FOCK AS DEFAULT                                     
 INPUT CARD>$contrl scftyp=rhf $end                                                         
 INPUT CARD>                                                                                
 INPUT CARD>! THEORY: HF OR DFT                                                             
 INPUT CARD> $contrl mplevl=0 $end                                                          
 INPUT CARD>                                                                                
 INPUT CARD> $system timlim=10000 mwords=20 $end                                            
 INPUT CARD> $SCF DIRSCF=.TRUE. $end                                                        
 INPUT CARD>                                                                                
 INPUT CARD>                                                                                
 INPUT CARD>! BASIS SETS                                                                    
 INPUT CARD>! 6-311G(d,p)                                                                   
 INPUT CARD> $BASIS GBASIS=N311 NGAUSS=6 NDFUNC=1 NPFUNC=1 $END                             
 INPUT CARD>                                                                                
 INPUT CARD>! One of the following                                                          
 INPUT CARD> $guess guess=HUCKEL $end                                                       
 INPUT CARD>                                                                                
 INPUT CARD> $statpt projct=.FALSE. $end                                                    
 INPUT CARD> $STATPT IFREEZ(1)=1,2,3 $END                                                   
 INPUT CARD>                                                                                
 INPUT CARD>! Optimize the geometry with COSMO effects                                      
 INPUT CARD> $statpt opttol=0.0005 nstep=50 $end                                            
 INPUT CARD> $contrl nzvar=1 $end                                                           
 INPUT CARD> $zmat dlc=.t. auto=.t. $end                                                    
 INPUT CARD> $contrl runtyp=OPTIMIZE maxit=200 $end                                         
 INPUT CARD>                                                                                
 INPUT CARD>! Run COSMO on perfect conductor                                                
 INPUT CARD> $COSGMS PRFCND=.TRUE. $end                                                     
 INPUT CARD>                                                                                
 INPUT CARD>! Specifying RSOLV                                                              
 INPUT CARD> $COSGMS COSRAD = 1.4 $end                                                      
 INPUT CARD>                                                                                
 INPUT CARD>! available memory                                                              
 INPUT CARD> $SYSTEM MWORDS=40 $END                                                         
 INPUT CARD>                                                                                
 INPUT CARD> $DATA                                                                          
 INPUT CARD>Anthracene, 2-methyl-, ID: C613127                                              
 INPUT CARD>C1                                                                              
 INPUT CARD>C      6.0      4.0154000000    1.4195000000    0.8734000000                    
 INPUT CARD>C      6.0      3.2756000000    1.2800000000    2.1547000000                    
 INPUT CARD>C      6.0      3.8158000000    1.7331000000    3.3238000000                    
 INPUT CARD>C      6.0      1.9940000000    0.6461000000    2.1545000000                    
 INPUT CARD>C      6.0      3.1090000000    1.5867000000    4.5597000000                    
 INPUT CARD>C      6.0      1.3010000000    0.4870000000    3.3127000000                    
 INPUT CARD>C      6.0      1.8382000000    0.9530000000    4.5568000000                    
 INPUT CARD>C      6.0      3.6500000000    2.0512000000    5.7616000000                    
 INPUT CARD>C      6.0      1.1381000000    0.7974000000    5.7554000000                    
 INPUT CARD>C      6.0      2.9503000000    1.8973000000    6.9611000000                    
 INPUT CARD>C      6.0      1.6780000000    1.2603000000    6.9581000000                    
 INPUT CARD>C      6.0      3.4854000000    2.3700000000    8.2040000000                    
   40000000 WORDS OF MEMORY AVAILABLE

     BASIS OPTIONS
     -------------
     GBASIS=N311         IGAUSS=       6      POLAR=POPN311 
     NDFUNC=       1     NFFUNC=       0     DIFFSP=       F
     NPFUNC=       1      DIFFS=       F     BASNAM=        


     RUN TITLE
     ---------
 Anthracene, 2-methyl-, ID: C613127                                              

 THE POINT GROUP OF THE MOLECULE IS C1      
 THE ORDER OF THE PRINCIPAL AXIS IS     0

 ATOM      ATOMIC                      COORDINATES (BOHR)
           CHARGE         X                   Y                   Z
 C           6.0     7.5880057311        2.6824660396        1.6504866777
 C           6.0     6.1899864454        2.4188492643        4.0717925857
 C           6.0     7.2108164239        3.2750841093        6.2810712380
 C           6.0     3.7681136195        1.2209519607        4.0714146405
 C           6.0     5.8751580958        2.9984282247        8.6165835862
 C           6.0     2.4585335100        0.9202965560        6.2600952795
 C           6.0     3.4736943106        1.8009088663        8.6111033809
 C           6.0     6.8974998552        3.8762059460       10.8878452509
 C           6.0     2.1506971466        1.5068675026       10.8761289497
 C           6.0     5.5752585816        3.5853771165       13.1545715731
 C           6.0     3.1709602074        2.3816216623       13.1489023952
 C           6.0     6.5864509576        4.4786505909       15.5033120033
 C           6.0     1.8456953722        2.0890920794       15.4927295377
 C           6.0     5.2685560538        4.1768613507       17.6884021629
 C           6.0     2.8669032960        2.9596888420       17.6844337383
 H           1.0     6.3585500035        2.4180933739        0.0000000000
 H           1.0     9.1039439184        1.2685730556        1.5312449679
 H           1.0     8.4671062606        4.5544286030        1.4804113388
 H           1.0     9.0676611795        4.1950027201        6.3039369224
 H           1.0     2.9920031564        0.5514220432        2.2716396098
 H           1.0     0.6032005353        0.0000000000        6.2755910326
 H           1.0     8.7528328299        4.8004709266       10.8908688124
 H           1.0     0.2959310897        0.5810907412       10.8704597718
 H           1.0     8.4372485900        5.4070729687       15.4887611132
 H           1.0     0.0000000000        1.1508431265       15.4706197437
 H           1.0     6.0276589830        4.8594303774       19.4876102758
 H           1.0     1.8681831115        2.7397247370       19.4826969882

          INTERNUCLEAR DISTANCES (ANGS.)




     $CONTRL OPTIONS
     ---------------
 SCFTYP=RHF          RUNTYP=OPTIMIZE     EXETYP=RUN     
 MPLEVL=       0     CITYP =NONE         CCTYP =NONE         VBTYP =NONE    
 DFTTYP=NONE         TDDFT =NONE    
 MULT  =       1     ICHARG=       0     NZVAR =       1     COORD =UNIQUE  
 PP    =NONE         RELWFN=NONE         LOCAL =NONE         NUMGRD=       F
 ISPHER=      -1     NOSYM =       0     MAXIT =     200     UNITS =ANGS    
 PLTORB=       F     MOLPLT=       F     AIMPAC=       F     FRIEND=        
 NPRINT=       7     IREST =       0     GEOM  =INPUT   
 NORMF =       0     NORMP =       0     ITOL  =      20     ICUT  =       9
 INTTYP=BEST         GRDTYP=BEST         QMTTOL= 1.0E-06

     $SYSTEM OPTIONS
     ---------------
  REPLICATED MEMORY=    40000000 WORDS (ON EVERY NODE).
 DISTRIBUTED MEMDDI=           0 MILLION WORDS IN AGGREGATE,
 MEMDDI DISTRIBUTED OVER   1 PROCESSORS IS           0 WORDS/PROCESSOR.
 TOTAL MEMORY REQUESTED ON EACH PROCESSOR=    40000000 WORDS.
 TIMLIM=       10000.00 MINUTES, OR       6.9 DAYS.
 PARALL= F  BALTYP=  DLB     KDIAG=    0  COREFL= F
 MXSEQ2=     300 MXSEQ3=     150  mem10=         0

     $COSGMS OPTIONS
     ---------------
     EPSI  =   INFTY     NSPA  =      92     COSRAD=    1.40
     DISEX =   10.00     OUTCHG=DBLCAV       COSBUG=       F
     COSWRT=       F     DCOSMO=       F

     SYMMETRY COORDINATES WILL NOT BE USED FOR 
     THE COSMO CALCULATION, EVEN IF SPECIFIED:
         -- SWITCHING TO C1 POINT GROUP --


     DEFINITION OF CAVITY
     ---------------------------
     ATOM         COORDINATES           RADIUS 
     1    7.5880    2.6825    1.6505    2.0000
     2    6.1900    2.4188    4.0718    2.0000
     3    7.2108    3.2751    6.2811    2.0000
     4    3.7681    1.2210    4.0714    2.0000
     5    5.8752    2.9984    8.6166    2.0000
     6    2.4585    0.9203    6.2601    2.0000
     7    3.4737    1.8009    8.6111    2.0000
     8    6.8975    3.8762   10.8878    2.0000
     9    2.1507    1.5069   10.8761    2.0000
    10    5.5753    3.5854   13.1546    2.0000
    11    3.1710    2.3816   13.1489    2.0000
    12    6.5865    4.4787   15.5033    2.0000
    13    1.8457    2.0891   15.4927    2.0000
    14    5.2686    4.1769   17.6884    2.0000
    15    2.8669    2.9597   17.6844    2.0000
    16    6.3586    2.4181    0.0000    1.3000
    17    9.1039    1.2686    1.5312    1.3000
    18    8.4671    4.5544    1.4804    1.3000
    19    9.0677    4.1950    6.3039    1.3000
    20    2.9920    0.5514    2.2716    1.3000
    21    0.6032    0.0000    6.2756    1.3000
    22    8.7528    4.8005   10.8909    1.3000
    23    0.2959    0.5811   10.8705    1.3000
    24    8.4372    5.4071   15.4888    1.3000
    25    0.0000    1.1508   15.4706    1.3000
    26    6.0277    4.8594   19.4876    1.3000
    27    1.8682    2.7397   19.4827    1.3000

          ----------------
          PROPERTIES INPUT
          ----------------

     MOMENTS            FIELD           POTENTIAL          DENSITY
 IEMOM =       1   IEFLD =       0   IEPOT =       0   IEDEN =       0
 WHERE =COMASS     WHERE =NUCLEI     WHERE =NUCLEI     WHERE =NUCLEI  
 OUTPUT=BOTH       OUTPUT=BOTH       OUTPUT=BOTH       OUTPUT=BOTH    
 IEMINT=       0   IEFINT=       0                     IEDINT=       0
                                                       MORB  =       0
          EXTRAPOLATION IN EFFECT
          SOSCF IN EFFECT
 ORBITAL PRINTING OPTION: NPREO=     1   357     2     1

     -------------------------------
     INTEGRAL TRANSFORMATION OPTIONS
     -------------------------------
     NWORD  =            0
     CUTOFF = 1.0E-09     MPTRAN =       0
     DIRTRF =       T     AOINTS =DUP     

          ----------------------
          INTEGRAL INPUT OPTIONS
          ----------------------
 NOPK  =       1 NORDER=       0 SCHWRZ=       T


 -----------------------------------------------
  STATISTICS ON AUTOMATIC COORDINATE GENERATION 
 -----------------------------------------------
  NUMBER OF USER SPECIFIED BONDS                             0
  NUMBER OF BONDS                                           29
  NUMBER OF ANGLES                                          48
  NUMBER OF TORSIONS                                        70
  NUMBER OF EXTRA COORD.                                     0
  NUMBER OF EXTRA COORD. FOR CONSTRAINTS                     0
  NUMBER OF CONSTRAINED COORD.                               0

  TOTAL NUMBER OF PRIMITIVES                               147
 -----------------------------------------------

   --- ENCODED Z MATRIX ---
 COORD  TYPE   I   J   K   L   M   N
    1      1    1  17
    2      1    1  18
    3      1    1  16
    4      1    1   2
    5      1    2   3
    6      1    2   4
    7      1    3  19
    8      1    3   5
    9      1    4  20
   10      1    4   6
   11      1    5   7
   12      1    5   8
   13      1    6  21
   14      1    6   7
   15      1    7   9
   16      1    8  22
   17      1    8  10
   18      1    9  23
   19      1    9  11
   20      1   10  12
   21      1   10  11
   22      1   11  13
   23      1   12  14
   24      1   12  24
   25      1   13  25
   26      1   13  15
   27      1   14  26
   28      1   14  15
   29      1   15  27
   30      2    1   2   3
   31      2    1   2   4
   32      2    2   4  20
   33      2    2   1  18
   34      2    2   4   6
   35      2    2   3   5
   36      2    2   1  17
   37      2    2   1  16
   38      2    2   3  19
   39      2    3   5   7
   40      2    3   2   4
   41      2    3   5   8
   42      2    4   6  21
   43      2    4   6   7
   44      2    5   8  10
   45      2    5   7   9
   46      2    5   7   6
   47      2    5   3  19
   48      2    5   8  22
   49      2    6   7   9
   50      2    6   4  20
   51      2    7   9  11
   52      2    7   9  23
   53      2    7   6  21
   54      2    7   5   8
   55      2    8  10  11
   56      2    8  10  12
   57      2    9  11  13
   58      2    9  11  10
   59      2   10   8  22
   60      2   10  11  13
   61      2   10  12  24
   62      2   10  12  14
   63      2   11  13  15
   64      2   11  13  25
   65      2   11  10  12
   66      2   11   9  23
   67      2   12  14  15
   68      2   12  14  26
   69      2   13  15  27
   70      2   13  15  14
   71      2   14  15  27
   72      2   14  12  24
   73      2   15  14  26
   74      2   15  13  25
   75      2   16   1  18
   76      2   16   1  17
   77      2   17   1  18
   78      3    1   2   3  19
   79      3    1   2   4   6
   80      3    1   2   3   5
   81      3    1   2   4  20
   82      3    2   3   5   8
   83      3    2   3   5   7
   84      3    2   4   6   7
   85      3    2   4   6  21
   86      3    3   5   7   6
   87      3    3   2   4   6
   88      3    3   2   1  16
   89      3    3   2   4  20
   90      3    3   5   8  10
   91      3    3   5   8  22
   92      3    3   2   1  18
   93      3    3   2   1  17
   94      3    3   5   7   9
   95      3    4   2   1  18
   96      3    4   2   3  19
   97      3    4   2   1  17
   98      3    4   6   7   9
   99      3    4   6   7   5
  100      3    4   2   3   5
  101      3    4   2   1  16
  102      3    5   7   6  21
  103      3    5   7   9  11
  104      3    5   7   9  23
  105      3    5   8  10  11
  106      3    5   8  10  12
  107      3    6   7   5   8
  108      3    6   7   9  11
  109      3    6   7   9  23
  110      3    7   5   8  22
  111      3    7   5   3  19
  112      3    7   5   8  10
  113      3    7   6   4  20
  114      3    7   9  11  13
  115      3    7   9  11  10
  116      3    8   5   7   9
  117      3    8  10  12  24
  118      3    8  10  12  14
  119      3    8  10  11  13
  120      3    8  10  11   9
  121      3    8   5   3  19
  122      3    9  11  10  12
  123      3    9  11  13  15
  124      3    9  11  13  25
  125      3    9   7   6  21
  126      3   10  12  14  15
  127      3   10  12  14  26
  128      3   10  11  13  15
  129      3   10  11  13  25
  130      3   10  11   9  23
  131      3   11  13  15  27
  132      3   11  13  15  14
  133      3   11  10  12  14
  134      3   11  10  12  24
  135      3   11  10   8  22
  136      3   12  14  15  27
  137      3   12  14  15  13
  138      3   12  10  11  13
  139      3   12  10   8  22
  140      3   13  11   9  23
  141      3   13  15  14  26
  142      3   14  15  13  25
  143      3   15  14  12  24
  144      3   20   4   6  21
  145      3   24  12  14  26
  146      3   25  13  15  27
  147      3   26  14  15  27

          INDEP./SYM. INTERNAL COORDINATES
          --------------------------------
 CRD  1=  -0.2163 (  5) -0.2154 (  8)  0.1675 ( 10) -0.2410 ( 12)  0.1346 ( 14)
           0.1833 ( 15) -0.2392 ( 17)  0.1983 ( 19) -0.1185 ( 20) -0.1160 ( 23)
           0.1021 ( 26) -0.2937 ( 30)  0.3199 ( 31)  0.1622 ( 39) -0.2931 ( 41)
          -0.1121 ( 45) -0.1509 ( 46)  0.2630 ( 49)  0.1309 ( 54) -0.2205 ( 56)
           0.2038 ( 57) -0.1527 ( 60)  0.1629 ( 65)
 CRD  2=  -0.1373 ( 36) -0.2027 ( 79)  0.2696 ( 80) -0.1108 ( 81) -0.2114 ( 82)
          -0.1172 ( 87) -0.1087 ( 88)  0.3127 ( 90)  0.1291 ( 91) -0.1927 ( 94)
           0.2607 ( 98)  0.1513 ( 99)  0.1831 (100) -0.1126 (103) -0.1224 (105)
          -0.2252 (106) -0.2231 (108)  0.1816 (112) -0.1463 (113)  0.2593 (114)
           0.1718 (115)  0.1808 (118) -0.1401 (119) -0.1185 (123)  0.1238 (125)
 CRD  3=   0.2057 (  4)  0.1726 (  5)  0.2610 (  8)  0.1186 ( 14)  0.3013 ( 15)
           0.2396 ( 19)  0.2691 ( 22)  0.1405 ( 26)  0.3813 ( 30) -0.2657 ( 31)
          -0.1171 ( 32)  0.1357 ( 33)  0.1089 ( 34) -0.1157 ( 40)  0.1246 ( 44)
          -0.1465 ( 46)  0.1307 ( 49) -0.1100 ( 54) -0.1335 ( 56)  0.2767 ( 57)
          -0.1528 ( 58) -0.1005 ( 59) -0.1239 ( 60)
 CRD  4=   0.2394 (  4)  0.1574 (  6)  0.1606 (  8)  0.1912 ( 10)  0.2557 ( 12)
           0.1884 ( 14)  0.1310 ( 15)  0.2577 ( 17)  0.2730 ( 20)  0.1384 ( 23)
          -0.2579 ( 30)  0.3584 ( 31)  0.1785 ( 35)  0.2004 ( 37) -0.1628 ( 38)
          -0.1005 ( 40)  0.1132 ( 51) -0.1332 ( 55)  0.2509 ( 56) -0.1177 ( 65)
          -0.1003 ( 66) -0.1065 ( 72)
 CRD  5=   0.1603 ( 79)  0.1007 ( 81) -0.1945 ( 82) -0.1467 ( 83) -0.1012 ( 84)
           0.2010 ( 86)  0.1591 ( 87)  0.1678 ( 94) -0.1245 (102) -0.1908 (103)
          -0.1016 (104) -0.1780 (105) -0.2119 (106)  0.2480 (107) -0.2249 (108)
          -0.1357 (109) -0.1173 (110) -0.1145 (111)  0.2148 (116)  0.1325 (119)
           0.2019 (120) -0.1622 (121)  0.2350 (122) -0.2097 (123) -0.1631 (124)
          -0.1391 (128) -0.1059 (130) -0.1217 (134)  0.1132 (137)  0.1656 (138)
          -0.1239 (139)
 CRD  6=  -0.2427 (  4) -0.2082 (  6) -0.1568 (  8)  0.3029 ( 14)  0.1531 ( 19)
           0.2548 ( 20)  0.1314 ( 30) -0.2749 ( 31) -0.1207 ( 32) -0.1379 ( 37)
           0.1434 ( 40) -0.1847 ( 41) -0.1307 ( 42) -0.2356 ( 45)  0.2597 ( 49)
           0.1456 ( 50)  0.2059 ( 53)  0.2059 ( 54) -0.2046 ( 55)  0.2037 ( 56)
          -0.1238 ( 57)  0.1727 ( 58)  0.1121 ( 61)
 CRD  7=  -0.3785 (  4) -0.1088 (  5) -0.1406 (  6) -0.1577 ( 10)  0.1329 ( 12)
           0.1017 ( 17)  0.2131 ( 19)  0.2583 ( 22)  0.1363 ( 26) -0.2289 ( 30)
          -0.1612 ( 33) -0.1473 ( 34) -0.1240 ( 36) -0.1443 ( 38) -0.1725 ( 39)
           0.2328 ( 40)  0.2192 ( 41)  0.1151 ( 46)  0.1852 ( 47) -0.1596 ( 49)
          -0.2298 ( 52)  0.2360 ( 57) -0.1310 ( 58) -0.1049 ( 60)  0.1545 ( 66)
           0.1206 ( 77)
 CRD  8=   0.1268 (  4)  0.2337 (  5)  0.2918 ( 12)  0.1401 ( 14) -0.1139 ( 15)
          -0.3326 ( 17) -0.1084 ( 21) -0.2394 ( 22) -0.1532 ( 23) -0.1717 ( 39)
           0.1384 ( 41) -0.1142 ( 45)  0.1441 ( 46) -0.1191 ( 47)  0.3249 ( 48)
          -0.1603 ( 56)  0.1370 ( 58) -0.3388 ( 59) -0.1476 ( 60) -0.1219 ( 64)
           0.2179 ( 65) -0.1214 ( 67)  0.1171 ( 73)  0.1064 ( 74)
 CRD  9=  -0.1336 (  4) -0.1190 (  5) -0.1341 (  6)  0.1969 (  8)  0.2002 ( 11)
           0.1242 ( 12)  0.1935 ( 14)  0.2707 ( 15) -0.2522 ( 19) -0.2383 ( 20)
          -0.1449 ( 21) -0.2061 ( 38)  0.1019 ( 40)  0.1360 ( 41) -0.1024 ( 42)
           0.2113 ( 47)  0.1694 ( 48)  0.1429 ( 49)  0.2905 ( 52) -0.1056 ( 54)
           0.1435 ( 55) -0.1339 ( 57) -0.1424 ( 59)  0.1246 ( 60) -0.1159 ( 61)
          -0.3156 ( 66)  0.1045 ( 72)
 CRD 10=  -0.3400 ( 33)  0.4649 ( 36) -0.1401 ( 37)  0.1224 ( 75) -0.1650 ( 78)
           0.1959 ( 79) -0.2485 ( 80)  0.1509 ( 81)  0.1228 ( 82)  0.1985 ( 88)
          -0.1104 ( 95) -0.1203 (100)  0.1189 (112)  0.2074 (114)  0.1440 (115)
           0.1278 (117)  0.2026 (118) -0.1649 (119) -0.1030 (120) -0.1016 (127)
           0.1189 (131)  0.1113 (132)  0.1417 (133) -0.1051 (138)  0.1338 (140)
 CRD 11=   0.2453 ( 11)  0.1521 ( 18)  0.2458 ( 21) -0.2735 ( 23) -0.2513 ( 26)
          -0.1679 ( 27) -0.3414 ( 28) -0.2172 ( 29)  0.1092 ( 47) -0.1459 ( 51)
           0.2992 ( 61) -0.1274 ( 62) -0.1025 ( 63)  0.2434 ( 64)  0.1252 ( 67)
           0.1892 ( 70) -0.2005 ( 71) -0.1718 ( 72) -0.1741 ( 73) -0.1410 ( 74)
 CRD 12=  -0.2612 (  5)  0.2399 (  8) -0.1525 (  9)  0.1285 ( 11) -0.1654 ( 14)
          -0.1109 ( 16)  0.1873 ( 18)  0.1165 ( 19)  0.2210 ( 20) -0.1931 ( 22)
           0.1095 ( 23)  0.1437 ( 26)  0.1959 ( 27)  0.2060 ( 28)  0.1175 ( 33)
           0.1713 ( 34) -0.1429 ( 37) -0.2245 ( 38)  0.1090 ( 44)  0.1077 ( 45)
           0.3185 ( 47) -0.1519 ( 51)  0.1126 ( 58) -0.1865 ( 64)  0.1129 ( 65)
           0.1272 ( 66) -0.1772 ( 67) -0.1338 ( 69)  0.1296 ( 73)  0.1018 ( 74)
 CRD 13=   0.3121 ( 23) -0.1375 ( 25) -0.3773 ( 26) -0.1146 ( 29) -0.2000 ( 61)
           0.2239 ( 64) -0.1205 ( 67)  0.3433 ( 68) -0.2915 ( 69)  0.1311 ( 70)
           0.1604 ( 71)  0.2962 ( 72) -0.2228 ( 73) -0.3192 ( 74)
 CRD 14=  -0.1333 (  5) -0.3347 (  6) -0.1535 (  7)  0.1523 ( 10) -0.2696 ( 11)
          -0.1495 ( 13) -0.1726 ( 14) -0.1819 ( 16) -0.1522 ( 21) -0.1467 ( 22)
          -0.2032 ( 23) -0.2225 ( 28) -0.1028 ( 29) -0.2295 ( 32) -0.1142 ( 33)
           0.1161 ( 35)  0.1421 ( 37) -0.1402 ( 38)  0.1513 ( 42)  0.1045 ( 43)
           0.1190 ( 44)  0.2704 ( 50) -0.2559 ( 53)  0.1391 ( 61)  0.1261 ( 69)
          -0.1704 ( 71) -0.1458 ( 72)
 CRD 15=   0.2505 (  6)  0.1027 (  7)  0.1207 ( 13) -0.1031 ( 16) -0.1006 ( 18)
          -0.3300 ( 21) -0.2047 ( 24) -0.2062 ( 25) -0.3924 ( 28)  0.1817 ( 33)
          -0.1187 ( 35) -0.2605 ( 37) -0.1188 ( 43) -0.1426 ( 61)  0.1666 ( 62)
           0.1678 ( 63) -0.1419 ( 64)  0.2287 ( 68)  0.2249 ( 69) -0.1407 ( 71)
          -0.1412 ( 73)
 CRD 16=   0.1269 (  6)  0.1657 (  9)  0.4663 ( 10)  0.2146 ( 13)  0.1245 ( 28)
          -0.2617 ( 32)  0.1604 ( 33) -0.2079 ( 37)  0.1117 ( 40)  0.4010 ( 42)
          -0.1497 ( 43)  0.1284 ( 46) -0.1145 ( 49)  0.3530 ( 50) -0.2513 ( 53)
 CRD 17=  -0.1247 ( 11) -0.1283 ( 16) -0.1097 ( 18) -0.1501 ( 21) -0.2780 ( 23)
          -0.1143 ( 24) -0.1164 ( 25) -0.2737 ( 26)  0.1014 ( 32)  0.1081 ( 33)
          -0.1612 ( 37)  0.1699 ( 61)  0.1609 ( 64) -0.2924 ( 68) -0.2965 ( 69)
           0.3325 ( 71) -0.2553 ( 72)  0.3375 ( 73) -0.2482 ( 74)
 CRD 18=  -0.1212 (  3) -0.1489 (  5) -0.1854 (  7) -0.2179 ( 11) -0.1168 ( 13)
          -0.1111 ( 16) -0.1535 ( 18)  0.1936 ( 24)  0.1983 ( 25)  0.1644 ( 32)
           0.2836 ( 33) -0.1010 ( 34)  0.1434 ( 35) -0.3798 ( 37) -0.1511 ( 38)
          -0.1155 ( 42)  0.1100 ( 43)  0.1006 ( 44)  0.1360 ( 51)  0.1124 ( 60)
          -0.2086 ( 62) -0.2118 ( 63)  0.1016 ( 65)  0.1154 ( 67) -0.1445 ( 71)
           0.1315 ( 72) -0.1566 ( 73)  0.1151 ( 74)  0.1167 ( 76) -0.1519 ( 77)
 CRD 19=  -0.1479 (  1)  0.1020 (  2)  0.2619 ( 33) -0.3995 ( 36)  0.1171 ( 37)
          -0.1708 ( 75)  0.1279 ( 76) -0.1641 ( 80)  0.1958 ( 82)  0.1744 ( 83)
           0.1514 ( 84)  0.1180 ( 88)  0.1659 ( 92)  0.1520 ( 93)  0.1967 ( 95)
           0.1829 ( 97) -0.1786 ( 98) -0.1676 ( 99) -0.1953 (100)  0.1488 (101)
          -0.1115 (102)  0.1699 (118) -0.1724 (123) -0.1224 (125) -0.1231 (126)
          -0.1483 (127) -0.1218 (128)  0.1468 (131)  0.1206 (132)  0.1179 (133)
 CRD 20=  -0.1383 (  4)  0.2057 (  5)  0.1772 (  6)  0.3324 (  7)  0.1209 (  8)
          -0.1209 ( 12) -0.2774 ( 16) -0.1056 ( 18)  0.1387 ( 20)  0.1549 ( 24)
           0.1473 ( 25) -0.2114 ( 33) -0.2578 ( 35)  0.1519 ( 37)  0.1854 ( 38)
           0.1548 ( 39)  0.1118 ( 40)  0.2625 ( 44) -0.1600 ( 48)  0.1298 ( 51)
          -0.1502 ( 54) -0.1156 ( 55) -0.1025 ( 59)  0.1459 ( 61) -0.1517 ( 62)
          -0.1473 ( 63) -0.1563 ( 66)  0.1192 ( 70)  0.1259 ( 77)
 CRD 21=   0.1921 (  4) -0.1651 (  5) -0.1053 (  6) -0.3005 (  9)  0.2882 ( 13)
          -0.2552 ( 15) -0.2627 ( 18) -0.2617 ( 32)  0.2721 ( 34)  0.1802 ( 37)
          -0.3024 ( 43) -0.1006 ( 45)  0.1063 ( 47)  0.1960 ( 51) -0.2375 ( 52)
           0.3058 ( 53)
 CRD 22=   0.1152 (  1) -0.1759 ( 33)  0.2460 ( 36)  0.1276 ( 75) -0.1733 ( 79)
           0.1106 ( 83)  0.1434 ( 84)  0.1157 ( 85) -0.1469 ( 86) -0.1818 ( 87)
           0.1725 ( 88)  0.1118 ( 90)  0.1318 ( 91)  0.1650 ( 92)  0.1683 ( 93)
           0.1564 ( 95)  0.1597 ( 97)  0.1639 (101) -0.1404 (106)  0.1203 (108)
           0.1319 (109) -0.1358 (114) -0.1011 (115)  0.1515 (119)  0.1177 (120)
           0.1580 (122) -0.1082 (124) -0.1195 (128) -0.1426 (129) -0.1127 (130)
          -0.1317 (134) -0.1190 (135)  0.1269 (136)  0.1604 (137)  0.1919 (138)
          -0.1604 (139) -0.1474 (140)  0.1305 (141)
 CRD 23=   0.1288 ( 16)  0.1711 ( 17) -0.1376 ( 18) -0.1708 ( 19) -0.2618 ( 24)
           0.2569 ( 25)  0.3474 ( 27) -0.3529 ( 29)  0.1411 ( 59) -0.1604 ( 61)
           0.1868 ( 62) -0.1887 ( 63)  0.1568 ( 64) -0.1214 ( 66) -0.3206 ( 67)
           0.1375 ( 68) -0.1384 ( 69)  0.3211 ( 70) -0.1827 ( 71)  0.1831 ( 73)
 CRD 24=   0.1273 ( 81)  0.2495 ( 88)  0.1578 ( 89)  0.2477 ( 92)  0.2522 ( 93)
           0.2784 ( 95)  0.2828 ( 97)  0.2801 (101) -0.1263 (102) -0.1041 (104)
          -0.1495 (108) -0.1597 (109) -0.1410 (113) -0.1617 (118) -0.1234 (121)
           0.1816 (123)  0.1380 (124)  0.1847 (126)  0.1766 (127)  0.1834 (128)
           0.1399 (129) -0.1391 (131) -0.1311 (132) -0.1272 (133)  0.1140 (143)
           0.1059 (145)
 CRD 25=   0.1254 (  5)  0.1332 (  7)  0.2187 (  8)  0.2386 (  9) -0.1637 ( 12)
           0.2647 ( 14) -0.2434 ( 20) -0.2418 ( 22) -0.1313 ( 23) -0.1296 ( 26)
          -0.1388 ( 27) -0.1248 ( 29) -0.1211 ( 34) -0.1875 ( 38) -0.1710 ( 42)
           0.1791 ( 47) -0.2968 ( 48) -0.2294 ( 52)  0.2892 ( 59)  0.2447 ( 66)
           0.1488 ( 72)  0.1431 ( 74)
 CRD 26=  -0.1185 ( 36) -0.2045 ( 78) -0.1611 ( 80)  0.1373 ( 82)  0.1302 ( 83)
           0.1767 ( 90)  0.2108 ( 91) -0.1083 ( 92) -0.1527 ( 95) -0.1597 ( 96)
          -0.1399 ( 97) -0.1163 (100) -0.1024 (101) -0.1451 (105) -0.1706 (106)
           0.2180 (110)  0.1726 (111)  0.1839 (112) -0.1466 (117) -0.1450 (118)
           0.1798 (121)  0.1406 (123)  0.1067 (124)  0.1053 (126)  0.1115 (128)
          -0.1529 (131) -0.1813 (132) -0.1704 (133) -0.1719 (134) -0.1792 (135)
          -0.2047 (139) -0.1465 (142)  0.1069 (143) -0.1181 (146)
 CRD 27=   0.4238 (  1)  0.4337 (  2)  0.4342 (  3) -0.2213 ( 33) -0.2228 ( 36)
          -0.2269 ( 37) -0.1096 ( 40)  0.2438 ( 75)  0.2409 ( 76)  0.2321 ( 77)
 CRD 28=  -0.1276 (  1) -0.1129 ( 75)  0.2364 ( 79)  0.2196 ( 81) -0.2744 ( 84)
          -0.2863 ( 85)  0.1676 ( 87)  0.1714 ( 88)  0.1508 ( 89)  0.1241 ( 93)
           0.2419 ( 98)  0.2104 ( 99)  0.1022 (101)  0.2220 (102)  0.1152 (103)
           0.1784 (104)  0.1467 (109) -0.2572 (113)  0.2534 (125) -0.1255 (130)
          -0.1506 (140) -0.2691 (144)
 CRD 29=  -0.3558 (  1)  0.2271 (  2)  0.1153 (  3)  0.2415 ( 75) -0.1594 ( 76)
           0.1072 ( 85) -0.1810 ( 88) -0.1224 ( 94)  0.1209 ( 95) -0.1409 ( 96)
          -0.1349 (101) -0.1083 (102)  0.1368 (103)  0.2314 (104)  0.1286 (105)
           0.1085 (107)  0.1095 (109) -0.2095 (110)  0.1352 (111) -0.1224 (112)
          -0.1304 (115) -0.1331 (119)  0.1341 (122)  0.1577 (129) -0.2250 (130)
          -0.1616 (134)  0.2157 (135) -0.1002 (136)  0.1157 (141) -0.1667 (142)
           0.1597 (143)
 CRD 30=   0.1354 (  1)  0.4481 (  2) -0.5350 (  3) -0.3088 ( 76)  0.3933 ( 77)
          -0.1820 ( 92)  0.2538 ( 93) -0.1808 ( 95)  0.2550 ( 97)
 CRD 31=  -0.4730 (  1)  0.3184 (  2)  0.1343 (  3)  0.3094 ( 75) -0.2160 ( 76)
          -0.1948 ( 88)  0.1700 ( 92)  0.1608 ( 95) -0.2040 (101) -0.1675 (104)
           0.1629 (110)  0.1083 (119) -0.1084 (122) -0.1346 (129)  0.1657 (130)
           0.1354 (134) -0.1646 (135)  0.1390 (142) -0.1371 (143)
 CRD 32=   0.1942 (  1)  0.1835 (  2)  0.2790 (  3)  0.2947 (  4)  0.1670 (  9)
          -0.1057 ( 10) -0.2209 ( 12) -0.1221 ( 13) -0.1854 ( 15) -0.1164 ( 16)
          -0.2509 ( 17) -0.1543 ( 19)  0.1719 ( 22)  0.1348 ( 26)  0.1188 ( 27)
           0.2068 ( 29) -0.1014 ( 31) -0.1129 ( 34) -0.2163 ( 38) -0.1137 ( 39)
           0.1256 ( 40)  0.2437 ( 47)  0.1219 ( 50)  0.1848 ( 52)  0.1402 ( 54)
           0.1079 ( 58)  0.1348 ( 64) -0.1022 ( 66) -0.1983 ( 74)
 CRD 33=   0.2349 (  9)  0.1694 ( 10) -0.2324 ( 12)  0.1628 ( 14) -0.2443 ( 19)
           0.1628 ( 20)  0.1555 ( 23)  0.2448 ( 27)  0.1383 ( 39) -0.2463 ( 42)
           0.2150 ( 45) -0.1765 ( 46)  0.2208 ( 48) -0.1623 ( 52)  0.1942 ( 53)
          -0.1496 ( 54)  0.2117 ( 55) -0.1473 ( 58) -0.1536 ( 59)  0.1324 ( 60)
           0.1950 ( 61) -0.1660 ( 65)  0.2249 ( 66) -0.2411 ( 72)
 CRD 34=  -0.1030 (109)  0.1651 (117)  0.1076 (118)  0.1280 (123)  0.1384 (124)
          -0.2189 (126) -0.1998 (127)  0.1219 (130) -0.2354 (131) -0.2063 (132)
           0.1308 (134)  0.1218 (135)  0.3179 (136)  0.2895 (137)  0.2708 (141)
          -0.2169 (142) -0.2779 (143) -0.2588 (145) -0.2460 (146)  0.2992 (147)
 CRD 35=  -0.2674 (  7) -0.1253 (  8) -0.1201 ( 12)  0.2652 ( 13)  0.1258 ( 14)
           0.1182 ( 15) -0.4587 ( 16) -0.1099 ( 17)  0.4582 ( 18)  0.1074 ( 19)
          -0.1153 ( 20)  0.1161 ( 22) -0.2412 ( 24)  0.2412 ( 25)  0.1359 ( 41)
           0.1186 ( 44) -0.1367 ( 49) -0.1197 ( 51)  0.1304 ( 56) -0.1306 ( 57)
 CRD 36=  -0.1922 ( 78)  0.1296 ( 81)  0.2026 ( 85)  0.2242 ( 89)  0.1426 ( 90)
           0.1372 ( 91) -0.1560 ( 94) -0.2882 ( 96)  0.1149 ( 98) -0.2155 (102)
           0.1122 (106)  0.1337 (107) -0.1281 (108)  0.2648 (111) -0.1646 (113)
          -0.1285 (114)  0.1095 (119)  0.1280 (121) -0.1001 (122) -0.1225 (124)
           0.1686 (127) -0.2264 (129) -0.1213 (131)  0.1917 (134)  0.1426 (136)
           0.1176 (139) -0.1697 (140) -0.2049 (141)  0.2459 (142) -0.1829 (143)
 CRD 37=   0.3414 (  7)  0.1047 (  8)  0.1637 ( 12) -0.3376 ( 13) -0.1169 ( 14)
          -0.1488 ( 15) -0.1580 ( 17)  0.1748 ( 19) -0.1282 ( 20)  0.1252 ( 22)
          -0.3170 ( 24)  0.3175 ( 25) -0.1077 ( 32)  0.1030 ( 39) -0.1611 ( 41)
          -0.1009 ( 46)  0.1781 ( 48)  0.1630 ( 49) -0.1793 ( 52)  0.1806 ( 56)
          -0.1784 ( 57) -0.1875 ( 59)  0.1157 ( 60) -0.1144 ( 65)  0.1811 ( 66)
 CRD 38=  -0.1706 (  1) -0.2143 (  2) -0.2501 (  4)  0.3315 (  8)  0.2791 ( 10)
           0.2122 ( 13) -0.2632 ( 15) -0.1884 ( 17) -0.1289 ( 18) -0.1054 ( 19)
           0.2221 ( 29)  0.1829 ( 30)  0.1550 ( 32) -0.1290 ( 33)  0.1240 ( 35)
          -0.1003 ( 36) -0.1337 ( 38) -0.1877 ( 40) -0.2340 ( 50)  0.1422 ( 58)
           0.1443 ( 64) -0.1620 ( 74)  0.1262 ( 77)
 CRD 39=   0.2151 (  3) -0.2226 (  5)  0.1663 (  6) -0.2659 (  7) -0.1112 (  8)
           0.2891 (  9) -0.1294 ( 14)  0.1486 ( 16)  0.1624 ( 19)  0.1089 ( 25)
          -0.1700 ( 29)  0.1862 ( 30) -0.2269 ( 31)  0.2247 ( 32)  0.1638 ( 37)
          -0.2086 ( 38) -0.1273 ( 41)  0.1539 ( 42)  0.2583 ( 47) -0.2044 ( 50)
          -0.1100 ( 53) -0.1001 ( 59) -0.1452 ( 64)  0.1116 ( 71)  0.1576 ( 74)
 CRD 40=   0.1114 (  9)  0.1317 ( 17)  0.1710 ( 20) -0.1347 ( 22) -0.2010 ( 23)
          -0.2351 ( 24)  0.2822 ( 25)  0.2127 ( 26) -0.4301 ( 27)  0.3387 ( 29)
           0.1027 ( 57) -0.1220 ( 60)  0.1128 ( 65)  0.2677 ( 68) -0.2921 ( 69)
           0.2353 ( 71) -0.2078 ( 73)
 CRD 41=   0.2057 (  5) -0.1093 (  6)  0.1340 (  7) -0.4083 (  9) -0.1223 ( 12)
           0.1236 ( 13)  0.1723 ( 14)  0.1614 ( 15) -0.1455 ( 17) -0.1952 ( 24)
           0.2113 ( 27)  0.1348 ( 29)  0.1110 ( 32) -0.1316 ( 39)  0.1742 ( 42)
          -0.2099 ( 53)  0.1133 ( 54)  0.1217 ( 55) -0.1231 ( 58)  0.2529 ( 61)
          -0.1150 ( 64)  0.2097 ( 68) -0.1175 ( 69)  0.1254 ( 71) -0.2265 ( 72)
          -0.2339 ( 73)  0.1455 ( 74)
 CRD 42=   0.1483 (  5)  0.1356 (  7) -0.1464 (  9) -0.1535 ( 12)  0.1248 ( 13)
          -0.1107 ( 17)  0.1564 ( 20) -0.1663 ( 21)  0.1984 ( 22)  0.1553 ( 23)
           0.3205 ( 24)  0.3335 ( 25)  0.1065 ( 26) -0.3094 ( 27) -0.2475 ( 28)
          -0.3840 ( 29)  0.1095 ( 62)  0.1098 ( 63) -0.1701 ( 64) -0.1219 ( 69)
           0.1755 ( 71)  0.1051 ( 73)
 CRD 43=  -0.1360 (  6)  0.2499 (  7)  0.1198 (  9) -0.4007 ( 11)  0.2934 ( 13)
           0.4302 ( 16)  0.4255 ( 18) -0.3120 ( 21)  0.1290 ( 24)  0.1291 ( 25)
           0.1267 ( 27)  0.1784 ( 29)  0.1261 ( 64)
 CRD 44=  -0.2698 (  6)  0.3140 (  7) -0.1114 (  8) -0.1536 ( 11)  0.3743 ( 13)
          -0.1182 ( 16) -0.1326 ( 18)  0.1662 ( 20)  0.2921 ( 21) -0.2817 ( 24)
          -0.2724 ( 25) -0.2408 ( 27)  0.1450 ( 28) -0.1178 ( 29)  0.1610 ( 32)
           0.1881 ( 48) -0.1641 ( 59) -0.1334 ( 61)  0.1388 ( 72)
 CRD 45=  -0.1428 (  1) -0.1639 ( 80) -0.1158 ( 81)  0.1429 ( 88) -0.2680 ( 89)
           0.1370 ( 90)  0.1645 ( 96)  0.1304 (104) -0.1060 (106) -0.1172 (108)
          -0.1699 (110) -0.1225 (111)  0.2991 (113)  0.1024 (114)  0.1400 (117)
          -0.2073 (121) -0.1439 (124)  0.1201 (125)  0.2650 (127) -0.1353 (130)
          -0.2595 (131)  0.1651 (135)  0.2002 (136)  0.1156 (139) -0.2032 (141)
           0.1880 (144)  0.1109 (145) -0.1075 (146)
 CRD 46=   0.1216 (  8)  0.3041 (  9) -0.1099 ( 11)  0.1092 ( 12)  0.1235 ( 13)
          -0.2791 ( 14) -0.1497 ( 15) -0.1401 ( 17)  0.1826 ( 19) -0.1373 ( 20)
           0.2467 ( 22) -0.1344 ( 24) -0.1497 ( 25) -0.2347 ( 29)  0.1093 ( 31)
          -0.1532 ( 32) -0.1711 ( 42) -0.1130 ( 48)  0.2300 ( 52)  0.1972 ( 53)
           0.1470 ( 61) -0.1729 ( 64) -0.2480 ( 66)  0.1169 ( 71) -0.1044 ( 72)
          -0.1537 ( 73)  0.1773 ( 74)
 CRD 47=  -0.1033 (  1) -0.1247 (  2)  0.1492 (  5)  0.2602 (  6) -0.1005 (  7)
          -0.1776 (  9) -0.1482 ( 11) -0.2005 ( 12) -0.2335 ( 13)  0.1457 ( 14)
           0.2477 ( 16)  0.2940 ( 18) -0.1175 ( 19)  0.2217 ( 20)  0.1152 ( 22)
          -0.2530 ( 24) -0.2592 ( 25) -0.2298 ( 27)  0.2245 ( 28) -0.1490 ( 29)
          -0.1010 ( 33) -0.1399 ( 38)  0.1390 ( 47) -0.1122 ( 59)  0.1198 ( 77)
 CRD 48=   0.1514 (  1)  0.1403 (  2)  0.1857 (  3) -0.2495 (  4) -0.2202 (  5)
          -0.1472 (  7)  0.2500 (  8)  0.1327 ( 12)  0.1776 ( 14)  0.1213 ( 16)
          -0.2196 ( 17)  0.1012 ( 18) -0.1984 ( 19)  0.1228 ( 22)  0.1428 ( 23)
          -0.1064 ( 24) -0.1127 ( 25)  0.1527 ( 26) -0.1127 ( 27)  0.1004 ( 28)
          -0.2083 ( 29)  0.1475 ( 33)  0.1530 ( 36)  0.1690 ( 37)  0.2218 ( 38)
           0.1349 ( 40) -0.1423 ( 47) -0.1654 ( 48)  0.1252 ( 59) -0.1717 ( 75)
          -0.1793 ( 76) -0.1504 ( 77)
 CRD 49=   0.1166 (  2)  0.2798 (  5) -0.1348 (  6) -0.3319 (  7)  0.1248 ( 11)
          -0.2429 ( 12)  0.1937 ( 13) -0.1398 ( 14)  0.3411 ( 16) -0.1020 ( 17)
          -0.2567 ( 18)  0.1906 ( 19)  0.1411 ( 20) -0.1056 ( 21) -0.1889 ( 24)
           0.1461 ( 25) -0.1598 ( 26) -0.1237 ( 30) -0.1443 ( 35)  0.1606 ( 44)
          -0.1199 ( 51) -0.1054 ( 59)  0.1434 ( 69) -0.1187 ( 71) -0.1103 ( 77)
 CRD 50=  -0.1816 (  4)  0.1135 (  5) -0.1315 (  6) -0.1569 (  9)  0.3205 ( 10)
           0.2145 ( 11) -0.1638 ( 12) -0.1022 ( 13) -0.3700 ( 15)  0.2625 ( 17)
           0.1282 ( 18)  0.1476 ( 19) -0.2196 ( 21)  0.2179 ( 22) -0.2872 ( 23)
          -0.1758 ( 26)  0.1031 ( 27)  0.1316 ( 28)  0.1517 ( 32)  0.1013 ( 48)
          -0.1053 ( 50) -0.1308 ( 66) -0.1141 ( 73)  0.1308 ( 74) -0.1010 ( 77)
 CRD 51=   0.1442 (  3) -0.1574 (  5)  0.3145 (  6) -0.2577 (  9) -0.2797 ( 11)
           0.1871 ( 14)  0.1059 ( 16) -0.1473 ( 18)  0.2185 ( 21)  0.1701 ( 25)
          -0.1626 ( 26)  0.2134 ( 27) -0.1820 ( 28) -0.1406 ( 34) -0.1001 ( 42)
           0.1858 ( 45) -0.1795 ( 49)  0.1474 ( 50) -0.1268 ( 51)  0.2108 ( 52)
          -0.1197 ( 55)  0.1091 ( 56)  0.1099 ( 57) -0.1193 ( 59) -0.1358 ( 60)
          -0.1630 ( 64)  0.1150 ( 67) -0.1432 ( 68)  0.1421 ( 72)
 CRD 52=  -0.2687 (  1)  0.1882 (  2) -0.1904 ( 75)  0.1268 ( 76) -0.1165 ( 82)
           0.2345 ( 85)  0.2110 ( 88)  0.1353 ( 91) -0.1457 ( 94) -0.1990 ( 95)
           0.1519 ( 96) -0.1165 ( 97)  0.1565 ( 98) -0.1703 (102)  0.1237 (106)
          -0.1258 (109) -0.1545 (114) -0.1511 (117)  0.1012 (119) -0.1758 (121)
          -0.1205 (122)  0.1112 (123) -0.2125 (127)  0.1813 (131) -0.1570 (136)
           0.1965 (141)  0.2486 (144) -0.1423 (145)  0.1993 (146)
 CRD 53=  -0.2656 (  5)  0.1038 (  7)  0.2533 (  8)  0.1887 (  9) -0.3027 ( 10)
           0.1550 ( 14)  0.3383 ( 20) -0.1557 ( 21)  0.1791 ( 22) -0.2284 ( 23)
          -0.3281 ( 26)  0.1777 ( 28)  0.1183 ( 29)  0.1006 ( 34)  0.1189 ( 38)
          -0.1380 ( 39)  0.1572 ( 42) -0.1026 ( 44) -0.1985 ( 47) -0.1313 ( 53)
           0.1225 ( 55) -0.1378 ( 61) -0.1129 ( 64) -0.1295 ( 71)  0.1156 ( 72)
           0.1117 ( 74)
 CRD 54=  -0.1162 (  2)  0.1893 (  4) -0.1575 (  5)  0.2547 (  7) -0.2837 (  8)
           0.1217 ( 10)  0.1562 ( 11) -0.1338 ( 18) -0.2086 ( 21) -0.2108 ( 24)
           0.1973 ( 25)  0.1948 ( 28) -0.2103 ( 29)  0.1054 ( 32)  0.1372 ( 35)
           0.1783 ( 41)  0.1014 ( 45) -0.1297 ( 48) -0.1136 ( 51) -0.1547 ( 54)
          -0.1471 ( 56)  0.1373 ( 58)  0.1496 ( 61) -0.1594 ( 62)  0.1622 ( 63)
           0.1799 ( 65)  0.1987 ( 69) -0.1647 ( 70) -0.1382 ( 74)  0.1185 ( 77)
 CRD 55=  -0.1029 (  3)  0.2405 (  4) -0.1514 (  7) -0.2269 ( 10)  0.1023 ( 12)
           0.2086 ( 13) -0.1801 ( 19) -0.1044 ( 20)  0.2901 ( 22) -0.2946 ( 23)
           0.1543 ( 24) -0.1318 ( 25)  0.1120 ( 26)  0.1503 ( 27) -0.1362 ( 29)
          -0.1435 ( 35)  0.1544 ( 39)  0.1502 ( 43) -0.1756 ( 46)  0.1006 ( 50)
          -0.1573 ( 53) -0.1385 ( 55) -0.1033 ( 57)  0.1938 ( 58)  0.1454 ( 66)
           0.1142 ( 68)  0.1534 ( 71) -0.2015 ( 73)
 CRD 56=   0.1742 ( 91)  0.1771 (104)  0.1384 (109)  0.1787 (110) -0.1004 (115)
           0.1838 (117)  0.1431 (120)  0.2171 (124)  0.3145 (129) -0.2641 (130)
           0.1271 (131)  0.3156 (134) -0.2657 (135) -0.1461 (136) -0.1328 (139)
          -0.1660 (140) -0.2770 (142) -0.2783 (143) -0.1865 (145) -0.1334 (146)
          -0.2358 (147)
 CRD 57=   0.1714 (  5) -0.1017 (  6) -0.1951 (  8)  0.2216 ( 10)  0.2756 ( 12)
          -0.1634 ( 14)  0.2463 ( 15) -0.2991 ( 17) -0.3332 ( 19)  0.2379 ( 20)
           0.1151 ( 21)  0.1950 ( 22) -0.1405 ( 23) -0.2076 ( 26)  0.1301 ( 47)
          -0.1596 ( 48) -0.1618 ( 52)  0.1402 ( 53)  0.1512 ( 59) -0.1363 ( 61)
          -0.1790 ( 64)  0.1201 ( 66)  0.1485 ( 72)  0.1210 ( 74)
 CRD 58=  -0.1395 (  3) -0.2299 (  6)  0.2248 (  9) -0.1530 ( 12) -0.1386 ( 13)
           0.2266 ( 14) -0.1556 ( 15)  0.1147 ( 17)  0.1925 ( 18) -0.1898 ( 19)
           0.1566 ( 21) -0.1792 ( 24)  0.2103 ( 27) -0.2512 ( 28)  0.1752 ( 34)
           0.2280 ( 42) -0.1217 ( 43) -0.1898 ( 50)  0.1250 ( 51) -0.1063 ( 53)
          -0.1027 ( 55)  0.1572 ( 57) -0.1031 ( 59) -0.1282 ( 60) -0.1711 ( 62)
           0.1786 ( 67) -0.1909 ( 68)  0.1102 ( 71)  0.1415 ( 72)
 CRD 59=  -0.2163 ( 78) -0.1747 ( 81) -0.1139 ( 82) -0.2241 ( 85) -0.1757 ( 89)
           0.1062 ( 90) -0.2153 ( 96)  0.2771 (102) -0.2247 (104) -0.1736 (109)
          -0.2301 (110)  0.2699 (111)  0.1580 (113)  0.1419 (116) -0.1308 (118)
           0.1492 (119)  0.1108 (124)  0.2265 (125)  0.1054 (130)  0.1803 (131)
           0.1109 (135) -0.1549 (136)  0.1899 (139) -0.1079 (142) -0.1192 (143)
          -0.1333 (145) -0.1412 (147)
 CRD 60=  -0.1229 (  6)  0.1465 (  7)  0.1323 ( 10) -0.2064 ( 12) -0.1864 ( 13)
           0.1050 ( 15)  0.2956 ( 16) -0.2004 ( 17) -0.1658 ( 18)  0.1037 ( 19)
           0.1128 ( 22) -0.1052 ( 23)  0.1436 ( 24) -0.2167 ( 25)  0.1566 ( 26)
          -0.1278 ( 28)  0.1182 ( 35) -0.1066 ( 39)  0.2139 ( 41) -0.1531 ( 43)
           0.2337 ( 44) -0.1177 ( 47) -0.1192 ( 48) -0.1293 ( 49) -0.1433 ( 50)
          -0.1295 ( 51) -0.1073 ( 54) -0.1046 ( 55)  0.2054 ( 56) -0.1509 ( 57)
          -0.1145 ( 59) -0.1145 ( 61)  0.1137 ( 62) -0.1762 ( 63) -0.1008 ( 65)
          -0.1619 ( 69)
 CRD 61=   0.3550 (  4) -0.1222 (  5) -0.1134 (  6) -0.1174 (  9)  0.1132 ( 11)
           0.1509 ( 12) -0.2779 ( 15) -0.1707 ( 17)  0.2200 ( 23) -0.1513 ( 26)
          -0.1327 ( 27) -0.1364 ( 28)  0.2344 ( 29) -0.1012 ( 31)  0.1467 ( 32)
          -0.1395 ( 34) -0.1097 ( 35)  0.1287 ( 38)  0.1993 ( 40)  0.1014 ( 43)
          -0.1488 ( 46) -0.1208 ( 48) -0.1391 ( 54) -0.1194 ( 66) -0.1275 ( 67)
           0.2049 ( 70) -0.1210 ( 71)  0.1872 ( 73)  0.1429 ( 74)
 CRD 62=   0.2126 (  1) -0.1040 (  2) -0.1097 (  3)  0.1486 ( 75) -0.1419 ( 81)
          -0.1541 ( 85)  0.1403 ( 86)  0.1113 ( 87) -0.1193 ( 89)  0.1386 ( 91)
           0.1564 ( 92)  0.1793 ( 95) -0.1184 ( 99)  0.1720 (104)  0.1305 (106)
           0.1503 (107) -0.1920 (108)  0.1285 (110)  0.2288 (113) -0.1309 (117)
          -0.1655 (122)  0.1418 (123)  0.1590 (125) -0.2054 (127) -0.1446 (130)
          -0.1012 (135) -0.1208 (138) -0.1904 (140)  0.1734 (141)  0.1576 (142)
           0.1242 (143) -0.1003 (145)  0.1365 (146)  0.1941 (147)
 CRD 63=  -0.1639 (  2)  0.1493 (  3)  0.1144 (  6)  0.2561 ( 11) -0.1237 ( 12)
           0.1785 ( 13) -0.2761 ( 14)  0.1884 ( 20) -0.1455 ( 24) -0.1059 ( 25)
           0.1893 ( 26)  0.1742 ( 27) -0.2549 ( 28) -0.1073 ( 34) -0.1268 ( 39)
          -0.1360 ( 42)  0.1640 ( 43) -0.1545 ( 45)  0.1646 ( 49)  0.1409 ( 50)
           0.1031 ( 51) -0.1306 ( 52) -0.1505 ( 62)  0.1684 ( 67) -0.1612 ( 68)
          -0.1267 ( 69)  0.1330 ( 71)  0.1599 ( 72) -0.1191 ( 76)  0.1287 ( 93)
           0.1353 ( 97)
 CRD 64=   0.2704 (  4) -0.1571 (  5) -0.1450 (  6)  0.2404 (  8) -0.1001 (  9)
           0.2418 ( 10) -0.1092 ( 14) -0.1050 ( 17)  0.1414 ( 20)  0.1011 ( 21)
          -0.2720 ( 22) -0.2489 ( 23)  0.1393 ( 26)  0.1307 ( 28) -0.1813 ( 29)
          -0.1023 ( 30) -0.1041 ( 31)  0.1671 ( 32) -0.1104 ( 34) -0.1097 ( 35)
           0.1761 ( 38)  0.2064 ( 40)  0.1060 ( 46)  0.1058 ( 53) -0.1314 ( 58)
          -0.1267 ( 61) -0.1425 ( 65) -0.1867 ( 70) -0.1518 ( 73) -0.1690 ( 74)
 CRD 65=  -0.1274 (  2)  0.1492 (  3)  0.1094 (  8)  0.1259 ( 11) -0.2419 ( 12)
          -0.1693 ( 14)  0.1035 ( 18) -0.2777 ( 19) -0.2814 ( 20)  0.2314 ( 21)
           0.1138 ( 24)  0.1074 ( 25) -0.2061 ( 26) -0.1225 ( 27)  0.1595 ( 28)
          -0.1011 ( 30) -0.1157 ( 39)  0.1119 ( 44) -0.1562 ( 45)  0.1107 ( 51)
          -0.1368 ( 52) -0.1925 ( 55)  0.1355 ( 56)  0.1254 ( 57) -0.1646 ( 59)
          -0.1864 ( 60)  0.1184 ( 62)  0.1258 ( 63) -0.1445 ( 64) -0.1369 ( 67)
           0.1109 ( 68) -0.1058 ( 71) -0.1376 ( 72)  0.1193 ( 77)  0.1159 ( 93)
           0.1159 ( 97)
 CRD 66=   0.1084 (  3) -0.1318 (  4)  0.1287 (  5) -0.2388 (  8) -0.1820 ( 10)
           0.1815 ( 11)  0.1033 ( 14) -0.2664 ( 15)  0.1081 ( 16) -0.2570 ( 17)
           0.1104 ( 18)  0.2208 ( 21) -0.2349 ( 22) -0.1635 ( 23)  0.1005 ( 25)
           0.1350 ( 28)  0.1054 ( 31) -0.1019 ( 32) -0.1035 ( 38) -0.1187 ( 40)
           0.1036 ( 41)  0.1259 ( 44) -0.1637 ( 46) -0.1468 ( 48)  0.1014 ( 49)
           0.1221 ( 51) -0.1297 ( 53) -0.1788 ( 54)  0.1174 ( 56)  0.1344 ( 57)
          -0.1727 ( 58) -0.1222 ( 61)  0.1139 ( 62)  0.1054 ( 63) -0.1588 ( 65)
          -0.1546 ( 66) -0.1072 ( 70) -0.1091 ( 74)
 CRD 67=   0.2462 (  2) -0.3028 (  3) -0.2316 (  5)  0.2614 (  6)  0.1341 (  7)
          -0.1142 (  9)  0.1682 ( 11) -0.1058 ( 12) -0.1309 ( 14)  0.2354 ( 30)
          -0.2126 ( 31) -0.1621 ( 33) -0.1215 ( 34)  0.1449 ( 35)  0.2122 ( 37)
           0.1148 ( 41)  0.1106 ( 43)  0.1061 ( 50)  0.1650 ( 76) -0.2177 ( 77)
           0.1641 ( 92) -0.2428 ( 93)  0.1665 ( 95) -0.2403 ( 97)
 CRD 68=  -0.2789 (  1)  0.1854 (  2)  0.1459 ( 36) -0.1932 ( 75)  0.1292 ( 76)
          -0.1561 ( 79)  0.2065 ( 80) -0.1451 ( 81) -0.1271 ( 82) -0.1339 ( 83)
           0.2051 ( 88) -0.1452 ( 90) -0.1440 ( 92)  0.1402 ( 94) -0.1604 ( 96)
           0.1359 (100)  0.2752 (101)  0.1003 (106)  0.1561 (111) -0.1383 (112)
           0.1090 (114)  0.1335 (116) -0.1102 (119)  0.1629 (121) -0.1465 (131)
           0.1107 (133) -0.1521 (135)  0.1154 (136) -0.1349 (138) -0.1267 (139)
           0.1174 (143) -0.1072 (146)  0.1643 (147)
 CRD 69=  -0.1616 ( 78)  0.1621 ( 79) -0.1260 ( 82) -0.1528 ( 84) -0.1583 ( 89)
           0.1443 ( 91)  0.1368 ( 92)  0.1033 ( 93)  0.1986 ( 98)  0.1051 ( 99)
           0.1672 (103)  0.1468 (105)  0.1046 (106) -0.1806 (109) -0.1229 (112)
          -0.1419 (114) -0.1431 (115)  0.1688 (118) -0.1571 (123) -0.1526 (126)
          -0.1559 (128)  0.1105 (130)  0.1350 (132)  0.1269 (133)  0.1691 (136)
          -0.1142 (139)  0.1117 (140) -0.1799 (141) -0.1063 (142)  0.2876 (144)
           0.2847 (145) -0.2582 (146)
 CRD 70=  -0.1238 ( 80)  0.1716 ( 81)  0.1737 ( 83)  0.1422 ( 84) -0.1477 ( 86)
          -0.1179 ( 87)  0.1577 ( 90)  0.1218 ( 91)  0.1265 ( 96) -0.1162 (101)
           0.1067 (102) -0.1031 (105)  0.1197 (106) -0.1088 (115)  0.1176 (116)
          -0.1683 (117)  0.1805 (120) -0.1933 (121) -0.1541 (123) -0.1436 (127)
           0.1533 (129) -0.1017 (131)  0.2536 (132)  0.1258 (133) -0.2592 (137)
          -0.1290 (138)  0.1555 (139)  0.1396 (143) -0.1899 (144) -0.3210 (146)
           0.2911 (147)
 CRD 71=   0.1693 ( 78) -0.1369 ( 79)  0.1903 ( 84)  0.1114 ( 89) -0.1211 ( 92)
          -0.2169 ( 99) -0.1737 (108) -0.1001 (114)  0.1149 (115) -0.1598 (117)
           0.1189 (118) -0.1247 (120) -0.1401 (122)  0.2161 (124)  0.2011 (125)
          -0.2666 (126) -0.1434 (128)  0.1185 (131)  0.1346 (133) -0.1441 (134)
           0.1932 (137) -0.2015 (140) -0.1070 (141) -0.1339 (142) -0.2418 (144)
           0.3269 (145) -0.2070 (147)
 CRD 72=  -0.1127 ( 81)  0.1016 ( 82) -0.1011 ( 83) -0.1803 ( 84)  0.1075 ( 87)
          -0.2862 ( 91)  0.1346 ( 94)  0.1110 ( 99) -0.1239 (103) -0.2111 (105)
          -0.1703 (107)  0.2031 (109)  0.2331 (112)  0.1456 (115) -0.1911 (117)
           0.1740 (119)  0.2220 (121) -0.1315 (122)  0.2240 (124) -0.1908 (125)
          -0.1451 (128)  0.1786 (132)  0.1041 (135)  0.2610 (139) -0.2299 (140)
           0.1909 (144) -0.1855 (146)
 CRD 73=  -0.2253 ( 78)  0.2134 ( 81) -0.1274 ( 82)  0.1163 ( 85) -0.1483 ( 86)
          -0.1923 ( 87)  0.1866 ( 92)  0.1511 ( 93) -0.1120 ( 97) -0.1107 ( 98)
           0.1397 ( 99)  0.1811 (100) -0.1958 (101) -0.2141 (103)  0.2311 (109)
           0.1267 (111) -0.1054 (112) -0.1185 (113)  0.1241 (114)  0.1082 (115)
           0.2124 (116) -0.1240 (117) -0.1960 (125) -0.2045 (126)  0.1116 (128)
          -0.1599 (132)  0.1554 (133)  0.2091 (137) -0.1055 (138)  0.1957 (145)
           0.1517 (146) -0.1750 (147)
 CRD 74=  -0.2208 ( 78)  0.1965 ( 81) -0.1952 ( 83)  0.1899 ( 84)  0.1407 ( 86)
          -0.2410 ( 87) -0.1177 ( 90)  0.1611 ( 92)  0.1376 ( 93) -0.1044 ( 97)
          -0.1430 ( 99)  0.2413 (100) -0.1597 (101)  0.1296 (105) -0.1013 (108)
           0.1424 (115)  0.1694 (117) -0.1996 (120)  0.1325 (121)  0.1754 (124)
           0.1661 (126) -0.2106 (128)  0.1677 (132) -0.2089 (133) -0.1466 (137)
           0.2262 (138) -0.1437 (139) -0.1545 (140) -0.1527 (144) -0.1283 (145)
          -0.1297 (146)
 CRD 75=  -0.1284 ( 78) -0.2164 ( 83)  0.1518 ( 84)  0.2229 ( 86) -0.1400 ( 87)
          -0.2035 ( 91) -0.1958 ( 99)  0.1714 (100)  0.2390 (103) -0.2282 (105)
          -0.1930 (109)  0.2421 (112) -0.2252 (115) -0.2455 (116) -0.1513 (117)
           0.2180 (120)  0.1941 (121) -0.1500 (124)  0.1760 (125)  0.1549 (128)
           0.1551 (133) -0.1794 (138)  0.1772 (139)  0.1747 (140) -0.1029 (144)

 THE DETERMINANT OF THE G MATRIX IS 10**(   -37)


                     --------------------
                     INTERNAL COORDINATES
                     --------------------

                 - - ATOMS - -         COORDINATE      COORDINATE
 NO.   TYPE    I  J  K  L  M  N        (BOHR,RAD)       (ANG,DEG)
 ----------------------------------------------------------------
   1 STRETCH   1 17                     2.0763864       1.0987765
   2 STRETCH   1 18                     2.0750873       1.0980890
   3 STRETCH   1 16                     2.0749845       1.0980346
   4 STRETCH   1  2                     2.8083223       1.4861003
   5 STRETCH   2  3                     2.5799504       1.3652511
   6 STRETCH   2  4                     2.7019301       1.4297999
   7 STRETCH   3 19                     2.0723527       1.0966419
   8 STRETCH   3  5                     2.7046515       1.4312400
   9 STRETCH   4 20                     2.0711851       1.0960241
  10 STRETCH   4  6                     2.5682127       1.3590398
  11 STRETCH   5  7                     2.6834886       1.4200411
  12 STRETCH   5  8                     2.6408911       1.3974995
  13 STRETCH   6 21                     2.0710979       1.0959779
  14 STRETCH   6  7                     2.7080008       1.4330124
  15 STRETCH   7  9                     2.6395308       1.3967796
  16 STRETCH   8 22                     2.0728086       1.0968831
  17 STRETCH   8 10                     2.6402560       1.3971634
  18 STRETCH   9 23                     2.0729814       1.0969746
  19 STRETCH   9 11                     2.6403846       1.3972314
  20 STRETCH  10 12                     2.7086951       1.4333798
  21 STRETCH  10 11                     2.6888120       1.4228581
  22 STRETCH  11 13                     2.7083992       1.4332232
  23 STRETCH  12 14                     2.5695413       1.3597428
  24 STRETCH  12 24                     2.0706597       1.0957460
  25 STRETCH  13 25                     2.0706017       1.0957153
  26 STRETCH  13 15                     2.5698972       1.3599311
  27 STRETCH  14 26                     2.0686439       1.0946793
  28 STRETCH  14 15                     2.6924822       1.4248003
  29 STRETCH  15 27                     2.0687138       1.0947163
  30 BEND      1  2  3                  2.1061997     120.6763534
  31 BEND      1  2  4                  2.0802619     119.1902257
  32 BEND      2  4 20                  2.0706720     118.6407638
  33 BEND      2  1 18                  1.9457643     111.4840833
  34 BEND      2  4  6                  2.1046425     120.5871312
  35 BEND      2  3  5                  2.1061016     120.6707326
  36 BEND      2  1 17                  1.9273422     110.4285739
  37 BEND      2  1 16                  1.9593855     112.2645179
  38 BEND      2  3 19                  2.1074944     120.7505367
  39 BEND      3  5  7                  2.0780979     119.0662392
  40 BEND      3  2  4                  2.0966185     120.1273925
  41 BEND      3  5  8                  2.1147027     121.1635419
  42 BEND      4  6 21                  2.1120276     121.0102649
  43 BEND      4  6  7                  2.1067339     120.7069607
  44 BEND      5  8 10                  2.1035190     120.5227630
  45 BEND      5  7  9                  2.0903669     119.7692037
  46 BEND      5  7  6                  2.0741510     118.8400962
  47 BEND      5  3 19                  2.0695834     118.5783941
  48 BEND      5  8 22                  2.0897438     119.7334983
  49 BEND      6  7  9                  2.1186662     121.3906343
  50 BEND      6  4 20                  2.1078709     120.7721045
  51 BEND      7  9 11                  2.1037289     120.5347851
  52 BEND      7  9 23                  2.0896275     119.7268351
  53 BEND      7  6 21                  2.0644238     118.2827710
  54 BEND      7  5  8                  2.0903783     119.7698538
  55 BEND      8 10 11                  2.0889909     119.6903605
  56 BEND      8 10 12                  2.1190008     121.4098004
  57 BEND      9 11 13                  2.1177039     121.3354956
  58 BEND      9 11 10                  2.0893836     119.7128592
  59 BEND     10  8 22                  2.0899225     119.7437377
  60 BEND     10 11 13                  2.0760962     118.9515479
  61 BEND     10 12 24                  2.0662665     118.3883521
  62 BEND     10 12 14                  2.1026990     120.4757758
  63 BEND     11 13 15                  2.1025060     120.4647193
  64 BEND     11 13 25                  2.0667478     118.4159257
  65 BEND     11 10 12                  2.0751930     118.8998001
  66 BEND     11  9 23                  2.0898289     119.7383767
  67 BEND     12 14 15                  2.1052045     120.6193351
  68 BEND     12 14 26                  2.1090753     120.8411145
  69 BEND     13 15 27                  2.1100326     120.8959645
  70 BEND     13 15 14                  2.1046469     120.5873830
  71 BEND     14 15 27                  2.0685042     118.5165590
  72 BEND     14 12 24                  2.1142191     121.1358335
  73 BEND     15 14 26                  2.0689044     118.5394929
  74 BEND     15 13 25                  2.1139315     121.1193536
  75 BEND     16  1 18                  1.8762856     107.5032462
  76 BEND     16  1 17                  1.8756439     107.4664765
  77 BEND     17  1 18                  1.8757828     107.4744389
  78 TORSION   1  2  3 19               0.0146700       0.8405270
  79 TORSION   1  2  4  6               3.1257039     179.0896389
  80 TORSION   1  2  3  5              -3.1306587    -179.3735290
  81 TORSION   1  2  4 20              -0.0157481      -0.9022991
  82 TORSION   2  3  5  8              -3.1373455    -179.7566544
  83 TORSION   2  3  5  7               0.0080933       0.4637122
  84 TORSION   2  4  6  7               0.0021845       0.1251609
  85 TORSION   2  4  6 21              -3.1390319    -179.8532824
  86 TORSION   3  5  7  6              -0.0062262      -0.3567365
  87 TORSION   3  2  4  6              -0.0004070      -0.0233197
  88 TORSION   3  2  1 16              -2.8598907    -163.8596671
  89 TORSION   3  2  4 20               3.1413264     179.9847423
  90 TORSION   3  5  8 10              -3.1378819    -179.7873921
  91 TORSION   3  5  8 22               0.0035169       0.2015050
  92 TORSION   3  2  1 18              -0.7534511     -43.1695682
  93 TORSION   3  2  1 17               1.3305336      76.2339595
  94 TORSION   3  5  7  9               3.1369724     179.7352811
  95 TORSION   4  2  1 18               2.4037106     137.7224743
  96 TORSION   4  2  3 19               3.1405478     179.9401361
  97 TORSION   4  2  1 17              -1.7954900    -102.8739979
  98 TORSION   4  6  7  9               3.1411725     179.9759280
  99 TORSION   4  6  7  5               0.0012130       0.0694975
 100 TORSION   4  2  3  5              -0.0047808      -0.2739198
 101 TORSION   4  2  1 16               0.2972710      17.0323754
 102 TORSION   5  7  6 21              -3.1407459    -179.9514829
 103 TORSION   5  7  9 11              -0.0000339      -0.0019407
 104 TORSION   5  7  9 23              -3.1412761    -179.9818620
 105 TORSION   5  8 10 11               0.0019795       0.1134182
 106 TORSION   5  8 10 12              -3.1383442    -179.8138778
 107 TORSION   6  7  5  8               3.1391579     179.8604991
 108 TORSION   6  7  9 11              -3.1399785    -179.9075157
 109 TORSION   6  7  9 23               0.0019646       0.1125631
 110 TORSION   7  5  8 22               3.1412367     179.9796071
 111 TORSION   7  5  3 19              -3.1371555    -179.7457705
 112 TORSION   7  5  8 10              -0.0001621      -0.0092900
 113 TORSION   7  6  4 20              -3.1395519    -179.8830742
 114 TORSION   7  9 11 13              -3.1377394    -179.7792259
 115 TORSION   7  9 11 10               0.0018521       0.1061166
 116 TORSION   8  5  7  9              -0.0008287      -0.0474833
 117 TORSION   8 10 12 24               0.0011241       0.0644041
 118 TORSION   8 10 12 14               3.1414829     179.9937095
 119 TORSION   8 10 11 13               3.1368147     179.7262440
 120 TORSION   8 10 11  9              -0.0028246      -0.1618361
 121 TORSION   8  5  3 19               0.0005910       0.0338629
 122 TORSION   9 11 10 12               3.1375311     179.7672873
 123 TORSION   9 11 13 15              -3.1382847    -179.8104673
 124 TORSION   9 11 13 25               0.0035381       0.2027179
 125 TORSION   9  7  6 21              -0.0007863      -0.0450524
 126 TORSION  10 12 14 15               0.0045665       0.2616427
 127 TORSION  10 12 14 26              -3.1385708    -179.8268633
 128 TORSION  10 11 13 15               0.0052942       0.3033373
 129 TORSION  10 11 13 25              -3.1360683    -179.6834775
 130 TORSION  10 11  9 23              -3.1400911    -179.9139645
 131 TORSION  11 13 15 27              -3.1392691    -179.8668715
 132 TORSION  11 13 15 14               0.0003527       0.0202098
 133 TORSION  11 10 12 14               0.0011493       0.0658528
 134 TORSION  11 10 12 24              -3.1392095    -179.8634526
 135 TORSION  11 10  8 22              -3.1394193    -179.8754777
 136 TORSION  12 14 15 27               3.1342656     179.5801929
 137 TORSION  12 14 15 13              -0.0054024      -0.3095329
 138 TORSION  12 10 11 13              -0.0060150      -0.3446326
 139 TORSION  12 10  8 22               0.0034422       0.1972262
 140 TORSION  13 11  9 23               0.0035028       0.2006930
 141 TORSION  13 15 14 26               3.1377000     179.7769687
 142 TORSION  14 15 13 25              -3.1414763    -179.9933363
 143 TORSION  15 14 12 24              -3.1382943    -179.8110177
 144 TORSION  20  4  6 21               0.0024170       0.1384826
 145 TORSION  24 12 14 26               0.0017536       0.1004763
 146 TORSION  25 13 15 27               0.0020871       0.1195824
 147 TORSION  26 14 15 27              -0.0058173      -0.3333056

     ------------------------------------------
     THE POINT GROUP IS C1 , NAXIS= 1, ORDER= 1
     ------------------------------------------

     DIMENSIONS OF THE SYMMETRY SUBSPACES ARE
 A   =  357

 ..... DONE SETTING UP THE RUN .....
 STEP CPU TIME =     0.03 TOTAL CPU TIME =        0.0 (    0.0 MIN)
 TOTAL WALL CLOCK TIME=        0.0 SECONDS, CPU UTILIZATION IS  75.00%


          -----------------------------
          STATIONARY POINT LOCATION RUN
          -----------------------------

 OBTAINING INITIAL HESSIAN, HESS=GUESS   
 DIAGONAL GUESS HESSIAN IN INTERNAL COORDS IS
     1  0.3405     2  0.3410     3  0.3410     4  0.3999     5  0.5058
     6  0.4461     7  0.3419     8  0.4449     9  0.3423    10  0.5119
    11  0.4547    12  0.4750    13  0.3424    14  0.4434    15  0.4757
    16  0.3418    17  0.4754    18  0.3417    19  0.4753    20  0.4430
    21  0.4522    22  0.4432    23  0.5112    24  0.3425    25  0.3425
    26  0.5110    27  0.3432    28  0.4505    29  0.3432    30  0.2638
    31  0.2589    32  0.2298    33  0.2262    34  0.2687    35  0.2681
    36  0.2262    37  0.2262    38  0.2338    39  0.2638    40  0.2682
    41  0.2656    42  0.2342    43  0.2684    44  0.2682    45  0.2665
    46  0.2637    47  0.2297    48  0.2318    49  0.2655    50  0.2342
    51  0.2683    52  0.2318    53  0.2296    54  0.2664    55  0.2663
    56  0.2654    57  0.2654    58  0.2662    59  0.2318    60  0.2635
    61  0.2296    62  0.2684    63  0.2684    64  0.2296    65  0.2634
    66  0.2318    67  0.2690    68  0.2343    69  0.2343    70  0.2690
    71  0.2302    72  0.2342    73  0.2302    74  0.2342    75  0.2026
    76  0.2026    77  0.2026    78  0.2500    79  0.2500    80  0.2500
    81  0.2500    82  0.2500    83  0.2500    84  0.2500    85  0.2500
    86  0.2500    87  0.2500    88  0.2500    89  0.2500    90  0.2500
    91  0.2500    92  0.2500    93  0.2500    94  0.2500    95  0.2500
    96  0.2500    97  0.2500    98  0.2500    99  0.2500   100  0.2500
   101  0.2500   102  0.2500   103  0.2500   104  0.2500   105  0.2500
   106  0.2500   107  0.2500   108  0.2500   109  0.2500   110  0.2500
   111  0.2500   112  0.2500   113  0.2500   114  0.2500   115  0.2500
   116  0.2500   117  0.2500   118  0.2500   119  0.2500   120  0.2500
   121  0.2500   122  0.2500   123  0.2500   124  0.2500   125  0.2500
   126  0.2500   127  0.2500   128  0.2500   129  0.2500   130  0.2500
   131  0.2500   132  0.2500   133  0.2500   134  0.2500   135  0.2500
   136  0.2500   137  0.2500   138  0.2500   139  0.2500   140  0.2500
   141  0.2500   142  0.2500   143  0.2500   144  0.2500   145  0.2500
   146  0.2500   147  0.2500
 TRANSFORMING HESSIAN TO SYMMETRY COORDINATES

          PARAMETERS CONTROLLING GEOMETRY SEARCH ARE
          METHOD =QA                  UPHESS =BFGS    
          NNEG   =         0          NFRZ   =         3
          NSTEP  =        50          IFOLOW =         1
          HESS   =GUESS               RESTAR =         F
          IHREP  =         0          HSSEND =         F
          NPRT   =         0          NPUN   =         0
          OPTTOL = 5.000E-04          RMIN   = 1.500E-03
          RMAX   = 1.000E-01          RLIM   = 7.000E-02
          DXMAX  = 3.000E-01          PURIFY =         F
          MOVIE  =         F          TRUPD  =         T
          TRMAX  = 5.000E-01          TRMIN  = 5.000E-02
          ITBMAT =         5          STPT   =         F
          STSTEP = 1.000E-02          PROJCT=          F
          FROZEN COORD(S)=   1   2   3


      ***** EQUILIBRIUM GEOMETRY LOCATED *****
            (SUBJECT TO   3 CONSTRAINT(S))
 COORDINATES OF ALL ATOMS ARE (ANGS)
   ATOM   CHARGE       X              Y              Z
 ------------------------------------------------------------
 C           6.0   4.0402006045   1.4080558060   0.8574852412
 C           6.0   3.2844074169   1.2844445330   2.1557127845
 C           6.0   3.7980132844   1.7435720369   3.3154830036
 C           6.0   1.9950988970   0.6375105813   2.1696109489
 C           6.0   3.0999734538   1.5971633528   4.5617447954
 C           6.0   1.3034243197   0.4801472550   3.3137673377
 C           6.0   1.8310759111   0.9529591745   4.5640513714
 C           6.0   3.6308257240   2.0634577698   5.7573434690
 C           6.0   1.1456631714   0.7992564394   5.7602505592
 C           6.0   2.9468799809   1.9072013928   6.9581569783
 C           6.0   1.6781699148   1.2608089462   6.9586996700
 C           6.0   3.4805130318   2.3760937867   8.2071642791
 C           6.0   0.9826365986   1.1011250456   8.2039754950
 C           6.0   2.7955113056   2.2054955094   9.3561262072
 C           6.0   1.5179890555   1.5532184632   9.3553086638
 H           1.0   3.3826444748   1.6982715604   0.0446867935
 H           1.0   4.4911544346   0.4551592954   0.5907208692
 H           1.0   4.8319820762   2.1429501412   0.9415849668
 H           1.0   4.7559852635   2.2339504145   3.3272678304
 H           1.0   1.5846149006   0.2770922987   1.2422327488
 H           1.0   0.3416750589  -0.0027799457   3.3118465691
 H           1.0   4.5902330525   2.5515149918   5.7533830692
 H           1.0   0.1862095735   0.3118989946   5.7624438699
 H           1.0   4.4390416968   2.8651326724   8.2065383350
 H           1.0   0.0251830725   0.6107086238   8.1954480819
 H           1.0   3.2017501839   2.5578917389  10.2872046751
 H           1.0   0.9913275814   1.4280319241  10.2840757284


                     --------------------
                     INTERNAL COORDINATES
                     --------------------

                 - - ATOMS - -         COORDINATE      COORDINATE
 NO.   TYPE    I  J  K  L  M  N        (BOHR,RAD)       (ANG,DEG)
 ----------------------------------------------------------------
   1 STRETCH   1 17                     2.0549711       1.0874440
   2 STRETCH   1 18                     2.0475949       1.0835407
   3 STRETCH   1 16                     2.0503715       1.0850099
   4 STRETCH   1  2                     2.8483492       1.5072816
   5 STRETCH   2  3                     2.5491388       1.3489463
   6 STRETCH   2  4                     2.7260784       1.4425786
   7 STRETCH   3 19                     2.0338229       1.0762528
   8 STRETCH   3  5                     2.7134936       1.4359191
   9 STRETCH   4 20                     2.0339183       1.0763033
  10 STRETCH   4  6                     2.5439606       1.3462061
  11 STRETCH   5  7                     2.6891972       1.4230620
  12 STRETCH   5  8                     2.6244007       1.3887731
  13 STRETCH   6 21                     2.0337034       1.0761896
  14 STRETCH   6  7                     2.7156733       1.4370725
  15 STRETCH   7  9                     2.6214169       1.3871942
  16 STRETCH   8 22                     2.0341370       1.0764190
  17 STRETCH   8 10                     2.6281129       1.3907375
  18 STRETCH   9 23                     2.0336062       1.0761381
  19 STRETCH   9 11                     2.6272455       1.3902785
  20 STRETCH  10 12                     2.7153222       1.4368868
  21 STRETCH  10 11                     2.6907526       1.4238851
  22 STRETCH  11 13                     2.7122522       1.4352621
  23 STRETCH  12 14                     2.5482902       1.3484972
  24 STRETCH  12 24                     2.0334862       1.0760746
  25 STRETCH  13 25                     2.0329256       1.0757780
  26 STRETCH  13 15                     2.5469684       1.3477978
  27 STRETCH  14 26                     2.0318907       1.0752303
  28 STRETCH  14 15                     2.7106399       1.4344090
  29 STRETCH  15 27                     2.0314794       1.0750127
  30 BEND      1  2  3                  2.1196216     121.4453690
  31 BEND      1  2  4                  2.0865933     119.5529892
  32 BEND      2  4 20                  2.0745706     118.8641378
  33 BEND      2  1 18                  1.9339052     110.8046039
  34 BEND      2  4  6                  2.1174321     121.3199230
  35 BEND      2  3  5                  2.1251661     121.7630488
  36 BEND      2  1 17                  1.9255556     110.3262100
  37 BEND      2  1 16                  1.9425699     111.3010576
  38 BEND      2  3 19                  2.0983209     120.2249317
  39 BEND      3  5  7                  2.0726228     118.7525394
  40 BEND      3  2  4                  2.0767551     118.9893043
  41 BEND      3  5  8                  2.1260271     121.8123784
  42 BEND      4  6 21                  2.1060940     120.6702981
  43 BEND      4  6  7                  2.1086936     120.8192434
  44 BEND      5  8 10                  2.1148720     121.1732381
  45 BEND      5  7  9                  2.0853300     119.4806057
  46 BEND      5  7  6                  2.0656736     118.3543772
  47 BEND      5  3 19                  2.0596969     118.0119386
  48 BEND      5  8 22                  2.0826137     119.3249727
  49 BEND      6  7  9                  2.1321813     122.1649886
  50 BEND      6  4 20                  2.0911822     119.8159152
  51 BEND      7  9 11                  2.1144877     121.1512236
  52 BEND      7  9 23                  2.0857127     119.5025338
  53 BEND      7  6 21                  2.0683976     118.5104522
  54 BEND      7  5  8                  2.0845331     119.4349507
  55 BEND      8 10 11                  2.0823421     119.3094113
  56 BEND      8 10 12                  2.1308523     122.0888444
  57 BEND      9 11 13                  2.1239405     121.6928269
  58 BEND      9 11 10                  2.0847924     119.4498047
  59 BEND     10  8 22                  2.0856947     119.5015030
  60 BEND     10 11 13                  2.0744505     118.8572610
  61 BEND     10 12 24                  2.0698686     118.5947361
  62 BEND     10 12 14                  2.1067822     120.7097264
  63 BEND     11 13 15                  2.1075527     120.7538764
  64 BEND     11 13 25                  2.0659240     118.3687263
  65 BEND     11 10 12                  2.0699890     118.6016310
  66 BEND     11  9 23                  2.0829807     119.3460040
  67 BEND     12 14 15                  2.1053512     120.6277394
  68 BEND     12 14 26                  2.0995064     120.2928538
  69 BEND     13 15 27                  2.0994432     120.2892329
  70 BEND     13 15 14                  2.1022429     120.4496452
  71 BEND     14 15 27                  2.0814991     119.2611146
  72 BEND     14 12 24                  2.1065336     120.6954863
  73 BEND     15 14 26                  2.0783277     119.0794065
  74 BEND     15 13 25                  2.1097073     120.8773255
  75 BEND     16  1 18                  1.8960861     108.6377320
  76 BEND     16  1 17                  1.8775163     107.5737609
  77 BEND     17  1 18                  1.8863343     108.0789921
  78 TORSION   1  2  3 19               0.0279836       1.6033420
  79 TORSION   1  2  4  6               3.1144189     178.4430575
  80 TORSION   1  2  3  5              -3.1117670    -178.2911151
  81 TORSION   1  2  4 20              -0.0281601      -1.6134530
  82 TORSION   2  3  5  8               3.1358323     179.6699538
  83 TORSION   2  3  5  7              -0.0034435      -0.1973008
  84 TORSION   2  4  6  7              -0.0011082      -0.0634975
  85 TORSION   2  4  6 21               3.1399716     179.9071196
  86 TORSION   3  5  7  6              -0.0028536      -0.1635004
  87 TORSION   3  2  4  6              -0.0052000      -0.2979385
  88 TORSION   3  2  1 16              -2.4152789    -138.3852854
  89 TORSION   3  2  4 20               3.1354064     179.6455511
  90 TORSION   3  5  8 10              -3.1345850    -179.5984897
  91 TORSION   3  5  8 22               0.0035937       0.2059047
  92 TORSION   3  2  1 18              -0.3033707     -17.3818615
  93 TORSION   3  2  1 17               1.7849911     102.2724545
  94 TORSION   3  5  7  9               3.1376891     179.7763447
  95 TORSION   4  2  1 18               2.8607514     163.9089827
  96 TORSION   4  2  3 19              -3.1360146    -179.6804023
  97 TORSION   4  2  1 17              -1.3340721     -76.4367013
  98 TORSION   4  6  7  9              -3.1354714    -179.6492785
  99 TORSION   4  6  7  5               0.0050416       0.2888608
 100 TORSION   4  2  3  5               0.0074201       0.4251406
 101 TORSION   4  2  1 16               0.7488433      42.9055588
 102 TORSION   5  7  6 21              -3.1360491    -179.6823786
 103 TORSION   5  7  9 11              -0.0028134      -0.1611931
 104 TORSION   5  7  9 23              -3.1412843    -179.9823329
 105 TORSION   5  8 10 11              -0.0032496      -0.1861895
 106 TORSION   5  8 10 12               3.1361750     179.6895895
 107 TORSION   6  7  5  8               3.1409997     179.9660235
 108 TORSION   6  7  9 11               3.1376878     179.7762708
 109 TORSION   6  7  9 23              -0.0007831      -0.0448690
 110 TORSION   7  5  8 22              -3.1403312    -179.9277233
 111 TORSION   7  5  3 19               3.1399520     179.9059954
 112 TORSION   7  5  8 10               0.0046754       0.2678823
 113 TORSION   7  6  4 20               3.1414800     179.9935432
 114 TORSION   7  9 11 13              -3.1352522    -179.6367206
 115 TORSION   7  9 11 10               0.0042357       0.2426873
 116 TORSION   8  5  7  9              -0.0016429      -0.0941314
 117 TORSION   8 10 12 24               0.0028202       0.1615872
 118 TORSION   8 10 12 14              -3.1373458    -179.7566738
 119 TORSION   8 10 11 13               3.1383357     179.8133901
 120 TORSION   8 10 11  9              -0.0012122      -0.0694529
 121 TORSION   8  5  3 19              -0.0039575      -0.2267500
 122 TORSION   9 11 10 12              -3.1407127    -179.9495817
 123 TORSION   9 11 13 15               3.1389391     179.8479607
 124 TORSION   9 11 13 25              -0.0009665      -0.0553776
 125 TORSION   9  7  6 21               0.0066232       0.3794820
 126 TORSION  10 12 14 15              -0.0012915      -0.0739954
 127 TORSION  10 12 14 26               3.1402043     179.9204551
 128 TORSION  10 11 13 15              -0.0005610      -0.0321409
 129 TORSION  10 11 13 25              -3.1404666    -179.9354792
 130 TORSION  10 11  9 23              -3.1404739    -179.9358974
 131 TORSION  11 13 15 27              -3.1396305    -179.8875763
 132 TORSION  11 13 15 14               0.0014135       0.0809871
 133 TORSION  11 10 12 14               0.0020935       0.1199513
 134 TORSION  11 10 12 24              -3.1409257    -179.9617877
 135 TORSION  11 10  8 22              -3.1414224    -179.9902438
 136 TORSION  12 14 15 27               3.1405603     179.9408529
 137 TORSION  12 14 15 13              -0.0004892      -0.0280317
 138 TORSION  12 10 11 13              -0.0011648      -0.0667388
 139 TORSION  12 10  8 22              -0.0019978      -0.1144649
 140 TORSION  13 11  9 23               0.0032235       0.1846946
 141 TORSION  13 15 14 26               3.1411991     179.9774513
 142 TORSION  14 15 13 25               3.1412765     179.9818882
 143 TORSION  15 14 12 24              -3.1414274    -179.9905325
 144 TORSION  20  4  6 21              -0.0006255      -0.0358398
 145 TORSION  24 12 14 26               0.0000684       0.0039179
 146 TORSION  25 13 15 27               0.0002326       0.0133248
 147 TORSION  26 14 15 27              -0.0009366      -0.0536642

          INTERNUCLEAR DISTANCES (ANGS.)


 =====================================================
   GAMESS/COSab RESULTS
 =====================================================

   Dielectric Constant                  = INFTY
   Basic Grid Size                      =                 1082
   Number of Segments                   =                   92
   Number of Segments located on spheres=                  404
   Number of Segments of the cavity     =                 1010
   Solvent Radius (rsolv)               = 1.40
   Outlying Charge Error Method         = double cavity

 =====================================================

  Total solvated Energy (a.u.)          =  -575.1650843848
  Total Energy corrected (a.u.)         =  -575.1652396791

  Outlying charge effect (a.u.)         =    -0.0001552943
  Outlying charge effect (kcal/mol)     =    -0.0974487478

  Dielectric Energy (a.u.)              =    -0.0129601617
  Dielectric energy corr. (a.u.)        =    -0.0131154560

  Sum of polarization charges           =     0.0306749804
  Sum of polarization charges(cor.)     =    -0.0306749804

  Total surface area of cavity (A**2)   =  231.61
  Total volume of cavity (A**3)         =  241.29

 =====================================================
 NPS=                  1010
NR.  ATOM  (X, Y, Z)(a.u.)                  CHARGE(e)  AREA(A**2) SIGMA(e/A**2)
   1   1   8.172237   5.884930  -0.277150   0.000725   0.232280   0.003120
   2   1   9.216707   2.475025  -1.807067   0.000330   0.371649   0.000887
   3   1   6.407403  -0.058540  -0.699634   0.001256   0.418105   0.003005
   4   1  11.092800   2.160847   3.061601   0.000377   0.232280   0.001622
   5   1  11.339939   2.222395   2.224187   0.000903   0.278737   0.003240
   6   1  10.676809   1.091042   3.222486   0.000446   0.278737   0.001598
   7   1  10.843298   0.901117   2.565759   0.000323   0.139368   0.002320
   8   1   6.082112   0.788119  -1.272021   0.000720   0.278737   0.002583
   9   1   8.178487   2.813654  -2.116627   0.000485   0.418105   0.001160
  10   1   7.391721   5.814288  -0.448619   0.001048   0.325193   0.003223
  11   1   5.205596   5.505663   1.082081   0.000236   0.232280   0.001014
  12   1  11.327873   2.346999   0.880435   0.001074   0.325193   0.003303
  13   1  11.213910   1.596984   1.034729   0.000704   0.232280   0.003032
  14   1   6.062400   6.092509   1.432853   0.000651   0.325193   0.002001
  15   1   6.993406   6.286587   0.767945   0.001059   0.371649   0.002848
  16   1   8.623988   5.182226  -1.015598   0.001456   0.464561   0.003134
  17   1   9.077787   3.810857  -1.678039   0.000515   0.418105   0.001233
  18   1   8.544218   1.408831  -1.827763   0.000917   0.418105   0.002193
  19   1   7.265397   0.590762  -1.520066   0.001359   0.371649   0.003658
  20   1   7.846214   6.310831   0.662744   0.000662   0.232280   0.002849
  21   1  10.861531   3.044978  -0.309727   0.000644   0.371649   0.001733
  22   1  10.111553   2.991408  -1.215273   0.000476   0.464561   0.001025
  23   1   9.816838   1.706494  -1.314311   0.000353   0.325193   0.001085
  24   1  11.174210   1.439806   2.136624   0.000655   0.232280   0.002818
  25   1  10.021174   0.300122   3.357323   0.000144   0.139368   0.001030
  26   1   7.562598   1.510467  -1.978998   0.000802   0.325193   0.002466
  27   1   8.331295   4.420695  -1.651011   0.000449   0.278737   0.001611
  28   1   6.256355   5.979479   0.449709   0.000358   0.185824   0.001925
  29   1  10.751254   1.952886  -0.397335   0.000924   0.418105   0.002209
  30   1   7.276045   6.401974   2.019605   0.000823   0.464561   0.001772
  31   1   9.846804   4.270126  -0.987627   0.000365   0.371649   0.000983
  32   2   4.209729   5.285747   2.615768   0.000315   0.139368   0.002260
  33   2   5.309746   6.039491   3.416824   0.001264   0.232280   0.005442
  34   2   4.630808   5.703210   3.039755   0.000679   0.185824   0.003656
  35   2   3.968140   5.386903   3.356904   0.000451   0.139368   0.003236
  36   2   7.481867  -0.939157   5.224967   0.002219   0.325193   0.006825
  37   2   8.538320  -0.495192   4.627676   0.001347   0.232280   0.005799
  38   2   7.465468  -1.136230   4.109448   0.000602   0.232280   0.002591
  39   2   4.398126   5.745764   4.042782   0.001709   0.278737   0.006133
  40   3   7.880863  -0.377438   6.816090   0.000978   0.139368   0.007019
  41   3   9.876170   1.201871   7.883747   0.000494   0.139368   0.003548
  42   3   7.113564   7.061437   5.960160   0.001331   0.325193   0.004093
  43   3   8.067327   6.964565   6.106529   0.000758   0.278737   0.002718
  44   3  10.711392   2.108456   5.643937   0.000231   0.139368   0.001659
  45   3  10.476099   2.164262   7.722494   0.000292   0.232280   0.001258
  46   3  10.288409   1.375261   7.224391   0.000992   0.278737   0.003560
  47   3  10.314999   1.230510   5.844766   0.001540   0.325193   0.004735
  48   3   7.420694   6.808006   4.893205   0.001859   0.371649   0.005001
  49   3   7.449214   7.002990   6.943648   0.000568   0.232280   0.002443
  50   3   9.432543   0.543254   7.540629   0.001708   0.325193   0.005253
  51   3   8.578361  -0.095188   7.175600   0.001380   0.232280   0.005942
  52   3   8.814472  -0.110036   6.366548   0.001730   0.185824   0.009309
  53   3   9.694629   0.493301   5.952248   0.001486   0.232280   0.006396
  54   3   6.154434   6.754330   5.138277   0.003698   0.511017   0.007237
  55   3   6.202194   6.934213   6.563301   0.002096   0.418105   0.005014
  56   3   8.377877   6.706581   5.168627   0.000423   0.185824   0.002277
  57   3  10.653834   1.842692   6.562765   0.000926   0.278737   0.003322
  58   3   8.408800   6.787357   7.020286  -0.000021   0.092912  -0.000226
  59   3   5.033401   6.373503   5.806690   0.003189   0.418105   0.007628
  60   3   9.641691   0.461128   6.690172   0.001574   0.278737   0.005646
  61   4   5.795247  -1.652105   5.521918   0.000602   0.139368   0.004321
  62   4   2.931594  -2.421283   3.441862   0.001444   0.278737   0.005181
  63   4   1.567842   3.707059   2.318893   0.001318   0.325193   0.004054
  64   4   1.933797   3.007413   1.331902   0.000460   0.278737   0.001651
  65   4   0.302527   1.016421   2.608612   0.000111   0.092912   0.001198
  66   4   2.169851  -2.036226   2.995689   0.000418   0.278737   0.001498
  67   4   4.680061  -1.696105   1.854634   0.000066   0.139368   0.000474
  68   4   4.933877  -2.102271   2.687938   0.000928   0.325193   0.002853
  69   4   3.837925  -2.494033   3.326106   0.001029   0.232280   0.004430
[...]
 751   9   2.380062   5.386615  10.816691   0.000325   0.049702   0.006531
 752  10   2.974301   5.751124  11.212033   0.000241   0.049702   0.004853
 753  11   2.545851   5.572608  11.195496   0.000283   0.049702   0.005694
 754   9  -0.081195   4.334477  12.325929   0.000350   0.048683   0.007183
 755  11   0.064573   4.513393  12.716119   0.000291   0.048683   0.005968
 756  13  -0.134112   4.433154  13.132307   0.000197   0.048683   0.004050
 757   9   2.899447  -1.488462  13.244054   0.000350   0.048683   0.007189
 758  11   3.079246  -1.376029  13.644727   0.000260   0.048683   0.005348
 759  13   2.845432  -1.387639  14.050094   0.000203   0.048683   0.004180
 760  11   3.687520  -1.348212  13.210329   0.001213   0.213064   0.005695
 761  11   5.025079  -0.811765  12.409421   0.001124   0.213064   0.005276
 762   9   4.084086  -1.248689  12.242268   0.002596   0.438352   0.005922
 763  11   1.835776   5.447246  11.416072   0.001266   0.214548   0.005899
 764  11   0.504908   4.876786  12.227105   0.001254   0.214548   0.005843
 765   9   0.946192   4.899163  11.268885   0.002750   0.441748   0.006225
 766   9  -1.331679   2.188218  12.258862  -0.000323   0.064190  -0.005024
 767  13  -1.308948   2.269290  13.067769  -0.000373   0.064190  -0.005813
 768  23  -1.433905   1.919325  12.175233  -0.000529   0.064190  -0.008237
 769   9   0.443071  -1.169512  13.302642  -0.000373   0.064113  -0.005815
 770  13   0.359278  -1.142768  14.111145  -0.000303   0.064113  -0.004726
 771  25   0.081398  -1.067882  14.193715  -0.000511   0.064113  -0.007974
 772  13  -0.617650   4.125310  13.317267   0.000533   0.314360   0.001697
 773  13  -1.308944   2.926934  13.419182  -0.000200   0.314360  -0.000636
 774   9  -0.852215   3.364677  12.223324   0.000363   0.630714   0.000576
 775  13   0.903510  -1.413125  14.102887  -0.000223   0.316395  -0.000706
 776  13   2.287661  -1.556086  14.212883   0.000612   0.316395   0.001936
 777   9   1.676751  -1.586831  13.003674   0.000329   0.634866   0.000518
 778   9  -1.139572   1.612228   8.921623  -0.000433   0.084622  -0.005119
 779  21  -1.126731   1.211097   8.037111  -0.000622   0.084622  -0.007346
 780  23  -1.267466   1.374000   9.053858  -0.000626   0.084622  -0.007392
 781   9   0.311591  -1.236841  12.835773  -0.000436   0.084212  -0.005177
 782  23   0.042329  -1.199010  12.706719  -0.000625   0.084212  -0.007423
 783  25  -0.006314  -0.995327  13.716055  -0.000607   0.084212  -0.007209
 784  23  -1.649656   1.868571  11.480189  -0.000493   0.078297  -0.006298
 785  23  -1.600609   1.766329  10.216824  -0.001329   0.180661  -0.007358
 786   9  -1.471165   2.237946  10.993645  -0.000932   0.165486  -0.005632
 787   9  -1.355643   2.004332   9.618754  -0.000432   0.095657  -0.004520
 788  23   0.201063  -1.780259  10.292984  -0.000550   0.077687  -0.007075
 789  23   0.156927  -1.687722  11.548211  -0.001364   0.178856  -0.007627
 790   9   0.608175  -1.856619  10.772674  -0.000955   0.164522  -0.005805
 791   9   0.498941  -1.635419  12.140038  -0.000413   0.094912  -0.004347
 792  10   6.192755   0.419329  15.114211   0.000237   0.051923   0.004566
 793  11   5.764171   0.240973  15.097658   0.000159   0.051923   0.003063
 794  12   6.358650   0.609237  15.509396   0.000277   0.051923   0.005334
 795  10   3.167891   6.355604  14.177980   0.000234   0.051923   0.004507
 796  11   2.773138   6.110854  14.171898   0.000161   0.051923   0.003105
 797  12   3.367941   6.478485  14.583736   0.000265   0.051923   0.005106
 798  11   2.429830   6.068969  13.453893   0.000847   0.212327   0.003990
 799  11   2.530343   5.870330  11.863052   0.001070   0.212327   0.005039
 800  10   3.095509   6.227299  12.665185   0.001739   0.435073   0.003996
 801  11   5.718321  -0.386047  12.860986   0.000967   0.211194   0.004578
 802  11   5.616077  -0.184017  14.443027   0.000762   0.211194   0.003609
 803  10   6.237642   0.060889  13.644699   0.001828   0.432533   0.004226
 804  12   7.151305   0.763779  15.487279   0.001124   0.219677   0.005117
 805  12   8.480133   1.336203  14.704659   0.000850   0.219677   0.003869
 806  10   7.542177   0.877352  14.505244   0.001746   0.451043   0.003870
 807  12   5.320582   7.559906  13.718067   0.000840   0.220915   0.003802
 808  12   3.968116   7.016892  14.499745   0.001128   0.220915   0.005107
 809  10   4.418506   7.021918  13.533032   0.001692   0.453852   0.003728
 810  11   2.463983   5.950454  14.383723   0.000300   0.109529   0.002736
 811  12   3.088334   6.266111  14.796874   0.000275   0.109529   0.002508
 812  13   2.240858   5.880087  14.792786   0.000463   0.109529   0.004227
 813  11   5.430565   0.136177  15.295106   0.000289   0.109529   0.002636
 814  12   6.001180   0.557155  15.691748   0.000275   0.109529   0.002508
 815  13   5.191046   0.097943  15.699133   0.000436   0.109529   0.003978
 816  13   3.303391  -1.307446  14.700153   0.000831   0.218851   0.003796
 817  13   4.540029  -0.568374  15.485629   0.001118   0.218851   0.005110
 818  11   4.223352  -0.816713  14.503954   0.001714   0.449253   0.003815
 819  13   1.349405   5.680781  14.504874   0.001146   0.219707   0.005215
 820  13   0.121249   4.913356  13.720500   0.000845   0.219707   0.003844
 821  11   1.084553   5.325163  13.538389   0.001810   0.451192   0.004012
 822  12   6.203429   0.671777  16.101447   0.000597   0.100487   0.005938
 823  13   5.356146   0.286052  16.098389   0.000405   0.100487   0.004033
 824  14   5.984553   0.595793  16.478186   0.000646   0.100487   0.006430
 825  12   3.248395   6.463405  15.199673   0.000579   0.100487   0.005760
 826  13   2.438493   6.004416  15.208022   0.000415   0.100487   0.004129
 827  14   3.011274   6.423180  15.570845   0.000653   0.100487   0.006499
 828  14   6.755287   0.782513  16.930038   0.001679   0.201164   0.008346
 829  14   8.155548   1.960569  17.939788   0.003560   0.413348   0.008613
 830  14   8.777605   4.308713  18.659324  -0.000697   0.413348  -0.001685
 831  12   7.645973   1.265121  16.793325   0.004012   0.413348   0.009707
 832  12   8.982306   3.130555  17.867029   0.001852   0.413348   0.004481
 833  12   9.084762   5.185672  18.233273  -0.000648   0.201164  -0.003221
 834  14   7.963369   6.676184  18.525426  -0.000687   0.201132  -0.003416
 835  14   6.315260   7.650052  17.687447   0.001848   0.413275   0.004472
 836  14   4.171825   7.366872  16.367503   0.004028   0.413275   0.009746
 837  12   7.671415   7.183068  17.687239  -0.000707   0.413275  -0.001710
 838  12   5.525364   7.821740  16.502619   0.003570   0.413275   0.008638
 839  12   3.882008   7.120652  15.418763   0.001714   0.201132   0.008520
 840  12   8.433941   7.218556  13.536051  -0.000416   0.084582  -0.004915
 841  22   8.745861   6.971128  12.650191  -0.000583   0.084582  -0.006890
 842  24   8.701980   7.181888  13.667902  -0.000636   0.084582  -0.007519
 843  12  10.097031   3.959444  14.055201  -0.000416   0.084582  -0.004923
 844  22  10.198221   4.124978  13.103560  -0.000583   0.084582  -0.006892
 845  24  10.210727   4.225238  14.138873  -0.000594   0.084582  -0.007022
 846  12   8.721257   6.184450  18.138324  -0.000089   0.006074  -0.014617
 847  24   8.916811   6.230572  17.919575  -0.000112   0.006074  -0.018517
 848  26   8.368255   6.079910  18.770066  -0.000116   0.006074  -0.019176
 849  12   8.872700   5.887669  18.184558  -0.000084   0.006074  -0.013901
 850  24   9.052692   5.964288  17.961059  -0.000112   0.006074  -0.018422
 851  26   8.501567   5.818662  18.810764  -0.000122   0.006074  -0.020007
 852  24   9.531015   5.832763  17.638630  -0.000571   0.071054  -0.008032
 853  24  10.015613   4.882327  17.183174  -0.001053   0.159863  -0.006588
 854  24  10.373591   4.179174  16.027985  -0.000962   0.159863  -0.006016
 855  24  10.389426   4.146639  14.868548  -0.000387   0.071054  -0.005442
 856  12   9.466488   5.239029  17.739178  -0.001067   0.153699  -0.006941
 857  12  10.044266   4.105353  16.817928  -0.000666   0.153699  -0.004336
 858  12  10.223111   3.752842  15.297566  -0.000761   0.153699  -0.004951
 859  24   8.653512   7.548462  14.327498  -0.000443   0.071262  -0.006216
 860  24   8.523670   7.804417  15.454685  -0.000966   0.160441  -0.006024
 861  24   8.725120   7.411278  16.785828  -0.001091   0.160441  -0.006800
 862  24   9.136317   6.606244  17.517784  -0.000571   0.071262  -0.008016
 863  12   8.187787   7.741412  14.664713  -0.000746   0.154047  -0.004845
 864  12   8.170369   7.777584  16.239097  -0.000654   0.154047  -0.004247
 865  12   8.613405   6.910797  17.477118  -0.001139   0.154047  -0.007391
 866  26   8.405968   5.739175  19.340044  -0.000254   0.030598  -0.008313
 867  12   8.886619   5.825950  18.362316  -0.000154   0.043229  -0.003557
 868  26   8.199634   6.149983  19.276488  -0.000255   0.030679  -0.008309
 869  12   8.642914   6.297544  18.288439  -0.000166   0.043342  -0.003841
 870  13   2.079562   5.951947  15.375323   0.000426   0.047925   0.008881
 871  14   2.677937   6.313906  15.756016   0.000378   0.047925   0.007884
 872  15   2.246494   6.133786  15.738835   0.000449   0.047925   0.009359
 873  13   5.081385   0.071465  16.288644   0.000412   0.047925   0.008591
 874  14   5.677678   0.437506  16.668703   0.000376   0.047925   0.007855
 875  15   5.280238   0.190774  16.661867   0.000451   0.047925   0.009412
 876  15   0.065143   0.659734  18.753754  -0.000687   0.200886  -0.003420
 877  15   1.790483  -0.459631  18.391057   0.001871   0.412751   0.004533
 878  15   4.087394  -0.468397  17.326493   0.004034   0.412751   0.009774
 879  13   0.453452  -0.028330  18.106279  -0.000687   0.412751  -0.001663
 880  13   2.721520  -0.898170  17.393245   0.003557   0.412751   0.008619
 881  13   4.499265  -0.453031  16.391846   0.001676   0.200886   0.008345
 882  15   1.553867   6.017421  15.957728   0.001645   0.201010   0.008183
 883  15   0.019454   5.093578  17.033958   0.003585   0.413032   0.008680
 884  15  -0.724165   2.977411  18.210679  -0.000685   0.413032  -0.001658
 885  13   0.681047   5.501872  15.828905   0.003996   0.413032   0.009676
 886  13  -0.808468   3.927424  17.139731   0.001837   0.413032   0.004447
 887  13  -0.987630   2.019307  17.972299  -0.000657   0.201010  -0.003268
 888  13  -1.444533   2.197570  13.535293  -0.000427   0.084135  -0.005073
 889  23  -1.430504   1.801206  12.654075  -0.000618   0.084135  -0.007345
 890  25  -1.572498   1.957204  13.663091  -0.000607   0.084135  -0.007219
 891  25  -0.091190  -1.212105  14.844338  -0.000422   0.067689  -0.006232
 892  25  -0.108349  -1.197866  15.953271  -0.000886   0.150666  -0.005878
 893  25  -0.440839  -0.568462  17.089505  -0.000946   0.150666  -0.006279
 894  25  -1.017453   0.549220  17.554297  -0.001279   0.150666  -0.008492
 895  25  -1.598001   1.689607  17.154035  -0.001122   0.150666  -0.007447
 896  25  -1.940653   2.377668  16.055450  -0.000879   0.150666  -0.005833
 897  25  -1.902678   2.326789  14.716160  -0.000945   0.150666  -0.006274
 898  13   0.324693  -1.313519  15.252888  -0.000707   0.147927  -0.004783
 899  13   0.157136  -1.011852  16.719008  -0.000601   0.147927  -0.004063
 900  13  -0.382348   0.024911  17.669096  -0.000994   0.147927  -0.006720
 901  13  -1.069035   1.364903  17.707389  -0.001206   0.147927  -0.008149
 902  13  -1.616885   2.449949  16.817937  -0.000753   0.147927  -0.005092
 903  13  -1.797688   2.828067  15.371243  -0.000661   0.147927  -0.004471
 904  13  -1.652997   2.566196  14.184198  -0.000351   0.082698  -0.004242
 905  27  -0.376655   1.599751  19.280732  -0.000842   0.126596  -0.006650
 906  13  -0.667185   1.158854  18.317630  -0.000605   0.178765  -0.003382
 907  14   4.508286   3.752541  21.358806  -0.000083   0.007702  -0.010802
 908  15   4.093702   3.542000  21.314894  -0.000114   0.007702  -0.014851
 909  26   4.733991   3.932468  21.429344  -0.000126   0.007702  -0.016389
 910  14   4.037224   4.675338  21.215071  -0.000096   0.007702  -0.012404
 911  15   3.628943   4.452449  21.173082  -0.000116   0.007702  -0.015109
 912  26   4.305618   4.771638  21.298634  -0.000119   0.007702  -0.015496
 913  15   3.084592   4.751452  20.983757  -0.000741   0.206509  -0.003588
 914  15   2.430969   6.033417  19.560984  -0.000258   0.421697  -0.000611
 915  15   2.201046   6.486759  17.156273   0.002350   0.421697   0.005572
 916  14   3.412680   5.583433  20.478981  -0.001447   0.421697  -0.003432
 917  14   2.813959   6.758684  18.405014   0.001063   0.421697   0.002520
 918  14   2.829986   6.729833  16.381687   0.001312   0.206509   0.006352
 919  15   5.424403   0.173285  17.352525   0.001288   0.206599   0.006233
 920  15   5.187788   0.634260  19.309489   0.001088   0.421896   0.002579
 921  15   4.353023   2.267166  20.947258  -0.001556   0.421896  -0.003688
 922  14   5.955615   0.605835  18.117937   0.002329   0.421896   0.005521
 923  14   5.434690   1.623381  20.294802  -0.000224   0.421896  -0.000532
 924  14   4.628211   3.201713  21.272888  -0.000752   0.206599  -0.003640
 925  26   5.218372   3.902249  21.551306  -0.000512   0.071350  -0.007178
 926  26   6.223544   3.359386  21.318197  -0.001066   0.160790  -0.006632
 927  26   7.499502   3.434047  20.733211  -0.000825   0.160790  -0.005131
 928  26   8.316298   4.339553  20.034099  -0.001004   0.160790  -0.006242
 929  26   8.431463   5.407139  19.579779  -0.000499   0.071350  -0.006994
 930  14   5.361622   3.361434  21.316184  -0.001070   0.154092  -0.006944
 931  14   6.806858   2.933925  20.847404  -0.000645   0.154092  -0.004188
 932  14   8.056281   3.519107  20.080769  -0.000602   0.154092  -0.003910
 933  14   8.531825   4.846237  19.370973  -0.001039   0.154092  -0.006745
 934  26   7.904211   6.440171  19.418837  -0.000509   0.071354  -0.007131
 935  26   6.931230   7.053193  19.611347  -0.000946   0.160801  -0.005881
 936  26   5.639619   7.077812  20.165586  -0.000941   0.160801  -0.005853
 937  26   4.749393   6.247340  20.868336  -0.001012   0.160801  -0.006296
 938  26   4.554416   5.202936  21.348706  -0.000511   0.071354  -0.007160
 939  14   7.544046   6.781532  19.069470  -0.000966   0.154099  -0.006267
 940  14   6.118968   7.314640  19.489486  -0.000617   0.154099  -0.004002
 941  14   4.816352   6.833523  20.239942  -0.000659   0.154099  -0.004278
 942  14   4.238940   5.560803  20.973593  -0.001026   0.154099  -0.006660
 943  15   3.329075   4.228226  21.216464  -0.000178   0.016930  -0.010541
 944  26   4.024821   4.525578  21.241831  -0.000180   0.016930  -0.010624
 945  27   3.091245   4.064768  21.285002  -0.000213   0.016930  -0.012602
 946  15   3.734394   3.434932  21.339369  -0.000189   0.016930  -0.011144
 947  26   4.380793   3.828867  21.349773  -0.000179   0.016930  -0.010600
 948  27   3.454768   3.353278  21.395233  -0.000194   0.016930  -0.011468
 949  26   4.450150   4.828225  21.405424  -0.000082   0.008677  -0.009408
 950  15   3.431127   4.357216  21.283656  -0.000029   0.012234  -0.002377
 951  26   4.848398   4.047006  21.528087  -0.000087   0.007786  -0.011137
 952  15   3.891959   3.456122  21.422478  -0.000035   0.010977  -0.003143
 953  27   0.015180   1.102940  19.564821  -0.000517   0.071771  -0.007201
 954  27   0.953093   0.570146  20.024849  -0.000947   0.161993  -0.005843
 955  27   2.168212   0.710502  20.732806  -0.000939   0.161993  -0.005794
 956  27   2.967736   1.716157  21.321736  -0.001028   0.161993  -0.006346
 957  27   3.101156   2.858369  21.551358  -0.000531   0.071771  -0.007398
 958  15   0.414919   0.693100  19.358260  -0.000969   0.154769  -0.006261
 959  15   1.775165   0.304541  20.077216  -0.000610   0.154769  -0.003941
 960  15   2.978867   0.989256  20.852076  -0.000657   0.154769  -0.004246
 961  15   3.462189   2.426511  21.319880  -0.001053   0.154769  -0.006802
 962  27   2.468496   4.096586  21.359512  -0.000528   0.071779  -0.007356
 963  27   1.509184   4.570590  20.879424  -0.001068   0.162014  -0.006593
 964  27   0.307286   4.352136  20.168437  -0.000814   0.162014  -0.005024
 965  27  -0.438421   3.292997  19.602814  -0.001003   0.162014  -0.006194
 966  27  -0.514679   2.139678  19.404110  -0.000472   0.071779  -0.006580
 967  15   2.367900   4.568133  20.988041  -0.001078   0.154781  -0.006967
 968  15   0.995550   4.870535  20.250608  -0.000638   0.154781  -0.004123
 969  15  -0.168114   4.107192  19.487853  -0.000593   0.154781  -0.003828
 970  15  -0.577897   2.635743  19.057140  -0.001034   0.154781  -0.006679
 971  20   2.722331   2.049686   0.155185  -0.000629   0.269993  -0.002329
 972  20   3.269822   1.052076  -0.206693  -0.002504   0.539906  -0.004638
 973  16   3.996162   2.523422  -0.732355  -0.001721   0.539906  -0.003187
 974  16   4.601272   1.530088  -1.002649  -0.000283   0.269993  -0.001047
 975  19  11.185718   3.927907   4.824349  -0.000822   0.231493  -0.003549
 976  19  10.953896   5.012081   4.775614  -0.002579   0.463009  -0.005569
 977  19  10.035203   6.006551   4.708421  -0.002091   0.463009  -0.004516
 978  18  11.170246   4.292917   3.379499  -0.001552   0.463009  -0.003353
 979  18  10.622676   5.531249   3.314827  -0.002000   0.463009  -0.004319
 980  18   9.720028   6.174628   3.261535  -0.000648   0.231493  -0.002798
 981  22  10.812136   3.980148   9.529053  -0.000949   0.265953  -0.003569
 982  22  10.752415   5.199335   9.365389  -0.003511   0.532077  -0.006598
 983  22   9.846959   6.368366   9.150508  -0.003060   0.532077  -0.005750
 984  19  10.923694   4.259273   8.014446  -0.002876   0.532077  -0.005406
 985  19  10.510405   5.679137   7.800358  -0.003178   0.532077  -0.005973
 986  19   9.559431   6.444095   7.635257  -0.000867   0.265953  -0.003261
 987  21  -0.168669  -0.758574   3.825558  -0.000361   0.175924  -0.002053
 988  20   0.622380  -0.683988   2.601561  -0.000298   0.175924  -0.001692
 989  23  -1.576957   1.015862   9.099299  -0.001000   0.264885  -0.003775
 990  23  -1.517679  -0.189678   9.257863  -0.003497   0.529878  -0.006600
 991  23  -0.628537  -1.352212   9.463553  -0.003100   0.529878  -0.005851
 992  21  -1.495346   0.363242   7.688334  -0.003082   0.529878  -0.005816
 993  21  -1.089444  -1.042834   7.894640  -0.003377   0.529878  -0.006373
 994  21  -0.155380  -1.807503   8.052090  -0.000917   0.264885  -0.003462
 995  24  10.517056   4.589300  14.130707  -0.000877   0.265489  -0.003304
 996  24  10.452687   5.796258  13.972439  -0.003215   0.531085  -0.006053
 997  24   9.556272   6.955898  13.768941  -0.002957   0.531085  -0.005568
 998  22  10.617524   4.865790  12.600487  -0.003035   0.531085  -0.005714
 999  22  10.204659   6.271909  12.395280  -0.003404   0.531085  -0.006410
1000  22   9.264922   7.032669  12.240107  -0.001047   0.265489  -0.003943
1001  25  -1.880559   1.594683  13.705180  -0.000920   0.265695  -0.003464
1002  25  -1.818704   0.377162  13.858802  -0.003397   0.531548  -0.006391
1003  25  -0.914354  -0.790659  14.062081  -0.003141   0.531548  -0.005909
1004  23  -1.795287   0.946801  12.303688  -0.003261   0.531548  -0.006134
1005  23  -1.380879  -0.471161  12.505260  -0.003506   0.531548  -0.006597
1006  23  -0.431857  -1.235739  12.661972  -0.000974   0.265695  -0.003665
1007  26   8.460011   5.991303  19.197002  -0.000091   0.100933  -0.000899
1008  24   9.174121   6.228497  17.942258  -0.000127   0.100933  -0.001259
1009  27   3.200389   3.614036  21.555783  -0.000754   0.276085  -0.002730
1010  26   4.453843   4.433940  21.535639  -0.000746   0.276085  -0.002703
 =====================================================

             10567140  WORDS OF DYNAMIC MEMORY USED
 EXECUTION OF GAMESS TERMINATED NORMALLY Wed Nov 23 10:55:49 2016
 DDI: 263640 bytes (0.3 MB / 0 MWords) used by master data server.

 ----------------------------------------
 CPU timing information for all processes
 ========================================
 0: 11778.232 + 2.588 = 11780.820
 ----------------------------------------
 ddikick.x: exited gracefully.
