----- GAMESS execution script -----

          ******************************************************
          *         GAMESS VERSION =  5 DEC 2014 (R1)          *
          *             FROM IOWA STATE UNIVERSITY             *
          * M.W.SCHMIDT, K.K.BALDRIDGE, J.A.BOATZ, S.T.ELBERT, *
          *   M.S.GORDON, J.H.JENSEN, S.KOSEKI, N.MATSUNAGA,   *
          *          K.A.NGUYEN, S.J.SU, T.L.WINDUS,           *
          *       TOGETHER WITH M.DUPUIS, J.A.MONTGOMERY       *
          *         J.COMPUT.CHEM.  14, 1347-1363(1993)        *
          **************** 64 BIT LINUX VERSION ****************

 EXECUTION OF GAMESS BEGUN Wed Nov 23 09:38:39 2016

            ECHO OF THE FIRST FEW INPUT CARDS -
 INPUT CARD>! SELECT RESTRICTED HARTREE-FOCK AS DEFAULT                                     
 INPUT CARD>$contrl scftyp=rhf $end                                                         
 INPUT CARD>                                                                                
 INPUT CARD>! THEORY: HF OR DFT                                                             
 INPUT CARD> $contrl mplevl=0 $end                                                          
 INPUT CARD>                                                                                
 INPUT CARD> $system timlim=10000 mwords=20 $end                                            
 INPUT CARD> $SCF DIRSCF=.TRUE. $end                                                        
 INPUT CARD>                                                                                
 INPUT CARD>                                                                                
 INPUT CARD>! BASIS SETS                                                                    
 INPUT CARD>! 6-311G(d,p)                                                                   
 INPUT CARD> $BASIS GBASIS=N311 NGAUSS=6 NDFUNC=1 NPFUNC=1 $END                             
 INPUT CARD>                                                                                
 INPUT CARD>! One of the following                                                          
 INPUT CARD> $guess guess=HUCKEL $end                                                       
 INPUT CARD>                                                                                
 INPUT CARD> $statpt projct=.FALSE. $end                                                    
 INPUT CARD> $STATPT IFREEZ(1)=1,2,3 $END                                                   
 INPUT CARD>                                                                                
 INPUT CARD>! Optimize the geometry with COSMO effects                                      
 INPUT CARD> $statpt opttol=0.0005 nstep=50 $end                                            
 INPUT CARD> $contrl nzvar=1 $end                                                           
 INPUT CARD> $zmat dlc=.t. auto=.t. $end                                                    
 INPUT CARD> $contrl runtyp=OPTIMIZE maxit=200 $end                                         
 INPUT CARD>                                                                                
 INPUT CARD>! Run COSMO on perfect conductor                                                
 INPUT CARD> $COSGMS PRFCND=.TRUE. $end                                                     
 INPUT CARD>                                                                                
 INPUT CARD>! Specifying RSOLV                                                              
 INPUT CARD> $COSGMS COSRAD = 1.4 $end                                                      
 INPUT CARD>                                                                                
 INPUT CARD>! available memory                                                              
 INPUT CARD> $SYSTEM MWORDS=40 $END                                                         
 INPUT CARD>                                                                                
 INPUT CARD> $DATA                                                                          
 INPUT CARD>http://cactus.nci.nih.gov/chemical/structure/2-PYRROLIDONE/file?format=sdf&get3d
 INPUT CARD>C1                                                                              
 INPUT CARD>N      7.0     -0.0654000000    1.1089000000    0.0172000000                    
 INPUT CARD>C      6.0     -0.8024000000   -0.0147000000   -0.0152000000                    
 INPUT CARD>C      6.0      0.0964000000   -1.2225000000   -0.1627000000                    
 INPUT CARD>C      6.0      1.5032000000   -0.6953000000    0.2033000000                    
 INPUT CARD>C      6.0      1.3662000000    0.8113000000   -0.1097000000                    
 INPUT CARD>O      8.0     -2.0121000000   -0.0544000000    0.0630000000                    
 INPUT CARD>H      1.0     -0.4327000000    2.0020000000    0.1084000000                    
 INPUT CARD>H      1.0     -0.2070000000   -2.0104000000    0.5268000000                    
 INPUT CARD>H      1.0      0.0808000000   -1.5865000000   -1.1900000000                    
 INPUT CARD>H      1.0      1.7174000000   -0.8563000000    1.2598000000                    
 INPUT CARD>H      1.0      2.2675000000   -1.1558000000   -0.4228000000                    
 INPUT CARD>H      1.0      1.7060000000    1.0182000000   -1.1245000000                    
   40000000 WORDS OF MEMORY AVAILABLE

     BASIS OPTIONS
     -------------
     GBASIS=N311         IGAUSS=       6      POLAR=POPN311 
     NDFUNC=       1     NFFUNC=       0     DIFFSP=       F
     NPFUNC=       1      DIFFS=       F     BASNAM=        


     RUN TITLE
     ---------
 http://cactus.nci.nih.gov/chemical/structure/2-PYRROLIDONE/file?format=sdf&get3d

 THE POINT GROUP OF THE MOLECULE IS C1      
 THE ORDER OF THE PRINCIPAL AXIS IS     0

 ATOM      ATOMIC                      COORDINATES (BOHR)
           CHARGE         X                   Y                   Z
 N           7.0    -0.1235880796        2.0955171478        0.0325032870
 C           6.0    -1.5163161325       -0.0277789720       -0.0287238350
 C           6.0     0.1821695852       -2.3101900200       -0.3074584182
 C           6.0     2.8406361047       -1.3139264793        0.3841812933
 C           6.0     2.5817436444        1.5331346938       -0.2073029409
 O           8.0    -3.8023176599       -0.1028010937        0.1190527372
 H           1.0    -0.8176844349        3.7832314274        0.2048462971
 H           1.0    -0.3911732795       -3.7991051257        0.9955076503
 H           1.0     0.1526898598       -2.9980502795       -2.2487739254
 H           1.0     3.2454154113       -1.6181723633        2.3806767993
 H           1.0     4.2849536772       -2.1841452966       -0.7989761476
 H           1.0     3.2238725351        1.9241190007       -2.1249968732
 H           1.0     3.6636117724        2.6441046020        1.1485754553

          INTERNUCLEAR DISTANCES (ANGS.)




     $CONTRL OPTIONS
     ---------------
 SCFTYP=RHF          RUNTYP=OPTIMIZE     EXETYP=RUN     
 MPLEVL=       0     CITYP =NONE         CCTYP =NONE         VBTYP =NONE    
 DFTTYP=NONE         TDDFT =NONE    
 MULT  =       1     ICHARG=       0     NZVAR =       1     COORD =UNIQUE  
 PP    =NONE         RELWFN=NONE         LOCAL =NONE         NUMGRD=       F
 ISPHER=      -1     NOSYM =       0     MAXIT =     200     UNITS =ANGS    
 PLTORB=       F     MOLPLT=       F     AIMPAC=       F     FRIEND=        
 NPRINT=       7     IREST =       0     GEOM  =INPUT   
 NORMF =       0     NORMP =       0     ITOL  =      20     ICUT  =       9
 INTTYP=BEST         GRDTYP=BEST         QMTTOL= 1.0E-06

     $SYSTEM OPTIONS
     ---------------
  REPLICATED MEMORY=    40000000 WORDS (ON EVERY NODE).
 DISTRIBUTED MEMDDI=           0 MILLION WORDS IN AGGREGATE,
 MEMDDI DISTRIBUTED OVER   1 PROCESSORS IS           0 WORDS/PROCESSOR.
 TOTAL MEMORY REQUESTED ON EACH PROCESSOR=    40000000 WORDS.
 TIMLIM=       10000.00 MINUTES, OR       6.9 DAYS.
 PARALL= F  BALTYP=  DLB     KDIAG=    0  COREFL= F
 MXSEQ2=     300 MXSEQ3=     150  mem10=         0

     $COSGMS OPTIONS
     ---------------
     EPSI  =   INFTY     NSPA  =      92     COSRAD=    1.40
     DISEX =   10.00     OUTCHG=DBLCAV       COSBUG=       F
     COSWRT=       F     DCOSMO=       F

     SYMMETRY COORDINATES WILL NOT BE USED FOR 
     THE COSMO CALCULATION, EVEN IF SPECIFIED:
         -- SWITCHING TO C1 POINT GROUP --


     DEFINITION OF CAVITY
     ---------------------------
     ATOM         COORDINATES           RADIUS 
     1   -0.1236    2.0955    0.0325    1.8300
     2   -1.5163   -0.0278   -0.0287    2.0000
     3    0.1822   -2.3102   -0.3075    2.0000
     4    2.8406   -1.3139    0.3842    2.0000
     5    2.5817    1.5331   -0.2073    2.0000
     6   -3.8023   -0.1028    0.1191    1.7200
     7   -0.8177    3.7832    0.2048    1.3000
     8   -0.3912   -3.7991    0.9955    1.3000
     9    0.1527   -2.9981   -2.2488    1.3000
    10    3.2454   -1.6182    2.3807    1.3000
    11    4.2850   -2.1841   -0.7990    1.3000
    12    3.2239    1.9241   -2.1250    1.3000
    13    3.6636    2.6441    1.1486    1.3000

          ----------------
          PROPERTIES INPUT
          ----------------

     MOMENTS            FIELD           POTENTIAL          DENSITY
 IEMOM =       1   IEFLD =       0   IEPOT =       0   IEDEN =       0
 WHERE =COMASS     WHERE =NUCLEI     WHERE =NUCLEI     WHERE =NUCLEI  
 OUTPUT=BOTH       OUTPUT=BOTH       OUTPUT=BOTH       OUTPUT=BOTH    
 IEMINT=       0   IEFINT=       0                     IEDINT=       0
                                                       MORB  =       0
          EXTRAPOLATION IN EFFECT
          SOSCF IN EFFECT
 ORBITAL PRINTING OPTION: NPREO=     1   156     2     1

     -------------------------------
     INTEGRAL TRANSFORMATION OPTIONS
     -------------------------------
     NWORD  =            0
     CUTOFF = 1.0E-09     MPTRAN =       0
     DIRTRF =       T     AOINTS =DUP     

          ----------------------
          INTEGRAL INPUT OPTIONS
          ----------------------
 NOPK  =       1 NORDER=       0 SCHWRZ=       T


 -----------------------------------------------
  STATISTICS ON AUTOMATIC COORDINATE GENERATION 
 -----------------------------------------------
  NUMBER OF USER SPECIFIED BONDS                             0
  NUMBER OF BONDS                                           13
  NUMBER OF ANGLES                                          24
  NUMBER OF TORSIONS                                        34
  NUMBER OF EXTRA COORD.                                     0
  NUMBER OF EXTRA COORD. FOR CONSTRAINTS                     0
  NUMBER OF CONSTRAINED COORD.                               0

  TOTAL NUMBER OF PRIMITIVES                                71
 -----------------------------------------------

   --- ENCODED Z MATRIX ---
 COORD  TYPE   I   J   K   L   M   N
    1      1    1   7
    2      1    1   5
    3      1    1   2
    4      1    2   6
    5      1    2   3
    6      1    3   4
    7      1    3   9
    8      1    3   8
    9      1    4  11
   10      1    4  10
   11      1    4   5
   12      1    5  13
   13      1    5  12
   14      2    1   5  12
   15      2    1   2   3
   16      2    1   2   6
   17      2    1   5  13
   18      2    1   5   4
   19      2    2   3   4
   20      2    2   3   8
   21      2    2   3   9
   22      2    2   1   7
   23      2    2   1   5
   24      2    3   4  11
   25      2    3   2   6
   26      2    3   4   5
   27      2    3   4  10
   28      2    4   3   8
   29      2    4   3   9
   30      2    4   5  13
   31      2    4   5  12
   32      2    5   1   7
   33      2    5   4  10
   34      2    5   4  11
   35      2    8   3   9
   36      2   10   4  11
   37      2   12   5  13
   38      3    1   5   4  11
   39      3    1   5   4   3
   40      3    1   2   3   8
   41      3    1   2   3   9
   42      3    1   2   3   4
   43      3    1   5   4  10
   44      3    2   1   5   4
   45      3    2   1   5  13
   46      3    2   3   4   5
   47      3    2   3   4  10
   48      3    2   3   4  11
   49      3    2   1   5  12
   50      3    3   2   1   7
   51      3    3   4   5  12
   52      3    3   4   5  13
   53      3    3   2   1   5
   54      3    4   5   1   7
   55      3    4   3   2   6
   56      3    5   4   3   8
   57      3    5   4   3   9
   58      3    5   1   2   6
   59      3    6   2   3   9
   60      3    6   2   3   8
   61      3    6   2   1   7
   62      3    7   1   5  12
   63      3    7   1   5  13
   64      3    8   3   4  10
   65      3    8   3   4  11
   66      3    9   3   4  10
   67      3    9   3   4  11
   68      3   10   4   5  12
   69      3   10   4   5  13
   70      3   11   4   5  12
   71      3   11   4   5  13

          INDEP./SYM. INTERNAL COORDINATES
          --------------------------------
 CRD  1=  -0.2494 (  3) -0.1051 (  8) -0.1180 ( 12) -0.1541 ( 14) -0.1506 ( 15)
           0.3625 ( 18)  0.3432 ( 19) -0.1439 ( 21) -0.1269 ( 23)  0.1244 ( 24)
           0.1730 ( 25) -0.4316 ( 26)  0.1694 ( 27) -0.1217 ( 28) -0.1478 ( 29)
          -0.1298 ( 30) -0.1407 ( 31)  0.1130 ( 32)  0.1579 ( 33)  0.1211 ( 34)
           0.1350 ( 35) -0.1491 ( 36)  0.1422 ( 37)
 CRD  2=   0.3332 (  2)  0.2010 (  3) -0.4118 (  5) -0.2059 (  6) -0.1028 (  8)
           0.4768 ( 16)  0.1391 ( 17)  0.2467 ( 19) -0.1624 ( 20) -0.4067 ( 25)
           0.1108 ( 35)
 CRD  3=  -0.2054 (  2)  0.2305 (  3)  0.2006 (  5) -0.3973 (  6) -0.1414 (  9)
          -0.4520 ( 11) -0.1091 ( 12)  0.1408 ( 18)  0.1465 ( 20)  0.3156 ( 22)
          -0.1461 ( 23)  0.1586 ( 26) -0.1132 ( 28) -0.1165 ( 30) -0.1310 ( 31)
          -0.1694 ( 32) -0.1041 ( 34)  0.1141 ( 36)  0.1105 ( 37) -0.1121 ( 40)
 CRD  4=   0.1788 (  1) -0.1035 (  2) -0.1656 (  4) -0.4126 (  6)  0.5055 ( 11)
          -0.1376 ( 14)  0.1967 ( 15)  0.1253 ( 22) -0.1961 ( 23) -0.2014 ( 24)
          -0.1223 ( 25) -0.1113 ( 29)  0.1304 ( 31)  0.2209 ( 34) -0.1058 ( 38)
           0.1189 ( 51)  0.1089 ( 57)  0.1122 ( 62) -0.1296 ( 65)  0.1387 ( 66)
           0.1431 ( 68) -0.1344 ( 71)
 CRD  5=   0.2803 (  2) -0.3031 (  3) -0.3498 (  6) -0.1587 ( 11)  0.1218 ( 14)
          -0.2519 ( 16)  0.1650 ( 17) -0.1924 ( 18)  0.1108 ( 21) -0.3737 ( 22)
          -0.1082 ( 24)  0.2744 ( 25)  0.1434 ( 26) -0.1221 ( 29)  0.3205 ( 32)
          -0.1155 ( 40)
 CRD  6=   0.1668 (  6) -0.1112 ( 11) -0.1913 ( 14)  0.1889 ( 17) -0.1396 ( 20)
           0.1618 ( 21) -0.1530 ( 24)  0.2639 ( 27)  0.2469 ( 28) -0.2249 ( 29)
          -0.2569 ( 30)  0.2248 ( 31) -0.2696 ( 33)  0.1419 ( 34) -0.2133 ( 42)
          -0.1496 ( 43) -0.1865 ( 44) -0.1038 ( 47)  0.1568 ( 50)  0.1440 ( 51)
           0.1494 ( 52)  0.2324 ( 53) -0.1110 ( 54) -0.1557 ( 55)  0.1329 ( 56)
           0.1542 ( 57)  0.1748 ( 58)
 CRD  7=  -0.3030 (  1) -0.4707 (  2) -0.3554 (  3) -0.3122 (  4) -0.4577 (  5)
          -0.1503 (  6) -0.1134 (  8) -0.1074 (  9) -0.1896 ( 11) -0.1296 ( 12)
          -0.1052 ( 20)
 CRD  8=   0.3400 (  1)  0.1353 (  2) -0.3525 (  4)  0.1084 (  6) -0.1222 ( 11)
           0.3441 ( 15) -0.1176 ( 16)  0.1673 ( 18) -0.1901 ( 19) -0.3303 ( 23)
          -0.2265 ( 25)  0.1176 ( 28)  0.1533 ( 29) -0.1318 ( 30) -0.1756 ( 31)
           0.3473 ( 32) -0.1042 ( 35)
 CRD  9=  -0.1917 (  7)  0.1049 (  8)  0.1221 (  9) -0.1544 ( 10) -0.1624 ( 13)
          -0.2186 ( 14)  0.1572 ( 17)  0.1820 ( 20) -0.2518 ( 21) -0.1673 ( 28)
           0.1614 ( 29) -0.1579 ( 30)  0.1392 ( 31) -0.1318 ( 38) -0.2236 ( 39)
          -0.2293 ( 40) -0.2383 ( 41) -0.1474 ( 42) -0.1268 ( 43)  0.1406 ( 44)
           0.2182 ( 45)  0.2240 ( 46)  0.1583 ( 47)  0.1644 ( 48)  0.2197 ( 49)
          -0.1679 ( 59) -0.1589 ( 60)  0.1404 ( 62)  0.1388 ( 63)
 CRD 10=   0.2014 (  7) -0.2684 (  8)  0.2408 (  9) -0.1118 ( 10) -0.2294 ( 12)
           0.1358 ( 13) -0.1307 ( 17) -0.1619 ( 20)  0.1167 ( 21)  0.1172 ( 24)
          -0.1309 ( 28) -0.1421 ( 30)  0.1147 ( 31) -0.1020 ( 33)  0.1651 ( 34)
           0.1930 ( 38) -0.1674 ( 40) -0.1626 ( 41)  0.1749 ( 43)  0.1853 ( 45)
          -0.2141 ( 47) -0.2322 ( 48)  0.1839 ( 49)  0.1301 ( 50) -0.1460 ( 51)
          -0.1712 ( 52) -0.1637 ( 54)  0.1966 ( 55)  0.1971 ( 56)  0.1827 ( 57)
          -0.1714 ( 58)
 CRD 11=   0.2160 (  7) -0.1393 (  8) -0.3312 (  9)  0.4597 ( 10) -0.1182 ( 12)
           0.1938 ( 13) -0.1269 ( 14)  0.1622 ( 17)  0.1499 ( 20) -0.1154 ( 21)
           0.1059 ( 27) -0.2043 ( 28)  0.2108 ( 29) -0.2062 ( 30)  0.2115 ( 31)
           0.1217 ( 39) -0.1239 ( 46)  0.1741 ( 51)  0.1947 ( 52) -0.1075 ( 54)
           0.1192 ( 55) -0.1879 ( 56) -0.1673 ( 57)
 CRD 12=   0.3336 (  7) -0.2688 (  8)  0.3395 ( 12) -0.4074 ( 13) -0.2136 ( 24)
           0.1824 ( 27) -0.1193 ( 28)  0.1164 ( 29)  0.1309 ( 30) -0.1292 ( 31)
          -0.1778 ( 33)  0.2004 ( 34) -0.2004 ( 38) -0.1794 ( 43) -0.1332 ( 47)
          -0.1508 ( 48) -0.1161 ( 50) -0.1000 ( 53)  0.1052 ( 54) -0.1086 ( 58)
          -0.1246 ( 61)
 CRD 13=   0.5757 (  7)  0.5629 (  8) -0.2188 ( 12) -0.2563 ( 13) -0.1063 ( 29)
           0.2195 ( 35)  0.1391 ( 41)  0.1375 ( 59)  0.1283 ( 64)
 CRD 14=   0.2065 (  7)  0.2098 (  8) -0.1885 (  9) -0.2419 ( 10)  0.5148 ( 12)
           0.5729 ( 13)  0.2166 ( 37) -0.1180 ( 49) -0.1064 ( 52) -0.1144 ( 62)
          -0.1348 ( 69)
 CRD 15=  -0.1896 (  8)  0.3219 ( 12) -0.1860 ( 14)  0.1512 ( 17) -0.1322 ( 20)
           0.1530 ( 21)  0.1075 ( 24) -0.1110 ( 27)  0.1369 ( 28) -0.1025 ( 29)
          -0.1490 ( 30)  0.1203 ( 33) -0.1037 ( 34)  0.2125 ( 40)  0.1782 ( 41)
           0.1249 ( 42)  0.1359 ( 44)  0.2177 ( 45)  0.1605 ( 49) -0.1185 ( 50)
           0.1099 ( 51) -0.1659 ( 53)  0.1068 ( 55) -0.1478 ( 58)  0.1602 ( 59)
           0.1944 ( 60) -0.1005 ( 61)  0.1131 ( 62)  0.1704 ( 63)  0.1510 ( 64)
           0.1404 ( 65)  0.1761 ( 66)  0.1654 ( 67)  0.1889 ( 68)  0.1486 ( 69)
           0.1852 ( 70)  0.1449 ( 71)
 CRD 16=  -0.1200 (  7) -0.1636 (  8) -0.6165 (  9) -0.5598 ( 10) -0.1751 ( 12)
          -0.1381 ( 13) -0.2100 ( 36) -0.1061 ( 65)  0.1109 ( 66) -0.1097 ( 68)
           0.1133 ( 71)
 CRD 17=  -0.2367 (  7)  0.2448 (  8) -0.1306 ( 12)  0.1142 ( 13) -0.1285 ( 24)
           0.1226 ( 27) -0.1180 ( 33)  0.1394 ( 34) -0.1323 ( 38)  0.2032 ( 40)
           0.1892 ( 41)  0.1470 ( 42) -0.1270 ( 43)  0.1417 ( 44)  0.2050 ( 45)
          -0.1363 ( 47) -0.1506 ( 48)  0.1816 ( 49) -0.1314 ( 50) -0.1835 ( 53)
           0.1426 ( 55) -0.1791 ( 58)  0.1848 ( 59)  0.1989 ( 60) -0.1270 ( 61)
           0.1297 ( 62)  0.1531 ( 63) -0.1861 ( 64) -0.2004 ( 65) -0.1822 ( 66)
          -0.1965 ( 67) -0.1424 ( 68) -0.1392 ( 69) -0.1478 ( 70) -0.1446 ( 71)
 CRD 18=  -0.1006 (  8) -0.3145 (  9)  0.3108 ( 10) -0.1298 ( 12)  0.1222 ( 13)
          -0.1052 ( 20) -0.1777 ( 38) -0.1176 ( 39) -0.1662 ( 43)  0.1016 ( 46)
           0.1358 ( 47)  0.1431 ( 48) -0.1766 ( 51) -0.1971 ( 52)  0.1828 ( 56)
           0.1616 ( 57)  0.2170 ( 64)  0.2243 ( 65)  0.1958 ( 66)  0.2031 ( 67)
          -0.2252 ( 68) -0.2457 ( 69) -0.2367 ( 70) -0.2572 ( 71)
 CRD 19=   0.5855 (  1)  0.1250 (  3) -0.2273 (  4) -0.3076 (  5) -0.2831 ( 16)
          -0.1027 ( 20)  0.1926 ( 22)  0.3650 ( 25) -0.2587 ( 32)  0.1476 ( 35)
          -0.1204 ( 66)
 CRD 20=   0.3201 (  1) -0.2870 (  2)  0.6741 (  4) -0.1959 (  5) -0.2315 ( 22)
           0.2693 ( 32)  0.1001 ( 37)  0.1026 ( 51)  0.1475 ( 68)
 CRD 21=   0.3654 (  7) -0.3178 (  8)  0.2683 (  9) -0.3287 ( 10) -0.3049 ( 12)
           0.3417 ( 13) -0.1300 ( 38)  0.1319 ( 40) -0.2001 ( 50)  0.2167 ( 54)
          -0.1975 ( 55)  0.1636 ( 58) -0.1393 ( 59)  0.1622 ( 62)  0.1248 ( 63)
 CRD 22=  -0.3712 (  1)  0.4298 (  3) -0.2436 (  5)  0.2305 ( 11)  0.1396 ( 14)
           0.1112 ( 15) -0.3269 ( 16)  0.1187 ( 17)  0.1271 ( 22) -0.1596 ( 23)
           0.2157 ( 25) -0.1881 ( 30) -0.2007 ( 31)  0.1359 ( 45) -0.1574 ( 49)
          -0.1861 ( 62)  0.1072 ( 63)  0.1383 ( 64) -0.1107 ( 67)
 CRD 23=   0.2512 (  2) -0.3792 (  3)  0.2702 (  4)  0.1138 (  5) -0.2413 (  6)
           0.1293 ( 15) -0.1388 ( 16) -0.1435 ( 20) -0.1460 ( 21)  0.3905 ( 22)
          -0.1107 ( 23)  0.1863 ( 28)  0.1907 ( 29) -0.2799 ( 32)  0.1474 ( 40)
          -0.1453 ( 41) -0.1758 ( 59)  0.1170 ( 60)  0.1002 ( 65) -0.1157 ( 66)
           0.1362 ( 69) -0.1219 ( 70)
 CRD 24=  -0.1021 (  1)  0.1162 (  4) -0.1844 (  6) -0.1859 (  8)  0.2046 ( 11)
           0.1781 ( 12)  0.1193 ( 15) -0.1123 ( 23)  0.2265 ( 24)  0.2209 ( 27)
          -0.2127 ( 33) -0.2226 ( 34)  0.1933 ( 35) -0.1814 ( 37)  0.1846 ( 38)
           0.1629 ( 41) -0.1424 ( 43) -0.1289 ( 47)  0.1772 ( 48)  0.1451 ( 49)
           0.1508 ( 59)  0.1309 ( 62) -0.1182 ( 64)  0.1879 ( 65) -0.2394 ( 66)
          -0.2586 ( 68) -0.1269 ( 69)  0.2001 ( 71)
 CRD 25=  -0.2528 (  1)  0.2220 (  2)  0.3547 (  3) -0.2438 (  4)  0.2182 (  5)
          -0.2102 (  9) -0.1646 ( 14) -0.1994 ( 17) -0.1746 ( 20) -0.1431 ( 21)
          -0.1087 ( 23)  0.1357 ( 25)  0.1172 ( 30)  0.1833 ( 32) -0.1024 ( 33)
           0.1948 ( 36)  0.1372 ( 43) -0.1522 ( 47)  0.1008 ( 51) -0.1098 ( 52)
           0.1389 ( 65) -0.2322 ( 66)  0.2288 ( 68) -0.1318 ( 71)
 CRD 26=  -0.1947 (  1)  0.3005 (  2)  0.2037 (  4) -0.2935 (  5)  0.2156 (  6)
          -0.1287 (  7) -0.2317 ( 11)  0.1659 ( 13) -0.1795 ( 14)  0.2079 ( 15)
          -0.1800 ( 16)  0.1558 ( 21)  0.2048 ( 22) -0.2094 ( 23) -0.1697 ( 28)
           0.1767 ( 30) -0.1732 ( 40) -0.1892 ( 45)  0.1314 ( 51)  0.1224 ( 57)
          -0.1226 ( 58)  0.1004 ( 59) -0.1574 ( 61) -0.1550 ( 63)  0.1312 ( 66)
           0.1253 ( 67)  0.1104 ( 68)
 CRD 27=  -0.1914 (  2)  0.1558 (  5) -0.1407 (  6) -0.1548 (  7)  0.1598 (  8)
           0.1079 (  9) -0.1275 ( 10) -0.1324 ( 12)  0.2686 ( 13) -0.1220 ( 15)
           0.1690 ( 17) -0.1331 ( 20)  0.1471 ( 27)  0.1875 ( 29) -0.1121 ( 37)
          -0.1035 ( 38) -0.1901 ( 41) -0.1358 ( 43) -0.1570 ( 45)  0.2506 ( 52)
           0.2413 ( 55)  0.1464 ( 56) -0.2276 ( 58)  0.1461 ( 60) -0.2217 ( 61)
          -0.1034 ( 62) -0.1626 ( 63)  0.1519 ( 64)  0.2258 ( 65)  0.1269 ( 67)
           0.1079 ( 69)  0.1402 ( 71)
 CRD 28=   0.1775 (  3) -0.1632 (  5) -0.2337 (  6)  0.1906 (  7)  0.1201 (  8)
           0.1660 (  9) -0.2568 ( 11)  0.2288 ( 12)  0.1051 ( 19) -0.1251 ( 23)
           0.1286 ( 25)  0.1617 ( 31)  0.1611 ( 32)  0.1110 ( 33) -0.2497 ( 35)
          -0.1351 ( 36) -0.1891 ( 37)  0.1711 ( 40) -0.1372 ( 41)  0.1017 ( 47)
           0.2069 ( 49)  0.1092 ( 50) -0.1262 ( 54) -0.1679 ( 56)  0.2112 ( 60)
           0.1253 ( 62) -0.1714 ( 63) -0.1484 ( 65)  0.1816 ( 66) -0.1961 ( 68)
 CRD 29=   0.1033 (  2)  0.1254 (  6)  0.1262 (  7) -0.1624 (  8) -0.2736 ( 10)
          -0.1049 ( 13)  0.1252 ( 20) -0.1190 ( 21) -0.1086 ( 24)  0.1005 ( 33)
          -0.1428 ( 34)  0.1478 ( 36) -0.1757 ( 38)  0.1121 ( 47)  0.2331 ( 48)
           0.2749 ( 50) -0.2772 ( 54)  0.1791 ( 55) -0.1353 ( 56) -0.1543 ( 57)
          -0.1495 ( 58)  0.2749 ( 59)  0.2343 ( 60) -0.2212 ( 62) -0.1503 ( 63)
          -0.1426 ( 70) -0.2548 ( 71)
 CRD 30=  -0.1681 (  2)  0.1697 (  5)  0.2502 (  6) -0.1713 (  8) -0.2656 ( 11)
           0.1781 ( 12)  0.1629 ( 18) -0.1558 ( 19) -0.1573 ( 24) -0.1301 ( 27)
           0.1016 ( 32)  0.1370 ( 33)  0.1538 ( 34)  0.2113 ( 35) -0.2174 ( 37)
           0.1245 ( 41)  0.1272 ( 43)  0.1344 ( 47)  0.1366 ( 49) -0.1446 ( 51)
           0.1270 ( 52)  0.1260 ( 56) -0.1494 ( 57)  0.1180 ( 59)  0.1170 ( 62)
          -0.1097 ( 63)  0.2284 ( 64) -0.2593 ( 67)  0.2161 ( 69) -0.2579 ( 70)
 CRD 31=   0.1821 (  2)  0.1767 (  5) -0.1798 (  6)  0.2218 (  9)  0.1034 ( 10)
          -0.1736 ( 11) -0.1337 ( 18) -0.1270 ( 19)  0.2318 ( 26)  0.1005 ( 28)
           0.1127 ( 35) -0.2711 ( 36)  0.1196 ( 37)  0.1143 ( 38) -0.2066 ( 43)
           0.2080 ( 47) -0.1102 ( 48)  0.1811 ( 51) -0.1824 ( 57)  0.3001 ( 64)
          -0.2701 ( 67) -0.3052 ( 69)  0.2716 ( 70)
 CRD 32=  -0.1909 (  7)  0.1367 (  8)  0.1408 (  9) -0.1949 ( 10)  0.1052 ( 12)
          -0.1514 ( 13) -0.1290 ( 20)  0.1158 ( 21) -0.1446 ( 24)  0.1457 ( 27)
          -0.1358 ( 28)  0.1473 ( 29) -0.1128 ( 30)  0.1323 ( 31)  0.1305 ( 33)
          -0.1373 ( 34)  0.2450 ( 39)  0.2166 ( 42) -0.1262 ( 44) -0.2714 ( 46)
          -0.1409 ( 50)  0.1117 ( 51)  0.1586 ( 58) -0.2046 ( 59) -0.2495 ( 60)
           0.1294 ( 62)  0.1609 ( 63)  0.1634 ( 64)  0.2209 ( 65)  0.1016 ( 66)
           0.1591 ( 67) -0.1480 ( 69) -0.1413 ( 70) -0.1998 ( 71)
 CRD 33=   0.1240 ( 14)  0.1042 ( 38)  0.1153 ( 39) -0.1379 ( 40) -0.1596 ( 41)
          -0.2036 ( 42)  0.1193 ( 43) -0.2590 ( 44) -0.1257 ( 45) -0.1629 ( 49)
          -0.1671 ( 50)  0.2951 ( 53)  0.2032 ( 54)  0.1194 ( 55)  0.1634 ( 59)
           0.1850 ( 60) -0.4900 ( 61)  0.2993 ( 62)  0.3365 ( 63)

 THE DETERMINANT OF THE G MATRIX IS 10**(   -10)


                     --------------------
                     INTERNAL COORDINATES
                     --------------------

                 - - ATOMS - -         COORDINATE      COORDINATE
 NO.   TYPE    I  J  K  L  M  N        (BOHR,RAD)       (ANG,DEG)
 ----------------------------------------------------------------
   1 STRETCH   1  7                     1.8329897       0.9699765
   2 STRETCH   1  5                     2.7735538       1.4677016
   3 STRETCH   1  2                     2.5400446       1.3441338
   4 STRETCH   2  6                     2.2920011       1.2128749
   5 STRETCH   2  3                     2.8586617       1.5127388
   6 STRETCH   3  4                     2.9220456       1.5462801
   7 STRETCH   3  9                     2.0597880       1.0899930
   8 STRETCH   3  8                     2.0599298       1.0900680
   9 STRETCH   4 11                     2.0599018       1.0900532
  10 STRETCH   4 10                     2.0597102       1.0899518
  11 STRETCH   4  5                     2.9193554       1.5448565
  12 STRETCH   5 13                     2.0598784       1.0900408
  13 STRETCH   5 12                     2.0597933       1.0899957
  14 BEND      1  5 12                  1.9241910     110.2480260
  15 BEND      1  2  3                  1.9219617     110.1202917
  16 BEND      1  2  6                  2.1805686     124.9373801
  17 BEND      1  5 13                  1.9241217     110.2440548
  18 BEND      1  5  4                  1.8407917     105.4695962
  19 BEND      2  3  4                  1.8185854     104.1972664
  20 BEND      2  3  8                  1.9284209     110.4903797
  21 BEND      2  3  9                  1.9283924     110.4887457
  22 BEND      2  1  7                  2.1703999     124.3547566
  23 BEND      2  1  5                  1.9425389     111.2992785
  24 BEND      3  4 11                  1.9368389     110.9726940
  25 BEND      3  2  6                  2.1806549     124.9423221
  26 BEND      3  4  5                  1.7761010     101.7630928
  27 BEND      3  4 10                  1.9367775     110.9691785
  28 BEND      4  3  8                  1.9283069     110.4838444
  29 BEND      4  3  9                  1.9283273     110.4850158
  30 BEND      4  5 13                  1.9241458     110.2454322
  31 BEND      4  5 12                  1.9242086     110.2490330
  32 BEND      5  1  7                  2.1702357     124.3453473
  33 BEND      5  4 10                  1.9367848     110.9695947
  34 BEND      5  4 11                  1.9367088     110.9652419
  35 BEND      8  3  9                  1.9292089     110.5355297
  36 BEND     10  4 11                  1.9353708     110.8885789
  37 BEND     12  5 13                  1.9248639     110.2865775
  38 TORSION   1  5  4 11               2.5052057     143.5377148
  39 TORSION   1  5  4  3               0.4436327      25.4182831
  40 TORSION   1  2  3  8               2.3549286     134.9274694
  41 TORSION   1  2  3  9              -1.7877302    -102.4293972
  42 TORSION   1  2  3  4               0.2836042      16.2493222
  43 TORSION   1  5  4 10              -1.6179027     -92.6989964
  44 TORSION   2  1  5  4              -0.2970923     -17.0221361
  45 TORSION   2  1  5 13              -2.3739736    -136.0186680
  46 TORSION   2  3  4  5              -0.4328074     -24.7980356
  47 TORSION   2  3  4 10               1.6287333      93.3195425
  48 TORSION   2  3  4 11              -2.4942871    -142.9121223
  49 TORSION   2  1  5 12               1.7798996     101.9807361
  50 TORSION   3  2  1  7              -3.1391795    -179.8617363
  51 TORSION   3  4  5 12              -1.6333475     -93.5839189
  52 TORSION   3  4  5 13               2.5204980     144.4138984
  53 TORSION   3  2  1  5               0.0072236       0.4138842
  54 TORSION   4  5  1  7               2.8493103     163.2534535
  55 TORSION   4  3  2  6              -2.8575096    -163.7232404
  56 TORSION   5  4  3  8              -2.5042097    -143.4806464
  57 TORSION   5  4  3  9               1.6385715      93.8832313
  58 TORSION   5  1  2  6              -3.1348479    -179.6135516
  59 TORSION   6  2  3  9               1.3543413      77.5980403
  60 TORSION   6  2  3  8              -0.7861852     -45.0450931
  61 TORSION   6  2  1  7               0.0019343       0.1108279
  62 TORSION   7  1  5 12              -1.3568831     -77.7436744
  63 TORSION   7  1  5 13               0.7724290      44.2569215
  64 TORSION   8  3  4 10              -0.4426691     -25.3630684
  65 TORSION   8  3  4 11               1.7174959      98.4052669
  66 TORSION   9  3  4 10              -2.5830732    -147.9991907
  67 TORSION   9  3  4 11              -0.4229082     -24.2308555
  68 TORSION  10  4  5 12               2.5883024     148.2988016
  69 TORSION  10  4  5 13               0.4589626      26.2966189
  70 TORSION  11  4  5 12               0.4282255      24.5355128
  71 TORSION  11  4  5 13              -1.7011143     -97.4666699

     ------------------------------------------
     THE POINT GROUP IS C1 , NAXIS= 1, ORDER= 1
     ------------------------------------------

     DIMENSIONS OF THE SYMMETRY SUBSPACES ARE
 A   =  156

 ..... DONE SETTING UP THE RUN .....
 STEP CPU TIME =     0.01 TOTAL CPU TIME =        0.0 (    0.0 MIN)
 TOTAL WALL CLOCK TIME=        0.0 SECONDS, CPU UTILIZATION IS  50.00%


          -----------------------------
          STATIONARY POINT LOCATION RUN
          -----------------------------

 OBTAINING INITIAL HESSIAN, HESS=GUESS   
 DIAGONAL GUESS HESSIAN IN INTERNAL COORDS IS
     1  0.3817     2  0.3617     3  0.4599     4  0.5492     5  0.3797
     6  0.3557     7  0.3464     8  0.3463     9  0.3463    10  0.3464
    11  0.3567    12  0.3463    13  0.3464    14  0.2210    15  0.2548
    16  0.2638    17  0.2210    18  0.2439    19  0.2486    20  0.2251
    21  0.2251    22  0.2275    23  0.2499    24  0.2231    25  0.2596
    26  0.2463    27  0.2231    28  0.2231    29  0.2231    30  0.2232
    31  0.2232    32  0.2202    33  0.2232    34  0.2232    35  0.2034
    36  0.2034    37  0.2034    38  0.2500    39  0.2500    40  0.2500
    41  0.2500    42  0.2500    43  0.2500    44  0.2500    45  0.2500
    46  0.2500    47  0.2500    48  0.2500    49  0.2500    50  0.2500
    51  0.2500    52  0.2500    53  0.2500    54  0.2500    55  0.2500
    56  0.2500    57  0.2500    58  0.2500    59  0.2500    60  0.2500
    61  0.2500    62  0.2500    63  0.2500    64  0.2500    65  0.2500
    66  0.2500    67  0.2500    68  0.2500    69  0.2500    70  0.2500
    71  0.2500
 TRANSFORMING HESSIAN TO SYMMETRY COORDINATES

          PARAMETERS CONTROLLING GEOMETRY SEARCH ARE
          METHOD =QA                  UPHESS =BFGS    
          NNEG   =         0          NFRZ   =         3
          NSTEP  =        50          IFOLOW =         1
          HESS   =GUESS               RESTAR =         F
          IHREP  =         0          HSSEND =         F
          NPRT   =         0          NPUN   =         0
          OPTTOL = 5.000E-04          RMIN   = 1.500E-03
          RMAX   = 1.000E-01          RLIM   = 7.000E-02
          DXMAX  = 3.000E-01          PURIFY =         F
          MOVIE  =         F          TRUPD  =         T
          TRMAX  = 5.000E-01          TRMIN  = 5.000E-02
          ITBMAT =         5          STPT   =         F
          STSTEP = 1.000E-02          PROJCT=          F
          FROZEN COORD(S)=   1   2   3


      ***** EQUILIBRIUM GEOMETRY LOCATED *****
            (SUBJECT TO   3 CONSTRAINT(S))
 COORDINATES OF ALL ATOMS ARE (ANGS)
   ATOM   CHARGE       X              Y              Z
 ------------------------------------------------------------
 N           7.0  -0.0430859209   1.0741052395   0.0594176602
 C           6.0  -0.8128333253  -0.0208143394   0.0012343432
 C           6.0   0.1075305741  -1.2176076691  -0.1602209382
 C           6.0   1.4847674556  -0.6723793783   0.2045231594
 C           6.0   1.3732966980   0.8123749939  -0.1367732717
 O           8.0  -2.0201726844  -0.0474972465   0.0461628412
 H           1.0  -0.4249645134   1.9935383157   0.0130158640
 H           1.0  -0.2099211184  -2.0542970397   0.4459102518
 H           1.0   0.0696554824  -1.5118311199  -1.2056922936
 H           1.0   1.6599655624  -0.7892386785   1.2673390492
 H           1.0   2.2878137080  -1.1486501618  -0.3391001368
 H           1.0   1.6580708866   0.9953499528  -1.1676568169
 H           1.0   1.9748317317   1.4282660723   0.5149093210


                     --------------------
                     INTERNAL COORDINATES
                     --------------------

                 - - ATOMS - -         COORDINATE      COORDINATE
 NO.   TYPE    I  J  K  L  M  N        (BOHR,RAD)       (ANG,DEG)
 ----------------------------------------------------------------
   1 STRETCH   1  7                     1.8834242       0.9966652
   2 STRETCH   1  5                     2.7470229       1.4536620
   3 STRETCH   1  2                     2.5316300       1.3396810
   4 STRETCH   2  6                     2.2836765       1.2084696
   5 STRETCH   2  3                     2.8693059       1.5183714
   6 STRETCH   3  4                     2.8827419       1.5254814
   7 STRETCH   3  9                     2.0536482       1.0867439
   8 STRETCH   3  8                     2.0424955       1.0808421
   9 STRETCH   4 11                     2.0416418       1.0803904
  10 STRETCH   4 10                     2.0474796       1.0834796
  11 STRETCH   4  5                     2.8866482       1.5275485
  12 STRETCH   5 13                     2.0404284       1.0797483
  13 STRETCH   5 12                     2.0504154       1.0850332
  14 BEND      1  5 12                  1.9322037     110.7071185
  15 BEND      1  2  3                  1.8760552     107.4900479
  16 BEND      1  2  6                  2.2024361     126.1902935
  17 BEND      1  5 13                  1.9376306     111.0180574
  18 BEND      1  5  4                  1.7884636     102.4714167
  19 BEND      2  3  4                  1.8132708     103.8927652
  20 BEND      2  3  8                  1.9524932     111.8696173
  21 BEND      2  3  9                  1.8698008     107.1316941
  22 BEND      2  1  7                  2.1315111     122.1265909
  23 BEND      2  1  5                  1.9897718     114.0055273
  24 BEND      3  4 11                  1.9748966     113.1532385
  25 BEND      3  2  6                  2.2045018     126.3086475
  26 BEND      3  4  5                  1.8009192     103.1850666
  27 BEND      3  4 10                  1.9198169     109.9974044
  28 BEND      4  3  8                  1.9907916     114.0639540
  29 BEND      4  3  9                  1.9371903     110.9928295
  30 BEND      4  5 13                  1.9594240     112.2667243
  31 BEND      4  5 12                  1.9358889     110.9182662
  32 BEND      5  1  7                  2.1331082     122.2180980
  33 BEND      5  4 10                  1.9132510     109.6212060
  34 BEND      5  4 11                  1.9501286     111.7341373
  35 BEND      8  3  9                  1.8961880     108.6435723
  36 BEND     10  4 11                  1.9026969     109.0165005
  37 BEND     12  5 13                  1.9081841     109.3308969
  38 TORSION   1  5  4 11               2.6315276     150.7754268
  39 TORSION   1  5  4  3               0.5043314      28.8960580
  40 TORSION   1  2  3  8               2.4210509     138.7159974
  41 TORSION   1  2  3  9              -1.7859032    -102.3247143
  42 TORSION   1  2  3  4               0.2656197      15.2188898
  43 TORSION   1  5  4 10              -1.5404187     -88.2594907
  44 TORSION   2  1  5  4              -0.3729828     -21.3703379
  45 TORSION   2  1  5 13              -2.4682043    -141.4176881
  46 TORSION   2  3  4  5              -0.4730329     -27.1027862
  47 TORSION   2  3  4 10               1.5670800      89.7870715
  48 TORSION   2  3  4 11              -2.5834675    -148.0217846
  49 TORSION   2  1  5 12               1.6922349      96.9579183
  50 TORSION   3  2  1  7               2.9611217     169.6597747
  51 TORSION   3  4  5 12              -1.5582797     -89.2828474
  52 TORSION   3  4  5 13               2.5843377     148.0716450
  53 TORSION   3  2  1  5               0.0699782       4.0094579
  54 TORSION   4  5  1  7               3.0193163     172.9940791
  55 TORSION   4  3  2  6              -2.8960624    -165.9321521
  56 TORSION   5  4  3  8              -2.6032532    -149.1554187
  57 TORSION   5  4  3  9               1.5311301      87.7272922
  58 TORSION   5  1  2  6              -3.0515553    -174.8412424
  59 TORSION   6  2  3  9               1.3356000      76.5242437
  60 TORSION   6  2  3  8              -0.7406312     -42.4350445
  61 TORSION   6  2  1  7              -0.1604119      -9.1909256
  62 TORSION   7  1  5 12              -1.1986514     -68.6776647
  63 TORSION   7  1  5 13               0.9240947      52.9467289
  64 TORSION   8  3  4 10              -0.5631403     -32.2655611
  65 TORSION   8  3  4 11               1.5694975      89.9255829
  66 TORSION   9  3  4 10              -2.7119423    -155.3828502
  67 TORSION   9  3  4 11              -0.5793046     -33.1917062
  68 TORSION  10  4  5 12               2.6801556     153.5616039
  69 TORSION  10  4  5 13               0.5395877      30.9160962
  70 TORSION  11  4  5 12               0.5689166      32.5965215
  71 TORSION  11  4  5 13              -1.5716513     -90.0489862

          INTERNUCLEAR DISTANCES (ANGS.)


 =====================================================
   GAMESS/COSab RESULTS
 =====================================================

   Dielectric Constant                  = INFTY
   Basic Grid Size                      =                 1082
   Number of Segments                   =                   92
   Number of Segments located on spheres=                  218
   Number of Segments of the cavity     =                  491
   Solvent Radius (rsolv)               = 1.40
   Outlying Charge Error Method         = double cavity

 =====================================================

  Total solvated Energy (a.u.)          =  -284.9694547812
  Total Energy corrected (a.u.)         =  -284.9691850739

  Outlying charge effect (a.u.)         =     0.0002697072
  Outlying charge effect (kcal/mol)     =     0.1692439868

  Dielectric Energy (a.u.)              =    -0.0219770346
  Dielectric energy corr. (a.u.)        =    -0.0217073274

  Sum of polarization charges           =     0.0174885005
  Sum of polarization charges(cor.)     =    -0.0174885005

  Total surface area of cavity (A**2)   =  118.61
  Total volume of cavity (A**3)         =  106.24

 =====================================================
 NPS=                   491
NR.  ATOM  (X, Y, Z)(a.u.)                  CHARGE(e)  AREA(A**2) SIGMA(e/A**2)
   1   1  -0.891678   3.593616   3.088338   0.003023   0.388942   0.007771
   2   1  -1.801322   3.304289  -2.603721   0.000073   0.077788   0.000940
   3   1   0.263041   4.414566  -2.368287  -0.000357   0.077788  -0.004593
   4   1  -0.206916   3.815970  -2.846245   0.000822   0.233365   0.003523
   5   1  -1.080244   3.439796  -2.883268   0.001000   0.272259   0.003672
   6   1  -1.899956   3.428396   2.699909   0.001158   0.311154   0.003723
   7   1   0.051952   4.141515   2.847569   0.001459   0.272259   0.005360
   8   1   0.649746   4.548676   2.366070   0.000017   0.155577   0.000107
   9   1  -0.791591   2.522857   3.460653   0.003186   0.311154   0.010239
  10   1   0.068892   3.183467   3.368883   0.002718   0.272259   0.009981
  11   1   0.653670   2.640715   3.435754   0.001072   0.155577   0.006890
  12   1   0.110024   2.022071   3.565161   0.002968   0.233365   0.012718
  13   1  -0.528299   2.781653  -3.233482   0.001739   0.272259   0.006386
  14   1   0.795484   3.660662   3.032949   0.001184   0.155577   0.007612
  15   2  -2.643407  -1.847752   3.130847   0.000128   0.139368   0.000917
  16   2  -2.819400   1.913611   2.972714   0.000388   0.092912   0.004171
  17   2  -2.836493   0.373646  -3.522228   0.000096   0.185824   0.000516
  18   2  -2.480664  -0.919407   3.554428  -0.000248   0.232280  -0.001069
  19   2  -2.703778   1.017746   3.437905   0.000200   0.185824   0.001077
  20   2  -2.965410   2.347995  -2.555357   0.000286   0.092912   0.003074
  21   2  -2.969761   1.315292  -3.221589   0.000128   0.139368   0.000918
  22   2  -2.851642  -1.156250  -3.360103   0.000229   0.139368   0.001645
  23   2  -1.917963  -1.448583   3.488361  -0.000894   0.232280  -0.003848
  24   2  -1.287033  -0.776050   3.700911  -0.001910   0.278737  -0.006851
  25   2  -1.168726   0.329826   3.745730  -0.001323   0.371649  -0.003561
  26   2  -2.004271   1.149757   3.559159  -0.000087   0.232280  -0.000373
  27   2  -1.425419   1.160405  -3.579938  -0.000857   0.232280  -0.003688
  28   2  -2.294652   0.890826  -3.581460  -0.000904   0.325193  -0.002778
  29   2  -2.444854  -0.392019  -3.649236  -0.000887   0.232280  -0.003818
  30   2  -1.299856   0.365295  -3.747972  -0.001970   0.278737  -0.007068
  31   2  -2.283560   0.037433   3.706321  -0.000556   0.371649  -0.001496
  32   2  -2.616421   1.855169  -3.084392  -0.000232   0.185824  -0.001250
  33   3  -2.690486  -4.439028  -1.460135   0.000153   0.232280   0.000659
  34   3   0.266831  -5.773414  -1.793482   0.000808   0.418105   0.001934
  35   3   1.824607  -5.565420   0.696502   0.000135   0.185824   0.000728
  36   3  -0.157509  -6.005797  -0.957201   0.000366   0.278737   0.001314
  37   3  -2.639163  -4.779999  -0.546862  -0.000184   0.232280  -0.000792
  38   3  -0.065086  -2.850928   3.426817  -0.000163   0.092912  -0.001751
  39   3  -0.459092  -2.403125   3.416800  -0.000041   0.046456  -0.000882
  40   3  -2.165824  -4.959400  -1.569521   0.000388   0.232280   0.001671
  41   3  -0.971121  -5.593213  -1.740218   0.000672   0.278737   0.002410
  42   3   1.139501  -5.905805  -0.945139   0.000386   0.371649   0.001039
  43   3   1.978892  -5.635924  -0.398336   0.000217   0.278737   0.000777
  44   3  -2.500676  -3.943900  -2.370147  -0.000208   0.278737  -0.000747
  45   3   1.443820  -5.434681  -2.012992   0.000112   0.325193   0.000343
  46   3   2.185004  -4.834521  -2.287141  -0.000062   0.185824  -0.000334
  47   3   1.296871  -5.902798   0.036120  -0.000096   0.139368  -0.000687
  48   3  -1.657143  -5.455623  -1.236284   0.000380   0.232280   0.001634
  49   3  -0.657464  -2.696780   3.356034  -0.000141   0.092912  -0.001522
  50   3  -1.599048  -5.008734  -2.227370   0.000162   0.185824   0.000872
  51   3   2.235008  -5.324121  -1.310964  -0.000071   0.232280  -0.000307
  52   4   3.621687  -4.759223   1.589899   0.000189   0.278737   0.000678
  53   4   6.423274  -1.871311   1.301520   0.000652   0.325193   0.002005
  54   4   3.464113  -1.631296  -3.317654  -0.000158   0.139368  -0.001133
  55   4   5.928393  -2.137782   2.331149   0.001005   0.371649   0.002705
  56   4   3.927614  -4.258895   2.410345   0.000402   0.278737   0.001442
  57   4   3.073606  -4.356186   2.552551   0.000153   0.185824   0.000825
  58   4   4.603977  -4.298028   1.759655   0.000589   0.278737   0.002114
  59   4   5.903034  -2.986486   1.708296   0.001219   0.371649   0.003280
  60   4   6.221791  -0.993392   1.979729   0.000614   0.418105   0.001468
  61   4   6.024437  -0.099722   1.984505  -0.000056   0.232280  -0.000242
  62   4   3.486418  -4.971262   0.741738   0.000110   0.232280   0.000474
  63   4   4.386470  -4.676925   0.813989   0.000284   0.232280   0.001222
  64   4   6.570863  -1.038424   0.620177   0.000136   0.232280   0.000584
  65   4   6.452070  -0.416232  -0.122382  -0.000030   0.092912  -0.000324
  66   4   5.564869  -0.294060   2.777759  -0.000018   0.185824  -0.000098
  67   4   5.065006  -3.673465   2.232176   0.000795   0.278737   0.002853
  68   4   3.890439  -4.866289  -0.036470   0.000053   0.139368   0.000377
  69   4   5.392717  -3.857503   1.335227   0.000528   0.232280   0.002275
  70   4   6.437943  -0.412323   0.982399   0.000147   0.185824   0.000791
  71   5   2.800437   5.151581  -1.337224  -0.000339   0.278737  -0.001216
  72   5   6.029325   2.984820  -0.882365   0.000173   0.371649   0.000466
  73   5   2.387538   2.109202   3.471370  -0.000099   0.278737  -0.000356
  74   5   2.340372   2.878649   3.264949   0.000014   0.046456   0.000291
  75   5   5.612778   3.125056  -1.886491   0.000123   0.278737   0.000443
  76   5   3.392336   4.752284  -2.074770   0.000325   0.325193   0.001000
  77   5   2.298885   4.709518  -2.288249  -0.000205   0.278737  -0.000736
  78   5   3.833680   5.004612  -1.103046   0.000290   0.325193   0.000891
  79   5   5.402219   3.903965  -1.149236   0.000592   0.371649   0.001592
  80   5   6.113980   2.058528  -1.534479  -0.000284   0.325193  -0.000873
  81   5   6.028135   1.002278  -1.746720  -0.000329   0.185824  -0.001769
  82   5   2.512915   5.305030  -0.514777  -0.000780   0.232280  -0.003360
  83   5   3.186146   5.264037  -0.083591  -0.000142   0.278737  -0.000511
  84   5   6.320932   2.169595  -0.276915  -0.000559   0.325193  -0.001719
  85   5   6.300840   1.533673   0.484600  -0.000436   0.185824  -0.002348
  86   5   5.788515   1.233766  -2.257425  -0.000394   0.185824  -0.002122
  87   5   4.513392   4.414091  -1.780456   0.000492   0.278737   0.001765
  88   5   1.820973   4.326938  -2.685593  -0.000171   0.139368  -0.001223
  89   5   2.477157   5.141959   0.864681  -0.000349   0.092912  -0.003757
  90   5   4.673681   4.636337  -0.847345   0.000249   0.232280   0.001074
  91   5   6.339634   1.245363  -0.681699  -0.000734   0.325193  -0.002256
  92   6  -7.062289  -0.253717   0.184743   0.005753   0.377948   0.015222
  93   6  -5.351300  -2.053879   2.173970   0.004830   0.274871   0.017572
  94   6  -5.341422  -2.670000  -1.171670   0.004717   0.240512   0.019613
  95   6  -5.446939   0.199168  -2.710326   0.005471   0.343589   0.015922
  96   6  -5.508924   2.647149  -0.374615   0.006371   0.309230   0.020602
  97   6  -5.159115   1.221181   2.741717   0.005252   0.309230   0.016984
  98   6  -6.774413  -0.957478   1.121019   0.006500   0.412307   0.015765
  99   6  -6.120714  -1.721615   1.698796   0.005892   0.343589   0.017148
 100   6  -6.802941  -1.327814  -0.258267   0.006739   0.412307   0.016344
 101   6  -6.168256  -2.204810  -0.664717   0.006379   0.343589   0.018567
 102   6  -6.880654  -0.078494  -0.999964   0.006367   0.412307   0.015442
 103   6  -6.314779   0.294443  -1.957510   0.006002   0.377948   0.015882
 104   6  -6.910020   0.896742  -0.080620   0.006106   0.377948   0.016155
 105   6  -6.375591   1.898315  -0.174909   0.006225   0.343589   0.018116
 106   6  -6.832799   0.474553   1.161724   0.007584   0.481025   0.015766
 107   6  -6.179109   0.921180   2.078645   0.006872   0.412307   0.016668
 108   6  -5.400710  -2.707926   1.184248   0.006690   0.343589   0.019472
 109   6  -5.583343  -2.817943   0.026873   0.005405   0.274871   0.019665
 110   6  -5.678560  -1.955146  -1.815835   0.006124   0.343589   0.017823
 111   6  -5.612304  -0.872705  -2.507101   0.006785   0.412307   0.016456
 112   6  -5.582879   1.342642  -2.235819   0.007040   0.412307   0.017076
 113   6  -5.663535   2.136356  -1.396505   0.006942   0.377948   0.018368
 114   6  -5.619686   2.541994   0.712440   0.006108   0.309230   0.019753
 115   6  -5.565451   1.944634   1.923197   0.005644   0.309230   0.018251
 116   6  -5.389573   0.204818   2.916828   0.007211   0.446666   0.016144
 117   6  -5.391706  -1.122974   2.736597   0.007472   0.446666   0.016728
 118   6  -4.667055  -2.674390   1.865611   0.004798   0.240512   0.019949
 119   6  -4.934690  -3.057880  -0.624737   0.003501   0.206154   0.016983
 120   6  -4.786452  -2.502118  -1.863772   0.004896   0.240512   0.020358
 121   6  -4.444093  -0.944807  -2.985393   0.003261   0.206154   0.015820
 122   6  -4.579577  -0.173416  -3.071409   0.003377   0.240512   0.014040
 123   6  -4.616797   1.017424  -2.862354   0.005713   0.377948   0.015116
 124   6  -4.851953   2.766361  -1.069182   0.005310   0.274871   0.019318
 125   6  -4.977792   2.912161   0.542210   0.003567   0.171795   0.020766
 126   6  -4.387497   1.957532   2.546582   0.006410   0.377948   0.016960
 127   6  -4.256670   0.806999   3.180388   0.004634   0.309230   0.014985
 128   6  -4.350325  -1.863681   2.758178   0.006295   0.377948   0.016655
 129   6  -6.315708  -2.104922   0.600065   0.007455   0.412307   0.018082
 130   6  -6.449990  -1.087607  -1.537353   0.007959   0.481025   0.016547
 131   6  -6.472546   1.274685  -1.198857   0.006938   0.412307   0.016828
 132   6  -6.335399   1.749808   1.004369   0.008091   0.446666   0.018114
 133   6  -6.293952  -0.422803   2.165978   0.006510   0.412307   0.015789
 134   6  -4.784167  -3.170181   0.463099   0.005516   0.240512   0.022934
 135   6  -4.704343  -1.763507  -2.554140   0.005889   0.343589   0.017141
 136   6  -4.628671   2.151722  -2.122418   0.005885   0.343589   0.017127
 137   6  -4.854277   2.537630   1.695553   0.006441   0.309230   0.020830
 138   6  -4.389162  -0.561724   3.251899   0.005963   0.412307   0.014463
 139   7  -1.705195   6.044130  -0.167744  -0.007728   0.451437  -0.017120
 140   7  -0.204963   5.668826  -1.411134  -0.005654   0.372926  -0.015160
 141   7   0.047017   5.915613   0.859410  -0.006385   0.412182  -0.015490
 142   7  -1.580122   5.102923   1.934360  -0.004013   0.353299  -0.011360
 143   7  -2.902955   5.027125   0.220091  -0.005612   0.333671  -0.016818
 144   7  -2.242023   4.689732  -1.739914  -0.004863   0.372926  -0.013041
 145   7  -0.206008   6.129803  -0.286664  -0.008136   0.549575  -0.014804
 146   7  -1.217518   6.007172   0.944373  -0.006289   0.392554  -0.016020
 147   7  -2.262406   5.550138   0.877038  -0.005898   0.372926  -0.015815
 148   7  -2.643705   5.158291  -0.819262  -0.007050   0.431809  -0.016327
 149   7  -1.488734   5.750756  -1.252350  -0.006793   0.431809  -0.015732
 150   7  -0.539660   5.503318   1.742651  -0.003810   0.333671  -0.011419
 151   7  -2.478496   4.729940   1.541570  -0.004334   0.314043  -0.013800
 152   7  -1.086631   5.075759  -2.035126  -0.004125   0.372926  -0.011061
 153   8  -1.067994  -5.830687   2.179567  -0.004610   0.569203  -0.008099
 154   8  -1.849275  -4.477046   2.732400  -0.002274   0.333671  -0.006814
 155   8  -0.191726  -4.424427   3.229900  -0.002036   0.333671  -0.006101
 156   8   0.735429  -5.854231   1.772131  -0.001768   0.333671  -0.005299
 157   8  -0.830879  -6.251066   0.358504  -0.001745   0.372926  -0.004679
 158   8  -2.421375  -5.273208   0.820012  -0.001668   0.314043  -0.005311
 159   8  -1.063458  -4.510801   3.121961  -0.002532   0.412182  -0.006142
 160   8   0.219297  -5.409518   2.665436  -0.003491   0.510320  -0.006841
 161   8  -0.046742  -6.287898   1.195604  -0.003008   0.510320  -0.005894
 162   8  -1.699562  -5.964719   0.828853  -0.002589   0.451437  -0.005736
 163   8  -2.223022  -5.098874   1.946752  -0.003291   0.451437  -0.007290
 164   9   0.013854  -3.691409  -4.585999  -0.003767   0.471065  -0.007998
 165   9   1.513733  -2.764186  -4.307291  -0.002247   0.314043  -0.007156
 166   9   0.134066  -1.717803  -4.455001  -0.001941   0.294415  -0.006594
 167   9  -1.610466  -3.143872  -3.986606  -0.002235   0.372926  -0.005993
 168   9  -0.792330  -4.806879  -3.452789  -0.001648   0.372926  -0.004418
 169   9   1.262994  -4.672624  -3.486066  -0.001653   0.353299  -0.004678
 170   9   0.627317  -2.532311  -4.662544  -0.002665   0.372926  -0.007147
 171   9  -0.716749  -2.553122  -4.563827  -0.003053   0.471065  -0.006481
 172   9  -1.241891  -4.008872  -3.958186  -0.002578   0.412182  -0.006255
 173   9   0.196090  -4.787340  -3.796482  -0.002881   0.471065  -0.006115
 174   9   1.378601  -3.830336  -4.157963  -0.003440   0.490692  -0.007010
 175  10   3.617703  -1.816192   4.782058  -0.003366   0.529948  -0.006352
 176  10   1.931296  -2.199150   4.415013  -0.001378   0.294415  -0.004680
 177  10   2.326940  -0.391750   4.436909  -0.001535   0.314043  -0.004889
 178  10   4.536599  -0.400045   4.093371  -0.001765   0.372926  -0.004734
 179  10   5.050908  -2.284744   3.714881  -0.001080   0.372926  -0.002896
 180  10   3.393586  -3.506628   3.776309  -0.001113   0.353299  -0.003150
 181  10   2.271732  -1.358444   4.690325  -0.002160   0.412182  -0.005241
 182  10   3.482801  -0.478727   4.606213  -0.002495   0.471065  -0.005297
 183  10   4.861088  -1.324271   4.136835  -0.001922   0.431809  -0.004451
 184  10   4.269498  -2.880899   4.074712  -0.002097   0.471065  -0.004452
 185  10   2.762009  -2.876961   4.388633  -0.002494   0.471065  -0.005294
 186  11   6.154512  -3.298149  -1.828497  -0.004129   0.588831  -0.007012
 187  11   5.904963  -1.766635  -2.476647  -0.001735   0.333671  -0.005201
 188  11   4.601070  -2.894238  -2.971974  -0.001605   0.333671  -0.004809
 189  11   4.763745  -4.470125  -1.384788  -0.001218   0.333671  -0.003652
 190  11   6.165450  -3.654647   0.022108  -0.001201   0.372926  -0.003221
 191  11   6.748732  -1.781584  -0.606309  -0.001199   0.353299  -0.003394
 192  11   5.338932  -2.380269  -2.867843  -0.002356   0.431809  -0.005457
 193  11   4.902591  -3.865948  -2.321723  -0.002877   0.510320  -0.005638
 194  11   5.620168  -4.251596  -0.792313  -0.002526   0.510320  -0.004950
 195  11   6.667425  -2.889074  -0.485236  -0.002383   0.471065  -0.005060
 196  11   6.536124  -1.871431  -1.665076  -0.002631   0.490692  -0.005361
 197  12   3.743149   2.353367  -4.538926  -0.003705   0.569203  -0.006509
 198  12   1.921613   2.401277  -4.279271  -0.001564   0.372926  -0.004195
 199  12   3.229536   0.776021  -4.398572  -0.002103   0.353299  -0.005954
 200  12   4.956858   1.183974  -3.697835  -0.002085   0.392554  -0.005310
 201  12   4.990940   3.098808  -3.255862  -0.001320   0.372926  -0.003541
 202  12   3.140354   3.891603  -3.618040  -0.001359   0.412182  -0.003297
 203  12   2.417178   1.497443  -4.524995  -0.002565   0.451437  -0.005682
 204  12   4.100395   1.023342  -4.295644  -0.002239   0.392554  -0.005703
 205  12   5.039412   2.182705  -3.726663  -0.002190   0.431809  -0.005073
 206  12   4.154719   3.527252  -3.717000  -0.002163   0.471065  -0.004592
 207  12   2.592602   3.177612  -4.221841  -0.002225   0.451437  -0.004930
 208  13   5.091455   4.192709   2.371470  -0.004546   0.608459  -0.007472
 209  13   5.096375   2.482918   3.004432  -0.001875   0.294415  -0.006368
 210  13   3.425143   3.462235   3.287875  -0.001665   0.372926  -0.004465
 211  13   3.529317   5.001903   1.804197  -0.001711   0.353299  -0.004842
 212  13   5.287568   4.559081   0.579049  -0.001471   0.372926  -0.003946
 213  13   6.166306   2.830922   1.275307  -0.001592   0.353299  -0.004505
 214  13   4.448669   3.166637   3.275784  -0.003024   0.471065  -0.006419
 215  13   3.659655   4.423275   2.721418  -0.002854   0.490692  -0.005815
 216  13   4.498492   5.010918   1.293372  -0.002573   0.490692  -0.005243
 217  13   5.867867   3.899862   1.148402  -0.002785   0.471065  -0.005911
 218  13   5.803695   2.803809   2.289002  -0.003179   0.510320  -0.006229
 219   1  -2.720732   2.741684   2.405673   0.000055   0.028400   0.001954
 220   2  -3.027723   2.425065   2.456052   0.000226   0.028400   0.007970
 221   6  -3.406613   2.327952   2.376265   0.000340   0.028400   0.011977
 222   1  -2.424018   3.350148  -2.071976  -0.000217   0.025629  -0.008485
 223   2  -2.691155   2.996806  -2.102602  -0.000119   0.025629  -0.004659
 224   7  -2.423423   3.632000  -1.929497  -0.000340   0.025629  -0.013280
 225   1   0.414274   0.795164   3.420849   0.000342   0.135797   0.002520
 226   2   0.165251   0.422937   3.458081  -0.000408   0.135797  -0.003006
 227  10   1.126632   0.041841   3.627013  -0.000709   0.135797  -0.005222
 228   1   0.035888   1.776389  -3.366190   0.000223   0.085395   0.002608
 229   2  -0.215406   1.409380  -3.393557  -0.000111   0.085395  -0.001298
 230  12   0.776022   1.741771  -3.574017  -0.000222   0.085395  -0.002602
 231   2  -0.651590   0.890455   3.562817   0.000403   0.175175   0.002299
 232   2  -2.060195   1.905968   3.087856   0.000864   0.348277   0.002480
 233   1  -0.824526   1.796535   3.375487   0.002792   0.345395   0.008084
 234   1  -2.164675   2.770859   2.769990   0.000598   0.167149   0.003578
 235   2  -2.466461   2.494450  -2.611912  -0.000143   0.223811  -0.000639
 236   2  -1.164288   1.618190  -3.349456  -0.000188   0.223811  -0.000840
 237   1  -1.406167   2.535018  -2.826938   0.000860   0.456280   0.001885
 238   1   0.557039   4.568031  -2.158435  -0.000248   0.026593  -0.009316
 239   5   1.028163   4.492004  -2.231231  -0.000267   0.026593  -0.010050
 240   7   0.363702   4.768135  -2.009121  -0.000328   0.026593  -0.012348
 241   1   1.133736   4.989307   1.443082  -0.000333   0.026593  -0.012505
 242   5   1.606786   4.914687   1.382314  -0.000299   0.026593  -0.011249
 243   7   0.896717   5.157501   1.319599  -0.000381   0.026593  -0.014334
 244   1   1.245403   1.354855   3.402462   0.000275   0.093421   0.002946
 245   5   1.720940   1.269764   3.441939  -0.000151   0.093421  -0.001619
 246  10   1.914331   0.579585   3.663561  -0.000439   0.093421  -0.004697
 247   1   0.721502   3.480310  -3.050994   0.000016   0.014740   0.001088
 248   5   1.178581   3.444225  -3.201305  -0.000047   0.014740  -0.003207
 249  12   1.407552   3.353263  -3.375834  -0.000100   0.014740  -0.006755
 250   1   1.615972   4.678455   1.803124  -0.000115   0.013221  -0.008667
 251   5   2.098288   4.676195   1.790202  -0.000102   0.013221  -0.007705
 252  13   2.380502   4.660335   1.888820  -0.000105   0.013221  -0.007941
 253   1   1.564977   3.610946   2.859077   0.000076   0.013221   0.005772
 254   5   2.045675   3.574797   2.879678  -0.000038   0.013221  -0.002896
 255  13   2.332708   3.659838   2.878487  -0.000107   0.013221  -0.008100
 256   5   1.953543   4.830976   1.588966  -0.000239   0.057000  -0.004194
 257   1   1.265732   4.849334   1.702085  -0.000276   0.054364  -0.005074
 258   5   1.787634   2.773296   3.136222   0.000217   0.337306   0.000644
 259   1   1.045516   2.493168   3.255467   0.002268   0.321766   0.007050
 260   5   1.163790   3.890486  -2.858074  -0.000322   0.200446  -0.001607
 261   1   0.546464   4.146276  -2.552832  -0.000374   0.191187  -0.001957
 262   1  -2.766949   3.389578   1.882466  -0.000361   0.062701  -0.005753
 263   6  -3.410502   2.919861   1.801620   0.000404   0.062701   0.006446
 264   7  -2.750312   3.661412   1.720136  -0.000734   0.062701  -0.011699
 265   6  -3.697144   2.500776   2.253289   0.001429   0.155433   0.009193
 266   1  -2.764044   3.172885   2.212896  -0.000019   0.161694  -0.000120
 267   7  -0.233370   4.820663  -2.103540  -0.001052   0.094253  -0.011162
 268   7  -1.539668   4.275768  -2.149753  -0.002582   0.215954  -0.011956
 269   1  -0.554703   4.255898  -2.363519  -0.001836   0.197862  -0.009282
 270   1  -1.969600   3.673594  -2.257209  -0.000716   0.110909  -0.006455
 271   7  -2.300648   4.165507   1.928518  -0.000872   0.078036  -0.011179
 272   7  -1.238669   4.621136   2.216686  -0.001593   0.171103  -0.009309
 273   7   0.043292   5.132448   1.797737  -0.002093   0.171103  -0.012231
 274   1  -1.826462   3.962941   2.298403  -0.001246   0.168731  -0.007382
 275   1  -0.364058   4.573015   2.351360  -0.001118   0.168731  -0.006625
 276   1   0.695005   4.981924   1.737743  -0.000826   0.091826  -0.008993
 277  10   1.816760   0.136587   3.990218  -0.000348   0.177058  -0.001967
 278   1   0.730134   1.161938   3.610745   0.001036   0.233300   0.004442
 279  12   1.313593   2.478905  -3.736484  -0.001458   0.350009  -0.004165
 280   1   0.343544   2.902326  -3.252479   0.001103   0.450112   0.002450
 281  13   2.505387   4.335693   2.357429  -0.001549   0.318833  -0.004858
 282   1   1.374438   4.147035   2.515570   0.000330   0.410134   0.000804
 283   2  -1.733608  -2.406952   3.079816  -0.000217   0.024117  -0.008995
 284   3  -1.445651  -2.809313   3.067106  -0.000210   0.024117  -0.008698
 285   8  -1.449649  -3.107072   3.029323  -0.000171   0.024117  -0.007093
 286   2  -0.238914  -1.338731   3.472903  -0.001018   0.098906  -0.010297
 287   3   0.058544  -1.737198   3.467474  -0.000782   0.098906  -0.007904
 288  10   0.756132  -1.577640   3.697652  -0.000667   0.098906  -0.006741
 289   3  -0.756965  -2.160390   3.337156  -0.001391   0.249290  -0.005579
 290   2  -1.422539  -1.772964   3.344843  -0.001517   0.249290  -0.006083
 291   2  -3.177387   2.807998  -1.908795   0.000096   0.065411   0.001471
 292   6  -3.549064   2.698719  -1.808333   0.000748   0.065411   0.011440
 293   7  -2.850138   3.398984  -1.689530  -0.000563   0.065411  -0.008609
 294   2  -2.864620  -2.523244   2.556487   0.000236   0.066326   0.003552
 295   6  -3.245885  -2.446877   2.462341   0.000815   0.066326   0.012284
 296   8  -2.468111  -3.160519   2.462485  -0.000202   0.066326  -0.003039
 297   2  -3.003685  -2.030029  -2.870142   0.000055   0.035645   0.001554
 298   6  -3.370185  -1.963497  -2.728358   0.000342   0.035645   0.009605
 299   9  -2.458480  -2.474433  -3.076830  -0.000195   0.035645  -0.005480
 300   6  -3.925784   2.125265  -2.273500   0.002098   0.156742   0.013387
 301   6  -3.915250   0.446586  -2.987202   0.004598   0.336214   0.013677
 302   6  -3.871244  -1.374185  -2.885719   0.002125   0.156742   0.013556
 303   2  -3.371856   1.572362  -2.721768   0.002622   0.325976   0.008044
 304   2  -3.336667  -0.685472  -3.116770   0.002273   0.325976   0.006974
 305   6  -3.649122  -1.794017   2.834261   0.002099   0.159549   0.013154
 306   6  -3.675733   0.023465   3.198321   0.004747   0.343300   0.013827
 307   6  -3.733491   1.809999   2.706950   0.001981   0.159549   0.012419
 308   2  -3.094720  -1.130227   3.121224   0.002529   0.331854   0.007621
 309   2  -3.149146   1.194737   3.039096   0.002662   0.331854   0.008021
 310   7  -2.545445   3.803332  -1.879771  -0.000322   0.049118  -0.006546
 311   2  -2.976597   2.914113  -2.094074   0.000046   0.060008   0.000758
 312   8  -1.741055  -3.410403   2.891956  -0.001039   0.192443  -0.005401
 313   2  -2.386291  -2.470759   2.906235  -0.000248   0.271060  -0.000914
 314   2   0.091414   0.094659  -3.538153  -0.002370   0.240620  -0.009848
 315   9   0.381148  -0.565826  -3.720460  -0.002209   0.240620  -0.009181
 316  12   1.072912   0.496521  -3.646985  -0.001783   0.240620  -0.007408
 317   9  -1.931534  -2.522610  -3.609321  -0.001372   0.211690  -0.006482
 318   9  -0.799283  -1.532563  -4.004514  -0.004396   0.436426  -0.010073
 319   2  -2.175369  -1.323041  -3.476940  -0.003033   0.577371  -0.005253
 320   2  -0.797814  -0.258616  -3.784655  -0.001985   0.298575  -0.006649
 321  10   1.307636  -0.769278   4.008443  -0.001568   0.384193  -0.004082
 322   2  -0.209498  -0.577130   3.689209  -0.002489   0.547749  -0.004543
 323  12   1.268524   1.326892  -3.933906  -0.000692   0.223414  -0.003096
 324   2  -0.224466   0.928203  -3.659441  -0.000525   0.319401  -0.001645
 325   3   1.868923  -5.114298   1.603842  -0.000099   0.020526  -0.004833
 326   4   2.305258  -4.897658   1.703309  -0.000064   0.020526  -0.003136
 327   8   1.602759  -5.213854   1.700150  -0.000111   0.020526  -0.005423
 328   3   3.024657  -4.821729  -1.206967  -0.000043   0.022093  -0.001927
 329   4   3.490445  -4.682994  -1.101871  -0.000046   0.022093  -0.002062
 330  11   3.754696  -4.590250  -1.209112  -0.000072   0.022093  -0.003238
 331   4   2.846577  -4.950887   1.196553  -0.000290   0.248690  -0.001167
 332   4   3.276528  -4.903707  -0.497409  -0.000206   0.248690  -0.000828
 333   3   2.396619  -5.125882   0.175272  -0.001518   0.512535  -0.002962
 334   3  -3.075747  -4.142169   0.304353   0.000027   0.053443   0.000502
 335   6  -3.698292  -3.591589   0.358640   0.000852   0.053443   0.015947
 336   8  -2.938290  -4.306375   0.515683  -0.000172   0.053443  -0.003209
 337   3  -2.584382  -2.749054  -2.849302  -0.000143   0.035757  -0.004006
 338   6  -3.227091  -2.271002  -2.623415   0.000194   0.035757   0.005436
 339   9  -2.365335  -2.808478  -3.049515  -0.000247   0.035757  -0.006906
 340   6  -3.889983  -2.416115  -2.315529   0.003647   0.299485   0.012179
 341   6  -4.168251  -3.192602  -0.781872   0.009985   0.605705   0.016486
 342   3  -3.042283  -3.416038  -1.928090   0.000717   0.657897   0.001089
 343   3  -3.255055  -4.096807  -0.261880   0.000709   0.330979   0.002143
 344   3   0.572529  -3.297925   3.343827  -0.000131   0.036987  -0.003547
 345   8   0.432972  -3.555104   3.277027  -0.000224   0.036987  -0.006064
 346  10   1.224381  -3.011130   3.578819  -0.000138   0.036987  -0.003736
 347   8  -0.203967  -3.730870   3.283637  -0.000368   0.072361  -0.005089
 348   8  -1.075686  -3.485059   3.166396  -0.000397   0.072361  -0.005487
 349   3  -0.530488  -3.216895   3.231984  -0.000995   0.156464  -0.006362
 350   8  -2.584648  -4.907417   0.412727  -0.000342   0.071019  -0.004811
 351   8  -1.802694  -5.577397  -0.102553  -0.000733   0.159213  -0.004605
 352   8  -0.506289  -6.077134  -0.113400  -0.000821   0.159213  -0.005156
 353   8   0.682103  -6.008857   0.603249  -0.000861   0.159213  -0.005405
 354   8   1.253950  -5.573951   1.503075  -0.000375   0.071019  -0.005281
 355   3  -2.398919  -4.965799  -0.160703  -0.000632   0.154197  -0.004100
 356   3  -1.135237  -5.766546  -0.604192  -0.000484   0.154197  -0.003138
 357   3   0.345249  -6.023617  -0.183662  -0.000616   0.154197  -0.003997
 358   3   1.380292  -5.622020   0.912776  -0.000812   0.154197  -0.005264
 359   3   2.570282  -4.033568  -2.720413  -0.000132   0.043553  -0.003027
 360   9   2.367906  -3.987206  -2.941446  -0.000258   0.043553  -0.005914
 361  11   3.279079  -3.804967  -2.546706  -0.000122   0.043553  -0.002792
 362   9   1.860018  -4.371283  -3.142844  -0.000399   0.071051  -0.005616
 363   9   0.943908  -5.018539  -2.927509  -0.000902   0.158649  -0.005683
 364   9  -0.429418  -5.118003  -2.849770  -0.000762   0.158649  -0.004802
 365   9  -1.575857  -4.370266  -3.018666  -0.000880   0.158649  -0.005544
 366   9  -2.049532  -3.365454  -3.284278  -0.000430   0.071051  -0.006055
 367   3   1.713173  -4.740157  -2.685133  -0.000801   0.154915  -0.005172
 368   3   0.300610  -5.336744  -2.466074  -0.000604   0.154915  -0.003897
 369   3  -1.198566  -4.951043  -2.520309  -0.000586   0.154915  -0.003780
 370   3  -2.130083  -3.751384  -2.824169  -0.000820   0.154915  -0.005294
 371  10   1.345288  -2.134114   3.962587  -0.001277   0.251569  -0.005076
 372   3   0.441570  -2.677021   3.526558  -0.000660   0.354194  -0.001865
 373  11   3.879175  -4.294560  -1.753376  -0.001355   0.312964  -0.004330
 374   3   2.780305  -4.485709  -2.111866  -0.000287   0.439854  -0.000653
 375   4   6.243773  -0.311172  -0.876027  -0.000137   0.024333  -0.005640
 376   5   6.165033   0.170152  -0.976585  -0.000135   0.024333  -0.005533
 377  11   6.280731  -0.580170  -1.003505  -0.000167   0.024333  -0.006858
 378   4   5.880049   0.728113   1.683108  -0.000120   0.023476  -0.005115
 379   5   5.883677   1.217264   1.589930  -0.000160   0.023476  -0.006805
 380  13   5.849998   1.489081   1.711389  -0.000211   0.023476  -0.009009
 381   5   6.098912   0.982545   1.055328  -0.000709   0.222945  -0.003179
 382   5   6.264932   0.643768  -0.472676  -0.000695   0.222945  -0.003118
 383   4   6.185995   0.114646   0.446637  -0.001688   0.454602  -0.003713
 384   4   2.118499  -3.966171   2.979014  -0.000091   0.045587  -0.001989
 385   8   1.434752  -4.277661   2.813686  -0.000162   0.045587  -0.003543
 386  10   2.224059  -3.780576   3.192314  -0.000176   0.045587  -0.003871
 387   8   1.311498  -5.061276   2.164957  -0.001444   0.278721  -0.005180
 388   4   2.264539  -4.458393   2.480700  -0.000202   0.391870  -0.000515
 389   4   3.286970  -2.570875  -3.150715  -0.000125   0.038440  -0.003261
 390   9   2.611347  -2.812924  -3.388145  -0.000201   0.038440  -0.005238
 391  11   3.557678  -2.669459  -3.067144  -0.000195   0.038440  -0.005073
 392   4   2.800749  -1.209836  -3.439180  -0.000773   0.156541  -0.004936
 393   9   2.152113  -1.545546  -3.647496  -0.000986   0.156541  -0.006300
 394  12   2.829870  -0.475779  -3.631288  -0.000909   0.156541  -0.005808
 395   9   2.026714  -2.411447  -3.836762  -0.001297   0.197963  -0.006554
 396   4   3.040127  -2.145044  -3.386122  -0.000408   0.278818  -0.001462
 397   4   4.969379   0.439520   3.005632  -0.000124   0.047826  -0.002601
 398  10   4.843138   0.267665   3.219442  -0.000188   0.047826  -0.003941
 399  13   4.942847   1.188270   2.871435  -0.000196   0.047826  -0.004089
 400  10   2.853514  -3.709050   3.409949  -0.000269   0.070180  -0.003827
 401  10   3.967543  -3.577738   3.240735  -0.000587   0.156624  -0.003749
 402  10   5.043515  -2.733741   3.156157  -0.000491   0.156624  -0.003133
 403  10   5.378690  -1.408347   3.246636  -0.000596   0.156624  -0.003808
 404  10   5.046725  -0.337373   3.419122  -0.000277   0.070180  -0.003952
 405   4   3.230692  -3.911164   2.986170  -0.000511   0.153054  -0.003342
 406   4   4.674336  -3.410549   2.803224  -0.000248   0.153054  -0.001620
 407   4   5.513449  -2.120561   2.806733  -0.000310   0.153054  -0.002025
 408   4   5.385436  -0.598625   2.995182  -0.000498   0.153054  -0.003251
 409   4   4.191569  -1.077630  -3.147458  -0.000156   0.042617  -0.003660
 410  11   4.409863  -1.266657  -3.065369  -0.000214   0.042617  -0.005030
 411  12   4.131558  -0.357731  -3.370039  -0.000211   0.042617  -0.004957
 412  11   6.494699  -1.036996  -0.803968  -0.000308   0.070008  -0.004404
 413  11   6.599143  -1.807561   0.025417  -0.000696   0.156487  -0.004449
 414  11   6.227787  -3.023848   0.542448  -0.000555   0.156487  -0.003544
 415  11   5.413925  -4.098118   0.281383  -0.000634   0.156487  -0.004052
 416  11   4.512289  -4.562139  -0.643990  -0.000737   0.156487  -0.004712
 417   4   6.478028  -1.000072  -0.203910  -0.000616   0.152421  -0.004044
 418   4   6.395722  -2.216369   0.740116  -0.000419   0.152421  -0.002747
 419   4   5.690609  -3.579073   0.892396  -0.000363   0.152421  -0.002383
 420   4   4.670020  -4.494238   0.186557  -0.000440   0.152421  -0.002889
 421   4   3.895605  -4.697232  -0.779571  -0.000186   0.085530  -0.002175
 422  11   4.233464  -2.274812  -3.059824  -0.000535   0.104813  -0.005105
 423   4   3.989248  -1.861402  -3.125741  -0.000543   0.128052  -0.004244
 424  12   3.727243   0.022296  -3.765887  -0.000956   0.187368  -0.005101
 425   4   3.550027  -1.047828  -3.418329  -0.000362   0.263930  -0.001371
 426  13   5.417846   1.666619   2.428710  -0.001635   0.281625  -0.005807
 427   4   5.625922   0.534551   2.279621  -0.000466   0.396084  -0.001176
 428   7   0.819627   5.416102   0.956678  -0.002711   0.192407  -0.014088
 429   7   0.775334   5.524993  -0.433758  -0.007025   0.393159  -0.017868
 430   7   0.392924   5.104396  -1.708117  -0.002465   0.192407  -0.012810
 431   5   1.900757   5.210243   0.412477  -0.003655   0.527839  -0.006924
 432   5   1.595818   4.987485  -1.491893  -0.003657   0.527839  -0.006929
 433   5   3.419359   1.586631   3.451412  -0.000183   0.042793  -0.004266
 434  10   3.471208   0.873095   3.672969  -0.000167   0.042793  -0.003902
 435  13   3.608055   1.814214   3.400871  -0.000246   0.042793  -0.005737
 436  10   2.949815   0.374008   3.983371  -0.001353   0.266332  -0.005079
 437   5   2.515156   1.351517   3.583902  -0.000560   0.374920  -0.001494
 438   5   5.315917   0.273782  -2.594809  -0.000189   0.044584  -0.004235
 439  11   5.418642  -0.462286  -2.442717  -0.000175   0.044584  -0.003936
 440  12   5.190810   0.433808  -2.818988  -0.000253   0.044584  -0.005679
 441  11   5.942543  -0.842572  -1.871387  -0.001703   0.322021  -0.005287
 442   5   5.925875   0.306758  -1.679250  -0.001020   0.452637  -0.002253
 443  12   1.881989   3.544551  -3.504554  -0.000329   0.073331  -0.004493
 444  12   2.872092   4.069458  -3.137880  -0.000814   0.165131  -0.004929
 445  12   4.240965   3.921145  -2.786066  -0.000632   0.165131  -0.003825
 446  12   5.237455   2.912519  -2.689819  -0.000878   0.165131  -0.005318
 447  12   5.395719   1.515096  -2.894133  -0.000994   0.165131  -0.006018
 448   5   2.014989   3.933746  -3.047120  -0.000782   0.158599  -0.004930
 449   5   3.490695   4.311915  -2.572347  -0.000601   0.158599  -0.003791
 450   5   4.903770   3.620756  -2.304674  -0.000467   0.158599  -0.002945
 451   5   5.593623   2.183375  -2.369234  -0.000783   0.158599  -0.004939
 452   5   5.472213   0.914013  -2.628075  -0.000379   0.089590  -0.004230
 453  13   6.008386   1.975174   1.540466  -0.000433   0.069376  -0.006246
 454  13   6.118089   2.739084   0.717247  -0.000997   0.154832  -0.006440
 455  13   5.643704   3.857112   0.098510  -0.000795   0.154832  -0.005137
 456  13   4.634876   4.771223   0.165818  -0.000829   0.154832  -0.005355
 457  13   3.524851   5.088845   0.890267  -0.000883   0.154832  -0.005703
 458  13   2.837155   4.848660   1.752050  -0.000381   0.069376  -0.005495
 459   5   6.101980   1.928932   0.950818  -0.000987   0.151264  -0.006526
 460   5   5.976795   3.093903  -0.034618  -0.000824   0.151264  -0.005445
 461   5   5.095137   4.301855  -0.362401  -0.000592   0.151264  -0.003917
 462   5   3.835639   5.034027   0.108239  -0.000659   0.151264  -0.004357
 463   5   2.739201   4.975983   1.175182  -0.000915   0.151264  -0.006052
 464  13   2.816826   3.430845   3.110764  -0.000467   0.090253  -0.005175
 465  13   3.441244   2.528261   3.387399  -0.000531   0.090253  -0.005880
 466   5   2.813630   2.749565   3.210622  -0.001288   0.184206  -0.006991
 467   7  -2.933425   3.914864  -1.487065  -0.001834   0.230053  -0.007974
 468   7  -3.286765   4.209057  -0.376543  -0.004891   0.462672  -0.010571
 469   7  -3.110173   4.094545   1.071019  -0.004573   0.462672  -0.009885
 470   6  -4.123223   3.047437  -1.166066   0.005448   0.567122   0.009606
 471   6  -4.343425   3.245218   0.415197   0.006623   0.567122   0.011678
 472   6  -3.984018   2.984339   1.648230   0.002812   0.285615   0.009847
 473   8  -2.518917  -3.740271   2.397124  -0.000520   0.245742  -0.002117
 474   8  -2.883329  -4.275131   1.362283  -0.001069   0.493836  -0.002165
 475   6  -3.826188  -2.959391   1.934252   0.006699   0.609796   0.010986
 476   6  -4.146578  -3.484057   0.751238   0.003576   0.306986   0.011650
 477   9  -2.337472  -2.851230  -3.310546   0.000032   0.049018   0.000653
 478   6  -3.642526  -2.085705  -2.804441   0.000354   0.061568   0.005754
 479  10   1.796839  -3.306579   3.704091  -0.000704   0.417444  -0.001687
 480   8   0.834508  -4.231942   3.115560  -0.000975   0.417444  -0.002335
 481  11   3.703367  -3.409836  -2.857952  -0.000663   0.404091  -0.001642
 482   9   2.383266  -3.412254  -3.485689  -0.001034   0.404091  -0.002558
 483  12   2.634423  -0.016332  -4.116229  -0.000526   0.349316  -0.001505
 484  12   1.756255   0.540640  -4.156615  -0.000601   0.349316  -0.001720
 485   9   1.219078  -1.275684  -4.116887  -0.002617   0.698037  -0.003749
 486  13   4.013373   1.882252   3.476877  -0.000428   0.248626  -0.001722
 487  13   4.834383   1.652004   3.141871  -0.000417   0.248626  -0.001676
 488  10   4.223682   0.435096   3.734247  -0.001023   0.497451  -0.002056
 489  12   5.075045   0.359103  -3.192956  -0.000347   0.226692  -0.001530
 490  12   4.427920   0.016522  -3.587587  -0.000317   0.226692  -0.001399
 491  11   5.114772  -1.090958  -2.875895  -0.000860   0.453389  -0.001896
 =====================================================


   1 warning(s) detected.
     A line exceeding 80 characters begins with "http://cactus.nci.ni".
 There may be a problem in your input file.

              2165428  WORDS OF DYNAMIC MEMORY USED
 EXECUTION OF GAMESS TERMINATED NORMALLY Wed Nov 23 09:52:11 2016
 DDI: 263640 bytes (0.3 MB / 0 MWords) used by master data server.

 ----------------------------------------
 CPU timing information for all processes
 ========================================
 0: 810.568 + 0.344 = 810.912
 ----------------------------------------
 ddikick.x: exited gracefully.
