----- GAMESS execution script -----

          ******************************************************
          *         GAMESS VERSION =  5 DEC 2014 (R1)          *
          *             FROM IOWA STATE UNIVERSITY             *
          * M.W.SCHMIDT, K.K.BALDRIDGE, J.A.BOATZ, S.T.ELBERT, *
          *   M.S.GORDON, J.H.JENSEN, S.KOSEKI, N.MATSUNAGA,   *
          *          K.A.NGUYEN, S.J.SU, T.L.WINDUS,           *
          *       TOGETHER WITH M.DUPUIS, J.A.MONTGOMERY       *
          *         J.COMPUT.CHEM.  14, 1347-1363(1993)        *
          **************** 64 BIT LINUX VERSION ****************

 EXECUTION OF GAMESS BEGUN Wed Nov 23 09:46:17 2016

            ECHO OF THE FIRST FEW INPUT CARDS -
 INPUT CARD>! SELECT RESTRICTED HARTREE-FOCK AS DEFAULT                                     
 INPUT CARD>$contrl scftyp=rhf $end                                                         
 INPUT CARD>                                                                                
 INPUT CARD>! THEORY: HF OR DFT                                                             
 INPUT CARD> $contrl mplevl=0 $end                                                          
 INPUT CARD>                                                                                
 INPUT CARD> $system timlim=10000 mwords=20 $end                                            
 INPUT CARD> $SCF DIRSCF=.TRUE. $end                                                        
 INPUT CARD>                                                                                
 INPUT CARD>                                                                                
 INPUT CARD>! BASIS SETS                                                                    
 INPUT CARD>! 6-311G(d,p)                                                                   
 INPUT CARD> $BASIS GBASIS=N311 NGAUSS=6 NDFUNC=1 NPFUNC=1 $END                             
 INPUT CARD>                                                                                
 INPUT CARD>! One of the following                                                          
 INPUT CARD> $guess guess=HUCKEL $end                                                       
 INPUT CARD>                                                                                
 INPUT CARD> $statpt projct=.FALSE. $end                                                    
 INPUT CARD> $STATPT IFREEZ(1)=1,2,3 $END                                                   
 INPUT CARD>                                                                                
 INPUT CARD>! Optimize the geometry with COSMO effects                                      
 INPUT CARD> $statpt opttol=0.0005 nstep=50 $end                                            
 INPUT CARD> $contrl nzvar=1 $end                                                           
 INPUT CARD> $zmat dlc=.t. auto=.t. $end                                                    
 INPUT CARD> $contrl runtyp=OPTIMIZE maxit=200 $end                                         
 INPUT CARD>                                                                                
 INPUT CARD>! Run COSMO on perfect conductor                                                
 INPUT CARD> $COSGMS PRFCND=.TRUE. $end                                                     
 INPUT CARD>                                                                                
 INPUT CARD>! Specifying RSOLV                                                              
 INPUT CARD> $COSGMS COSRAD = 1.4 $end                                                      
 INPUT CARD>                                                                                
 INPUT CARD>! available memory                                                              
 INPUT CARD> $SYSTEM MWORDS=40 $END                                                         
 INPUT CARD>                                                                                
 INPUT CARD> $DATA                                                                          
 INPUT CARD>http://cactus.nci.nih.gov/chemical/structure/3,3,5-TRIMETHYLHEPTANE/file?format=
 INPUT CARD>C1                                                                              
 INPUT CARD>C      6.0      1.2210000000    1.4570000000    0.1780000000                    
 INPUT CARD>C      6.0      1.1353000000   -0.0603000000    0.0009000000                    
 INPUT CARD>C      6.0      2.3586000000   -0.7185000000    0.6422000000                    
 INPUT CARD>C      6.0      3.6299000000   -0.1974000000   -0.0311000000                    
 INPUT CARD>C      6.0     -0.1359000000   -0.5814000000    0.6741000000                    
 INPUT CARD>C      6.0     -1.3619000000   -0.0598000000   -0.0780000000                    
 INPUT CARD>C      6.0     -2.6206000000   -0.7393000000    0.4650000000                    
 INPUT CARD>C      6.0     -3.8305000000   -0.3124000000   -0.3685000000                    
 INPUT CARD>C      6.0     -1.4745000000    1.4535000000    0.1174000000                    
 INPUT CARD>C      6.0      1.0976000000   -0.3983000000   -1.4909000000                    
 INPUT CARD>H      1.0      2.2636000000    1.7707000000    0.1250000000                    
 INPUT CARD>H      1.0      0.6533000000    1.9477000000   -0.6125000000                    
   40000000 WORDS OF MEMORY AVAILABLE

     BASIS OPTIONS
     -------------
     GBASIS=N311         IGAUSS=       6      POLAR=POPN311 
     NDFUNC=       1     NFFUNC=       0     DIFFSP=       F
     NPFUNC=       1      DIFFS=       F     BASNAM=        


     RUN TITLE
     ---------
 http://cactus.nci.nih.gov/chemical/structure/3,3,5-TRIMETHYLHEPTANE/file?format=

 THE POINT GROUP OF THE MOLECULE IS C1      
 THE ORDER OF THE PRINCIPAL AXIS IS     0

 ATOM      ATOMIC                      COORDINATES (BOHR)
           CHARGE         X                   Y                   Z
 C           6.0     2.3073554310        2.7533307641        0.3363712258
 C           6.0     2.1454059139       -0.1139504771        0.0017007534
 C           6.0     4.4571077146       -1.3577681222        1.2135820293
 C           6.0     6.8595163628       -0.3730319100       -0.0587704782
 C           6.0    -0.2568137617       -1.0986866893        1.2738642883
 C           6.0    -2.5736178227       -0.1130056141       -0.1473986270
 C           6.0    -4.9522159234       -1.3970744227        0.8787225843
 C           6.0    -7.2385953960       -0.5903503986       -0.6963640265
 C           6.0    -2.7864009689        2.7467167232        0.2218538310
 C           6.0     2.0741632441       -0.7526778609       -2.8173924751
 H           1.0     4.2775837458        3.3461378065        0.2362157485
 H           1.0     1.2345579878        3.6806193063       -1.1574571675
 H           1.0     1.5255757899        3.2758399997        2.1690274887
 H           1.0     4.5079413437       -0.9027221043        3.2217938365
 H           1.0     4.3418344294       -3.4005619149        0.9750986097
 H           1.0     8.5062235885       -1.2591244256        0.8046453256
 H           1.0     6.8086827338       -0.8280779278       -2.0669822854
 H           1.0     6.9747896481        1.6695729102        0.1797129414
 H           1.0    -0.2562468439       -3.1582990433        1.2413610013
 H           1.0    -0.3184188289       -0.4427627989        3.2255732884
 H           1.0    -2.3780311829       -0.5334696463       -2.1544765986
 H           1.0    -4.7301731199       -3.4419469140        0.7694964222
 H           1.0    -5.2398322188       -0.8414949823        2.8412030225
 H           1.0    -8.9333016618       -1.5049777766        0.0347709582
 H           1.0    -7.4608271721        1.4545220927       -0.5869488918
 H           1.0    -6.9509791006       -1.1457408664       -2.6588444647
 H           1.0    -1.7323118129        3.7108549221       -1.2619590146
 H           1.0    -4.7668338040        3.3051307525        0.1311469835
 H           1.0    -2.0114243413        3.2611001370        2.0598013266
 H           1.0     3.7856880712       -0.0510226017       -3.7237050588
 H           1.0     1.9588899589       -2.7952826810       -3.0558758947
 H           1.0     0.4274560184        0.1336036273       -3.6806193063

          INTERNUCLEAR DISTANCES (ANGS.)




     $CONTRL OPTIONS
     ---------------
 SCFTYP=RHF          RUNTYP=OPTIMIZE     EXETYP=RUN     
 MPLEVL=       0     CITYP =NONE         CCTYP =NONE         VBTYP =NONE    
 DFTTYP=NONE         TDDFT =NONE    
 MULT  =       1     ICHARG=       0     NZVAR =       1     COORD =UNIQUE  
 PP    =NONE         RELWFN=NONE         LOCAL =NONE         NUMGRD=       F
 ISPHER=      -1     NOSYM =       0     MAXIT =     200     UNITS =ANGS    
 PLTORB=       F     MOLPLT=       F     AIMPAC=       F     FRIEND=        
 NPRINT=       7     IREST =       0     GEOM  =INPUT   
 NORMF =       0     NORMP =       0     ITOL  =      20     ICUT  =       9
 INTTYP=BEST         GRDTYP=BEST         QMTTOL= 1.0E-06

     $SYSTEM OPTIONS
     ---------------
  REPLICATED MEMORY=    40000000 WORDS (ON EVERY NODE).
 DISTRIBUTED MEMDDI=           0 MILLION WORDS IN AGGREGATE,
 MEMDDI DISTRIBUTED OVER   1 PROCESSORS IS           0 WORDS/PROCESSOR.
 TOTAL MEMORY REQUESTED ON EACH PROCESSOR=    40000000 WORDS.
 TIMLIM=       10000.00 MINUTES, OR       6.9 DAYS.
 PARALL= F  BALTYP=  DLB     KDIAG=    0  COREFL= F
 MXSEQ2=     300 MXSEQ3=     150  mem10=         0

     $COSGMS OPTIONS
     ---------------
     EPSI  =   INFTY     NSPA  =      92     COSRAD=    1.40
     DISEX =   10.00     OUTCHG=DBLCAV       COSBUG=       F
     COSWRT=       F     DCOSMO=       F

     SYMMETRY COORDINATES WILL NOT BE USED FOR 
     THE COSMO CALCULATION, EVEN IF SPECIFIED:
         -- SWITCHING TO C1 POINT GROUP --


     DEFINITION OF CAVITY
     ---------------------------
     ATOM         COORDINATES           RADIUS 
     1    2.3074    2.7533    0.3364    2.0000
     2    2.1454   -0.1140    0.0017    2.0000
     3    4.4571   -1.3578    1.2136    2.0000
     4    6.8595   -0.3730   -0.0588    2.0000
     5   -0.2568   -1.0987    1.2739    2.0000
     6   -2.5736   -0.1130   -0.1474    2.0000
     7   -4.9522   -1.3971    0.8787    2.0000
     8   -7.2386   -0.5904   -0.6964    2.0000
     9   -2.7864    2.7467    0.2219    2.0000
    10    2.0742   -0.7527   -2.8174    2.0000
    11    4.2776    3.3461    0.2362    1.3000
    12    1.2346    3.6806   -1.1575    1.3000
    13    1.5256    3.2758    2.1690    1.3000
    14    4.5079   -0.9027    3.2218    1.3000
    15    4.3418   -3.4006    0.9751    1.3000
    16    8.5062   -1.2591    0.8046    1.3000
    17    6.8087   -0.8281   -2.0670    1.3000
    18    6.9748    1.6696    0.1797    1.3000
    19   -0.2562   -3.1583    1.2414    1.3000
    20   -0.3184   -0.4428    3.2256    1.3000
    21   -2.3780   -0.5335   -2.1545    1.3000
    22   -4.7302   -3.4419    0.7695    1.3000
    23   -5.2398   -0.8415    2.8412    1.3000
    24   -8.9333   -1.5050    0.0348    1.3000
    25   -7.4608    1.4545   -0.5869    1.3000
    26   -6.9510   -1.1457   -2.6588    1.3000
    27   -1.7323    3.7109   -1.2620    1.3000
    28   -4.7668    3.3051    0.1311    1.3000
    29   -2.0114    3.2611    2.0598    1.3000
    30    3.7857   -0.0510   -3.7237    1.3000
    31    1.9589   -2.7953   -3.0559    1.3000
    32    0.4275    0.1336   -3.6806    1.3000

          ----------------
          PROPERTIES INPUT
          ----------------

     MOMENTS            FIELD           POTENTIAL          DENSITY
 IEMOM =       1   IEFLD =       0   IEPOT =       0   IEDEN =       0
 WHERE =COMASS     WHERE =NUCLEI     WHERE =NUCLEI     WHERE =NUCLEI  
 OUTPUT=BOTH       OUTPUT=BOTH       OUTPUT=BOTH       OUTPUT=BOTH    
 IEMINT=       0   IEFINT=       0                     IEDINT=       0
                                                       MORB  =       0
          EXTRAPOLATION IN EFFECT
          SOSCF IN EFFECT
 ORBITAL PRINTING OPTION: NPREO=     1   322     2     1

     -------------------------------
     INTEGRAL TRANSFORMATION OPTIONS
     -------------------------------
     NWORD  =            0
     CUTOFF = 1.0E-09     MPTRAN =       0
     DIRTRF =       T     AOINTS =DUP     

          ----------------------
          INTEGRAL INPUT OPTIONS
          ----------------------
 NOPK  =       1 NORDER=       0 SCHWRZ=       T


 -----------------------------------------------
  STATISTICS ON AUTOMATIC COORDINATE GENERATION 
 -----------------------------------------------
  NUMBER OF USER SPECIFIED BONDS                             0
  NUMBER OF BONDS                                           31
  NUMBER OF ANGLES                                          60
  NUMBER OF TORSIONS                                        81
  NUMBER OF EXTRA COORD.                                     0
  NUMBER OF EXTRA COORD. FOR CONSTRAINTS                     0
  NUMBER OF CONSTRAINED COORD.                               0

  TOTAL NUMBER OF PRIMITIVES                               172
 -----------------------------------------------

   --- ENCODED Z MATRIX ---
 COORD  TYPE   I   J   K   L   M   N
    1      1    1   2
    2      1    1  11
    3      1    1  12
    4      1    1  13
    5      1    2   3
    6      1    2   5
    7      1    2  10
    8      1    3   4
    9      1    3  15
   10      1    3  14
   11      1    4  16
   12      1    4  17
   13      1    4  18
   14      1    5   6
   15      1    5  20
   16      1    5  19
   17      1    6   7
   18      1    6  21
   19      1    6   9
   20      1    7   8
   21      1    7  23
   22      1    7  22
   23      1    8  26
   24      1    8  25
   25      1    8  24
   26      1    9  29
   27      1    9  28
   28      1    9  27
   29      1   10  32
   30      1   10  31
   31      1   10  30
   32      2    1   2   5
   33      2    1   2  10
   34      2    1   2   3
   35      2    2  10  32
   36      2    2   1  13
   37      2    2   1  12
   38      2    2   5  20
   39      2    2   3  14
   40      2    2  10  31
   41      2    2   5  19
   42      2    2   1  11
   43      2    2   5   6
   44      2    2   3  15
   45      2    2   3   4
   46      2    2  10  30
   47      2    3   2  10
   48      2    3   4  18
   49      2    3   4  16
   50      2    3   2   5
   51      2    3   4  17
   52      2    4   3  15
   53      2    4   3  14
   54      2    5   2  10
   55      2    5   6  21
   56      2    5   6   7
   57      2    5   6   9
   58      2    6   5  20
   59      2    6   9  27
   60      2    6   9  28
   61      2    6   9  29
   62      2    6   7  22
   63      2    6   7  23
   64      2    6   7   8
   65      2    6   5  19
   66      2    7   8  24
   67      2    7   8  25
   68      2    7   8  26
   69      2    7   6   9
   70      2    7   6  21
   71      2    8   7  22
   72      2    8   7  23
   73      2    9   6  21
   74      2   11   1  12
   75      2   11   1  13
   76      2   12   1  13
   77      2   14   3  15
   78      2   16   4  18
   79      2   16   4  17
   80      2   17   4  18
   81      2   19   5  20
   82      2   22   7  23
   83      2   24   8  25
   84      2   24   8  26
   85      2   25   8  26
   86      2   27   9  28
   87      2   27   9  29
   88      2   28   9  29
   89      2   30  10  31
   90      2   30  10  32
   91      2   31  10  32
   92      3    1   2   5  19
   93      3    1   2  10  30
   94      3    1   2  10  31
   95      3    1   2   5  20
   96      3    1   2  10  32
   97      3    1   2   3  14
   98      3    1   2   3  15
   99      3    1   2   3   4
  100      3    1   2   5   6
  101      3    2   3   4  18
  102      3    2   3   4  17
  103      3    2   3   4  16
  104      3    2   5   6   9
  105      3    2   5   6  21
  106      3    2   5   6   7
  107      3    3   2   1  13
  108      3    3   2  10  30
  109      3    3   2   5  20
  110      3    3   2   1  12
  111      3    3   2   1  11
  112      3    3   2   5   6
  113      3    3   2  10  32
  114      3    3   2   5  19
  115      3    3   2  10  31
  116      3    4   3   2  10
  117      3    4   3   2   5
  118      3    5   2  10  30
  119      3    5   2   1  13
  120      3    5   6   9  27
  121      3    5   6   9  28
  122      3    5   6   9  29
  123      3    5   6   7  22
  124      3    5   6   7  23
  125      3    5   6   7   8
  126      3    5   2   3  15
  127      3    5   2  10  32
  128      3    5   2  10  31
  129      3    5   2   1  11
  130      3    5   2   1  12
  131      3    5   2   3  14
  132      3    6   5   2  10
  133      3    6   7   8  24
  134      3    6   7   8  25
  135      3    6   7   8  26
  136      3    7   6   9  29
  137      3    7   6   9  28
  138      3    7   6   9  27
  139      3    7   6   5  19
  140      3    7   6   5  20
  141      3    8   7   6   9
  142      3    8   7   6  21
  143      3    9   6   7  23
  144      3    9   6   7  22
  145      3    9   6   5  19
  146      3    9   6   5  20
  147      3   10   2   5  20
  148      3   10   2   1  11
  149      3   10   2   3  15
  150      3   10   2   5  19
  151      3   10   2   1  13
  152      3   10   2   1  12
  153      3   10   2   3  14
  154      3   14   3   4  17
  155      3   14   3   4  16
  156      3   14   3   4  18
  157      3   15   3   4  17
  158      3   15   3   4  16
  159      3   15   3   4  18
  160      3   19   5   6  21
  161      3   20   5   6  21
  162      3   21   6   7  23
  163      3   21   6   7  22
  164      3   21   6   9  29
  165      3   21   6   9  28
  166      3   21   6   9  27
  167      3   22   7   8  26
  168      3   22   7   8  25
  169      3   22   7   8  24
  170      3   23   7   8  26
  171      3   23   7   8  25
  172      3   23   7   8  24

          INDEP./SYM. INTERNAL COORDINATES
          --------------------------------
 CRD  1=   0.1801 ( 38)  0.1758 ( 41) -0.6127 ( 43) -0.2141 ( 45)  0.1764 ( 50)
           0.2440 ( 56) -0.1554 ( 57)  0.1586 ( 58) -0.2412 ( 64)  0.2007 ( 65)
          -0.1024 ( 81) -0.1056 (120)
 CRD  2=   0.1671 ( 32)  0.1076 ( 38) -0.1770 ( 54) -0.1032 ( 55) -0.1107 ( 56)
           0.2463 ( 57)  0.1703 ( 58) -0.1084 ( 64) -0.1241 ( 65)  0.1050 ( 72)
           0.2563 (100) -0.1938 (104) -0.1366 (105) -0.2758 (106)  0.3035 (112)
          -0.2224 (117)  0.1700 (123)  0.1799 (124)  0.2676 (125) -0.1461 (126)
          -0.1450 (131)  0.2543 (132)
 CRD  3=  -0.1208 (  5) -0.1262 ( 32)  0.1297 ( 33)  0.1520 ( 39)  0.1173 ( 41)
           0.1206 ( 44) -0.4489 ( 45) -0.1272 ( 47)  0.1715 ( 50)  0.1331 ( 52)
           0.1205 ( 53) -0.2266 ( 56)  0.1119 ( 57) -0.1184 ( 63)  0.3411 ( 64)
           0.1334 ( 69) -0.1035 ( 71) -0.1248 ( 73)  0.1420 (100)  0.1747 (104)
           0.1076 (105) -0.1014 (137)  0.1010 (145)  0.1054 (146)
 CRD  4=   0.2989 (  6)  0.2964 ( 14) -0.1194 ( 34) -0.1373 ( 41)  0.3058 ( 43)
           0.1038 ( 44) -0.2854 ( 45) -0.1063 ( 47)  0.1472 ( 50)  0.1997 ( 56)
           0.1206 ( 57) -0.1184 ( 58) -0.1836 ( 64) -0.3160 ( 69) -0.1615 (104)
           0.1075 (108) -0.1072 (110)  0.1115 (138) -0.1453 (145)
 CRD  5=   0.1159 ( 17)  0.2022 ( 32) -0.1376 ( 34)  0.1517 ( 38) -0.1671 ( 41)
          -0.1837 ( 45) -0.1593 ( 54) -0.2697 ( 57) -0.1362 ( 58) -0.1341 ( 62)
           0.2927 ( 64)  0.1060 ( 65)  0.2176 ( 69) -0.1331 ( 70) -0.1469 (104)
          -0.1685 (105) -0.2605 (106) -0.1331 (112) -0.1123 (117) -0.1121 (124)
          -0.1071 (126) -0.1319 (131) -0.1214 (132) -0.1433 (139) -0.1355 (140)
           0.1273 (141)  0.1082 (144)
 CRD  6=  -0.2814 (  5) -0.2188 (  6) -0.2219 (  8) -0.2958 ( 14) -0.2386 ( 17)
          -0.1939 ( 20) -0.1062 ( 33)  0.1055 ( 43) -0.3579 ( 45) -0.1669 ( 50)
           0.1324 ( 52)  0.1269 ( 53)  0.1243 ( 54) -0.1334 ( 56) -0.3187 ( 64)
           0.1317 ( 71) -0.1041 (130)
 CRD  7=   0.1038 ( 19) -0.2206 ( 32)  0.3136 ( 34)  0.1195 ( 35)  0.1508 ( 42)
          -0.1258 ( 46) -0.3301 ( 47)  0.1066 ( 48) -0.1122 ( 52)  0.1050 ( 53)
           0.2152 ( 54) -0.1061 ( 92)  0.1306 ( 93) -0.1055 ( 95)  0.1181 ( 96)
          -0.2127 ( 99) -0.1261 (100)  0.1197 (103) -0.1020 (104) -0.1334 (106)
          -0.1400 (107)  0.1513 (109)  0.1307 (112)  0.1507 (114) -0.1318 (115)
          -0.2115 (116) -0.1423 (117) -0.1340 (132) -0.1134 (147)  0.1171 (148)
          -0.1141 (150)  0.1408 (152)
 CRD  8=   0.1050 (  1) -0.1070 (  5)  0.2278 (  6)  0.2345 ( 17) -0.1782 ( 19)
           0.1086 ( 20)  0.1305 ( 32) -0.2223 ( 33) -0.1138 ( 38)  0.1138 ( 40)
          -0.1295 ( 45) -0.1710 ( 50)  0.1501 ( 54)  0.2314 ( 56) -0.2130 ( 57)
           0.1222 ( 58) -0.1097 ( 59) -0.1187 ( 65)  0.1336 (104)  0.1509 (112)
          -0.1415 (116) -0.1305 (120) -0.1068 (121)  0.1157 (127)  0.1924 (132)
           0.1474 (141)  0.1088 (143) -0.1049 (149)  0.1165 (150) -0.1117 (153)
 CRD  9=   0.1611 (  1) -0.1112 (  6) -0.2361 (  7) -0.3012 ( 19) -0.1012 ( 35)
           0.1016 ( 48) -0.1481 ( 51)  0.1131 ( 53) -0.1756 ( 60)  0.1569 ( 64)
          -0.1336 ( 67)  0.2310 ( 68) -0.1260 ( 69)  0.1094 ( 71) -0.1801 ( 72)
          -0.1126 ( 99)  0.1014 (106) -0.1369 (116) -0.2299 (117) -0.1194 (124)
          -0.2715 (125) -0.1183 (126) -0.1194 (131)  0.1133 (139) -0.2530 (141)
          -0.1725 (142) -0.1009 (143)
 CRD 10=   0.2295 (  1)  0.2087 ( 33) -0.1000 ( 34)  0.2034 ( 37) -0.1205 ( 40)
           0.1721 ( 43)  0.1072 ( 48)  0.1488 ( 55) -0.1805 ( 57) -0.1752 ( 59)
           0.1235 ( 60)  0.1724 ( 63) -0.2914 ( 64) -0.1163 ( 65) -0.1480 ( 67)
           0.2756 ( 69) -0.1096 ( 70)  0.1275 ( 71)  0.1077 ( 92)  0.1201 ( 95)
          -0.1367 ( 99)  0.1308 (100)  0.1705 (104) -0.1034 (117) -0.1168 (123)
          -0.1212 (125)  0.1084 (145)  0.1457 (146)
 CRD 11=   0.2280 (  1) -0.2211 (  5) -0.1184 (  6)  0.2131 (  7) -0.1001 (  8)
          -0.1660 ( 14) -0.1110 ( 17) -0.1828 ( 19)  0.2037 ( 33)  0.1522 ( 35)
           0.2200 ( 37) -0.1080 ( 40)  0.1266 ( 46)  0.1080 ( 56)  0.1087 ( 59)
          -0.1610 ( 61) -0.1748 ( 63)  0.1538 ( 64)  0.1326 ( 67) -0.1949 ( 69)
          -0.1218 ( 71)  0.1314 ( 73)  0.1126 ( 92)  0.1059 ( 95) -0.1048 ( 98)
          -0.1003 ( 99)  0.1220 (100)  0.1121 (135)  0.1102 (139)  0.1467 (141)
           0.1189 (144) -0.1031 (146) -0.1011 (147)  0.1023 (153)
 CRD 12=  -0.2224 (  1)  0.1687 (  7) -0.1295 ( 34) -0.2023 ( 36) -0.2072 ( 39)
           0.2166 ( 40)  0.2129 ( 44)  0.1333 ( 47)  0.2243 ( 48) -0.2198 ( 51)
          -0.2121 ( 52)  0.2107 ( 53) -0.1395 ( 97) -0.1379 ( 98) -0.2690 ( 99)
          -0.1800 (101) -0.1794 (102) -0.1239 (109) -0.1444 (112) -0.1275 (114)
          -0.2785 (116) -0.1540 (117) -0.1474 (149) -0.1490 (153)
 CRD 13=  -0.2921 (  1) -0.1491 (  5) -0.4862 (  7)  0.2189 (  8) -0.1293 ( 14)
          -0.1639 ( 17) -0.1270 ( 19) -0.1080 ( 20) -0.1336 ( 40) -0.1635 ( 42)
          -0.1873 ( 46)  0.1165 ( 48)  0.1033 ( 50)  0.1032 ( 51) -0.2108 ( 61)
           0.1047 ( 72)  0.1501 ( 89)  0.1319 ( 90)  0.1207 ( 91)  0.1426 (141)
 CRD 14=  -0.2935 (  1) -0.4951 (  5)  0.1620 ( 17)  0.1532 ( 20)  0.1012 ( 35)
          -0.1242 ( 36) -0.1585 ( 42) -0.1184 ( 44)  0.1512 ( 45) -0.2278 ( 49)
           0.2028 ( 61)  0.1093 ( 68) -0.1022 ( 72)  0.1037 ( 75) -0.1002 (121)
          -0.1235 (141)  0.1063 (151)
 CRD 15=   0.3867 (  6)  0.2511 (  7)  0.2368 (  8) -0.2573 ( 14) -0.1381 ( 17)
          -0.1286 ( 19) -0.1796 ( 20)  0.2179 ( 35)  0.1563 ( 36)  0.1861 ( 38)
           0.1319 ( 40)  0.1145 ( 41) -0.1778 ( 42) -0.1728 ( 43) -0.1373 ( 46)
          -0.1309 ( 66) -0.1222 ( 91)  0.1011 (151)
 CRD 16=  -0.2890 (  1)  0.1116 (  5)  0.1563 (  7) -0.1290 ( 16) -0.1977 ( 17)
          -0.4583 ( 19)  0.1456 ( 20) -0.1639 ( 36) -0.1071 ( 37)  0.1006 ( 39)
           0.1090 ( 43)  0.1188 ( 46) -0.1896 ( 59) -0.1002 ( 60) -0.1107 ( 61)
          -0.1971 ( 62)  0.1154 ( 63)  0.1822 ( 67)  0.1089 ( 76)  0.1439 ( 86)
           0.1466 ( 87)  0.1100 ( 88) -0.1053 (106) -0.1716 (133) -0.1558 (134)
          -0.1494 (135)
 CRD 17=  -0.2644 (  1)  0.1882 (  7)  0.1934 ( 17) -0.2079 ( 20) -0.1480 ( 37)
           0.1753 ( 39) -0.1744 ( 44)  0.2562 ( 46)  0.2064 ( 48) -0.2163 ( 51)
           0.1846 ( 59) -0.1543 ( 61)  0.1201 ( 62) -0.3235 ( 67)  0.1397 ( 68)
           0.1028 ( 76)  0.1268 ( 83) -0.1058 ( 90)  0.1656 (101)  0.1699 (102)
           0.2018 (103)  0.1295 (133)
 CRD 18=  -0.1768 (  5)  0.2672 (  6) -0.1725 (  8) -0.3653 ( 20) -0.2668 ( 35)
          -0.1837 ( 36) -0.1313 ( 37)  0.3392 ( 42)  0.2099 ( 46) -0.1992 ( 49)
           0.1176 ( 51) -0.1113 ( 59)  0.1047 ( 63) -0.2476 ( 66) -0.1384 ( 68)
          -0.1174 ( 72)  0.1158 ( 76)  0.1173 ( 78)  0.1691 ( 84)  0.1185 ( 91)
 CRD 19=  -0.1215 (  5)  0.3875 (  8) -0.2643 ( 14)  0.2125 ( 17)  0.1336 ( 20)
          -0.1743 ( 35) -0.1583 ( 36) -0.1213 ( 39)  0.2350 ( 42)  0.1121 ( 46)
           0.2563 ( 49)  0.1676 ( 51)  0.1005 ( 52)  0.1361 ( 53)  0.1573 ( 59)
          -0.2908 ( 60)  0.1235 ( 61)  0.2172 ( 66) -0.1834 ( 79) -0.1103 ( 87)
 CRD 20=  -0.1909 (  5)  0.1144 (  6)  0.2200 ( 20) -0.1039 ( 35)  0.2714 ( 36)
          -0.3287 ( 37)  0.2418 ( 46)  0.3182 ( 48) -0.1250 ( 49) -0.1515 ( 51)
          -0.1979 ( 59)  0.1978 ( 61) -0.1053 ( 63)  0.1411 ( 66)  0.1876 ( 67)
          -0.1225 ( 68)  0.1368 ( 72) -0.1365 ( 75)  0.1004 ( 79) -0.1322 ( 83)
 CRD 21=  -0.1294 (  5)  0.1310 (  6) -0.1013 (  8) -0.1701 ( 17)  0.2552 ( 20)
          -0.2154 ( 35)  0.3305 ( 40)  0.1505 ( 42) -0.2531 ( 49)  0.2003 ( 51)
           0.1609 ( 59)  0.1507 ( 60) -0.2816 ( 61)  0.1572 ( 66) -0.1693 ( 67)
           0.2528 ( 68)  0.1276 ( 71)  0.1178 ( 78) -0.1673 ( 84) -0.1124 ( 86)
          -0.1098 ( 89)
 CRD 22=  -0.1577 (  5)  0.3205 (  8)  0.1733 ( 14) -0.2328 ( 17)  0.1138 ( 19)
           0.1002 ( 40)  0.2242 ( 49)  0.1163 ( 52)  0.1012 ( 53) -0.2624 ( 59)
           0.3303 ( 60) -0.3063 ( 66)  0.2747 ( 68) -0.1144 ( 78) -0.1257 ( 79)
           0.1314 ( 83) -0.1562 ( 88)
 CRD 23=  -0.1022 (  1)  0.1434 (  5)  0.2383 (  6) -0.1001 (  7) -0.1447 (  8)
          -0.2059 ( 14) -0.1517 ( 17)  0.1840 ( 20) -0.1010 ( 30) -0.2956 ( 36)
           0.1541 ( 37) -0.3093 ( 40)  0.1267 ( 46) -0.1260 ( 48) -0.2579 ( 59)
           0.2237 ( 61) -0.1547 ( 63) -0.1208 ( 67)  0.2554 ( 68)  0.1109 ( 72)
           0.1127 ( 75) -0.1287 ( 84) -0.1353 ( 88)  0.1146 (133)
 CRD 24=  -0.1328 (  3)  0.1231 ( 29) -0.1045 ( 30)  0.4242 ( 35)  0.1564 ( 36)
          -0.4319 ( 37) -0.1403 ( 39) -0.3081 ( 40)  0.2143 ( 42)  0.1175 ( 44)
          -0.1558 ( 48)  0.1412 ( 51)  0.1325 ( 60) -0.1919 ( 61) -0.1095 ( 67)
          -0.1494 ( 75)  0.1143 ( 76)  0.1406 ( 89) -0.1596 ( 90) -0.1142 (101)
          -0.1093 (102) -0.1249 (103)
 CRD 25=   0.1378 (  6)  0.1389 ( 14) -0.1091 ( 26)  0.1288 ( 31) -0.1606 ( 35)
           0.2150 ( 37) -0.2236 ( 40) -0.2378 ( 42) -0.1112 ( 43)  0.3601 ( 46)
           0.1513 ( 49)  0.2461 ( 60) -0.3240 ( 61) -0.1377 ( 62)  0.1557 ( 66)
          -0.1502 ( 68)  0.1121 ( 71) -0.1407 ( 86)  0.1000 ( 87)  0.1662 ( 91)
 CRD 26=  -0.1219 (  2)  0.1437 (  4) -0.1093 ( 14) -0.1027 ( 16) -0.1045 ( 32)
          -0.1778 ( 35)  0.3784 ( 36) -0.3402 ( 42)  0.1481 ( 44)  0.2968 ( 46)
          -0.1262 ( 48) -0.1043 ( 49)  0.1989 ( 51) -0.1205 ( 52) -0.1592 ( 60)
           0.1311 ( 61) -0.1497 ( 66)  0.2103 ( 68)  0.1830 ( 74) -0.1318 ( 76)
           0.1030 ( 78)  0.1043 ( 91)
 CRD 27=  -0.1602 (  6) -0.1054 ( 16) -0.1296 ( 19) -0.1140 ( 20)  0.1261 ( 25)
          -0.1058 ( 28)  0.1812 ( 40) -0.1688 ( 41) -0.1034 ( 42)  0.1222 ( 51)
          -0.3812 ( 59)  0.1980 ( 60) -0.1253 ( 63)  0.1272 ( 64)  0.3707 ( 66)
          -0.2528 ( 67) -0.2345 ( 68)  0.1012 ( 70)  0.2107 ( 85)  0.1437 ( 87)
          -0.1408 (105) -0.1009 (121)
 CRD 28=  -0.1968 (  5) -0.1996 (  8) -0.1684 (  9) -0.1564 ( 10)  0.1636 ( 11)
           0.1085 ( 36) -0.1340 ( 37) -0.1233 ( 39)  0.1368 ( 40) -0.1295 ( 44)
           0.2361 ( 45) -0.3517 ( 48)  0.4504 ( 49) -0.3134 ( 51)  0.1410 ( 77)
           0.2955 ( 80)
 CRD 29=   0.1104 (  7)  0.1382 ( 10)  0.1001 ( 12)  0.2939 ( 14)  0.1746 ( 15)
          -0.1376 ( 17) -0.1521 ( 21) -0.1942 ( 48)  0.2527 ( 51)  0.2103 ( 55)
          -0.1876 ( 60)  0.1346 ( 62) -0.1821 ( 63) -0.1713 ( 68) -0.1279 ( 71)
           0.1248 ( 72)  0.1009 ( 78) -0.1132 ( 79) -0.1067 (116) -0.1036 (117)
           0.1367 (120)  0.1150 (121)  0.1169 (122) -0.1550 (123) -0.1411 (124)
           0.1036 (133)  0.1214 (134)  0.1121 (135)
 CRD 30=  -0.1601 ( 14)  0.2757 ( 17)  0.1533 ( 20)  0.2349 ( 22)  0.1250 ( 24)
           0.1082 ( 38) -0.1804 ( 48)  0.1560 ( 51) -0.1021 ( 58)  0.1714 ( 60)
          -0.1027 ( 61)  0.1471 ( 62) -0.1624 ( 64) -0.2260 ( 66)  0.3698 ( 67)
           0.1536 ( 70) -0.1209 ( 82) -0.1839 ( 85) -0.1085 (105) -0.1019 (136)
          -0.1219 (137) -0.1183 (138)
 CRD 31=  -0.1205 (  9) -0.1716 ( 14) -0.1324 ( 15) -0.1938 ( 17)  0.1223 ( 18)
           0.2552 ( 19) -0.1969 ( 21) -0.1170 ( 23) -0.1522 ( 38)  0.1275 ( 41)
          -0.1073 ( 48)  0.1332 ( 56)  0.1111 ( 60)  0.1582 ( 61) -0.1952 ( 62)
           0.1028 ( 64) -0.1553 ( 65) -0.1969 ( 68)  0.1629 ( 71) -0.1899 ( 72)
           0.2124 ( 73) -0.1115 ( 87) -0.1522 ( 88)  0.1578 (105) -0.1312 (125)
          -0.2067 (142) -0.1044 (145) -0.1007 (146)
 CRD 32=  -0.1909 (  9)  0.1982 ( 10) -0.2140 ( 15)  0.2074 ( 16)  0.2336 ( 21)
          -0.2362 ( 22) -0.1000 ( 24)  0.1168 ( 39) -0.1224 ( 44) -0.1356 ( 48)
           0.1412 ( 51)  0.1199 ( 63) -0.1725 ( 67)  0.1679 ( 68) -0.1182 (100)
           0.1174 (101)  0.1177 (102)  0.1276 (103)  0.1036 (104)  0.1075 (106)
          -0.1314 (112) -0.1398 (117)  0.1113 (123)  0.1246 (124)  0.1736 (125)
          -0.1073 (126) -0.1013 (131) -0.1132 (132) -0.1322 (133) -0.1193 (134)
          -0.1183 (135)  0.1076 (141)  0.1309 (142)
 CRD 33=   0.1906 ( 18)  0.2737 ( 38) -0.2309 ( 41) -0.2740 ( 58) -0.1123 ( 62)
           0.1052 ( 63)  0.2404 ( 65)  0.1136 ( 71) -0.1301 ( 72)  0.1823 ( 92)
           0.1984 ( 95)  0.2109 (109)  0.1948 (114)  0.1047 (121)  0.1064 (122)
           0.1796 (139)  0.2103 (140)  0.1231 (143)  0.1126 (144)  0.1204 (145)
           0.1511 (146)  0.2004 (147)  0.1844 (150)  0.1572 (160)  0.1879 (161)
 CRD 34=  -0.1763 ( 10) -0.3786 ( 18) -0.1309 ( 21)  0.1266 ( 29) -0.1064 ( 31)
          -0.1220 ( 41)  0.1293 ( 65)  0.1019 ( 92) -0.2430 (107) -0.2568 (110)
          -0.2530 (111) -0.2422 (119) -0.2521 (129) -0.2559 (130)  0.1067 (145)
          -0.2416 (148) -0.2317 (151) -0.2454 (152)
 CRD 35=  -0.1415 (  2) -0.2184 (  9)  0.2213 ( 16) -0.2455 ( 18)  0.2715 ( 93)
           0.2659 ( 94)  0.2725 ( 96)  0.2870 (108)  0.2879 (113)  0.2813 (115)
           0.2855 (118)  0.2865 (127)  0.2799 (128)
 CRD 36=   0.1401 ( 10) -0.1128 ( 14) -0.2604 ( 15) -0.6111 ( 18) -0.2103 ( 21)
          -0.1185 ( 26) -0.1137 ( 58)  0.1592 (107)  0.1511 (110)  0.1534 (111)
           0.1610 (119)  0.1552 (129)  0.1529 (130)  0.1420 (148)  0.1478 (151)
           0.1397 (152)
 CRD 37=   0.3458 (  2)  0.3698 (  3)  0.2910 (  4) -0.1000 (  7) -0.3604 ( 29)
          -0.2998 ( 30) -0.3746 ( 31)  0.1246 ( 35) -0.1473 ( 36) -0.1132 ( 37)
           0.1517 ( 40) -0.1270 ( 42)  0.1221 ( 46)  0.1120 ( 74)  0.1435 ( 75)
           0.1320 ( 76) -0.1398 ( 89) -0.1150 ( 90) -0.1435 ( 91)
 CRD 38=  -0.1166 (  1) -0.3572 (  2) -0.3407 (  3) -0.3734 (  4) -0.1139 (  7)
          -0.3393 ( 29) -0.3674 ( 30) -0.3403 ( 31)  0.1362 ( 35)  0.1172 ( 36)
           0.1441 ( 37)  0.1125 ( 40)  0.1319 ( 42)  0.1357 ( 46) -0.1414 ( 74)
          -0.1212 ( 75) -0.1306 ( 76) -0.1221 ( 89) -0.1397 ( 90) -0.1225 ( 91)
 CRD 39=   0.1648 ( 19) -0.1531 ( 21)  0.1212 ( 22)  0.4943 ( 26)  0.4630 ( 27)
           0.4609 ( 28) -0.1726 ( 59) -0.1635 ( 60) -0.1689 ( 61)  0.1713 ( 86)
           0.1696 ( 87)  0.1641 ( 88)
 CRD 40=   0.1213 ( 11)  0.1251 ( 12)  0.1278 ( 13) -0.1743 ( 20) -0.4891 ( 23)
          -0.4952 ( 24) -0.4706 ( 25)  0.1811 ( 66)  0.1636 ( 67)  0.1657 ( 68)
          -0.1733 ( 83) -0.1754 ( 84) -0.1617 ( 85)
 CRD 41=   0.1752 (  8)  0.4719 ( 11)  0.4931 ( 12)  0.4932 ( 13)  0.1281 ( 23)
           0.1270 ( 24)  0.1224 ( 25) -0.1646 ( 48) -0.1814 ( 49) -0.1647 ( 51)
           0.1744 ( 78)  0.1745 ( 79)  0.1618 ( 80)
 CRD 42=   0.1829 (  4)  0.3198 (  9) -0.3246 ( 10) -0.1698 ( 30)  0.1462 ( 39)
          -0.1460 ( 44)  0.2829 ( 52) -0.2837 ( 53) -0.2458 ( 97) -0.2452 ( 98)
          -0.1031 (101) -0.1031 (102) -0.1193 (103) -0.2324 (126) -0.2330 (131)
          -0.2451 (149) -0.2457 (153) -0.1086 (154) -0.1248 (155) -0.1086 (156)
          -0.1086 (157) -0.1247 (158) -0.1085 (159)
 CRD 43=   0.2735 ( 15)  0.1447 ( 17) -0.1081 ( 19) -0.2631 ( 21)  0.2041 ( 22)
          -0.1054 ( 26) -0.1340 ( 27) -0.1493 ( 28) -0.1102 ( 65) -0.1877 ( 72)
          -0.1578 ( 92) -0.1233 ( 95) -0.1077 (109) -0.1422 (114)  0.1965 (120)
           0.1937 (121)  0.1816 (122)  0.1187 (123)  0.1803 (124)  0.1574 (136)
           0.1694 (137)  0.1722 (138)  0.1307 (143) -0.1151 (147) -0.1496 (150)
           0.1847 (162)  0.1231 (163)  0.1662 (164)  0.1782 (165)  0.1810 (166)
 CRD 44=  -0.2082 ( 14) -0.3144 ( 22)  0.1140 ( 25)  0.1518 ( 27)  0.1069 ( 28)
           0.1276 ( 60)  0.1108 ( 62) -0.1090 ( 69) -0.2150 ( 71)  0.1705 (120)
           0.1566 (121)  0.1299 (122) -0.1814 (123) -0.1352 (124) -0.1084 (135)
           0.1610 (136)  0.1876 (137)  0.2016 (138) -0.1771 (143) -0.2233 (144)
          -0.1782 (162) -0.2244 (163)  0.1381 (164)  0.1648 (165)  0.1788 (166)
          -0.1501 (167) -0.1406 (168) -0.1348 (169)
 CRD 45=   0.2175 (  9)  0.2153 ( 10) -0.6081 ( 11)  0.2768 ( 12)  0.2754 ( 13)
           0.1103 ( 16) -0.1530 ( 78) -0.1524 ( 79)  0.3205 ( 80)  0.1636 (101)
          -0.1610 (102) -0.1380 (154)  0.1866 (156) -0.1835 (157)  0.1411 (159)
 CRD 46=  -0.1793 ( 21) -0.1792 ( 22) -0.3000 ( 23) -0.2742 ( 24)  0.6075 ( 25)
           0.1651 ( 83)  0.1519 ( 84) -0.3261 ( 85)  0.1785 (134) -0.1543 (135)
          -0.1671 (167)  0.1657 (168) -0.1380 (170)  0.1947 (171)
 CRD 47=   0.1544 (  2) -0.3015 (  3)  0.1483 (  4)  0.1812 ( 16) -0.1190 ( 23)
           0.2380 ( 26)  0.1202 ( 27) -0.4324 ( 28)  0.3075 ( 29) -0.2564 ( 30)
           0.1593 ( 75) -0.1331 ( 86)  0.1986 ( 88) -0.1578 ( 89)  0.1337 ( 90)
           0.1127 ( 93)  0.1017 (108)  0.1039 (118)  0.1154 (122)  0.1134 (136)
           0.1149 (164)
 CRD 48=   0.3608 ( 26) -0.6263 ( 27)  0.2597 ( 28) -0.1884 ( 86)  0.3254 ( 87)
          -0.1354 ( 88)  0.1719 (120) -0.1739 (122) -0.1731 (136)  0.1727 (138)
          -0.1858 (164)  0.1600 (166)
 CRD 49=   0.5472 ( 12) -0.5488 ( 13) -0.2972 ( 78)  0.2979 ( 79) -0.2255 (103)
          -0.2204 (155) -0.2207 (158)
 CRD 50=  -0.5273 ( 23)  0.5477 ( 24)  0.2865 ( 83) -0.2967 ( 84) -0.2236 (133)
          -0.2167 (169) -0.2153 (172)
 CRD 51=   0.3695 (  3) -0.4044 (  4)  0.2259 ( 29) -0.4435 ( 30)  0.2269 ( 31)
           0.2203 ( 74) -0.1999 ( 75) -0.1219 ( 89)  0.2415 ( 90) -0.1222 ( 91)
           0.1286 ( 93) -0.1285 ( 96)  0.1263 (108) -0.1461 (111) -0.1308 (113)
           0.1305 (118) -0.1266 (127) -0.1502 (129) -0.1483 (148)
 CRD 52=   0.3240 (  2) -0.2500 (  3) -0.3777 ( 26)  0.3536 ( 28)  0.2707 ( 29)
          -0.2334 ( 31)  0.1373 ( 75) -0.1806 ( 76)  0.2123 ( 86) -0.1981 ( 88)
          -0.1529 ( 89)  0.1296 ( 91)  0.1445 (121)  0.1350 (137)  0.1404 (165)
 CRD 53=   0.2389 (  2)  0.1583 (  3) -0.3991 (  4)  0.2092 ( 26) -0.1937 ( 28)
           0.3278 ( 30) -0.3736 ( 31)  0.2213 ( 74) -0.1343 ( 76) -0.1182 ( 86)
           0.1106 ( 88) -0.1833 ( 90)  0.2100 ( 91)  0.1537 ( 96)  0.1386 (110)
           0.1530 (113)  0.1462 (127) -0.1038 (129)  0.1303 (130)  0.1412 (152)
 CRD 54=   0.4414 (  2) -0.2465 (  3) -0.1946 (  4) -0.3854 ( 29)  0.3779 ( 31)
           0.1074 ( 74)  0.1355 ( 75) -0.2430 ( 76)  0.2121 ( 89) -0.2079 ( 91)
           0.1838 ( 94) -0.1467 (107)  0.1131 (110)  0.1622 (115) -0.1468 (119)
           0.1619 (128)  0.1131 (130) -0.1686 (151)
 CRD 55=   0.4183 (  9)  0.3971 ( 10)  0.1868 ( 11) -0.1415 ( 12) -0.1375 ( 13)
           0.3187 ( 15)  0.4485 ( 16)  0.1116 ( 21)  0.1165 ( 22) -0.1038 ( 29)
           0.1459 ( 77)  0.1387 ( 81)  0.1014 ( 95)  0.1199 (154) -0.1219 (159)
 CRD 56=   0.1842 (  9)  0.2125 ( 10) -0.5049 ( 21) -0.5412 ( 22)  0.1304 ( 23)
           0.1329 ( 24) -0.1624 ( 25) -0.2132 ( 82)  0.1116 (123)  0.1237 (144)
           0.1158 (163) -0.1113 (168)  0.1507 (170)  0.1018 (172)
 CRD 57=  -0.3192 (  9) -0.3528 ( 10)  0.3009 ( 15)  0.5165 ( 16) -0.1809 ( 21)
          -0.1374 ( 22) -0.1550 ( 77)  0.1864 ( 81)  0.1103 ( 95)  0.1148 (109)
          -0.1134 (140) -0.1078 (146)  0.1240 (147) -0.1189 (161)
 CRD 58=  -0.1308 (  9)  0.5397 ( 15) -0.2803 ( 16) -0.1230 ( 17)  0.2226 ( 21)
           0.1083 ( 26) -0.1258 ( 41) -0.1519 ( 92) -0.1530 (114) -0.1304 (121)
           0.2108 (139)  0.1244 (140)  0.2345 (145)  0.1480 (146) -0.1011 (147)
          -0.1579 (150)  0.2295 (160)  0.1430 (161)
 CRD 59=   0.3078 (  9) -0.3068 ( 10)  0.2094 ( 21) -0.2050 ( 22)  0.1398 (101)
           0.1402 (102)  0.1404 (103)  0.2422 (154)  0.2424 (155)  0.2418 (156)
           0.2402 (157)  0.2404 (158)  0.2398 (159)  0.1626 (167)  0.1614 (168)
           0.1635 (169)  0.1591 (170)  0.1579 (171)  0.1601 (172)
 CRD 60=   0.1784 (  9) -0.1802 ( 10) -0.2593 ( 21)  0.2600 ( 22) -0.1040 ( 63)
          -0.1518 (133) -0.1505 (134) -0.1547 (135)  0.1552 (154)  0.1556 (155)
           0.1560 (156)  0.1594 (157)  0.1597 (158)  0.1601 (159) -0.2433 (167)
          -0.2390 (168) -0.2404 (169) -0.2591 (170) -0.2549 (171) -0.2563 (172)
 CRD 61=  -0.1843 (  2)  0.1754 (  6) -0.2278 ( 11) -0.1211 ( 12) -0.1183 ( 13)
           0.1139 ( 14) -0.1880 ( 31) -0.1334 ( 39) -0.1357 ( 44) -0.1066 ( 46)
          -0.1371 ( 48) -0.1808 ( 49) -0.1391 ( 51)  0.1959 ( 52)  0.1906 ( 53)
          -0.1065 ( 58)  0.1027 ( 74) -0.1168 ( 76)  0.1820 ( 78)  0.1841 ( 79)
           0.1427 ( 89)  0.1853 ( 94) -0.1872 ( 98) -0.1198 (126)  0.1229 (131)
          -0.1249 (148) -0.1723 (151)  0.1776 (153)  0.1137 (154) -0.1028 (159)
           0.1006 (161)
 CRD 62=  -0.1720 (  2) -0.2577 (  4)  0.1368 (  9) -0.1334 ( 10) -0.1572 ( 15)
           0.1377 ( 16)  0.1255 ( 29)  0.2699 ( 30)  0.1089 ( 31)  0.1524 ( 35)
          -0.1978 ( 36) -0.1421 ( 37)  0.2004 ( 40) -0.1721 ( 42)  0.1464 ( 46)
           0.2436 ( 75)  0.1715 ( 76) -0.2031 ( 89) -0.2173 ( 91) -0.1026 ( 92)
           0.1024 ( 97) -0.1022 (101)  0.1006 (112)  0.1091 (153) -0.1072 (154)
          -0.1106 (156) -0.1160 (157) -0.1193 (159)
 CRD 63=   0.1089 (  1) -0.1022 (  2) -0.2837 (  3)  0.2312 (  5)  0.1493 (  6)
           0.1111 (  7) -0.2639 ( 29) -0.1639 ( 31)  0.1037 ( 33) -0.1987 ( 35)
          -0.1175 ( 36) -0.2049 ( 37) -0.1066 ( 40) -0.1325 ( 42) -0.1589 ( 46)
          -0.1027 ( 50)  0.1117 ( 58)  0.2238 ( 74)  0.1902 ( 76) -0.1153 ( 77)
          -0.1136 ( 81)  0.2564 ( 90)  0.1451 ( 91)  0.1520 ( 92)  0.1337 (118)
          -0.1319 (129) -0.1608 (147)
 CRD 64=   0.1510 ( 17)  0.2509 ( 20) -0.2232 ( 23) -0.2036 ( 24) -0.3027 ( 25)
          -0.1322 ( 62) -0.1323 ( 63) -0.2724 ( 66) -0.2391 ( 67) -0.2443 ( 68)
           0.1703 ( 71)  0.1651 ( 72)  0.2682 ( 83)  0.2847 ( 84)  0.2031 ( 85)
           0.1182 (123) -0.1369 (124) -0.1144 (143)  0.1407 (144) -0.1694 (162)
           0.1087 (165)
 CRD 65=  -0.1414 ( 18) -0.3867 ( 19)  0.2859 ( 26)  0.2544 ( 27)  0.2256 ( 28)
           0.2622 ( 59)  0.2718 ( 60)  0.2801 ( 61) -0.1018 ( 73) -0.2465 ( 86)
          -0.2722 ( 87) -0.2955 ( 88) -0.1039 (105)  0.1087 (142) -0.1402 (160)
          -0.1306 (161)  0.1459 (162)  0.1413 (163)
 CRD 66=   0.1194 (  1) -0.1760 (  2) -0.1604 (  5)  0.1011 (  7) -0.3659 (  8)
           0.2076 ( 11)  0.2052 ( 12)  0.2028 ( 13)  0.1103 ( 14) -0.1592 ( 31)
          -0.1023 ( 42)  0.2187 ( 48)  0.2245 ( 49)  0.2192 ( 51)  0.1221 ( 74)
           0.1102 ( 75) -0.2205 ( 78) -0.2225 ( 79) -0.2194 ( 80)  0.1305 ( 89)
           0.1022 ( 94)  0.1048 (110)  0.1113 (161)
 CRD 67=   0.2121 (  7) -0.1889 ( 15)  0.4270 ( 18) -0.1467 ( 19)  0.1069 ( 20)
          -0.2030 ( 21)  0.1061 ( 22) -0.1476 ( 26)  0.2447 ( 28)  0.1229 ( 81)
           0.1076 ( 83) -0.2125 ( 86)  0.1025 ( 88) -0.1011 ( 92) -0.1879 (121)
           0.1323 (136)  0.1343 (138) -0.1377 (144)  0.1492 (145) -0.1073 (165)
           0.1388 (167)  0.1562 (168)
 CRD 68=   0.3625 (  1) -0.2011 (  4) -0.2450 (  6)  0.1577 (  7)  0.2255 (  8)
           0.2196 ( 20) -0.1281 ( 24) -0.1776 ( 30) -0.1266 ( 36) -0.1058 ( 37)
          -0.1049 ( 42)  0.1375 ( 75)  0.1683 ( 76)  0.1299 ( 85)  0.1478 ( 91)
           0.1309 (113) -0.1912 (164) -0.1381 (165)  0.1216 (170)
 CRD 69=  -0.2355 (  1)  0.1629 (  4) -0.2601 (  7) -0.1189 ( 14)  0.2766 ( 20)
          -0.1668 ( 24)  0.1216 ( 27)  0.1905 ( 30)  0.1182 ( 63) -0.1152 ( 70)
          -0.1011 ( 71) -0.1595 ( 75) -0.1064 ( 77)  0.1648 ( 85) -0.1462 ( 89)
          -0.1040 ( 91)  0.1143 (118) -0.1282 (129)  0.1033 (159)  0.1658 (161)
          -0.1840 (164) -0.1691 (165)  0.1750 (170)
 CRD 70=  -0.3158 (  1)  0.1226 (  2)  0.1595 (  3) -0.1115 (  6)  0.3928 (  7)
           0.2034 (  9) -0.2031 ( 10) -0.1536 ( 13)  0.1136 ( 21) -0.1572 ( 29)
          -0.1246 ( 31) -0.1157 ( 35) -0.1133 ( 40) -0.1067 ( 46) -0.1902 ( 74)
           0.1094 ( 78)  0.1818 ( 90)  0.1033 ( 98) -0.1597 (154) -0.1365 (156)
          -0.1284 (157) -0.1052 (159) -0.1121 (168)
 CRD 71=  -0.2636 (  5) -0.1064 (  6)  0.2193 (  8)  0.1855 ( 11) -0.1669 ( 12)
          -0.1409 ( 13)  0.1110 ( 14)  0.1982 ( 17) -0.1727 ( 20)  0.1509 ( 23)
          -0.1273 ( 25)  0.1075 ( 38)  0.1578 ( 39)  0.1703 ( 44) -0.1352 ( 62)
          -0.1359 ( 77)  0.2262 ( 80) -0.1634 ( 85)  0.1145 (101) -0.1132 (102)
          -0.2414 (154) -0.1411 (155)  0.1334 (158)  0.2607 (159)  0.2060 (168)
          -0.1441 (170) -0.1037 (172)
 CRD 72=  -0.1871 (  5)  0.1446 (  6)  0.1086 ( 10)  0.1269 ( 11) -0.1549 ( 12)
          -0.2109 ( 17)  0.1141 ( 19)  0.1595 ( 20)  0.1770 ( 21) -0.1766 ( 22)
          -0.2613 ( 23)  0.1103 ( 24) -0.1214 ( 27)  0.1113 ( 44)  0.1480 ( 62)
           0.1258 ( 80) -0.1533 ( 83)  0.1383 ( 84)  0.1088 ( 85)  0.1126 ( 88)
          -0.1266 (105)  0.1120 (124)  0.1776 (133)  0.1012 (143)  0.1907 (159)
          -0.1451 (161)  0.1515 (162)  0.1230 (164) -0.1210 (167) -0.2256 (168)
          -0.1537 (171)
 CRD 73=   0.1692 (  5) -0.1200 (  6)  0.1162 ( 13)  0.1413 ( 17)  0.1348 ( 19)
          -0.2365 ( 22)  0.2211 ( 24) -0.1779 ( 25) -0.1409 ( 26)  0.1128 ( 55)
          -0.1396 ( 63) -0.1003 ( 80)  0.1579 ( 82)  0.1849 ( 84) -0.1270 ( 85)
           0.1046 ( 87)  0.1084 (124)  0.1253 (133) -0.1091 (135)  0.1072 (138)
           0.1076 (142)  0.1367 (154)  0.2340 (162)  0.1396 (163) -0.1199 (164)
          -0.1411 (165) -0.1130 (167)  0.1213 (169) -0.2923 (170) -0.1131 (171)
 CRD 74=  -0.1208 (  6) -0.1826 (  9)  0.1456 ( 10) -0.2027 ( 12)  0.2395 ( 13)
           0.1331 ( 14) -0.1553 ( 15)  0.2182 ( 16) -0.2267 ( 19)  0.1213 ( 26)
           0.1308 ( 38) -0.1185 ( 39)  0.1196 ( 73) -0.1578 ( 78)  0.1899 ( 79)
          -0.2302 (103)  0.1088 (112) -0.1256 (142)  0.1182 (146)  0.1780 (154)
           0.1375 (156)  0.1409 (157) -0.1191 (158)  0.1004 (159)  0.1206 (160)
           0.2214 (161) -0.1683 (162)
 CRD 75=  -0.1396 (  3) -0.2121 (  6)  0.2318 ( 14) -0.1121 ( 17) -0.2905 ( 27)
           0.2194 ( 28)  0.1363 ( 38)  0.1552 ( 41) -0.1577 ( 58) -0.1442 ( 65)
          -0.1017 ( 75) -0.2182 ( 87)  0.1801 ( 88) -0.1920 (120) -0.1203 (121)
           0.1391 (122) -0.1184 (129)  0.1936 (136) -0.1375 (138) -0.1094 (139)
          -0.1321 (145) -0.1841 (160)  0.2419 (164)
 CRD 76=  -0.1390 ( 12)  0.1337 ( 13)  0.1816 ( 19)  0.1930 ( 20)  0.1925 ( 23)
          -0.1299 ( 24) -0.1259 ( 25)  0.1179 ( 26) -0.1370 ( 27)  0.1311 ( 30)
          -0.1155 ( 68)  0.1076 ( 70) -0.1422 ( 72) -0.1106 ( 78)  0.1008 ( 79)
           0.1018 ( 82)  0.1923 ( 83)  0.1313 ( 86)  0.1177 ( 90) -0.1325 (103)
           0.1032 (106)  0.1010 (109)  0.1035 (118) -0.1449 (123) -0.1653 (133)
          -0.1489 (138) -0.1186 (144) -0.1253 (161)  0.1507 (162) -0.1060 (166)
           0.1244 (168) -0.1343 (169)  0.1189 (171) -0.1398 (172)
 CRD 77=  -0.1002 ( 16)  0.1491 ( 19) -0.2452 ( 20) -0.1430 ( 24)  0.2472 ( 25)
          -0.1753 ( 26)  0.1169 ( 27)  0.1130 ( 30) -0.1040 ( 62)  0.1158 ( 67)
           0.1766 ( 71)  0.1086 ( 72) -0.1132 ( 82) -0.1649 ( 84)  0.1400 ( 85)
          -0.1047 ( 86)  0.1237 ( 87)  0.1158 (109)  0.1091 (118)  0.1257 (120)
           0.1131 (123) -0.1312 (124) -0.1299 (134)  0.1433 (135)  0.1636 (138)
           0.1669 (144) -0.1224 (161)  0.2185 (163)  0.1534 (166)  0.1622 (167)
          -0.1110 (168)  0.1262 (170) -0.1471 (171)
 CRD 78=   0.1014 (  2) -0.1248 (  4)  0.1124 (  5) -0.3356 (  8)  0.2857 ( 11)
          -0.1069 ( 30)  0.1398 ( 31) -0.1149 ( 39) -0.1181 ( 44)  0.1057 ( 48)
           0.1009 ( 51)  0.1904 ( 52)  0.1885 ( 53) -0.1442 ( 77) -0.1361 ( 78)
          -0.1458 ( 79)  0.1523 ( 80)  0.1084 ( 91)  0.1404 ( 96)  0.1473 ( 97)
          -0.1719 ( 98)  0.1550 (101) -0.1580 (102) -0.1585 (110)  0.1670 (113)
          -0.1550 (126)  0.1111 (127) -0.1051 (130)  0.1642 (131) -0.1419 (149)
          -0.1331 (152)  0.1773 (153) -0.1317 (154)  0.1814 (156) -0.1872 (157)
           0.1259 (159)
 CRD 79=  -0.2957 (  2)  0.1596 (  3)  0.1362 (  4) -0.2663 ( 29)  0.2586 ( 31)
           0.1193 ( 35)  0.1325 ( 42) -0.1160 ( 46)  0.1055 ( 74)  0.1236 ( 75)
          -0.2291 ( 76) -0.2063 ( 89)  0.2004 ( 91) -0.2812 ( 94) -0.2045 (107)
           0.1572 (110) -0.2313 (115) -0.2073 (119) -0.2279 (128)  0.1544 (130)
          -0.2567 (151)  0.1050 (152)
 CRD 80=   0.2069 (  3) -0.1816 (  4) -0.1310 ( 14)  0.1933 ( 15) -0.1661 ( 26)
           0.2058 ( 28) -0.1096 ( 37) -0.1073 ( 59) -0.1378 ( 74)  0.1620 ( 75)
          -0.2303 ( 81) -0.1297 ( 86)  0.1573 ( 88)  0.2193 ( 92)  0.1934 (111)
           0.1554 (114) -0.1764 (121)  0.1910 (129) -0.1782 (137) -0.1489 (139)
          -0.2080 (145) -0.1010 (147)  0.1851 (148)  0.1506 (150) -0.1273 (160)
          -0.1823 (165)
 CRD 81=   0.1129 (  1) -0.1291 (  4) -0.1214 ( 13) -0.1245 ( 16) -0.1089 ( 19)
          -0.1177 ( 23)  0.1334 ( 24) -0.1381 ( 29)  0.2565 ( 30) -0.1297 ( 40)
           0.1034 ( 84) -0.1213 ( 89)  0.1831 ( 90)  0.1833 ( 93)  0.1326 ( 95)
          -0.1372 ( 96)  0.2051 (108)  0.1082 (111) -0.1154 (113)  0.1518 (118)
           0.1249 (125) -0.1686 (127) -0.1046 (130)  0.1012 (133) -0.1061 (140)
           0.1757 (147) -0.1164 (149) -0.1269 (153)  0.1575 (155)  0.1227 (158)
           0.1343 (169)  0.1542 (172)
 CRD 82=  -0.1056 (  4)  0.1039 ( 10) -0.1133 ( 11)  0.1328 ( 17) -0.1253 ( 21)
          -0.1041 ( 23)  0.1665 ( 25)  0.1342 ( 26) -0.1195 ( 28) -0.1205 ( 64)
          -0.1441 ( 66) -0.1296 ( 77)  0.1803 ( 82)  0.1373 ( 85)  0.1076 ( 86)
          -0.1083 ( 98) -0.1110 (101) -0.1127 (120) -0.1366 (134)  0.1113 (135)
           0.1232 (137) -0.1382 (144) -0.1833 (156)  0.1777 (157)  0.1439 (158)
           0.2645 (167)  0.1626 (169) -0.2606 (171) -0.1146 (172)
 CRD 83=  -0.1647 (  5)  0.1440 (  9)  0.1193 ( 10) -0.1540 ( 11)  0.1030 ( 13)
           0.1293 ( 14) -0.1524 ( 17) -0.1119 ( 25)  0.1456 ( 45)  0.1503 ( 49)
           0.1052 ( 66) -0.2162 ( 77) -0.1336 ( 80)  0.1261 ( 81) -0.1426 ( 82)
           0.1002 ( 95) -0.1104 ( 98) -0.1075 (101)  0.1326 (102)  0.1259 (153)
          -0.1721 (155) -0.2701 (156)  0.2715 (157)  0.1294 (158) -0.1938 (167)
           0.1915 (171)  0.1257 (172)
 CRD 84=  -0.1448 (  9)  0.1469 ( 10)  0.1535 ( 12) -0.1526 ( 13) -0.1611 ( 15)
           0.1279 ( 16)  0.1517 ( 21) -0.1136 ( 22)  0.1519 ( 23) -0.1312 ( 24)
           0.1191 ( 48) -0.1196 ( 51)  0.1235 ( 52) -0.1229 ( 53)  0.1005 ( 67)
          -0.1189 ( 68)  0.1061 ( 71) -0.1191 ( 72)  0.1176 ( 78) -0.1173 ( 79)
           0.1155 ( 83) -0.1017 ( 84)  0.1245 ( 99)  0.1166 (100) -0.1518 (101)
          -0.1507 (102) -0.1294 (105) -0.1110 (106)  0.1106 (112)  0.1233 (116)
           0.1867 (117) -0.1737 (125)  0.1138 (132)  0.1563 (134)  0.1255 (135)
          -0.1117 (141) -0.1231 (142)  0.2176 (155)  0.2193 (158) -0.2234 (169)
          -0.1777 (172)
 CRD 85=  -0.2205 ( 14)  0.2382 ( 17) -0.1326 ( 20) -0.1712 ( 27)  0.1888 ( 55)
           0.1491 ( 57)  0.1671 ( 60) -0.1590 ( 69) -0.1842 ( 70) -0.1317 ( 87)
          -0.1131 (104)  0.1074 (105)  0.1019 (121)  0.2503 (122)  0.2372 (136)
          -0.1012 (141) -0.1714 (143) -0.1930 (146)  0.2023 (160)  0.1942 (163)
          -0.2274 (165) -0.3425 (166)
 CRD 86=  -0.1319 (  5)  0.1741 ( 17) -0.1594 ( 19)  0.1140 ( 20) -0.1610 ( 22)
           0.1076 ( 28) -0.1719 ( 56)  0.1022 ( 61) -0.1505 ( 64)  0.1910 ( 73)
           0.1539 ( 82)  0.1040 ( 93)  0.1349 (105)  0.1078 (108)  0.1362 (120)
           0.1266 (122)  0.1664 (124)  0.1257 (135) -0.1985 (137) -0.1114 (140)
          -0.1962 (142)  0.2374 (143) -0.1631 (146)  0.1674 (160) -0.2117 (163)
           0.1188 (167) -0.1348 (171) -0.1597 (172)
 CRD 87=   0.1466 (  2) -0.1726 (  5)  0.2220 (  6)  0.1161 (  8) -0.1174 ( 14)
          -0.1151 ( 29)  0.1350 ( 31) -0.1386 ( 32)  0.1459 ( 34)  0.1176 ( 35)
          -0.1447 ( 42) -0.1343 ( 46)  0.1363 ( 47) -0.1438 ( 54)  0.1084 ( 76)
           0.1007 ( 91)  0.2212 ( 93) -0.1322 ( 95)  0.2497 ( 96) -0.1861 ( 97)
           0.2129 (107)  0.1039 (111) -0.2364 (115)  0.1112 (116)  0.1843 (119)
          -0.1988 (128) -0.1690 (148)  0.1847 (149)  0.1207 (150) -0.2843 (152)
 CRD 88=   0.1310 (  5) -0.1754 (  7) -0.1489 ( 10) -0.1199 ( 19)  0.1066 ( 21)
          -0.1020 ( 22)  0.1260 ( 33) -0.1023 ( 43) -0.1391 ( 50)  0.1960 ( 95)
          -0.1278 ( 97) -0.1892 ( 99)  0.1351 (101)  0.2104 (111) -0.1226 (112)
          -0.1511 (114) -0.1587 (119)  0.1256 (123)  0.1197 (124)  0.1597 (126)
          -0.1560 (130) -0.1003 (132)  0.1323 (134)  0.1333 (135) -0.1537 (140)
          -0.1219 (141) -0.1527 (142)  0.1044 (148)  0.1447 (149) -0.1287 (150)
          -0.1389 (158) -0.1060 (169) -0.1067 (172)
 CRD 89=  -0.1670 (  1)  0.1072 (  5)  0.1293 (  6) -0.1308 (  9)  0.1211 ( 14)
          -0.1437 ( 18) -0.1192 ( 21)  0.1089 ( 33) -0.1290 ( 43) -0.1263 ( 50)
           0.1184 ( 81)  0.1302 ( 95) -0.1233 ( 97) -0.1240 (102)  0.1148 (106)
          -0.1811 (108)  0.1654 (109) -0.1046 (115)  0.1750 (116)  0.1248 (120)
           0.1265 (122) -0.1431 (123)  0.1736 (127)  0.1120 (128) -0.1512 (131)
          -0.1166 (134) -0.1594 (137)  0.1548 (139)  0.1576 (141) -0.1587 (146)
           0.1126 (149) -0.1697 (150)  0.1198 (155)  0.1094 (169)
 CRD 90=   0.1369 (  1) -0.1354 (  7) -0.1562 ( 15)  0.1240 ( 16) -0.1243 ( 18)
           0.1076 ( 19) -0.1166 ( 32)  0.1147 ( 38) -0.1226 ( 41)  0.1089 ( 54)
           0.1061 ( 55) -0.1052 ( 57)  0.1178 ( 58) -0.1056 ( 65) -0.1308 ( 99)
           0.1953 (100)  0.1227 (101)  0.1229 (102) -0.2036 (104) -0.1979 (105)
          -0.1825 (109) -0.2081 (114) -0.1272 (116) -0.1803 (123) -0.1544 (124)
           0.1887 (126) -0.1024 (127)  0.1867 (131)  0.2011 (132) -0.1035 (134)
           0.1963 (139)  0.1585 (140)  0.1155 (141)  0.1059 (142)

 THE DETERMINANT OF THE G MATRIX IS 10**(   -32)


                     --------------------
                     INTERNAL COORDINATES
                     --------------------

                 - - ATOMS - -         COORDINATE      COORDINATE
 NO.   TYPE    I  J  K  L  M  N        (BOHR,RAD)       (ANG,DEG)
 ----------------------------------------------------------------
   1 STRETCH   1  2                     2.8912858       1.5300027
   2 STRETCH   1 11                     2.0599153       1.0900603
   3 STRETCH   1 12                     2.0596800       1.0899358
   4 STRETCH   1 13                     2.0598117       1.0900055
   5 STRETCH   2  3                     2.8913152       1.5300182
   6 STRETCH   2  5                     2.8911529       1.5299323
   7 STRETCH   2 10                     2.8914244       1.5300760
   8 STRETCH   3  4                     2.8913930       1.5300594
   9 STRETCH   3 15                     2.0598953       1.0900497
  10 STRETCH   3 14                     2.0597489       1.0899723
  11 STRETCH   4 16                     2.0596824       1.0899371
  12 STRETCH   4 17                     2.0597489       1.0899723
  13 STRETCH   4 18                     2.0597079       1.0899506
  14 STRETCH   5  6                     2.8912171       1.5299663
  15 STRETCH   5 20                     2.0599028       1.0900537
  16 STRETCH   5 19                     2.0598689       1.0900358
  17 STRETCH   6  7                     2.8912776       1.5299983
  18 STRETCH   6 21                     2.0599529       1.0900802
  19 STRETCH   6  9                     2.8913035       1.5300120
  20 STRETCH   7  8                     2.8912337       1.5299751
  21 STRETCH   7 23                     2.0597867       1.0899922
  22 STRETCH   7 22                     2.0597905       1.0899943
  23 STRETCH   8 26                     2.0597357       1.0899653
  24 STRETCH   8 25                     2.0598209       1.0900104
  25 STRETCH   8 24                     2.0598861       1.0900449
  26 STRETCH   9 29                     2.0599102       1.0900576
  27 STRETCH   9 28                     2.0596524       1.0899212
  28 STRETCH   9 27                     2.0597007       1.0899468
  29 STRETCH  10 32                     2.0596845       1.0899382
  30 STRETCH  10 31                     2.0597079       1.0899506
  31 STRETCH  10 30                     2.0598640       1.0900332
  32 BEND      1  2  5                  1.9106859     109.4742401
  33 BEND      1  2 10                  1.9106042     109.4695580
  34 BEND      1  2  3                  1.9106174     109.4703160
  35 BEND      2 10 32                  1.9105620     109.4671375
  36 BEND      2  1 13                  1.9105869     109.4685665
  37 BEND      2  1 12                  1.9106469     109.4720021
  38 BEND      2  5 20                  1.9105986     109.4692343
  39 BEND      2  3 14                  1.9106518     109.4722860
  40 BEND      2 10 31                  1.9106375     109.4714633
  41 BEND      2  5 19                  1.9106923     109.4746042
  42 BEND      2  1 11                  1.9106395     109.4715780
  43 BEND      2  5  6                  1.9106892     109.4744247
  44 BEND      2  3 15                  1.9106516     109.4722716
  45 BEND      2  3  4                  1.9106633     109.4729438
  46 BEND      2 10 30                  1.9105559     109.4667920
  47 BEND      3  2 10                  1.9106287     109.4709634
  48 BEND      3  4 18                  1.9105947     109.4690143
  49 BEND      3  4 16                  1.9105994     109.4692812
  50 BEND      3  2  5                  1.9106663     109.4731157
  51 BEND      3  4 17                  1.9105885     109.4686560
  52 BEND      4  3 15                  1.9105957     109.4690703
  53 BEND      4  3 14                  1.9105885     109.4686560
  54 BEND      5  2 10                  1.9105968     109.4691305
  55 BEND      5  6 21                  1.9105885     109.4686600
  56 BEND      5  6  7                  1.9106635     109.4729527
  57 BEND      5  6  9                  1.9106947     109.4747404
  58 BEND      6  5 20                  1.9105307     109.4653460
  59 BEND      6  9 27                  1.9106155     109.4702034
  60 BEND      6  9 28                  1.9105961     109.4690910
  61 BEND      6  9 29                  1.9105412     109.4659476
  62 BEND      6  7 22                  1.9107018     109.4751499
  63 BEND      6  7 23                  1.9105132     109.4643407
  64 BEND      6  7  8                  1.9106086     109.4698087
  65 BEND      6  5 19                  1.9106444     109.4718591
  66 BEND      7  8 24                  1.9106483     109.4720849
  67 BEND      7  8 25                  1.9106821     109.4740206
  68 BEND      7  8 26                  1.9106993     109.4750037
  69 BEND      7  6  9                  1.9107013     109.4751209
  70 BEND      7  6 21                  1.9105485     109.4663630
  71 BEND      8  7 22                  1.9106634     109.4729481
  72 BEND      8  7 23                  1.9106634     109.4729467
  73 BEND      9  6 21                  1.9106030     109.4694863
  74 BEND     11  1 12                  1.9106538     109.4723981
  75 BEND     11  1 13                  1.9105687     109.4675244
  76 BEND     12  1 13                  1.9107036     109.4752545
  77 BEND     14  3 15                  1.9106485     109.4720958
  78 BEND     16  4 18                  1.9106558     109.4725161
  79 BEND     16  4 17                  1.9107018     109.4751485
  80 BEND     17  4 18                  1.9106592     109.4727073
  81 BEND     19  5 20                  1.9106443     109.4718551
  82 BEND     22  7 23                  1.9106491     109.4721295
  83 BEND     24  8 25                  1.9104706     109.4619021
  84 BEND     24  8 26                  1.9106368     109.4714245
  85 BEND     25  8 26                  1.9106623     109.4728872
  86 BEND     27  9 28                  1.9107541     109.4781442
  87 BEND     27  9 29                  1.9106514     109.4722631
  88 BEND     28  9 29                  1.9106411     109.4716738
  89 BEND     30 10 31                  1.9106626     109.4729045
  90 BEND     30 10 32                  1.9106181     109.4703551
  91 BEND     31 10 32                  1.9107633     109.4786706
  92 TORSION   1  2  5 19              -3.0195170    -173.0055816
  93 TORSION   1  2 10 30               1.0471560      59.9976193
  94 TORSION   1  2 10 31               3.1415424     179.9971183
  95 TORSION   1  2  5 20              -0.9250934     -53.0039490
  96 TORSION   1  2 10 32              -1.0471296     -59.9961093
  97 TORSION   1  2  3 14               1.0472048      60.0004143
  98 TORSION   1  2  3 15              -3.1415441    -179.9972177
  99 TORSION   1  2  3  4              -1.0471653     -59.9981524
 100 TORSION   1  2  5  6               1.1691891      66.9896018
 101 TORSION   2  3  4 18               1.0471921      59.9996889
 102 TORSION   2  3  4 17              -1.0471838     -59.9992105
 103 TORSION   2  3  4 16               3.1415706     179.9987370
 104 TORSION   2  5  6  9              -1.1895923     -68.1586177
 105 TORSION   2  5  6 21               0.9047760      51.8398454
 106 TORSION   2  5  6  7               2.9990584     171.8333886
 107 TORSION   3  2  1 13              -1.4903486     -85.3906822
 108 TORSION   3  2 10 30              -1.0471992     -60.0000971
 109 TORSION   3  2  5 20               1.1693349      66.9979528
 110 TORSION   3  2  1 12               2.6983754     154.6055240
 111 TORSION   3  2  1 11               0.6039430      34.6033846
 112 TORSION   3  2  5  6              -3.0195679    -173.0084964
 113 TORSION   3  2 10 32              -3.1414849    -179.9938257
 114 TORSION   3  2  5 19              -0.9250887     -53.0036798
 115 TORSION   3  2 10 31               1.0471871      59.9994019
 116 TORSION   4  3  2 10               1.0471818      59.9990998
 117 TORSION   4  3  2  5               3.1415498     179.9975429
 118 TORSION   5  2 10 30               3.1415755     179.9990193
 119 TORSION   5  2  1 13               0.6041097      34.6129339
 120 TORSION   5  6  9 27               1.5623610      89.5166907
 121 TORSION   5  6  9 28              -2.6263149    -150.4767568
 122 TORSION   5  6  9 29              -0.5319892     -30.4807344
 123 TORSION   5  6  7 22              -0.9598183     -54.9935402
 124 TORSION   5  6  7 23               1.1345646      65.0057658
 125 TORSION   5  6  7  8              -3.0542773    -174.9971974
 126 TORSION   5  2  3 15               1.0471710      59.9984776
 127 TORSION   5  2 10 32               1.0472899      60.0052908
 128 TORSION   5  2 10 31              -1.0472234     -60.0014817
 129 TORSION   5  2  1 11               2.6984012     154.6070007
 130 TORSION   5  2  1 12              -1.4903517     -85.3908598
 131 TORSION   5  2  3 14              -1.0472655     -60.0038904
 132 TORSION   6  5  2 10              -0.9251804     -53.0089309
 133 TORSION   6  7  8 24              -3.1414805    -179.9935761
 134 TORSION   6  7  8 25              -1.0472455     -60.0027450
 135 TORSION   6  7  8 26               1.0472556      60.0033280
 136 TORSION   7  6  9 29               1.5625223      89.5259316
 137 TORSION   7  6  9 28              -0.5318034     -30.4700908
 138 TORSION   7  6  9 27              -2.6263129    -150.4766433
 139 TORSION   7  6  5 19               0.9045499      51.8268912
 140 TORSION   7  6  5 20              -1.1898028     -68.1706795
 141 TORSION   8  7  6  9               1.1343775      64.9950420
 142 TORSION   8  7  6 21              -0.9599703     -55.0022475
 143 TORSION   9  6  7 23              -0.9599659     -55.0019948
 144 TORSION   9  6  7 22              -3.0543489    -175.0013008
 145 TORSION   9  6  5 19               2.9990845     171.8348849
 146 TORSION   9  6  5 20               0.9047318      51.8373141
 147 TORSION  10  2  5 20              -3.0194629    -173.0024817
 148 TORSION  10  2  1 11              -1.4904192     -85.3947284
 149 TORSION  10  2  3 15              -1.0471969     -59.9999655
 150 TORSION  10  2  5 19               1.1692988      66.9958857
 151 TORSION  10  2  1 13               2.6984746     154.6112048
 152 TORSION  10  2  1 12               0.6040133      34.6074111
 153 TORSION  10  2  3 14               3.1415519     179.9976665
 154 TORSION  14  3  4 17               3.1415927     180.0000000
 155 TORSION  14  3  4 16               1.0471617      59.9979475
 156 TORSION  14  3  4 18              -1.0472168     -60.0011006
 157 TORSION  15  3  4 17               1.0472292      60.0018151
 158 TORSION  15  3  4 16              -1.0472017     -60.0002374
 159 TORSION  15  3  4 18              -3.1415802    -179.9992855
 160 TORSION  19  5  6 21              -1.1897325     -68.1666521
 161 TORSION  20  5  6 21               2.9991001     171.8357772
 162 TORSION  21  6  7 23              -3.0543137    -174.9992843
 163 TORSION  21  6  7 22               1.1344886      65.0014098
 164 TORSION  21  6  9 29              -2.6263486    -150.4786915
 165 TORSION  21  6  9 28               1.5625110      89.5252861
 166 TORSION  21  6  9 27              -0.5319985     -30.4812664
 167 TORSION  22  7  8 26              -1.0472268     -60.0016775
 168 TORSION  22  7  8 25               3.1414574     179.9922494
 169 TORSION  22  7  8 24               1.0472223      60.0014184
 170 TORSION  23  7  8 26               3.1415070     179.9950943
 171 TORSION  23  7  8 25               1.0470059      59.9890213
 172 TORSION  23  7  8 24              -1.0472291     -60.0018098

     ------------------------------------------
     THE POINT GROUP IS C1 , NAXIS= 1, ORDER= 1
     ------------------------------------------

     DIMENSIONS OF THE SYMMETRY SUBSPACES ARE
 A   =  322

 ..... DONE SETTING UP THE RUN .....
 STEP CPU TIME =     0.04 TOTAL CPU TIME =        0.0 (    0.0 MIN)
 TOTAL WALL CLOCK TIME=        0.1 SECONDS, CPU UTILIZATION IS  80.00%


          -----------------------------
          STATIONARY POINT LOCATION RUN
          -----------------------------

 OBTAINING INITIAL HESSIAN, HESS=GUESS   
 DIAGONAL GUESS HESSIAN IN INTERNAL COORDS IS
     1  0.3672     2  0.3463     3  0.3464     4  0.3464     5  0.3672
     6  0.3672     7  0.3671     8  0.3671     9  0.3463    10  0.3464
    11  0.3464    12  0.3464    13  0.3464    14  0.3672    15  0.3463
    16  0.3463    17  0.3672    18  0.3463    19  0.3672    20  0.3672
    21  0.3464    22  0.3464    23  0.3464    24  0.3464    25  0.3463
    26  0.3463    27  0.3464    28  0.3464    29  0.3464    30  0.3464
    31  0.3463    32  0.2485    33  0.2485    34  0.2485    35  0.2241
    36  0.2241    37  0.2241    38  0.2241    39  0.2241    40  0.2241
    41  0.2241    42  0.2241    43  0.2485    44  0.2241    45  0.2485
    46  0.2241    47  0.2485    48  0.2241    49  0.2241    50  0.2485
    51  0.2241    52  0.2241    53  0.2241    54  0.2485    55  0.2241
    56  0.2485    57  0.2485    58  0.2241    59  0.2241    60  0.2241
    61  0.2241    62  0.2241    63  0.2241    64  0.2485    65  0.2241
    66  0.2241    67  0.2241    68  0.2241    69  0.2485    70  0.2241
    71  0.2241    72  0.2241    73  0.2241    74  0.2034    75  0.2034
    76  0.2034    77  0.2034    78  0.2034    79  0.2034    80  0.2034
    81  0.2034    82  0.2034    83  0.2034    84  0.2034    85  0.2034
    86  0.2034    87  0.2034    88  0.2034    89  0.2034    90  0.2034
    91  0.2034    92  0.2500    93  0.2500    94  0.2500    95  0.2500
    96  0.2500    97  0.2500    98  0.2500    99  0.2500   100  0.2500
   101  0.2500   102  0.2500   103  0.2500   104  0.2500   105  0.2500
   106  0.2500   107  0.2500   108  0.2500   109  0.2500   110  0.2500
   111  0.2500   112  0.2500   113  0.2500   114  0.2500   115  0.2500
   116  0.2500   117  0.2500   118  0.2500   119  0.2500   120  0.2500
   121  0.2500   122  0.2500   123  0.2500   124  0.2500   125  0.2500
   126  0.2500   127  0.2500   128  0.2500   129  0.2500   130  0.2500
   131  0.2500   132  0.2500   133  0.2500   134  0.2500   135  0.2500
   136  0.2500   137  0.2500   138  0.2500   139  0.2500   140  0.2500
   141  0.2500   142  0.2500   143  0.2500   144  0.2500   145  0.2500
   146  0.2500   147  0.2500   148  0.2500   149  0.2500   150  0.2500
   151  0.2500   152  0.2500   153  0.2500   154  0.2500   155  0.2500
   156  0.2500   157  0.2500   158  0.2500   159  0.2500   160  0.2500
   161  0.2500   162  0.2500   163  0.2500   164  0.2500   165  0.2500
   166  0.2500   167  0.2500   168  0.2500   169  0.2500   170  0.2500
   171  0.2500   172  0.2500
 TRANSFORMING HESSIAN TO SYMMETRY COORDINATES

          PARAMETERS CONTROLLING GEOMETRY SEARCH ARE
          METHOD =QA                  UPHESS =BFGS    
          NNEG   =         0          NFRZ   =         3
          NSTEP  =        50          IFOLOW =         1
          HESS   =GUESS               RESTAR =         F
          IHREP  =         0          HSSEND =         F
          NPRT   =         0          NPUN   =         0
          OPTTOL = 5.000E-04          RMIN   = 1.500E-03
          RMAX   = 1.000E-01          RLIM   = 7.000E-02
          DXMAX  = 3.000E-01          PURIFY =         F
          MOVIE  =         F          TRUPD  =         T
          TRMAX  = 5.000E-01          TRMIN  = 5.000E-02
          ITBMAT =         5          STPT   =         F
          STSTEP = 1.000E-02          PROJCT=          F
          FROZEN COORD(S)=   1   2   3


      ***** EQUILIBRIUM GEOMETRY LOCATED *****
            (SUBJECT TO   3 CONSTRAINT(S))
 COORDINATES OF ALL ATOMS ARE (ANGS)
   ATOM   CHARGE       X              Y              Z
 ------------------------------------------------------------
 C           6.0   1.2778826556   1.4568105880   0.2499326056
 C           6.0   1.1860061305  -0.0591242481  -0.0167658406
 C           6.0   2.4444838796  -0.6621242892   0.6594717100
 C           6.0   3.7377381462  -0.2584447037  -0.0770747774
 C           6.0  -0.1468647639  -0.6544229905   0.5419155214
 C           6.0  -1.4647196924  -0.0195880479   0.0021217355
 C           6.0  -2.7599862736  -0.6324059615   0.5662029090
 C           6.0  -3.9067128005  -0.4152735658  -0.4372723079
 C           6.0  -1.5812221222   1.5087608237   0.1586081237
 C           6.0   1.2269726987  -0.4061410310  -1.5198329919
 H           1.0   2.2944859489   1.8091011297   0.1924496725
 H           1.0   0.7114673114   2.0448307305  -0.4468375376
 H           1.0   0.9244284165   1.6719974396   1.2532832063
 H           1.0   2.4954546012  -0.3228346629   1.6924861442
 H           1.0   2.3899908498  -1.7492630508   0.6849881544
 H           1.0   4.6271013316  -0.5893896857   0.4457501104
 H           1.0   3.7653600557  -0.6840360056  -1.0741169248
 H           1.0   3.8187919148   0.8152670902  -0.1983133803
 H           1.0  -0.1721831251  -1.7199858721   0.3140504486
 H           1.0  -0.1379822120  -0.5686618666   1.6311236044
 H           1.0  -1.4853285070  -0.2386887378  -1.0610750895
 H           1.0  -2.6530053319  -1.6998361367   0.7446905433
 H           1.0  -3.0049431374  -0.1714420141   1.5209786446
 H           1.0  -4.8719035594  -0.7168020309  -0.0444074359
 H           1.0  -3.9879718855   0.6256282133  -0.7341961166
 H           1.0  -3.7203267698  -0.9844886358  -1.3457246211
 H           1.0  -1.0595387920   2.0435627514  -0.6173320797
 H           1.0  -2.6131547391   1.8230273757   0.1096473958
 H           1.0  -1.1927309628   1.8317016992   1.1180626574
 H           1.0   1.9993928831   0.1351814852  -2.0513148928
 H           1.0   1.4233549774  -1.4710295330  -1.6411100140
 H           1.0   0.2867012511  -0.1928059852  -2.0100664047


                     --------------------
                     INTERNAL COORDINATES
                     --------------------

                 - - ATOMS - -         COORDINATE      COORDINATE
 NO.   TYPE    I  J  K  L  M  N        (BOHR,RAD)       (ANG,DEG)
 ----------------------------------------------------------------
   1 STRETCH   1  2                     2.9138740       1.5419558
   2 STRETCH   1 11                     2.0360823       1.0774485
   3 STRETCH   1 12                     2.0283395       1.0733511
   4 STRETCH   1 13                     2.0509820       1.0853330
   5 STRETCH   2  3                     2.9303993       1.5507007
   6 STRETCH   2  5                     2.9536909       1.5630260
   7 STRETCH   2 10                     2.9161293       1.5431493
   8 STRETCH   3  4                     2.9140803       1.5420650
   9 STRETCH   3 15                     2.0575387       1.0888027
  10 STRETCH   3 14                     2.0569685       1.0885009
  11 STRETCH   4 16                     2.0474004       1.0834377
  12 STRETCH   4 17                     2.0492717       1.0844279
  13 STRETCH   4 18                     2.0476518       1.0835707
  14 STRETCH   5  6                     2.9464788       1.5592095
  15 STRETCH   5 20                     2.0647435       1.0926153
  16 STRETCH   5 19                     2.0597040       1.0899485
  17 STRETCH   6  7                     2.9100853       1.5399509
  18 STRETCH   6 21                     2.0517389       1.0857335
  19 STRETCH   6  9                     2.9115956       1.5407502
  20 STRETCH   7  8                     2.9086380       1.5391851
  21 STRETCH   7 23                     2.0563209       1.0881582
  22 STRETCH   7 22                     2.0551237       1.0875247
  23 STRETCH   8 26                     2.0562712       1.0881320
  24 STRETCH   8 25                     2.0512393       1.0854692
  25 STRETCH   8 24                     2.0500308       1.0848297
  26 STRETCH   9 29                     2.0490845       1.0843289
  27 STRETCH   9 28                     2.0405939       1.0798359
  28 STRETCH   9 27                     2.0355163       1.0771489
  29 STRETCH  10 32                     2.0440084       1.0816427
  30 STRETCH  10 31                     2.0590745       1.0896154
  31 STRETCH  10 30                     2.0459162       1.0826523
  32 BEND      1  2  5                  1.9427368     111.3106204
  33 BEND      1  2 10                  1.9692218     112.8280997
  34 BEND      1  2  3                  1.8322785     104.9818269
  35 BEND      2 10 32                  1.9541445     111.9642319
  36 BEND      2  1 13                  1.9128409     109.5977112
  37 BEND      2  1 12                  1.9767219     113.2578240
  38 BEND      2  5 20                  1.8959918     108.6323294
  39 BEND      2  3 14                  1.9077885     109.3082306
  40 BEND      2 10 31                  1.9102466     109.4490693
  41 BEND      2  5 19                  1.8938088     108.5072526
  42 BEND      2  1 11                  1.9481285     111.6195437
  43 BEND      2  5  6                  2.0285547     116.2276202
  44 BEND      2  3 15                  1.9367767     110.9691307
  45 BEND      2  3  4                  1.9503719     111.7480774
  46 BEND      2 10 30                  1.9656352     112.6226038
  47 BEND      3  2 10                  1.8920635     108.4072535
  48 BEND      3  4 18                  1.9558099     112.0596540
  49 BEND      3  4 16                  1.9584027     112.2082115
  50 BEND      3  2  5                  1.9693434     112.8350642
  51 BEND      3  4 17                  1.9366774     110.9634404
  52 BEND      4  3 15                  1.8907740     108.3333710
  53 BEND      4  3 14                  1.9096651     109.4157527
  54 BEND      5  2 10                  1.8599520     106.5674009
  55 BEND      5  6 21                  1.8471933     105.8363820
  56 BEND      5  6  7                  2.0065297     114.9656821
  57 BEND      5  6  9                  2.0181961     115.6341197
  58 BEND      6  5 20                  1.8965582     108.6647832
  59 BEND      6  9 27                  1.9635309     112.5020325
  60 BEND      6  9 28                  1.9351484     110.8758361
  61 BEND      6  9 29                  1.9371421     110.9900666
  62 BEND      6  7 22                  1.9476218     111.5905093
  63 BEND      6  7 23                  1.9200158     110.0087992
  64 BEND      6  7  8                  1.9088987     109.3718387
  65 BEND      6  5 19                  1.8818198     107.8203299
  66 BEND      7  8 24                  1.9687655     112.8019549
  67 BEND      7  8 25                  1.9491471     111.6779001
  68 BEND      7  8 26                  1.9207854     110.0528961
  69 BEND      7  6  9                  1.8691433     107.0940208
  70 BEND      7  6 21                  1.8363296     105.2139370
  71 BEND      8  7 22                  1.8952088     108.5874656
  72 BEND      8  7 23                  1.9225724     110.1552836
  73 BEND      9  6 21                  1.8735995     107.3493445
  74 BEND     11  1 12                  1.8589156     106.5080177
  75 BEND     11  1 13                  1.8668704     106.9637975
  76 BEND     12  1 13                  1.8961514     108.6414729
  77 BEND     14  3 15                  1.8664133     106.9376050
  78 BEND     16  4 18                  1.8705330     107.1736446
  79 BEND     16  4 17                  1.8785170     107.6310972
  80 BEND     17  4 18                  1.8588733     106.5055975
  81 BEND     19  5 20                  1.8601500     106.5787432
  82 BEND     22  7 23                  1.8691326     107.0934085
  83 BEND     24  8 25                  1.8744362     107.3972822
  84 BEND     24  8 26                  1.8853005     108.0197609
  85 BEND     25  8 26                  1.8609321     106.6235525
  86 BEND     27  9 28                  1.8605070     106.5991961
  87 BEND     27  9 29                  1.8923228     108.4221100
  88 BEND     28  9 29                  1.8711173     107.2071216
  89 BEND     30 10 31                  1.8811809     107.7837263
  90 BEND     30 10 32                  1.8745389     107.4031668
  91 BEND     31 10 32                  1.8744256     107.3966768
  92 TORSION   1  2  5 19               3.1243835     179.0139865
  93 TORSION   1  2 10 30               0.7906698      45.3020425
  94 TORSION   1  2 10 31               2.8828257     165.1737467
  95 TORSION   1  2  5 20              -1.1430718     -65.4931874
  96 TORSION   1  2 10 32              -1.3239924     -75.8591785
  97 TORSION   1  2  3 14               0.9109449      52.1932986
  98 TORSION   1  2  3 15               2.9652170     169.8944167
  99 TORSION   1  2  3  4              -1.2055193     -69.0711692
 100 TORSION   1  2  5  6               1.0012556      57.3677215
 101 TORSION   2  3  4 18               0.9329920      53.4565028
 102 TORSION   2  3  4 17              -1.1424981     -65.4603187
 103 TORSION   2  3  4 16               3.0384639     174.0911567
 104 TORSION   2  5  6  9              -0.9533877     -54.6250912
 105 TORSION   2  5  6 21               1.1179651      64.0546801
 106 TORSION   2  5  6  7               3.1365322     179.7100580
 107 TORSION   3  2  1 13              -1.4069281     -80.6110418
 108 TORSION   3  2 10 30              -1.2309348     -70.5273664
 109 TORSION   3  2  5 20               0.9117501      52.2394303
 110 TORSION   3  2  1 12               2.7558729     157.8998849
 111 TORSION   3  2  1 11               0.6579817      37.6995731
 112 TORSION   3  2  5  6               3.0560774     175.1003392
 113 TORSION   3  2 10 32               2.9375883     168.3114126
 114 TORSION   3  2  5 19              -1.1039800     -63.2533958
 115 TORSION   3  2 10 31               0.8612212      49.3443378
 116 TORSION   4  3  2 10               0.9031790      51.7483471
 117 TORSION   4  3  2  5               2.9589761     169.5368448
 118 TORSION   5  2 10 30               2.9278857     167.7554928
 119 TORSION   5  2  1 13               0.7291033      41.7745444
 120 TORSION   5  6  9 27               1.4221185      81.4813863
 121 TORSION   5  6  9 28              -2.7794077    -159.2483319
 122 TORSION   5  6  9 29              -0.7017501     -40.2073196
 123 TORSION   5  6  7 22              -0.6017150     -34.4757302
 124 TORSION   5  6  7 23               1.4703295      84.2436733
 125 TORSION   5  6  7  8              -2.6990206    -154.6424874
 126 TORSION   5  2  3 15               0.8465271      48.5024307
 127 TORSION   5  2 10 32               0.8132235      46.5942718
 128 TORSION   5  2 10 31              -1.2631437     -72.3728029
 129 TORSION   5  2  1 11               2.7940131     160.0851593
 130 TORSION   5  2  1 12              -1.3912810     -79.7145290
 131 TORSION   5  2  3 14              -1.2077449     -69.1986873
 132 TORSION   6  5  2 10              -1.1525411     -66.0357430
 133 TORSION   6  7  8 24              -3.0183325    -172.9377117
 134 TORSION   6  7  8 25              -0.9052002     -51.8641503
 135 TORSION   6  7  8 26               1.1580817      66.3531937
 136 TORSION   7  6  9 29               1.5601102      89.3877300
 137 TORSION   7  6  9 28              -0.5175474     -29.6532823
 138 TORSION   7  6  9 27              -2.5992065    -148.9235641
 139 TORSION   7  6  5 19               1.0070672      57.7007026
 140 TORSION   7  6  5 20              -1.0026217     -57.4459940
 141 TORSION   8  7  6  9               1.3156819      75.3830190
 142 TORSION   8  7  6 21              -0.6742200     -38.6299582
 143 TORSION   9  6  7 23              -0.7981534     -45.7308204
 144 TORSION   9  6  7 22              -2.8701979    -164.4502238
 145 TORSION   9  6  5 19              -3.0828527    -176.6344466
 146 TORSION   9  6  5 20               1.1906437      68.2188568
 147 TORSION  10  2  5 20               2.9863168     171.1033481
 148 TORSION  10  2  1 11              -1.3990569     -80.1600582
 149 TORSION  10  2  3 15              -1.2092700     -69.2860670
 150 TORSION  10  2  5 19               0.9705867      55.6105220
 151 TORSION  10  2  1 13               2.8192186     161.5293269
 152 TORSION  10  2  1 12               0.6988343      40.0402535
 153 TORSION  10  2  3 14               3.0196433     173.0128149
 154 TORSION  14  3  4 17               3.0253105     173.3375211
 155 TORSION  14  3  4 16               0.9230871      52.8889964
 156 TORSION  14  3  4 18              -1.1823848     -67.7456574
 157 TORSION  15  3  4 17               0.9964549      57.0926625
 158 TORSION  15  3  4 16              -1.1057684     -63.3558622
 159 TORSION  15  3  4 18               3.0719450     176.0094839
 160 TORSION  19  5  6 21              -1.0114999     -57.9546754
 161 TORSION  20  5  6 21              -3.0211889    -173.1013720
[...]
 623   8  -7.488323  -4.422977   0.125764   0.001148   0.602298   0.001905
 624   8  -6.279098  -4.471793  -1.209920   0.000879   0.311355   0.002822
 625   8  -7.582808   1.989111   1.923273   0.000271   0.207358   0.001308
 626  23  -7.133837   1.876274   2.533030   0.000024   0.207358   0.000115
 627  28  -6.947446   2.701633   1.920449  -0.000173   0.207358  -0.000836
 628  23  -7.503215   1.380309   3.060507  -0.000168   0.172598  -0.000975
 629  23  -7.975165   0.273412   3.415670  -0.000458   0.350778  -0.001305
 630   8  -8.437315   1.054505   2.356971   0.000925   0.475768   0.001944
 631   8  -8.879087  -0.252272   2.723126   0.000707   0.243145   0.002909
 632  24  -9.761849  -0.806720   2.246889  -0.000065   0.066769  -0.000980
 633  24 -10.242704  -0.044779   1.650329  -0.000257   0.147339  -0.001743
 634  24 -10.813677   0.328345   0.533933  -0.000095   0.147339  -0.000646
 635  24 -11.169445  -0.083083  -0.655911  -0.000241   0.147339  -0.001637
 636  24 -11.171317  -1.118674  -1.455361  -0.000239   0.147339  -0.001619
 637  24 -10.818563  -2.374719  -1.552765  -0.000217   0.147339  -0.001472
 638  24 -10.248700  -3.361570  -0.910152  -0.000091   0.147339  -0.000618
 639  24  -9.683878  -3.694519   0.221967  -0.000229   0.147339  -0.001553
 640  24  -9.359727  -3.433012   1.219064  -0.000043   0.066769  -0.000643
 641   8  -9.608868  -0.250979   2.127243  -0.000075   0.147217  -0.000510
 642   8 -10.279816   0.568270   1.107642   0.000019   0.147217   0.000127
 643   8 -10.827862   0.545617  -0.256197   0.000154   0.147217   0.001045
 644   8 -11.039359  -0.310105  -1.432605  -0.000040   0.147217  -0.000270
 645   8 -10.831859  -1.665308  -1.962977  -0.000072   0.147217  -0.000492
 646   8 -10.286251  -2.991688  -1.640556   0.000128   0.147217   0.000867
 647   8  -9.615233  -3.772177  -0.591034   0.000036   0.147217   0.000242
 648   8  -9.080389  -3.702515   0.776451  -0.000043   0.147217  -0.000291
 649   8  -8.311988   2.726855   0.501033  -0.000092   0.070759  -0.001300
 650  25  -8.252079   2.923260   0.276112  -0.000262   0.070759  -0.003708
 651  28  -7.628191   3.378347   0.593161  -0.000356   0.070759  -0.005034
 652  25  -6.684651   1.855052  -3.591488  -0.000093   0.068530  -0.001355
 653  25  -7.777432   1.734623  -3.714605  -0.000188   0.151965  -0.001237
 654  25  -9.006931   1.788337  -3.189826  -0.000298   0.151965  -0.001962
 655  25  -9.671164   2.058667  -2.060374  -0.000248   0.151965  -0.001630
 656  25  -9.498464   2.435048  -0.788188  -0.000231   0.151965  -0.001521
 657  25  -8.817039   2.722890   0.034392  -0.000050   0.068530  -0.000728
 658   8  -7.014837   1.415238  -3.820485   0.000075   0.150395   0.000501
 659   8  -8.509628   1.337484  -3.683982   0.000004   0.150395   0.000026
 660   8  -9.632310   1.529590  -2.703287  -0.000030   0.150395  -0.000197
 661   8  -9.923711   1.912986  -1.279499   0.000090   0.150395   0.000601
 662   8  -9.264650   2.330865   0.005063   0.000081   0.150395   0.000536
 663  26  -6.387660  -4.223341  -2.341707  -0.000075   0.068698  -0.001088
 664  26  -7.469773  -4.224286  -2.563140  -0.000141   0.152156  -0.000924
 665  26  -8.525497  -3.645595  -3.142340  -0.000127   0.152156  -0.000833
 666  26  -8.891841  -2.592015  -3.877645  -0.000151   0.152156  -0.000994
 667  26  -8.419975  -1.491571  -4.470330  -0.000246   0.152156  -0.001617
 668  26  -7.301597  -0.791327  -4.679615  -0.000107   0.152156  -0.000701
 669  26  -6.213633  -0.670945  -4.531816  -0.000050   0.068698  -0.000723
 670   8  -6.866156  -4.294275  -1.992517  -0.000094   0.150958  -0.000624
 671   8  -8.271835  -4.029134  -2.447060   0.000112   0.150958   0.000740
 672   8  -9.114594  -3.061801  -3.226074   0.000185   0.150958   0.001223
 673   8  -9.052058  -1.785263  -4.013081   0.000043   0.150958   0.000286
 674   8  -8.109632  -0.718122  -4.488352   0.000091   0.150958   0.000604
 675   8  -6.670183  -0.293911  -4.458806   0.000077   0.150958   0.000510
 676  28  -7.262293   3.541718   1.205644  -0.001169   0.309534  -0.003778
 677   8  -8.124094   2.422144   1.323321   0.000591   0.437142   0.001351
 678   9  -1.045439   6.102376  -0.430003  -0.000093   0.060171  -0.001541
 679  12  -0.212637   6.019812  -0.643313  -0.000283   0.060171  -0.004697
 680  27  -0.943509   6.079683  -0.711261  -0.000208   0.060171  -0.003463
 681  12   0.215094   6.132501  -0.474615  -0.000149   0.090746  -0.001641
 682   9  -0.991126   6.237549  -0.059133   0.000340   0.127723   0.002662
 683   9  -2.514514   1.928083  -3.585099   0.000263   0.182113   0.001442
 684  21  -2.489511   1.238134  -3.873064  -0.000439   0.182113  -0.002412
 685  32  -1.716347   1.210502  -4.198713  -0.000657   0.182113  -0.003606
 686  21  -3.433082   1.187326  -3.771093  -0.000227   0.195185  -0.001164
 687   9  -3.372373   2.277306  -3.512972   0.000661   0.275167   0.002402
 688   9  -5.974881   3.185819   2.680374   0.000245   0.078765   0.003105
 689  23  -6.292746   2.379504   3.008800   0.000139   0.078765   0.001764
 690  28  -6.172432   3.254723   2.462224  -0.000011   0.078765  -0.000139
 691   9  -4.291131   2.827375   3.886029   0.000265   0.058190   0.004548
 692  23  -4.766127   2.055641   4.074376   0.000145   0.058190   0.002499
 693  29  -4.019628   2.929593   3.971766   0.000041   0.058190   0.000698
 694  23  -5.469093   1.832353   4.227322  -0.000410   0.219529  -0.001868
 695  23  -6.266670   2.038264   3.647776  -0.000328   0.219529  -0.001495
 696   9  -5.235158   3.034740   3.457413   0.002011   0.609720   0.003298
 697   9  -5.749255   4.109818  -2.109861  -0.000027   0.067598  -0.000402
 698  25  -6.559816   3.579822  -2.247508  -0.000345   0.067598  -0.005106
 699  28  -6.006620   4.131561  -1.954203  -0.000218   0.067598  -0.003227
 700  25  -6.750381   3.216797  -2.744932  -0.000832   0.234704  -0.003544
 701  25  -6.285333   2.449275  -3.239364  -0.000373   0.234704  -0.001590
 702   9  -5.255706   3.478230  -2.806561   0.001327   0.655194   0.002025
 703   9  -2.297017   2.579473  -3.513628   0.000014   0.113452   0.000127
 704  27  -2.092774   2.802153  -3.539627  -0.000158   0.113452  -0.001391
 705  32  -1.465635   1.815272  -4.003505   0.000015   0.113452   0.000134
 706  27  -2.606196   3.470112  -3.513991  -0.000128   0.068772  -0.001868
 707  27  -3.128910   4.417732  -3.212301  -0.000193   0.153462  -0.001260
 708  27  -3.143774   5.539880  -2.448882  -0.000164   0.153462  -0.001066
 709  27  -2.422095   6.200665  -1.508251  -0.000253   0.153462  -0.001646
 710  27  -1.505465   6.246694  -0.860254  -0.000130   0.068772  -0.001895
 711   9  -3.167361   3.590710  -3.352609  -0.000049   0.149940  -0.000329
 712   9  -3.618937   4.913741  -2.744349   0.000203   0.149940   0.001356
 713   9  -3.198920   5.973228  -1.731736   0.000104   0.149940   0.000692
 714   9  -2.086685   6.316703  -0.747222  -0.000065   0.149940  -0.000432
 715  28  -6.133828   3.958805   2.291864  -0.000022   0.066193  -0.000326
 716  28  -5.824052   4.914305   1.895936  -0.000111   0.146267  -0.000760
 717  28  -5.542945   5.678000   0.873159  -0.000214   0.146267  -0.001463
 718  28  -5.473251   5.703534  -0.431761  -0.000186   0.146267  -0.001274
 719  28  -5.642270   4.980905  -1.507663  -0.000228   0.146267  -0.001557
 720   9  -5.687386   4.311919   2.431044   0.000211   0.145716   0.001448
 721   9  -5.294909   5.475071   1.624946   0.000103   0.145716   0.000707
 722   9  -5.087406   5.941911   0.248082  -0.000024   0.145716  -0.000162
 723   9  -5.146158   5.529569  -1.160207   0.000122   0.145716   0.000839
 724   9  -5.358110   4.703852  -1.992955   0.000165   0.080869   0.002045
 725  29  -1.593785   5.804831   2.398299  -0.000074   0.075634  -0.000982
 726  29  -2.697174   5.674670   2.888879  -0.000297   0.171712  -0.001730
 727  29  -3.621373   4.769171   3.567864  -0.000117   0.171712  -0.000684
 728  29  -3.791210   3.651869   4.012689   0.000013   0.075634   0.000172
 729   9  -2.176332   5.934337   2.213635  -0.000083   0.162343  -0.000509
 730   9  -3.544417   5.403476   2.946259   0.000125   0.162343   0.000772
 731   9  -4.117730   4.032222   3.639930   0.000169   0.162343   0.001041
 732  32  -1.350567   1.341560  -4.618255  -0.000134   0.058110  -0.002303
 733   9  -2.509508   2.446569  -3.753882   0.000295   0.085267   0.003461
 734  10   0.629010   2.879981  -3.755846   0.000340   0.220475   0.001541
 735  12   0.493662   3.724373  -3.263349  -0.001215   0.220475  -0.005511
 736  27  -0.249642   3.702955  -3.272170  -0.001311   0.220475  -0.005948
 737  12   1.699862   3.998258  -3.318088  -0.000587   0.408578  -0.001436
 738  10   1.672608   2.840960  -4.232847   0.001826   0.578233   0.003158
 739  10   5.431183  -1.386982  -5.056873   0.000077   0.078759   0.000972
 740  17   6.249122  -1.425820  -4.619096  -0.000167   0.078759  -0.002127
 741  30   5.541266  -1.105706  -5.089951  -0.000106   0.078759  -0.001345
 742  10   5.069299  -2.955223  -4.395809   0.000329   0.077989   0.004220
 743  17   5.900293  -2.842240  -3.999212   0.000091   0.077989   0.001168
 744  31   4.945575  -3.215557  -4.290860   0.000030   0.077989   0.000380
 745  17   6.565506  -2.349257  -4.235813  -0.001323   0.344238  -0.003842
 746  10   5.364407  -2.128023  -4.907103   0.001579   0.485237   0.003254
 747  10   0.311316  -4.037452  -2.838738   0.000132   0.082674   0.001596
 748  19  -0.072910  -4.264990  -1.996717   0.000134   0.082674   0.001615
 749  31   0.558657  -4.218852  -2.854487   0.000036   0.082674   0.000430
 750  19  -0.834642  -4.219596  -1.734244  -0.000083   0.188598  -0.000442
 751  10  -0.154467  -3.870112  -2.923863   0.000903   0.266678   0.003388
 752  10  -0.916862  -2.382421  -4.276565  -0.000026   0.066045  -0.000389
 753  21  -1.810650  -2.120834  -3.926440  -0.000216   0.066045  -0.003276
 754  32  -1.103828  -2.163726  -4.369192  -0.000201   0.066045  -0.003040
 755  21  -2.216756  -2.459234  -3.474524  -0.000465   0.291671  -0.001594
 756  10  -0.853274  -2.979599  -3.724525   0.001160   0.413721   0.002804
 757  10   0.256993   2.226501  -4.298393   0.000027   0.117644   0.000233
 758  27  -0.582712   2.956217  -3.643886  -0.000030   0.117644  -0.000258
 759  32  -0.012425   2.098518  -4.365219  -0.000136   0.117644  -0.001159
 760  27  -0.761558   3.772751  -3.549734  -0.000234   0.115321  -0.002032
 761  10   0.460167   2.577007  -4.406222   0.000569   0.170961   0.003326
 762  30   5.101886  -0.922974  -5.579188  -0.000069   0.066645  -0.001041
 763  30   4.343679  -0.380250  -6.128330  -0.000226   0.147207  -0.001537
 764  30   3.544224   0.651521  -6.239307  -0.000219   0.147207  -0.001490
 765  30   3.169718   1.761492  -5.653044  -0.000085   0.147207  -0.000578
 766  30   3.248525   2.458245  -4.828843  -0.000034   0.066645  -0.000510
 767  10   4.593412  -1.096577  -5.818103   0.000014   0.146788   0.000097
 768  10   3.581643  -0.161475  -6.336105   0.000005   0.146788   0.000034
 769  10   2.887195   1.105456  -6.054953   0.000130   0.146788   0.000884
 770  10   2.782360   2.207455  -5.084887   0.000121   0.146788   0.000826
 771  31   0.805070  -4.274836  -3.579348  -0.000046   0.075022  -0.000617
 772  31   1.354450  -4.055096  -4.619254  -0.000174   0.169298  -0.001030
 773  31   2.596361  -3.750406  -5.283664  -0.000314   0.169298  -0.001852
 774  31   3.984457  -3.530712  -4.965007  -0.000249   0.169298  -0.001469
 775  10   0.689844  -3.896107  -4.059253   0.000114   0.161997   0.000702
 776  10   1.732471  -3.567995  -5.252037   0.000074   0.161997   0.000459
 777  10   3.306073  -3.254242  -5.458910   0.000059   0.161997   0.000361
 778  10   4.492296  -3.099087  -4.900434   0.000176   0.091656   0.001924
 779  32   0.301603   1.726323  -5.060991  -0.000030   0.071406  -0.000426
 780  32   0.517345   0.896271  -5.836023  -0.000204   0.160190  -0.001272
 781  32   0.396327  -0.447551  -6.188719  -0.000333   0.160190  -0.002077
 782  32  -0.126492  -1.647857  -5.708280  -0.000314   0.160190  -0.001960
 783  32  -0.691757  -2.198949  -4.863899  -0.000055   0.071406  -0.000772
 784  10   0.800310   1.553569  -5.361202   0.000154   0.154948   0.000993
 785  10   0.928037   0.226856  -6.183558   0.000064   0.154948   0.000414
 786  10   0.544268  -1.289613  -6.107415  -0.000082   0.154948  -0.000532
 787  10  -0.178114  -2.312685  -5.167073   0.000023   0.154948   0.000148
 788  18   6.689219   3.577988  -1.859154  -0.000717   0.184213  -0.003890
 789  18   7.194256   3.993924  -0.946939  -0.002338   0.368885  -0.006338
 790  18   7.492180   3.924631   0.391434  -0.002207   0.368885  -0.005983
 791  18   7.411559   3.409983   1.385837  -0.000479   0.184213  -0.002599
 792  11   5.989951   4.345464  -1.295185  -0.001663   0.368885  -0.004507
 793  11   6.499579   4.639386  -0.054745  -0.002278   0.368885  -0.006177
 794  11   6.556346   4.213729   1.249246  -0.001977   0.368885  -0.005361
 795  27  -0.841185   6.134488  -1.186751  -0.000668   0.214067  -0.003119
 796  27  -0.723881   5.576872  -2.401097  -0.003231   0.429686  -0.007520
 797  27  -0.643872   4.520808  -3.224299  -0.001438   0.214067  -0.006718
 798  12   0.252006   5.957193  -1.569405  -0.002834   0.429686  -0.006596
 799  12   0.374891   4.952209  -2.838370  -0.003384   0.429686  -0.007874
 800  13   1.946380   1.376023   4.437801   0.000006   0.319611   0.000017
 801  14   2.616997   0.525374   4.611727   0.000112   0.319611   0.000350
 802  20   1.494025   0.422429   4.591831   0.000128   0.319611   0.000400
 803  14   4.232162   1.498075   4.768076  -0.000063   0.319655  -0.000196
 804  14   3.380388   0.873013   4.975848  -0.000097   0.319655  -0.000303
 805  13   2.858505   2.375863   4.567484   0.000082   0.639818   0.000128
 806  13   0.041056   2.358487   4.259643  -0.000835   0.271625  -0.003072
 807  20  -0.401659   1.398703   4.373886   0.000181   0.271625   0.000666
 808  29  -0.850344   2.425903   4.187359  -0.000656   0.271625  -0.002413
 809  20   0.751448   0.568852   4.939504   0.000034   0.230739   0.000149
 810  20   0.019517   0.903572   4.866386   0.000095   0.230739   0.000412
 811  13   1.023822   2.077661   4.653872  -0.000621   0.461351  -0.001346
 812  29  -1.032437   3.238435   4.406639  -0.000816   0.237581  -0.003433
 813  29  -0.918615   4.435581   4.038344  -0.002057   0.475817  -0.004323
 814  29  -0.795109   5.343623   3.176972  -0.000355   0.237581  -0.001496
 815  13   0.267867   3.613251   4.379889  -0.002058   0.475817  -0.004325
 816  13   0.415761   4.925127   3.613605  -0.001239   0.475817  -0.002605
 817  20   1.464063  -1.733902   5.050526   0.000283   0.253995   0.001116
 818  20   1.359545  -0.633278   5.126898  -0.000039   0.507754  -0.000076
 819  14   3.013263  -1.167635   5.145377   0.000444   0.507754   0.000874
 820  14   2.910655  -0.064308   5.128914   0.000110   0.253995   0.000435
 821  15   2.802225  -4.847679  -0.212753   0.000086   0.312618   0.000276
 822  19   1.711585  -4.835078  -0.370619  -0.000046   0.312618  -0.000147
 823  31   2.390620  -4.734409  -1.202251  -0.000165   0.312618  -0.000529
 824  19   1.382778  -5.295161   0.266505   0.000020   0.275641   0.000071
 825  19   1.210563  -5.185578   1.464678   0.000200   0.551230   0.000363
 826  15   2.858958  -5.305377   0.952175  -0.000261   0.551230  -0.000474
 827  15   2.690185  -5.084328   2.135365   0.000242   0.275641   0.000879
 828  31   4.308249  -4.731999  -2.228188  -0.000127   0.237404  -0.000535
 829  31   3.332995  -5.007108  -1.855819  -0.000670   0.474669  -0.001412
 830  15   4.522849  -5.029903  -0.693603   0.000039   0.474669   0.000081
 831  15   3.533732  -5.220688  -0.305387   0.000046   0.237404   0.000192
 832  30   6.155915   0.369345  -4.934147  -0.000671   0.285065  -0.002352
 833  30   5.821974  -0.668674  -5.200871  -0.000155   0.285065  -0.000545
 834  17   7.018251  -0.639472  -4.450012  -0.001760   0.571829  -0.003078
 835  31   4.998981  -3.671701  -4.099143   0.000463   0.300462   0.001542
 836  31   4.955869  -4.185982  -3.207242   0.000111   0.300462   0.000370
 837  17   6.370732  -3.425515  -3.295618  -0.000726   0.601280  -0.001207
 838  30   5.525645   2.317063  -3.849800  -0.000123   0.270791  -0.000453
 839  18   6.723675   2.640821  -2.793616   0.000395   0.270791   0.001460
 840  22  -3.647394  -4.914629  -0.133096   0.000269   0.275015   0.000977
 841  22  -3.446134  -5.259168   1.042424  -0.000492   0.550132  -0.000894
 842  22  -3.235832  -5.022988   2.242861   0.000106   0.275015   0.000386
 843  19  -2.082064  -5.093565   0.049414  -0.000429   0.550132  -0.000780
 844  19  -1.825519  -5.161110   1.530453   0.000038   0.550132   0.000070
 845  31   1.972925  -5.040634  -1.854895  -0.000058   0.252986  -0.000230
 846  31   1.093466  -4.783262  -2.539819   0.000142   0.505887   0.000281
 847  19   0.674493  -5.121414  -0.948042  -0.000513   0.505887  -0.001014
 848  19  -0.190456  -4.769781  -1.609123   0.000047   0.252986   0.000187
 849  20  -2.204755   0.552329   4.309130   0.000394   0.382103   0.001030
 850  23  -3.438098   0.721358   4.255693   0.000362   0.382103   0.000948
 851  29  -2.659114   1.582322   4.107326   0.000254   0.382103   0.000664
 852  23  -3.942123  -0.718376   4.953633   0.000610   0.283151   0.002154
 853  23  -3.819258   0.134306   4.830675   0.000372   0.283151   0.001313
 854  20  -2.128495  -0.538931   4.930872   0.000278   0.565739   0.000491
 855  29  -1.899077   2.202853   4.436482  -0.000115   0.414830  -0.000277
 856  20  -1.057957   0.843540   4.754023   0.000168   0.414830   0.000406
 857  26  -5.437861  -1.015229  -4.480166   0.000306   0.267871   0.001143
 858  26  -5.079023  -2.202571  -4.186753  -0.000650   0.536143  -0.001213
 859  26  -4.868389  -3.149400  -3.359839  -0.000043   0.267871  -0.000161
 860  21  -3.956944  -1.032249  -4.233633  -0.000715   0.536143  -0.001333
 861  21  -3.602085  -2.362129  -3.535516  -0.000442   0.536143  -0.000824
 862  32  -1.365059  -1.877377  -4.669936  -0.000419   0.242475  -0.001727
 863  32  -1.606446  -0.611719  -5.059478  -0.002614   0.486199  -0.005376
 864  32  -1.542945   0.720342  -4.876497  -0.001061   0.242475  -0.004374
 865  21  -2.526473  -1.431426  -4.291295  -0.002086   0.486199  -0.004290
 866  21  -2.637254   0.186337  -4.419934  -0.002035   0.486199  -0.004185
 867  26  -5.924394  -4.267835  -2.073314   0.000054   0.006907   0.007884
 868  22  -5.288325  -4.697958  -0.819084   0.000061   0.006907   0.008841
 869  28  -6.655104   3.248011   2.250514   0.000228   0.209925   0.001085
 870  23  -6.799711   2.087632   3.172631   0.000235   0.209925   0.001122
 871  29  -3.740533   2.855511   4.297962   0.000605   0.267958   0.002258
 872  29  -3.092115   2.291600   4.410851   0.000371   0.267958   0.001386
 873  23  -4.514305   1.354523   4.571662  -0.000076   0.535587  -0.000142
 874  28  -6.393747   4.311234  -1.751737  -0.000411   0.226662  -0.001813
 875  28  -7.095623   4.374408  -0.697845  -0.002314   0.454161  -0.005095
 876  28  -7.459661   3.982385   0.451548  -0.000816   0.226662  -0.003598
 877  25  -7.495133   3.654441  -1.860969  -0.002472   0.454161  -0.005443
 878  25  -8.159309   3.449533  -0.488092  -0.001905   0.454161  -0.004194
 879  32  -0.806534   1.830988  -4.615344  -0.000208   0.489302  -0.000424
 880  27  -1.426462   3.319616  -3.751004  -0.000347   0.489302  -0.000710
 =====================================================


   1 warning(s) detected.
     A line exceeding 80 characters begins with "http://cactus.nci.ni".
 There may be a problem in your input file.

              9360015  WORDS OF DYNAMIC MEMORY USED
 EXECUTION OF GAMESS TERMINATED NORMALLY Wed Nov 23 12:53:03 2016
 DDI: 263640 bytes (0.3 MB / 0 MWords) used by master data server.

 ----------------------------------------
 CPU timing information for all processes
 ========================================
 0: 11198.884 + 2.612 = 11201.496
 ----------------------------------------
 ddikick.x: exited gracefully.
