----- GAMESS execution script -----

          ******************************************************
          *         GAMESS VERSION =  5 DEC 2014 (R1)          *
          *             FROM IOWA STATE UNIVERSITY             *
          * M.W.SCHMIDT, K.K.BALDRIDGE, J.A.BOATZ, S.T.ELBERT, *
          *   M.S.GORDON, J.H.JENSEN, S.KOSEKI, N.MATSUNAGA,   *
          *          K.A.NGUYEN, S.J.SU, T.L.WINDUS,           *
          *       TOGETHER WITH M.DUPUIS, J.A.MONTGOMERY       *
          *         J.COMPUT.CHEM.  14, 1347-1363(1993)        *
          **************** 64 BIT LINUX VERSION ****************

 EXECUTION OF GAMESS BEGUN Wed Nov 23 10:34:29 2016

            ECHO OF THE FIRST FEW INPUT CARDS -
 INPUT CARD>! SELECT RESTRICTED HARTREE-FOCK AS DEFAULT                                     
 INPUT CARD>$contrl scftyp=rhf $end                                                         
 INPUT CARD>                                                                                
 INPUT CARD>! THEORY: HF OR DFT                                                             
 INPUT CARD> $contrl mplevl=0 $end                                                          
 INPUT CARD>                                                                                
 INPUT CARD> $system timlim=10000 mwords=20 $end                                            
 INPUT CARD> $SCF DIRSCF=.TRUE. $end                                                        
 INPUT CARD>                                                                                
 INPUT CARD>                                                                                
 INPUT CARD>! BASIS SETS                                                                    
 INPUT CARD>! 6-311G(d,p)                                                                   
 INPUT CARD> $BASIS GBASIS=N311 NGAUSS=6 NDFUNC=1 NPFUNC=1 $END                             
 INPUT CARD>                                                                                
 INPUT CARD>! One of the following                                                          
 INPUT CARD> $guess guess=HUCKEL $end                                                       
 INPUT CARD>                                                                                
 INPUT CARD> $statpt projct=.FALSE. $end                                                    
 INPUT CARD> $STATPT IFREEZ(1)=1,2,3 $END                                                   
 INPUT CARD>                                                                                
 INPUT CARD>! Optimize the geometry with COSMO effects                                      
 INPUT CARD> $statpt opttol=0.0005 nstep=50 $end                                            
 INPUT CARD> $contrl nzvar=1 $end                                                           
 INPUT CARD> $zmat dlc=.t. auto=.t. $end                                                    
 INPUT CARD> $contrl runtyp=OPTIMIZE maxit=200 $end                                         
 INPUT CARD>                                                                                
 INPUT CARD>! Run COSMO on perfect conductor                                                
 INPUT CARD> $COSGMS PRFCND=.TRUE. $end                                                     
 INPUT CARD>                                                                                
 INPUT CARD>! Specifying RSOLV                                                              
 INPUT CARD> $COSGMS COSRAD = 1.4 $end                                                      
 INPUT CARD>                                                                                
 INPUT CARD>! available memory                                                              
 INPUT CARD> $SYSTEM MWORDS=40 $END                                                         
 INPUT CARD>                                                                                
 INPUT CARD> $DATA                                                                          
 INPUT CARD>Hexane, 3,4-dimethyl-, ID: C583482                                              
 INPUT CARD>C1                                                                              
 INPUT CARD>C      6.0      3.2073000000    0.5986000000    1.0983000000                    
 INPUT CARD>C      6.0      3.2878000000    2.0185000000    1.6412000000                    
 INPUT CARD>C      6.0      0.8187000000    2.5503000000    1.8011000000                    
 INPUT CARD>C      6.0      2.1222000000    2.8520000000    1.0970000000                    
 INPUT CARD>C      6.0      4.6399000000    2.6652000000    1.2807000000                    
 INPUT CARD>C      6.0      5.8141000000    1.8487000000    1.8310000000                    
 INPUT CARD>C      6.0      7.1317000000    2.3329000000    1.2678000000                    
 INPUT CARD>C      6.0      4.7352000000    4.0878000000    1.8141000000                    
 INPUT CARD>H      1.0      4.0733000000    0.0000000000    1.4250000000                    
 INPUT CARD>H      1.0      2.2989000000    0.0881000000    1.4434000000                    
 INPUT CARD>H      1.0      3.1987000000    0.5825000000    0.0000000000                    
 INPUT CARD>H      1.0      3.2125000000    1.9817000000    2.7565000000                    
   40000000 WORDS OF MEMORY AVAILABLE

     BASIS OPTIONS
     -------------
     GBASIS=N311         IGAUSS=       6      POLAR=POPN311 
     NDFUNC=       1     NFFUNC=       0     DIFFSP=       F
     NPFUNC=       1      DIFFS=       F     BASNAM=        


     RUN TITLE
     ---------
 Hexane, 3,4-dimethyl-, ID: C583482                                              

 THE POINT GROUP OF THE MOLECULE IS C1      
 THE ORDER OF THE PRINCIPAL AXIS IS     0

 ATOM      ATOMIC                      COORDINATES (BOHR)
           CHARGE         X                   Y                   Z
 C           6.0     6.0609181604        1.1311899763        2.0754860523
 C           6.0     6.2130411024        3.8144119062        3.1014182910
 C           6.0     1.5471186661        4.8193681865        3.4035854765
 C           6.0     4.0103764911        5.3894985170        2.0730294085
 C           6.0     8.7681396104        5.0364977025        2.4201720725
 C           6.0    10.9870558652        3.4935364335        3.4600882835
 C           6.0    13.4769588266        4.4085417568        2.3957946072
 C           6.0     8.9482304971        7.7248218926        3.4281519143
 H           1.0     7.6974208658        0.0000000000        2.6928595325
 H           1.0     4.3442910732        0.1664848595        2.7276304907
 H           1.0     6.0446665169        1.1007653878        0.0000000000
 H           1.0     6.0707447356        3.7448699899        5.2090296852
 H           1.0     1.6633368144        5.2171555069        5.4374975571
 H           1.0     0.0000000000        5.9677546692        2.6354118625
 H           1.0     0.9992871023        2.8275969954        3.1972273986
 H           1.0     3.8072309475        5.0695679073        0.0130391093
 H           1.0     4.4589974406        7.4356938165        2.2746631714
 H           1.0     8.9198846072        5.0912997561        0.3129386236
 H           1.0    10.7052977204        1.4579235995        3.0163806216
 H           1.0    11.0074649059        3.6106994447        5.5512590615
 H           1.0    15.0879502312        3.5298191725        3.3578541076
 H           1.0    13.6502466997        3.9859990259        0.3722760196
 H           1.0    13.6470341655        6.4753350695        2.6119792602
 H           1.0     8.7373370768        7.7885056584        5.4917326929
 H           1.0    10.8063980608        8.5421283823        2.9629013761
 H           1.0     7.4649845693        8.9367031685        2.6157587122

          INTERNUCLEAR DISTANCES (ANGS.)




     $CONTRL OPTIONS
     ---------------
 SCFTYP=RHF          RUNTYP=OPTIMIZE     EXETYP=RUN     
 MPLEVL=       0     CITYP =NONE         CCTYP =NONE         VBTYP =NONE    
 DFTTYP=NONE         TDDFT =NONE    
 MULT  =       1     ICHARG=       0     NZVAR =       1     COORD =UNIQUE  
 PP    =NONE         RELWFN=NONE         LOCAL =NONE         NUMGRD=       F
 ISPHER=      -1     NOSYM =       0     MAXIT =     200     UNITS =ANGS    
 PLTORB=       F     MOLPLT=       F     AIMPAC=       F     FRIEND=        
 NPRINT=       7     IREST =       0     GEOM  =INPUT   
 NORMF =       0     NORMP =       0     ITOL  =      20     ICUT  =       9
 INTTYP=BEST         GRDTYP=BEST         QMTTOL= 1.0E-06

     $SYSTEM OPTIONS
     ---------------
  REPLICATED MEMORY=    40000000 WORDS (ON EVERY NODE).
 DISTRIBUTED MEMDDI=           0 MILLION WORDS IN AGGREGATE,
 MEMDDI DISTRIBUTED OVER   1 PROCESSORS IS           0 WORDS/PROCESSOR.
 TOTAL MEMORY REQUESTED ON EACH PROCESSOR=    40000000 WORDS.
 TIMLIM=       10000.00 MINUTES, OR       6.9 DAYS.
 PARALL= F  BALTYP=  DLB     KDIAG=    0  COREFL= F
 MXSEQ2=     300 MXSEQ3=     150  mem10=         0

     $COSGMS OPTIONS
     ---------------
     EPSI  =   INFTY     NSPA  =      92     COSRAD=    1.40
     DISEX =   10.00     OUTCHG=DBLCAV       COSBUG=       F
     COSWRT=       F     DCOSMO=       F

     SYMMETRY COORDINATES WILL NOT BE USED FOR 
     THE COSMO CALCULATION, EVEN IF SPECIFIED:
         -- SWITCHING TO C1 POINT GROUP --


     DEFINITION OF CAVITY
     ---------------------------
     ATOM         COORDINATES           RADIUS 
     1    6.0609    1.1312    2.0755    2.0000
     2    6.2130    3.8144    3.1014    2.0000
     3    1.5471    4.8194    3.4036    2.0000
     4    4.0104    5.3895    2.0730    2.0000
     5    8.7681    5.0365    2.4202    2.0000
     6   10.9871    3.4935    3.4601    2.0000
     7   13.4770    4.4085    2.3958    2.0000
     8    8.9482    7.7248    3.4282    2.0000
     9    7.6974    0.0000    2.6929    1.3000
    10    4.3443    0.1665    2.7276    1.3000
    11    6.0447    1.1008    0.0000    1.3000
    12    6.0707    3.7449    5.2090    1.3000
    13    1.6633    5.2172    5.4375    1.3000
    14    0.0000    5.9678    2.6354    1.3000
    15    0.9993    2.8276    3.1972    1.3000
    16    3.8072    5.0696    0.0130    1.3000
    17    4.4590    7.4357    2.2747    1.3000
    18    8.9199    5.0913    0.3129    1.3000
    19   10.7053    1.4579    3.0164    1.3000
    20   11.0075    3.6107    5.5513    1.3000
    21   15.0880    3.5298    3.3579    1.3000
    22   13.6502    3.9860    0.3723    1.3000
    23   13.6470    6.4753    2.6120    1.3000
    24    8.7373    7.7885    5.4917    1.3000
    25   10.8064    8.5421    2.9629    1.3000
    26    7.4650    8.9367    2.6158    1.3000

          ----------------
          PROPERTIES INPUT
          ----------------

     MOMENTS            FIELD           POTENTIAL          DENSITY
 IEMOM =       1   IEFLD =       0   IEPOT =       0   IEDEN =       0
 WHERE =COMASS     WHERE =NUCLEI     WHERE =NUCLEI     WHERE =NUCLEI  
 OUTPUT=BOTH       OUTPUT=BOTH       OUTPUT=BOTH       OUTPUT=BOTH    
 IEMINT=       0   IEFINT=       0                     IEDINT=       0
                                                       MORB  =       0
          EXTRAPOLATION IN EFFECT
          SOSCF IN EFFECT
 ORBITAL PRINTING OPTION: NPREO=     1   260     2     1

     -------------------------------
     INTEGRAL TRANSFORMATION OPTIONS
     -------------------------------
     NWORD  =            0
     CUTOFF = 1.0E-09     MPTRAN =       0
     DIRTRF =       T     AOINTS =DUP     

          ----------------------
          INTEGRAL INPUT OPTIONS
          ----------------------
 NOPK  =       1 NORDER=       0 SCHWRZ=       T


 -----------------------------------------------
  STATISTICS ON AUTOMATIC COORDINATE GENERATION 
 -----------------------------------------------
  NUMBER OF USER SPECIFIED BONDS                             0
  NUMBER OF BONDS                                           25
  NUMBER OF ANGLES                                          48
  NUMBER OF TORSIONS                                        63
  NUMBER OF EXTRA COORD.                                     0
  NUMBER OF EXTRA COORD. FOR CONSTRAINTS                     0
  NUMBER OF CONSTRAINED COORD.                               0

  TOTAL NUMBER OF PRIMITIVES                               136
 -----------------------------------------------

   --- ENCODED Z MATRIX ---
 COORD  TYPE   I   J   K   L   M   N
    1      1    1   9
    2      1    1  11
    3      1    1  10
    4      1    1   2
    5      1    2  12
    6      1    2   4
    7      1    2   5
    8      1    3  15
    9      1    3  13
   10      1    3  14
   11      1    3   4
   12      1    4  16
   13      1    4  17
   14      1    5   8
   15      1    5   6
   16      1    5  18
   17      1    6   7
   18      1    6  20
   19      1    6  19
   20      1    7  23
   21      1    7  22
   22      1    7  21
   23      1    8  26
   24      1    8  25
   25      1    8  24
   26      2    1   2  12
   27      2    1   2   4
   28      2    1   2   5
   29      2    2   1  10
   30      2    2   1  11
   31      2    2   4  17
   32      2    2   5   8
   33      2    2   1   9
   34      2    2   5  18
   35      2    2   5   6
   36      2    2   4   3
   37      2    2   4  16
   38      2    3   4  17
   39      2    3   4  16
   40      2    4   3  14
   41      2    4   2   5
   42      2    4   3  15
   43      2    4   2  12
   44      2    4   3  13
   45      2    5   8  26
   46      2    5   6  20
   47      2    5   2  12
   48      2    5   6  19
   49      2    5   6   7
   50      2    5   8  24
   51      2    5   8  25
   52      2    6   5   8
   53      2    6   7  22
   54      2    6   7  23
   55      2    6   7  21
   56      2    6   5  18
   57      2    7   6  19
   58      2    7   6  20
   59      2    8   5  18
   60      2    9   1  10
   61      2    9   1  11
   62      2   10   1  11
   63      2   13   3  14
   64      2   13   3  15
   65      2   14   3  15
   66      2   16   4  17
   67      2   19   6  20
   68      2   21   7  22
   69      2   21   7  23
   70      2   22   7  23
   71      2   24   8  25
   72      2   24   8  26
   73      2   25   8  26
   74      3    1   2   5  18
   75      3    1   2   4   3
   76      3    1   2   5   6
   77      3    1   2   5   8
   78      3    1   2   4  17
   79      3    1   2   4  16
   80      3    2   5   8  24
   81      3    2   5   8  25
   82      3    2   5   8  26
   83      3    2   4   3  14
   84      3    2   4   3  13
   85      3    2   4   3  15
   86      3    2   5   6  19
   87      3    2   5   6  20
   88      3    2   5   6   7
   89      3    3   4   2   5
   90      3    3   4   2  12
   91      3    4   2   5   8
   92      3    4   2   1  10
   93      3    4   2   1  11
   94      3    4   2   5   6
   95      3    4   2   1   9
   96      3    4   2   5  18
   97      3    5   2   4  16
   98      3    5   2   1  10
   99      3    5   2   4  17
  100      3    5   2   1  11
  101      3    5   6   7  21
  102      3    5   6   7  22
  103      3    5   6   7  23
  104      3    5   2   1   9
  105      3    6   5   8  25
  106      3    6   5   8  24
  107      3    6   5   8  26
  108      3    6   5   2  12
  109      3    7   6   5  18
  110      3    7   6   5   8
  111      3    8   5   2  12
  112      3    8   5   6  19
  113      3    8   5   6  20
  114      3    9   1   2  12
  115      3   10   1   2  12
  116      3   11   1   2  12
  117      3   12   2   4  16
  118      3   12   2   4  17
  119      3   12   2   5  18
  120      3   13   3   4  16
  121      3   13   3   4  17
  122      3   14   3   4  16
  123      3   14   3   4  17
  124      3   15   3   4  16
  125      3   15   3   4  17
  126      3   18   5   8  25
  127      3   18   5   8  24
  128      3   18   5   6  19
  129      3   18   5   6  20
  130      3   18   5   8  26
  131      3   19   6   7  21
  132      3   19   6   7  23
  133      3   19   6   7  22
  134      3   20   6   7  21
  135      3   20   6   7  23
  136      3   20   6   7  22

          INDEP./SYM. INTERNAL COORDINATES
          --------------------------------
 CRD  1=  -0.1183 ( 26)  0.2312 ( 28) -0.1085 ( 31) -0.2239 ( 32)  0.3710 ( 35)
           0.2968 ( 36) -0.3660 ( 41)  0.1080 ( 43)  0.1067 ( 46)  0.1123 ( 48)
          -0.3155 ( 49) -0.1145 ( 52) -0.1052 ( 56)  0.1225 ( 59)  0.1175 ( 80)
           0.1151 ( 81)  0.1338 ( 82)  0.1054 ( 86) -0.1209 ( 92) -0.1234 ( 93)
          -0.1059 ( 95)  0.1182 ( 98)  0.1030 ( 99)  0.1157 (100)  0.1332 (104)
          -0.1253 (105) -0.1229 (106) -0.1066 (107)
 CRD  2=   0.1222 (  6) -0.1199 ( 15) -0.2530 ( 28)  0.3465 ( 32) -0.1480 ( 34)
           0.2227 ( 36) -0.1302 ( 39)  0.1528 ( 41)  0.1026 ( 46)  0.1110 ( 48)
          -0.3437 ( 49) -0.2393 ( 52)  0.1423 ( 58)  0.1170 ( 77) -0.1445 ( 86)
          -0.1916 ( 87) -0.2124 ( 88) -0.2324 ( 89)  0.1769 ( 91)  0.1070 ( 94)
          -0.1680 ( 97) -0.1460 ( 99)  0.1214 (112)
 CRD  3=   0.1111 (  6) -0.1503 (  7)  0.3313 ( 27) -0.2365 ( 28) -0.1461 ( 31)
          -0.1787 ( 35)  0.4102 ( 36) -0.1162 ( 37) -0.1282 ( 38) -0.1169 ( 39)
          -0.1420 ( 41)  0.1267 ( 47) -0.1030 ( 48)  0.2358 ( 49)  0.2839 ( 52)
          -0.1057 ( 57)  0.1005 ( 74)  0.1095 ( 75)  0.2212 ( 76)  0.1188 ( 78)
          -0.1214 ( 91) -0.1091 ( 92) -0.1002 ( 95) -0.1102 ( 97)  0.1047 (108)
          -0.1141 (110)
 CRD  4=  -0.2148 (  6) -0.4252 (  7) -0.1812 ( 11) -0.2645 ( 15) -0.2277 ( 17)
           0.2257 ( 27) -0.1018 ( 28) -0.1426 ( 35) -0.3058 ( 36)  0.1397 ( 39)
          -0.1259 ( 41) -0.3675 ( 49)  0.1168 ( 52)  0.1234 ( 57)  0.1464 ( 58)
          -0.1132 ( 91)
 CRD  5=  -0.1638 (  4) -0.1319 (  6) -0.1288 ( 11)  0.1521 ( 14) -0.2281 ( 27)
           0.1446 ( 28) -0.1214 ( 29) -0.1368 ( 32) -0.1122 ( 36)  0.1198 ( 38)
          -0.1280 ( 42)  0.1550 ( 43)  0.1166 ( 51)  0.2359 ( 52) -0.1527 ( 56)
          -0.1925 ( 75)  0.1873 ( 76)  0.1253 ( 83) -0.1851 ( 88) -0.1692 ( 89)
           0.1859 ( 91)  0.3812 ( 94)  0.1892 ( 96)  0.1314 (101)  0.1977 (108)
          -0.2053 (110)
 CRD  6=   0.2143 (  4) -0.2185 (  6)  0.2232 ( 14) -0.2429 ( 15) -0.1057 ( 17)
          -0.1254 ( 26)  0.2897 ( 28) -0.1047 ( 31)  0.2924 ( 32)  0.1090 ( 33)
          -0.2670 ( 35)  0.1473 ( 36) -0.2409 ( 41)  0.1355 ( 43)  0.1135 ( 45)
          -0.1123 ( 48)  0.1095 ( 49)  0.1030 ( 50)  0.1247 ( 56) -0.1309 ( 59)
          -0.1341 ( 75) -0.1276 ( 79) -0.1048 ( 82) -0.1079 ( 93)  0.1146 (106)
           0.1705 (110)  0.1019 (112)  0.1425 (113)
 CRD  7=  -0.1301 (  6)  0.1043 ( 15)  0.1115 ( 27) -0.1587 ( 34)  0.1125 ( 35)
          -0.1265 ( 36)  0.1417 ( 37)  0.1695 ( 38) -0.1703 ( 41) -0.1519 ( 42)
          -0.1323 ( 46)  0.1660 ( 47)  0.1402 ( 49)  0.1491 ( 54) -0.1606 ( 57)
          -0.1086 ( 74) -0.1313 ( 75) -0.1700 ( 76) -0.1771 ( 77)  0.1293 ( 81)
          -0.1073 ( 84) -0.1407 ( 86) -0.1325 ( 87) -0.2061 ( 88) -0.1935 ( 89)
          -0.1307 ( 90) -0.1889 ( 91) -0.1818 ( 94) -0.1204 ( 96) -0.1231 ( 97)
           0.1425 ( 98) -0.1268 ( 99)  0.1075 (100)  0.1134 (104) -0.1069 (108)
          -0.1268 (109) -0.1044 (110) -0.1140 (111)
 CRD  8=   0.1526 (  6) -0.1126 ( 15)  0.1106 ( 17) -0.1657 ( 26)  0.2406 ( 27)
           0.2453 ( 30) -0.1982 ( 33) -0.2381 ( 36)  0.1455 ( 37) -0.1012 ( 41)
           0.2015 ( 45) -0.1036 ( 46)  0.2032 ( 49) -0.1909 ( 50) -0.2076 ( 52)
           0.1400 ( 59)  0.2088 ( 74)  0.1961 ( 76)  0.3654 ( 77)  0.1551 ( 91)
           0.1884 (111)
 CRD  9=  -0.1171 (  4)  0.1064 (  6)  0.1606 (  7)  0.1237 ( 15) -0.1051 ( 26)
           0.1245 ( 27) -0.1013 ( 29)  0.1073 ( 30)  0.1476 ( 37)  0.1514 ( 38)
          -0.1264 ( 39) -0.1574 ( 42)  0.1483 ( 44) -0.1380 ( 45)  0.1791 ( 46)
          -0.1199 ( 49)  0.1390 ( 50)  0.1678 ( 52)  0.1557 ( 53) -0.1714 ( 54)
           0.1683 ( 57) -0.1232 ( 58) -0.1260 ( 59) -0.2192 ( 75)  0.1406 ( 76)
          -0.1274 ( 78) -0.1098 ( 79)  0.1865 ( 88) -0.1846 ( 89) -0.1281 ( 90)
          -0.1499 ( 91)  0.1010 (102)  0.1295 (109)  0.2287 (110) -0.1186 (111)
           0.1409 (112)  0.1157 (113)
 CRD 10=   0.3946 (  4)  0.1985 (  6)  0.2770 (  7)  0.4217 ( 14)  0.1982 ( 15)
           0.1106 ( 29)  0.1423 ( 30) -0.1296 ( 36)  0.1009 ( 40) -0.1095 ( 44)
           0.1069 ( 46) -0.1701 ( 49)  0.1605 ( 50)  0.1413 ( 51)  0.1116 ( 52)
          -0.1161 ( 53)  0.1241 ( 55) -0.1209 ( 62) -0.1342 ( 71) -0.1021 ( 72)
          -0.1029 ( 73)  0.1134 ( 76) -0.1281 ( 88)  0.1354 ( 89) -0.1145 ( 91)
 CRD 11=   0.1341 (  6)  0.2205 ( 11) -0.1325 ( 15) -0.2148 ( 17) -0.2619 ( 29)
           0.2035 ( 30) -0.1312 ( 31)  0.1130 ( 34)  0.1006 ( 36) -0.1437 ( 39)
           0.1852 ( 44) -0.1045 ( 46) -0.1068 ( 47)  0.1524 ( 48) -0.2348 ( 50)
           0.2585 ( 51) -0.1525 ( 53)  0.1425 ( 58) -0.1630 ( 75) -0.1059 ( 79)
          -0.1357 ( 80) -0.1365 ( 81) -0.1106 ( 90) -0.1266 ( 94) -0.1275 ( 98)
          -0.1374 (100) -0.1167 (103) -0.1529 (110) -0.1082 (113)
 CRD 12=  -0.3670 (  4) -0.2182 (  6)  0.3750 ( 14)  0.2623 ( 15) -0.1411 ( 31)
          -0.2516 ( 33) -0.1117 ( 40)  0.1840 ( 42) -0.1124 ( 44)  0.2613 ( 45)
           0.1622 ( 48)  0.1446 ( 53) -0.2216 ( 54)  0.1426 ( 60)  0.1310 ( 61)
          -0.1306 ( 72) -0.1506 ( 73) -0.1333 ( 83) -0.1113 ( 85) -0.1540 (101)
          -0.1127 (102) -0.1210 (103)
 CRD 13=  -0.1665 (  4) -0.2938 (  6)  0.1753 (  7)  0.2974 ( 11) -0.2741 ( 15)
           0.2716 ( 17) -0.1493 ( 31) -0.1267 ( 33)  0.3162 ( 42) -0.1039 ( 45)
          -0.1207 ( 48)  0.2670 ( 54)  0.1016 ( 58) -0.1261 ( 64) -0.1392 ( 65)
          -0.1358 ( 69) -0.1016 ( 70) -0.1264 ( 83)  0.1077 (101)
 CRD 14=   0.3984 ( 11) -0.3970 ( 17) -0.1098 ( 30)  0.1021 ( 38)  0.1416 ( 39)
           0.3290 ( 40) -0.3522 ( 55) -0.1336 ( 58) -0.1386 ( 63) -0.1821 ( 65)
           0.1442 ( 68)  0.1848 ( 69)  0.1057 ( 98)
 CRD 15=   0.1391 (  4) -0.1617 (  6)  0.2004 ( 11)  0.1254 ( 14) -0.1516 ( 15)
           0.2626 ( 17)  0.2515 ( 29) -0.1480 ( 30) -0.1362 ( 37) -0.2081 ( 42)
           0.2920 ( 44) -0.1310 ( 46) -0.1526 ( 50)  0.2089 ( 51)  0.3239 ( 53)
          -0.1765 ( 54) -0.1105 ( 60) -0.1609 ( 63) -0.1759 ( 68) -0.1072 ( 73)
           0.1305 ( 83) -0.1228 (101)
 CRD 16=   0.3428 (  7) -0.2723 ( 11) -0.1606 ( 15) -0.2249 ( 17)  0.1062 ( 24)
           0.2936 ( 29) -0.1010 ( 30) -0.1969 ( 33) -0.2605 ( 40) -0.2370 ( 45)
          -0.1044 ( 50)  0.3351 ( 51) -0.2664 ( 55)  0.1282 ( 61)  0.1255 ( 63)
           0.1157 ( 65)  0.1181 ( 68)  0.1023 ( 69)  0.1475 ( 72)
 CRD 17=   0.1199 (  4) -0.2915 (  6)  0.1327 ( 11) -0.1132 ( 14)  0.2590 ( 15)
          -0.1817 ( 17)  0.1561 ( 29)  0.2200 ( 30) -0.2735 ( 33) -0.1331 ( 37)
          -0.1069 ( 40)  0.2860 ( 44)  0.2434 ( 45)  0.1462 ( 46) -0.2110 ( 50)
          -0.1359 ( 51) -0.2733 ( 53) -0.1126 ( 58) -0.1743 ( 62) -0.1108 ( 64)
           0.1135 ( 70)  0.1566 ( 71)
 CRD 18=   0.1231 (  2) -0.1066 (  7)  0.1265 ( 25) -0.1464 ( 29)  0.4118 ( 30)
           0.1186 ( 31) -0.2189 ( 33) -0.1150 ( 37) -0.1528 ( 40)  0.1771 ( 44)
          -0.2519 ( 45) -0.1181 ( 46)  0.1234 ( 48)  0.4192 ( 50) -0.1104 ( 51)
           0.1811 ( 53) -0.1690 ( 55)  0.1544 ( 60) -0.1169 ( 62) -0.1308 ( 71)
           0.1524 ( 73)  0.1009 ( 83)  0.1046 ( 84) -0.1048 (101) -0.1099 (102)
 CRD 19=  -0.1011 (  1)  0.1935 ( 29) -0.3443 ( 33)  0.3199 ( 40) -0.1276 ( 42)
           0.1261 ( 43) -0.1865 ( 44) -0.3191 ( 45)  0.1815 ( 51) -0.1864 ( 53)
          -0.1262 ( 54)  0.3051 ( 55)  0.1197 ( 56)  0.1195 ( 61) -0.1218 ( 62)
           0.1385 ( 64)  0.1346 ( 70) -0.1095 ( 71)  0.1124 ( 72) -0.1152 ( 92)
           0.1107 (105)
 CRD 20=  -0.2859 ( 29)  0.2299 ( 30)  0.1192 ( 31)  0.1348 ( 33) -0.1407 ( 34)
           0.1029 ( 39) -0.1438 ( 40)  0.2310 ( 42) -0.1359 ( 45)  0.1286 ( 47)
          -0.1275 ( 48) -0.2463 ( 50)  0.3033 ( 51) -0.2600 ( 54)  0.1576 ( 55)
          -0.1012 ( 58) -0.1633 ( 61) -0.1061 ( 68)  0.1715 ( 72)  0.1090 ( 81)
           0.1315 ( 82) -0.1155 ( 86)  0.1013 ( 98) -0.1081 ( 99)  0.1216 (104)
 CRD 21=   0.1043 ( 10) -0.1111 ( 11) -0.1052 ( 12)  0.1162 ( 15)  0.1455 ( 17)
           0.1435 ( 18) -0.1170 ( 22) -0.1014 ( 29)  0.2104 ( 30)  0.1368 ( 36)
           0.2892 ( 40) -0.1738 ( 42) -0.2232 ( 44)  0.1594 ( 46) -0.1521 ( 49)
          -0.1938 ( 50)  0.1310 ( 51)  0.2214 ( 53)  0.2524 ( 54) -0.3219 ( 55)
           0.1111 ( 57)  0.1041 ( 60)  0.1918 ( 64) -0.2222 ( 70) -0.1073 ( 73)
 CRD 22=   0.2896 (  7) -0.1190 ( 11) -0.1553 ( 12) -0.1152 ( 14) -0.1081 ( 29)
           0.1639 ( 31)  0.1657 ( 34) -0.2153 ( 37) -0.1990 ( 38)  0.1311 ( 39)
           0.1448 ( 40) -0.2178 ( 44)  0.1038 ( 45) -0.1755 ( 46)  0.1505 ( 47)
           0.1815 ( 48) -0.1576 ( 51) -0.1860 ( 57)  0.1432 ( 58) -0.1191 ( 59)
           0.1308 ( 64)  0.1146 ( 71) -0.1205 ( 78) -0.1079 ( 82)  0.1068 ( 83)
           0.1146 ( 84)  0.1306 ( 85)  0.1096 ( 86) -0.1342 ( 99) -0.1016 (101)
          -0.1084 (102) -0.1185 (103) -0.1268 (109)  0.1031 (112)
 CRD 23=  -0.2152 (  4) -0.1151 (  8)  0.1130 (  9)  0.1830 ( 14)  0.1470 ( 19)
           0.1218 ( 20) -0.1308 ( 21) -0.2145 ( 29)  0.1023 ( 31) -0.1176 ( 38)
          -0.2468 ( 42)  0.2144 ( 44)  0.1007 ( 47)  0.2128 ( 51) -0.2637 ( 53)
           0.3032 ( 54)  0.1612 ( 62) -0.1113 ( 63)  0.1362 ( 65)  0.1260 ( 68)
          -0.1709 ( 69) -0.1274 ( 71)  0.1031 ( 75)  0.1100 ( 88)  0.1512 ( 90)
           0.1274 (109)  0.1316 (110)
 CRD 24=   0.1774 (  6)  0.1061 (  8)  0.1218 ( 11)  0.2303 ( 13)  0.1742 ( 15)
           0.1026 ( 17)  0.1779 ( 19) -0.1139 ( 26)  0.1394 ( 29)  0.1750 ( 31)
          -0.1101 ( 35) -0.1331 ( 36)  0.1068 ( 39) -0.1713 ( 40) -0.1039 ( 41)
           0.3093 ( 42)  0.1298 ( 43)  0.1816 ( 48) -0.1343 ( 49)  0.2274 ( 54)
          -0.1417 ( 55)  0.1102 ( 56)  0.1187 ( 58) -0.1178 ( 59) -0.1531 ( 64)
          -0.1295 ( 70) -0.1037 ( 75) -0.1150 ( 79) -0.1072 ( 92)  0.1001 ( 96)
           0.1004 (105)
 CRD 25=  -0.1591 (  4)  0.1161 (  6)  0.1126 (  7) -0.1213 (  8)  0.1280 (  9)
           0.2700 ( 12) -0.1720 ( 13) -0.1318 ( 14)  0.2600 ( 18) -0.1906 ( 19)
          -0.1019 ( 20)  0.1329 ( 21) -0.1251 ( 26)  0.1224 ( 28)  0.1244 ( 32)
          -0.1074 ( 38)  0.1160 ( 39) -0.1478 ( 42)  0.1981 ( 44)  0.1966 ( 53)
          -0.1326 ( 54) -0.1140 ( 59) -0.1108 ( 63)  0.1149 ( 65)  0.1212 ( 69)
          -0.1932 ( 88)  0.1908 ( 89)  0.1856 ( 90) -0.1839 (109)
 CRD 26=  -0.1368 (  4)  0.1700 (  6)  0.1203 ( 13)  0.1549 ( 14) -0.1852 ( 15)
           0.2085 ( 31) -0.1386 ( 33) -0.1259 ( 37) -0.1606 ( 38)  0.1540 ( 39)
           0.1437 ( 45)  0.1088 ( 46) -0.2056 ( 48)  0.1575 ( 57) -0.1684 ( 58)
           0.1133 ( 59)  0.1104 ( 61) -0.1230 ( 72) -0.1596 ( 74) -0.1256 ( 78)
          -0.1205 ( 79) -0.1001 ( 93) -0.1028 ( 94) -0.1833 ( 96) -0.1017 ( 97)
          -0.1068 ( 99) -0.1016 (105) -0.1031 (106) -0.1785 (108) -0.1503 (111)
          -0.1193 (112) -0.1199 (113) -0.2590 (119)
 CRD 27=   0.1520 (  2)  0.4297 (  5)  0.2288 (  6)  0.1674 ( 12) -0.2271 ( 15)
          -0.4137 ( 16) -0.1677 ( 18) -0.1432 ( 25)  0.1206 ( 30) -0.1625 ( 33)
           0.1201 ( 37)  0.1720 ( 45) -0.1198 ( 46) -0.1036 ( 50)  0.1299 ( 60)
          -0.1199 ( 73) -0.1233 ( 74) -0.1847 ( 77)  0.1036 ( 81)  0.1031 ( 98)
          -0.1194 (111)
 CRD 28=  -0.2062 (  1) -0.2062 (  2) -0.2527 (  3)  0.3415 (  5)  0.1465 (  9)
           0.2731 ( 12) -0.1701 ( 18)  0.1169 ( 19)  0.1805 ( 23)  0.2078 ( 24)
           0.2450 ( 25)  0.1132 ( 30)  0.1387 ( 33)  0.1145 ( 39) -0.1376 ( 45)
          -0.1475 ( 61)  0.1167 ( 72)  0.1084 ( 73) -0.1108 ( 81) -0.1008 ( 82)
          -0.1344 ( 92) -0.1254 ( 93) -0.1427 ( 95) -0.1003 ( 97)
 CRD 29=  -0.1410 (  1) -0.2413 (  2) -0.1268 (  3) -0.4707 (  5) -0.1364 (  7)
          -0.5894 ( 16) -0.1861 ( 18) -0.1005 ( 20) -0.1196 ( 21) -0.1110 ( 25)
          -0.1169 ( 60) -0.1077 (107)  0.1037 (112)
 CRD 30=   0.4265 (  8)  0.4122 (  9)  0.3926 ( 10)  0.1408 ( 11) -0.1599 ( 20)
          -0.1267 ( 21) -0.1398 ( 22) -0.2182 ( 23) -0.1966 ( 24) -0.2240 ( 25)
          -0.1660 ( 40) -0.1436 ( 42) -0.1491 ( 44)  0.1711 ( 63)  0.1554 ( 64)
           0.1661 ( 65)
 CRD 31=  -0.3139 (  1) -0.3090 (  2) -0.3053 (  3) -0.1080 (  4)  0.1300 ( 16)
           0.1282 ( 18)  0.2092 ( 20)  0.2407 ( 21)  0.2053 ( 22) -0.2873 ( 23)
          -0.2861 ( 24) -0.2807 ( 25)  0.1134 ( 29)  0.1219 ( 30)  0.1080 ( 33)
           0.1091 ( 45)  0.1161 ( 50) -0.1164 ( 60) -0.1225 ( 61) -0.1281 ( 62)
          -0.1078 ( 71) -0.1238 ( 72) -0.1023 ( 73)
 CRD 32=   0.1795 (  5) -0.2270 (  8) -0.2210 (  9) -0.2185 ( 10)  0.1802 ( 16)
          -0.1394 ( 17) -0.4047 ( 20) -0.3824 ( 21) -0.3870 ( 22) -0.1536 ( 23)
          -0.1454 ( 24) -0.1290 ( 25)  0.1490 ( 53)  0.1305 ( 54)  0.1497 ( 55)
          -0.1654 ( 68) -0.1456 ( 69) -0.1459 ( 70)
 CRD 33=  -0.2575 (  1) -0.2180 (  2) -0.1663 (  3) -0.1107 (  4) -0.1913 (  5)
           0.1315 (  6)  0.1065 (  8)  0.1053 (  9)  0.1464 ( 10) -0.1338 ( 15)
           0.1616 ( 16) -0.1002 ( 21) -0.1394 ( 22)  0.2082 ( 23)  0.1167 ( 24)
           0.1816 ( 25)  0.1530 ( 29) -0.1449 ( 51) -0.1371 ( 62)  0.1196 ( 71)
           0.1092 ( 80)  0.1361 ( 81)  0.1346 ( 82)  0.1664 ( 92)  0.1431 ( 93)
           0.1690 ( 95)  0.1345 ( 98)  0.1112 (100)  0.1371 (104)  0.1648 (105)
           0.1379 (106)  0.1634 (107) -0.1002 (112)  0.1169 (114)  0.1143 (115)
           0.1143 (126)  0.1128 (130)
 CRD 34=   0.1369 (  1)  0.2061 (  3)  0.1421 (  4)  0.2118 ( 12) -0.3312 ( 13)
          -0.1434 ( 14) -0.1852 ( 18)  0.3154 ( 19) -0.1579 ( 23) -0.2054 ( 24)
          -0.1314 ( 38)  0.1385 ( 57) -0.1448 ( 78) -0.1365 ( 79) -0.1207 ( 83)
          -0.1153 ( 84) -0.1175 ( 85) -0.1243 ( 86) -0.1119 ( 87) -0.1145 ( 97)
          -0.1227 ( 99) -0.1077 (101) -0.1032 (102) -0.1109 (103) -0.1474 (112)
          -0.1350 (113) -0.1389 (117) -0.1471 (118) -0.1440 (128) -0.1316 (129)
 CRD 35=   0.1103 (  3)  0.1601 ( 12) -0.1613 ( 13)  0.1817 ( 18) -0.1837 ( 19)
           0.1237 ( 24)  0.1070 ( 26) -0.1146 ( 38)  0.1415 ( 39) -0.1199 ( 57)
           0.1514 ( 58)  0.1042 ( 59) -0.1058 ( 78) -0.1235 ( 79)  0.1044 ( 80)
           0.1209 ( 81)  0.1109 ( 82)  0.1500 ( 86)  0.1728 ( 87) -0.1603 ( 97)
          -0.1098 ( 98) -0.1427 ( 99) -0.1013 (100) -0.1064 (104)  0.1105 (112)
           0.1333 (113) -0.1013 (115) -0.2020 (117) -0.1844 (118)  0.1146 (126)
           0.1876 (128)  0.2104 (129)  0.1045 (130)  0.1070 (135)  0.1010 (136)
 CRD 36=   0.2225 (  1) -0.1803 (  3) -0.1949 (  8) -0.1966 (  9)  0.4380 ( 10)
          -0.1134 ( 12) -0.1583 ( 13) -0.1186 ( 19) -0.1199 ( 20) -0.1569 ( 21)
           0.3086 ( 22)  0.2214 ( 23) -0.1058 ( 25)  0.1098 ( 61) -0.1204 ( 62)
           0.1071 ( 63) -0.2217 ( 64)  0.1044 ( 65) -0.1572 ( 70) -0.1239 ( 71)
          -0.1291 ( 84)  0.1019 ( 85) -0.1157 (120) -0.1458 (121)  0.1153 (124)
           0.1014 (133)
 CRD 37=  -0.1420 (  8) -0.1408 (  9)  0.3036 ( 10)  0.1033 ( 18)  0.1234 ( 19)
           0.1579 ( 20)  0.3476 ( 21) -0.5279 ( 22) -0.1179 ( 25) -0.1566 ( 64)
          -0.1883 ( 69)  0.2793 ( 70) -0.1313 (102)  0.1624 (103)  0.1584 (132)
          -0.1353 (133)  0.1750 (135) -0.1187 (136)
 CRD 38=  -0.2823 (  1)  0.1635 (  2) -0.1379 (  8) -0.1625 (  9)  0.3093 ( 10)
          -0.3729 ( 23)  0.4409 ( 25)  0.1468 ( 62) -0.1614 ( 64)  0.2002 ( 71)
          -0.2376 ( 73)  0.1704 ( 81) -0.1023 ( 92)  0.1634 (105)  0.1698 (126)
 CRD 39=   0.3153 (  1) -0.3718 (  3)  0.1491 (  8) -0.1623 ( 10)  0.1213 ( 21)
          -0.1087 ( 22) -0.3636 ( 24)  0.3683 ( 25)  0.2047 ( 61) -0.1688 ( 62)
           0.2026 ( 72) -0.2042 ( 73) -0.1595 ( 82) -0.1127 ( 93)  0.1050 ( 95)
          -0.1149 (100)  0.1028 (104) -0.1679 (107) -0.1185 (116) -0.1639 (130)
 CRD 40=   0.1880 (  1) -0.4571 (  2)  0.2743 (  3) -0.3175 (  8)  0.2870 (  9)
          -0.1636 ( 20)  0.1518 ( 21) -0.1132 ( 24)  0.1641 ( 25)  0.2499 ( 60)
          -0.1487 ( 61) -0.1021 ( 62)  0.1688 ( 63) -0.1532 ( 65)  0.1325 ( 83)
           0.1229 ( 92) -0.1470 ( 95)  0.1334 ( 98) -0.1365 (104) -0.1435 (114)
           0.1264 (115)  0.1296 (122)  0.1332 (123)
 CRD 41=  -0.1097 (  2) -0.1302 (  8)  0.1208 (  9)  0.5720 ( 20) -0.4517 ( 21)
          -0.1138 ( 22) -0.3004 ( 68)  0.2413 ( 69)  0.2159 (101) -0.1066 (102)
           0.2041 (131) -0.1184 (133)  0.2104 (134) -0.1121 (136)
 CRD 42=  -0.1546 (  1)  0.3710 (  2) -0.2186 (  3) -0.4107 (  8)  0.4560 (  9)
          -0.2037 ( 60)  0.1231 ( 61)  0.2215 ( 63) -0.2444 ( 65)  0.1772 ( 83)
           0.1231 ( 95) -0.1051 ( 98)  0.1151 (104)  0.1197 (114) -0.1005 (115)
           0.1698 (122)  0.1659 (123)
 CRD 43=  -0.3337 (  1)  0.2862 (  3)  0.4404 ( 23) -0.4765 ( 24) -0.1391 ( 61)
           0.1646 ( 62) -0.2296 ( 71)  0.2463 ( 72)  0.1706 ( 80)  0.1298 ( 93)
           0.1260 (100)  0.1727 (106)  0.1394 (116)  0.1808 (127)
 CRD 44=  -0.1007 (  3)  0.1429 (  7)  0.3081 ( 12)  0.3700 ( 13)  0.3931 ( 18)
           0.4149 ( 19) -0.1183 ( 20) -0.1081 ( 24)  0.1289 ( 66)  0.1570 ( 67)
          -0.1170 (116)  0.1204 (125)  0.1214 (127) -0.1048 (131) -0.1315 (132)
 CRD 45=   0.4289 ( 12)  0.4170 ( 13) -0.3962 ( 18) -0.3797 ( 19)  0.1814 ( 66)
          -0.1722 ( 67) -0.1072 (120)  0.1131 (125) -0.1074 (136)
 CRD 46=  -0.1165 (  3)  0.2646 (  7) -0.2243 ( 12) -0.1623 ( 13) -0.1008 ( 16)
          -0.1390 ( 18) -0.1429 ( 19) -0.1151 ( 24)  0.1190 ( 38)  0.1107 ( 57)
          -0.1194 ( 66)  0.1361 ( 78)  0.1579 ( 80)  0.1243 ( 81)  0.1409 ( 82)
          -0.1484 ( 92) -0.1726 ( 93) -0.1597 ( 95) -0.1355 ( 98) -0.1597 (100)
          -0.1468 (104)  0.1316 (105)  0.1652 (106)  0.1482 (107) -0.1184 (112)
          -0.1929 (114) -0.1816 (115) -0.2058 (116)  0.1534 (118)  0.1721 (126)
           0.2057 (127) -0.1340 (128)  0.1887 (130)
 CRD 47=   0.1368 (  5) -0.2371 ( 12)  0.2471 ( 13) -0.1424 ( 16)  0.2396 ( 18)
          -0.2443 ( 19) -0.1274 ( 83) -0.1338 ( 84) -0.1319 ( 85) -0.1254 (101)
          -0.1312 (102) -0.1285 (103) -0.2180 (120) -0.2106 (121) -0.2115 (122)
          -0.2042 (123) -0.2161 (124) -0.2087 (125) -0.2020 (131) -0.2051 (132)
          -0.2078 (133) -0.2121 (134) -0.2151 (135) -0.2179 (136)
 CRD 48=   0.2655 ( 12) -0.2699 ( 13)  0.2661 ( 18) -0.2653 ( 19)  0.1348 ( 83)
           0.1299 ( 84)  0.1274 ( 85) -0.1343 (101) -0.1304 (102) -0.1257 (103)
           0.1938 (120)  0.1994 (121)  0.1987 (122)  0.2044 (123)  0.1913 (124)
           0.1969 (125) -0.2028 (131) -0.1942 (132) -0.1989 (133) -0.2000 (134)
          -0.1915 (135) -0.1961 (136)
 CRD 49=  -0.1049 (  2)  0.2218 (  5) -0.1464 (  6)  0.1313 (  8)  0.1521 (  9)
           0.2204 ( 10)  0.1234 ( 15) -0.2047 ( 16) -0.1013 ( 20) -0.1376 ( 21)
          -0.1836 ( 22)  0.1093 ( 31)  0.1009 ( 37) -0.1570 ( 38) -0.1334 ( 39)
           0.1709 ( 40)  0.1430 ( 42)  0.1536 ( 44) -0.1339 ( 53) -0.1190 ( 54)
          -0.1439 ( 55)  0.1324 ( 57)  0.1068 ( 58) -0.1965 ( 63) -0.1253 ( 64)
          -0.1806 ( 65)  0.1704 ( 68)  0.1459 ( 69)  0.1059 ( 70) -0.1467 ( 78)
          -0.1021 ( 99) -0.1294 (112) -0.1191 (115) -0.1177 (116)  0.1227 (117)
          -0.1110 (126)  0.1093 (129)
 CRD 50=  -0.1116 (  6) -0.1075 (  7)  0.1257 (  8)  0.1436 (  9)  0.2069 ( 10)
          -0.1161 ( 11) -0.1262 ( 15) -0.1553 ( 17)  0.1430 ( 20)  0.1896 ( 21)
           0.2568 ( 22)  0.1014 ( 31)  0.1081 ( 37) -0.1241 ( 38) -0.1164 ( 39)
           0.1632 ( 40)  0.1397 ( 42)  0.1439 ( 44)  0.1329 ( 46)  0.1201 ( 48)
           0.1817 ( 53)  0.1736 ( 54)  0.2044 ( 55) -0.1446 ( 57) -0.1463 ( 58)
          -0.1866 ( 63) -0.1218 ( 64) -0.1719 ( 65) -0.2395 ( 68) -0.2054 ( 69)
          -0.1505 ( 70) -0.1175 ( 87)  0.1050 (112) -0.1440 (129)
 CRD 51=   0.1030 (  1)  0.2054 (  2)  0.1254 (  3) -0.1567 (  4) -0.1829 (  5)
           0.2154 ( 14)  0.2001 ( 16) -0.1461 ( 23) -0.1607 ( 24) -0.2463 ( 25)
           0.1367 ( 29)  0.1529 ( 30)  0.1267 ( 33) -0.1669 ( 45) -0.1952 ( 50)
          -0.1760 ( 51) -0.1027 ( 60) -0.1618 ( 61) -0.1803 ( 62)  0.2177 ( 71)
           0.2045 ( 72)  0.1461 ( 73)  0.1049 (109)  0.1485 (117) -0.1281 (119)
           0.1300 (128)  0.1499 (129)
 CRD 52=  -0.2162 (  1) -0.2098 (  2) -0.1988 (  3)  0.2975 (  4)  0.2737 ( 14)
          -0.2019 ( 23) -0.1691 ( 24) -0.1688 ( 25) -0.2038 ( 29) -0.2070 ( 30)
          -0.1982 ( 33) -0.1772 ( 45) -0.1786 ( 50) -0.1786 ( 51)  0.2184 ( 60)
           0.2228 ( 61)  0.2099 ( 62)  0.1693 ( 71)  0.1936 ( 72)  0.2019 ( 73)
          -0.1073 (117)
 CRD 53=  -0.1571 (  1) -0.1696 (  3)  0.1591 (  4) -0.3244 (  5)  0.1145 ( 12)
          -0.1516 ( 14)  0.3363 ( 16) -0.1358 ( 18)  0.1616 ( 23)  0.1475 ( 24)
           0.1207 ( 26) -0.1082 ( 33)  0.1035 ( 45) -0.1178 ( 59)  0.2084 ( 60)
          -0.2026 ( 73) -0.1461 ( 95)  0.1097 ( 96) -0.1420 (107)  0.1172 (108)
          -0.1186 (114)  0.1731 (119) -0.1169 (125) -0.1107 (130) -0.1306 (132)
          -0.1002 (133)
 CRD 54=  -0.1426 (  8) -0.1380 (  9)  0.2815 ( 11) -0.3097 ( 17)  0.1794 ( 20)
           0.1205 ( 21) -0.1177 ( 24) -0.1232 ( 34) -0.1320 ( 43) -0.1056 ( 44)
           0.1218 ( 47)  0.1108 ( 53)  0.1081 ( 54)  0.1038 ( 55)  0.1400 ( 56)
           0.1709 ( 64) -0.1050 ( 69) -0.1826 ( 70) -0.1416 (114) -0.1460 (115)
          -0.2245 (116)  0.1660 (119) -0.1162 (125) -0.1674 (126) -0.2405 (127)
          -0.1404 (130) -0.1040 (132)  0.1353 (136)
 CRD 55=   0.1382 (  3) -0.1979 (  7) -0.2339 (  8)  0.3183 ( 11)  0.1290 ( 13)
           0.2607 ( 17)  0.1341 ( 19) -0.2147 ( 20)  0.1179 ( 24)  0.1386 ( 37)
          -0.1083 ( 38)  0.1302 ( 46)  0.1938 ( 64)  0.1189 ( 65)  0.1217 ( 69)
           0.1517 ( 70) -0.1564 (116)  0.2120 (120)  0.1370 (127) -0.1125 (135)
          -0.2011 (136)
 CRD 56=  -0.1375 (  5) -0.2236 (  9)  0.2291 ( 12) -0.1161 ( 13) -0.1114 ( 15)
          -0.1214 ( 16)  0.1267 ( 17)  0.2222 ( 18) -0.1148 ( 19) -0.2330 ( 21)
           0.1198 ( 22)  0.1495 ( 31)  0.1574 ( 48)  0.1062 ( 60)  0.1063 ( 64)
          -0.1256 ( 65) -0.1177 ( 69)  0.1469 ( 70) -0.1149 ( 81)  0.1273 ( 83)
           0.1136 ( 98) -0.1128 (101) -0.1522 (121) -0.1036 (124) -0.2567 (125)
           0.2734 (132)  0.1250 (133)  0.1104 (135)
 CRD 57=  -0.1166 (  1)  0.2142 (  4)  0.1374 (  6)  0.1523 (  8) -0.1457 ( 10)
          -0.1933 ( 13) -0.1961 ( 14) -0.1351 ( 15)  0.1677 ( 19) -0.1494 ( 20)
           0.1138 ( 22)  0.1123 ( 23) -0.1071 ( 26) -0.1050 ( 34) -0.1041 ( 37)
           0.1105 ( 47)  0.1359 ( 61)  0.1113 ( 63) -0.1106 ( 64)  0.1343 ( 66)
          -0.1113 ( 67) -0.1042 ( 68) -0.1069 ( 72) -0.1059 ( 84)  0.1305 ( 90)
           0.1105 (109) -0.1489 (116)  0.2297 (117)  0.1618 (118) -0.1064 (119)
          -0.2468 (120) -0.1205 (127)  0.1437 (128)  0.1909 (129) -0.2171 (136)
 CRD 58=  -0.1208 (  1)  0.1297 (  2) -0.1322 (  4)  0.2234 (  6)  0.2409 (  9)
          -0.1618 ( 11) -0.1414 ( 12)  0.1550 ( 13) -0.2046 ( 15)  0.1185 ( 18)
          -0.1656 ( 21)  0.1429 ( 22) -0.1244 ( 24) -0.1216 ( 31)  0.1032 ( 48)
          -0.1370 ( 62) -0.1279 ( 63)  0.1228 ( 65) -0.1009 ( 69)  0.1298 ( 70)
          -0.1559 ( 83)  0.1041 ( 96) -0.1267 ( 97)  0.1079 ( 98)  0.1319 (108)
           0.1060 (111) -0.1241 (116) -0.1488 (117)  0.1746 (119)  0.1031 (121)
           0.1493 (124)  0.1970 (125) -0.1577 (127)  0.1940 (132)
 CRD 59=  -0.1755 (  2)  0.1092 (  3)  0.1021 (  5) -0.2055 (  7)  0.1931 ( 14)
          -0.1108 ( 15)  0.1235 ( 16)  0.1816 ( 17) -0.1944 ( 19) -0.1589 ( 21)
           0.1220 ( 23) -0.2409 ( 25) -0.1031 ( 59) -0.1164 ( 60)  0.1115 ( 67)
           0.1310 ( 68)  0.1577 ( 71) -0.1158 ( 73)  0.1196 ( 74)  0.1940 ( 81)
          -0.1542 ( 87)  0.1115 ( 95) -0.1501 ( 98) -0.1130 (101)  0.1117 (105)
          -0.1084 (107) -0.1267 (113) -0.1456 (115)  0.1170 (117) -0.1173 (120)
           0.1439 (126) -0.1002 (128) -0.2366 (129)  0.1392 (135)  0.1346 (136)
 CRD 60=   0.2537 (  1) -0.1205 (  2) -0.1409 (  3) -0.1871 (  6)  0.1675 (  7)
           0.1289 ( 10) -0.1669 ( 15) -0.1054 ( 20)  0.1186 ( 22)  0.2554 ( 23)
          -0.1634 ( 24) -0.1136 ( 34) -0.1079 ( 47) -0.1003 ( 61)  0.1957 ( 62)
           0.1868 ( 71) -0.1270 ( 72) -0.1086 ( 80)  0.1772 ( 81) -0.1467 ( 92)
           0.1459 ( 93) -0.1938 ( 98)  0.1334 (105) -0.1525 (106)  0.2297 (116)
           0.1341 (120) -0.2343 (127) -0.1356 (136)
 CRD 61=  -0.2815 (  4)  0.1040 (  6)  0.2073 (  8) -0.1356 (  9)  0.2628 ( 14)
          -0.1105 ( 15) -0.2037 ( 20)  0.1694 ( 21)  0.1140 ( 26) -0.1155 ( 43)
           0.1322 ( 56) -0.1107 ( 59)  0.1571 ( 63) -0.1010 ( 65) -0.1486 ( 68)
           0.1342 ( 69)  0.1240 ( 74)  0.2001 ( 83) -0.1026 ( 90) -0.1407 ( 94)
           0.2138 (101)  0.1256 (111) -0.1199 (118)  0.2436 (119) -0.1191 (120)
          -0.1027 (121)  0.1342 (122)  0.1506 (123)  0.1549 (131)  0.1381 (134)
          -0.1057 (136)
 CRD 62=   0.3167 ( 17) -0.1192 ( 18) -0.2620 ( 22) -0.2421 ( 24)  0.1673 ( 25)
           0.1107 ( 46)  0.1096 ( 51) -0.1641 ( 57) -0.1649 ( 58)  0.1512 ( 67)
           0.1207 ( 68)  0.1372 ( 69) -0.1212 ( 70) -0.1858 ( 72)  0.1213 ( 73)
          -0.1353 ( 80)  0.1702 ( 82)  0.1731 ( 86) -0.1250 ( 87)  0.1373 (102)
          -0.1393 (103)  0.2330 (107)  0.2017 (112) -0.1169 (127)  0.1975 (128)
          -0.1007 (129)  0.1886 (130) -0.1442 (132)  0.1325 (133) -0.1545 (135)
           0.1222 (136)
 CRD 63=   0.1147 (  1)  0.1317 (  2) -0.2447 (  3)  0.1165 (  9) -0.2561 ( 10)
           0.3176 ( 11) -0.1245 ( 12)  0.1096 ( 29)  0.1136 ( 37) -0.1605 ( 38)
          -0.1658 ( 39) -0.1077 ( 44) -0.1825 ( 61) -0.1137 ( 64)  0.1641 ( 65)
           0.1543 ( 66) -0.2002 ( 78) -0.1225 ( 84)  0.1507 ( 85) -0.2206 ( 95)
           0.1268 ( 97) -0.1712 ( 99)  0.1456 (100) -0.1599 (104) -0.1763 (114)
           0.1292 (116)  0.1155 (117) -0.1824 (118) -0.1089 (120) -0.1083 (121)
           0.1643 (124)  0.1650 (125)
 CRD 64=  -0.1720 (  4)  0.1170 (  7)  0.1826 (  8) -0.1375 (  9)  0.1005 ( 13)
          -0.1756 ( 14)  0.1165 ( 19)  0.1960 ( 20) -0.1255 ( 21)  0.1030 ( 23)
          -0.1129 ( 38) -0.1232 ( 42) -0.1056 ( 47) -0.1247 ( 54) -0.1050 ( 57)
           0.1159 ( 59)  0.1368 ( 63) -0.1001 ( 65)  0.1402 ( 68) -0.1001 ( 69)
           0.1019 ( 75)  0.1326 ( 83) -0.1230 ( 84) -0.1660 ( 88)  0.1736 ( 89)
          -0.1460 ( 96) -0.1367 (101)  0.1357 (102)  0.1250 (108)  0.1187 (111)
          -0.1244 (117) -0.1157 (118)  0.2298 (122)  0.1681 (123)  0.1282 (129)
          -0.1339 (131)  0.1385 (133) -0.2521 (134)
 CRD 65=  -0.1881 (  1)  0.2126 (  2)  0.1776 ( 23) -0.1796 ( 25) -0.1260 ( 26)
          -0.1350 ( 30)  0.1100 ( 33) -0.1223 ( 45)  0.1046 ( 50)  0.1668 ( 60)
          -0.1299 ( 62)  0.1029 ( 66)  0.1384 ( 71) -0.1265 ( 73)  0.2136 ( 77)
          -0.1041 ( 78) -0.1273 ( 80)  0.1196 ( 81) -0.1142 ( 82)  0.1178 ( 91)
           0.1854 ( 92) -0.1064 ( 95)  0.1453 ( 98) -0.1075 (100) -0.1465 (104)
           0.1586 (105) -0.1031 (112)  0.2363 (115)  0.1514 (121) -0.1328 (124)
           0.2195 (126)  0.1143 (131)
 CRD 66=  -0.1213 (  1)  0.1089 (  3) -0.1783 (  6)  0.2579 ( 15) -0.1060 ( 18)
           0.1670 ( 22) -0.1565 ( 24) -0.1031 ( 48)  0.1185 ( 51) -0.1382 ( 55)
           0.1324 ( 67)  0.1208 ( 70) -0.1168 ( 72) -0.1194 ( 80)  0.1091 ( 82)
          -0.1489 ( 93) -0.1343 (100) -0.1216 (102)  0.1279 (103) -0.1552 (106)
           0.1085 (112)  0.1519 (114)  0.1693 (115) -0.1089 (121)  0.1040 (124)
           0.1307 (126)  0.2223 (130) -0.1334 (131) -0.2709 (133)  0.1267 (134)
           0.2386 (135)
 CRD 67=   0.1932 (  6) -0.1599 (  9)  0.1792 ( 10) -0.1649 ( 12) -0.1351 ( 18)
          -0.1247 ( 21)  0.1058 ( 22) -0.1342 ( 36)  0.1113 ( 39) -0.1576 ( 40)
           0.1216 ( 44) -0.1008 ( 55)  0.1386 ( 64) -0.1140 ( 65)  0.1763 ( 66)
           0.1204 ( 67) -0.1353 ( 78) -0.1916 ( 85)  0.1324 (103) -0.1137 (104)
           0.1029 (112) -0.1268 (114)  0.2776 (121)  0.2322 (123) -0.2888 (124)
          -0.1769 (131) -0.1716 (133)  0.1630 (135)
 CRD 68=  -0.1365 ( 13) -0.1428 ( 17)  0.1573 ( 19) -0.1169 ( 24)  0.1038 ( 25)
           0.1034 ( 35) -0.1169 ( 36)  0.1628 ( 49) -0.1302 ( 59)  0.1230 ( 66)
          -0.1617 ( 67)  0.1931 ( 79)  0.1184 ( 82)  0.1100 ( 84)  0.1481 ( 87)
          -0.1169 ( 90) -0.1368 ( 92) -0.1167 ( 93)  0.1038 ( 97)  0.1155 (102)
          -0.1720 (105) -0.1807 (106) -0.1632 (109)  0.2604 (113)  0.1026 (114)
          -0.1220 (118)  0.1082 (121) -0.1446 (122) -0.1201 (124) -0.2092 (128)
           0.1860 (130)  0.1335 (133) -0.1628 (134) -0.1304 (135)
 CRD 69=   0.1221 (  3) -0.1450 (  6)  0.3216 (  7)  0.1243 ( 11) -0.1696 ( 15)
           0.1090 ( 27) -0.1456 ( 28) -0.1262 ( 29) -0.1173 ( 32)  0.1028 ( 33)
          -0.1131 ( 34) -0.1066 ( 36)  0.1566 ( 43) -0.1336 ( 47)  0.1133 ( 52)
           0.1127 ( 56)  0.1182 ( 74)  0.1061 ( 75)  0.2004 ( 79)  0.1694 ( 80)
          -0.1018 ( 90) -0.2364 ( 93) -0.1812 (100)  0.1575 (106) -0.1391 (111)
          -0.1064 (113)  0.2424 (114)  0.2001 (115) -0.1803 (118) -0.1890 (126)
           0.1062 (128) -0.1899 (130)
 CRD 70=  -0.1021 (  5) -0.1022 (  9) -0.1708 ( 12)  0.1022 ( 13)  0.1793 ( 18)
          -0.1347 ( 19)  0.1150 ( 21) -0.1010 ( 27)  0.1037 ( 37) -0.1078 ( 38)
           0.1016 ( 44) -0.1234 ( 46) -0.1150 ( 53) -0.1205 ( 56)  0.1295 ( 57)
          -0.1022 ( 58)  0.1827 ( 75) -0.1578 ( 84) -0.1869 ( 85) -0.1441 ( 86)
           0.1046 ( 88)  0.1592 ( 90) -0.1119 ( 92)  0.1934 ( 94) -0.1308 ( 99)
          -0.1731 (102) -0.2107 (103)  0.1035 (108)  0.1757 (109)  0.2012 (110)
           0.1431 (122)  0.1922 (123)  0.2019 (131)  0.1791 (134)
 CRD 71=  -0.1624 (  4)  0.1613 (  6)  0.1194 (  7) -0.1472 ( 13) -0.1364 ( 14)
           0.1625 ( 15) -0.1003 ( 19)  0.1583 ( 26) -0.1627 ( 35) -0.1758 ( 41)
           0.1470 ( 59) -0.2194 ( 74)  0.1579 ( 79) -0.1297 ( 80) -0.1488 ( 82)
           0.1580 ( 84)  0.1129 ( 85) -0.1167 ( 87) -0.2068 ( 90) -0.1163 ( 92)
          -0.1891 ( 96)  0.1470 ( 97)  0.1137 (100)  0.1554 (104)  0.1172 (105)
           0.1754 (108)  0.1393 (109)  0.2313 (111) -0.1309 (113) -0.1042 (118)
          -0.1617 (122)  0.1038 (126)  0.1081 (128)  0.1080 (134)
 CRD 72=  -0.1019 (  4)  0.1745 (  5) -0.1013 ( 14)  0.1784 ( 16)  0.1004 ( 18)
           0.1071 ( 27) -0.1366 ( 34) -0.1002 ( 46) -0.1379 ( 47)  0.1054 ( 52)
          -0.1524 ( 75)  0.2394 ( 76)  0.1354 ( 80)  0.1715 ( 82)  0.1103 ( 84)
           0.1247 ( 85) -0.2224 ( 86) -0.1709 ( 87) -0.1147 ( 90) -0.2384 ( 91)
           0.1339 ( 92) -0.1527 ( 96)  0.1602 ( 97)  0.2221 ( 99) -0.1271 (100)
          -0.1145 (102) -0.1349 (103) -0.1726 (104) -0.1398 (105)  0.1570 (108)
           0.1163 (109)  0.1593 (110)

 THE DETERMINANT OF THE G MATRIX IS 10**(   -24)


                     --------------------
                     INTERNAL COORDINATES
                     --------------------

                 - - ATOMS - -         COORDINATE      COORDINATE
 NO.   TYPE    I  J  K  L  M  N        (BOHR,RAD)       (ANG,DEG)
 ----------------------------------------------------------------
   1 STRETCH   1  9                     2.0829983       1.1022753
   2 STRETCH   1 11                     2.0757727       1.0984517
   3 STRETCH   1 10                     2.0743088       1.0976770
   4 STRETCH   1  2                     2.8766922       1.5222801
   5 STRETCH   2 12                     2.1135539       1.1184446
   6 STRETCH   2  4                     2.8965864       1.5328076
   7 STRETCH   2  5                     2.9130943       1.5415432
   8 STRETCH   3 15                     2.0760192       1.0985821
   9 STRETCH   3 13                     2.0757022       1.0984144
  10 STRETCH   3 14                     2.0742368       1.0976389
  11 STRETCH   3  4                     2.8571082       1.5119166
  12 STRETCH   4 16                     2.0945605       1.1083938
  13 STRETCH   4 17                     2.1044791       1.1136424
  14 STRETCH   5  8                     2.8767244       1.5222971
  15 STRETCH   5  6                     2.8958150       1.5323994
  16 STRETCH   5 18                     2.1134007       1.1183636
  17 STRETCH   6  7                     2.8582464       1.5125190
  18 STRETCH   6 20                     2.0945498       1.1083881
  19 STRETCH   6 19                     2.1023757       1.1125294
  20 STRETCH   7 23                     2.0850170       1.1033436
  21 STRETCH   7 22                     2.0744152       1.0977333
  22 STRETCH   7 21                     2.0719568       1.0964324
  23 STRETCH   8 26                     2.0805426       1.1009758
  24 STRETCH   8 25                     2.0826029       1.1020661
  25 STRETCH   8 24                     2.0753066       1.0982050
  26 BEND      1  2 12                  1.8979861     108.7465906
  27 BEND      1  2  4                  1.9181081     109.8994980
  28 BEND      1  2  5                  1.9329417     110.7494026
  29 BEND      2  1 10                  1.9448956     111.4343101
  30 BEND      2  1 11                  1.9505289     111.7570734
  31 BEND      2  4 17                  1.9098469     109.4261678
  32 BEND      2  5  8                  1.9444379     111.4080856
  33 BEND      2  1  9                  1.9383003     111.0564247
  34 BEND      2  5 18                  1.8828670     107.8803345
  35 BEND      2  5  6                  1.9439732     111.3814609
  36 BEND      2  4  3                  1.9624967     112.4427776
  37 BEND      2  4 16                  1.9175745     109.8689262
  38 BEND      3  4 17                  1.9104816     109.4625347
  39 BEND      3  4 16                  1.9218813     110.1156844
  40 BEND      4  3 14                  1.9391817     111.1069247
  41 BEND      4  2  5                  1.9346040     110.8446417
  42 BEND      4  3 15                  1.9526791     111.8802683
  43 BEND      4  2 12                  1.8972980     108.7071676
  44 BEND      4  3 13                  1.9496023     111.7039813
  45 BEND      5  8 26                  1.9421610     111.2776282
  46 BEND      5  6 20                  1.9136672     109.6450564
  47 BEND      5  2 12                  1.8818418     107.8215940
  48 BEND      5  6 19                  1.9149731     109.7198793
  49 BEND      5  6  7                  1.9425098     111.2976138
  50 BEND      5  8 24                  1.9505878     111.7604477
  51 BEND      5  8 25                  1.9223132     110.1404338
  52 BEND      6  5  8                  1.9008891     108.9129213
  53 BEND      6  7 22                  1.9506513     111.7640854
  54 BEND      6  7 23                  1.9281331     110.4738877
  55 BEND      6  7 21                  1.9483630     111.6329778
  56 BEND      6  5 18                  1.8932143     108.4731909
  57 BEND      7  6 19                  1.9263650     110.3725837
  58 BEND      7  6 20                  1.9234219     110.2039584
  59 BEND      8  5 18                  1.8972031     108.7017277
  60 BEND      9  1 10                  1.8801382     107.7239844
  61 BEND      9  1 11                  1.8697677     107.1298000
  62 BEND     10  1 11                  1.8765920     107.5208023
  63 BEND     13  3 14                  1.8739647     107.3702666
  64 BEND     13  3 15                  1.8713377     107.2197524
  65 BEND     14  3 15                  1.8729089     107.3097754
  66 BEND     16  4 17                  1.8373608     105.2730221
  67 BEND     19  6 20                  1.8402208     105.4368865
  68 BEND     21  7 22                  1.8771607     107.5533865
  69 BEND     21  7 23                  1.8847589     107.9887320
  70 BEND     22  7 23                  1.8715488     107.2318465
  71 BEND     24  8 25                  1.8762886     107.5034184
  72 BEND     24  8 26                  1.8733352     107.3342020
  73 BEND     25  8 26                  1.8968017     108.6787337
  74 TORSION   1  2  5 18               1.0583191      60.6372199
  75 TORSION   1  2  4  3               1.3438153      76.9949476
  76 TORSION   1  2  5  6              -1.0175382     -58.3006451
  77 TORSION   1  2  5  8               3.1393315     179.8704471
  78 TORSION   1  2  4 17              -2.8124205    -161.1398237
  79 TORSION   1  2  4 16              -0.8032719     -46.0240901
  80 TORSION   2  5  8 24               1.0313923      59.0944259
  81 TORSION   2  5  8 25               3.1158003     178.5222082
  82 TORSION   2  5  8 26              -1.0626835     -60.8872774
  83 TORSION   2  4  3 14              -3.1412144    -179.9783293
  84 TORSION   2  4  3 13               1.0497970      60.1489366
  85 TORSION   2  4  3 15              -1.0483054     -60.0634734
  86 TORSION   2  5  6 19               0.8209491      47.0369178
  87 TORSION   2  5  6 20              -1.1923350     -68.3157604
  88 TORSION   2  5  6  7               2.9582106     169.4929809
  89 TORSION   3  4  2  5              -2.7969550    -160.2537162
  90 TORSION   3  4  2 12              -0.7315505     -41.9147559
  91 TORSION   4  2  5  8               1.0055396      57.6131746
  92 TORSION   4  2  1 10              -1.1100186     -63.5993826
  93 TORSION   4  2  1 11               0.9900548      56.7259627
  94 TORSION   4  2  5  6               3.1318552     179.4420823
  95 TORSION   4  2  1  9               3.0769276     176.2949677
  96 TORSION   4  2  5 18              -1.0754728     -61.6200526
  97 TORSION   5  2  4 16               1.3391431      76.7272461
  98 TORSION   5  2  1 10               3.0297713     173.5931085
  99 TORSION   5  2  4 17              -0.6700055     -38.3884875
 100 TORSION   5  2  1 11              -1.1533406     -66.0815462
 101 TORSION   5  6  7 21               2.9785100     170.6560544
 102 TORSION   5  6  7 22              -1.2013810     -68.8340589
 103 TORSION   5  6  7 23               0.8809866      50.4768145
 104 TORSION   5  2  1  9               0.9335323      53.4874588
 105 TORSION   6  5  8 25               0.9647074      55.2736648
 106 TORSION   6  5  8 24              -1.1197006     -64.1541174
 107 TORSION   6  5  8 26               3.0694090     175.8641793
 108 TORSION   6  5  2 12               1.0570974      60.5672175
 109 TORSION   7  6  5 18               0.8885431      50.9097723
 110 TORSION   7  6  5  8              -1.1736042     -67.2425693
 111 TORSION   8  5  2 12              -1.0692182     -61.2616902
 112 TORSION   8  5  6 19               2.9723196     170.3013676
 113 TORSION   8  5  6 20               0.9590355      54.9486894
 114 TORSION   9  1  2 12              -1.1313144     -64.8195411
 115 TORSION  10  1  2 12               0.9649246      55.2861086
 116 TORSION  11  1  2 12               3.0649981     175.6114539
 117 TORSION  12  2  4 16              -2.8786377    -164.9337936
 118 TORSION  12  2  4 17               1.3953990      79.9504728
 119 TORSION  12  2  5 18               3.1329547     179.5050826
 120 TORSION  13  3  4 16              -3.0887185    -176.9705329
 121 TORSION  13  3  4 17              -1.0767919     -61.6956299
 122 TORSION  14  3  4 16              -0.9965446     -57.0977988
 123 TORSION  14  3  4 17               1.0153820      58.1771042
 124 TORSION  15  3  4 16               1.0963645      62.8170571
 125 TORSION  15  3  4 17               3.1082911     178.0919601
 126 TORSION  18  5  8 25              -1.0949257     -62.7346200
 127 TORSION  18  5  8 24               3.1038516     177.8375978
 128 TORSION  18  5  6 19              -1.2487183     -71.5462909
 129 TORSION  18  5  6 20               3.0211829     173.1010309
 130 TORSION  18  5  8 26               1.0097759      57.8558945
 131 TORSION  19  6  7 21              -1.1739974     -67.2650937
 132 TORSION  19  6  7 23               3.0116645     172.5556664
 133 TORSION  19  6  7 22               0.9292969      53.2447929
 134 TORSION  20  6  7 21               0.8515224      48.7886404
 135 TORSION  20  6  7 23              -1.2460010     -71.3905996
 136 TORSION  20  6  7 22               2.9548167     169.2985270

     ------------------------------------------
     THE POINT GROUP IS C1 , NAXIS= 1, ORDER= 1
     ------------------------------------------

     DIMENSIONS OF THE SYMMETRY SUBSPACES ARE
 A   =  260

 ..... DONE SETTING UP THE RUN .....
 STEP CPU TIME =     0.02 TOTAL CPU TIME =        0.0 (    0.0 MIN)
 TOTAL WALL CLOCK TIME=        0.0 SECONDS, CPU UTILIZATION IS  66.67%


          -----------------------------
          STATIONARY POINT LOCATION RUN
          -----------------------------

 OBTAINING INITIAL HESSIAN, HESS=GUESS   
 DIAGONAL GUESS HESSIAN IN INTERNAL COORDS IS
     1  0.3382     2  0.3407     3  0.3412     4  0.3727     5  0.3277
     6  0.3652     7  0.3590     8  0.3406     9  0.3407    10  0.3413
    11  0.3803    12  0.3342    13  0.3308    14  0.3727    15  0.3655
    16  0.3278    17  0.3799    18  0.3342    19  0.3315    20  0.3375
    21  0.3412    22  0.3421    23  0.3391    24  0.3383    25  0.3409
    26  0.2229    27  0.2488    28  0.2482    29  0.2241    30  0.2240
    31  0.2225    32  0.2482    33  0.2238    34  0.2217    35  0.2475
    36  0.2496    37  0.2228    38  0.2237    39  0.2241    40  0.2247
    41  0.2475    42  0.2246    43  0.2222    44  0.2247    45  0.2239
    46  0.2228    47  0.2217    48  0.2226    49  0.2496    50  0.2240
    51  0.2238    52  0.2489    53  0.2247    54  0.2243    55  0.2247
    56  0.2223    57  0.2238    58  0.2240    59  0.2229    60  0.2024
    61  0.2024    62  0.2026    63  0.2026    64  0.2025    65  0.2026
    66  0.2013    67  0.2014    68  0.2027    69  0.2024    70  0.2023
    71  0.2024    72  0.2024    73  0.2022    74  0.2500    75  0.2500
    76  0.2500    77  0.2500    78  0.2500    79  0.2500    80  0.2500
    81  0.2500    82  0.2500    83  0.2500    84  0.2500    85  0.2500
    86  0.2500    87  0.2500    88  0.2500    89  0.2500    90  0.2500
    91  0.2500    92  0.2500    93  0.2500    94  0.2500    95  0.2500
    96  0.2500    97  0.2500    98  0.2500    99  0.2500   100  0.2500
   101  0.2500   102  0.2500   103  0.2500   104  0.2500   105  0.2500
   106  0.2500   107  0.2500   108  0.2500   109  0.2500   110  0.2500
   111  0.2500   112  0.2500   113  0.2500   114  0.2500   115  0.2500
   116  0.2500   117  0.2500   118  0.2500   119  0.2500   120  0.2500
   121  0.2500   122  0.2500   123  0.2500   124  0.2500   125  0.2500
   126  0.2500   127  0.2500   128  0.2500   129  0.2500   130  0.2500
   131  0.2500   132  0.2500   133  0.2500   134  0.2500   135  0.2500
   136  0.2500
 TRANSFORMING HESSIAN TO SYMMETRY COORDINATES

          PARAMETERS CONTROLLING GEOMETRY SEARCH ARE
          METHOD =QA                  UPHESS =BFGS    
          NNEG   =         0          NFRZ   =         3
          NSTEP  =        50          IFOLOW =         1
          HESS   =GUESS               RESTAR =         F
          IHREP  =         0          HSSEND =         F
          NPRT   =         0          NPUN   =         0
          OPTTOL = 5.000E-04          RMIN   = 1.500E-03
          RMAX   = 1.000E-01          RLIM   = 7.000E-02
          DXMAX  = 3.000E-01          PURIFY =         F
          MOVIE  =         F          TRUPD  =         T
          TRMAX  = 5.000E-01          TRMIN  = 5.000E-02
          ITBMAT =         5          STPT   =         F
          STSTEP = 1.000E-02          PROJCT=          F
          FROZEN COORD(S)=   1   2   3


      ***** EQUILIBRIUM GEOMETRY LOCATED *****
            (SUBJECT TO   3 CONSTRAINT(S))
 COORDINATES OF ALL ATOMS ARE (ANGS)
   ATOM   CHARGE       X              Y              Z
 ------------------------------------------------------------
 C           6.0   3.1623153272   0.5840446190   1.1737224967
 C           6.0   3.2841089291   2.0426139194   1.6440553085
 C           6.0   0.7502709990   2.5101218795   1.7585207296
 C           6.0   2.0868882382   2.8442347213   1.0897861905
 C           6.0   4.6500201107   2.6913487377   1.2838017309
 C           6.0   5.8501756170   1.8500510043   1.7652894101
 C           6.0   7.2149804133   2.3251500681   1.2561836846
 C           6.0   4.7625950448   4.1157607638   1.8530914685
 H           1.0   3.8676110840  -0.0778631630   1.6601514028
 H           1.0   2.1717415895   0.1962844304   1.3839776752
 H           1.0   3.3178574113   0.5138804985   0.0983508781
 H           1.0   3.2053699652   2.0501235564   2.7327151552
 H           1.0   0.7986292176   2.7091486381   2.8266827131
 H           1.0  -0.0474509551   3.1209384301   1.3449235717
 H           1.0   0.4659703081   1.4715321970   1.6276228985
 H           1.0   2.0130265682   2.6677765579   0.0166654854
 H           1.0   2.2524207410   3.9068572706   1.2111147382
 H           1.0   4.7083875469   2.7546509372   0.1950665638
 H           1.0   5.7294667507   0.8207138599   1.4508246584
 H           1.0   5.8571782755   1.8391678878   2.8556625095
 H           1.0   8.0032291671   1.6808011900   1.6363711200
 H           1.0   7.2569942437   2.2919652769   0.1698981541
 H           1.0   7.4503519055   3.3366743331   1.5675582764
 H           1.0   4.6090345696   4.1063029001   2.9308450311
 H           1.0   5.7424554070   4.5377184817   1.6656526012
 H           1.0   4.0431850965   4.7982870447   1.4193755245


                     --------------------
                     INTERNAL COORDINATES
                     --------------------

                 - - ATOMS - -         COORDINATE      COORDINATE
 NO.   TYPE    I  J  K  L  M  N        (BOHR,RAD)       (ANG,DEG)
 ----------------------------------------------------------------
   1 STRETCH   1  9                     2.0459521       1.0826713
   2 STRETCH   1 11                     2.0575814       1.0888253
   3 STRETCH   1 10                     2.0491127       1.0843438
   4 STRETCH   1  2                     2.9051862       1.5373585
   5 STRETCH   2 12                     2.0626915       1.0915294
   6 STRETCH   2  4                     2.9172544       1.5437447
   7 STRETCH   2  5                     2.9375077       1.5544622
   8 STRETCH   3 15                     2.0498342       1.0847256
   9 STRETCH   3 13                     2.0553063       1.0876213
  10 STRETCH   3 14                     2.0532199       1.0865173
  11 STRETCH   3  4                     2.8940479       1.5314643
  12 STRETCH   4 16                     2.0598716       1.0900372
  13 STRETCH   4 17                     2.0451762       1.0822607
  14 STRETCH   5  8                     2.9065642       1.5380876
  15 STRETCH   5  6                     2.9153184       1.5427202
  16 STRETCH   5 18                     2.0638353       1.0921347
  17 STRETCH   6  7                     2.8954154       1.5321879
  18 STRETCH   6 20                     2.0606515       1.0904499
  19 STRETCH   6 19                     2.0466646       1.0830483
  20 STRETCH   7 23                     2.0488806       1.0842210
  21 STRETCH   7 22                     2.0552737       1.0876041
  22 STRETCH   7 21                     2.0536932       1.0867677
  23 STRETCH   8 26                     2.0453631       1.0823596
  24 STRETCH   8 25                     2.0469387       1.0831934
  25 STRETCH   8 24                     2.0573059       1.0886795
  26 BEND      1  2 12                  1.8817260     107.8149595
  27 BEND      1  2  4                  1.8979770     108.7460739
  28 BEND      1  2  5                  1.9764941     113.2447690
  29 BEND      2  1 10                  1.9308481     110.6294455
  30 BEND      2  1 11                  1.9304777     110.6082218
  31 BEND      2  4 17                  1.9294128     110.5472107
  32 BEND      2  5  8                  1.9444589     111.4092864
  33 BEND      2  1  9                  1.9724834     113.0149762
  34 BEND      2  5 18                  1.8777789     107.5888065
  35 BEND      2  5  6                  1.9645589     112.5609361
  36 BEND      2  4  3                  1.9897367     114.0035143
  37 BEND      2  4 16                  1.8985948     108.7814693
  38 BEND      3  4 17                  1.8741735     107.3822344
  39 BEND      3  4 16                  1.9128580     109.5986906
  40 BEND      4  3 14                  1.9304172     110.6047556
  41 BEND      4  2  5                  1.9622588     112.4291476
  42 BEND      4  3 15                  1.9659404     112.6400895
  43 BEND      4  2 12                  1.8740024     107.3724302
  44 BEND      4  3 13                  1.9284984     110.4948190
  45 BEND      5  8 26                  1.9681966     112.7693565
  46 BEND      5  6 20                  1.8991864     108.8153654
  47 BEND      5  2 12                  1.8667586     106.9573891
  48 BEND      5  6 19                  1.9187399     109.9356987
  49 BEND      5  6  7                  2.0044190     114.8447496
  50 BEND      5  8 24                  1.9262807     110.3677542
  51 BEND      5  8 25                  1.9421965     111.2796609
  52 BEND      6  5  8                  1.9098265     109.4249970
  53 BEND      6  7 22                  1.9356573     110.9049925
  54 BEND      6  7 23                  1.9684279     112.7826086
  55 BEND      6  7 21                  1.9240910     110.2422913
  56 BEND      6  5 18                  1.8767094     107.5275265
  57 BEND      7  6 19                  1.8728718     107.3076485
  58 BEND      7  6 20                  1.9067024     109.2459996
  59 BEND      8  5 18                  1.8874480     108.1428054
  60 BEND      9  1 10                  1.8643604     106.8199820
  61 BEND      9  1 11                  1.8873335     108.1362442
  62 BEND     10  1 11                  1.8743999     107.3952051
  63 BEND     13  3 14                  1.8792884     107.6752963
  64 BEND     13  3 15                  1.8811312     107.7808799
  65 BEND     14  3 15                  1.8753858     107.4516896
  66 BEND     16  4 17                  1.8542530     106.2408726
  67 BEND     19  6 20                  1.8562173     106.3534152
  68 BEND     21  7 22                  1.8789500     107.6559051
  69 BEND     21  7 23                  1.8704873     107.1710288
  70 BEND     22  7 23                  1.8827506     107.8736635
  71 BEND     24  8 25                  1.8778868     107.5949905
  72 BEND     24  8 26                  1.8843250     107.9638724
  73 BEND     25  8 26                  1.8611320     106.6350078
  74 TORSION   1  2  5 18               1.1409314      65.3705512
  75 TORSION   1  2  4  3               1.2493946      71.5850372
  76 TORSION   1  2  5  6              -0.9234860     -52.9118500
  77 TORSION   1  2  5  8              -3.0763111    -176.2596420
  78 TORSION   1  2  4 17              -2.9206403    -167.3403639
  79 TORSION   1  2  4 16              -0.8909686     -51.0487390
  80 TORSION   2  5  8 24               0.9829220      56.3172846
  81 TORSION   2  5  8 25               3.0665360     175.6995725
  82 TORSION   2  5  8 26              -1.1261064     -64.5211430
  83 TORSION   2  4  3 14               3.1174368     178.6159697
  84 TORSION   2  4  3 13               1.0381928      59.4840656
  85 TORSION   2  4  3 15              -1.0667770     -61.1218207
  86 TORSION   2  5  6 19               0.8725516      49.9935225
  87 TORSION   2  5  6 20              -1.1538427     -66.1103157
  88 TORSION   2  5  6  7               2.9863134     171.1031554
  89 TORSION   3  4  2  5              -2.8307460    -162.1898000
  90 TORSION   3  4  2 12              -0.7822411     -44.8191155
  91 TORSION   4  2  5  8               1.0468925      59.9825220
  92 TORSION   4  2  1 10              -0.8774795     -50.2758720
  93 TORSION   4  2  1 11               1.1972204      68.5956754
  94 TORSION   4  2  5  6              -3.0834677    -176.6696860
  95 TORSION   4  2  1  9              -2.9670838    -170.0013818
  96 TORSION   4  2  5 18              -1.0190504     -58.3872848
  97 TORSION   5  2  4 16               1.3120761      75.1764238
  98 TORSION   5  2  1 10              -3.0722696    -176.0280805
  99 TORSION   5  2  4 17              -0.7175956     -41.1152010
 100 TORSION   5  2  1 11              -0.9975697     -57.1565331
 101 TORSION   5  6  7 21              -3.1386147    -179.8293740
 102 TORSION   5  6  7 22              -1.0592819     -60.6923845
 103 TORSION   5  6  7 23               1.0545931      60.4237362
 104 TORSION   5  2  1  9               1.1213114      64.2464098
 105 TORSION   6  5  8 25               0.8828393      50.5829679
 106 TORSION   6  5  8 24              -1.2007747     -68.7993199
 107 TORSION   6  5  8 26               2.9733822     170.3622525
 108 TORSION   6  5  2 12               1.1469134      65.7132979
 109 TORSION   7  6  5 18               0.9212676      52.7847438
 110 TORSION   7  6  5  8              -1.1248591     -64.4496799
 111 TORSION   8  5  2 12              -1.0059117     -57.6344941
 112 TORSION   8  5  6 19               3.0445643     174.4406873
 113 TORSION   8  5  6 20               1.0181701      58.3368490
 114 TORSION   9  1  2 12              -0.9404119     -53.8816312
 115 TORSION  10  1  2 12               1.1491925      65.8438786
 116 TORSION  11  1  2 12              -3.0592929    -175.2845740
 117 TORSION  12  2  4 16              -2.9226043    -167.4528917
 118 TORSION  12  2  4 17               1.3309093      76.2554834
 119 TORSION  12  2  5 18              -3.0718545    -176.0043009
 120 TORSION  13  3  4 16              -3.1124488    -178.3301814
 121 TORSION  13  3  4 17              -1.1054040     -63.3349812
 122 TORSION  14  3  4 16              -1.0332049     -59.1982774
 123 TORSION  14  3  4 17               0.9738400      55.7969229
 124 TORSION  15  3  4 16               1.0657667      61.0639323
 125 TORSION  15  3  4 17               3.0728115     176.0591325
 126 TORSION  18  5  8 25              -1.1565182     -66.2636110
 127 TORSION  18  5  8 24               3.0430531     174.3541012
 128 TORSION  18  5  6 19              -1.1924943     -68.3248891
 129 TORSION  18  5  6 20               3.0642968     175.5712727
 130 TORSION  18  5  8 26               0.9340247      53.5156736
 131 TORSION  19  6  7 21              -0.9999448     -57.2926194
 132 TORSION  19  6  7 23              -3.0899223    -177.0395093
 133 TORSION  19  6  7 22               1.0793879      61.8443700
 134 TORSION  20  6  7 21               1.0055842      57.6157288
 135 TORSION  20  6  7 23              -1.0843933     -62.1311611
 136 TORSION  20  6  7 22               3.0849169     176.7527182

          INTERNUCLEAR DISTANCES (ANGS.)


 =====================================================
   GAMESS/COSab RESULTS
 =====================================================

   Dielectric Constant                  = INFTY
   Basic Grid Size                      =                 1082
   Number of Segments                   =                   92
   Number of Segments located on spheres=                  285
   Number of Segments of the cavity     =                  759
   Solvent Radius (rsolv)               = 1.40
   Outlying Charge Error Method         = double cavity

 =====================================================

  Total solvated Energy (a.u.)          =  -313.5052511414
  Total Energy corrected (a.u.)         =  -313.5051554957

  Outlying charge effect (a.u.)         =     0.0000956457
  Outlying charge effect (kcal/mol)     =     0.0600186311

  Dielectric Energy (a.u.)              =    -0.0015469352
  Dielectric energy corr. (a.u.)        =    -0.0014512895

  Sum of polarization charges           =     0.0310539206
  Sum of polarization charges(cor.)     =    -0.0310539206

  Total surface area of cavity (A**2)   =  180.21
  Total volume of cavity (A**3)         =  185.49

 =====================================================
 NPS=                   759
NR.  ATOM  (X, Y, Z)(a.u.)                  CHARGE(e)  AREA(A**2) SIGMA(e/A**2)
   1   1   3.706785  -0.721967  -0.190796   0.002413   0.418105   0.005771
   2   1   5.502468   0.110508   5.833764   0.000837   0.278737   0.003003
   3   1   4.864435  -2.414394   3.037781   0.001652   0.371649   0.004445
   4   1   7.265831  -1.754441   0.108139   0.001605   0.371649   0.004319
   5   1   3.259460   0.826969  -0.395146   0.000925   0.185824   0.004980
   6   1   7.943727  -1.868567   0.961927   0.001695   0.371649   0.004560
   7   1   5.728213  -2.401368   3.609964   0.001206   0.278737   0.004327
   8   1   5.859745  -0.660487   5.558436   0.001101   0.278737   0.003950
   9   1   3.099506   0.152466  -0.041580   0.000853   0.185824   0.004589
  10   1   3.677312   0.215932  -0.647756   0.000925   0.185824   0.004978
  11   1   6.565957   0.276032   5.858212   0.000686   0.232280   0.002955
  12   1   4.709516  -0.777873   5.241290   0.001454   0.325193   0.004471
  13   1   4.944586  -1.907696   4.255710   0.001727   0.325193   0.005311
  14   1   5.712751  -2.666575   2.204132   0.001544   0.464561   0.003323
  15   1   6.541158  -2.391700   0.896230   0.001478   0.464561   0.003181
  16   1   8.356413  -1.077044   0.252823   0.001479   0.278737   0.005305
  17   1   4.456171   0.240185   5.568977   0.000969   0.325193   0.002980
  18   1   4.572689  -2.357883   1.641111   0.001168   0.371649   0.003144
  19   1   4.119715  -1.749399   0.575226   0.001609   0.418105   0.003849
  20   1   4.781827  -1.464719  -0.284343   0.001656   0.418105   0.003960
  21   1   6.088780  -1.841711  -0.147624   0.001022   0.325193   0.003141
  22   1   6.752398  -2.575875   1.840887   0.000818   0.278737   0.002935
  23   1   5.437911  -1.429306   4.970967   0.001381   0.278737   0.004956
  24   1   5.318036  -2.322064   0.763446   0.001115   0.418105   0.002667
  25   3  -2.003635   3.571279   2.225817   0.002265   0.418105   0.005417
  26   3   1.290337   8.409603   4.232642   0.000697   0.232280   0.003000
  27   3  -1.657371   6.186546   4.979934   0.001873   0.418105   0.004480
  28   3  -0.658771   2.466328   5.511025   0.001507   0.371649   0.004056
  29   3   0.678886   2.805537   0.163567   0.000552   0.185824   0.002971
  30   3  -0.060521   4.913069  -0.151071   0.000789   0.232280   0.003395
  31   3   0.004317   3.776818  -0.046143   0.001023   0.325193   0.003146
  32   3  -0.981556   3.406880   0.726789   0.001596   0.325193   0.004909
  33   3  -0.193022   3.021912   6.277085   0.001422   0.325193   0.004372
  34   3  -0.969349   6.322559   5.791353   0.001247   0.278737   0.004475
  35   3   1.124050   8.007907   5.204931   0.001392   0.371649   0.003745
  36   3  -1.580149   3.974883   1.153821   0.001077   0.232280   0.004635
  37   3  -1.445404   3.110338   1.473987   0.000908   0.185824   0.004889
  38   3   2.231200   7.876326   5.274441   0.000578   0.232280   0.002487
  39   3   0.176265   8.098037   4.543572   0.001245   0.278737   0.004466
  40   3  -0.836080   7.261283   5.015675   0.002027   0.371649   0.005453
  41   3  -1.606868   5.061559   5.566882   0.001561   0.464561   0.003360
  42   3  -1.319905   3.516548   5.621817   0.001430   0.464561   0.003078
  43   3   0.584821   2.222227   6.012721   0.002067   0.371649   0.005562
  44   3   1.510995   1.926417   5.841060   0.001126   0.232280   0.004850
  45   3   0.611262   8.425682   3.596629   0.000893   0.278737   0.003202
  46   3  -2.196297   4.990368   4.400894   0.001163   0.371649   0.003130
  47   3  -2.316396   4.164551   3.393347   0.001523   0.418105   0.003643
  48   3  -1.965683   3.060534   3.387533   0.001673   0.464561   0.003601
  49   3  -1.477495   2.714077   4.658505   0.000944   0.325193   0.002904
  50   3  -0.689955   4.335862   0.212579   0.000863   0.232280   0.003714
  51   3  -0.031006   2.920785   0.346019   0.000834   0.232280   0.003589
  52   3  -1.052216   4.304230   6.149852   0.000843   0.278737   0.003023
  53   3   0.017305   7.624226   5.329095   0.001398   0.278737   0.005016
  54   3   1.674320   2.537374   6.381191   0.001289   0.278737   0.004623
  55   3  -2.008276   3.885829   4.668777   0.001056   0.418105   0.002525
  56   4   2.074645   7.847089  -0.103702   0.000781   0.232280   0.003363
  57   4   5.128691   7.790580  -0.594653   0.000724   0.139368   0.005196
  58   4   4.926027   7.384901  -0.986699   0.001439   0.278737   0.005161
  59   4   1.996999   7.051503  -0.712525   0.001128   0.325193   0.003470
  60   4   2.852764   8.180821  -0.225466   0.001361   0.278737   0.004885
  61   4   4.102094   8.128438  -0.524537   0.001629   0.278737   0.005844
  62   4   2.174118   8.449080   0.754792   0.000715   0.278737   0.002565
  63   4   3.294110   7.797660  -0.767648   0.001427   0.278737   0.005121
  64   6  12.923860   0.607739   4.901128   0.000618   0.185824   0.003325
  65   6  10.205381   1.011427   6.054071   0.000217   0.046456   0.004672
  66   6  12.691283   0.226445   4.293515   0.000784   0.278737   0.002812
  67   6  10.800605   2.006745  -0.128380   0.000043   0.046456   0.000917
  68   6  12.243118   0.715492   5.603382   0.001534   0.325193   0.004716
  69   6  10.880922   0.585613   5.740687   0.001548   0.278737   0.005555
  70   6  12.983754   1.355226   5.781670   0.000895   0.278737   0.003212
  71   6  11.585945   0.284911   5.257081   0.001365   0.278737   0.004896
  72   6  11.083983   1.707861   0.006391   0.000059   0.046456   0.001277
  73   7  15.041661   7.120730   0.167479   0.002252   0.418105   0.005385
  74   7  14.917097   4.765531   5.909469   0.001098   0.325193   0.003378
  75   7  14.051426   0.988211   0.789017   0.000718   0.232280   0.003089
  76   7  16.523436   3.608147   0.067330   0.001889   0.418105   0.004518
  77   7  17.012884   5.942791   3.059834   0.001532   0.371649   0.004123
  78   7  13.286083   7.128140  -0.212052   0.001127   0.232280   0.004850
  79   7  17.160432   5.062696   3.558584   0.001370   0.325193   0.004214
  80   7  16.743525   2.893223   0.835911   0.001227   0.278737   0.004402
  81   7  14.627492   0.835670   1.575720   0.001242   0.371649   0.003342
  82   7  15.520459   4.164396   5.640970   0.000600   0.185824   0.003229
  83   7  14.191678   7.043939  -0.262608   0.000902   0.185824   0.004851
  84   7  14.101860   7.585806   0.404745   0.000861   0.185824   0.004633
  85   7  14.762792   1.468090   0.264203   0.001994   0.418105   0.004770
  86   7  15.899921   2.407536   0.092216   0.002035   0.371649   0.005475
  87   7  17.138980   4.262109   0.965158   0.001547   0.464561   0.003331
  88   7  17.259933   5.406597   2.036577   0.001410   0.464561   0.003035
  89   7  16.568496   5.704873   4.362885   0.001908   0.371649   0.005134
  90   7  15.592699   5.531483   5.399556   0.001717   0.371649   0.004620
  91   7  14.273324   5.800230   5.823210   0.001247   0.418105   0.002982
  92   7  13.609014   1.374418   0.100864   0.000759   0.278737   0.002724
  93   7  16.569065   5.041420   0.082041   0.001175   0.371649   0.003163
  94   7  15.969953   6.202583   0.016345   0.001549   0.418105   0.003704
  95   7  15.989601   6.958167   0.903646   0.001494   0.418105   0.003573
  96   7  16.714229   6.543017   1.949841   0.000940   0.325193   0.002889
  97   7  17.397580   4.430961   2.026126   0.000810   0.278737   0.002904
  98   7  15.591335   1.661274   0.645473   0.001371   0.278737   0.004918
  99   7  14.809290   3.652382   5.888654   0.000638   0.232280   0.002745
 100   7  16.274930   4.871927   5.035233   0.001481   0.325193   0.004553
 101   7  12.903960   1.728852  -0.204608   0.000307   0.139368   0.002201
 102   7  16.847240   5.766734   0.932723   0.001053   0.418105   0.002519
 103   8   9.712770  11.260076   2.217725   0.002537   0.464561   0.005461
 104   8  11.127356  10.020219   5.676584   0.001936   0.418105   0.004631
 105   8   7.267977  10.728899   5.106390   0.001512   0.325193   0.004648
 106   8   8.449464   8.840816  -0.082967   0.000593   0.232280   0.002555
 107   8  10.544941   8.489432   0.126825   0.000294   0.139368   0.002109
 108   8   9.782478   9.156232   0.070883   0.001277   0.371649   0.003435
[...]
 500  20  13.303026   2.648884   6.295203   0.000016   0.028458   0.000564
 501   6  13.924729   2.412023   5.725083   0.000098   0.026930   0.003657
 502   7  14.386803   2.550440   5.595097   0.000041   0.026930   0.001538
 503  21  14.639061   2.429180   5.478775   0.000003   0.026930   0.000125
 504   6  13.632253   0.586345   3.237299   0.000050   0.026930   0.001842
 505   7  14.090402   0.700259   3.073924   0.000053   0.026930   0.001953
 506  21  14.369266   0.745074   3.183905   0.000011   0.026930   0.000393
 507   6  11.860746   2.027996  -0.173934   0.000054   0.026109   0.002060
 508   7  12.299532   2.157297  -0.374663   0.000023   0.026109   0.000875
 509  22  12.415977   2.336462  -0.590143  -0.000014   0.026109  -0.000524
 510   7  14.268320   2.669646   5.743731   0.000102   0.027289   0.003743
 511   6  13.634568   2.419115   5.966167   0.000106   0.027289   0.003889
 512   7  13.963229   0.623433   3.016323   0.000031   0.005499   0.005694
 513   6  13.323459   0.400169   3.248074   0.000018   0.005499   0.003340
 514   7  12.329068   1.870130  -0.201121   0.000136   0.062803   0.002166
 515   6  11.657768   1.704332  -0.000270   0.000138   0.062803   0.002191
 516   6  10.518805  -0.111388   4.651268   0.000059   0.071501   0.000831
 517   9   9.675877  -0.607604   4.445149  -0.000257   0.071501  -0.003588
 518  19  10.480230  -0.293071   4.411453  -0.000170   0.071501  -0.002379
 519   6   9.437922   1.214092   5.925347   0.000167   0.026989   0.006197
 520   9   8.730922   0.633887   5.530564   0.000101   0.026989   0.003733
 521  20   9.564698   1.409319   6.120240   0.000075   0.026989   0.002779
 522   9   9.146674  -0.755646   4.830786  -0.000808   0.251016  -0.003219
 523   9   8.503956  -0.126555   5.414834  -0.000510   0.251016  -0.002033
 524   6   9.961570   0.413901   5.452265   0.002257   0.701769   0.003216
 525   6   9.903775   2.415311  -0.317762   0.000442   0.253730   0.001744
 526  11   8.821050   1.959003  -0.689103   0.000546   0.253730   0.002153
 527  18   9.459709   2.877631  -0.720925   0.000065   0.253730   0.000255
 528   6  10.296819   1.352343   0.170259  -0.000042   0.108241  -0.000383
 529  11   9.181660   0.981898  -0.174097   0.000421   0.108241   0.003890
 530  19  10.263318   1.068959   0.280013  -0.000169   0.108241  -0.001563
 531  11   8.693826   1.152647  -0.885033   0.000199   0.215849   0.000922
 532   6  10.305651   1.672566  -0.238839   0.000815   0.316241   0.002576
 533   6  10.936283   2.849056  -0.462088   0.000170   0.167523   0.001014
 534  18  10.475070   3.342837  -0.790832   0.000081   0.167523   0.000483
 535  22  11.552110   3.148459  -0.800058  -0.000034   0.167523  -0.000201
 536  18   9.894034   3.292951  -0.953507  -0.000079   0.035834  -0.002209
 537   6  10.543952   2.559084  -0.426150   0.000118   0.050563   0.002333
 538  19  11.019199   1.007955   0.346619  -0.000124   0.057893  -0.002145
 539   6  11.230793   1.377366   0.201673  -0.000004   0.070729  -0.000054
 540  19  12.553492  -0.083335   3.329828  -0.000094   0.078402  -0.001203
 541  19  11.597090  -0.217266   4.135356  -0.000295   0.179884  -0.001639
 542   6  12.429393   0.098779   3.926831  -0.000131   0.166666  -0.000786
 543   6  11.293722  -0.009292   4.716524   0.000207   0.095785   0.002158
 544  20  10.143794   1.520383   6.555554   0.000034   0.073705   0.000460
 545  20  11.312129   1.390476   6.546765  -0.000108   0.165524  -0.000650
 546  20  12.582213   2.019633   6.544901  -0.000315   0.165524  -0.001902
 547   6  10.532577   1.187325   6.211596   0.000227   0.159875   0.001423
 548   6  12.113868   1.367527   6.203255   0.000116   0.159875   0.000723
 549   6  13.129935   2.174096   6.204790   0.000110   0.090046   0.001222
 550  21  14.769316   2.023193   5.268975  -0.000197   0.208454  -0.000943
 551  21  14.626256   1.079597   4.118527  -0.001120   0.427736  -0.002619
 552   6  13.658588   1.462963   5.178741   0.000952   0.569895   0.001671
 553   6  13.500379   0.521483   3.772520   0.000684   0.293581   0.002330
 554  22  12.307821   2.613518  -0.847476  -0.000193   0.160089  -0.001205
 555   6  11.345034   2.267777  -0.346686   0.000419   0.225535   0.001858
 556   7  11.695904   6.906148  -0.113465   0.000458   0.211639   0.002162
 557   8  10.881741   7.527185   0.051416   0.000364   0.211639   0.001718
 558  18  10.733463   6.928558  -0.386517   0.000069   0.211639   0.000324
 559   7  12.741882   6.002272   5.859333   0.000368   0.210006   0.001754
 560   8  11.904574   6.591083   6.026268   0.000528   0.210006   0.002514
 561  20  12.190783   5.680660   6.271081   0.000108   0.210006   0.000516
 562   7  13.324138   6.714464   5.449038  -0.000069   0.090075  -0.000768
 563   8  12.474158   7.286237   5.566804   0.000196   0.090075   0.002172
 564  23  13.417008   6.981489   5.333849  -0.000173   0.090075  -0.001915
 565   7  12.343571   7.762961   0.518899   0.000174   0.085290   0.002042
 566   8  11.544369   8.401345   0.650330  -0.000086   0.085290  -0.001007
 567  25  11.791437   8.508909   0.791953  -0.000178   0.085290  -0.002086
 568   8  11.298371   8.217696   0.283772   0.000554   0.257581   0.002149
 569   7  12.375921   7.267046  -0.074328   0.000766   0.257581   0.002972
 570   8  12.007851   7.260179   6.070978   0.000559   0.168841   0.003309
 571   7  13.222149   6.485892   5.745645   0.000392   0.168841   0.002319
 572   7  12.215896   6.382261  -0.594399   0.000096   0.087552   0.001094
 573  18  11.234349   6.319275  -0.738710   0.000186   0.087552   0.002121
 574  22  12.314621   6.187327  -0.809357   0.000008   0.087552   0.000095
 575  18  10.691627   6.680194  -0.812857   0.000010   0.065317   0.000146
 576   7  12.135843   6.680555  -0.549754   0.000320   0.092739   0.003455
 577  19  11.765587   0.833663   0.542084  -0.000117   0.171548  -0.000684
 578  19  12.449489   0.278079   1.467404  -0.000857   0.349233  -0.002454
 579  19  12.828078   0.059588   2.668046  -0.000171   0.171548  -0.000996
 580   7  12.915045   1.149371   0.500981   0.000727   0.472611   0.001539
 581   7  13.674994   0.595713   2.021580   0.000838   0.472611   0.001772
 582  20  13.215728   3.032743   6.570305  -0.000099   0.208340  -0.000474
 583  20  12.817109   4.476713   6.670641  -0.000919   0.427759  -0.002149
 584   7  14.028434   3.843337   6.092517   0.001073   0.569420   0.001884
 585   7  13.456674   5.451790   6.095848   0.000742   0.293494   0.002527
 586  21  14.842667   0.741146   2.925082  -0.000063   0.068469  -0.000921
 587  21  15.486248   1.027436   2.075926  -0.000237   0.151677  -0.001566
 588  21  16.404630   1.843292   1.554531  -0.000102   0.151677  -0.000673
 589  21  17.150901   2.915987   1.825277  -0.000228   0.151677  -0.001506
 590  21  17.422062   3.809989   2.778236  -0.000275   0.151677  -0.001811
 591  21  17.108017   4.162318   4.026491  -0.000166   0.151677  -0.001096
 592  21  16.336274   3.829922   5.063228  -0.000199   0.151677  -0.001311
 593  21  15.420173   2.947760   5.467515  -0.000304   0.151677  -0.002002
 594   7  14.726149   0.823012   2.346773  -0.000097   0.150418  -0.000643
 595   7  15.695659   1.441473   1.384826   0.000157   0.150418   0.001041
 596   7  16.682150   2.560650   1.236289   0.000115   0.150418   0.000763
 597   7  17.285092   3.726137   1.961470  -0.000028   0.150418  -0.000189
 598   7  17.259678   4.464727   3.265934  -0.000000   0.150418  -0.000001
 599   7  16.616228   4.476539   4.620046   0.000109   0.150418   0.000722
 600   7  15.615993   3.756778   5.474013  -0.000090   0.150418  -0.000597
 601   7  14.808628   2.857608   5.624029   0.000056   0.083650   0.000666
 602  22  13.041859   6.326863  -0.946640  -0.000021   0.067349  -0.000305
 603  22  14.125575   6.360970  -0.905770  -0.000088   0.148623  -0.000594
 604  22  15.281252   5.739973  -0.842105  -0.000194   0.148623  -0.001306
 605  22  15.840692   4.552978  -0.784208  -0.000216   0.148623  -0.001456
 606  22  15.584732   3.264996  -0.754761  -0.000114   0.148623  -0.000765
 607  22  14.613646   2.380597  -0.765299  -0.000182   0.148623  -0.001221
 608  22  13.307859   2.246249  -0.811695  -0.000277   0.148623  -0.001861
 609   7  13.411158   6.637956  -0.605469   0.000101   0.148515   0.000682
 610   7  14.863242   6.381996  -0.541492   0.000075   0.148515   0.000505
 611   7  15.877762   5.312539  -0.469586   0.000012   0.148515   0.000082
 612   7  16.057276   3.848550  -0.417920   0.000046   0.148515   0.000307
 613   7  15.331458   2.563552  -0.406735   0.000067   0.148515   0.000453
 614   7  13.984650   1.960946  -0.440413   0.000053   0.148515   0.000355
 615   7  12.793029   2.070044  -0.489830   0.000015   0.082282   0.000183
 616   7  13.665783   8.054412   1.124436  -0.000004   0.074753  -0.000054
 617  23  13.740502   8.223969   1.365725  -0.000207   0.074753  -0.002776
 618  25  13.001437   8.672915   1.460404  -0.000281   0.074753  -0.003761
 619  23  14.128442   6.827234   5.363845  -0.000127   0.066284  -0.001913
 620  23  15.154535   6.674136   5.085580  -0.000190   0.146111  -0.001298
 621  23  16.103440   6.726743   4.197405  -0.000169   0.146111  -0.001158
 622  23  16.371668   7.043790   2.964693  -0.000233   0.146111  -0.001594
 623  23  15.855870   7.503117   1.862416  -0.000278   0.146111  -0.001903
 624  23  14.754785   7.927742   1.315287  -0.000148   0.146111  -0.001015
 625   7  14.483969   6.365685   5.433330  -0.000060   0.146296  -0.000411
 626   7  15.791826   6.259599   4.789354   0.000122   0.146296   0.000834
 627   7  16.511180   6.478074   3.535860   0.000040   0.146296   0.000275
 628   7  16.364860   6.936929   2.155827  -0.000061   0.146296  -0.000418
 629   7  15.409245   7.459365   1.180990  -0.000050   0.146296  -0.000344
 630   7  14.314059   7.804914   0.886287   0.000131   0.080980   0.001615
 631  25  12.389892   8.888181   1.142356  -0.000775   0.290683  -0.002667
 632   7  13.136119   7.832961   0.502066   0.001146   0.411249   0.002787
 633  13   3.224545   7.098744   6.203404   0.000134   0.091087   0.001470
 634   8   5.495661   8.205365   5.855753   0.000611   0.145230   0.004211
 635   8   5.761808   9.724188   4.305466  -0.000025   0.071385  -0.000349
 636  17   4.966755   9.434794   3.915731  -0.000272   0.071385  -0.003805
 637  26   5.678193   9.854148   4.044645  -0.000189   0.071385  -0.002641
 638  17   4.448102   8.860145   4.342654  -0.000530   0.274990  -0.001929
 639   8   5.651051   9.369886   4.816698   0.001121   0.387949   0.002889
 640  18   8.217912   7.286221  -0.833341  -0.000041   0.180006  -0.000225
 641  18   9.536075   7.214948  -0.817924  -0.000504   0.366839  -0.001374
 642   8   8.726993   8.230666  -0.272304   0.001154   0.495120   0.002331
 643   8  10.214800   8.053040  -0.175126   0.000641   0.253719   0.002527
 644   8  11.020828   6.882205   6.641885   0.000132   0.085184   0.001550
 645  20  11.260042   5.938012   6.736722   0.000199   0.085184   0.002341
 646  24  10.783404   6.913494   6.833694   0.000059   0.085184   0.000687
 647  20  11.872395   5.544434   6.737088   0.000033   0.129206   0.000252
 648   8  11.416106   6.906203   6.554678   0.000661   0.183153   0.003607
 649   8  12.416050   8.595643   5.153349  -0.000022   0.070584  -0.000314
 650  23  13.277418   8.160204   4.829228  -0.000253   0.070584  -0.003584
 651  25  12.604555   8.699736   4.939796  -0.000215   0.070584  -0.003050
 652  23  13.655302   7.649587   5.112198  -0.000592   0.278962  -0.002122
 653   8  12.310234   8.034254   5.687247   0.001078   0.396706   0.002718
 654  24  10.674541   7.653334   7.006221   0.000012   0.072057   0.000170
 655  24  10.351446   8.760632   6.969908  -0.000138   0.161188  -0.000857
 656  24   9.318580   9.684561   6.830862  -0.000271   0.161188  -0.001683
 657  24   7.941082   9.747733   6.635158  -0.000263   0.161188  -0.001634
 658  24   6.831710   8.922046   6.469853  -0.000155   0.161188  -0.000962
 659   8  10.880913   8.138721   6.699687   0.000223   0.156857   0.001420
 660   8  10.129448   9.507238   6.604636   0.000106   0.156857   0.000675
 661   8   8.693779  10.095179   6.405251  -0.000011   0.156857  -0.000069
 662   8   7.212541   9.641007   6.190225   0.000124   0.156857   0.000791
 663   8   6.373692   8.691248   6.062373   0.000172   0.088033   0.001957
 664  25  11.480284   9.145048   0.841928  -0.000090   0.067831  -0.001329
 665  25  11.162232  10.089636   1.305720  -0.000149   0.150315  -0.000992
 666  25  11.042489  10.849538   2.390425  -0.000246   0.150315  -0.001638
 667  25  11.281205  10.876196   3.698355  -0.000298   0.150315  -0.001984
 668  25  11.781732  10.158818   4.699962  -0.000242   0.150315  -0.001611
 669  25  12.249858   9.230990   5.058429  -0.000059   0.067831  -0.000871
 670   8  10.974220   9.452119   0.810315   0.000002   0.148938   0.000017
 671   8  10.648649  10.604803   1.703259   0.000132   0.148938   0.000887
 672   8  10.719143  11.070858   3.120951   0.000014   0.148938   0.000091
 673   8  11.157162  10.661591   4.489405  -0.000084   0.148938  -0.000566
 674   8  11.785363   9.542703   5.254571   0.000075   0.148938   0.000505
 675  26   6.121086  10.300869   4.169607  -0.000051   0.065890  -0.000767
 676  26   6.910573  10.987415   3.940499  -0.000233   0.145238  -0.001603
 677  26   7.819400  11.428142   3.126619  -0.000268   0.145238  -0.001844
 678  26   8.355432  11.250993   1.958760  -0.000146   0.145238  -0.001002
 679  26   8.312859  10.523985   0.885329  -0.000193   0.145238  -0.001326
 680  26   7.708025   9.526258   0.318475  -0.000304   0.145238  -0.002092
 681   8   6.591445  10.464942   4.476313   0.000076   0.145417   0.000525
 682   8   7.679623  11.250931   3.908268   0.000026   0.145417   0.000176
 683   8   8.533420  11.406684   2.737219   0.000064   0.145417   0.000440
 684   8   8.825015  10.872400   1.412795   0.000076   0.145417   0.000525
 685   8   8.442449   9.853219   0.443518   0.000061   0.145417   0.000420
 686   8   7.769774   8.937219   0.117797   0.000035   0.080499   0.000429
 687  19  10.534567  -0.631458   4.138577  -0.000140   0.204280  -0.000687
 688  19  10.577000  -0.967633   3.072928  -0.001516   0.408852  -0.003707
 689  19  10.422921  -0.905993   1.967089  -0.000554   0.204280  -0.002711
 690   9   9.457828  -1.316742   3.864390  -0.001767   0.408852  -0.004323
 691   9   9.388196  -1.487967   2.510051  -0.001202   0.408852  -0.002940
 692  20   9.459234   1.474323   6.452451   0.000373   0.099825   0.003737
 693   9   8.270722   0.263163   5.709351   0.000307   0.099825   0.003078
 694  15   0.964142   0.907187   1.252351  -0.000441   0.219146  -0.002013
 695  15   0.703876   0.369021   2.246970  -0.001924   0.438627  -0.004387
 696  15   0.846185   0.290737   3.652995  -0.001791   0.438627  -0.004084
 697  15   1.305862   0.719206   4.628566  -0.000164   0.219146  -0.000747
 698  10   1.861634  -0.076270   1.472269  -0.001405   0.438627  -0.003203
 699  10   1.717279  -0.524385   2.807050  -0.002044   0.438627  -0.004660
 700  10   2.130338  -0.224085   4.127083  -0.001769   0.438627  -0.004033
 701  11   6.448764   3.156216  -1.468337  -0.000062   0.332958  -0.000187
 702  16   5.892103   4.072497  -1.496827   0.000094   0.332958   0.000283
 703  18   7.042524   4.110747  -1.409039   0.000218   0.332958   0.000653
 704  16   5.140906   3.875879  -1.962558  -0.000003   0.289511  -0.000011
 705  16   4.036459   3.213206  -1.793921  -0.000482   0.579277  -0.000832
 706  11   5.496025   2.323355  -1.887986  -0.000480   0.579277  -0.000829
 707  11   4.409193   1.676165  -1.592489   0.000416   0.289511   0.001436
 708  18   9.157518   3.118068  -1.314485   0.000373   0.272689   0.001368
 709  18   8.211614   3.721490  -1.695260   0.000031   0.545214   0.000057
 710  11   7.965976   1.992250  -1.549902  -0.000194   0.545214  -0.000356
 711  11   6.992748   2.608192  -1.827906  -0.000027   0.272689  -0.000101
 712  19  10.291519   0.566383   0.250980   0.000333   0.195505   0.001703
 713  11   8.835686   0.474681  -0.607645   0.000528   0.195505   0.002699
 714  13   2.820281   3.560719   7.069281   0.000333   0.259725   0.001282
 715  13   3.135539   4.674442   7.332951  -0.000412   0.519472  -0.000794
 716  13   3.431622   5.793359   7.069038  -0.000134   0.259725  -0.000516
 717  12   4.384704   3.584049   7.145693  -0.000231   0.519472  -0.000445
 718  12   4.765934   4.976314   7.145541  -0.000261   0.519472  -0.000502
 719  12   7.969284   4.635082   6.998522   0.000087   0.321343   0.000271
 720  20   9.100638   4.544784   7.042213   0.000100   0.321343   0.000312
 721  24   8.566613   5.508274   7.089944  -0.000109   0.321343  -0.000339
 722  20   9.281672   3.790075   7.395029   0.000123   0.268242   0.000459
 723  20   9.207074   2.674757   7.090293   0.000281   0.536261   0.000524
 724  12   7.649269   3.482853   7.234720   0.000088   0.536261   0.000163
 725  12   7.581635   2.398353   6.832667   0.000439   0.268242   0.001637
 726  24   6.729297   6.999667   7.160389   0.000032   0.262609   0.000123
 727  24   7.675835   6.325150   7.454601  -0.000625   0.525261  -0.001190
 728  12   6.240966   5.509772   7.186428  -0.000133   0.525261  -0.000252
 729  12   7.210322   4.829863   7.374955   0.000042   0.262609   0.000160
 730  24   6.096016   7.726581   6.666821   0.000982   0.387053   0.002538
 731  13   3.504742   6.655769   6.669820   0.000572   0.387053   0.001478
 732  17   2.059534   8.878399   1.889787   0.000090   0.015702   0.005700
 733  14   0.681820   8.409795   1.979087   0.000090   0.015702   0.005702
 734  18   7.313120   4.800831  -1.794446   0.000127   0.237235   0.000537
 735  18   7.271351   5.812814  -1.656209   0.000213   0.474161   0.000450
 736  16   5.667795   5.136438  -1.873979   0.000286   0.474161   0.000602
 737  16   5.621348   6.134589  -1.658338   0.000522   0.237235   0.002201
 738  26   6.055432   9.760403   0.752102  -0.000788   0.219938  -0.003581
 739  26   5.654170  10.328874   1.769221  -0.002414   0.440562  -0.005479
 740  26   5.504407  10.281577   3.259511  -0.001725   0.440562  -0.003916
 741  17   4.829215   9.475677   0.999299  -0.001535   0.440562  -0.003484
 742  17   4.458011   9.896789   2.388723  -0.002245   0.440562  -0.005095
 743  17   4.458182   9.616117   3.588692  -0.000683   0.219938  -0.003103
 744  22  11.826943   3.364056  -1.335433   0.000143   0.244695   0.000585
 745  22  12.007481   4.377892  -1.692126  -0.000232   0.489203  -0.000475
 746  22  12.242924   5.660044  -1.421706   0.000170   0.489203   0.000348
 747  18  10.358970   4.020373  -1.482342   0.000105   0.489203   0.000214
 748  18  10.593265   5.320071  -1.650756  -0.000027   0.489203  -0.000056
 749  18  10.775875   6.302229  -1.215204   0.000250   0.244695   0.001020
 750  24   9.099673   6.004916   7.531525   0.000007   0.277846   0.000025
 751  24  10.161668   6.594613   7.379771   0.000127   0.555656   0.000228
 752  20  10.262868   4.866902   7.463044  -0.000327   0.555656  -0.000588
 753  20  11.306249   5.450084   7.198732   0.000216   0.277846   0.000776
 754  25  12.889889   8.988253   4.715004  -0.000316   0.227332  -0.001389
 755  25  13.173002   9.479741   3.626644  -0.002256   0.455248  -0.004956
 756  25  13.030949   9.398889   2.143376  -0.002203   0.455248  -0.004840
 757  23  14.030294   8.487519   4.255537  -0.002140   0.455248  -0.004701
 758  23  14.192216   8.835557   2.813507  -0.002073   0.455248  -0.004553
 759  23  13.924394   8.549710   1.650406  -0.000243   0.227332  -0.001068
 =====================================================

              6157928  WORDS OF DYNAMIC MEMORY USED
 EXECUTION OF GAMESS TERMINATED NORMALLY Wed Nov 23 11:40:25 2016
 DDI: 263640 bytes (0.3 MB / 0 MWords) used by master data server.

 ----------------------------------------
 CPU timing information for all processes
 ========================================
 0: 3952.984 + 1.200 = 3954.184
 ----------------------------------------
 ddikick.x: exited gracefully.
