----- GAMESS execution script -----

          ******************************************************
          *         GAMESS VERSION =  5 DEC 2014 (R1)          *
          *             FROM IOWA STATE UNIVERSITY             *
          * M.W.SCHMIDT, K.K.BALDRIDGE, J.A.BOATZ, S.T.ELBERT, *
          *   M.S.GORDON, J.H.JENSEN, S.KOSEKI, N.MATSUNAGA,   *
          *          K.A.NGUYEN, S.J.SU, T.L.WINDUS,           *
          *       TOGETHER WITH M.DUPUIS, J.A.MONTGOMERY       *
          *         J.COMPUT.CHEM.  14, 1347-1363(1993)        *
          **************** 64 BIT LINUX VERSION ****************

 EXECUTION OF GAMESS BEGUN Wed Nov 23 10:14:05 2016

            ECHO OF THE FIRST FEW INPUT CARDS -
 INPUT CARD>! SELECT RESTRICTED HARTREE-FOCK AS DEFAULT                                     
 INPUT CARD>$contrl scftyp=rhf $end                                                         
 INPUT CARD>                                                                                
 INPUT CARD>! THEORY: HF OR DFT                                                             
 INPUT CARD> $contrl mplevl=0 $end                                                          
 INPUT CARD>                                                                                
 INPUT CARD> $system timlim=10000 mwords=20 $end                                            
 INPUT CARD> $SCF DIRSCF=.TRUE. $end                                                        
 INPUT CARD>                                                                                
 INPUT CARD>                                                                                
 INPUT CARD>! BASIS SETS                                                                    
 INPUT CARD>! 6-311G(d,p)                                                                   
 INPUT CARD> $BASIS GBASIS=N311 NGAUSS=6 NDFUNC=1 NPFUNC=1 $END                             
 INPUT CARD>                                                                                
 INPUT CARD>! One of the following                                                          
 INPUT CARD> $guess guess=HUCKEL $end                                                       
 INPUT CARD>                                                                                
 INPUT CARD> $statpt projct=.FALSE. $end                                                    
 INPUT CARD> $STATPT IFREEZ(1)=1,2,3 $END                                                   
 INPUT CARD>                                                                                
 INPUT CARD>! Optimize the geometry with COSMO effects                                      
 INPUT CARD> $statpt opttol=0.0005 nstep=50 $end                                            
 INPUT CARD> $contrl nzvar=1 $end                                                           
 INPUT CARD> $zmat dlc=.t. auto=.t. $end                                                    
 INPUT CARD> $contrl runtyp=OPTIMIZE maxit=200 $end                                         
 INPUT CARD>                                                                                
 INPUT CARD>! Run COSMO on perfect conductor                                                
 INPUT CARD> $COSGMS PRFCND=.TRUE. $end                                                     
 INPUT CARD>                                                                                
 INPUT CARD>! Specifying RSOLV                                                              
 INPUT CARD> $COSGMS COSRAD = 1.4 $end                                                      
 INPUT CARD>                                                                                
 INPUT CARD>! available memory                                                              
 INPUT CARD> $SYSTEM MWORDS=40 $END                                                         
 INPUT CARD>                                                                                
 INPUT CARD> $DATA                                                                          
 INPUT CARD>Benzo[a]pyrene, ID: C50328                                                      
 INPUT CARD>C1                                                                              
 INPUT CARD>C      6.0      5.1524000000    2.8883000000    0.9157000000                    
 INPUT CARD>C      6.0      4.1946000000    1.8494000000    0.9224000000                    
 INPUT CARD>C      6.0      5.3665000000    3.6375000000    2.0413000000                    
 INPUT CARD>C      6.0      3.4728000000    1.5837000000    2.0550000000                    
 INPUT CARD>C      6.0      3.6727000000    2.3435000000    3.2375000000                    
 INPUT CARD>C      6.0      4.6293000000    3.3803000000    3.2290000000                    
 INPUT CARD>C      6.0      2.9298000000    2.0841000000    4.4332000000                    
 INPUT CARD>C      6.0      4.8503000000    4.1565000000    4.3968000000                    
 INPUT CARD>C      6.0      4.1382000000    3.9097000000    5.5474000000                    
 INPUT CARD>C      6.0      3.1644000000    2.8611000000    5.5720000000                    
 INPUT CARD>C      6.0      4.3494000000    4.6902000000    6.7486000000                    
 INPUT CARD>C      6.0      2.4272000000    2.6111000000    6.7743000000                    
   40000000 WORDS OF MEMORY AVAILABLE

     BASIS OPTIONS
     -------------
     GBASIS=N311         IGAUSS=       6      POLAR=POPN311 
     NDFUNC=       1     NFFUNC=       0     DIFFSP=       F
     NPFUNC=       1      DIFFS=       F     BASNAM=        


     RUN TITLE
     ---------
 Benzo[a]pyrene, ID: C50328                                                      

 THE POINT GROUP OF THE MOLECULE IS C1      
 THE ORDER OF THE PRINCIPAL AXIS IS     0

 ATOM      ATOMIC                      COORDINATES (BOHR)
           CHARGE         X                   Y                   Z
 C           6.0     9.7366241791        5.4580955703        1.7304220870
 C           6.0     7.9266446281        3.4948592417        1.7430832511
 C           6.0    10.1412145131        6.8738782803        3.8574976587
 C           6.0     6.5626404102        2.9927590468        3.8833869048
 C           6.0     6.9403966351        4.4285728522        6.1179878852
 C           6.0     8.7481085150        6.3878407563        6.1019252144
 C           6.0     5.5365191988        3.9383779310        8.3775332488
 C           6.0     9.1657379582        7.8546460680        8.3087472228
 C           6.0     7.8200640824        7.3882616942       10.4830659443
 C           6.0     5.9798489155        5.4066950235       10.5295532036
 C           6.0     8.2191742110        8.8631928276       12.7530048007
 C           6.0     4.5867429174        4.9342635265       12.8015707586
 C           6.0     3.6798634159        1.9694724244        8.4875153013
 C           6.0     5.0266711273        6.4163756187       14.9898734524
 C           6.0     2.7686375446        2.9867119236       12.8639317162
 C           6.0     6.8988226634        8.4051232482       14.8829149615
 C           6.0     3.6586984848        5.9324167933       17.1789320366
 C           6.0     2.3511970739        1.5087572286       10.6325432699
 C           6.0     1.4125701758        2.5399807001       15.1059026281
 C           6.0     1.8606242075        3.9975263544       17.2257972411
 H           1.0    10.8079098416        5.8298046721        0.0000000000
 H           1.0     7.6305245658        2.3838893335        0.0232436296
 H           1.0    11.5418794152        8.3996430428        3.8618440285
 H           1.0     5.1449679742        1.4705847636        3.9274175203
 H           1.0    10.5807647779        9.3688835019        8.2539451692
 H           1.0     9.6370356196       10.3715721110       12.6800613776
 H           1.0     3.3733498607        0.8452744343        6.7635182827
 H           1.0     7.2094936158        9.5283763753       16.5955736242
 H           1.0     3.9892115601        7.0705987557       18.8772287817
 H           1.0     0.9342805283        0.0000000000       10.7032190219
 H           1.0     0.0000000000        1.0264991565       15.1540906407
 H           1.0     0.7991651202        3.6411240331       18.9662348758

          INTERNUCLEAR DISTANCES (ANGS.)




     $CONTRL OPTIONS
     ---------------
 SCFTYP=RHF          RUNTYP=OPTIMIZE     EXETYP=RUN     
 MPLEVL=       0     CITYP =NONE         CCTYP =NONE         VBTYP =NONE    
 DFTTYP=NONE         TDDFT =NONE    
 MULT  =       1     ICHARG=       0     NZVAR =       1     COORD =UNIQUE  
 PP    =NONE         RELWFN=NONE         LOCAL =NONE         NUMGRD=       F
 ISPHER=      -1     NOSYM =       0     MAXIT =     200     UNITS =ANGS    
 PLTORB=       F     MOLPLT=       F     AIMPAC=       F     FRIEND=        
 NPRINT=       7     IREST =       0     GEOM  =INPUT   
 NORMF =       0     NORMP =       0     ITOL  =      20     ICUT  =       9
 INTTYP=BEST         GRDTYP=BEST         QMTTOL= 1.0E-06

     $SYSTEM OPTIONS
     ---------------
  REPLICATED MEMORY=    40000000 WORDS (ON EVERY NODE).
 DISTRIBUTED MEMDDI=           0 MILLION WORDS IN AGGREGATE,
 MEMDDI DISTRIBUTED OVER   1 PROCESSORS IS           0 WORDS/PROCESSOR.
 TOTAL MEMORY REQUESTED ON EACH PROCESSOR=    40000000 WORDS.
 TIMLIM=       10000.00 MINUTES, OR       6.9 DAYS.
 PARALL= F  BALTYP=  DLB     KDIAG=    0  COREFL= F
 MXSEQ2=     300 MXSEQ3=     150  mem10=         0

     $COSGMS OPTIONS
     ---------------
     EPSI  =   INFTY     NSPA  =      92     COSRAD=    1.40
     DISEX =   10.00     OUTCHG=DBLCAV       COSBUG=       F
     COSWRT=       F     DCOSMO=       F

     SYMMETRY COORDINATES WILL NOT BE USED FOR 
     THE COSMO CALCULATION, EVEN IF SPECIFIED:
         -- SWITCHING TO C1 POINT GROUP --


     DEFINITION OF CAVITY
     ---------------------------
     ATOM         COORDINATES           RADIUS 
     1    9.7366    5.4581    1.7304    2.0000
     2    7.9266    3.4949    1.7431    2.0000
     3   10.1412    6.8739    3.8575    2.0000
     4    6.5626    2.9928    3.8834    2.0000
     5    6.9404    4.4286    6.1180    2.0000
     6    8.7481    6.3878    6.1019    2.0000
     7    5.5365    3.9384    8.3775    2.0000
     8    9.1657    7.8546    8.3087    2.0000
     9    7.8201    7.3883   10.4831    2.0000
    10    5.9798    5.4067   10.5296    2.0000
    11    8.2192    8.8632   12.7530    2.0000
    12    4.5867    4.9343   12.8016    2.0000
    13    3.6799    1.9695    8.4875    2.0000
    14    5.0267    6.4164   14.9899    2.0000
    15    2.7686    2.9867   12.8639    2.0000
    16    6.8988    8.4051   14.8829    2.0000
    17    3.6587    5.9324   17.1789    2.0000
    18    2.3512    1.5088   10.6325    2.0000
    19    1.4126    2.5400   15.1059    2.0000
    20    1.8606    3.9975   17.2258    2.0000
    21   10.8079    5.8298    0.0000    1.3000
    22    7.6305    2.3839    0.0232    1.3000
    23   11.5419    8.3996    3.8618    1.3000
    24    5.1450    1.4706    3.9274    1.3000
    25   10.5808    9.3689    8.2539    1.3000
    26    9.6370   10.3716   12.6801    1.3000
    27    3.3733    0.8453    6.7635    1.3000
    28    7.2095    9.5284   16.5956    1.3000
    29    3.9892    7.0706   18.8772    1.3000
    30    0.9343    0.0000   10.7032    1.3000
    31    0.0000    1.0265   15.1541    1.3000
    32    0.7992    3.6411   18.9662    1.3000

          ----------------
          PROPERTIES INPUT
          ----------------

     MOMENTS            FIELD           POTENTIAL          DENSITY
 IEMOM =       1   IEFLD =       0   IEPOT =       0   IEDEN =       0
 WHERE =COMASS     WHERE =NUCLEI     WHERE =NUCLEI     WHERE =NUCLEI  
 OUTPUT=BOTH       OUTPUT=BOTH       OUTPUT=BOTH       OUTPUT=BOTH    
 IEMINT=       0   IEFINT=       0                     IEDINT=       0
                                                       MORB  =       0
          EXTRAPOLATION IN EFFECT
          SOSCF IN EFFECT
 ORBITAL PRINTING OPTION: NPREO=     1   452     2     1

     -------------------------------
     INTEGRAL TRANSFORMATION OPTIONS
     -------------------------------
     NWORD  =            0
     CUTOFF = 1.0E-09     MPTRAN =       0
     DIRTRF =       T     AOINTS =DUP     

          ----------------------
          INTEGRAL INPUT OPTIONS
          ----------------------
 NOPK  =       1 NORDER=       0 SCHWRZ=       T


 -----------------------------------------------
  STATISTICS ON AUTOMATIC COORDINATE GENERATION 
 -----------------------------------------------
  NUMBER OF USER SPECIFIED BONDS                             0
  NUMBER OF BONDS                                           36
  NUMBER OF ANGLES                                          60
  NUMBER OF TORSIONS                                        96
  NUMBER OF EXTRA COORD.                                     0
  NUMBER OF EXTRA COORD. FOR CONSTRAINTS                     0
  NUMBER OF CONSTRAINED COORD.                               0

  TOTAL NUMBER OF PRIMITIVES                               192
 -----------------------------------------------

   --- ENCODED Z MATRIX ---
 COORD  TYPE   I   J   K   L   M   N
    1      1    1  21
    2      1    1   3
    3      1    1   2
    4      1    2   4
    5      1    2  22
    6      1    3  23
    7      1    3   6
    8      1    4   5
    9      1    4  24
   10      1    5   7
   11      1    5   6
   12      1    6   8
   13      1    7  10
   14      1    7  13
   15      1    8  25
   16      1    8   9
   17      1    9  11
   18      1    9  10
   19      1   10  12
   20      1   11  26
   21      1   11  16
   22      1   12  14
   23      1   12  15
   24      1   13  27
   25      1   13  18
   26      1   14  17
   27      1   14  16
   28      1   15  19
   29      1   15  18
   30      1   16  28
   31      1   17  20
   32      1   17  29
   33      1   18  30
   34      1   19  20
   35      1   19  31
   36      1   20  32
   37      2    1   2  22
   38      2    1   3   6
   39      2    1   3  23
   40      2    1   2   4
   41      2    2   1   3
   42      2    2   4   5
   43      2    2   1  21
   44      2    2   4  24
   45      2    3   6   8
   46      2    3   6   5
   47      2    3   1  21
   48      2    4   5   7
   49      2    4   2  22
   50      2    4   5   6
   51      2    5   4  24
   52      2    5   6   8
   53      2    5   7  13
   54      2    5   7  10
   55      2    6   3  23
   56      2    6   8  25
   57      2    6   8   9
   58      2    6   5   7
   59      2    7  13  18
   60      2    7  13  27
   61      2    7  10  12
   62      2    7  10   9
   63      2    8   9  10
   64      2    8   9  11
   65      2    9   8  25
   66      2    9  10  12
   67      2    9  11  16
   68      2    9  11  26
   69      2   10   9  11
   70      2   10   7  13
   71      2   10  12  15
   72      2   10  12  14
   73      2   11  16  28
   74      2   11  16  14
   75      2   12  15  18
   76      2   12  15  19
   77      2   12  14  16
   78      2   12  14  17
   79      2   13  18  30
   80      2   13  18  15
   81      2   14  17  29
   82      2   14  17  20
   83      2   14  16  28
   84      2   14  12  15
   85      2   15  19  31
   86      2   15  19  20
   87      2   15  18  30
   88      2   16  14  17
   89      2   16  11  26
   90      2   17  20  32
   91      2   17  20  19
   92      2   18  15  19
   93      2   18  13  27
   94      2   19  20  32
   95      2   20  19  31
   96      2   20  17  29
   97      3    1   2   4  24
   98      3    1   3   6   8
   99      3    1   2   4   5
  100      3    1   3   6   5
  101      3    2   4   5   6
  102      3    2   4   5   7
  103      3    2   1   3   6
  104      3    2   1   3  23
  105      3    3   6   5   4
  106      3    3   6   8   9
  107      3    3   6   8  25
  108      3    3   1   2  22
  109      3    3   1   2   4
  110      3    3   6   5   7
  111      3    4   5   6   8
  112      3    4   5   7  13
  113      3    4   5   7  10
  114      3    4   2   1  21
  115      3    5   6   3  23
  116      3    5   7  10  12
  117      3    5   7  10   9
  118      3    5   7  13  18
  119      3    5   7  13  27
  120      3    5   6   8   9
  121      3    5   6   8  25
  122      3    5   4   2  22
  123      3    6   3   1  21
  124      3    6   5   7  10
  125      3    6   5   7  13
  126      3    6   5   4  24
  127      3    6   8   9  10
  128      3    6   8   9  11
  129      3    7   5   6   8
  130      3    7  10   9  11
  131      3    7  10   9   8
  132      3    7  10  12  15
  133      3    7  10  12  14
  134      3    7  13  18  30
  135      3    7  13  18  15
  136      3    7   5   4  24
  137      3    8   6   3  23
  138      3    8   9  11  16
  139      3    8   9  11  26
  140      3    8   9  10  12
  141      3    9  11  16  28
  142      3    9  11  16  14
  143      3    9  10  12  15
  144      3    9  10  12  14
  145      3    9  10   7  13
  146      3   10  12  14  16
  147      3   10  12  14  17
  148      3   10  12  15  18
  149      3   10  12  15  19
  150      3   10   9  11  26
  151      3   10   9  11  16
  152      3   10   9   8  25
  153      3   10   7  13  27
  154      3   10   7  13  18
  155      3   11  16  14  17
  156      3   11  16  14  12
  157      3   11   9  10  12
  158      3   11   9   8  25
  159      3   12  10   7  13
  160      3   12  14  17  29
  161      3   12  14  17  20
  162      3   12  14  16  28
  163      3   12  15  19  31
  164      3   12  15  19  20
  165      3   12  15  18  30
  166      3   12  15  18  13
  167      3   13  18  15  19
  168      3   14  16  11  26
  169      3   14  17  20  32
  170      3   14  17  20  19
  171      3   14  12  15  19
  172      3   14  12  15  18
  173      3   15  19  20  32
  174      3   15  19  20  17
  175      3   15  18  13  27
  176      3   15  12  14  17
  177      3   15  12  14  16
  178      3   16  14  17  20
  179      3   16  14  17  29
  180      3   17  20  19  31
  181      3   17  14  16  28
  182      3   18  15  19  20
  183      3   18  15  19  31
  184      3   19  20  17  29
  185      3   19  15  18  30
  186      3   21   1   3  23
  187      3   21   1   2  22
  188      3   22   2   4  24
  189      3   26  11  16  28
  190      3   27  13  18  30
  191      3   29  17  20  32
  192      3   31  19  20  32

          INDEP./SYM. INTERNAL COORDINATES
          --------------------------------
 CRD  1=   0.1350 (  2) -0.1597 (  4) -0.1458 (  8) -0.3349 ( 10)  0.1999 ( 12)
          -0.1305 ( 13) -0.1492 ( 14)  0.2242 ( 16)  0.1076 ( 17)  0.1295 ( 21)
          -0.1678 ( 25) -0.1040 ( 28)  0.2875 ( 45) -0.1887 ( 46) -0.3243 ( 48)
           0.2152 ( 50) -0.2778 ( 53)  0.1128 ( 54)  0.1090 ( 58) -0.1225 ( 61)
           0.1981 ( 64)  0.1348 ( 66) -0.1305 ( 69)  0.1649 ( 70)  0.1096 ( 88)
          -0.1005 ( 92)
 CRD  2=  -0.1338 ( 98)  0.2111 (102)  0.2615 (106) -0.1587 (110) -0.1052 (112)
          -0.2340 (113)  0.2746 (116)  0.1704 (117) -0.2404 (118) -0.1736 (119)
           0.1721 (120) -0.1005 (122)  0.1003 (123) -0.1012 (127) -0.1947 (128)
          -0.1358 (133)  0.1072 (136)  0.2123 (138)  0.1135 (139) -0.1749 (140)
           0.1163 (146)  0.1646 (147) -0.1431 (149)  0.1199 (151) -0.1121 (154)
          -0.1324 (155)  0.1489 (159)  0.1322 (166)  0.1835 (167)
 CRD  3=   0.1046 (  4)  0.2829 (  7)  0.2242 (  8)  0.3177 ( 10)  0.2485 ( 12)
           0.1571 ( 13)  0.3032 ( 16)  0.2194 ( 17)  0.2610 ( 19)  0.1646 ( 21)
           0.1904 ( 26) -0.1262 ( 39) -0.1131 ( 44)  0.1379 ( 45)  0.1310 ( 48)
           0.1077 ( 54)  0.1724 ( 64) -0.1389 ( 69) -0.1608 ( 70)  0.1133 ( 72)
          -0.1056 ( 77) -0.1222 ( 84) -0.1004 ( 89)
 CRD  4=  -0.1733 (  7)  0.1159 (  8)  0.1341 ( 13)  0.1201 ( 21) -0.1709 ( 25)
           0.2319 ( 26)  0.2115 ( 27) -0.3081 ( 28) -0.2103 ( 29)  0.1308 ( 31)
          -0.1397 ( 34) -0.1848 ( 45)  0.1653 ( 48)  0.1317 ( 52) -0.1390 ( 58)
          -0.1535 ( 71)  0.1347 ( 72)  0.1719 ( 75)  0.1395 ( 76) -0.1082 ( 77)
          -0.1659 ( 78)  0.1018 ( 83) -0.1196 ( 85)  0.2741 ( 88)  0.1087 ( 90)
          -0.3114 ( 92) -0.1209 ( 94)  0.1129 ( 95)
 CRD  5=  -0.1632 ( 98) -0.1381 (100)  0.1728 (105)  0.1225 (109)  0.1812 (110)
           0.1978 (111) -0.2463 (112) -0.2146 (113) -0.1150 (115) -0.2233 (124)
          -0.2550 (125) -0.1234 (126) -0.1819 (127) -0.1680 (128)  0.2062 (129)
           0.1493 (130)  0.1628 (131) -0.1440 (132) -0.1240 (133) -0.1130 (135)
          -0.1321 (136) -0.1400 (137)  0.1662 (140) -0.1474 (143) -0.1274 (144)
           0.1002 (149) -0.1190 (152)  0.1284 (155)  0.1181 (156)  0.1527 (157)
          -0.1051 (158)
 CRD  6=  -0.1260 (  7)  0.2251 (  8) -0.1097 ( 10)  0.1621 ( 12)  0.1555 ( 13)
           0.3035 ( 17) -0.1287 ( 19) -0.2508 ( 26) -0.2599 ( 27) -0.1440 ( 31)
           0.1309 ( 48)  0.1117 ( 51)  0.1645 ( 52) -0.1255 ( 53) -0.1009 ( 55)
          -0.2008 ( 58)  0.1482 ( 62) -0.2366 ( 63)  0.2090 ( 64) -0.1088 ( 66)
           0.1843 ( 68)  0.1667 ( 73)  0.1542 ( 77) -0.2536 ( 88) -0.1408 ( 89)
 CRD  7=  -0.1114 (  7)  0.1363 (  8) -0.1661 ( 11) -0.3422 ( 14) -0.1123 ( 18)
           0.1803 ( 22)  0.1513 ( 26)  0.1703 ( 27)  0.2229 ( 28)  0.3357 ( 29)
           0.1593 ( 34)  0.1086 ( 48) -0.2394 ( 53)  0.1966 ( 54) -0.1336 ( 58)
          -0.1857 ( 60)  0.1008 ( 61) -0.1287 ( 62) -0.1150 ( 75) -0.1238 ( 76)
          -0.1993 ( 79)  0.1469 ( 87)  0.1001 ( 88)  0.2388 ( 92)  0.1739 ( 93)
 CRD  8=   0.1461 (  2)  0.1957 (  7)  0.2098 ( 12) -0.2224 ( 16) -0.1368 ( 17)
          -0.2722 ( 18) -0.1164 ( 19) -0.1285 ( 21)  0.1073 ( 22) -0.2030 ( 23)
          -0.1649 ( 28)  0.2560 ( 45) -0.1100 ( 46) -0.1461 ( 52)  0.2574 ( 56)
           0.1673 ( 61) -0.2037 ( 64) -0.3322 ( 65) -0.1502 ( 66) -0.1216 ( 68)
           0.1261 ( 69) -0.1433 ( 71) -0.1328 ( 74) -0.1152 ( 82)  0.1175 ( 83)
          -0.1216 ( 85)
 CRD  9=   0.1448 ( 11)  0.1537 ( 12)  0.2124 ( 13)  0.2855 ( 14)  0.1823 ( 17)
           0.2475 ( 18)  0.1328 ( 20)  0.2418 ( 22)  0.2787 ( 23)  0.1226 ( 24)
           0.2908 ( 27)  0.2332 ( 29)  0.1286 ( 30)  0.1499 ( 33) -0.1291 ( 54)
           0.1200 ( 60)  0.1095 ( 62)  0.1539 ( 69)  0.1230 ( 70)  0.1292 ( 75)
          -0.1160 ( 76)  0.1422 ( 77) -0.1540 ( 78)  0.1553 ( 83)  0.1351 ( 84)
           0.1229 ( 87)  0.1347 ( 91)
 CRD 10=   0.2736 (  8)  0.1728 ( 12) -0.1148 ( 13) -0.1334 ( 14) -0.1357 ( 16)
          -0.1163 ( 17) -0.2188 ( 22)  0.1300 ( 23) -0.1661 ( 24) -0.1188 ( 26)
           0.1450 ( 27) -0.2073 ( 29)  0.1018 ( 31) -0.1522 ( 32)  0.1437 ( 35)
          -0.1105 ( 44)  0.1040 ( 48)  0.1230 ( 51)  0.1002 ( 54)  0.1827 ( 56)
          -0.1297 ( 58)  0.1771 ( 59) -0.1578 ( 60) -0.1561 ( 65) -0.1351 ( 67)
           0.1387 ( 71) -0.1456 ( 72) -0.1314 ( 75)  0.1535 ( 76) -0.1360 ( 78)
          -0.1944 ( 81)  0.1954 ( 82)  0.1630 ( 85) -0.2122 ( 86)
 CRD 11=   0.1512 ( 98) -0.1518 (101) -0.2341 (102) -0.1257 (103)  0.1025 (105)
          -0.2014 (106) -0.1153 (107)  0.1829 (110)  0.1201 (122) -0.1463 (123)
          -0.1790 (125)  0.1741 (128) -0.1449 (130) -0.1573 (136)  0.1651 (145)
           0.1459 (146)  0.1340 (147) -0.1258 (148) -0.1144 (149)  0.1441 (150)
           0.1164 (151) -0.1498 (153) -0.1049 (154) -0.1316 (155) -0.1437 (156)
          -0.1106 (157)  0.1306 (159) -0.1586 (162)  0.1607 (165)  0.1541 (166)
           0.1424 (167) -0.1058 (170) -0.1442 (171) -0.1556 (172)  0.1256 (174)
           0.1639 (176)  0.1758 (177) -0.1465 (181)  0.1490 (185)
 CRD 12=  -0.1761 (  1) -0.2173 (  4) -0.2006 (  7)  0.1410 (  8) -0.1143 ( 10)
           0.2404 ( 11)  0.1165 ( 12)  0.2133 ( 15) -0.1143 ( 17)  0.1132 ( 19)
           0.2245 ( 26)  0.1453 ( 28) -0.1241 ( 30)  0.2092 ( 41) -0.1330 ( 42)
          -0.1248 ( 43) -0.1212 ( 46)  0.1371 ( 50)  0.2314 ( 51)  0.1624 ( 52)
           0.2109 ( 56) -0.2232 ( 57)  0.1021 ( 63)  0.1274 ( 74) -0.1386 ( 77)
           0.1016 ( 78)  0.1480 ( 81) -0.1129 ( 84)  0.1192 ( 86) -0.1388 ( 95)
          -0.1259 ( 96)
 CRD 13=  -0.1731 (  1) -0.3450 (  2) -0.4537 (  3) -0.1863 (  4) -0.2229 (  5)
           0.1018 ( 31)  0.1217 ( 34) -0.2723 ( 37) -0.2347 ( 39)  0.1641 ( 40)
          -0.1628 ( 43) -0.1348 ( 44)  0.1081 ( 49) -0.1030 ( 50)  0.2162 ( 51)
           0.3058 ( 55) -0.1155 ( 85)  0.1159 ( 95)  0.1176 ( 96)
 CRD 14=   0.1248 ( 98)  0.1038 (100) -0.1290 (105) -0.1498 (111)  0.1093 (113)
           0.1404 (118)  0.1101 (119) -0.1179 (132) -0.1121 (135)  0.1059 (137)
           0.1380 (138)  0.1146 (139) -0.1375 (142) -0.1558 (143) -0.1330 (144)
           0.1330 (146)  0.1320 (148)  0.1369 (149)  0.1115 (150)  0.1349 (151)
           0.1258 (154) -0.1506 (160) -0.2317 (161) -0.1849 (163) -0.2225 (164)
          -0.1134 (168)  0.1398 (169)  0.1254 (170)  0.1142 (171)  0.1093 (172)
           0.1048 (174)  0.1114 (176)  0.1558 (177) -0.2773 (178) -0.1962 (179)
          -0.2175 (182) -0.1798 (183)
 CRD 15=  -0.1342 (  3) -0.4191 ( 31) -0.1365 ( 32) -0.4232 ( 34) -0.1076 ( 35)
          -0.2279 ( 36) -0.1078 ( 78)  0.2739 ( 81)  0.3012 ( 85)  0.1729 ( 91)
          -0.2931 ( 95) -0.3067 ( 96)
 CRD 16=   0.3083 (  2) -0.4004 (  4) -0.1167 (  5) -0.1462 (  9)  0.1678 ( 37)
           0.2940 ( 39)  0.1254 ( 40) -0.1158 ( 41)  0.1006 ( 42) -0.2293 ( 43)
          -0.3301 ( 44)  0.3451 ( 47) -0.2932 ( 49)  0.2295 ( 51) -0.1994 ( 55)
 CRD 17=   0.2397 ( 21) -0.1181 ( 24) -0.4273 ( 25) -0.1001 ( 31) -0.1267 ( 33)
           0.2877 ( 60) -0.1731 ( 68)  0.2076 ( 73) -0.3678 ( 79) -0.1532 ( 83)
           0.2773 ( 87)  0.2054 ( 89) -0.1366 ( 90) -0.3670 ( 93)  0.1250 ( 94)
 CRD 18=  -0.1480 ( 20) -0.4296 ( 21) -0.1091 ( 24) -0.2519 ( 25) -0.1251 ( 30)
           0.1309 ( 60)  0.1037 ( 67)  0.2750 ( 68) -0.3649 ( 73) -0.2085 ( 79)
           0.2866 ( 83)  0.1806 ( 87) -0.3787 ( 89) -0.2113 ( 93)
 CRD 19=  -0.1138 (  2)  0.3936 (  3) -0.1082 (  4)  0.2062 (  6)  0.1401 (  7)
           0.1915 (  9)  0.2134 ( 11)  0.2106 ( 37) -0.1718 ( 38)  0.1349 ( 40)
          -0.1602 ( 42)  0.2326 ( 43) -0.1016 ( 44)  0.1171 ( 46) -0.2765 ( 47)
          -0.3455 ( 49)  0.2619 ( 51)  0.2500 ( 55) -0.1261 ( 60) -0.1070 ( 94)
 CRD 20=   0.2750 ( 31)  0.1024 ( 32) -0.2892 ( 34) -0.1092 ( 35)  0.1080 ( 73)
          -0.1021 ( 79) -0.1620 ( 81) -0.1308 ( 82) -0.1211 ( 83)  0.1696 ( 85)
           0.1324 ( 86)  0.1155 ( 87)  0.4534 ( 90) -0.4541 ( 94) -0.3021 ( 95)
           0.2929 ( 96)
 CRD 21=   0.1956 (  2)  0.1490 (  4)  0.1801 (  8)  0.1142 ( 10)  0.1284 ( 11)
          -0.1132 ( 13)  0.1463 ( 15) -0.1591 ( 17) -0.1744 ( 24) -0.2600 ( 28)
           0.1199 ( 32)  0.2556 ( 33) -0.1220 ( 36)  0.1396 ( 39) -0.1111 ( 43)
           0.1152 ( 47) -0.1258 ( 55) -0.1092 ( 57)  0.1888 ( 59) -0.1985 ( 60)
           0.1071 ( 63)  0.1064 ( 66)  0.1341 ( 75) -0.1114 ( 76) -0.2834 ( 80)
           0.1597 ( 81) -0.1633 ( 82) -0.1611 ( 85)  0.2192 ( 87)  0.1122 ( 91)
 CRD 22=  -0.1840 (  2) -0.2061 (  4) -0.2733 (  6) -0.2631 (  9) -0.1689 ( 11)
           0.3280 ( 37)  0.2664 ( 38) -0.2311 ( 39) -0.1537 ( 40) -0.1080 ( 41)
           0.2590 ( 42)  0.3021 ( 43) -0.2734 ( 44) -0.1404 ( 46) -0.1942 ( 47)
          -0.1743 ( 49) -0.1232 ( 50)
 CRD 23=   0.1031 (101)  0.1026 (102)  0.1229 (106)  0.1356 (107) -0.1340 (112)
           0.1480 (117) -0.1243 (119)  0.1340 (120)  0.1467 (121) -0.1345 (125)
          -0.1780 (130)  0.1676 (133) -0.1048 (134) -0.1567 (143)  0.2195 (145)
          -0.1856 (147)  0.1377 (149)  0.1341 (150) -0.1973 (153)  0.2029 (155)
           0.1530 (160)  0.1638 (165) -0.1635 (167) -0.1408 (168)  0.1482 (169)
          -0.2076 (172) -0.1969 (173)  0.1612 (175)  0.1544 (177) -0.1639 (178)
           0.2654 (182)  0.1145 (183)
 CRD 24=   0.1262 (  7) -0.2134 ( 15) -0.2339 ( 16)  0.3187 ( 20)  0.2176 ( 26)
          -0.2633 ( 30) -0.1401 ( 35)  0.1232 ( 36)  0.1109 ( 40)  0.1590 ( 57)
          -0.2104 ( 65) -0.3180 ( 67)  0.2976 ( 68)  0.1039 ( 69)  0.2699 ( 74)
           0.1111 ( 81) -0.2138 ( 83) -0.1226 ( 85)  0.1418 ( 86) -0.1235 ( 91)
 CRD 25=   0.1111 (  1) -0.1046 ( 20)  0.1248 ( 27)  0.1329 ( 29)  0.1669 ( 30)
          -0.1066 ( 31) -0.3417 ( 32)  0.1172 ( 33) -0.1090 ( 34) -0.3163 ( 35)
           0.2918 ( 36)  0.1022 ( 67) -0.1470 ( 74) -0.1038 ( 80) -0.1874 ( 81)
           0.2536 ( 82)  0.1798 ( 83) -0.1611 ( 85)  0.2343 ( 86)  0.1441 ( 87)
           0.1663 ( 90) -0.3318 ( 91)  0.1655 ( 94)
 CRD 26=  -0.3516 (  1) -0.1213 (  4)  0.2958 (  5)  0.2304 (  6) -0.1907 (  9)
           0.1095 ( 10) -0.1697 ( 12) -0.1924 ( 15) -0.1078 ( 24)  0.1373 ( 33)
          -0.1179 ( 35)  0.1618 ( 37) -0.1958 ( 38) -0.2932 ( 40)  0.3214 ( 41)
           0.1148 ( 42) -0.1737 ( 43) -0.1477 ( 47)  0.1315 ( 49) -0.1017 ( 51)
           0.1431 ( 55) -0.1439 ( 56)  0.1309 ( 57)  0.1172 ( 59) -0.1031 ( 80)
 CRD 27=  -0.1289 ( 97) -0.2456 ( 98) -0.2245 ( 99) -0.2287 (100)  0.1265 (101)
           0.1971 (102)  0.1345 (103) -0.1130 (106) -0.1308 (107)  0.1154 (111)
          -0.1698 (115) -0.1301 (120) -0.1478 (121) -0.2198 (122)  0.1620 (123)
           0.1267 (127)  0.1918 (128) -0.1048 (130)  0.1046 (136) -0.1867 (137)
           0.1346 (141)  0.1016 (150)  0.1447 (152) -0.1072 (155) -0.1357 (156)
          -0.1055 (157)  0.2098 (158) -0.1696 (162) -0.1037 (163) -0.1112 (167)
          -0.1218 (178) -0.1077 (179) -0.1412 (181)  0.1020 (186) -0.1242 (188)
 CRD 28=  -0.1232 (  2) -0.1094 (  4) -0.1889 (  5) -0.1199 (  6) -0.2052 (  7)
          -0.1993 (  8) -0.1225 ( 13) -0.1311 ( 16)  0.1995 ( 17) -0.1216 ( 18)
           0.1146 ( 19)  0.1949 ( 22)  0.1323 ( 23) -0.2726 ( 24)  0.1484 ( 26)
           0.1878 ( 30)  0.1340 ( 32)  0.1896 ( 33) -0.1136 ( 42)  0.1360 ( 44)
           0.1196 ( 53)  0.1982 ( 56)  0.2479 ( 59) -0.1315 ( 60) -0.2174 ( 65)
           0.1185 ( 67) -0.1309 ( 70) -0.1265 ( 74) -0.1481 ( 80) -0.1182 ( 84)
          -0.1436 ( 89) -0.1164 ( 93)
 CRD 29=  -0.1148 ( 97) -0.1001 (100)  0.1953 (101)  0.1998 (103)  0.1759 (104)
          -0.1311 (108) -0.1006 (109) -0.1155 (111)  0.1251 (113)  0.2046 (118)
           0.1661 (119)  0.1426 (123)  0.2103 (126) -0.1952 (134) -0.1932 (135)
           0.1002 (136) -0.1381 (138) -0.1263 (139)  0.1120 (140) -0.1316 (152)
           0.1312 (154)  0.1371 (165)  0.1351 (166)  0.1870 (167) -0.1642 (169)
          -0.1597 (170) -0.1283 (171)  0.1195 (173)  0.1149 (174) -0.1531 (175)
          -0.1053 (184)  0.1890 (185)  0.1187 (186) -0.1552 (190) -0.1098 (191)
 CRD 30=   0.1136 (  8)  0.2550 ( 14) -0.2453 ( 15) -0.1333 ( 16) -0.1973 ( 17)
          -0.2528 ( 18) -0.2773 ( 20) -0.1239 ( 22)  0.2415 ( 23)  0.1697 ( 24)
          -0.2216 ( 27)  0.1590 ( 28)  0.1360 ( 29) -0.1476 ( 30)  0.2423 ( 33)
           0.1898 ( 35) -0.1090 ( 53)  0.1050 ( 57)  0.1370 ( 60)  0.1551 ( 64)
          -0.1087 ( 68)  0.1195 ( 70)  0.1004 ( 75) -0.1015 ( 80)  0.1036 ( 85)
          -0.1541 ( 92) -0.1009 ( 93)
 CRD 31=  -0.1146 (106) -0.1807 (107) -0.1497 (121)  0.1137 (127) -0.1029 (134)
          -0.1188 (135)  0.2412 (138)  0.2267 (139) -0.2438 (141) -0.2403 (142)
           0.1697 (150)  0.1841 (151)  0.1809 (152)  0.1932 (155)  0.1430 (156)
           0.1232 (158)  0.1146 (160)  0.1464 (162)  0.1136 (163)  0.1012 (164)
           0.1276 (167) -0.2253 (168) -0.1044 (173) -0.1111 (174) -0.1323 (175)
          -0.1237 (180)  0.1966 (181)  0.1120 (185) -0.2288 (189) -0.1163 (190)
          -0.1170 (192)
 CRD 32=   0.1497 (  1)  0.1221 (  2)  0.1308 (  5)  0.2227 (  7) -0.1800 ( 10)
          -0.1537 ( 13) -0.2141 ( 19)  0.1711 ( 22) -0.1891 ( 24) -0.1691 ( 25)
           0.2021 ( 26)  0.1974 ( 28) -0.2163 ( 29)  0.1042 ( 30)  0.2147 ( 32)
          -0.1127 ( 33)  0.1377 ( 34)  0.1933 ( 36) -0.1706 ( 39) -0.1011 ( 44)
          -0.1045 ( 54)  0.1251 ( 55) -0.1278 ( 56) -0.1087 ( 61)  0.1669 ( 62)
           0.1985 ( 65)  0.1060 ( 69)  0.1549 ( 79)  0.1127 ( 81) -0.1381 ( 88)
          -0.1692 ( 95)
 CRD 33=   0.1015 (  5)  0.1582 (  6) -0.2255 (  9)  0.1402 ( 11) -0.2094 ( 14)
           0.1572 ( 15)  0.1444 ( 17)  0.1035 ( 23) -0.2113 ( 27)  0.1617 ( 29)
           0.1193 ( 31)  0.1458 ( 35)  0.1263 ( 42) -0.1192 ( 45)  0.1011 ( 46)
          -0.1604 ( 50) -0.1410 ( 54)  0.1896 ( 56) -0.1174 ( 57) -0.1651 ( 60)
           0.1086 ( 63)  0.1246 ( 68)  0.1305 ( 70)  0.2103 ( 73)  0.1188 ( 76)
          -0.1134 ( 78) -0.1666 ( 79)  0.1012 ( 82) -0.1565 ( 83)  0.1479 ( 87)
          -0.1831 ( 89) -0.1026 ( 92)  0.2283 ( 93) -0.1597 ( 96)
 CRD 34=  -0.1634 ( 97)  0.1326 (104)  0.1265 (114) -0.1458 (115) -0.1054 (118)
           0.1445 (126)  0.2060 (134)  0.1715 (135) -0.1692 (141) -0.1267 (142)
          -0.1093 (153) -0.1151 (154)  0.1056 (156)  0.1469 (162) -0.1151 (163)
          -0.1022 (164) -0.1524 (165) -0.1188 (166) -0.1032 (168) -0.1864 (169)
          -0.1814 (170)  0.1980 (173)  0.1929 (174)  0.1655 (175)  0.1263 (178)
           0.1332 (179)  0.2059 (180) -0.1307 (182) -0.1435 (183) -0.1882 (184)
          -0.1240 (185) -0.1458 (189)  0.2000 (190) -0.1932 (191)  0.2109 (192)
 CRD 35=   0.1228 (  4)  0.1711 (  5)  0.1078 (  8) -0.1341 ( 12) -0.1732 ( 13)
          -0.1579 ( 15)  0.2283 ( 21)  0.1252 ( 24) -0.1428 ( 25)  0.1010 ( 27)
           0.2335 ( 30) -0.1057 ( 33) -0.1808 ( 44)  0.1494 ( 46) -0.1662 ( 50)
           0.1417 ( 51) -0.1444 ( 52) -0.1121 ( 53)  0.2394 ( 56)  0.1461 ( 58)
          -0.1338 ( 61)  0.1396 ( 63) -0.2366 ( 65)  0.2113 ( 66) -0.2066 ( 69)
           0.1730 ( 70) -0.1515 ( 89) -0.1245 ( 95)  0.1307 ( 96)
 CRD 36=  -0.2001 ( 97)  0.2509 (104) -0.2074 (108)  0.1348 (110) -0.1299 (111)
           0.1254 (114) -0.2266 (115) -0.1122 (118)  0.1032 (121)  0.1285 (122)
           0.2150 (126)  0.1101 (134)  0.1012 (135) -0.1235 (152) -0.1215 (154)
          -0.1268 (158) -0.1825 (160) -0.1016 (161)  0.1216 (163)  0.1261 (169)
           0.1970 (170) -0.1023 (173) -0.1735 (174) -0.1352 (179) -0.2394 (180)
           0.1139 (183)  0.2777 (184)  0.2069 (191) -0.1682 (192)
 CRD 37=   0.2780 ( 97) -0.1365 ( 98)  0.2203 ( 99)  0.2096 (103)  0.2170 (104)
          -0.2656 (108) -0.2944 (109) -0.3232 (114) -0.1633 (121)  0.1911 (122)
           0.2388 (123) -0.1212 (126) -0.1445 (136) -0.1438 (137)  0.1171 (152)
           0.1136 (158)  0.2462 (186) -0.2944 (187)  0.2489 (188)
 CRD 38=   0.1248 (  1)  0.1263 (  5) -0.2335 (  6)  0.1903 (  8)  0.2697 (  9)
          -0.2864 ( 12) -0.2266 ( 13) -0.1857 ( 15)  0.1487 ( 24)  0.1606 ( 25)
           0.1070 ( 26) -0.1341 ( 28)  0.1918 ( 30) -0.1171 ( 44)  0.1317 ( 45)
          -0.1679 ( 48)  0.1588 ( 51)  0.1105 ( 53)  0.1005 ( 65)  0.1262 ( 68)
           0.1322 ( 73) -0.1643 ( 75)  0.1076 ( 76)  0.1226 ( 77) -0.1335 ( 79)
           0.1093 ( 81) -0.1494 ( 85) -0.1389 ( 89)  0.1774 ( 95) -0.1252 ( 96)
 CRD 39=   0.2047 (  1)  0.1162 (  6)  0.1170 (  7) -0.1235 (  9) -0.2365 ( 10)
          -0.2804 ( 16)  0.2620 ( 19)  0.1909 ( 21) -0.1395 ( 31) -0.1016 ( 34)
          -0.3531 ( 36) -0.1723 ( 39)  0.1618 ( 52)  0.1608 ( 55)  0.1243 ( 62)
           0.1372 ( 72) -0.1569 ( 73) -0.1529 ( 77)  0.1420 ( 78) -0.1116 ( 79)
          -0.1543 ( 81)  0.1113 ( 83) -0.2004 ( 84)  0.1004 ( 95)  0.1839 ( 96)
 CRD 40=   0.1095 (  5) -0.1773 (  6)  0.1554 (  9) -0.1973 ( 12) -0.1026 ( 14)
           0.1551 ( 17)  0.3137 ( 20) -0.2788 ( 24) -0.1362 ( 26) -0.1238 ( 27)
           0.1228 ( 28)  0.1059 ( 29) -0.1620 ( 30) -0.2413 ( 32)  0.2248 ( 33)
           0.2244 ( 35) -0.1155 ( 48)  0.1693 ( 61)  0.1181 ( 63) -0.1188 ( 64)
          -0.1107 ( 66) -0.2344 ( 71)  0.2003 ( 72)  0.1466 ( 75) -0.1238 ( 77)
           0.1307 ( 85)  0.1124 ( 88) -0.1102 ( 95)
 CRD 41=   0.1848 (  6) -0.1327 ( 10) -0.1478 ( 11) -0.1875 ( 13)  0.3076 ( 15)
           0.1673 ( 16) -0.1853 ( 18) -0.1798 ( 19)  0.2607 ( 20) -0.1621 ( 23)
           0.2107 ( 24)  0.1004 ( 26)  0.1417 ( 32)  0.3267 ( 33)  0.1931 ( 35)
          -0.1050 ( 37)  0.1120 ( 43) -0.1348 ( 44)  0.1265 ( 51)  0.1162 ( 54)
           0.1539 ( 60)  0.1135 ( 76)  0.1282 ( 83) -0.1115 ( 84) -0.1090 ( 88)
          -0.1328 ( 93)
 CRD 42=   0.3265 (  1)  0.2728 (  6) -0.2221 (  9) -0.1911 ( 10) -0.1178 ( 11)
           0.1392 ( 15)  0.1809 ( 19)  0.1087 ( 25) -0.1075 ( 28) -0.1449 ( 32)
           0.1210 ( 33) -0.1610 ( 35)  0.1470 ( 36) -0.1512 ( 37)  0.1691 ( 49)
           0.1319 ( 54)  0.1853 ( 60) -0.1457 ( 62)  0.1320 ( 68) -0.1019 ( 72)
           0.1276 ( 73) -0.1101 ( 78)  0.1373 ( 79) -0.1569 ( 83)  0.1634 ( 84)
          -0.1794 ( 87) -0.1436 ( 89)  0.1112 ( 92) -0.2163 ( 93)
 CRD 43=  -0.1459 (104)  0.1373 (107)  0.1650 (108) -0.1493 (114)  0.1509 (115)
          -0.1864 (116)  0.1000 (121) -0.2017 (122)  0.1781 (123)  0.1190 (128)
           0.1092 (132)  0.1050 (135)  0.1139 (137)  0.1776 (140) -0.1263 (142)
          -0.1106 (149)  0.1639 (150) -0.1275 (152) -0.1036 (159) -0.2141 (160)
           0.2499 (163) -0.2350 (168) -0.2037 (169)  0.1898 (173)  0.1660 (175)
          -0.1434 (179) -0.2335 (180)  0.1459 (183)  0.2100 (184) -0.1620 (189)
           0.1294 (190)
 CRD 44=   0.1348 (  1) -0.2121 (  9) -0.2482 ( 15)  0.2091 ( 22) -0.2457 ( 30)
          -0.3019 ( 32) -0.2011 ( 33)  0.1976 ( 35) -0.2242 ( 37)  0.1543 ( 39)
           0.1793 ( 43) -0.1555 ( 44) -0.1917 ( 47)  0.2207 ( 49)  0.1652 ( 51)
          -0.1491 ( 55)  0.1029 ( 58) -0.1711 ( 68) -0.1393 ( 85)  0.1417 ( 89)
           0.1715 ( 90) -0.1828 ( 94)
 CRD 45=  -0.1031 (  1) -0.2317 (  2)  0.1513 (  4)  0.5455 (  5) -0.1960 (  6)
          -0.2345 (  8) -0.2513 ( 10)  0.1089 ( 12)  0.1247 ( 19)  0.1284 ( 22)
          -0.2187 ( 30) -0.1307 ( 35) -0.1636 ( 43) -0.1083 ( 44) -0.1065 ( 45)
           0.1499 ( 46)  0.2210 ( 47)  0.1349 ( 51) -0.1023 ( 93)
 CRD 46=  -0.2344 (  1)  0.1249 (  7)  0.1905 (  9) -0.1076 ( 11) -0.1097 ( 16)
          -0.1182 ( 17) -0.1289 ( 23)  0.2195 ( 30) -0.1620 ( 31) -0.3683 ( 32)
           0.1592 ( 34)  0.3612 ( 35)  0.1592 ( 37) -0.1588 ( 49) -0.1169 ( 51)
          -0.1008 ( 76)  0.1618 ( 81) -0.1580 ( 85)  0.2672 ( 90) -0.2657 ( 94)
 CRD 47=   0.3309 (  1)  0.2229 (  3) -0.1607 (  4)  0.2055 (  5) -0.3126 (  6)
          -0.1845 (  7) -0.1066 (  8) -0.3015 (  9)  0.1606 ( 10)  0.1820 ( 11)
           0.1508 ( 13) -0.1166 ( 17) -0.1125 ( 19) -0.1811 ( 22) -0.1777 ( 23)
           0.2393 ( 30)  0.2395 ( 35) -0.1585 ( 43)  0.1458 ( 55)
 CRD 48=  -0.1198 (  1)  0.1324 ( 13) -0.1443 ( 14) -0.1545 ( 15)  0.2199 ( 18)
          -0.3231 ( 20) -0.1202 ( 22) -0.1454 ( 23) -0.3684 ( 24)  0.1803 ( 26)
           0.1801 ( 27)  0.1827 ( 28)  0.2157 ( 29)  0.1948 ( 33) -0.3467 ( 36)
           0.1120 ( 39)  0.1047 ( 43) -0.1370 ( 55)  0.1088 ( 58)  0.1213 ( 60)
           0.1065 ( 73)  0.1017 ( 79) -0.1168 ( 81) -0.1329 ( 83) -0.1582 ( 87)
 CRD 49=  -0.1780 (  1)  0.1015 (  4)  0.1110 (  7) -0.1638 ( 10)  0.1230 ( 11)
          -0.1954 ( 14) -0.2938 ( 15)  0.2378 ( 18)  0.1836 ( 19) -0.1809 ( 23)
          -0.2317 ( 26) -0.2258 ( 28)  0.1595 ( 32)  0.2797 ( 33)  0.1071 ( 35)
           0.4419 ( 36) -0.1179 ( 55) -0.1148 ( 73) -0.1102 ( 79)  0.1333 ( 81)
           0.1582 ( 85)
 CRD 50=   0.1044 (113) -0.1622 (119)  0.1189 (124)  0.1320 (127) -0.2360 (134)
          -0.1426 (139) -0.2198 (141) -0.2677 (150)  0.1516 (152) -0.2950 (153)
          -0.1677 (160) -0.1280 (161)  0.2842 (162) -0.1278 (163) -0.1296 (164)
           0.2937 (165)  0.1998 (168)  0.2436 (175)  0.1432 (181)  0.1021 (184)
           0.1614 (185)
 CRD 51=   0.2044 ( 13)  0.1393 ( 14) -0.1712 ( 17) -0.1624 ( 18)  0.3498 ( 20)
          -0.2263 ( 22)  0.2027 ( 23) -0.3769 ( 24) -0.2432 ( 27)  0.2442 ( 29)
           0.2851 ( 30)  0.1380 ( 32) -0.2533 ( 33) -0.1134 ( 35) -0.1201 ( 73)
           0.1264 ( 81)  0.1220 ( 83) -0.1165 ( 87)  0.1437 ( 95) -0.1556 ( 96)
 CRD 52=  -0.2750 (  1)  0.2068 (  3) -0.1911 (  5) -0.3458 (  6)  0.1924 (  7)
           0.1075 (  8) -0.3767 (  9)  0.3003 ( 11) -0.1095 ( 13) -0.1045 ( 14)
           0.1842 ( 20)  0.1026 ( 22)  0.1129 ( 23)  0.1410 ( 24) -0.1140 ( 27)
          -0.1478 ( 32) -0.1739 ( 35) -0.1194 ( 36)  0.1035 ( 39) -0.1408 ( 56)
           0.1720 ( 65) -0.1096 ( 93)
 CRD 53=  -0.1736 (  5) -0.1357 (  7)  0.1722 (  8) -0.1707 ( 12) -0.1343 ( 14)
          -0.1535 ( 15)  0.1263 ( 16)  0.2211 ( 17)  0.1225 ( 28)  0.1070 ( 29)
          -0.2178 ( 30)  0.1343 ( 32)  0.1384 ( 33)  0.1369 ( 37) -0.1257 ( 39)
          -0.1065 ( 43)  0.1188 ( 44) -0.1532 ( 51) -0.1085 ( 53)  0.1154 ( 55)
           0.2073 ( 56)  0.1753 ( 60) -0.1515 ( 65) -0.2039 ( 68) -0.1262 ( 69)
          -0.1053 ( 73)  0.1238 ( 77)  0.1221 ( 79)  0.1891 ( 83) -0.1175 ( 85)
          -0.1700 ( 87) -0.1030 ( 88)  0.1398 ( 89) -0.1136 ( 93)  0.1457 ( 95)
          -0.1443 ( 96)
 CRD 54=  -0.1903 (  1)  0.1061 (  2)  0.1870 (  3) -0.1982 (  5) -0.2224 (  6)
           0.1469 (  7)  0.1484 (  8) -0.1977 (  9) -0.1438 ( 10) -0.1764 ( 12)
           0.1809 ( 14)  0.2596 ( 15)  0.1879 ( 17) -0.1202 ( 18)  0.1105 ( 19)
          -0.2047 ( 20) -0.1884 ( 24) -0.1054 ( 26)  0.2089 ( 27) -0.1237 ( 28)
           0.1747 ( 29) -0.1976 ( 30) -0.1740 ( 31)  0.2302 ( 32) -0.2111 ( 33)
          -0.1447 ( 34)  0.2372 ( 35)  0.1896 ( 36)
 CRD 55=  -0.1452 (106)  0.1925 (108)  0.1192 (110) -0.1954 (114)  0.1174 (119)
           0.1862 (121) -0.2291 (122)  0.2550 (123)  0.1732 (134) -0.1691 (136)
           0.1185 (137) -0.1126 (139) -0.2098 (141)  0.1069 (147) -0.1039 (149)
          -0.1924 (152) -0.1419 (158)  0.1123 (160)  0.1154 (162) -0.1218 (163)
           0.1360 (168)  0.2542 (169) -0.2528 (173) -0.1294 (175)  0.1331 (179)
           0.1311 (180) -0.1380 (183) -0.1221 (184)  0.1658 (186) -0.1221 (188)
           0.1066 (191)
 CRD 56=  -0.2193 (  4)  0.1575 (  7)  0.1138 (  9)  0.2568 ( 10) -0.1341 ( 11)
          -0.1219 ( 13)  0.1997 ( 15) -0.3337 ( 16) -0.1622 ( 20)  0.2752 ( 21)
           0.1162 ( 24) -0.2354 ( 25) -0.2665 ( 26)  0.2200 ( 28) -0.1459 ( 30)
           0.1065 ( 32)  0.1635 ( 33) -0.1044 ( 34) -0.1157 ( 35) -0.1093 ( 37)
           0.1175 ( 39) -0.1616 ( 56)  0.1509 ( 95) -0.1354 ( 96)
 CRD 57=   0.2146 (  2) -0.1479 (  5) -0.1949 (  6) -0.2536 ( 12)  0.2387 ( 13)
           0.2890 ( 15) -0.1114 ( 20) -0.1285 ( 22) -0.1724 ( 29)  0.1099 ( 30)
          -0.1923 ( 32)  0.1801 ( 33)  0.2438 ( 34) -0.2381 ( 35) -0.1217 ( 44)
           0.1096 ( 49)  0.1200 ( 53) -0.1259 ( 54)  0.1485 ( 57)  0.1042 ( 64)
          -0.1895 ( 65) -0.1192 ( 73)  0.1102 ( 78) -0.1309 ( 79)  0.1365 ( 81)
           0.1117 ( 85) -0.1057 ( 88)  0.1346 ( 89)
 CRD 58=  -0.1481 (  2)  0.2451 (  3) -0.1281 (  5)  0.2545 (  8) -0.1308 (  9)
          -0.3106 ( 11)  0.1076 ( 12) -0.2041 ( 13)  0.2272 ( 14) -0.1054 ( 17)
           0.2448 ( 18)  0.1654 ( 22) -0.2588 ( 23) -0.1498 ( 24) -0.1659 ( 27)
           0.1272 ( 29)  0.1344 ( 30)  0.2681 ( 31) -0.1878 ( 32) -0.1421 ( 43)
           0.1022 ( 46)  0.1401 ( 47)  0.1161 ( 76) -0.1359 ( 90) -0.1243 ( 92)
           0.1211 ( 94)
 CRD 59=   0.2221 (  1) -0.2278 (  2) -0.2322 (  4)  0.2445 (  8)  0.1033 (  9)
          -0.1197 ( 13) -0.1830 ( 14)  0.2228 ( 23) -0.1196 ( 24)  0.1422 ( 25)
           0.1305 ( 26) -0.2663 ( 28) -0.1780 ( 31)  0.1641 ( 36)  0.1437 ( 39)
           0.1229 ( 41)  0.1108 ( 44) -0.1467 ( 50) -0.1789 ( 51) -0.1147 ( 52)
          -0.1218 ( 54)  0.1127 ( 58)  0.1744 ( 60)  0.1325 ( 62)  0.1743 ( 70)
          -0.1429 ( 75) -0.1247 ( 84)  0.1047 ( 91)  0.1438 ( 96)
 CRD 60=  -0.1806 ( 13)  0.1719 ( 14)  0.1541 ( 17) -0.2158 ( 18)  0.4623 ( 19)
          -0.3421 ( 21) -0.1621 ( 22) -0.1797 ( 23) -0.3696 ( 25)  0.1942 ( 27)
           0.1675 ( 29)  0.1090 ( 30)  0.1221 ( 33) -0.1311 ( 60)  0.1568 ( 62)
          -0.1011 ( 68) -0.1437 ( 83)  0.1043 ( 84) -0.1368 ( 87)  0.1106 ( 93)
 CRD 61=  -0.1362 (  2)  0.1683 (  3) -0.2222 (  4)  0.1088 (  5)  0.2855 (  7)
          -0.1803 ( 11) -0.1676 ( 16)  0.2342 ( 17)  0.1076 ( 18) -0.1108 ( 21)
          -0.3015 ( 22)  0.2292 ( 26) -0.1152 ( 28)  0.2460 ( 34) -0.1753 ( 36)
          -0.1365 ( 37)  0.1435 ( 52) -0.1050 ( 57) -0.1036 ( 62)  0.1059 ( 63)
          -0.1647 ( 68) -0.1497 ( 69) -0.1318 ( 71)  0.1448 ( 77)  0.1375 ( 84)
           0.1009 ( 90) -0.1072 ( 91) -0.1343 ( 95)
 CRD 62=  -0.1705 ( 97) -0.1689 (104) -0.1685 (107) -0.1374 (114)  0.2206 (115)
          -0.2208 (121)  0.1118 (123) -0.1411 (125)  0.2198 (126)  0.1184 (130)
          -0.1198 (132) -0.1505 (133)  0.1272 (134)  0.1021 (136)  0.1687 (137)
           0.1246 (141) -0.1259 (144)  0.1017 (146)  0.1681 (152) -0.1643 (153)
           0.1086 (159)  0.1830 (160) -0.1513 (162)  0.1249 (163) -0.1343 (165)
           0.1014 (167)  0.1038 (172)  0.1229 (175) -0.1111 (180) -0.1620 (184)
          -0.1209 (187) -0.1872 (188)  0.1730 (189)  0.2419 (190) -0.1130 (191)
          -0.1603 (192)
 CRD 63=   0.2285 (  2) -0.1247 (  4) -0.2546 (  6) -0.1594 (  8)  0.2388 (  9)
          -0.1128 ( 17)  0.2235 ( 20) -0.1549 ( 21)  0.1649 ( 22)  0.1374 ( 26)
          -0.1418 ( 27) -0.1035 ( 28) -0.2086 ( 34)  0.2392 ( 35) -0.1605 ( 38)
           0.1525 ( 42) -0.1215 ( 44) -0.1085 ( 45) -0.1255 ( 47)  0.1637 ( 49)
           0.1251 ( 55)  0.1555 ( 64)  0.1376 ( 67) -0.1136 ( 68) -0.1413 ( 72)
          -0.1587 ( 78) -0.1277 ( 81)  0.1402 ( 86) -0.1025 ( 90)  0.1397 ( 94)
 CRD 64=   0.1423 (  2)  0.1827 (  4) -0.1383 (  5) -0.1771 (  7) -0.1168 (  8)
           0.1021 ( 10) -0.1034 ( 11)  0.1512 ( 12) -0.2173 ( 13) -0.1326 ( 14)
           0.2381 ( 18) -0.1359 ( 20) -0.1505 ( 22)  0.2344 ( 23)  0.2230 ( 24)
          -0.1226 ( 27)  0.1026 ( 29)  0.1796 ( 30) -0.1350 ( 31) -0.1163 ( 33)
          -0.1195 ( 39) -0.1269 ( 44)  0.1294 ( 51)  0.1435 ( 55)  0.1475 ( 59)
           0.1736 ( 61) -0.2139 ( 66) -0.1137 ( 67) -0.1851 ( 71)  0.1900 ( 72)
          -0.1384 ( 73)  0.1331 ( 74)  0.1860 ( 79) -0.1044 ( 80)  0.1226 ( 89)
          -0.1489 ( 93)
 CRD 65=  -0.2040 (  2)  0.2475 (  3) -0.1388 (  5)  0.2077 (  8) -0.1221 ( 10)
          -0.1875 ( 11)  0.1706 ( 13)  0.1701 ( 16) -0.1724 ( 17)  0.1325 ( 20)
          -0.1023 ( 21)  0.1012 ( 23) -0.1377 ( 26)  0.1664 ( 28) -0.2592 ( 29)
          -0.1913 ( 31)  0.2301 ( 32)  0.1362 ( 33) -0.1419 ( 43)  0.1198 ( 47)
          -0.1123 ( 48)  0.1835 ( 53) -0.1283 ( 54)  0.1596 ( 58) -0.1093 ( 60)
           0.1213 ( 73) -0.1399 ( 76)  0.1441 ( 82) -0.1139 ( 83) -0.1321 ( 85)
           0.1315 ( 88)  0.1226 ( 90)  0.1005 ( 95)
 CRD 66=  -0.1303 (  1)  0.1063 (  3)  0.1890 (  4)  0.1122 (  6) -0.1945 (  7)
          -0.1122 (  8) -0.1094 (  9)  0.2604 ( 10) -0.1396 ( 11)  0.1880 ( 12)
          -0.1497 ( 16)  0.1296 ( 20) -0.1328 ( 24)  0.1762 ( 26) -0.1720 ( 28)
          -0.1652 ( 30) -0.2023 ( 31)  0.2155 ( 33)  0.1189 ( 34) -0.1601 ( 39)
           0.1270 ( 47) -0.1220 ( 48)  0.1136 ( 50)  0.1793 ( 51) -0.1502 ( 59)
           0.1290 ( 67)  0.1062 ( 70)  0.1021 ( 71)  0.1028 ( 73) -0.1485 ( 74)
          -0.1609 ( 75)  0.1908 ( 80) -0.1104 ( 87) -0.1171 ( 89)  0.1263 ( 93)
 CRD 67=   0.2166 ( 97)  0.1374 ( 98)  0.2276 (104)  0.2043 (108) -0.1359 (111)
          -0.2236 (115) -0.2060 (122) -0.2100 (126) -0.1444 (129) -0.1035 (131)
          -0.1056 (132) -0.2013 (136)  0.1307 (138) -0.1077 (140) -0.1014 (143)
           0.1180 (148) -0.1466 (150)  0.1180 (155)  0.1727 (163)  0.1507 (168)
          -0.1484 (169)  0.1450 (173)  0.1003 (177) -0.1203 (178) -0.1912 (180)
           0.1438 (183)  0.2155 (186)  0.2162 (187)  0.2183 (189) -0.2158 (191)
 CRD 68=  -0.2223 (  1)  0.1217 (  3) -0.1954 (  4)  0.1533 (  5)  0.1269 (  7)
           0.1299 ( 10) -0.2057 ( 12)  0.2140 ( 16) -0.1623 ( 19) -0.1652 ( 21)
           0.1122 ( 30) -0.1132 ( 32) -0.1835 ( 34)  0.2526 ( 36) -0.1843 ( 37)
           0.1377 ( 40) -0.1819 ( 41)  0.1208 ( 43) -0.1222 ( 46)  0.1154 ( 50)
           0.1844 ( 52)  0.1725 ( 56) -0.1067 ( 58) -0.1381 ( 77)  0.1006 ( 78)
          -0.1330 ( 82) -0.1110 ( 83) -0.1305 ( 84) -0.1051 ( 86) -0.1244 ( 90)
           0.2023 ( 91)  0.1601 ( 95)  0.1377 ( 96)
 CRD 69=  -0.1213 (  2) -0.1050 (  3)  0.1125 (  4)  0.1132 (  5)  0.1880 (  6)
           0.1361 (  8) -0.2337 (  9) -0.2449 ( 12) -0.1226 ( 14)  0.2431 ( 15)
          -0.2284 ( 27)  0.1198 ( 30) -0.1852 ( 34)  0.1835 ( 35)  0.1566 ( 38)
           0.1193 ( 40) -0.1882 ( 42)  0.1232 ( 44)  0.2007 ( 45) -0.1337 ( 46)
          -0.1376 ( 48) -0.1685 ( 49)  0.1006 ( 50) -0.1395 ( 55)  0.1804 ( 57)
           0.1159 ( 64) -0.1123 ( 65) -0.1061 ( 73) -0.1102 ( 85)  0.1393 ( 86)
           0.1324 ( 92)  0.1093 ( 94)
 CRD 70=  -0.1372 (  3)  0.1115 (  7) -0.1993 ( 10) -0.1225 ( 12)  0.2669 ( 14)
           0.1898 ( 16) -0.2125 ( 17)  0.2691 ( 21) -0.3220 ( 25)  0.1849 ( 26)
          -0.1969 ( 27) -0.1198 ( 28)  0.1339 ( 29) -0.2123 ( 31)  0.1214 ( 33)
           0.1348 ( 34)  0.1075 ( 54) -0.1701 ( 60) -0.1044 ( 65)  0.1282 ( 68)
           0.1021 ( 69) -0.1453 ( 70) -0.1134 ( 75)  0.1027 ( 77) -0.1019 ( 78)
           0.1028 ( 80) -0.1222 ( 81)  0.1295 ( 83) -0.1423 ( 87)  0.1284 ( 93)
 CRD 71=  -0.1426 (102) -0.1014 (106)  0.1257 (108)  0.1375 (110)  0.1487 (112)
          -0.1819 (114)  0.1244 (116) -0.1176 (118) -0.1434 (119)  0.1825 (123)
          -0.1267 (128)  0.1435 (130) -0.1462 (134)  0.1102 (137)  0.2370 (139)
           0.2236 (141)  0.1435 (143) -0.1031 (145)  0.1727 (150) -0.1581 (158)
          -0.1694 (162) -0.1600 (163)  0.1852 (165) -0.1929 (168)  0.1315 (171)
          -0.1489 (176) -0.1568 (177) -0.1774 (181)  0.1665 (186) -0.1886 (188)
          -0.1194 (190)  0.1608 (192)
 CRD 72=   0.1936 (  2) -0.2410 (  3)  0.1679 (  5) -0.1055 (  9) -0.2011 ( 13)
           0.1183 ( 14) -0.1049 ( 16)  0.2012 ( 18) -0.2019 ( 21)  0.1084 ( 22)
          -0.1748 ( 24)  0.1722 ( 25) -0.1039 ( 26)  0.1341 ( 28) -0.1735 ( 29)
           0.1135 ( 30) -0.2120 ( 31)  0.1777 ( 32)  0.1410 ( 34) -0.1160 ( 35)
           0.1502 ( 40) -0.1194 ( 42)  0.1360 ( 43)  0.1250 ( 44) -0.1207 ( 47)
          -0.1342 ( 49) -0.1159 ( 53) -0.1559 ( 59)  0.1264 ( 64) -0.1173 ( 68)
          -0.1493 ( 79) -0.1067 ( 81)  0.1443 ( 82) -0.1185 ( 83)  0.1113 ( 87)
           0.1628 ( 88)  0.1334 ( 90) -0.1320 ( 94)
 CRD 73=   0.1316 ( 97)  0.1137 (104)  0.1041 (107)  0.1284 (114) -0.1087 (116)
          -0.1476 (117) -0.1625 (119) -0.1335 (123)  0.1219 (124) -0.1060 (126)
           0.1083 (131) -0.1099 (133) -0.1475 (134) -0.1316 (137) -0.1150 (145)
           0.1259 (147) -0.1055 (149)  0.1236 (150) -0.1958 (153)  0.1764 (160)
          -0.1016 (162)  0.1048 (165) -0.1066 (168)  0.1969 (169)  0.1615 (172)
          -0.1779 (173)  0.2583 (175)  0.2121 (179) -0.1371 (181) -0.1698 (182)
          -0.1427 (183) -0.1811 (184)  0.2278 (185)  0.1384 (187)  0.1215 (188)
           0.1224 (190) -0.2053 (192)
 CRD 74=  -0.2050 (  1)  0.1487 (  2)  0.1068 (  3) -0.2173 (  4)  0.1286 (  5)
          -0.1509 (  7)  0.1055 ( 10) -0.1183 ( 13)  0.2122 ( 16) -0.1832 ( 17)
           0.1471 ( 19)  0.1255 ( 21) -0.1817 ( 26) -0.2132 ( 28)  0.1130 ( 31)
           0.1082 ( 32)  0.1805 ( 34) -0.2151 ( 36) -0.1654 ( 37) -0.1502 ( 39)
           0.1301 ( 40) -0.1959 ( 41)  0.1132 ( 43)  0.1747 ( 62) -0.1261 ( 63)
           0.1201 ( 68)  0.1616 ( 69)  0.1253 ( 70)  0.1183 ( 82)  0.1150 ( 90)
          -0.2017 ( 91) -0.1731 ( 95) -0.1652 ( 96)
 CRD 75=   0.1283 ( 12)  0.2112 ( 14) -0.1249 ( 15)  0.2584 ( 17) -0.1730 ( 18)
          -0.2149 ( 20)  0.1373 ( 23) -0.1645 ( 24) -0.2295 ( 27) -0.2622 ( 29)
           0.1554 ( 30)  0.1911 ( 33) -0.1120 ( 34)  0.1237 ( 35) -0.1270 ( 57)
          -0.1692 ( 59)  0.1200 ( 63) -0.1792 ( 64)  0.1323 ( 65) -0.2103 ( 67)
          -0.1925 ( 73)  0.1639 ( 74) -0.1243 ( 76) -0.1728 ( 79)  0.1879 ( 80)
          -0.1172 ( 85)  0.1305 ( 86)  0.1722 ( 89)  0.1548 ( 92)  0.1740 ( 93)
 CRD 76=   0.1476 ( 97)  0.1117 (100)  0.1614 (104) -0.1549 (105)  0.1076 (106)
          -0.1525 (107)  0.1162 (108) -0.1349 (111)  0.1414 (119) -0.1727 (121)
          -0.1646 (122) -0.1156 (123) -0.1121 (125) -0.1364 (128)  0.1834 (134)
          -0.1043 (136)  0.1267 (141)  0.1353 (145) -0.1325 (151)  0.2036 (152)
           0.1026 (156)  0.1596 (157)  0.1276 (158) -0.1368 (160) -0.1165 (163)
           0.1004 (166) -0.1406 (168) -0.1153 (173)  0.1537 (178)  0.1909 (180)
          -0.1204 (181) -0.1131 (183)  0.1322 (184)  0.2263 (187)  0.1096 (190)
           0.2335 (191)
 CRD 77=   0.2561 (  2) -0.1434 (  3) -0.1196 (  4)  0.1632 (  5) -0.1343 (  7)
           0.2899 (  8) -0.1159 ( 10) -0.1552 ( 11)  0.2189 ( 12) -0.2286 ( 22)
           0.1013 ( 23)  0.1186 ( 26)  0.1007 ( 27) -0.1268 ( 29) -0.1062 ( 30)
           0.1095 ( 31) -0.1422 ( 32) -0.1976 ( 34)  0.1719 ( 40)  0.1438 ( 43)
           0.1603 ( 44)  0.1867 ( 46)  0.1006 ( 53)  0.1542 ( 55)  0.1648 ( 58)
          -0.1112 ( 74) -0.1249 ( 76) -0.1496 ( 82) -0.1096 ( 85) -0.1479 ( 88)
          -0.1210 ( 90)
 CRD 78=   0.1389 (  1) -0.2124 (  3)  0.2070 (  4) -0.1456 (  6)  0.2577 (  7)
          -0.1275 (  9)  0.1531 ( 10) -0.2367 ( 11)  0.1070 ( 16) -0.1094 ( 19)
           0.1999 ( 23) -0.1972 ( 26)  0.1496 ( 27) -0.2095 ( 28)  0.1862 ( 31)
           0.1241 ( 35) -0.1197 ( 36)  0.1155 ( 37) -0.1527 ( 38)  0.1451 ( 39)
           0.1491 ( 41) -0.1362 ( 42) -0.1405 ( 45) -0.1393 ( 47) -0.1189 ( 48)
          -0.1129 ( 49)  0.1504 ( 50)  0.1262 ( 51)  0.1486 ( 52)  0.1195 ( 56)
          -0.1111 ( 57)  0.1046 ( 72) -0.1181 ( 75) -0.1149 ( 77)  0.1231 ( 78)
           0.1026 ( 81) -0.1280 ( 84)  0.1305 ( 86) -0.1284 ( 91)  0.1177 ( 92)
           0.1169 ( 94) -0.1194 ( 95) -0.1051 ( 96)
 CRD 79=   0.1151 (  4)  0.1634 (  7) -0.1160 (  8)  0.2511 ( 10) -0.1281 ( 12)
          -0.1799 ( 13)  0.2135 ( 16) -0.1424 ( 17)  0.2895 ( 19)  0.1619 ( 21)
          -0.1626 ( 22)  0.1777 ( 25)  0.1788 ( 26)  0.1868 ( 28) -0.1380 ( 29)
           0.1299 ( 50)  0.1319 ( 52)  0.1068 ( 56)  0.1191 ( 60)  0.1803 ( 62)
          -0.1114 ( 63) -0.1128 ( 66)  0.1019 ( 68)  0.1506 ( 69)  0.1635 ( 70)
          -0.1085 ( 71)  0.1457 ( 75) -0.1044 ( 76)  0.1368 ( 77)  0.1628 ( 84)
           0.1028 ( 87)
 CRD 80=  -0.1263 (  8)  0.2048 ( 11) -0.1525 ( 12) -0.2093 ( 13)  0.2043 ( 14)
           0.1112 ( 15) -0.1681 ( 17)  0.2567 ( 18)  0.1037 ( 20) -0.1943 ( 22)
           0.2285 ( 23)  0.1876 ( 27) -0.1534 ( 29)  0.1291 ( 31) -0.1080 ( 34)
           0.1091 ( 45)  0.1342 ( 48) -0.1155 ( 53)  0.1538 ( 54)  0.1339 ( 57)
          -0.1109 ( 58)  0.1696 ( 61) -0.1206 ( 63)  0.1368 ( 64) -0.1064 ( 65)
          -0.1376 ( 66)  0.1208 ( 67) -0.1370 ( 71)  0.1611 ( 72)  0.1020 ( 73)
          -0.1027 ( 76)  0.1296 ( 78)  0.1113 ( 80)  0.1124 ( 92)  0.1000 ( 93)
 CRD 81=  -0.1289 ( 98) -0.1208 ( 99) -0.1381 (100)  0.1384 (102) -0.1378 (106)
           0.1168 (107) -0.1473 (108)  0.1271 (114)  0.1254 (118) -0.1286 (120)
           0.1261 (121)  0.1254 (124)  0.1634 (127) -0.1008 (135)  0.1954 (138)
          -0.1439 (142)  0.1097 (151) -0.1000 (153)  0.1788 (155) -0.1817 (158)
           0.1448 (161) -0.1237 (162)  0.1289 (164)  0.1018 (166)  0.1325 (167)
          -0.1055 (169) -0.1027 (174) -0.1166 (176) -0.1344 (179)  0.1221 (180)
          -0.1245 (183)  0.1457 (184) -0.1868 (186)  0.2343 (188)  0.2719 (189)
           0.1924 (190)  0.1921 (192)
 CRD 82=   0.1434 ( 97) -0.1343 ( 98)  0.1832 (101)  0.2001 (103) -0.1422 (105)
          -0.1605 (109)  0.1502 (113)  0.1308 (114)  0.1435 (115)  0.1251 (119)
          -0.1151 (122) -0.1476 (125)  0.1181 (129)  0.1165 (131) -0.1017 (133)
          -0.1667 (136)  0.1188 (143) -0.1109 (148) -0.1908 (154)  0.1301 (159)
           0.1233 (160) -0.1016 (161) -0.1005 (167)  0.1939 (170)  0.1586 (171)
           0.1322 (173) -0.1070 (174) -0.1072 (175) -0.1201 (178)  0.1048 (179)
          -0.1015 (180) -0.2902 (186)  0.2109 (187) -0.1454 (190) -0.2685 (191)
           0.1377 (192)
 CRD 83=   0.2059 ( 99)  0.1497 (100) -0.1191 (101)  0.1194 (104)  0.1095 (106)
           0.1474 (107)  0.1149 (108) -0.1133 (109)  0.1049 (111) -0.1215 (119)
           0.1126 (126)  0.1210 (131) -0.1811 (135)  0.1386 (136) -0.1957 (137)
          -0.1154 (145) -0.1015 (153)  0.1162 (154) -0.1393 (156) -0.1265 (157)
           0.1446 (164)  0.1275 (166)  0.1411 (167) -0.1141 (169)  0.1110 (170)
          -0.1957 (174) -0.1185 (178) -0.1054 (179)  0.1590 (181)  0.1309 (182)
           0.1359 (187) -0.2646 (188)  0.2413 (190) -0.1272 (191)  0.2523 (192)
 CRD 84=  -0.1256 ( 99)  0.1019 (118) -0.1056 (119) -0.1177 (128)  0.1345 (130)
          -0.1681 (132) -0.2074 (135)  0.1007 (137)  0.2267 (139) -0.1134 (140)
           0.2596 (142)  0.1646 (144) -0.1100 (146)  0.1205 (149)  0.1273 (150)
          -0.1988 (151) -0.1132 (153) -0.1433 (155) -0.1041 (156) -0.1242 (158)
           0.1401 (162) -0.1224 (165)  0.1296 (166) -0.1244 (172)  0.1116 (176)
           0.1008 (181)  0.1336 (183) -0.1863 (185)  0.1586 (188) -0.3299 (189)
           0.2668 (190)
 CRD 85=  -0.1388 ( 98)  0.1762 ( 99) -0.1314 (102)  0.2215 (103) -0.2832 (109)
           0.1036 (112)  0.1009 (115)  0.1185 (116) -0.1003 (119) -0.1225 (120)
          -0.1022 (122) -0.1045 (124)  0.1490 (129) -0.1163 (132)  0.1198 (144)
          -0.1190 (147)  0.1366 (148) -0.1118 (160)  0.1230 (161)  0.1040 (163)
          -0.2457 (170)  0.2090 (174) -0.1395 (179) -0.1075 (182) -0.2467 (186)
           0.2947 (187) -0.1954 (188)  0.2651 (191) -0.2266 (192)
 CRD 86=  -0.1253 ( 99)  0.1118 (101) -0.2245 (107)  0.1248 (110) -0.1479 (111)
           0.1840 (112) -0.1324 (119)  0.1713 (120) -0.1052 (124) -0.1941 (127)
          -0.1858 (136)  0.1870 (137) -0.1195 (138) -0.1228 (139)  0.1286 (146)
           0.1114 (148) -0.1558 (156)  0.2033 (158)  0.1308 (161)  0.1788 (164)
          -0.1399 (166)  0.1209 (172) -0.1196 (174)  0.1190 (177) -0.1897 (179)
           0.1999 (181) -0.2296 (183)  0.2139 (185)  0.1298 (188)  0.1263 (192)
 CRD 87=   0.1566 ( 99) -0.2086 (100) -0.1466 (101)  0.2187 (103)  0.1688 (105)
          -0.1398 (107) -0.1935 (109)  0.1035 (110) -0.1198 (113)  0.1661 (117)
          -0.1338 (119)  0.1237 (125) -0.1523 (131)  0.1091 (132)  0.1281 (133)
          -0.1271 (135)  0.1868 (137)  0.1182 (147)  0.1971 (154)  0.1293 (156)
           0.1096 (157) -0.1849 (159) -0.1949 (161)  0.2004 (170) -0.1443 (174)
           0.1371 (176)  0.2076 (179) -0.1767 (181) -0.1914 (186)  0.1547 (187)
          -0.1359 (188)  0.1160 (190) -0.1684 (191)  0.1224 (192)
 CRD 88=   0.1538 (112) -0.1534 (119)  0.1061 (120) -0.2002 (127) -0.1024 (130)
           0.1567 (131) -0.2115 (135) -0.1242 (136) -0.2563 (139) -0.2334 (142)
           0.1223 (143) -0.1295 (145) -0.1153 (148)  0.2514 (151)  0.1376 (154)
           0.1424 (156) -0.1788 (157)  0.2462 (158) -0.1595 (164)  0.1997 (166)
           0.1072 (171)  0.1216 (174) -0.1165 (181)  0.1958 (183) -0.2074 (185)
           0.2019 (189)  0.1824 (190) -0.1000 (192)
 CRD 89=   0.1444 ( 99) -0.1951 (100) -0.2038 (101)  0.1349 (103)  0.2252 (105)
          -0.1655 (107) -0.1097 (109) -0.1789 (112) -0.1137 (116) -0.1003 (117)
           0.1081 (119)  0.1916 (120)  0.1835 (124) -0.1057 (127) -0.2281 (129)
          -0.1013 (133)  0.1815 (136)  0.1650 (137) -0.1146 (144)  0.1717 (146)
          -0.1605 (148) -0.1530 (156)  0.1779 (161) -0.1676 (164)  0.1277 (166)
          -0.1397 (170)  0.2067 (171)  0.1338 (174) -0.2128 (176) -0.1499 (179)
           0.1384 (181)  0.1336 (183) -0.1198 (185) -0.1016 (188)
 CRD 90=   0.1071 (101) -0.1200 (105)  0.1697 (112)  0.2346 (117) -0.1485 (119)
          -0.1476 (120) -0.2054 (124)  0.1741 (127)  0.1605 (129) -0.2206 (131)
           0.2443 (132) -0.1333 (135) -0.1246 (136)  0.1195 (139)  0.1170 (142)
          -0.2338 (144)  0.1925 (146) -0.1954 (148) -0.1544 (151)  0.1781 (154)
          -0.1352 (156)  0.2093 (157) -0.1290 (158) -0.2302 (159)  0.1214 (161)
          -0.1235 (164)  0.1424 (166)  0.1714 (171) -0.1711 (176)

 THE DETERMINANT OF THE G MATRIX IS 10**(   -47)


                     --------------------
                     INTERNAL COORDINATES
                     --------------------

                 - - ATOMS - -         COORDINATE      COORDINATE
 NO.   TYPE    I  J  K  L  M  N        (BOHR,RAD)       (ANG,DEG)
 ----------------------------------------------------------------
   1 STRETCH   1 21                     2.0688599       1.0947936
   2 STRETCH   1  3                     2.5870030       1.3689831
   3 STRETCH   1  2                     2.6702965       1.4130601
   4 STRETCH   2  4                     2.5871822       1.3690780
   5 STRETCH   2 22                     2.0687652       1.0947435
   6 STRETCH   3 23                     2.0711927       1.0960281
   7 STRETCH   3  6                     2.6859694       1.4213539
   8 STRETCH   4  5                     2.6828534       1.4197050
   9 STRETCH   4 24                     2.0805644       1.1009874
  10 STRETCH   5  7                     2.7049414       1.4313935
  11 STRETCH   5  6                     2.6658603       1.4107126
  12 STRETCH   6  8                     2.6825353       1.4195366
  13 STRETCH   7 10                     2.6426665       1.3984390
  14 STRETCH   7 13                     2.7084785       1.4332652
  15 STRETCH   8 25                     2.0732147       1.0970980
  16 STRETCH   8  9                     2.5992334       1.3754552
  17 STRETCH   9 11                     2.7362992       1.4479873
  18 STRETCH   9 10                     2.7046551       1.4312420
  19 STRETCH  10 12                     2.7066584       1.4323020
  20 STRETCH  11 26                     2.0714391       1.0961584
  21 STRETCH  11 16                     2.5474837       1.3480704
  22 STRETCH  12 14                     2.6793398       1.4178457
  23 STRETCH  12 15                     2.6650241       1.4102701
  24 STRETCH  13 27                     2.0808502       1.1011386
  25 STRETCH  13 18                     2.5649089       1.3572914
  26 STRETCH  14 17                     2.6263173       1.3897874
  27 STRETCH  14 16                     2.7334060       1.4464563
  28 STRETCH  15 19                     2.6579919       1.4065489
  29 STRETCH  15 18                     2.7088191       1.4334455
  30 STRETCH  16 28                     2.0715728       1.0962292
  31 STRETCH  17 20                     2.6417927       1.3979766
  32 STRETCH  17 29                     2.0709681       1.0959092
  33 STRETCH  18 30                     2.0709891       1.0959203
  34 STRETCH  19 20                     2.6113493       1.3818666
  35 STRETCH  19 31                     2.0708218       1.0958318
  36 STRETCH  20 32                     2.0695026       1.0951337
  37 BEND      1  2 22                  2.0804844     119.2029730
  38 BEND      1  3  6                  2.1023903     120.4580896
  39 BEND      1  3 23                  2.1067231     120.7063449
  40 BEND      1  2  4                  2.0989789     120.2626294
  41 BEND      2  1  3                  2.0995599     120.2959216
  42 BEND      2  4  5                  2.1070895     120.7273361
  43 BEND      2  1 21                  2.0794999     119.1465661
  44 BEND      2  4 24                  2.1161643     121.2472825
  45 BEND      3  6  8                  2.1033486     120.5129976
  46 BEND      3  6  5                  2.0825750     119.3227577
  47 BEND      3  1 21                  2.1041255     120.5575123
  48 BEND      4  5  7                  2.1243415     121.7158019
  49 BEND      4  2 22                  2.1037221     120.5343975
  50 BEND      4  5  6                  2.0757771     118.9332654
  51 BEND      5  4 24                  2.0599315     118.0253812
  52 BEND      5  6  8                  2.0972617     120.1642446
  53 BEND      5  7 13                  2.1193277     121.4285352
  54 BEND      5  7 10                  2.0857446     119.5043638
  55 BEND      6  3 23                  2.0740719     118.8355655
  56 BEND      6  8 25                  2.0758844     118.9394149
  57 BEND      6  8  9                  2.1053565     120.6280431
  58 BEND      6  5  7                  2.0830667     119.3509314
  59 BEND      7 13 18                  2.1172184     121.3076811
  60 BEND      7 13 27                  2.0488694     117.3915686
  61 BEND      7 10 12                  2.0946768     120.0161404
  62 BEND      7 10  9                  2.1027512     120.4787675
  63 BEND      8  9 10                  2.0921897     119.8736372
  64 BEND      8  9 11                  2.1196613     121.4476471
  65 BEND      9  8 25                  2.1019444     120.4325419
  66 BEND      9 10 12                  2.0857570     119.5050749
  67 BEND      9 11 16                  2.1188951     121.4037454
  68 BEND      9 11 26                  2.0523208     117.5893207
  69 BEND     10  9 11                  2.0713343     118.6787108
  70 BEND     10  7 13                  2.0781129     119.0670980
  71 BEND     10 12 15                  2.0924638     119.8893439
  72 BEND     10 12 14                  2.0996208     120.2994118
  73 BEND     11 16 28                  2.1129711     121.0643252
  74 BEND     11 16 14                  2.1159291     121.2338059
  75 BEND     12 15 18                  2.0766755     118.9847432
  76 BEND     12 15 19                  2.0835902     119.3809228
  77 BEND     12 14 16                  2.0748339     118.8792257
  78 BEND     12 14 17                  2.0866725     119.5575261
  79 BEND     13 18 30                  2.1104188     120.9180930
  80 BEND     13 18 15                  2.1072230     120.7349864
  81 BEND     14 17 29                  2.0933754     119.9415734
  82 BEND     14 17 20                  2.0993320     120.2828614
  83 BEND     14 16 28                  2.0542849     117.7018524
  84 BEND     14 12 15                  2.0911007     119.8112437
  85 BEND     15 19 31                  2.0834331     119.3719244
  86 BEND     15 19 20                  2.0983168     120.2246979
  87 BEND     15 18 30                  2.0655434     118.3469205
  88 BEND     16 14 17                  2.1216789     121.5632440
  89 BEND     16 11 26                  2.1119694     121.0069316
  90 BEND     17 20 32                  2.0830584     119.3504548
  91 BEND     17 20 19                  2.1073582     120.7427297
  92 BEND     18 15 19                  2.1229195     121.6343273
  93 BEND     18 13 27                  2.1170975     121.3007499
  94 BEND     19 20 32                  2.0927685     119.9068019
  95 BEND     20 19 31                  2.1014353     120.4033756
  96 BEND     20 17 29                  2.0904779     119.7755636
  97 TORSION   1  2  4 24              -3.1415522    -179.9976845
  98 TORSION   1  3  6  8              -3.1415200    -179.9958360
  99 TORSION   1  2  4  5              -0.0000479      -0.0027419
 100 TORSION   1  3  6  5               0.0000258       0.0014800
 101 TORSION   2  4  5  6               0.0000635       0.0036377
 102 TORSION   2  4  5  7               3.1414272     179.9905224
 103 TORSION   2  1  3  6              -0.0000096      -0.0005494
 104 TORSION   2  1  3 23              -3.1415878    -179.9997207
 105 TORSION   3  6  5  4              -0.0000517      -0.0029628
 106 TORSION   3  6  8  9               3.1415319     179.9965174
 107 TORSION   3  6  8 25              -0.0000648      -0.0037132
 108 TORSION   3  1  2 22               3.1415851     179.9995684
 109 TORSION   3  1  2  4               0.0000207       0.0011834
 110 TORSION   3  6  5  7              -3.1414210    -179.9901631
 111 TORSION   4  5  6  8               3.1414943     179.9943628
 112 TORSION   4  5  7 13               0.0000897       0.0051367
 113 TORSION   4  5  7 10               3.1413327     179.9851060
 114 TORSION   4  2  1 21              -3.1415798    -179.9992622
 115 TORSION   5  6  3 23              -3.1415810    -179.9993334
 116 TORSION   5  7 10 12               3.1414993     179.9946485
 117 TORSION   5  7 10  9               0.0007423       0.0425311
 118 TORSION   5  7 13 18              -3.1415279    -179.9962872
 119 TORSION   5  7 13 27              -0.0000607      -0.0034753
 120 TORSION   5  6  8  9              -0.0000135      -0.0007760
 121 TORSION   5  6  8 25               3.1415751     179.9989934
 122 TORSION   5  4  2 22               3.1415734     179.9988948
 123 TORSION   6  3  1 21               3.1415910     179.9999025
 124 TORSION   6  5  7 10              -0.0004898      -0.0280626
 125 TORSION   6  5  7 13               3.1414525     179.9919680
 126 TORSION   6  5  4 24               3.1415707     179.9987396
 127 TORSION   6  8  9 10               0.0002606       0.0149314
 128 TORSION   6  8  9 11               3.1414031     179.9891386
 129 TORSION   7  5  6  8               0.0001250       0.0071625
 130 TORSION   7 10  9 11               3.1413974     179.9888129
 131 TORSION   7 10  9  8              -0.0006330      -0.0362683
 132 TORSION   7 10 12 15               0.0000845       0.0048416
 133 TORSION   7 10 12 14              -3.1413525    -179.9862427
 134 TORSION   7 13 18 30              -3.1415590    -179.9980717
 135 TORSION   7 13 18 15              -0.0000288      -0.0016480
 136 TORSION   7  5  4 24              -0.0002509      -0.0143756
 137 TORSION   8  6  3 23               0.0000585       0.0033506
 138 TORSION   8  9 11 16               3.1412536     179.9805742
 139 TORSION   8  9 11 26              -0.0000384      -0.0022000
 140 TORSION   8  9 10 12              -3.1413942    -179.9886292
 141 TORSION   9 11 16 28              -3.1415740    -179.9989292
 142 TORSION   9 11 16 14               0.0008535       0.0489007
 143 TORSION   9 10 12 15               3.1408496     179.9574264
 144 TORSION   9 10 12 14              -0.0005874      -0.0336580
 145 TORSION   9 10  7 13              -3.1411916    -179.9770238
 146 TORSION  10 12 14 16               0.0006311       0.0361583
 147 TORSION  10 12 14 17              -3.1413666    -179.9870476
 148 TORSION  10 12 15 18               0.0002964       0.0169803
 149 TORSION  10 12 15 19               3.1413746     179.9875086
 150 TORSION  10  9 11 26               3.1411093     179.9723071
 151 TORSION  10  9 11 16              -0.0007840      -0.0449188
 152 TORSION  10  9  8 25              -3.1413280    -179.9848345
 153 TORSION  10  7 13 27              -3.1413052    -179.9835302
 154 TORSION  10  7 13 18               0.0004129       0.0236580
 155 TORSION  11 16 14 17               3.1412335     179.9794226
 156 TORSION  11 16 14 12              -0.0007726      -0.0442680
 157 TORSION  11  9 10 12               0.0006362       0.0364519
 158 TORSION  11  9  8 25              -0.0001855      -0.0106274
 159 TORSION  12 10  7 13              -0.0004347      -0.0249064
 160 TORSION  12 14 17 29               3.1415234     179.9960303
 161 TORSION  12 14 17 20               0.0001855       0.0106267
 162 TORSION  12 14 16 28              -3.1415576    -179.9979934
 163 TORSION  12 15 19 31              -3.1415145    -179.9955229
 164 TORSION  12 15 19 20              -0.0002051      -0.0117536
 165 TORSION  12 15 18 30               3.1412055     179.9778200
 166 TORSION  12 15 18 13              -0.0003263      -0.0186939
 167 TORSION  13 18 15 19              -3.1413925    -179.9885311
 168 TORSION  14 16 11 26              -3.1410501    -179.9689116
 169 TORSION  14 17 20 32               3.1415594     179.9980926
 170 TORSION  14 17 20 19              -0.0007737      -0.0443319
 171 TORSION  14 12 15 19              -0.0003729      -0.0213632
 172 TORSION  14 12 15 18              -3.1414511    -179.9918915
 173 TORSION  15 19 20 32              -3.1415557    -179.9978820
 174 TORSION  15 19 20 17               0.0007815       0.0447774
 175 TORSION  15 18 13 27              -3.1414911    -179.9941786
 176 TORSION  15 12 14 17               0.0003815       0.0218610
 177 TORSION  15 12 14 16              -3.1408061    -179.9549330
 178 TORSION  16 14 17 20               3.1413619     179.9867787
 179 TORSION  16 14 17 29              -0.0004855      -0.0278177
 180 TORSION  17 20 19 31              -3.1410974    -179.9716220
 181 TORSION  17 14 16 28               0.0004485       0.0256973
 182 TORSION  18 15 19 20               3.1408590     179.9579670
 183 TORSION  18 15 19 31              -0.0004503      -0.0258024
 184 TORSION  19 20 17 29               3.1410732     179.9702402
 185 TORSION  19 15 18 30               0.0001393       0.0079827
 186 TORSION  21  1  3 23               0.0000128       0.0007312
 187 TORSION  21  1  2 22              -0.0000153      -0.0008771
 188 TORSION  22  2  4 24               0.0000690       0.0039522
 189 TORSION  26 11 16 28              -0.0002922      -0.0167416
 190 TORSION  27 13 18 30               0.0001640       0.0093977
 191 TORSION  29 17 20 32               0.0002210       0.0126647
 192 TORSION  31 19 20 32              -0.0002493      -0.0142814

     ------------------------------------------
     THE POINT GROUP IS C1 , NAXIS= 1, ORDER= 1
     ------------------------------------------

     DIMENSIONS OF THE SYMMETRY SUBSPACES ARE
 A   =  452

 ..... DONE SETTING UP THE RUN .....
 STEP CPU TIME =     0.05 TOTAL CPU TIME =        0.0 (    0.0 MIN)
 TOTAL WALL CLOCK TIME=        0.0 SECONDS, CPU UTILIZATION IS 100.00%


          -----------------------------
          STATIONARY POINT LOCATION RUN
          -----------------------------

 OBTAINING INITIAL HESSIAN, HESS=GUESS   
 DIAGONAL GUESS HESSIAN IN INTERNAL COORDS IS
     1  0.3432     2  0.5021     3  0.4609     4  0.5020     5  0.3432
     6  0.3423     7  0.4535     8  0.4550     9  0.3390    10  0.4448
    11  0.4630    12  0.4551    13  0.4742    14  0.4431    15  0.3416
    16  0.4958    17  0.4306    18  0.4449    19  0.4440    20  0.3422
    21  0.5230    22  0.4566    23  0.4634    24  0.3389    25  0.5137
    26  0.4822    27  0.4319    28  0.4668    29  0.4430    30  0.3422
    31  0.4746    32  0.3424    33  0.3424    34  0.4897    35  0.3425
    36  0.3429    37  0.2309    38  0.2686    39  0.2336    40  0.2692
    41  0.2692    42  0.2687    43  0.2309    44  0.2333    45  0.2646
    46  0.2653    47  0.2337    48  0.2638    49  0.2337    50  0.2654
    51  0.2301    52  0.2655    53  0.2628    54  0.2655    55  0.2303
    56  0.2304    57  0.2682    58  0.2645    59  0.2686    60  0.2293
    61  0.2654    62  0.2655    63  0.2673    64  0.2660    65  0.2331
    66  0.2629    67  0.2681    68  0.2287    69  0.2617    70  0.2653
    71  0.2645    72  0.2639    73  0.2349    74  0.2683    75  0.2644
    76  0.2665    77  0.2628    78  0.2672    79  0.2344    80  0.2685
    81  0.2323    82  0.2688    83  0.2288    84  0.2656    85  0.2313
    86  0.2687    87  0.2296    88  0.2650    89  0.2349    90  0.2318
    91  0.2694    92  0.2647    93  0.2340    94  0.2328    95  0.2328
    96  0.2318    97  0.2500    98  0.2500    99  0.2500   100  0.2500
   101  0.2500   102  0.2500   103  0.2500   104  0.2500   105  0.2500
   106  0.2500   107  0.2500   108  0.2500   109  0.2500   110  0.2500
   111  0.2500   112  0.2500   113  0.2500   114  0.2500   115  0.2500
   116  0.2500   117  0.2500   118  0.2500   119  0.2500   120  0.2500
   121  0.2500   122  0.2500   123  0.2500   124  0.2500   125  0.2500
   126  0.2500   127  0.2500   128  0.2500   129  0.2500   130  0.2500
   131  0.2500   132  0.2500   133  0.2500   134  0.2500   135  0.2500
   136  0.2500   137  0.2500   138  0.2500   139  0.2500   140  0.2500
   141  0.2500   142  0.2500   143  0.2500   144  0.2500   145  0.2500
   146  0.2500   147  0.2500   148  0.2500   149  0.2500   150  0.2500
   151  0.2500   152  0.2500   153  0.2500   154  0.2500   155  0.2500
   156  0.2500   157  0.2500   158  0.2500   159  0.2500   160  0.2500
   161  0.2500   162  0.2500   163  0.2500   164  0.2500   165  0.2500
   166  0.2500   167  0.2500   168  0.2500   169  0.2500   170  0.2500
   171  0.2500   172  0.2500   173  0.2500   174  0.2500   175  0.2500
   176  0.2500   177  0.2500   178  0.2500   179  0.2500   180  0.2500
   181  0.2500   182  0.2500   183  0.2500   184  0.2500   185  0.2500
   186  0.2500   187  0.2500   188  0.2500   189  0.2500   190  0.2500
   191  0.2500   192  0.2500
 TRANSFORMING HESSIAN TO SYMMETRY COORDINATES

          PARAMETERS CONTROLLING GEOMETRY SEARCH ARE
          METHOD =QA                  UPHESS =BFGS    
          NNEG   =         0          NFRZ   =         3
          NSTEP  =        50          IFOLOW =         1
          HESS   =GUESS               RESTAR =         F
          IHREP  =         0          HSSEND =         F
          NPRT   =         0          NPUN   =         0
          OPTTOL = 5.000E-04          RMIN   = 1.500E-03
          RMAX   = 1.000E-01          RLIM   = 7.000E-02
          DXMAX  = 3.000E-01          PURIFY =         F
          MOVIE  =         F          TRUPD  =         T
          TRMAX  = 5.000E-01          TRMIN  = 5.000E-02
          ITBMAT =         5          STPT   =         F
          STSTEP = 1.000E-02          PROJCT=          F
          FROZEN COORD(S)=   1   2   3


      ***** EQUILIBRIUM GEOMETRY LOCATED *****
            (SUBJECT TO   3 CONSTRAINT(S))
 COORDINATES OF ALL ATOMS ARE (ANGS)
   ATOM   CHARGE       X              Y              Z
 ------------------------------------------------------------
 C           6.0   5.1522714718   2.8884488453   0.9163162086
 C           6.0   4.1920079868   1.8487614116   0.9272869277
 C           6.0   5.3631150108   3.6307560702   2.0345504800
 C           6.0   3.4785123355   1.5882945322   2.0515550636
 C           6.0   3.6733804274   2.3446914348   3.2384096618
 C           6.0   4.6290889898   3.3796660805   3.2280300418
 C           6.0   2.9309971875   2.0872779529   4.4372704430
 C           6.0   4.8437184715   4.1508702481   4.4001227141
 C           6.0   4.1418537557   3.9127269861   5.5453775788
 C           6.0   3.1642626702   2.8606203049   5.5709572095
 C           6.0   4.3489378135   4.6938048909   6.7575338963
 C           6.0   2.4267987613   2.6107954900   6.7744123469
 C           6.0   1.9437012588   1.0444100450   4.5047297031
 C           6.0   2.6578241980   3.3932089626   7.9326294766
 C           6.0   1.4671932816   1.5840552386   6.8103099453
 C           6.0   3.6558143887   4.4514615628   7.8719914697
 C           6.0   1.9337449767   3.1318397797   9.0800482880
 C           6.0   1.2494842246   0.8048530808   5.6280748758
 C           6.0   0.7504927940   1.3457971077   7.9905224241
 C           6.0   0.9822795405   2.1094567807   9.1076585302
 H           1.0   5.7095601960   3.0826205455   0.0178875176
 H           1.0   4.0244199881   1.2607580244   0.0429107307
 H           1.0   6.0922381200   4.4218742217   2.0299601043
 H           1.0   2.7577232559   0.7960861952   2.0340979782
 H           1.0   5.5776531104   4.9380481915   4.3755876666
 H           1.0   5.0825805663   5.4805174260   6.7332586648
 H           1.0   1.7516178279   0.4398528276   3.6423220102
 H           1.0   3.8228752467   5.0392614733   8.7575817912
 H           1.0   2.1046384423   3.7224012109   9.9627085280
 H           1.0   0.5165726037   0.0184788448   5.6516420078
 H           1.0   0.0185075053   0.5576512018   8.0072085963
 H           1.0   0.4280803041   1.9200953395  10.0092255583


                     --------------------
                     INTERNAL COORDINATES
                     --------------------

                 - - ATOMS - -         COORDINATE      COORDINATE
 NO.   TYPE    I  J  K  L  M  N        (BOHR,RAD)       (ANG,DEG)
 ----------------------------------------------------------------
   1 STRETCH   1 21                     2.0312994       1.0749174
   2 STRETCH   1  3                     2.5674714       1.3586475
   3 STRETCH   1  2                     2.6745974       1.4153361
   4 STRETCH   2  4                     2.5639744       1.3567969
   5 STRETCH   2 22                     2.0317454       1.0751535
   6 STRETCH   3 23                     2.0331111       1.0758762
   7 STRETCH   3  6                     2.6899464       1.4234584
[...]
 971  17   1.299198   7.824623  14.923436   0.001300   0.213405   0.006093
 972  14   2.082838   8.517132  14.798316   0.002636   0.439591   0.005997
 973  15   0.671554   6.159365  13.670941   0.000428   0.104077   0.004111
 974  17   0.851829   6.645464  14.436885   0.000426   0.104077   0.004095
 975  19   0.424943   6.097550  14.053992   0.000589   0.104077   0.005662
 976  15   5.300339   2.058873  15.790318   0.000332   0.103866   0.003195
 977  17   5.485162   2.548114  16.553159   0.000597   0.103866   0.005748
 978  20   5.188113   2.199233  16.563670   0.000635   0.103866   0.006117
 979  15   3.898221  -0.484820  13.877352   0.000224   0.048997   0.004575
 980  18   3.809152  -0.705825  13.475445   0.000149   0.048997   0.003051
 981  19   3.644943  -0.528080  14.255178   0.000191   0.048997   0.003895
 982  15  -0.796180   3.830268  11.897783   0.000214   0.048997   0.004361
 983  18  -0.830471   3.558911  11.518975   0.000156   0.048997   0.003182
 984  19  -0.995878   3.737758  12.298203   0.000178   0.048997   0.003642
 985  18  -0.561279   3.894290  10.844068   0.000632   0.218252   0.002895
 986  18   0.564357   4.783806  10.050513   0.000927   0.218252   0.004246
 987  15   0.140586   4.669536  11.014977   0.001293   0.448027   0.002886
 988  18   5.549267   0.199091  12.154294   0.000909   0.218025   0.004171
 989  18   4.397983  -0.664940  12.935775   0.000646   0.218025   0.002965
 990  15   5.038952   0.165350  13.081620   0.001228   0.447515   0.002743
 991  15   5.177880   1.717594  15.637419   0.000288   0.047775   0.006018
 992  19   4.976443   1.624970  16.036954   0.000355   0.047775   0.007441
 993  20   5.018708   1.890440  16.394901   0.000364   0.047775   0.007622
 994  19   3.981103  -0.212086  14.916789   0.000961   0.215049   0.004467
 995  19   4.809919   1.003761  15.665558   0.001339   0.215049   0.006227
 996  15   4.693274   0.541993  14.724253   0.002079   0.442316   0.004700
 997  19  -0.176990   5.590499  13.563202   0.001257   0.215282   0.005839
 998  19  -0.980462   4.349310  12.824708   0.000969   0.215282   0.004502
 999  15  -0.206098   5.047219  12.658599   0.002189   0.442847   0.004943
1000  16   4.799799  10.324310  17.419704  -0.000352   0.064402  -0.005466
1001  17   4.261641   9.824586  17.781215  -0.000377   0.064402  -0.005856
1002  28   5.036311  10.383967  17.593480  -0.000519   0.064402  -0.008066
1003  16   7.163165   7.513016  18.767151  -0.000403   0.064380  -0.006265
1004  17   6.644137   7.080083  19.228894  -0.000283   0.064380  -0.004395
1005  29   6.474472   7.253281  19.404466  -0.000474   0.064380  -0.007356
1006  17   7.337745   5.487911  18.317385   0.000871   0.315993   0.002755
1007  17   6.981252   6.615195  19.040592  -0.000079   0.315993  -0.000251
1008  16   7.943010   6.681880  18.082698  -0.000450   0.633928  -0.000710
1009  17   3.540237   9.777856  17.590198  -0.000106   0.316267  -0.000336
1010  17   2.820539   9.638960  16.412558   0.000829   0.316267   0.002620
1011  16   4.010578  10.295810  16.424738  -0.000495   0.634487  -0.000781
1012  16   8.950749  11.498960  15.700738  -0.000154   0.011309  -0.013623
1013  26   9.361349  11.617639  15.112837  -0.000200   0.011309  -0.017643
1014  28   8.850449  11.467314  15.978528  -0.000175   0.011309  -0.015515
1015  16   9.394364  11.090963  15.887861  -0.000165   0.011309  -0.014578
1016  26   9.752127  11.258237  15.277671  -0.000191   0.011309  -0.016894
1017  28   9.248625  11.101108  16.146483  -0.000168   0.011309  -0.014888
1018  26   9.674549  11.854972  14.755426  -0.000099   0.007098  -0.013949
1019  16   9.033671  11.608292  15.597244  -0.000062   0.010032  -0.006191
1020  26  10.115264  11.450398  14.942009  -0.000108   0.006921  -0.015639
1021  16   9.542030  11.140151  15.811134  -0.000068   0.009782  -0.006920
1022  16   7.465508   7.880632  18.643714  -0.000493   0.084801  -0.005810
1023  28   7.454421   8.170627  18.723289  -0.000686   0.084801  -0.008090
1024  29   6.682592   7.631011  19.164999  -0.000604   0.084801  -0.007118
1025  28   8.129605   8.444486  18.560637  -0.000470   0.068772  -0.006837
1026  28   9.000360   8.951825  18.059636  -0.000968   0.153588  -0.006301
1027  28   9.461009   9.975746  17.293119  -0.001040   0.153588  -0.006769
1028  28   9.240596  10.913976  16.711954  -0.000569   0.068772  -0.008270
1029  16   8.570309   8.246036  18.211592  -0.000812   0.149811  -0.005421
1030  16   9.523363   9.149350  17.432240  -0.000672   0.149811  -0.004488
1031  16   9.548021  10.419277  16.584683  -0.001120   0.149811  -0.007477
1032  28   8.444464  11.646136  16.376169  -0.000581   0.068795  -0.008450
1033  28   7.351667  11.915283  16.403670  -0.001045   0.153651  -0.006800
1034  28   6.095876  11.622009  16.835220  -0.000992   0.153651  -0.006456
1035  28   5.415926  10.938859  17.416922  -0.000421   0.068795  -0.006115
1036  16   8.051319  11.795591  15.953501  -0.001038   0.149851  -0.006928
1037  16   6.543055  11.889492  16.175694  -0.000684   0.149851  -0.004568
1038  16   5.386053  11.173151  16.869416  -0.000813   0.149851  -0.005426
1039  17   0.716314   6.791973  14.776308   0.000405   0.047565   0.008518
1040  19   0.325943   6.203714  14.416850   0.000377   0.047565   0.007928
1041  20   0.383773   6.480934  14.763530   0.000447   0.047565   0.009388
1042  17   2.658270   5.782982  20.804211  -0.000085   0.006647  -0.012791
1043  20   2.354154   5.446511  20.771595  -0.000110   0.006647  -0.016588
1044  29   2.807048   6.034788  20.857882  -0.000120   0.006647  -0.018125
1045  17   2.000991   6.387192  20.527213  -0.000096   0.006647  -0.014379
1046  20   1.705336   6.042943  20.498163  -0.000113   0.006647  -0.016985
1047  29   2.209174   6.584389  20.605919  -0.000115   0.006647  -0.017299
1048  20   1.115760   6.114638  20.237558  -0.000775   0.203249  -0.003814
1049  20   0.200710   6.921963  18.598765   0.000298   0.415896   0.000716
1050  20   0.073705   6.973277  16.122247   0.002889   0.415896   0.006946
1051  17   1.175681   6.934220  19.630547  -0.001424   0.415896  -0.003424
1052  17   0.416248   7.579641  17.359292   0.001868   0.415896   0.004492
1053  17   0.649753   7.308007  15.347719   0.001293   0.203249   0.006360
1054  20   5.193994   2.244301  17.461657   0.001387   0.203295   0.006825
1055  20   4.600325   2.847033  19.321962   0.001849   0.416000   0.004446
1056  20   3.075562   4.301398  20.631242  -0.001390   0.416000  -0.003342
1057  17   5.449755   2.917593  18.186435   0.002917   0.416000   0.007011
1058  17   4.372687   3.973153  20.156208   0.000396   0.416000   0.000951
1059  17   2.965954   5.300160  20.816982  -0.000801   0.203295  -0.003941
1060  17   4.005593   9.618290  18.146776  -0.000406   0.084779  -0.004791
1061  28   4.841653  10.052988  17.903097  -0.000633   0.084779  -0.007464
1062  29   4.086585   9.571957  18.432712  -0.000632   0.084779  -0.007452
1063  29   3.235074   6.186238  21.009498  -0.000512   0.066842  -0.007654
1064  29   4.306448   5.960584  20.953040  -0.001033   0.148393  -0.006965
1065  29   5.516603   6.272830  20.509820  -0.000799   0.148393  -0.005382
1066  29   6.167250   6.942802  19.935586  -0.000406   0.066842  -0.006073
1067  17   3.529623   5.692687  20.884121  -0.001039   0.146441  -0.007094
1068  17   4.997163   5.644235  20.632399  -0.000657   0.146441  -0.004485
1069  17   6.106807   6.357655  19.940225  -0.000684   0.146441  -0.004668
1070  29   3.456310   9.434668  18.793237  -0.000484   0.066838  -0.007247
1071  29   2.600835   8.953029  19.281122  -0.000875   0.148385  -0.005896
1072  29   2.118846   7.971496  20.031156  -0.001021   0.148385  -0.006884
1073  29   2.288453   7.056421  20.610566  -0.000483   0.066838  -0.007229
1074  17   2.921836   9.285272  18.598109  -0.000698   0.146435  -0.004763
1075  17   1.972606   8.424468  19.357833  -0.000648   0.146435  -0.004426
1076  17   1.895371   7.194958  20.195415  -0.001018   0.146435  -0.006953
1077  18  -1.302979   1.240756  12.214354  -0.000429   0.064433  -0.006654
1078  19  -1.543636   1.407546  12.975557  -0.000305   0.064433  -0.004738
1079  31  -1.584570   1.158774  13.137062  -0.000498   0.064433  -0.007725
1080  18   1.404964  -1.250041  13.356639  -0.000427   0.064433  -0.006620
1081  19   1.236417  -1.149580  14.148260  -0.000313   0.064433  -0.004857
1082  31   0.942502  -1.165657  14.203051  -0.000524   0.064433  -0.008134
1083  19  -1.363441   3.306093  12.498528   0.000530   0.315592   0.001679
1084  19  -1.620894   1.964876  12.751252  -0.000200   0.315592  -0.000634
1085  18  -1.219027   2.375393  11.522821  -0.000466   0.633176  -0.000735
1086  19   1.835987  -1.214296  14.209344  -0.000236   0.315890  -0.000749
1087  19   3.164535  -0.856524  14.408034   0.000616   0.315890   0.001951
1088  18   2.726444  -1.252269  13.186803  -0.000520   0.633784  -0.000821
1089  18   1.431467  -1.362159   8.353347  -0.000205   0.018882  -0.010853
1090  27   1.746216  -1.212005   7.722386  -0.000230   0.018882  -0.012162
1091  30   1.215579  -1.424001   8.547469  -0.000259   0.018882  -0.013742
1092  18   0.681977  -0.673099   8.037166  -0.000204   0.018882  -0.010818
1093  27   1.085175  -0.604263   7.443519  -0.000248   0.018882  -0.013124
1094  30   0.542344  -0.805048   8.263458  -0.000215   0.018882  -0.011368
1095  27   2.038809  -1.311290   7.274278  -0.000267   0.036769  -0.007254
1096  18   1.576926  -1.456180   8.237920  -0.000144   0.052000  -0.002769
1097  27   1.205607  -0.557641   6.925057  -0.000316   0.036873  -0.008571
1098  18   0.627464  -0.571810   7.835272  -0.000156   0.052147  -0.002988
1099  18   1.339308  -1.420704  12.890648  -0.000517   0.084131  -0.006140
1100  30   1.089515  -1.495530  12.741254  -0.000636   0.084131  -0.007556
1101  31   0.873499  -1.191075  13.707212  -0.000640   0.084131  -0.007610
1102  18  -1.264451   0.973119  11.792192  -0.000521   0.084131  -0.006194
1103  30  -1.273019   0.676518  11.744564  -0.000686   0.084131  -0.008155
1104  31  -1.401638   0.900622  12.747393  -0.000639   0.084131  -0.007590
1105  30  -1.390422   0.598499  11.027278  -0.000455   0.065346  -0.006967
1106  30  -1.282764   0.466380   9.966900  -0.000904   0.144441  -0.006259
1107  30  -0.699247  -0.107745   8.956642  -0.000938   0.144441  -0.006495
1108  30   0.028252  -0.797340   8.571089  -0.000501   0.065346  -0.007663
1109  18  -1.336524   0.981967  10.592536  -0.000776   0.143770  -0.005401
1110  18  -0.977237   0.606184   9.227137  -0.000648   0.143770  -0.004506
1111  18  -0.090754  -0.243751   8.435701  -0.001082   0.143770  -0.007528
1112  30   1.088397  -1.772009   9.018324  -0.000568   0.065346  -0.008696
1113  30   1.545990  -2.171953   9.903829  -0.000993   0.144442  -0.006875
1114  30   1.639767  -2.220514  11.199826  -0.000935   0.144442  -0.006476
1115  30   1.316394  -1.890072  12.169209  -0.000409   0.065346  -0.006262
1116  18   1.646608  -1.841034   9.168631  -0.001017   0.143771  -0.007072
1117  18   2.078832  -2.203481  10.516393  -0.000675   0.143771  -0.004693
1118  18   1.846817  -1.944708  11.935496  -0.000764   0.143771  -0.005314
1119  18  -1.433122   1.118159  11.816589   0.000035   0.006876   0.005065
1120  18   1.461411  -1.540500  13.037974   0.000036   0.006418   0.005642
1121  19  -1.174054   1.674411  17.849971  -0.000101   0.006273  -0.016078
1122  20  -1.130999   1.904348  18.230679  -0.000132   0.006273  -0.021026
1123  32  -1.105488   1.997800  18.511531  -0.000100   0.006273  -0.016003
1124  19  -0.547703   1.098134  18.113956  -0.000091   0.006273  -0.014573
1125  20  -0.496699   1.320757  18.498014  -0.000115   0.006273  -0.018371
1126  32  -0.528397   1.466844  18.754755  -0.000104   0.006273  -0.016529
1127  20  -0.039291   0.975760  18.462134  -0.000768   0.200703  -0.003829
1128  20   1.960648   0.529868  18.352006   0.001031   0.411195   0.002506
1129  20   4.180620   1.192518  17.438442   0.003168   0.411195   0.007704
1130  19   0.611238   0.401002  17.931776  -0.001044   0.411195  -0.002539
1131  19   3.058417   0.324571  17.476299   0.002610   0.411195   0.006347
1132  19   4.645692   1.221038  16.534169   0.001458   0.200703   0.007267
1133  20  -0.235418   6.166754  14.954329   0.001537   0.200656   0.007659
1134  20  -1.460897   4.938004  16.048541   0.002558   0.411091   0.006222
1135  20  -1.609830   2.900670  17.472136  -0.001071   0.411091  -0.002606
1136  19  -0.859734   5.372142  14.838757   0.003309   0.411091   0.008051
1137  19  -1.868289   3.595706  16.262354   0.001075   0.411091   0.002614
1138  19  -1.532484   1.893100  17.356562  -0.000699   0.200656  -0.003485
1139  31  -1.497420   0.869473  17.038153  -0.000584   0.071411  -0.008179
1140  31  -2.087533   1.399441  16.183542  -0.001166   0.160896  -0.007249
1141  31  -2.283113   1.551788  14.799874  -0.000940   0.160896  -0.005844
1142  31  -1.965911   1.234403  13.723720  -0.000431   0.071411  -0.006033
1143  19  -1.641471   1.447252  16.919752  -0.001201   0.154259  -0.007788
1144  19  -2.234096   1.968707  15.552893  -0.000761   0.154259  -0.004930
1145  19  -2.054529   1.769003  13.997484  -0.000803   0.154259  -0.005205
1146  31   0.762190  -1.274938  14.874426  -0.000534   0.071392  -0.007475
1147  31   0.598484  -1.098747  16.015006  -0.000950   0.160841  -0.005908
1148  31  -0.114030  -0.415821  17.015497  -0.001155   0.160841  -0.007181
1149  31  -0.944651   0.361025  17.271121  -0.000526   0.071392  -0.007369
1150  19   1.132985  -1.162916  15.341823  -0.000777   0.154226  -0.005036
1151  19   0.664349  -0.697329  16.774947  -0.000723   0.154226  -0.004691
1152  19  -0.371880   0.279459  17.454910  -0.001283   0.154226  -0.008321
1153  32  -1.064576   1.946608  18.725501  -0.000417   0.059945  -0.006957
1154  19  -1.165713   1.376117  17.786276  -0.000368   0.084629  -0.004354
1155  32  -0.711053   1.612830  18.876921  -0.000428   0.059817  -0.007161
1156  19  -0.748534   1.000084  17.959885  -0.000363   0.084449  -0.004298
1157  20   1.502535   5.736720  20.557871  -0.000168   0.014342  -0.011741
1158  29   2.039086   6.254592  20.572617  -0.000176   0.014342  -0.012283
1159  32   1.322364   5.513260  20.632619  -0.000199   0.014342  -0.013879
1160  20   2.048135   5.235120  20.787903  -0.000178   0.014342  -0.012421
1161  29   2.518784   5.813579  20.774864  -0.000175   0.014342  -0.012171
1162  32   1.811827   5.063270  20.838982  -0.000184   0.014342  -0.012860
1163  29   2.316942   6.699733  20.707680  -0.000088   0.009958  -0.008870
1164  20   1.549990   5.898681  20.609712  -0.000044   0.014051  -0.003142
1165  29   2.862572   6.197229  20.939377  -0.000110   0.010082  -0.010946
1166  20   2.181729   5.318743  20.874448  -0.000054   0.014227  -0.003776
1167  32  -0.331998   1.476137  19.202899  -0.000526   0.071404  -0.007369
1168  32   0.666728   1.410083  19.802950  -0.001036   0.160957  -0.006439
1169  32   1.646103   2.091776  20.548157  -0.000994   0.160957  -0.006178
1170  32   1.948410   3.387207  21.006071  -0.001063   0.160957  -0.006602
1171  32   1.635051   4.510509  21.049378  -0.000512   0.071404  -0.007166
1172  20   0.210568   1.226296  19.094460  -0.001062   0.154165  -0.006886
1173  20   1.513287   1.485195  19.949628  -0.000725   0.154165  -0.004706
1174  20   2.278578   2.665734  20.668011  -0.000693   0.154165  -0.004498
1175  20   2.151627   4.220577  20.916542  -0.001090   0.154165  -0.007071
1176  32   0.730319   5.342330  20.667942  -0.000535   0.071383  -0.007494
1177  32  -0.268792   5.426035  20.071363  -0.001094   0.160898  -0.006801
1178  32  -1.258750   4.763386  19.323649  -0.000869   0.160898  -0.005399
1179  32  -1.579370   3.476181  18.856206  -0.001066   0.160898  -0.006626
1180  32  -1.281293   2.349490  18.802794  -0.000497   0.071383  -0.006968
1181  20   0.528167   5.713329  20.232116  -0.001103   0.154130  -0.007153
1182  20  -0.779758   5.478264  19.378754  -0.000695   0.154130  -0.004512
1183  20  -1.562276   4.314048  18.653210  -0.000708   0.154130  -0.004592
1184  20  -1.456793   2.760142  18.391680  -0.001130   0.154130  -0.007330
1185  22   9.117260   3.135442  -2.008000  -0.000217   0.145662  -0.001487
1186  21  10.188204   4.173191  -1.997704  -0.000187   0.145662  -0.001287
1187  23  12.792760   8.628579   1.490797  -0.000112   0.096528  -0.001161
1188  21  12.523074   7.863212   0.268121  -0.000092   0.096528  -0.000953
1189  24   4.942277   0.303135   1.516483  -0.001410   0.342794  -0.004114
1190  22   5.844897   0.448278   0.385903  -0.001212   0.342794  -0.003537
1191  25  12.963152   9.139013   7.183136  -0.001155   0.266534  -0.004333
1192  25  12.511957  10.234252   6.843138  -0.003635   0.533235  -0.006816
1193  25  11.290879  10.980851   6.410962  -0.003364   0.533235  -0.006308
1194  23  13.130596   9.263945   5.650697  -0.003184   0.533235  -0.005972
1195  23  12.285540  10.416493   5.211682  -0.003451   0.533235  -0.006472
1196  23  11.153414  10.776609   4.884069  -0.000932   0.266534  -0.003498
1197  27   2.032353   1.336647   4.692623  -0.001358   0.189385  -0.007173
1198  27   2.311712   0.259873   4.628879  -0.004265   0.379161  -0.011249
1199  27   3.154458  -0.768536   4.928305  -0.004525   0.379161  -0.011935
1200  27   4.307707  -1.093704   5.577754  -0.003873   0.379161  -0.010214
1201  24   2.712300   1.132177   3.701022  -0.003848   0.379161  -0.010148
1202  24   3.265157  -0.111566   3.771395  -0.004487   0.379161  -0.011835
1203  24   4.314824  -0.823394   4.270395  -0.004222   0.379161  -0.011135
1204  24   5.263596  -0.875994   4.852298  -0.001368   0.189385  -0.007226
1205  26  12.016157  10.156097  11.608161  -0.000977   0.265153  -0.003684
1206  26  11.566651  11.238250  11.264784  -0.003508   0.530429  -0.006613
1207  26  10.356706  11.981408  10.839728  -0.003171   0.530429  -0.005979
1208  25  12.172219  10.259669  10.066164  -0.003256   0.530429  -0.006139
1209  25  11.333491  11.400334   9.627595  -0.003685   0.530429  -0.006947
1210  25  10.211927  11.762834   9.308682  -0.001099   0.265153  -0.004145
1211  28   9.128080  11.374165  16.263013  -0.000466   0.188598  -0.002470
1212  26   9.802923  11.711442  15.017382  -0.000543   0.188598  -0.002881
1213  30   0.660613  -1.216446   8.378912  -0.001221   0.316677  -0.003855
1214  27   1.533759  -1.087825   7.233499  -0.001332   0.316677  -0.004208
1215  29   6.375871   7.750319  19.743794  -0.000991   0.266350  -0.003721
1216  29   5.667089   8.743669  19.818686  -0.003509   0.532815  -0.006585
1217  29   4.598669   9.536875  19.162119  -0.003057   0.532815  -0.005737
1218  28   7.149707   8.929246  19.079961  -0.003216   0.532815  -0.006036
1219  28   6.166944  10.021391  18.872177  -0.003485   0.532815  -0.006540
1220  28   5.303087  10.473539  18.134587  -0.001024   0.266350  -0.003844
1221  32   1.500272   5.207550  20.952720  -0.000588   0.235868  -0.002492
1222  29   2.407649   6.377856  20.883635  -0.000609   0.235868  -0.002581
1223  31  -1.735765   0.555679  13.204013  -0.001035   0.264994  -0.003906
1224  31  -1.285935  -0.526755  13.546881  -0.003556   0.530114  -0.006709
1225  31  -0.075883  -1.269789  13.972806  -0.003148   0.530114  -0.005938
1226  30  -1.296196  -0.196591  11.919601  -0.003251   0.530114  -0.006133
1227  30  -0.457177  -1.337416  12.358124  -0.003524   0.530114  -0.006647
1228  30   0.664385  -1.699675  12.678184  -0.000984   0.264994  -0.003715
1229  32  -0.972159   1.625693  18.698118  -0.000035   0.071552  -0.000483
1230  31  -1.187813   0.781628  17.510719  -0.000194   0.071552  -0.002717
 =====================================================

             16581705  WORDS OF DYNAMIC MEMORY USED
 EXECUTION OF GAMESS TERMINATED NORMALLY Wed Nov 23 11:19:22 2016
 DDI: 263640 bytes (0.3 MB / 0 MWords) used by master data server.

 ----------------------------------------
 CPU timing information for all processes
 ========================================
 0: 3914.940 + 0.788 = 3915.728
 ----------------------------------------
 ddikick.x: exited gracefully.
