----- GAMESS execution script -----

          ******************************************************
          *         GAMESS VERSION =  5 DEC 2014 (R1)          *
          *             FROM IOWA STATE UNIVERSITY             *
          * M.W.SCHMIDT, K.K.BALDRIDGE, J.A.BOATZ, S.T.ELBERT, *
          *   M.S.GORDON, J.H.JENSEN, S.KOSEKI, N.MATSUNAGA,   *
          *          K.A.NGUYEN, S.J.SU, T.L.WINDUS,           *
          *       TOGETHER WITH M.DUPUIS, J.A.MONTGOMERY       *
          *         J.COMPUT.CHEM.  14, 1347-1363(1993)        *
          **************** 64 BIT LINUX VERSION ****************

 EXECUTION OF GAMESS BEGUN Wed Nov 23 10:55:52 2016

            ECHO OF THE FIRST FEW INPUT CARDS -
 INPUT CARD>! SELECT RESTRICTED HARTREE-FOCK AS DEFAULT                                     
 INPUT CARD>$contrl scftyp=rhf $end                                                         
 INPUT CARD>                                                                                
 INPUT CARD>! THEORY: HF OR DFT                                                             
 INPUT CARD> $contrl mplevl=0 $end                                                          
 INPUT CARD>                                                                                
 INPUT CARD> $system timlim=10000 mwords=20 $end                                            
 INPUT CARD> $SCF DIRSCF=.TRUE. $end                                                        
 INPUT CARD>                                                                                
 INPUT CARD>                                                                                
 INPUT CARD>! BASIS SETS                                                                    
 INPUT CARD>! 6-311G(d,p)                                                                   
 INPUT CARD> $BASIS GBASIS=N311 NGAUSS=6 NDFUNC=1 NPFUNC=1 $END                             
 INPUT CARD>                                                                                
 INPUT CARD>! One of the following                                                          
 INPUT CARD> $guess guess=HUCKEL $end                                                       
 INPUT CARD>                                                                                
 INPUT CARD> $statpt projct=.FALSE. $end                                                    
 INPUT CARD> $STATPT IFREEZ(1)=1,2,3 $END                                                   
 INPUT CARD>                                                                                
 INPUT CARD>! Optimize the geometry with COSMO effects                                      
 INPUT CARD> $statpt opttol=0.0005 nstep=50 $end                                            
 INPUT CARD> $contrl nzvar=1 $end                                                           
 INPUT CARD> $zmat dlc=.t. auto=.t. $end                                                    
 INPUT CARD> $contrl runtyp=OPTIMIZE maxit=200 $end                                         
 INPUT CARD>                                                                                
 INPUT CARD>! Run COSMO on perfect conductor                                                
 INPUT CARD> $COSGMS PRFCND=.TRUE. $end                                                     
 INPUT CARD>                                                                                
 INPUT CARD>! Specifying RSOLV                                                              
 INPUT CARD> $COSGMS COSRAD = 1.4 $end                                                      
 INPUT CARD>                                                                                
 INPUT CARD>! available memory                                                              
 INPUT CARD> $SYSTEM MWORDS=40 $END                                                         
 INPUT CARD>                                                                                
 INPUT CARD> $DATA                                                                          
 INPUT CARD>3-Heptanone, ID: C106354                                                        
 INPUT CARD>C1                                                                              
 INPUT CARD>C      6.0      4.4953000000    2.7264000000    1.5520000000                    
 INPUT CARD>C      6.0      3.7493000000    3.1238000000    2.8175000000                    
 INPUT CARD>C      6.0      2.4075000000    2.4413000000    3.0294000000                    
 INPUT CARD>O      8.0      4.1848000000    3.9714000000    3.5945000000                    
 INPUT CARD>C      6.0      5.9621000000    3.1487000000    1.5891000000                    
 INPUT CARD>C      6.0      1.7518000000    2.8339000000    4.3407000000                    
 INPUT CARD>C      6.0      6.7184000000    2.6428000000    0.3612000000                    
 INPUT CARD>C      6.0      8.1881000000    3.0286000000    0.4154000000                    
 INPUT CARD>H      1.0      4.4316000000    1.6379000000    1.4501000000                    
 INPUT CARD>H      1.0      3.9848000000    3.1863000000    0.6991000000                    
 INPUT CARD>H      1.0      1.7528000000    2.7102000000    2.1933000000                    
 INPUT CARD>H      1.0      2.5682000000    1.3588000000    3.0151000000                    
   40000000 WORDS OF MEMORY AVAILABLE

     BASIS OPTIONS
     -------------
     GBASIS=N311         IGAUSS=       6      POLAR=POPN311 
     NDFUNC=       1     NFFUNC=       0     DIFFSP=       F
     NPFUNC=       1      DIFFS=       F     BASNAM=        


     RUN TITLE
     ---------
 3-Heptanone, ID: C106354                                                        

 THE POINT GROUP OF THE MOLECULE IS C1      
 THE ORDER OF THE PRINCIPAL AXIS IS     0

 ATOM      ATOMIC                      COORDINATES (BOHR)
           CHARGE         X                   Y                   Z
 C           6.0     8.4948852326        5.1521489329        2.9328547329
 C           6.0     7.0851496458        5.9031260404        5.3243029704
 C           6.0     4.5495153154        4.6133880538        5.7247359072
 O           8.0     7.9081253134        7.5048577876        6.7926200629
 C           6.0    11.2667353114        5.9501802175        3.0029635671
 C           6.0     3.3104219853        5.3552944766        8.2027335949
 C           6.0    12.6959350759        4.9941678404        0.6825690268
 C           6.0    15.4732653601        5.7232241264        0.7849921753
 H           1.0     8.3745096872        3.0951821953        2.7402916548
 H           1.0     7.5301801159        6.0212339147        1.3211074380
 H           1.0     3.3123117113        5.1215353719        4.1447360089
 H           1.0     4.8531942817        2.5677596721        5.6977128256
 H           1.0    12.1590639228        5.2139429727        4.7237480515
 H           1.0    11.3990161305        8.0173514755        3.1027410992
 H           1.0     4.5017052480        4.8314624328        9.8112683557
 H           1.0     1.4877812701        4.4009828528        8.4096585906
 H           1.0     2.9852001428        7.3971434063        8.2928735245
 H           1.0    12.5430562435        2.9322878151        0.5631383443
 H           1.0    11.8472591348        5.7742467281       -1.0376485399
 H           1.0    15.7000324786        7.7784901107        0.8314794346
 H           1.0    16.3860030121        4.9306730472        2.4643916606
 H           1.0    16.4642376680        5.0038054429       -0.8819351185

          INTERNUCLEAR DISTANCES (ANGS.)




     $CONTRL OPTIONS
     ---------------
 SCFTYP=RHF          RUNTYP=OPTIMIZE     EXETYP=RUN     
 MPLEVL=       0     CITYP =NONE         CCTYP =NONE         VBTYP =NONE    
 DFTTYP=NONE         TDDFT =NONE    
 MULT  =       1     ICHARG=       0     NZVAR =       1     COORD =UNIQUE  
 PP    =NONE         RELWFN=NONE         LOCAL =NONE         NUMGRD=       F
 ISPHER=      -1     NOSYM =       0     MAXIT =     200     UNITS =ANGS    
 PLTORB=       F     MOLPLT=       F     AIMPAC=       F     FRIEND=        
 NPRINT=       7     IREST =       0     GEOM  =INPUT   
 NORMF =       0     NORMP =       0     ITOL  =      20     ICUT  =       9
 INTTYP=BEST         GRDTYP=BEST         QMTTOL= 1.0E-06

     $SYSTEM OPTIONS
     ---------------
  REPLICATED MEMORY=    40000000 WORDS (ON EVERY NODE).
 DISTRIBUTED MEMDDI=           0 MILLION WORDS IN AGGREGATE,
 MEMDDI DISTRIBUTED OVER   1 PROCESSORS IS           0 WORDS/PROCESSOR.
 TOTAL MEMORY REQUESTED ON EACH PROCESSOR=    40000000 WORDS.
 TIMLIM=       10000.00 MINUTES, OR       6.9 DAYS.
 PARALL= F  BALTYP=  DLB     KDIAG=    0  COREFL= F
 MXSEQ2=     300 MXSEQ3=     150  mem10=         0

     $COSGMS OPTIONS
     ---------------
     EPSI  =   INFTY     NSPA  =      92     COSRAD=    1.40
     DISEX =   10.00     OUTCHG=DBLCAV       COSBUG=       F
     COSWRT=       F     DCOSMO=       F

     SYMMETRY COORDINATES WILL NOT BE USED FOR 
     THE COSMO CALCULATION, EVEN IF SPECIFIED:
         -- SWITCHING TO C1 POINT GROUP --


     DEFINITION OF CAVITY
     ---------------------------
     ATOM         COORDINATES           RADIUS 
     1    8.4949    5.1521    2.9329    2.0000
     2    7.0851    5.9031    5.3243    2.0000
     3    4.5495    4.6134    5.7247    2.0000
     4    7.9081    7.5049    6.7926    1.7200
     5   11.2667    5.9502    3.0030    2.0000
     6    3.3104    5.3553    8.2027    2.0000
     7   12.6959    4.9942    0.6826    2.0000
     8   15.4733    5.7232    0.7850    2.0000
     9    8.3745    3.0952    2.7403    1.3000
    10    7.5302    6.0212    1.3211    1.3000
    11    3.3123    5.1215    4.1447    1.3000
    12    4.8532    2.5678    5.6977    1.3000
    13   12.1591    5.2139    4.7237    1.3000
    14   11.3990    8.0174    3.1027    1.3000
    15    4.5017    4.8315    9.8113    1.3000
    16    1.4878    4.4010    8.4097    1.3000
    17    2.9852    7.3971    8.2929    1.3000
    18   12.5431    2.9323    0.5631    1.3000
    19   11.8473    5.7742   -1.0376    1.3000
    20   15.7000    7.7785    0.8315    1.3000
    21   16.3860    4.9307    2.4644    1.3000
    22   16.4642    5.0038   -0.8819    1.3000

          ----------------
          PROPERTIES INPUT
          ----------------

     MOMENTS            FIELD           POTENTIAL          DENSITY
 IEMOM =       1   IEFLD =       0   IEPOT =       0   IEDEN =       0
 WHERE =COMASS     WHERE =NUCLEI     WHERE =NUCLEI     WHERE =NUCLEI  
 OUTPUT=BOTH       OUTPUT=BOTH       OUTPUT=BOTH       OUTPUT=BOTH    
 IEMINT=       0   IEFINT=       0                     IEDINT=       0
                                                       MORB  =       0
          EXTRAPOLATION IN EFFECT
          SOSCF IN EFFECT
 ORBITAL PRINTING OPTION: NPREO=     1   236     2     1

     -------------------------------
     INTEGRAL TRANSFORMATION OPTIONS
     -------------------------------
     NWORD  =            0
     CUTOFF = 1.0E-09     MPTRAN =       0
     DIRTRF =       T     AOINTS =DUP     

          ----------------------
          INTEGRAL INPUT OPTIONS
          ----------------------
 NOPK  =       1 NORDER=       0 SCHWRZ=       T


 -----------------------------------------------
  STATISTICS ON AUTOMATIC COORDINATE GENERATION 
 -----------------------------------------------
  NUMBER OF USER SPECIFIED BONDS                             0
  NUMBER OF BONDS                                           21
  NUMBER OF ANGLES                                          39
  NUMBER OF TORSIONS                                        48
  NUMBER OF EXTRA COORD.                                     0
  NUMBER OF EXTRA COORD. FOR CONSTRAINTS                     0
  NUMBER OF CONSTRAINED COORD.                               0

  TOTAL NUMBER OF PRIMITIVES                               108
 -----------------------------------------------

   --- ENCODED Z MATRIX ---
 COORD  TYPE   I   J   K   L   M   N
    1      1    1   5
    2      1    1   9
    3      1    1   2
    4      1    1  10
    5      1    2   4
    6      1    2   3
    7      1    3  12
    8      1    3  11
    9      1    3   6
   10      1    5  13
   11      1    5   7
   12      1    5  14
   13      1    6  16
   14      1    6  15
   15      1    6  17
   16      1    7   8
   17      1    7  19
   18      1    7  18
   19      1    8  22
   20      1    8  21
   21      1    8  20
   22      2    1   2   4
   23      2    1   2   3
   24      2    1   5  13
   25      2    1   5  14
   26      2    1   5   7
   27      2    2   3  11
   28      2    2   3  12
   29      2    2   1  10
   30      2    2   1   9
   31      2    2   1   5
   32      2    2   3   6
   33      2    3   2   4
   34      2    3   6  15
   35      2    3   6  17
   36      2    3   6  16
   37      2    5   1  10
   38      2    5   7  19
   39      2    5   7   8
   40      2    5   7  18
   41      2    5   1   9
   42      2    6   3  12
   43      2    6   3  11
   44      2    7   8  20
   45      2    7   5  14
   46      2    7   5  13
   47      2    7   8  21
   48      2    7   8  22
   49      2    8   7  19
   50      2    8   7  18
   51      2    9   1  10
   52      2   11   3  12
   53      2   13   5  14
   54      2   15   6  17
   55      2   15   6  16
   56      2   16   6  17
   57      2   18   7  19
   58      2   20   8  21
   59      2   20   8  22
   60      2   21   8  22
   61      3    1   5   7   8
   62      3    1   2   3   6
   63      3    1   2   3  12
   64      3    1   5   7  18
   65      3    1   5   7  19
   66      3    1   2   3  11
   67      3    2   1   5  14
   68      3    2   1   5  13
   69      3    2   3   6  17
   70      3    2   3   6  15
   71      3    2   3   6  16
   72      3    2   1   5   7
   73      3    3   2   1  10
   74      3    3   2   1   9
   75      3    3   2   1   5
   76      3    4   2   1  10
   77      3    4   2   3  12
   78      3    4   2   3  11
   79      3    4   2   1   5
   80      3    4   2   3   6
   81      3    4   2   1   9
   82      3    5   7   8  20
   83      3    5   7   8  21
   84      3    5   7   8  22
   85      3    7   5   1  10
   86      3    7   5   1   9
   87      3    8   7   5  14
   88      3    8   7   5  13
   89      3    9   1   5  14
   90      3    9   1   5  13
   91      3   10   1   5  14
   92      3   10   1   5  13
   93      3   11   3   6  16
   94      3   11   3   6  17
   95      3   11   3   6  15
   96      3   12   3   6  16
   97      3   12   3   6  17
   98      3   12   3   6  15
   99      3   13   5   7  19
  100      3   13   5   7  18
  101      3   14   5   7  19
  102      3   14   5   7  18
  103      3   18   7   8  22
  104      3   18   7   8  21
  105      3   18   7   8  20
  106      3   19   7   8  22
  107      3   19   7   8  21
  108      3   19   7   8  20

          INDEP./SYM. INTERNAL COORDINATES
          --------------------------------
 CRD  1=   0.1930 ( 22) -0.3587 ( 23)  0.1331 ( 24)  0.1200 ( 25) -0.3993 ( 26)
          -0.1536 ( 29) -0.1607 ( 30)  0.4987 ( 31)  0.2584 ( 32)  0.1648 ( 33)
          -0.1375 ( 37)  0.2662 ( 39) -0.1321 ( 41)  0.1201 ( 45)  0.1123 ( 46)
 CRD  2=   0.2309 (  1)  0.2217 (  3)  0.1811 (  6)  0.1149 (  9)  0.1749 ( 11)
           0.1234 ( 16) -0.1325 ( 22)  0.3079 ( 23)  0.1239 ( 26) -0.1375 ( 29)
           0.1763 ( 31) -0.1803 ( 33) -0.1410 ( 37)  0.1987 ( 39) -0.1140 ( 45)
           0.1024 ( 47) -0.1253 ( 49) -0.1843 ( 61)  0.2163 ( 62)  0.1290 ( 63)
          -0.1052 ( 65)  0.1496 ( 67)  0.1370 ( 68)  0.2719 ( 72) -0.1160 ( 73)
          -0.2746 ( 75) -0.1306 ( 79)  0.1177 ( 85)
 CRD  3=   0.1356 (  1)  0.2274 (  3)  0.1566 (  6)  0.1442 (  9)  0.1363 ( 11)
          -0.1472 ( 23) -0.1159 ( 24) -0.1118 ( 25)  0.4242 ( 26) -0.1623 ( 27)
          -0.1616 ( 28)  0.5146 ( 32)  0.1150 ( 35)  0.1178 ( 38) -0.2367 ( 39)
          -0.1637 ( 42) -0.1220 ( 43) -0.1219 ( 45) -0.1748 ( 46)
 CRD  4=   0.2409 (  1)  0.1764 (  3)  0.1802 (  6)  0.1841 ( 11)  0.1642 ( 16)
           0.2542 ( 23) -0.1549 ( 33)  0.4011 ( 39) -0.1326 ( 40) -0.1053 ( 41)
           0.1560 ( 44) -0.1903 ( 50)  0.1988 ( 61) -0.1807 ( 62)  0.1330 ( 64)
          -0.1131 ( 66) -0.1128 ( 68) -0.2095 ( 72)  0.1010 ( 73)  0.1044 ( 74)
           0.2598 ( 75)  0.1368 ( 79)
 CRD  5=  -0.1468 ( 24)  0.1714 ( 25) -0.1153 ( 28) -0.1747 ( 29)  0.1406 ( 30)
           0.1274 ( 34) -0.1012 ( 35)  0.1559 ( 37) -0.1293 ( 39)  0.1401 ( 40)
          -0.2027 ( 41)  0.1145 ( 42) -0.1359 ( 43) -0.1360 ( 45)  0.1186 ( 46)
          -0.1360 ( 47)  0.1437 ( 49)  0.2189 ( 61)  0.2353 ( 62)  0.1471 ( 63)
           0.1457 ( 64)  0.1618 ( 65)  0.1509 ( 66)  0.1253 ( 67)  0.1401 ( 68)
           0.1851 ( 72)  0.1012 ( 73)  0.1024 ( 74)  0.2197 ( 75)  0.1325 ( 76)
           0.1151 ( 77)  0.1188 ( 78)  0.2510 ( 79)  0.2032 ( 80)  0.1337 ( 81)
           0.1162 ( 85)  0.1024 ( 86)  0.1002 ( 87)  0.1093 ( 88)
 CRD  6=   0.1300 (  1)  0.1198 (  3)  0.1616 ( 22)  0.1400 ( 27)  0.1443 ( 28)
          -0.1222 ( 29) -0.1977 ( 30)  0.4792 ( 31) -0.3782 ( 32) -0.2026 ( 33)
          -0.1045 ( 34)  0.1220 ( 36) -0.1375 ( 37)  0.1577 ( 38) -0.3623 ( 39)
          -0.1307 ( 41)  0.1071 ( 43) -0.1136 ( 46)  0.1149 ( 48)  0.1001 ( 50)
 CRD  7=  -0.1069 (  1)  0.1753 (  3)  0.2754 (  6)  0.2358 (  9) -0.2362 ( 11)
          -0.2290 ( 16) -0.2706 ( 22)  0.3603 ( 23)  0.1581 ( 24)  0.1442 ( 25)
          -0.3751 ( 26)  0.1295 ( 29)  0.2079 ( 32)  0.1026 ( 35) -0.1136 ( 37)
          -0.2109 ( 39) -0.1144 ( 42)  0.1060 ( 45)
 CRD  8=   0.1092 ( 28)  0.2752 ( 34) -0.2871 ( 35) -0.1079 ( 40)  0.1021 ( 41)
           0.2839 ( 44)  0.1009 ( 45) -0.2557 ( 47)  0.2074 ( 61)  0.2401 ( 62)
          -0.1453 ( 69) -0.1454 ( 70) -0.2261 ( 71) -0.1784 ( 72) -0.1375 ( 73)
          -0.1278 ( 74) -0.1878 ( 75)  0.1434 ( 80) -0.1328 ( 82) -0.1275 ( 83)
          -0.2104 ( 84) -0.1500 ( 85) -0.1371 ( 86)  0.1387 ( 87)  0.1269 ( 88)
 CRD  9=  -0.1635 ( 27)  0.1594 ( 28) -0.2340 ( 34)  0.2251 ( 35) -0.1675 ( 38)
           0.1690 ( 40) -0.1940 ( 42)  0.1832 ( 43)  0.2567 ( 44) -0.1554 ( 45)
           0.1458 ( 46) -0.2592 ( 47)  0.1834 ( 49) -0.1802 ( 50)  0.1692 ( 61)
          -0.1569 ( 62) -0.1110 ( 69) -0.1136 ( 70)  0.1575 ( 72) -0.1321 ( 73)
          -0.1240 ( 74) -0.1636 ( 75) -0.2213 ( 80)  0.1271 ( 82)  0.1274 ( 83)
           0.1334 ( 85)  0.1403 ( 86)  0.1497 ( 87)  0.1572 ( 88)
 CRD 10=   0.2652 (  1) -0.2843 (  3)  0.3569 (  6) -0.3460 (  9) -0.1549 ( 11)
           0.1390 ( 16) -0.3803 ( 22)  0.1148 ( 27)  0.3546 ( 33) -0.1388 ( 34)
          -0.1248 ( 35) -0.1158 ( 42) -0.1324 ( 43)  0.1428 ( 54)
 CRD 11=   0.1455 (  3) -0.4429 (  9) -0.4110 ( 16) -0.1594 ( 33) -0.3790 ( 36)
          -0.1361 ( 42) -0.1516 ( 43) -0.2813 ( 48) -0.1321 ( 49) -0.1105 ( 50)
           0.1795 ( 55)  0.1815 ( 56)  0.1551 ( 59)  0.1493 ( 60)
 CRD 12=   0.1353 (  1) -0.1290 (  3)  0.1299 (  6)  0.2613 (  9) -0.1182 ( 11)
          -0.4259 ( 16) -0.1088 ( 23)  0.1520 ( 26)  0.1943 ( 33)  0.3338 ( 36)
          -0.4281 ( 48) -0.1090 ( 49) -0.1240 ( 50) -0.1290 ( 55) -0.1298 ( 56)
           0.1866 ( 59)  0.1881 ( 60)
 CRD 13=   0.2127 (  1) -0.1790 (  6) -0.5392 ( 11)  0.1777 ( 16) -0.1123 ( 19)
           0.1759 ( 22)  0.1038 ( 24)  0.1007 ( 25) -0.1897 ( 33)  0.1100 ( 34)
          -0.1772 ( 36)  0.2145 ( 44) -0.1360 ( 45) -0.1442 ( 46)  0.2184 ( 47)
          -0.2758 ( 48) -0.2037 ( 58)
 CRD 14=  -0.1098 ( 15)  0.1075 ( 20) -0.1026 ( 21) -0.1363 ( 24)  0.1437 ( 25)
          -0.1555 ( 27)  0.1759 ( 28)  0.2616 ( 34) -0.3332 ( 35) -0.1378 ( 38)
           0.1313 ( 40) -0.1154 ( 42) -0.3357 ( 44) -0.1328 ( 45)  0.1266 ( 46)
           0.3533 ( 47) -0.1300 ( 55)  0.1295 ( 56)  0.1438 ( 59) -0.1461 ( 60)
           0.1084 ( 64)  0.1035 ( 65) -0.1231 ( 67) -0.1170 ( 68) -0.1420 ( 69)
          -0.1371 ( 70) -0.1703 ( 71)  0.1231 ( 82)  0.1241 ( 83)  0.1644 ( 84)
 CRD 15=  -0.3973 (  1)  0.2245 (  3)  0.1672 (  5)  0.1633 (  6) -0.1587 (  9)
          -0.1006 ( 12)  0.1004 ( 13)  0.1555 ( 16) -0.1277 ( 25)  0.1072 ( 27)
           0.1655 ( 29) -0.2075 ( 34) -0.2152 ( 35)  0.2718 ( 36) -0.2164 ( 37)
          -0.1313 ( 43)  0.2379 ( 44)  0.1030 ( 47) -0.1944 ( 48)  0.1003 ( 49)
           0.1960 ( 54) -0.1588 ( 58)  0.1252 ( 73)
 CRD 16=   0.1885 (  1)  0.1496 ( 24)  0.2030 ( 27) -0.1947 ( 28)  0.1677 ( 29)
          -0.1833 ( 30)  0.2401 ( 34) -0.1015 ( 35) -0.1399 ( 37) -0.2271 ( 38)
           0.2146 ( 40)  0.2362 ( 41)  0.1864 ( 42) -0.1574 ( 43) -0.2058 ( 47)
           0.1216 ( 48)  0.1690 ( 49) -0.1922 ( 50) -0.1392 ( 63) -0.1335 ( 64)
          -0.1183 ( 65) -0.1253 ( 66) -0.1054 ( 67)  0.1459 ( 69)  0.1341 ( 70)
           0.1136 ( 71)  0.1160 ( 74) -0.1404 ( 79)  0.1731 ( 82)  0.1561 ( 83)
           0.1407 ( 84)  0.1023 ( 88)
 CRD 17=   0.2785 (  1)  0.1560 (  2)  0.2438 (  3)  0.1042 (  4) -0.1221 (  6)
          -0.1180 (  7) -0.1091 (  8) -0.1504 (  9) -0.1461 ( 11)  0.1188 ( 13)
          -0.1033 ( 16)  0.1909 ( 22)  0.1212 ( 25) -0.1567 ( 31)  0.1497 ( 32)
          -0.1395 ( 33) -0.2298 ( 34) -0.2495 ( 35)  0.3275 ( 36) -0.1287 ( 40)
          -0.1157 ( 44) -0.2013 ( 47)  0.2142 ( 48) -0.1168 ( 51)  0.2248 ( 54)
           0.1476 ( 58)
 CRD 18=   0.2877 ( 24) -0.2627 ( 25) -0.1047 ( 27) -0.1787 ( 29)  0.1822 ( 30)
          -0.1061 ( 34)  0.1769 ( 37) -0.1940 ( 38)  0.1849 ( 40) -0.1506 ( 41)
          -0.1122 ( 44)  0.2898 ( 45) -0.3029 ( 46)  0.2192 ( 49) -0.2259 ( 50)
          -0.1444 ( 64) -0.1405 ( 65)  0.1030 ( 67)  0.1125 ( 68) -0.1919 ( 85)
          -0.1984 ( 86)  0.1488 ( 87)  0.1622 ( 88)
 CRD 19=   0.1285 (  7) -0.1112 (  8) -0.1712 ( 10)  0.1264 ( 12) -0.1473 ( 14)
           0.1520 ( 15) -0.1388 ( 18)  0.1025 ( 20) -0.1321 ( 21)  0.1313 ( 29)
          -0.1325 ( 30) -0.2928 ( 34)  0.3120 ( 35) -0.1365 ( 37)  0.1619 ( 41)
           0.1536 ( 42) -0.1496 ( 43) -0.2942 ( 44)  0.1840 ( 47)  0.1613 ( 55)
          -0.1580 ( 56)  0.1145 ( 59) -0.1354 ( 60)  0.1827 ( 61)  0.2093 ( 62)
           0.1113 ( 64)  0.1102 ( 65) -0.1408 ( 75) -0.1230 ( 79)  0.1923 ( 80)
 CRD 20=  -0.2310 (  1)  0.1219 (  5)  0.1571 (  6) -0.1581 ( 10) -0.3754 ( 11)
          -0.2122 ( 12) -0.2067 ( 17) -0.1522 ( 18)  0.1048 ( 19) -0.1051 ( 25)
           0.2311 ( 26)  0.1066 ( 28)  0.1024 ( 31)  0.1037 ( 34) -0.1572 ( 38)
           0.2540 ( 39) -0.1515 ( 40) -0.1024 ( 41) -0.1381 ( 44) -0.1208 ( 46)
          -0.2322 ( 47)  0.2661 ( 48)  0.1410 ( 53)  0.1448 ( 57)  0.1828 ( 58)
 CRD 21=  -0.1492 (  3) -0.2551 (  4) -0.2287 (  5) -0.1387 (  6) -0.2124 (  7)
          -0.1239 ( 18)  0.1203 ( 23)  0.1258 ( 27) -0.2339 ( 28) -0.1974 ( 29)
           0.1026 ( 30)  0.1215 ( 31) -0.1305 ( 35) -0.1968 ( 41)  0.1499 ( 42)
          -0.1735 ( 43) -0.1052 ( 44)  0.1061 ( 61) -0.1059 ( 62) -0.1885 ( 63)
          -0.1826 ( 66) -0.1495 ( 73) -0.1954 ( 74) -0.1583 ( 76) -0.1806 ( 77)
          -0.1747 ( 78) -0.1030 ( 79) -0.2043 ( 81)
 CRD 22=  -0.2028 (  2) -0.2675 (  3) -0.4964 (  5) -0.2735 (  6) -0.1824 (  8)
          -0.1108 ( 22)  0.2405 ( 23) -0.1847 ( 27) -0.2214 ( 30)  0.1702 ( 31)
           0.1809 ( 32) -0.1291 ( 33)  0.1113 ( 36) -0.1695 ( 37) -0.1336 ( 42)
           0.1001 ( 52)  0.1390 ( 73)  0.1249 ( 74)  0.1223 ( 76)  0.1009 ( 77)
           0.1082 ( 81)
 CRD 23=  -0.2249 (  2)  0.1852 (  4)  0.2058 (  7) -0.2149 (  8) -0.2661 ( 17)
           0.2623 ( 18)  0.1922 ( 37) -0.1953 ( 41)  0.1801 ( 42) -0.1946 ( 43)
           0.1026 ( 44) -0.1030 ( 47) -0.1064 ( 63) -0.1107 ( 66) -0.1421 ( 67)
          -0.1397 ( 68) -0.1003 ( 70) -0.1253 ( 71) -0.1514 ( 73) -0.1556 ( 74)
          -0.1417 ( 76) -0.1156 ( 77) -0.1199 ( 78) -0.1459 ( 81)  0.1128 ( 82)
           0.1127 ( 83)  0.1388 ( 84) -0.1512 ( 87) -0.1519 ( 88)
 CRD 24=  -0.1054 (  2) -0.1399 (  8) -0.1399 (  9)  0.2147 ( 10) -0.2203 ( 12)
          -0.4025 ( 13) -0.4450 ( 14) -0.4079 ( 15)  0.1834 ( 17) -0.1822 ( 18)
           0.1388 ( 34)  0.1598 ( 35)  0.1674 ( 36) -0.1552 ( 54) -0.1566 ( 55)
          -0.1768 ( 56)
 CRD 25=   0.1643 (  2) -0.1533 (  4) -0.1884 (  7)  0.1414 (  8) -0.3331 ( 10)
           0.3464 ( 12) -0.2584 ( 13) -0.2396 ( 14) -0.3022 ( 15) -0.2831 ( 17)
           0.2861 ( 18)  0.1118 ( 34)  0.1046 ( 36) -0.1044 ( 42) -0.1199 ( 55)
           0.1182 ( 63)  0.1105 ( 64)  0.1090 ( 65)  0.1098 ( 77) -0.1058 ( 85)
          -0.1021 ( 86)
 CRD 26=   0.1762 ( 16)  0.4813 ( 19)  0.5084 ( 20)  0.5049 ( 21) -0.1765 ( 44)
          -0.1741 ( 47) -0.1906 ( 48)  0.1828 ( 58)  0.1928 ( 59)  0.1906 ( 60)
 CRD 27=   0.1962 (  2) -0.2447 (  4)  0.2881 (  7) -0.3056 (  8)  0.1067 ( 24)
          -0.1002 ( 25) -0.1015 ( 37)  0.1060 ( 42)  0.1171 ( 45) -0.1279 ( 46)
          -0.1060 ( 49)  0.1033 ( 50) -0.1979 ( 63) -0.1918 ( 66)  0.1410 ( 67)
           0.1464 ( 68) -0.1290 ( 69) -0.1292 ( 70) -0.1299 ( 71)  0.1629 ( 73)
           0.1498 ( 74)  0.1577 ( 76) -0.1934 ( 77) -0.1873 ( 78)  0.1446 ( 81)
           0.1208 ( 89)  0.1262 ( 90)  0.1245 ( 91)  0.1299 ( 92)  0.1338 ( 99)
           0.1325 (100)  0.1288 (101)  0.1275 (102)
 CRD 28=  -0.2374 (  2) -0.2104 (  4)  0.4663 (  7)  0.4900 (  8) -0.3150 ( 13)
           0.1426 ( 14)  0.1398 ( 15) -0.1003 ( 42) -0.1012 ( 51)  0.2064 ( 52)
           0.1902 ( 54)  0.1088 ( 63)  0.1082 ( 77)  0.1566 ( 94) -0.1540 ( 98)
 CRD 29=   0.5163 (  2)  0.5776 (  4)  0.1097 (  7)  0.1298 (  8) -0.2502 ( 13)
           0.1258 ( 14) -0.1052 ( 37) -0.1069 ( 41)  0.2422 ( 51)  0.1253 ( 54)
           0.1113 ( 73) -0.1320 ( 74)  0.1093 ( 76) -0.1340 ( 81)  0.1016 ( 89)
 CRD 30=  -0.1793 ( 17) -0.1860 ( 18)  0.6282 ( 19) -0.3165 ( 20) -0.2579 ( 21)
          -0.3244 ( 58)  0.1714 ( 59)  0.1419 ( 60)  0.1655 ( 82) -0.1702 ( 83)
          -0.1917 (104)  0.1440 (105) -0.1561 (107)  0.1796 (108)
 CRD 31=  -0.2216 (  2)  0.1539 (  4)  0.3054 ( 14) -0.3868 ( 15)  0.2277 ( 20)
          -0.2767 ( 21) -0.1022 ( 49)  0.1093 ( 50)  0.2090 ( 55) -0.1665 ( 56)
          -0.1174 ( 59)  0.1441 ( 60) -0.1216 ( 71)  0.1585 ( 84) -0.1351 ( 93)
          -0.1336 ( 96)  0.1352 ( 99)  0.1400 (100)  0.1376 (101)  0.1424 (102)
           0.1865 (103)  0.1869 (106)
 CRD 32=  -0.4327 ( 14)  0.3875 ( 15)  0.3169 ( 20) -0.3344 ( 21) -0.2057 ( 55)
           0.2279 ( 56) -0.1685 ( 59)  0.1783 ( 60)  0.1808 ( 71)  0.1622 ( 84)
           0.1643 ( 93)  0.1621 ( 96)  0.1732 (103)  0.1731 (106)
 CRD 33=   0.1446 (  2) -0.2319 (  4) -0.2317 (  8) -0.2394 ( 13)  0.2382 ( 14)
           0.3442 ( 20) -0.3381 ( 21)  0.1141 ( 54) -0.1164 ( 56) -0.1926 ( 59)
           0.1900 ( 60) -0.1192 ( 82) -0.1166 ( 83)  0.1074 ( 97) -0.1359 ( 99)
          -0.1360 (100) -0.1386 (101) -0.1387 (102) -0.1564 (104) -0.1591 (105)
          -0.1545 (107) -0.1572 (108)
 CRD 34=   0.2368 (  2)  0.3956 (  7)  0.2708 (  8)  0.4472 ( 13) -0.1832 ( 14)
          -0.2795 ( 15)  0.1162 ( 20) -0.1121 ( 21)  0.1531 ( 52) -0.2100 ( 54)
           0.1307 ( 55) -0.1288 ( 69)  0.1149 ( 70)  0.1904 ( 95) -0.1788 ( 97)
 CRD 35=  -0.4219 ( 10) -0.4139 ( 12)  0.4470 ( 17)  0.4493 ( 18)  0.1349 ( 19)
          -0.1167 ( 20) -0.1183 ( 21) -0.1476 ( 53)  0.1581 ( 57)  0.1419 ( 99)
          -0.1466 (102)  0.1111 (105) -0.1152 (107)
 CRD 36=   0.4474 ( 10) -0.1219 ( 11)  0.4460 ( 12)  0.3822 ( 17)  0.3798 ( 18)
           0.1996 ( 53)  0.1732 ( 57) -0.1320 (100)  0.1303 (101)  0.1095 (105)
          -0.1085 (107)
 CRD 37=  -0.2601 (  2)  0.2475 (  4) -0.1578 (  7)  0.1664 (  8) -0.2774 ( 10)
           0.2811 ( 12)  0.1332 ( 67)  0.1376 ( 68) -0.1026 ( 82) -0.1028 ( 83)
           0.1389 ( 85)  0.1319 ( 86)  0.2179 ( 89)  0.2222 ( 90)  0.2249 ( 91)
           0.2292 ( 92) -0.1377 ( 93) -0.1466 ( 94) -0.1447 ( 95) -0.1476 ( 96)
          -0.1565 ( 97) -0.1546 ( 98) -0.1153 (103) -0.1295 (104) -0.1293 (105)
          -0.1150 (106) -0.1291 (107) -0.1289 (108)
 CRD 38=   0.1425 (  2) -0.1167 (  4) -0.2720 (  7)  0.2512 (  8)  0.1842 ( 10)
          -0.1830 ( 12)  0.1135 ( 27) -0.1689 ( 69) -0.1747 ( 70) -0.1731 ( 71)
           0.1119 ( 81) -0.1120 ( 89) -0.1230 ( 90) -0.1330 ( 91) -0.1441 ( 92)
          -0.2832 ( 93) -0.2790 ( 94) -0.2848 ( 95) -0.2624 ( 96) -0.2582 ( 97)
          -0.2640 ( 98)
 CRD 39=   0.2009 ( 10) -0.2004 ( 12) -0.3612 ( 17)  0.3627 ( 18)  0.1137 ( 64)
           0.1117 ( 65) -0.1560 ( 82) -0.1563 ( 83) -0.1700 ( 84)  0.1005 ( 87)
           0.1339 ( 99)  0.1358 (100)  0.1385 (101)  0.1405 (102) -0.2604 (103)
          -0.2466 (104) -0.2464 (105) -0.2615 (106) -0.2477 (107) -0.2475 (108)
 CRD 40=  -0.1292 (  1) -0.2949 (  3)  0.2928 (  6)  0.1150 (  9)  0.1410 ( 13)
           0.3646 ( 22)  0.1291 ( 27)  0.1350 ( 28) -0.1521 ( 29) -0.1332 ( 30)
          -0.3663 ( 33)  0.1761 ( 37)  0.1509 ( 41) -0.1719 ( 42) -0.1762 ( 43)
          -0.1014 ( 66)  0.1264 ( 86)  0.1823 ( 89) -0.1173 ( 92)  0.1216 ( 96)
           0.1426 ( 97)
 CRD 41=   0.2169 (  3) -0.2048 (  5)  0.1081 (  6) -0.1304 ( 13) -0.2435 ( 19)
          -0.1340 ( 20) -0.1351 ( 21) -0.1555 ( 24) -0.1587 ( 25) -0.1056 ( 36)
          -0.1544 ( 38) -0.1530 ( 40)  0.1014 ( 42) -0.1481 ( 44)  0.1323 ( 45)
           0.1290 ( 46) -0.1470 ( 47) -0.1871 ( 48)  0.1900 ( 49)  0.1881 ( 50)
           0.1110 ( 55)  0.1171 ( 56)  0.1095 ( 58)  0.1983 ( 59)  0.1972 ( 60)
           0.1185 ( 64) -0.1230 ( 65)  0.1023 ( 89) -0.1024 ( 92) -0.2124 ( 99)
           0.2095 (102)  0.1100 (105) -0.1073 (107)
 CRD 42=   0.1335 (  1) -0.1001 (  2) -0.1146 (  3)  0.5555 (  5) -0.3129 (  6)
          -0.1019 (  9)  0.1248 ( 13)  0.1302 ( 14)  0.1327 ( 15) -0.1547 ( 19)
          -0.1089 ( 21) -0.1505 ( 22)  0.1272 ( 23)  0.1277 ( 34)  0.1288 ( 35)
           0.1196 ( 36) -0.1116 ( 44) -0.1095 ( 47) -0.1280 ( 48)  0.1025 ( 51)
           0.1525 ( 52) -0.1323 ( 54) -0.1303 ( 55) -0.1317 ( 56)  0.1415 ( 59)
           0.1300 ( 60)
 CRD 43=   0.1698 (  3) -0.4973 (  5) -0.2369 (  9)  0.2143 ( 13)  0.1693 ( 14)
           0.1641 ( 15) -0.2091 ( 23)  0.1510 ( 27)  0.1572 ( 28)  0.1043 ( 29)
           0.1214 ( 30) -0.1178 ( 32)  0.1940 ( 33)  0.1760 ( 34)  0.1714 ( 35)
           0.1984 ( 36) -0.1655 ( 54) -0.2054 ( 55) -0.2014 ( 56)  0.1137 ( 92)
 CRD 44=  -0.2822 (  3)  0.1865 (  9)  0.1365 ( 11) -0.1084 ( 14)  0.3655 ( 16)
          -0.1106 ( 19) -0.1942 ( 20) -0.1811 ( 21)  0.1506 ( 22)  0.1569 ( 24)
           0.1446 ( 25)  0.1301 ( 29)  0.1261 ( 30) -0.1158 ( 33) -0.1706 ( 44)
          -0.1613 ( 45) -0.1714 ( 46) -0.1715 ( 47) -0.1623 ( 48)  0.1189 ( 54)
           0.2160 ( 58)  0.1506 ( 59)  0.1607 ( 60) -0.1277 ( 89)  0.1553 ( 92)
           0.1058 (100) -0.1014 (101)
 CRD 45=   0.3013 (  7) -0.2981 (  8)  0.1633 ( 14) -0.2170 ( 15) -0.1203 ( 18)
           0.1136 ( 21)  0.1136 ( 27) -0.1079 ( 42) -0.1350 ( 55)  0.1551 ( 56)
           0.1045 ( 63)  0.1565 ( 71) -0.1760 ( 76)  0.2710 ( 77)  0.2550 ( 78)
          -0.1664 ( 79) -0.2458 ( 81) -0.2036 ( 94) -0.2249 ( 95) -0.1744 ( 97)
          -0.1956 ( 98) -0.1291 (107)
 CRD 46=  -0.2103 (  1)  0.1441 (  3)  0.1523 (  6) -0.1247 (  8) -0.2076 (  9)
          -0.1941 ( 11)  0.1912 ( 14)  0.2513 ( 16)  0.1046 ( 17)  0.1216 ( 19)
          -0.1701 ( 20) -0.1210 ( 21) -0.1554 ( 28) -0.1512 ( 29) -0.1005 ( 30)
           0.1333 ( 37)  0.1394 ( 38)  0.1519 ( 40)  0.1448 ( 41) -0.1083 ( 49)
          -0.1569 ( 54) -0.1092 ( 57)  0.2013 ( 58) -0.1037 ( 73)  0.1082 ( 74)
          -0.1082 ( 76)  0.1037 ( 81) -0.1181 ( 91)  0.1067 ( 93) -0.2149 ( 97)
          -0.1264 (103) -0.2356 (105)  0.1082 (106)  0.1744 (107)
 CRD 47=   0.2109 (  2) -0.2424 (  4)  0.2233 ( 10) -0.2189 ( 12) -0.1705 ( 17)
           0.1787 ( 18) -0.1142 ( 21) -0.1147 ( 30) -0.1805 ( 76)  0.1389 ( 77)
           0.1482 ( 78)  0.1146 ( 80) -0.1843 ( 81)  0.1071 ( 86)  0.2292 ( 89)
           0.2274 ( 90)  0.1839 ( 91)  0.1820 ( 92) -0.1877 ( 99) -0.1933 (100)
          -0.1888 (101) -0.1943 (102)  0.1260 (104)  0.1080 (105)  0.1450 (107)
           0.1270 (108)
 CRD 48=   0.1272 (  2) -0.1824 (  4)  0.2334 (  6) -0.1428 (  7) -0.1645 (  9)
          -0.1209 ( 13)  0.2406 ( 15)  0.1488 ( 17) -0.2115 ( 18) -0.1514 ( 20)
           0.2388 ( 21) -0.1744 ( 27) -0.1348 ( 38) -0.1012 ( 41) -0.1523 ( 54)
           0.1238 ( 55) -0.1292 ( 59)  0.1695 ( 60) -0.1482 ( 71)  0.1096 ( 75)
          -0.1168 ( 81)  0.1919 ( 84)  0.2395 ( 95) -0.1413 ( 96)  0.1086 ( 99)
           0.1019 (103) -0.1416 (104) -0.2224 (107) -0.1466 (108)
 CRD 49=  -0.1419 (  2) -0.1602 (  3)  0.1380 (  4)  0.3008 (  6) -0.1816 (  9)
           0.1854 ( 11) -0.1414 ( 13)  0.2059 ( 14) -0.1654 ( 17) -0.1424 ( 19)
           0.2189 ( 20)  0.1332 ( 22) -0.1586 ( 28)  0.1274 ( 30) -0.1046 ( 33)
          -0.1462 ( 40) -0.1054 ( 45) -0.1703 ( 54)  0.1083 ( 57) -0.1240 ( 58)
           0.1524 ( 59)  0.1024 ( 71)  0.1346 ( 76) -0.1447 ( 84) -0.1037 ( 89)
           0.1257 ( 93)  0.1209 ( 95) -0.2151 ( 97)  0.2419 (105) -0.1384 (106)
 CRD 50=  -0.1104 (  1) -0.1292 (  2)  0.1976 (  3) -0.1072 (  4) -0.1922 (  9)
           0.1585 ( 10) -0.1140 ( 11)  0.1465 ( 12)  0.1686 ( 13)  0.2342 ( 16)
          -0.1032 ( 19)  0.1932 ( 51) -0.1520 ( 52) -0.2474 ( 53)  0.1580 ( 57)
           0.1045 ( 65)  0.1035 ( 66)  0.1155 ( 67) -0.1019 ( 68)  0.1013 ( 78)
          -0.1300 ( 85)  0.1160 ( 86) -0.1216 ( 87)  0.1182 ( 88)  0.2290 ( 89)
          -0.2345 ( 92) -0.1261 ( 95)  0.1244 ( 97)  0.2204 ( 99) -0.2232 (102)
 CRD 51=  -0.3479 (  1)  0.1385 (  2)  0.1504 (  3) -0.1464 (  6)  0.2175 (  9)
           0.1712 ( 11)  0.1321 ( 16) -0.1032 ( 18) -0.2306 ( 19)  0.1251 ( 21)
          -0.1586 ( 22) -0.1295 ( 30)  0.1189 ( 33)  0.1423 ( 37)  0.1376 ( 41)
          -0.1661 ( 51)  0.1063 ( 52)  0.1481 ( 57) -0.1379 ( 58)  0.1329 ( 60)
          -0.1762 ( 73)  0.1309 ( 74) -0.1656 ( 76) -0.1147 ( 78)  0.1415 ( 81)
           0.1193 ( 82) -0.1248 ( 83)  0.1068 ( 99) -0.1251 (102)  0.1562 (105)
          -0.1900 (107)
 CRD 52=  -0.1051 (  1)  0.1148 (  2) -0.1212 (  3)  0.1176 (  5)  0.1325 (  7)
           0.1199 (  8) -0.3279 (  9)  0.1912 ( 11) -0.1236 ( 12)  0.2421 ( 13)
          -0.1020 ( 16)  0.1795 ( 23) -0.1049 ( 28) -0.1376 ( 33)  0.1520 ( 42)
           0.1415 ( 43) -0.1033 ( 46) -0.1373 ( 51) -0.1925 ( 52)  0.1584 ( 53)
          -0.1497 ( 55) -0.1071 ( 56) -0.1583 ( 63)  0.1736 ( 66) -0.1202 ( 67)
           0.1015 ( 68)  0.1141 ( 69) -0.1219 ( 70) -0.1085 ( 73) -0.1674 ( 77)
           0.1645 ( 78) -0.1343 ( 89)  0.1731 ( 92) -0.1591 ( 95)  0.1348 ( 97)
          -0.1012 ( 98)
 CRD 53=  -0.1817 ( 10)  0.1429 ( 12) -0.2226 ( 14)  0.1995 ( 15)  0.2083 ( 20)
          -0.1734 ( 21)  0.1186 ( 34) -0.1009 ( 35) -0.1102 ( 47)  0.1484 ( 55)
          -0.1723 ( 56)  0.1628 ( 59) -0.1261 ( 60) -0.1484 ( 61) -0.1583 ( 62)
          -0.1917 ( 71)  0.1027 ( 72)  0.1055 ( 74)  0.1172 ( 75) -0.1796 ( 76)
           0.1434 ( 77)  0.1569 ( 78) -0.1005 ( 79) -0.1122 ( 81) -0.1878 ( 84)
          -0.2109 ( 93) -0.2205 ( 96) -0.1991 (103) -0.1816 (106)
 CRD 54=  -0.2769 (  1)  0.1989 (  3)  0.2785 ( 11) -0.2709 ( 16)  0.1866 ( 19)
           0.1677 ( 24)  0.1549 ( 25) -0.1516 ( 38) -0.1546 ( 40) -0.1519 ( 45)
          -0.1490 ( 46)  0.1578 ( 49)  0.1693 ( 50) -0.1025 ( 60)  0.1255 ( 64)
          -0.1356 ( 65) -0.1063 ( 82)  0.1136 ( 83) -0.1011 ( 85)  0.1022 ( 86)
          -0.1351 ( 87)  0.1307 ( 88)  0.1446 ( 90) -0.1554 ( 91)  0.2675 (100)
          -0.2594 (101)  0.1663 (104) -0.1624 (108)
 CRD 55=   0.1462 (  2) -0.1938 (  3)  0.1166 (  4) -0.1113 ( 17) -0.1197 ( 18)
           0.1863 ( 19) -0.1072 ( 21)  0.1576 ( 31) -0.1290 ( 39) -0.1562 ( 48)
          -0.2063 ( 51) -0.1291 ( 53)  0.1834 ( 57)  0.1523 ( 58) -0.1166 ( 68)
          -0.1109 ( 76) -0.1378 ( 82)  0.1455 ( 83)  0.1600 ( 85) -0.1388 ( 86)
          -0.2469 ( 90)  0.2627 ( 91)  0.1202 ( 99) -0.1143 (102)  0.1266 (103)
           0.2764 (104) -0.1435 (106) -0.2770 (108)
 CRD 56=   0.2499 (  6) -0.1946 (  7) -0.1261 (  8)  0.2207 ( 13) -0.1636 ( 15)
          -0.2246 ( 32)  0.1249 ( 35) -0.2033 ( 36)  0.2517 ( 52)  0.1783 ( 54)
          -0.1122 ( 55)  0.1117 ( 63) -0.1088 ( 66)  0.1308 ( 69) -0.2157 ( 70)
          -0.1313 ( 78)  0.2539 ( 93)  0.3639 ( 94) -0.1321 ( 96) -0.3685 ( 98)
 CRD 57=  -0.1498 (  2)  0.1465 (  4)  0.1023 (  7) -0.1683 (  8) -0.1849 ( 14)
           0.1362 ( 15) -0.1083 ( 17)  0.1259 ( 18) -0.1453 ( 20)  0.1562 ( 21)
           0.1414 ( 34) -0.1027 ( 35) -0.1045 ( 42)  0.1328 ( 43) -0.1149 ( 44)
           0.1087 ( 47)  0.1087 ( 49) -0.1061 ( 50)  0.1044 ( 55) -0.1367 ( 56)
          -0.1101 ( 59)  0.1153 ( 60)  0.1913 ( 61) -0.1842 ( 62)  0.1361 ( 67)
           0.1472 ( 68)  0.2013 ( 69)  0.1293 ( 70) -0.1284 ( 75) -0.1673 ( 79)
          -0.1446 ( 80) -0.1204 ( 82) -0.1346 ( 83) -0.1821 ( 93) -0.2616 ( 96)
           0.1982 (103)  0.2138 (106)
 CRD 58=   0.1608 (  1)  0.1052 (  3) -0.1469 ( 10)  0.2377 ( 11) -0.1394 ( 12)
           0.1301 ( 16) -0.1402 ( 17) -0.1304 ( 18) -0.2155 ( 26) -0.1368 ( 31)
          -0.2048 ( 39) -0.1174 ( 48)  0.1236 ( 51)  0.2191 ( 53)  0.2097 ( 57)
          -0.1370 ( 64)  0.1283 ( 65) -0.1249 ( 67)  0.1425 ( 68)  0.1425 ( 87)
          -0.1296 ( 88)  0.2236 ( 90) -0.2404 ( 91) -0.2683 (100)  0.2691 (101)
           0.1315 (103)  0.2061 (104) -0.1176 (106) -0.2070 (108)
 CRD 59=   0.1171 (  7) -0.1222 (  8)  0.1226 ( 10) -0.1326 ( 12)  0.1547 ( 17)
          -0.1569 ( 18)  0.1019 ( 27) -0.1238 ( 38)  0.1248 ( 40)  0.1189 ( 45)
          -0.1157 ( 46) -0.1087 ( 49)  0.1089 ( 50)  0.1558 ( 63)  0.1716 ( 64)
           0.1744 ( 65)  0.1497 ( 66)  0.1667 ( 69)  0.1634 ( 70) -0.1638 ( 72)
          -0.1172 ( 73) -0.1443 ( 74) -0.1599 ( 75)  0.1250 ( 76) -0.2602 ( 80)
           0.2016 ( 82)  0.2040 ( 83) -0.1490 ( 85) -0.1428 ( 86) -0.2057 ( 87)
          -0.2165 ( 88) -0.1222 ( 93) -0.1252 ( 96) -0.1696 (103) -0.1721 (106)
 CRD 60=  -0.1238 (  2)  0.1439 (  4)  0.1160 ( 10) -0.1166 ( 12) -0.1045 ( 24)
           0.1072 ( 25) -0.1223 ( 29)  0.1069 ( 30) -0.1058 ( 37)  0.1117 ( 41)
          -0.2089 ( 63)  0.1788 ( 64)  0.1763 ( 65) -0.2054 ( 66)  0.2161 ( 67)
           0.2179 ( 68) -0.1382 ( 69) -0.1372 ( 70)  0.2024 ( 73)  0.2276 ( 74)
          -0.1193 ( 76)  0.1136 ( 77)  0.1170 ( 78) -0.3201 ( 79)  0.2489 ( 80)
           0.1169 ( 82)  0.1172 ( 83) -0.1778 ( 85) -0.1907 ( 86) -0.1336 ( 87)
          -0.1326 ( 88)

 THE DETERMINANT OF THE G MATRIX IS 10**(   -23)


                     --------------------
                     INTERNAL COORDINATES
                     --------------------

                 - - ATOMS - -         COORDINATE      COORDINATE
 NO.   TYPE    I  J  K  L  M  N        (BOHR,RAD)       (ANG,DEG)
 ----------------------------------------------------------------
   1 STRETCH   1  5                     2.8852941       1.5268320
   2 STRETCH   1  9                     2.0694644       1.0951135
   3 STRETCH   1  2                     2.8758209       1.5218190
   4 STRETCH   1 10                     2.0697087       1.0952427
   5 STRETCH   2  4                     2.3235293       1.2295589
   6 STRETCH   2  3                     2.8728404       1.5202418
   7 STRETCH   3 12                     2.0682231       1.0944566
   8 STRETCH   3 11                     2.0700933       1.0954463
   9 STRETCH   3  6                     2.8681440       1.5177565
  10 STRETCH   5 13                     2.0734982       1.0972481
  11 STRETCH   5  7                     2.8880447       1.5282876
  12 STRETCH   5 14                     2.0738010       1.0974083
  13 STRETCH   6 16                     2.0677398       1.0942008
  14 STRETCH   6 15                     2.0690432       1.0948906
  15 STRETCH   6 17                     2.0695510       1.0951593
  16 STRETCH   7  8                     2.8732520       1.5204596
  17 STRETCH   7 19                     2.0707299       1.0957832
  18 STRETCH   7 18                     2.0709864       1.0959189
  19 STRETCH   8 22                     2.0683897       1.0945448
  20 STRETCH   8 21                     2.0692051       1.0949763
  21 STRETCH   8 20                     2.0682608       1.0944766
  22 BEND      1  2  4                  2.1316223     122.1329632
  23 BEND      1  2  3                  2.0167727     115.5525616
  24 BEND      1  5 13                  1.9128122     109.5960648
  25 BEND      1  5 14                  1.9157460     109.7641607
  26 BEND      1  5  7                  1.9437108     111.3664236
  27 BEND      2  3 11                  1.8869535     108.1144698
  28 BEND      2  3 12                  1.8887461     108.2171799
  29 BEND      2  1 10                  1.8853910     108.0249471
  30 BEND      2  1  9                  1.8843294     107.9641223
  31 BEND      2  1  5                  1.9589681     112.2406016
  32 BEND      2  3  6                  1.9666621     112.6814353
  33 BEND      3  2  4                  2.1341383     122.2771163
  34 BEND      3  6 15                  1.9363287     110.9434612
  35 BEND      3  6 17                  1.9398463     111.1450050
  36 BEND      3  6 16                  1.9261130     110.3581454
  37 BEND      5  1 10                  1.9289677     110.5217055
  38 BEND      5  7 19                  1.9176365     109.8724761
  39 BEND      5  7  8                  1.9451944     111.4514313
  40 BEND      5  7 18                  1.9170449     109.8385804
  41 BEND      5  1  9                  1.9103400     109.4544214
  42 BEND      6  3 12                  1.9077013     109.3032327
  43 BEND      6  3 11                  1.9153031     109.7387837
  44 BEND      7  8 20                  1.9379146     111.0343264
  45 BEND      7  5 14                  1.9145850     109.6976398
  46 BEND      7  5 13                  1.9137545     109.6500569
  47 BEND      7  8 21                  1.9370537     110.9850005
  48 BEND      7  8 22                  1.9242351     110.2505487
  49 BEND      8  7 19                  1.9072978     109.2801152
  50 BEND      8  7 18                  1.9029016     109.0282298
  51 BEND      9  1 10                  1.8942026     108.5298129
  52 BEND     11  3 12                  1.8971284     108.6974523
  53 BEND     13  5 14                  1.8614259     106.6518466
  54 BEND     15  6 17                  1.8822106     107.8427219
  55 BEND     15  6 16                  1.8890102     108.2323097
  56 BEND     16  6 17                  1.8885871     108.2080727
  57 BEND     18  7 19                  1.8722399     107.2714468
  58 BEND     20  8 21                  1.8902098     108.3010444
  59 BEND     20  8 22                  1.8872675     108.1324600
  60 BEND     21  8 22                  1.8854947     108.0308888
  61 TORSION   1  5  7  8              -3.1135048    -178.3906836
  62 TORSION   1  2  3  6               3.0934275     177.2403377
  63 TORSION   1  2  3 12               0.9819417      56.2611141
  64 TORSION   1  5  7 18              -1.0026757     -57.4490851
  65 TORSION   1  5  7 19               1.0529100      60.3273002
  66 TORSION   1  2  3 11              -1.0699481     -61.3035106
  67 TORSION   2  1  5 14              -1.0975351     -62.8841315
  68 TORSION   2  1  5 13               0.9412939      53.9321654
  69 TORSION   2  3  6 17               1.0377921      59.4611083
  70 TORSION   2  3  6 15              -1.0563651     -60.5252612
  71 TORSION   2  3  6 16               3.1331855     179.5183040
  72 TORSION   2  1  5  7               3.0619521     175.4369341
  73 TORSION   3  2  1 10               1.2777705      73.2108570
  74 TORSION   3  2  1  9              -0.7674556     -43.9719645
  75 TORSION   3  2  1  5              -2.8744258    -164.6924693
  76 TORSION   4  2  1 10              -1.8258348    -104.6126293
  77 TORSION   4  2  3 12              -2.1976986    -125.9188531
  78 TORSION   4  2  3 11               2.0335969     116.5165222
  79 TORSION   4  2  1  5               0.3051541      17.4840444
  80 TORSION   4  2  3  6              -0.0862128      -4.9396295
  81 TORSION   4  2  1  9               2.4121244     138.2045493
  82 TORSION   5  7  8 20              -1.0608953     -60.7848238
  83 TORSION   5  7  8 21               1.0425607      59.7343298
  84 TORSION   5  7  8 22               3.1310400     179.3953773
  85 TORSION   7  5  1 10              -1.1152287     -63.8978976
  86 TORSION   7  5  1  9               0.9700639      55.5805647
  87 TORSION   8  7  5 14               1.0453082      59.8917494
  88 TORSION   8  7  5 13              -0.9933950     -56.9173419
  89 TORSION   9  1  5 14               3.0937619     177.2594991
  90 TORSION   9  1  5 13              -1.1505944     -65.9242039
  91 TORSION  10  1  5 14               1.0084693      57.7810368
  92 TORSION  10  1  5 13               3.0472983     174.5973338
  93 TORSION  11  3  6 16               1.0295597      58.9894229
  94 TORSION  11  3  6 17              -1.0658337     -61.0677727
  95 TORSION  11  3  6 15               3.1231944     178.9458578
  96 TORSION  12  3  6 16              -1.0493711     -60.1245378
  97 TORSION  12  3  6 17               3.1384208     179.8182665
  98 TORSION  12  3  6 15               1.0442636      59.8318970
  99 TORSION  13  5  7 19              -3.1101655    -178.1993581
 100 TORSION  13  5  7 18               1.1174341      64.0242566
 101 TORSION  14  5  7 19              -1.0714623     -61.3902669
 102 TORSION  14  5  7 18              -3.1270480    -179.1666522
 103 TORSION  18  7  8 22               1.0119643      57.9812833
 104 TORSION  18  7  8 21              -1.0765150     -61.6797641
 105 TORSION  18  7  8 20               3.1032143     177.8010823
 106 TORSION  19  7  8 22              -1.0293643     -58.9782306
 107 TORSION  19  7  8 21              -3.1178436    -178.6392781
 108 TORSION  19  7  8 20               1.0618857      60.8415683

     ------------------------------------------
     THE POINT GROUP IS C1 , NAXIS= 1, ORDER= 1
     ------------------------------------------

     DIMENSIONS OF THE SYMMETRY SUBSPACES ARE
 A   =  236

 ..... DONE SETTING UP THE RUN .....
 STEP CPU TIME =     0.02 TOTAL CPU TIME =        0.0 (    0.0 MIN)
 TOTAL WALL CLOCK TIME=        0.0 SECONDS, CPU UTILIZATION IS 100.00%


          -----------------------------
          STATIONARY POINT LOCATION RUN
          -----------------------------

 OBTAINING INITIAL HESSIAN, HESS=GUESS   
 DIAGONAL GUESS HESSIAN IN INTERNAL COORDS IS
     1  0.3694     2  0.3429     3  0.3731     4  0.3429     5  0.5317
     6  0.3742     7  0.3434     8  0.3427     9  0.3760    10  0.3415
    11  0.3684    12  0.3414    13  0.3436    14  0.3431    15  0.3429
    16  0.3740    17  0.3425    18  0.3424    19  0.3433    20  0.3430
    21  0.3434    22  0.2577    23  0.2498    24  0.2238    25  0.2238
    26  0.2488    27  0.2243    28  0.2244    29  0.2243    30  0.2243
    31  0.2493    32  0.2500    33  0.2578    34  0.2245    35  0.2245
    36  0.2246    37  0.2240    38  0.2238    39  0.2493    40  0.2238
    41  0.2240    42  0.2245    43  0.2245    44  0.2244    45  0.2237
    46  0.2237    47  0.2243    48  0.2244    49  0.2243    50  0.2243
    51  0.2029    52  0.2029    53  0.2027    54  0.2029    55  0.2029
    56  0.2029    57  0.2028    58  0.2029    59  0.2029    60  0.2029
    61  0.2500    62  0.2500    63  0.2500    64  0.2500    65  0.2500
    66  0.2500    67  0.2500    68  0.2500    69  0.2500    70  0.2500
    71  0.2500    72  0.2500    73  0.2500    74  0.2500    75  0.2500
    76  0.2500    77  0.2500    78  0.2500    79  0.2500    80  0.2500
    81  0.2500    82  0.2500    83  0.2500    84  0.2500    85  0.2500
    86  0.2500    87  0.2500    88  0.2500    89  0.2500    90  0.2500
    91  0.2500    92  0.2500    93  0.2500    94  0.2500    95  0.2500
    96  0.2500    97  0.2500    98  0.2500    99  0.2500   100  0.2500
   101  0.2500   102  0.2500   103  0.2500   104  0.2500   105  0.2500
   106  0.2500   107  0.2500   108  0.2500
 TRANSFORMING HESSIAN TO SYMMETRY COORDINATES

          PARAMETERS CONTROLLING GEOMETRY SEARCH ARE
          METHOD =QA                  UPHESS =BFGS    
          NNEG   =         0          NFRZ   =         3
          NSTEP  =        50          IFOLOW =         1
          HESS   =GUESS               RESTAR =         F
          IHREP  =         0          HSSEND =         F
          NPRT   =         0          NPUN   =         0
          OPTTOL = 5.000E-04          RMIN   = 1.500E-03
          RMAX   = 1.000E-01          RLIM   = 7.000E-02
          DXMAX  = 3.000E-01          PURIFY =         F
          MOVIE  =         F          TRUPD  =         T
          TRMAX  = 5.000E-01          TRMIN  = 5.000E-02
          ITBMAT =         5          STPT   =         F
          STSTEP = 1.000E-02          PROJCT=          F
          FROZEN COORD(S)=   1   2   3


      ***** EQUILIBRIUM GEOMETRY LOCATED *****
            (SUBJECT TO   3 CONSTRAINT(S))
 COORDINATES OF ALL ATOMS ARE (ANGS)
   ATOM   CHARGE       X              Y              Z
 ------------------------------------------------------------
 C           6.0   4.4968168802   2.7344085970   1.5651394774
 C           6.0   3.7381250962   3.1301939642   2.8114842720
 C           6.0   2.4094366165   2.4465422876   3.0424793714
 O           8.0   4.1655693425   3.9469377714   3.5735352797
 C           6.0   5.9619341000   3.1535409398   1.5854425020
 C           6.0   1.7508182453   2.8392362644   4.3571969817
 C           6.0   6.7269567301   2.6550974548   0.3621698138
 C           6.0   8.2089948152   3.0189581429   0.4081000999
 H           1.0   4.4067573731   1.6594831844   1.4332220119
 H           1.0   3.9746635638   3.1832065660   0.7201220715
 H           1.0   1.7696538663   2.6806710379   2.1933333453
 H           1.0   2.5795325808   1.3736393611   2.9961846164
 H           1.0   6.4275781445   2.7597442831   2.4861922071
 H           1.0   6.0313649287   4.2356101296   1.6506518251
 H           1.0   2.3868474827   2.5768684566   5.1962864664
 H           1.0   0.8023759118   2.3261968641   4.4746280473
 H           1.0   1.5709302995   3.9077729552   4.3973595697
 H           1.0   6.6244213377   1.5735803513   0.2936441782
 H           1.0   6.2755994727   3.0662996961  -0.5391707699
 H           1.0   8.3464452838   4.0968459527   0.4428281674
 H           1.0   8.6824488558   2.5952046977   1.2906122080
 H           1.0   8.7330131972   2.6419038509  -0.4652300927


                     --------------------
                     INTERNAL COORDINATES
                     --------------------

                 - - ATOMS - -         COORDINATE      COORDINATE
 NO.   TYPE    I  J  K  L  M  N        (BOHR,RAD)       (ANG,DEG)
 ----------------------------------------------------------------
   1 STRETCH   1  5                     2.8799899       1.5240251
   2 STRETCH   1  9                     2.0536180       1.0867279
   3 STRETCH   1  2                     2.8569474       1.5118315
   4 STRETCH   1 10                     2.0598170       1.0900083
   5 STRETCH   2  4                     2.2601792       1.1960354
   6 STRETCH   2  3                     2.8572703       1.5120025
   7 STRETCH   3 12                     2.0546776       1.0872886
   8 STRETCH   3 11                     2.0572748       1.0886630
   9 STRETCH   3  6                     2.8761537       1.5219951
  10 STRETCH   5 13                     2.0555930       1.0877731
  11 STRETCH   5  7                     2.8846044       1.5264670
  12 STRETCH   5 14                     2.0527214       1.0862535
  13 STRETCH   6 16                     2.0497581       1.0846854
  14 STRETCH   6 15                     2.0505410       1.0850996
  15 STRETCH   6 17                     2.0490620       1.0843170
  16 STRETCH   7  8                     2.8851240       1.5267420
  17 STRETCH   7 19                     2.0573081       1.0886806
  18 STRETCH   7 18                     2.0570156       1.0885258
  19 STRETCH   8 22                     2.0523075       1.0860345
  20 STRETCH   8 21                     2.0549876       1.0874527
  21 STRETCH   8 20                     2.0544553       1.0871710
  22 BEND      1  2  4                  2.1231398     121.6469486
  23 BEND      1  2  3                  2.0359621     116.6520357
  24 BEND      1  5 13                  1.8996882     108.8441152
  25 BEND      1  5 14                  1.9136798     109.6457784
  26 BEND      1  5  7                  1.9620224     112.4156018
  27 BEND      2  3 11                  1.8755161     107.4591550
  28 BEND      2  3 12                  1.8777844     107.5891227
  29 BEND      2  1 10                  1.8659797     106.9127623
  30 BEND      2  1  9                  1.8938180     108.5077758
  31 BEND      2  1  5                  1.9817231     113.5443670
  32 BEND      2  3  6                  1.9774925     113.3019760
  33 BEND      3  2  4                  2.1240729     121.7004119
  34 BEND      3  6 15                  1.9304394     110.6060299
  35 BEND      3  6 17                  1.9369678     110.9800776
  36 BEND      3  6 16                  1.9282205     110.4788946
  37 BEND      5  1 10                  1.9365068     110.9536649
  38 BEND      5  7 19                  1.9095999     109.4120154
  39 BEND      5  7  8                  1.9655359     112.6169106
  40 BEND      5  7 18                  1.9046344     109.1275139
  41 BEND      5  1  9                  1.9319096     110.6902664
  42 BEND      6  3 12                  1.9380735     111.0434308
  43 BEND      6  3 11                  1.9433212     111.3441054
  44 BEND      7  8 20                  1.9390411     111.0988728
  45 BEND      7  5 14                  1.9191493     109.9591538
  46 BEND      7  5 13                  1.9079935     109.3199773
  47 BEND      7  8 21                  1.9328289     110.7429373
  48 BEND      7  8 22                  1.9406121     111.1888810
  49 BEND      8  7 19                  1.9148879     109.7149948
  50 BEND      8  7 18                  1.9072299     109.2762240
  51 BEND      9  1 10                  1.8477863     105.8703585
  52 BEND     11  3 12                  1.8451672     105.7202934
  53 BEND     13  5 14                  1.8582956     106.4724977
  54 BEND     15  6 17                  1.8827015     107.8708480
  55 BEND     15  6 16                  1.8906662     108.3271945
  56 BEND     16  6 17                  1.8933919     108.4833654
  57 BEND     18  7 19                  1.8588662     106.5051866
  58 BEND     20  8 21                  1.8811335     107.7810096
  59 BEND     20  8 22                  1.8848369     107.9932017
  60 BEND     21  8 22                  1.8830823     107.8926702
  61 TORSION   1  5  7  8              -3.0969195    -177.4404160
  62 TORSION   1  2  3  6               3.0818843     176.5789642
  63 TORSION   1  2  3 12               0.9326947      53.4394694
  64 TORSION   1  5  7 18              -0.9757448     -55.9060575
  65 TORSION   1  5  7 19               1.0518130      60.2644457
  66 TORSION   1  2  3 11              -1.0470674     -59.9925434
  67 TORSION   2  1  5 14              -1.0726863     -61.4603949
  68 TORSION   2  1  5 13               0.9536722      54.6413918
  69 TORSION   2  3  6 17               1.0377651      59.4595631
  70 TORSION   2  3  6 15              -1.0512185     -60.2303825
  71 TORSION   2  3  6 16               3.1387036     179.8344692
  72 TORSION   2  1  5  7               3.0700675     175.9019129
  73 TORSION   3  2  1 10               1.2779454      73.2208803
  74 TORSION   3  2  1  9              -0.7078596     -40.5573659
  75 TORSION   3  2  1  5              -2.8637526    -164.0809380
  76 TORSION   4  2  1 10              -1.8587925    -106.5009626
  77 TORSION   4  2  3 12              -2.2137555    -126.8388479
  78 TORSION   4  2  3 11               2.0896677     119.7291393
  79 TORSION   4  2  1  5               0.2826948      16.1972191
  80 TORSION   4  2  3  6              -0.0645659      -3.6993531
  81 TORSION   4  2  1  9               2.4385878     139.7207912
  82 TORSION   5  7  8 20              -1.0554756     -60.4742949
  83 TORSION   5  7  8 21               1.0344689      59.2707030
  84 TORSION   5  7  8 22               3.1279001     179.2154727
  85 TORSION   7  5  1 10              -1.1110123     -63.6563154
  86 TORSION   7  5  1  9               0.9351228      53.5785908
  87 TORSION   8  7  5 14               1.0489198      60.0986754
  88 TORSION   8  7  5 13              -0.9852824     -56.4525209
  89 TORSION   9  1  5 14               3.0755543     176.2162830
  90 TORSION   9  1  5 13              -1.1812725     -67.6819303
  91 TORSION  10  1  5 14               1.0294192      58.9813767
  92 TORSION  10  1  5 13               3.0557777     175.0831635
  93 TORSION  11  3  6 16               1.0221846      58.5668633
  94 TORSION  11  3  6 17              -1.0787539     -61.8080428
  95 TORSION  11  3  6 15               3.1154478     178.5020116
  96 TORSION  12  3  6 16              -1.0288862     -58.9508349
  97 TORSION  12  3  6 17              -3.1298246    -179.3257410
  98 TORSION  12  3  6 15               1.0643771      60.9843134
  99 TORSION  13  5  7 19              -3.1197352    -178.7476592
 100 TORSION  13  5  7 18               1.1358923      65.0818376
 101 TORSION  14  5  7 19              -1.0855331     -62.1964629
 102 TORSION  14  5  7 18              -3.1130908    -178.3669661
 103 TORSION  18  7  8 22               1.0082009      57.7656570
 104 TORSION  18  7  8 21              -1.0852302     -62.1791128
 105 TORSION  18  7  8 20               3.1080106     178.0758893
 106 TORSION  19  7  8 22              -1.0238154     -58.6603002
 107 TORSION  19  7  8 21              -3.1172465    -178.6050699
 108 TORSION  19  7  8 20               1.0759943      61.6499322

          INTERNUCLEAR DISTANCES (ANGS.)


 =====================================================
   GAMESS/COSab RESULTS
 =====================================================

   Dielectric Constant                  = INFTY
   Basic Grid Size                      =                 1082
   Number of Segments                   =                   92
   Number of Segments located on spheres=                  301
   Number of Segments of the cavity     =                  803
   Solvent Radius (rsolv)               = 1.40
   Outlying Charge Error Method         = double cavity

 =====================================================

  Total solvated Energy (a.u.)          =  -348.2011916597
  Total Energy corrected (a.u.)         =  -348.2008314542

  Outlying charge effect (a.u.)         =     0.0003602055
  Outlying charge effect (kcal/mol)     =     0.2260325600

  Dielectric Energy (a.u.)              =    -0.0127559740
  Dielectric energy corr. (a.u.)        =    -0.0123957685

  Sum of polarization charges           =     0.0280002939
  Sum of polarization charges(cor.)     =    -0.0280002939

  Total surface area of cavity (A**2)   =  177.72
  Total volume of cavity (A**3)         =  171.38

 =====================================================
 NPS=                   803
NR.  ATOM  (X, Y, Z)(a.u.)                  CHARGE(e)  AREA(A**2) SIGMA(e/A**2)
   1   1   7.574002   3.732314  -0.414536   0.000796   0.325193   0.002448
   2   1   7.930874   8.783754   2.017466  -0.000115   0.092912  -0.001238
   3   1   7.328140   8.619835   1.959631  -0.000146   0.046456  -0.003145
   4   1   7.599764   2.967728   0.018314   0.000540   0.278737   0.001936
   5   1   9.988554   2.174553   4.719886  -0.000132   0.185824  -0.000708
   6   1   9.683648   2.501477   5.360057  -0.000179   0.092912  -0.001927
   7   1   5.777417   3.727434   0.764309   0.000176   0.232280   0.000758
   8   1   6.525720   3.525270   0.182944   0.000945   0.325193   0.002905
   9   1   8.070850   8.690523   1.658158  -0.000040   0.046456  -0.000865
  10   1   6.199147   2.976276   0.908246   0.000154   0.139368   0.001108
  11   1   9.450474   2.142782   5.014134  -0.000130   0.046456  -0.002805
  12   2   8.442408   2.539921   6.308841  -0.000357   0.046456  -0.007692
  13   2   5.759571   9.250090   4.104155  -0.000262   0.139368  -0.001880
  14   2   8.556189   4.002387   8.211012  -0.000353   0.185824  -0.001899
  15   2   6.560182   9.376851   3.882070  -0.000167   0.185824  -0.000899
  16   2   8.340898   3.344904   7.772088  -0.001090   0.185824  -0.005868
  17   2   8.442253   2.920991   7.162116  -0.001516   0.185824  -0.008161
  18   2   8.841477   2.900320   6.739624  -0.001604   0.185824  -0.008633
  19   2   6.021205   8.956022   3.325429  -0.001642   0.325193  -0.005051
  20   2   4.972440   8.919580   4.373148  -0.001753   0.418105  -0.004192
  21   2   5.093777   8.386330   3.240285  -0.002315   0.325193  -0.007119
  22   2   9.230905   3.833623   7.605520  -0.001436   0.325193  -0.004415
  23   2   7.193560   9.253307   3.545300  -0.000003   0.139368  -0.000019
  24   3   2.399322   1.878048   4.297262   0.000622   0.325193   0.001912
  25   3   6.669398   2.414855   7.969515  -0.000255   0.139368  -0.001828
  26   3   6.821178   2.123712   7.450198  -0.000136   0.046456  -0.002925
  27   3   0.899599   4.243698   4.859740  -0.000145   0.092912  -0.001564
  28   3   2.363383   2.537980   3.482169   0.000523   0.278737   0.001878
  29   3   2.732957   7.735761   4.616502  -0.000153   0.185824  -0.000824
  30   3   3.439461   8.065731   4.656990  -0.000088   0.092912  -0.000952
  31   3   3.998456   2.281598   2.835174   0.000297   0.232280   0.001279
  32   3   3.239567   1.981380   3.387458   0.000933   0.325193   0.002869
  33   3   1.761169   2.302319   4.699644   0.000423   0.325193   0.001299
  34   3   1.235668   2.937659   5.088315   0.000108   0.139368   0.000776
  35   3   2.277197   1.608249   5.632132   0.000112   0.185824   0.000601
  36   3   2.438789   1.583470   6.506540  -0.000135   0.092912  -0.001454
  37   3   6.238565   2.101957   8.004805  -0.000046   0.046456  -0.000983
  38   3   1.312599   3.168508   4.458493   0.000044   0.232280   0.000188
  39   3   3.706249   2.806980   2.545082   0.000098   0.139368   0.000705
  40   3   3.204440   7.810270   4.230141  -0.000104   0.046456  -0.002247
  41   3   1.798943   2.035235   5.727269   0.000004   0.185824   0.000023
  42   4   8.949570   9.677968   8.869033   0.005293   0.377948   0.014004
  43   4   8.688355   7.228623   9.890675   0.003150   0.206154   0.015279
  44   4   7.151865  10.578644   6.194539   0.004192   0.343589   0.012202
  45   4  10.599441   7.250194   8.508298   0.002478   0.171795   0.014424
  46   4   8.819312   8.722597   9.593647   0.005829   0.412307   0.014138
  47   4   8.227171   7.818943   9.963699   0.004427   0.274871   0.016105
  48   4   7.898167   9.645797   9.157228   0.005088   0.343589   0.014808
  49   4   6.978831   9.522616   9.099767   0.005565   0.309230   0.017995
  50   4   8.376102  10.386492   8.071316   0.005672   0.412307   0.013757
  51   4   7.940290  10.696646   7.027256   0.004933   0.377948   0.013052
  52   4   9.628025   9.930299   7.923947   0.005644   0.377948   0.014932
  53   4   9.975609   9.925910   6.978971   0.004733   0.240512   0.019679
  54   4   9.931996   8.932797   8.789423   0.006332   0.446666   0.014176
  55   4  10.369154   7.864854   8.793286   0.003408   0.240512   0.014170
  56   4   6.544956  10.050329   8.197760   0.003411   0.206154   0.016545
  57   4   6.574121  10.411258   7.156413   0.004927   0.343589   0.014341
  58   4   8.262916  10.567334   5.888365   0.004404   0.309230   0.014243
  59   4   9.203279  10.369807   6.190164   0.004113   0.240512   0.017101
  60   4  10.762934   8.229246   8.022655   0.004130   0.240512   0.017173
  61   4  10.096600   6.645068   8.978524   0.003587   0.274871   0.013049
  62   4   9.099958   6.558241   9.624510   0.004838   0.343589   0.014080
  63   4   6.298213  10.111723   5.728490   0.003002   0.274871   0.010920
  64   4   7.292090  10.209224   5.121190   0.003658   0.309230   0.011829
  65   4  10.097556   5.945133   8.575059   0.002056   0.137436   0.014962
  66   4   8.986194   5.735064   9.273334   0.002101   0.171795   0.012232
  67   4   7.584522   8.626406   9.772686   0.006524   0.343589   0.018987
  68   4   7.295467  10.366201   8.086635   0.004829   0.343589   0.014055
  69   4   9.036943  10.479553   7.037721   0.003947   0.274871   0.014359
  70   4  10.492374   9.132143   7.699827   0.006575   0.343589   0.019137
  71   4   9.623116   7.748604   9.475761   0.005444   0.412307   0.013204
  72   4   6.001857  10.098975   6.442156   0.002107   0.171795   0.012264
  73   4   8.156003  10.248634   5.109923   0.002156   0.171795   0.012548
  74   4   9.493307   5.597770   8.867832   0.003152   0.274871   0.011466
  75   5  10.123412   8.702398   0.660799   0.000120   0.092912   0.001288
  76   5  10.706675   8.925214   0.721296   0.000038   0.046456   0.000824
  77   5  12.824755   7.735461   5.945840   0.000795   0.139368   0.005703
  78   5  11.622570   2.520291   4.522608   0.000095   0.139368   0.000684
  79   5  13.684855   8.075926   4.984895   0.001040   0.232280   0.004479
  80   5  12.985069   8.190062   5.516843   0.001094   0.232280   0.004710
  81   5   9.945220   8.866794   0.974820   0.000054   0.046456   0.001152
  82   5  13.640015   7.413626   5.552488   0.000534   0.139368   0.003832
  83   5  12.118177   2.500712   4.259649   0.000058   0.046456   0.001256
  84   6   4.411277   8.028043  10.679005   0.001026   0.232280   0.004417
  85   6   1.661107   5.736562  11.615071   0.000738   0.371649   0.001987
  86   6   2.465746   2.320300  10.307875   0.001613   0.371649   0.004341
  87   6   0.639452   7.267101   6.351482   0.001127   0.418105   0.002695
  88   6   0.306929   7.521110   7.441936   0.000860   0.232280   0.003701
  89   6   0.253028   6.137329   6.147760   0.000464   0.232280   0.001999
  90   6  -0.092341   6.122869   6.769579   0.000674   0.232280   0.002903
  91   6   3.222442   2.596063  10.804446   0.001145   0.278737   0.004109
  92   6   2.670608   5.348016  11.959077   0.001056   0.418105   0.002526
  93   6   4.753727   7.432766  11.048453   0.000964   0.278737   0.003458
  94   6   0.073204   7.215793   8.860475   0.001771   0.371649   0.004765
  95   6  -0.239361   6.582298   8.698133   0.000943   0.232280   0.004059
  96   6   3.606873   7.631238  11.244077   0.001314   0.325193   0.004040
  97   6   2.572259   6.729472  11.680833   0.001036   0.418105   0.002478
  98   6   1.681642   4.619184  11.562642   0.001276   0.371649   0.003434
  99   6   2.193386   3.150263  11.085890   0.001299   0.278737   0.004661
 100   6   3.593381   1.949560   9.826164   0.000994   0.325193   0.003057
 101   6   4.143456   1.810568   9.208852   0.000273   0.139368   0.001962
 102   6   0.794381   7.354536  10.235484   0.001210   0.371649   0.003257
 103   6   1.294112   6.752884  11.115049   0.001007   0.464561   0.002169
 104   6   0.763539   5.545598  11.022189   0.000746   0.325193   0.002295
 105   6   2.503826   1.833135   9.310872   0.000772   0.278737   0.002771
 106   6   2.381850   1.702629   8.135517   0.000171   0.185824   0.000921
 107   6   1.414287   7.748495   5.994101   0.000225   0.185824   0.001211
 108   6  -0.125615   6.748808   7.474477   0.001555   0.371649   0.004184
 109   6   0.133104   5.130032   6.197911   0.000197   0.139368   0.001415
 110   6   4.705064   2.148795   9.643740   0.000293   0.185824   0.001576
 111   6   2.419522   3.869433  11.588892   0.001120   0.278737   0.004017
 112   6   3.534132   6.771645  11.734728   0.000874   0.278737   0.003137
 113   6   0.230593   6.411576  10.161527   0.001400   0.418105   0.003348
 114   6   2.280230   7.637690  11.073507   0.000890   0.371649   0.002394
 115   6   1.465095   3.813054  11.145275   0.000546   0.185824   0.002937
 116   6   3.086001   1.642526   8.846323   0.000412   0.232280   0.001774
 117   7  12.081389   3.393856  -2.669788   0.001703   0.371649   0.004581
 118   7  12.282698   8.572860  -0.523305   0.000166   0.092912   0.001789
 119   7  11.682121   8.414885  -0.611928   0.000045   0.046456   0.000977
 120   7  11.971825   2.644182  -2.162369   0.001376   0.278737   0.004938
 121   7  13.956646   2.091163   2.727077   0.000220   0.139368   0.001578
 122   7  10.118612   3.479348  -1.594294   0.000968   0.232280   0.004168
 123   7  10.900443   3.227927  -2.108435   0.001755   0.325193   0.005398
 124   7  13.253785   2.989155  -2.458383   0.001362   0.418105   0.003256
 125   7  13.189245   4.162877  -2.966135   0.000960   0.325193   0.002952
 126   7  12.444837   8.454122  -0.865357   0.000091   0.046456   0.001961
 127   7  13.842406   2.360884  -1.754786   0.000385   0.185824   0.002070
 128   7  10.514511   2.732777  -1.373594   0.000597   0.139368   0.004282
 129   7  13.462484   2.119724   2.991926   0.000079   0.046456   0.001691
 130   8  18.788992   3.825942   0.911129   0.002220   0.418105   0.005310
 131   8  15.111357   7.820359  -2.334982   0.000864   0.278737   0.003101
 132   8  18.229257   7.136771   2.974575   0.001857   0.418105   0.004442
 133   8  18.593451   7.022316  -0.977554   0.001427   0.371649   0.003840
 134   8  15.908405   2.214872  -0.624037   0.000629   0.278737   0.002258
 135   8  16.059662   2.124107   1.849323   0.000673   0.232280   0.002896
 136   8  16.350390   2.019610   0.748942   0.001000   0.325193   0.003075
 137   8  17.502290   2.493316   0.666195   0.001270   0.278737   0.004555
 138   8  18.101345   7.981346  -0.778516   0.001539   0.371649   0.004140
 139   8  17.833981   7.976039   2.704725   0.001178   0.278737   0.004226
 140   8  15.810292   8.173742   3.617439   0.000442   0.139368   0.003172
 141   8  15.477534   8.462600  -1.813104   0.000593   0.185824   0.003194
 142   8  18.037695   2.941126   1.290687   0.001044   0.232280   0.004496
 143   8  18.093974   2.983887   0.305340   0.001257   0.278737   0.004508
 144   8  16.211185   7.460564   4.044498   0.001318   0.278737   0.004727
 145   8  17.194074   7.342281   3.733755   0.001389   0.278737   0.004982
 146   8  18.740472   7.407345   1.755095   0.001458   0.464561   0.003139
 147   8  18.931030   7.215068   0.206179   0.001335   0.464561   0.002874
 148   8  17.561635   7.590446  -1.784451   0.001903   0.371649   0.005120
 149   8  15.950883   7.688268  -2.416102   0.000895   0.232280   0.003855
 150   8  15.270842   6.783501  -2.843012   0.001221   0.371649   0.003284
 151   8  18.967444   6.205060   2.220078   0.001218   0.418105   0.002914
 152   8  19.171334   5.012808   1.419146   0.001455   0.418105   0.003480
 153   8  19.161793   4.857206   0.271286   0.001621   0.464561   0.003490
 154   8  19.092677   6.103709  -0.373059   0.000914   0.325193   0.002810
 155   8  16.893617   2.255641   1.463557   0.000806   0.232280   0.003470
 156   8  16.718091   2.228724  -0.093019   0.000816   0.232280   0.003512
 157   8  18.573401   7.922251   0.791768   0.000760   0.278737   0.002726
 158   8  16.765714   7.985636   3.512197   0.000898   0.185824   0.004832
 159   8  14.580222   8.445366  -1.658827   0.000646   0.232280   0.002781
 160   8  16.652838   8.227478  -1.802030   0.001474   0.325193   0.004532
 161   8  14.863013   5.825458  -2.950029   0.000126   0.092912   0.001359
 162   8  19.248377   6.245221   0.964715   0.001112   0.464561   0.002393
 163   8  16.551741   7.297696  -2.494993   0.001002   0.232280   0.004314
 164   9   8.400378   0.749118   2.131599  -0.002296   0.333671  -0.006881
 165   9   9.457209   1.239370   3.786300  -0.001472   0.294415  -0.005000
 166   9   7.621227   1.769523   0.792936  -0.001192   0.333671  -0.003572
 167   9   8.594980   0.937209   3.770941  -0.002440   0.353299  -0.006906
 168   9   9.121403   0.813430   2.811763  -0.002107   0.294415  -0.007155
 169   9   8.284857   1.130899   1.289618  -0.002319   0.333671  -0.006950
 170   9   6.942665   1.445395   1.586308  -0.002580   0.451437  -0.005716
 171   9   7.647390   0.777161   2.616521  -0.002715   0.333671  -0.008136
 172  10   6.084371   6.984515  -0.388610  -0.002512   0.353299  -0.007111
 173  10   7.634300   8.087286   0.046619  -0.002406   0.372926  -0.006453
 174  10   6.666417   8.270536   0.875007  -0.002065   0.392554  -0.005260
 175  10   5.890509   5.183742  -0.287618  -0.001487   0.353299  -0.004210
 176  10   6.974825   5.204854  -0.895416  -0.001659   0.333671  -0.004972
 177  10   6.693334   7.802053  -0.113723  -0.001942   0.294415  -0.006595
 178  10   5.686384   7.465039   0.583485  -0.003071   0.412182  -0.007452
 179  10   5.522513   6.131567  -0.077015  -0.002496   0.333671  -0.007481
 180  10   6.631794   6.088298  -0.931930  -0.002683   0.392554  -0.006836
 181  10   7.255443   7.094656  -0.831195  -0.003027   0.372926  -0.008118
 182  11   1.787363   5.420495   2.277820  -0.002543   0.353299  -0.007199
 183  11   2.896462   7.000404   2.698539  -0.002464   0.353299  -0.006976
 184  11   1.992335   7.017311   3.513146  -0.001778   0.372926  -0.004767
 185  11   0.930016   4.988912   3.696335  -0.001850   0.333671  -0.005546
 186  11   2.133340   3.760951   2.451705  -0.001629   0.372926  -0.004368
 187  11   2.061141   6.431426   2.556147  -0.002266   0.333671  -0.006792
 188  11   1.202941   6.053521   3.455925  -0.002572   0.451437  -0.005698
 189  11   1.403345   4.711832   2.680869  -0.002109   0.314043  -0.006717
 190  11   2.798324   4.275884   1.883541  -0.002929   0.451437  -0.006488
 191  11   2.705342   5.642419   1.843840  -0.003283   0.392554  -0.008363
 192  11   1.304580   3.986474   3.301925  -0.001126   0.294415  -0.003824
 193  12   4.828912   0.141015   5.745574  -0.002977   0.412182  -0.007223
 194  12   4.810245   0.608175   7.104284  -0.001733   0.314043  -0.005519
 195  12   6.538561   1.045636   6.591114  -0.002153   0.372926  -0.005774
 196  12   4.352005   0.864340   3.999444  -0.001623   0.353299  -0.004594
 197  12   3.395317   0.639141   5.797084  -0.001723   0.372926  -0.004621
 198  12   5.710016   0.748920   7.049841  -0.002166   0.392554  -0.005518
 199  12   6.014384   0.421328   5.749300  -0.002997   0.392554  -0.007635
 200  12   5.197700   0.371800   4.669761  -0.003033   0.392554  -0.007727
 201  12   3.768945   0.569635   4.821002  -0.001900   0.412182  -0.004610
 202  12   4.024113   0.461922   6.532767  -0.001810   0.353299  -0.005122
 203  13  13.115852   4.221188   6.724840  -0.001517   0.333671  -0.004545
 204  13  12.113988   3.024935   5.810399  -0.001102   0.372926  -0.002956
 205  13  13.339080   6.273028   6.567293  -0.000672   0.333671  -0.002014
 206  13  13.196925   3.195955   5.622463  -0.001805   0.471065  -0.003831
 207  13  12.212395   3.770941   6.684406  -0.001973   0.392554  -0.005027
 208  13  12.694515   5.130406   7.091422  -0.001859   0.412182  -0.004510
 209  13  13.877876   5.507563   6.416202  -0.001663   0.412182  -0.004034
 210  13  13.816285   4.232963   6.208766  -0.001597   0.294415  -0.005424
 211  14  11.802006  10.423849   3.247931  -0.001597   0.333671  -0.004786
 212  14  10.030025   9.984723   2.627313  -0.001224   0.294415  -0.004156
 213  14  11.282189   9.784655   1.430641  -0.000791   0.274788  -0.002879
 214  14  12.664764   9.503392   4.596336  -0.000754   0.314043  -0.002402
 215  14  10.602849  10.018951   1.960000  -0.001000   0.353299  -0.002831
 216  14  11.866416  10.259570   2.265856  -0.001898   0.372926  -0.005088
 217  14  12.747506   9.983970   3.660734  -0.001466   0.314043  -0.004669
 218  14  11.844139  10.065725   4.378477  -0.001571   0.353299  -0.004446
 219  14  10.862917  10.393377   3.321037  -0.001895   0.353299  -0.005365
 220  15   5.740064   4.125986  11.812120  -0.002649   0.471065  -0.005623
 221  15   5.480644   6.196500  11.645261  -0.000885   0.333671  -0.002652
 222  15   5.964596   2.967183  10.368668  -0.001275   0.353299  -0.003610
 223  15   4.339108   3.198742  11.612329  -0.000810   0.372926  -0.002173
 224  15   4.155041   5.056284  12.243175  -0.000731   0.333671  -0.002190
 225  15   6.317235   5.166855  11.457356  -0.002396   0.431809  -0.005548
 226  15   6.556193   3.923848  10.797185  -0.002487   0.431809  -0.005759
 227  15   5.318805   2.956770  11.132137  -0.001680   0.451437  -0.003721
 228  15   4.475613   4.054021  12.136615  -0.001675   0.431809  -0.003880
 229  15   5.122782   5.423067  12.133398  -0.001752   0.451437  -0.003881
 230  16  -0.660579   3.299712   8.763727  -0.003786   0.608459  -0.006222
 231  16  -0.108904   3.032305   7.217040  -0.001405   0.353299  -0.003978
 232  16  -0.750107   4.896343   7.650755  -0.000822   0.333671  -0.002462
 233  16  -0.566619   4.920231   9.648153  -0.000947   0.353299  -0.002681
 234  16   0.500236   3.122288  10.294489  -0.000927   0.372926  -0.002485
 235  16   0.986680   2.003659   8.634510  -0.000901   0.353299  -0.002549
 236  16  -0.568589   3.923259   7.245417  -0.001917   0.490692  -0.003907
 237  16  -0.902825   4.771518   8.660546  -0.001944   0.490692  -0.003963
 238  16  -0.275033   3.939103  10.073728  -0.002106   0.510320  -0.004127
 239  16   0.403362   2.461411   9.482636  -0.002056   0.490692  -0.004189
 240  16   0.232261   2.364637   7.945446  -0.001984   0.490692  -0.004043
 241  17   2.385985   9.768936   8.412974  -0.002598   0.451437  -0.005756
 242  17   0.913519   8.724626   8.183239  -0.000749   0.372926  -0.002009
 243  17   2.127023   9.004339   6.665641  -0.001318   0.353299  -0.003732
 244  17   3.765728   9.188842   9.774217  -0.001011   0.353299  -0.002861
 245  17   1.948797   8.856502   9.991658  -0.001057   0.412182  -0.002565
 246  17   1.536061   9.195070   7.470100  -0.001635   0.431809  -0.003787
 247  17   2.922581   9.631732   7.318130  -0.002342   0.412182  -0.005682
 248  17   3.491340   9.752582   8.702991  -0.001931   0.353299  -0.005465
 249  17   2.813323   9.347421   9.778952  -0.001614   0.412182  -0.003915
 250  17   1.402022   9.121038   9.061941  -0.001887   0.471065  -0.004007
 251  18  12.527022   0.532598   0.278660  -0.001863   0.412182  -0.004519
 252  18  13.541355   1.043695   1.679107  -0.000827   0.412182  -0.002007
 253  18  13.689490   1.149669  -0.601216  -0.000909   0.372926  -0.002438
 254  18  11.848254   1.465884  -1.265188  -0.000324   0.353299  -0.000918
 255  18  12.502958   0.912468   1.891470  -0.001804   0.490692  -0.003676
 256  18  13.631509   0.783789   0.532872  -0.001263   0.412182  -0.003063
 257  18  12.783495   1.062614  -0.965868  -0.001150   0.431809  -0.002664
 258  18  11.279166   1.138552  -0.509039  -0.001672   0.490692  -0.003408
 259  18  11.696858   0.672246   0.807543  -0.001926   0.372926  -0.005164
 260  19  11.065896   6.750009  -3.138498  -0.002053   0.451437  -0.004548
 261  19  12.385822   7.404134  -2.798407  -0.000764   0.294415  -0.002595
 262  19  11.069401   8.041420  -1.620990  -0.000828   0.333671  -0.002482
 263  19  10.427773   4.828294  -2.766095  -0.000636   0.392554  -0.001619
 264  19  12.374133   5.428757  -3.392953  -0.000594   0.353299  -0.001681
 265  19  11.714674   7.846897  -2.361170  -0.001196   0.412182  -0.002902
 266  19  10.426110   7.298468  -2.330145  -0.001963   0.412182  -0.004762
 267  19  10.162821   5.923935  -2.791101  -0.001961   0.431809  -0.004542
 268  19  11.298106   5.271849  -3.352810  -0.001214   0.451437  -0.002689
 269  19  12.298589   6.468829  -3.339932  -0.001209   0.451437  -0.002679
 270  20  16.579135  10.045875   0.560795  -0.002015   0.412182  -0.004887
 271  20  14.659343   9.720376  -0.102165  -0.001570   0.412182  -0.003808
 272  20  15.623474   9.495579  -0.877100  -0.000589   0.314043  -0.001875
 273  20  17.514161   9.330331   0.145018  -0.000957   0.392554  -0.002437
 274  20  17.064503   9.245205   2.288011  -0.000626   0.333671  -0.001877
 275  20  15.973304   9.457593   2.583610  -0.001062   0.353299  -0.003007
 276  20  15.585545  10.073134   0.084780  -0.001449   0.333671  -0.004344
 277  20  16.712261   9.442850  -0.666081  -0.000962   0.412182  -0.002333
[...]
 544   5  10.960366   8.443711   0.022850   0.000012   0.028064   0.000429
 545   7  11.199262   8.317420  -0.395126  -0.000007   0.028064  -0.000234
 546  19  11.127136   8.207895  -0.669455  -0.000040   0.028064  -0.001439
 547   7  11.365532   8.489933  -0.218043   0.000104   0.074375   0.001402
 548   5  11.083060   8.759217   0.385838   0.000099   0.074375   0.001325
 549   7  12.996444   2.270359   3.336232   0.000117   0.092908   0.001257
 550   5  12.545269   2.457431   3.868108   0.000102   0.092908   0.001096
 551   5  14.363662   6.710696   5.101883   0.000111   0.067871   0.001636
 552   8  15.063653   6.638352   4.646704   0.000188   0.067871   0.002764
 553  13  14.320641   6.467909   5.281937  -0.000068   0.067871  -0.001003
 554   5  13.901062   8.521002   4.030996   0.000123   0.065635   0.001876
 555   8  14.607612   8.415112   3.593108   0.000175   0.065635   0.002659
 556  14  13.725911   8.754044   3.943467  -0.000083   0.065635  -0.001268
 557   8  15.274142   7.778197   3.967467   0.001161   0.538632   0.002155
 558   5  14.297396   7.519166   4.713980   0.001139   0.538632   0.002115
 559   5  11.298665   2.119079   3.391012  -0.000267   0.166564  -0.001601
 560   9  10.614698   1.823338   3.243767  -0.000625   0.166564  -0.003755
 561  18  11.549857   1.786350   2.763847  -0.000352   0.166564  -0.002112
 562   9  10.162233   1.692795   3.678387  -0.000338   0.074079  -0.004569
 563   5  11.137079   2.175247   3.969670   0.000057   0.104454   0.000542
 564   5   9.757209   7.992926   0.093215  -0.000205   0.167640  -0.001224
 565  10   9.039093   7.771392  -0.030476  -0.000677   0.167640  -0.004039
 566  19  10.011874   7.722898  -0.563481  -0.000266   0.167640  -0.001590
 567  10   8.349077   8.211569   0.505260  -0.000849   0.177947  -0.004772
 568   5   9.456472   8.448233   0.622184   0.000036   0.250679   0.000142
 569  13  13.833833   6.569185   5.841542  -0.000074   0.081658  -0.000912
 570  13  12.994572   6.787214   6.370730  -0.000005   0.081658  -0.000060
 571   5  13.353345   7.005478   5.874778   0.000074   0.172545   0.000432
 572  13  11.873739   2.829027   5.219654  -0.000133   0.067797  -0.001969
 573  13  12.622977   2.807430   4.822884  -0.000120   0.067797  -0.001768
 574   5  12.058262   2.713809   4.667986  -0.000312   0.149328  -0.002090
 575  14  10.910153   9.342782   1.123326  -0.000125   0.074857  -0.001670
 576  14  10.083892   9.369335   1.562431  -0.000148   0.074857  -0.001982
 577   5  10.366500   9.041821   1.116277  -0.000360   0.161302  -0.002232
 578  14  12.455092   9.004779   5.086974   0.000020   0.080528   0.000250
 579  14  13.213058   8.995876   4.427709  -0.000109   0.080528  -0.001352
 580   5  12.961269   8.646797   4.908353   0.000041   0.170526   0.000240
 581  18  12.388970   1.672386   2.700820  -0.000202   0.132108  -0.001526
 582   5  11.931736   2.167804   3.596675   0.000180   0.186294   0.000967
 583  19  10.675618   7.999334  -0.902127  -0.000307   0.159235  -0.001931
 584   5  10.497376   8.453694   0.112719   0.000276   0.224468   0.001231
 585  11   0.879650   5.128300   4.518691  -0.000862   0.199458  -0.004321
 586  11   1.407588   6.456550   4.425948  -0.002436   0.408063  -0.005971
 587   6   0.685968   5.821202   5.529008  -0.000238   0.546503  -0.000435
 588   6   1.422779   7.270472   5.429214   0.000164   0.280900   0.000585
 589  12   5.174247   1.358088   7.803781  -0.000846   0.201553  -0.004197
 590  12   3.854290   1.122740   7.253503  -0.002520   0.412704  -0.006107
 591   6   4.241333   1.703839   8.544798  -0.000232   0.551907  -0.000419
 592   6   2.770582   1.547431   7.817697   0.000142   0.283877   0.000499
 593  15   5.445530   6.667210  11.205556  -0.000071   0.070983  -0.001002
 594  15   4.535338   6.265218  11.769773  -0.000289   0.158640  -0.001819
 595  15   3.713088   5.193845  12.058033  -0.000411   0.158640  -0.002592
 596  15   3.545411   3.854503  11.766350  -0.000246   0.158640  -0.001548
 597  15   4.105867   2.834758  11.022684  -0.000350   0.158640  -0.002203
 598  15   5.148586   2.581967  10.153280  -0.000457   0.158640  -0.002879
 599   6   4.876279   6.864526  11.266660   0.000088   0.154615   0.000569
 600   6   3.722678   6.028485  11.879661  -0.000151   0.154615  -0.000975
 601   6   3.133529   4.593763  11.877623  -0.000126   0.154615  -0.000817
 602   6   3.367290   3.189767  11.261442   0.000034   0.154615   0.000220
 603   6   4.321409   2.432424  10.301433  -0.000142   0.154615  -0.000919
 604   6   5.330220   2.451740   9.542811  -0.000113   0.086721  -0.001305
 605  16   1.413874   1.979085   8.026495  -0.000160   0.068357  -0.002340
 606  16   1.491611   2.086451   9.123417  -0.000406   0.151577  -0.002679
 607  16   1.245065   2.795301  10.229042  -0.000267   0.151577  -0.001761
 608  16   0.685727   3.928655  10.662987  -0.000396   0.151577  -0.002615
 609  16   0.042011   5.023694  10.248046  -0.000427   0.151577  -0.002819
 610  16  -0.423215   5.633246   9.153665  -0.000285   0.151577  -0.001881
 611  16  -0.519970   5.508392   7.826748  -0.000306   0.151577  -0.002016
 612  16  -0.208742   4.700118   6.809158  -0.000457   0.151577  -0.003014
 613   6   1.872447   1.922905   8.401414  -0.000287   0.150011  -0.001910
 614   6   1.825248   2.340069   9.842748  -0.000101   0.150011  -0.000673
 615   6   1.347526   3.432112  10.755392  -0.000099   0.150011  -0.000660
 616   6   0.634366   4.753085  10.766658  -0.000150   0.150011  -0.001000
 617   6  -0.023007   5.763553   9.871944  -0.000110   0.150011  -0.000734
 618   6  -0.356144   6.050878   8.436618   0.000003   0.150011   0.000019
 619   6  -0.229006   5.497728   7.046813  -0.000168   0.150011  -0.001118
 620   6   0.151591   4.620814   6.289607  -0.000099   0.083513  -0.001185
 621  17   1.957377   8.492016   6.366184  -0.000137   0.070842  -0.001936
 622  17   1.111529   8.321427   7.115822  -0.000340   0.158342  -0.002149
 623  17   0.718630   8.205736   8.433621  -0.000279   0.158342  -0.001762
 624  17   1.225980   8.242925   9.716416  -0.000318   0.158342  -0.002010
 625  17   2.411108   8.416688  10.401710  -0.000387   0.158342  -0.002446
 626  17   3.754344   8.650830  10.189006  -0.000249   0.158342  -0.001570
 627   6   1.518067   8.078072   6.406734  -0.000283   0.154287  -0.001836
 628   6   0.617186   7.879577   7.652193  -0.000094   0.154287  -0.000610
 629   6   0.685299   7.832858   9.199880   0.000070   0.154287   0.000455
 630   6   1.692540   7.958401  10.371144  -0.000135   0.154287  -0.000875
 631   6   3.197240   8.201157  10.652396  -0.000038   0.154287  -0.000249
 632   6   4.358562   8.413387  10.207882   0.000214   0.086550   0.002470
 633   7  14.413505   1.976010   2.167642   0.000011   0.028217   0.000373
 634   8  14.886604   2.130850   2.163394   0.000047   0.028217   0.001669
 635  18  14.240251   1.785647   2.005917  -0.000014   0.028217  -0.000511
 636   7  14.465285   2.178648  -1.107994   0.000021   0.028217   0.000730
 637   8  14.937714   2.330863  -1.069804   0.000080   0.028217   0.002818
 638  18  14.287396   1.970145  -0.976495  -0.000006   0.028217  -0.000221
 639   7  13.707198   5.490833  -2.938948   0.000023   0.027695   0.000825
 640   8  14.187399   5.608792  -2.881557   0.000051   0.027695   0.001844
 641  19  13.446020   5.632291  -3.003910  -0.000001   0.027695  -0.000045
 642   7  12.991540   8.204211  -1.342699   0.000037   0.027695   0.001346
 643   8  13.481080   8.286755  -1.306142   0.000084   0.027695   0.003044
 644  19  12.794500   8.102490  -1.550721  -0.000000   0.027695  -0.000015
 645   7  13.342849   8.598621  -0.692696   0.000036   0.025767   0.001388
 646   8  13.815474   8.754671  -0.697119   0.000014   0.025767   0.000562
 647  20  14.003995   8.941764  -0.550768  -0.000024   0.025767  -0.000943
 648   7  14.748701   2.431988   2.754304   0.000017   0.026273   0.000662
 649   8  15.238271   2.513951   2.791236  -0.000000   0.026273  -0.000006
 650  21  15.444465   2.611224   2.991424  -0.000037   0.026273  -0.001394
 651   7  14.849510   2.556788  -1.436131   0.000071   0.025555   0.002777
 652   8  15.340175   2.639907  -1.445132   0.000016   0.025555   0.000613
 653  22  15.559123   2.746312  -1.625047  -0.000014   0.025555  -0.000537
 654   7  14.272040   5.090702  -2.876637   0.000043   0.025555   0.001665
 655   8  14.754888   5.208124  -2.905137   0.000015   0.025555   0.000596
 656  22  15.026467   5.083586  -2.953763  -0.000013   0.025555  -0.000494
 657   8  15.253440   2.462047  -1.262208   0.000097   0.042392   0.002287
 658   7  14.555341   2.319501  -1.326227   0.000101   0.042392   0.002391
 659   8  14.584816   5.396794  -2.936869   0.000113   0.057291   0.001964
 660   7  13.875760   5.293608  -2.959156   0.000122   0.057291   0.002124
 661   8  13.748856   8.565471  -1.065834   0.000198   0.087250   0.002264
 662   7  13.041533   8.443513  -0.995336   0.000168   0.087250   0.001930
 663   8  15.167766   2.329726   2.549937   0.000147   0.082439   0.001783
 664   7  14.489012   2.113971   2.441698   0.000122   0.082439   0.001477
 665   7  10.075318   2.423390  -0.381104  -0.000019   0.088350  -0.000211
 666   9   9.332255   2.254697   0.249526  -0.000160   0.088350  -0.001811
 667  18  10.226497   2.171901  -0.290357  -0.000089   0.088350  -0.001004
 668   9   8.735528   2.188986   0.315117  -0.000038   0.030524  -0.001258
 669   7   9.877054   2.475481  -0.548438   0.000172   0.043319   0.003975
 670   7  14.129548   2.928361   3.600133  -0.000005   0.167420  -0.000031
 671  13  13.892904   3.205952   4.259745  -0.000202   0.167420  -0.001206
 672  21  14.844713   3.137423   3.754520  -0.000158   0.167420  -0.000943
 673  13  13.168420   2.920305   4.575478  -0.000186   0.125043  -0.001487
 674   7  13.582838   2.572672   3.592949   0.000246   0.176331   0.001397
 675   7  12.766392   8.852415   0.310004   0.000031   0.168447   0.000187
 676  14  12.493472   9.174904   0.937502  -0.000118   0.168447  -0.000698
 677  20  13.472428   9.115488   0.427325  -0.000164   0.168447  -0.000972
 678  14  11.726768   9.336948   1.021649  -0.000289   0.156273  -0.001849
 679   7  11.943102   8.780822   0.063680   0.000339   0.220269   0.001540
 680  18  13.760494   1.570433   2.143238  -0.000095   0.069453  -0.001364
 681  18  12.994419   1.617474   2.547115  -0.000112   0.069453  -0.001610
 682   7  13.519909   1.904469   2.579213  -0.000247   0.152324  -0.001618
 683  18  10.749789   2.046379  -0.863374  -0.000011   0.079081  -0.000134
 684  18  11.833880   1.983824  -1.498261  -0.000268   0.181042  -0.001482
 685  18  13.331066   1.833725  -1.369616  -0.000401   0.181042  -0.002216
 686   7  11.029828   2.387932  -1.325076   0.000125   0.168533   0.000739
 687   7  12.650121   2.264775  -1.805856  -0.000069   0.168533  -0.000411
 688   7  13.961969   2.113361  -1.379118   0.000016   0.096614   0.000166
 689  19  12.982229   5.421161  -3.172955  -0.000073   0.067775  -0.001071
 690  19  12.193831   4.670645  -3.120552  -0.000205   0.149653  -0.001369
 691  19  11.002964   4.295187  -2.695503  -0.000111   0.149653  -0.000745
 692  19  10.089816   4.509237  -2.140584  -0.000097   0.067775  -0.001435
 693   7  12.996935   4.844200  -3.036744  -0.000141   0.149377  -0.000941
 694   7  11.779701   4.033485  -2.797061   0.000147   0.149377   0.000981
 695   7  10.456359   4.043203  -2.129952   0.000118   0.149377   0.000791
 696  19  11.440018   8.209992  -1.128380  -0.000111   0.072950  -0.001519
 697  19  12.242406   8.158717  -1.553575  -0.000095   0.072950  -0.001308
 698   7  12.033828   8.276501  -0.988602  -0.000250   0.158384  -0.001577
 699  20  14.022256   9.169372  -0.266562  -0.000214   0.142115  -0.001506
 700   7  12.961997   8.769328  -0.340040   0.000307   0.200258   0.001531
 701  21  15.434552   2.809600   3.432877  -0.000251   0.137455  -0.001823
 702   7  14.435476   2.440492   3.047123   0.000304   0.193721   0.001568
 703  22  15.587349   2.973236  -2.020187  -0.000246   0.199495  -0.001234
 704  22  15.285368   4.154962  -2.771195  -0.001126   0.408137  -0.002759
 705   7  14.373968   3.171472  -2.184977   0.000721   0.546604   0.001320
 706   7  14.079503   4.594164  -2.921604   0.000612   0.280951   0.002178
 707   8  15.601585   6.348170   4.561610   0.000065   0.087863   0.000743
 708  13  14.777536   6.128029   5.067443   0.000121   0.087863   0.001382
 709  21  15.761570   6.096836   4.633645  -0.000123   0.087863  -0.001403
 710  13  14.375197   6.303508   5.498566   0.000048   0.042490   0.001122
 711   8  15.535351   6.627091   4.666489   0.000252   0.060316   0.004186
 712   8  15.025015   8.561185   3.299659   0.000086   0.088876   0.000972
 713  14  14.076033   8.790562   3.545356   0.000123   0.088876   0.001380
 714  20  15.083752   8.786418   3.100417  -0.000057   0.088876  -0.000640
 715  14  13.669806   8.968337   3.973847   0.000009   0.007282   0.001271
 716   8  15.032514   8.568913   3.536817   0.000070   0.010354   0.006735
 717  18  14.298754   1.670418  -0.581592  -0.000261   0.217233  -0.001203
 718  18  14.333682   1.509078   0.972202  -0.001367   0.447483  -0.003056
 719   8  15.353974   2.023573  -0.010155   0.000769   0.592425   0.001299
 720   8  15.271751   1.973245   1.763630   0.000684   0.306034   0.002235
 721  19  12.808297   7.877947  -1.983716  -0.000216   0.213834  -0.001011
 722  19  13.180773   6.634509  -2.806076  -0.001195   0.439807  -0.002717
 723   8  14.030584   7.648790  -2.102680   0.000871   0.583710   0.001492
 724   8  14.387993   6.139956  -2.907550   0.000677   0.301214   0.002247
 725  20  15.837500   8.853536   3.027600  -0.000074   0.067810  -0.001090
 726  20  16.881505   8.730003   2.729736  -0.000159   0.149883  -0.001058
 727  20  17.794945   8.644203   1.777501  -0.000249   0.149883  -0.001661
 728  20  17.963342   8.664979   0.466129  -0.000286   0.149883  -0.001909
 729  20  17.319719   8.784069  -0.682806  -0.000182   0.149883  -0.001214
 730  20  16.120066   8.954107  -1.212338  -0.000222   0.149883  -0.001484
 731  20  14.841521   9.107464  -0.911855  -0.000333   0.149883  -0.002224
 732   8  16.248907   8.457375   3.187174   0.000115   0.149293   0.000771
 733   8  17.556353   8.312902   2.496576   0.000081   0.149293   0.000545
 734   8  18.196772   8.274410   1.156579  -0.000049   0.149293  -0.000330
 735   8  17.915451   8.357207  -0.299860   0.000018   0.149293   0.000124
 736   8  16.824279   8.528364  -1.293469   0.000094   0.149293   0.000632
 737   8  15.357249   8.719805  -1.429060  -0.000124   0.149293  -0.000829
 738   8  14.265152   8.843065  -0.932397   0.000010   0.082845   0.000117
 739  21  15.973781   2.549379   2.994479  -0.000089   0.067070  -0.001333
 740  21  16.927229   2.553654   2.485006  -0.000231   0.147900  -0.001563
 741  21  18.045612   3.159314   2.175810  -0.000189   0.147900  -0.001276
 742  21  18.726723   4.264732   2.341181  -0.000217   0.147900  -0.001466
 743  21  18.705711   5.440067   2.916813  -0.000264   0.147900  -0.001782
 744  21  17.990748   6.228293   3.678873  -0.000159   0.147900  -0.001073
 745  21  16.859845   6.322908   4.331035  -0.000258   0.147900  -0.001743
 746   8  16.119409   2.415918   2.438394  -0.000165   0.148003  -0.001115
 747   8  17.443410   2.697404   1.863227   0.000065   0.148003   0.000439
 748   8  18.507440   3.709154   1.778184   0.000065   0.148003   0.000437
 749   8  18.897753   5.057750   2.216335  -0.000023   0.148003  -0.000157
 750   8  18.462575   6.218792   3.007304  -0.000010   0.148003  -0.000066
 751   8  17.371125   6.740811   3.843525   0.000128   0.148003   0.000862
 752   8  16.301429   6.615309   4.357157   0.000126   0.081941   0.001543
 753  22  15.493594   5.314838  -3.095120  -0.000099   0.069321  -0.001433
 754  22  16.257987   6.122282  -2.985075  -0.000293   0.154033  -0.001905
 755  22  17.430540   6.542523  -2.462950  -0.000161   0.154033  -0.001044
 756  22  18.454253   6.144678  -1.676928  -0.000297   0.154033  -0.001927
 757  22  18.902004   5.094737  -0.954957  -0.000317   0.154033  -0.002055
 758  22  18.586982   3.830764  -0.598263  -0.000200   0.154033  -0.001300
 759  22  17.640620   2.880120  -0.755668  -0.000233   0.154033  -0.001513
 760  22  16.457767   2.639441  -1.361498  -0.000352   0.154033  -0.002283
 761   8  15.450039   5.895672  -2.955658  -0.000148   0.151839  -0.000974
 762   8  16.639797   6.775937  -2.621823  -0.000030   0.151839  -0.000198
 763   8  17.943229   6.789229  -1.845469   0.000088   0.151839   0.000578
 764   8  18.816508   5.930002  -0.950511  -0.000092   0.151839  -0.000606
 765   8  18.895279   4.556749  -0.310349  -0.000084   0.151839  -0.000552
 766   8  18.146678   3.242426  -0.192076   0.000080   0.151839   0.000524
 767   8  16.883040   2.535404  -0.645038  -0.000058   0.151839  -0.000382
 768   8  15.827664   2.545876  -1.282812  -0.000007   0.084691  -0.000088
 769  12   5.241679   1.217006   3.417391  -0.000585   0.247174  -0.002366
 770  12   5.977591   0.755063   4.193247  -0.002468   0.494418  -0.004991
 771  12   6.869054   0.972640   5.275228  -0.002549   0.494418  -0.005155
 772   9   6.611447   1.183121   2.766529  -0.002376   0.494418  -0.004805
 773   9   7.540904   0.912542   3.803652  -0.002483   0.494418  -0.005021
 774   9   8.208086   1.333644   4.660654  -0.000698   0.247174  -0.002825
 775  18  11.578205   1.261147   2.376075  -0.000083   0.258088  -0.000320
 776  18  11.045599   0.975554   1.361131  -0.000874   0.516192  -0.001693
 777  18  10.440046   1.448627   0.147042  -0.000452   0.516192  -0.000876
 778   9  10.046098   1.172022   2.679157  -0.001560   0.516192  -0.003022
 779   9   9.388597   1.141299   1.401951  -0.001686   0.516192  -0.003267
 780   9   8.949962   1.767043   0.501181  -0.000392   0.258088  -0.001521
 781  11   3.744509   6.896866   2.192179  -0.000791   0.262782  -0.003011
 782  11   3.603201   5.922666   1.648362  -0.002331   0.525273  -0.004437
 783  11   3.741305   4.819518   1.478766  -0.000675   0.262782  -0.002569
 784  10   5.007793   6.842745   1.072842  -0.002181   0.525273  -0.004153
 785  10   5.005793   5.546439   0.627659  -0.001717   0.525273  -0.003270
 786  19   9.396233   5.195930  -1.941834   0.000137   0.241376   0.000570
 787  19   9.432608   6.258853  -1.974049  -0.000531   0.482519  -0.001101
 788  19   9.785421   7.389189  -1.434338  -0.000457   0.482519  -0.000948
 789  10   8.009714   5.670989  -1.217724  -0.001043   0.482519  -0.002162
 790  10   8.178892   6.947099  -1.027078  -0.001369   0.482519  -0.002837
 791  10   8.546591   7.747008  -0.429493  -0.000390   0.241376  -0.001616
 792  21  15.922859   5.782459   4.927936   0.000241   0.250945   0.000962
 793  21  15.880190   4.658274   5.002175  -0.000576   0.501765  -0.001148
 794  21  15.494796   3.464417   4.439619  -0.000503   0.501765  -0.001003
 795  13  14.564138   5.453430   5.701481  -0.000226   0.501765  -0.000449
 796  13  14.376263   4.101889   5.533150  -0.000564   0.501765  -0.001123
 797  13  13.976722   3.262600   4.895118   0.000033   0.250945   0.000131
 798  20  13.849859   9.611732   0.579465   0.000047   0.248663   0.000187
 799  20  14.355646   9.865119   1.519817  -0.000485   0.497117  -0.000976
 800  20  14.926516   9.456153   2.661009  -0.000086   0.497117  -0.000173
 801  14  12.645384   9.819291   1.659772  -0.000349   0.497117  -0.000702
 802  14  13.266538   9.852020   2.846601  -0.000405   0.497117  -0.000815
 803  14  13.681547   9.308003   3.704564   0.000264   0.248663   0.001060
 =====================================================

              4977682  WORDS OF DYNAMIC MEMORY USED
 EXECUTION OF GAMESS TERMINATED NORMALLY Wed Nov 23 11:17:44 2016
 DDI: 263640 bytes (0.3 MB / 0 MWords) used by master data server.

 ----------------------------------------
 CPU timing information for all processes
 ========================================
 0: 1311.316 + 0.480 = 1311.796
 ----------------------------------------
 ddikick.x: exited gracefully.
