----- GAMESS execution script -----

          ******************************************************
          *         GAMESS VERSION =  5 DEC 2014 (R1)          *
          *             FROM IOWA STATE UNIVERSITY             *
          * M.W.SCHMIDT, K.K.BALDRIDGE, J.A.BOATZ, S.T.ELBERT, *
          *   M.S.GORDON, J.H.JENSEN, S.KOSEKI, N.MATSUNAGA,   *
          *          K.A.NGUYEN, S.J.SU, T.L.WINDUS,           *
          *       TOGETHER WITH M.DUPUIS, J.A.MONTGOMERY       *
          *         J.COMPUT.CHEM.  14, 1347-1363(1993)        *
          **************** 64 BIT LINUX VERSION ****************

 EXECUTION OF GAMESS BEGUN Wed Nov 23 11:19:25 2016

            ECHO OF THE FIRST FEW INPUT CARDS -
 INPUT CARD>! SELECT RESTRICTED HARTREE-FOCK AS DEFAULT                                     
 INPUT CARD>$contrl scftyp=rhf $end                                                         
 INPUT CARD>                                                                                
 INPUT CARD>! THEORY: HF OR DFT                                                             
 INPUT CARD> $contrl mplevl=0 $end                                                          
 INPUT CARD>                                                                                
 INPUT CARD> $system timlim=10000 mwords=20 $end                                            
 INPUT CARD> $SCF DIRSCF=.TRUE. $end                                                        
 INPUT CARD>                                                                                
 INPUT CARD>                                                                                
 INPUT CARD>! BASIS SETS                                                                    
 INPUT CARD>! 6-311G(d,p)                                                                   
 INPUT CARD> $BASIS GBASIS=N311 NGAUSS=6 NDFUNC=1 NPFUNC=1 $END                             
 INPUT CARD>                                                                                
 INPUT CARD>! One of the following                                                          
 INPUT CARD> $guess guess=HUCKEL $end                                                       
 INPUT CARD>                                                                                
 INPUT CARD> $statpt projct=.FALSE. $end                                                    
 INPUT CARD> $STATPT IFREEZ(1)=1,2,3 $END                                                   
 INPUT CARD>                                                                                
 INPUT CARD>! Optimize the geometry with COSMO effects                                      
 INPUT CARD> $statpt opttol=0.0005 nstep=50 $end                                            
 INPUT CARD> $contrl nzvar=1 $end                                                           
 INPUT CARD> $zmat dlc=.t. auto=.t. $end                                                    
 INPUT CARD> $contrl runtyp=OPTIMIZE maxit=200 $end                                         
 INPUT CARD>                                                                                
 INPUT CARD>! Run COSMO on perfect conductor                                                
 INPUT CARD> $COSGMS PRFCND=.TRUE. $end                                                     
 INPUT CARD>                                                                                
 INPUT CARD>! Specifying RSOLV                                                              
 INPUT CARD> $COSGMS COSRAD = 1.4 $end                                                      
 INPUT CARD>                                                                                
 INPUT CARD>! available memory                                                              
 INPUT CARD> $SYSTEM MWORDS=40 $END                                                         
 INPUT CARD>                                                                                
 INPUT CARD> $DATA                                                                          
 INPUT CARD>file:/home/renata/3-HYDROXYBENZOIC_ACID.mol                                     
 INPUT CARD>C1                                                                              
 INPUT CARD>C      6.0      6.3488000000    1.8715000000   -0.6316000000                    
 INPUT CARD>C      6.0      6.8863000000    0.6110000000   -0.3384000000                    
 INPUT CARD>C      6.0      4.9668000000    2.0388000000   -0.7030000000                    
 INPUT CARD>O      8.0      7.2289000000    2.8957000000   -0.8372000000                    
 INPUT CARD>C      6.0      4.1190000000    0.9459000000   -0.4814000000                    
 INPUT CARD>C      6.0      4.6501000000   -0.3155000000   -0.1882000000                    
 INPUT CARD>C      6.0      2.6557000000    1.1918000000   -0.5721000000                    
 INPUT CARD>C      6.0      6.0359000000   -0.4698000000   -0.1195000000                    
 INPUT CARD>O      8.0      2.1446000000    2.2660000000   -0.8236000000                    
 INPUT CARD>O      8.0      1.9120000000    0.0794000000   -0.3437000000                    
 INPUT CARD>H      1.0      7.9652000000    0.5016000000   -0.2875000000                    
 INPUT CARD>H      1.0      4.5237000000    3.0055000000   -0.9285000000                    
   40000000 WORDS OF MEMORY AVAILABLE

     BASIS OPTIONS
     -------------
     GBASIS=N311         IGAUSS=       6      POLAR=POPN311 
     NDFUNC=       1     NFFUNC=       0     DIFFSP=       F
     NPFUNC=       1      DIFFS=       F     BASNAM=        


     RUN TITLE
     ---------
 file:/home/renata/3-HYDROXYBENZOIC_ACID.mol                                     

 THE POINT GROUP OF THE MOLECULE IS C1      
 THE ORDER OF THE PRINCIPAL AXIS IS     0

 ATOM      ATOMIC                      COORDINATES (BOHR)
           CHARGE         X                   Y                   Z
 C           6.0    11.9974923508        3.5366221860       -1.1935509338
 C           6.0    13.0132200692        1.1546225785       -0.6394832742
 C           6.0     9.3858910358        3.8527733438       -1.3284773694
 O           8.0    13.6606401926        5.4720795426       -1.5820785969
 C           6.0     7.7837813434        1.7874918118       -0.9097140905
 C           6.0     8.7874148155       -0.5962085491       -0.3556464309
 C           6.0     5.0185453056        2.2521754322       -1.0811122376
 C           6.0    11.4061970893       -0.8877932690       -0.2258222555
 O           8.0     4.0527063533        4.2821190882       -1.5563783235
 O           8.0     3.6131560885        0.1500442434       -0.6494988220
 H           1.0    15.0520454374        0.9478865554       -0.5432962215
 H           1.0     8.5485534507        5.6795714561       -1.7546105796
 H           1.0    12.7195566508        7.0031355379       -1.9443390688
 H           1.0     7.5369831294       -2.1852791322       -0.0338260952
 H           1.0    12.2070629629       -2.7287643263        0.2025786259
 H           1.0     1.8579785911        0.6869153965       -0.8116373117

          INTERNUCLEAR DISTANCES (ANGS.)




     $CONTRL OPTIONS
     ---------------
 SCFTYP=RHF          RUNTYP=OPTIMIZE     EXETYP=RUN     
 MPLEVL=       0     CITYP =NONE         CCTYP =NONE         VBTYP =NONE    
 DFTTYP=NONE         TDDFT =NONE    
 MULT  =       1     ICHARG=       0     NZVAR =       1     COORD =UNIQUE  
 PP    =NONE         RELWFN=NONE         LOCAL =NONE         NUMGRD=       F
 ISPHER=      -1     NOSYM =       0     MAXIT =     200     UNITS =ANGS    
 PLTORB=       F     MOLPLT=       F     AIMPAC=       F     FRIEND=        
 NPRINT=       7     IREST =       0     GEOM  =INPUT   
 NORMF =       0     NORMP =       0     ITOL  =      20     ICUT  =       9
 INTTYP=BEST         GRDTYP=BEST         QMTTOL= 1.0E-06

     $SYSTEM OPTIONS
     ---------------
  REPLICATED MEMORY=    40000000 WORDS (ON EVERY NODE).
 DISTRIBUTED MEMDDI=           0 MILLION WORDS IN AGGREGATE,
 MEMDDI DISTRIBUTED OVER   1 PROCESSORS IS           0 WORDS/PROCESSOR.
 TOTAL MEMORY REQUESTED ON EACH PROCESSOR=    40000000 WORDS.
 TIMLIM=       10000.00 MINUTES, OR       6.9 DAYS.
 PARALL= F  BALTYP=  DLB     KDIAG=    0  COREFL= F
 MXSEQ2=     300 MXSEQ3=     150  mem10=         0

     $COSGMS OPTIONS
     ---------------
     EPSI  =   INFTY     NSPA  =      92     COSRAD=    1.40
     DISEX =   10.00     OUTCHG=DBLCAV       COSBUG=       F
     COSWRT=       F     DCOSMO=       F

     SYMMETRY COORDINATES WILL NOT BE USED FOR 
     THE COSMO CALCULATION, EVEN IF SPECIFIED:
         -- SWITCHING TO C1 POINT GROUP --


     DEFINITION OF CAVITY
     ---------------------------
     ATOM         COORDINATES           RADIUS 
     1   11.9975    3.5366   -1.1936    2.0000
     2   13.0132    1.1546   -0.6395    2.0000
     3    9.3859    3.8528   -1.3285    2.0000
     4   13.6606    5.4721   -1.5821    1.7200
     5    7.7838    1.7875   -0.9097    2.0000
     6    8.7874   -0.5962   -0.3556    2.0000
     7    5.0185    2.2522   -1.0811    2.0000
     8   11.4062   -0.8878   -0.2258    2.0000
     9    4.0527    4.2821   -1.5564    1.7200
    10    3.6132    0.1500   -0.6495    1.7200
    11   15.0520    0.9479   -0.5433    1.3000
    12    8.5486    5.6796   -1.7546    1.3000
    13   12.7196    7.0031   -1.9443    1.3000
    14    7.5370   -2.1853   -0.0338    1.3000
    15   12.2071   -2.7288    0.2026    1.3000
    16    1.8580    0.6869   -0.8116    1.3000

          ----------------
          PROPERTIES INPUT
          ----------------

     MOMENTS            FIELD           POTENTIAL          DENSITY
 IEMOM =       1   IEFLD =       0   IEPOT =       0   IEDEN =       0
 WHERE =COMASS     WHERE =NUCLEI     WHERE =NUCLEI     WHERE =NUCLEI  
 OUTPUT=BOTH       OUTPUT=BOTH       OUTPUT=BOTH       OUTPUT=BOTH    
 IEMINT=       0   IEFINT=       0                     IEDINT=       0
                                                       MORB  =       0
          EXTRAPOLATION IN EFFECT
          SOSCF IN EFFECT
 ORBITAL PRINTING OPTION: NPREO=     1   226     2     1

     -------------------------------
     INTEGRAL TRANSFORMATION OPTIONS
     -------------------------------
     NWORD  =            0
     CUTOFF = 1.0E-09     MPTRAN =       0
     DIRTRF =       T     AOINTS =DUP     

          ----------------------
          INTEGRAL INPUT OPTIONS
          ----------------------
 NOPK  =       1 NORDER=       0 SCHWRZ=       T


 -----------------------------------------------
  STATISTICS ON AUTOMATIC COORDINATE GENERATION 
 -----------------------------------------------
  NUMBER OF USER SPECIFIED BONDS                             0
  NUMBER OF BONDS                                           16
  NUMBER OF ANGLES                                          23
  NUMBER OF TORSIONS                                        32
  NUMBER OF EXTRA COORD.                                     0
  NUMBER OF EXTRA COORD. FOR CONSTRAINTS                     0
  NUMBER OF CONSTRAINED COORD.                               0

  TOTAL NUMBER OF PRIMITIVES                                71
 -----------------------------------------------

   --- ENCODED Z MATRIX ---
 COORD  TYPE   I   J   K   L   M   N
    1      1    1   2
    2      1    1   4
    3      1    1   3
    4      1    2   8
    5      1    2  11
    6      1    3  12
    7      1    3   5
    8      1    4  13
    9      1    5   7
   10      1    5   6
   11      1    6  14
   12      1    6   8
   13      1    7  10
   14      1    7   9
   15      1    8  15
   16      1   10  16
   17      2    1   3  12
   18      2    1   4  13
   19      2    1   3   5
   20      2    1   2  11
   21      2    1   2   8
   22      2    2   1   3
   23      2    2   8  15
   24      2    2   8   6
   25      2    2   1   4
   26      2    3   5   6
   27      2    3   5   7
   28      2    3   1   4
   29      2    5   3  12
   30      2    5   6   8
   31      2    5   6  14
   32      2    5   7   9
   33      2    5   7  10
   34      2    6   5   7
   35      2    6   8  15
   36      2    7  10  16
   37      2    8   6  14
   38      2    8   2  11
   39      2    9   7  10
   40      3    1   2   8  15
   41      3    1   2   8   6
   42      3    1   3   5   7
   43      3    1   3   5   6
   44      3    2   1   4  13
   45      3    2   1   3  12
   46      3    2   8   6  14
   47      3    2   8   6   5
   48      3    2   1   3   5
   49      3    3   5   6   8
   50      3    3   5   6  14
   51      3    3   1   2   8
   52      3    3   1   2  11
   53      3    3   5   7   9
   54      3    3   5   7  10
   55      3    3   1   4  13
   56      3    4   1   3   5
   57      3    4   1   2   8
   58      3    4   1   3  12
   59      3    4   1   2  11
   60      3    5   7  10  16
   61      3    5   6   8  15
   62      3    6   5   3  12
   63      3    6   5   7  10
   64      3    6   5   7   9
   65      3    6   8   2  11
   66      3    7   5   6  14
   67      3    7   5   6   8
   68      3    7   5   3  12
   69      3    9   7  10  16
   70      3   11   2   8  15
   71      3   14   6   8  15

          INDEP./SYM. INTERNAL COORDINATES
          --------------------------------
 CRD  1=   0.1560 (  3)  0.1586 (  7) -0.1346 ( 10) -0.1348 ( 12)  0.1018 ( 18)
          -0.1162 ( 19) -0.1536 ( 25)  0.5194 ( 27)  0.1665 ( 28)  0.2499 ( 32)
          -0.3654 ( 33) -0.5379 ( 34)  0.1475 ( 36)  0.1155 ( 39)
 CRD  2=   0.1335 (  1) -0.1571 (  2) -0.2653 (  3) -0.2584 (  7) -0.3253 (  9)
          -0.1387 ( 10) -0.1135 ( 16) -0.3007 ( 18)  0.1005 ( 23)  0.3984 ( 25)
           0.1447 ( 26) -0.4400 ( 28) -0.2872 ( 33) -0.1247 ( 34)  0.2159 ( 39)
 CRD  3=   0.1413 (  2) -0.1071 (  5) -0.1416 (  7) -0.4465 (  9) -0.1647 ( 12)
          -0.1471 ( 13) -0.1104 ( 16)  0.2195 ( 17)  0.2827 ( 18) -0.1362 ( 20)
           0.1789 ( 21) -0.1537 ( 22) -0.1826 ( 25)  0.2831 ( 26) -0.2917 ( 27)
           0.3363 ( 28) -0.1254 ( 29) -0.1674 ( 30) -0.1096 ( 32) -0.1066 ( 33)
          -0.1152 ( 36)  0.2162 ( 39)
 CRD  4=  -0.1080 ( 41) -0.3593 ( 42) -0.1916 ( 43)  0.1069 ( 44)  0.1203 ( 48)
           0.1123 ( 49)  0.1217 ( 53)  0.4896 ( 54)  0.2117 ( 56) -0.3893 ( 60)
           0.3183 ( 63) -0.1410 ( 65)  0.2341 ( 66)  0.2889 ( 67) -0.1933 ( 68)
 CRD  5=  -0.3916 (  1) -0.4132 (  2) -0.2798 (  4) -0.1720 (  7) -0.2250 (  8)
           0.1235 ( 10) -0.2946 ( 18) -0.1447 ( 19) -0.1273 ( 20)  0.2584 ( 22)
          -0.1090 ( 23) -0.3469 ( 25)  0.1040 ( 32) -0.1772 ( 33)  0.1045 ( 34)
           0.1790 ( 35)  0.1394 ( 38)
 CRD  6=   0.3995 ( 13)  0.1372 ( 14) -0.1007 ( 27) -0.2711 ( 32) -0.1582 ( 33)
           0.1132 ( 34)  0.6720 ( 36)  0.4292 ( 39)
 CRD  7=   0.2854 (  1)  0.1220 (  2)  0.1345 (  3)  0.1556 (  9)  0.4385 ( 10)
          -0.1589 ( 13)  0.2529 ( 14)  0.1274 ( 15) -0.1073 ( 16)  0.1172 ( 17)
           0.1340 ( 18)  0.1480 ( 20) -0.1445 ( 27)  0.1895 ( 31)  0.3427 ( 32)
          -0.3737 ( 33)  0.1728 ( 34) -0.2379 ( 37) -0.2046 ( 38)
 CRD  8=  -0.1136 ( 40) -0.1017 ( 42) -0.2721 ( 44) -0.1308 ( 45) -0.1663 ( 47)
          -0.1789 ( 48)  0.2559 ( 49)  0.1410 ( 50)  0.2680 ( 51)  0.1690 ( 52)
          -0.2309 ( 53) -0.1495 ( 54) -0.2172 ( 55) -0.2351 ( 56)  0.3213 ( 57)
          -0.1871 ( 58)  0.2223 ( 59) -0.1471 ( 61) -0.1313 ( 62) -0.1671 ( 63)
          -0.2485 ( 64)  0.1591 ( 66)  0.2741 ( 67) -0.1485 ( 68)
 CRD  9=   0.1477 (  1)  0.3331 (  3)  0.2170 (  5) -0.3716 (  7) -0.2713 ( 10)
          -0.1598 ( 11)  0.1513 ( 12)  0.3499 ( 17)  0.1489 ( 20) -0.2332 ( 21)
          -0.1048 ( 25) -0.4076 ( 29)  0.1832 ( 30) -0.2989 ( 31)  0.1157 ( 37)
 CRD 10=   0.1031 (  1)  0.1092 (  3) -0.4052 (  4)  0.1146 (  6) -0.1970 ( 11)
          -0.4297 ( 12)  0.1277 ( 13) -0.1744 ( 15)  0.1284 ( 17) -0.1094 ( 18)
          -0.1425 ( 19)  0.3242 ( 20)  0.1029 ( 24)  0.1069 ( 30)  0.1777 ( 31)
          -0.2356 ( 32)  0.1739 ( 33) -0.2846 ( 37) -0.3026 ( 38)
 CRD 11=  -0.3236 (  4)  0.2597 ( 12)  0.2429 ( 20) -0.1080 ( 22) -0.5027 ( 23)
           0.1041 ( 25) -0.1547 ( 30) -0.1591 ( 31)  0.4108 ( 35)  0.3137 ( 37)
          -0.3140 ( 38)
 CRD 12=   0.2841 (  1)  0.3261 (  6)  0.1497 ( 10)  0.1699 ( 12) -0.1177 ( 14)
           0.3241 ( 15)  0.1246 ( 17) -0.3114 ( 19)  0.1445 ( 21)  0.1630 ( 22)
          -0.3229 ( 24)  0.1659 ( 26)  0.1868 ( 29)  0.1609 ( 30) -0.2444 ( 31)
          -0.1894 ( 32)  0.2010 ( 33) -0.1170 ( 34)  0.2578 ( 35)
 CRD 13=   0.1402 ( 40) -0.1969 ( 42)  0.3005 ( 44)  0.1494 ( 46)  0.1183 ( 48)
          -0.1109 ( 50) -0.2965 ( 53) -0.2860 ( 54)  0.1637 ( 55)  0.2585 ( 56)
          -0.2140 ( 57)  0.2314 ( 58) -0.1044 ( 59) -0.1192 ( 61) -0.3878 ( 63)
          -0.3984 ( 64)  0.1432 ( 67) -0.1705 ( 68)
 CRD 14=   0.1128 (  2) -0.3058 (  3) -0.1787 (  4) -0.3088 (  5) -0.2995 (  6)
          -0.2682 (  7)  0.1048 (  8)  0.1476 (  9) -0.1287 ( 10) -0.3694 ( 11)
          -0.1525 ( 12)  0.1755 ( 15)  0.2714 ( 18) -0.1105 ( 20)  0.1533 ( 21)
           0.1366 ( 23) -0.2721 ( 24) -0.1177 ( 26)  0.2142 ( 30) -0.1585 ( 31)
           0.1355 ( 35)
 CRD 15=  -0.1242 (  3) -0.1062 (  4)  0.3362 (  5)  0.1313 (  8) -0.1879 (  9)
          -0.1111 ( 15) -0.1006 ( 16) -0.2424 ( 17)  0.5526 ( 18)  0.1510 ( 20)
          -0.2674 ( 21)  0.2643 ( 22) -0.1665 ( 25) -0.1144 ( 26)  0.2827 ( 29)
          -0.1172 ( 32) -0.1110 ( 36)  0.1164 ( 38)  0.1539 ( 39)
 CRD 16=   0.3299 ( 40)  0.3195 ( 41)  0.1120 ( 42)  0.2278 ( 43)  0.1674 ( 44)
          -0.2224 ( 45) -0.1909 ( 46) -0.3045 ( 47) -0.2136 ( 48)  0.1229 ( 54)
          -0.1735 ( 57) -0.2156 ( 60) -0.3150 ( 61)  0.2363 ( 62) -0.1252 ( 64)
           0.1996 ( 65)  0.1517 ( 67)  0.1206 ( 68)  0.2100 ( 70) -0.2014 ( 71)
 CRD 17=   0.1578 (  2)  0.2128 (  3)  0.1808 (  7) -0.2076 ( 11)  0.1203 ( 13)
           0.2930 ( 14)  0.1822 ( 15) -0.3281 ( 16) -0.1342 ( 17) -0.2264 ( 18)
           0.1032 ( 19) -0.1642 ( 26)  0.1211 ( 30) -0.2828 ( 32) -0.4581 ( 36)
           0.3611 ( 39)
 CRD 18=   0.1162 (  2)  0.1543 (  3) -0.2183 (  6) -0.2736 (  9)  0.1600 ( 12)
          -0.3317 ( 13) -0.5748 ( 14)  0.3093 ( 15) -0.1206 ( 17) -0.1593 ( 18)
           0.1330 ( 19) -0.1493 ( 26)  0.1458 ( 31)  0.2552 ( 36) -0.2266 ( 37)
 CRD 19=   0.1095 ( 43) -0.2836 ( 44)  0.2028 ( 46)  0.1540 ( 47) -0.2041 ( 49)
          -0.2525 ( 50) -0.1110 ( 52) -0.2199 ( 53) -0.1756 ( 55) -0.5423 ( 60)
           0.1566 ( 61)  0.1174 ( 62) -0.3128 ( 64) -0.1567 ( 66) -0.1082 ( 67)
          -0.3235 ( 69)  0.2054 ( 71)
 CRD 20=   0.1419 (  1) -0.3273 (  2) -0.2386 (  3)  0.1114 (  4)  0.1846 (  5)
          -0.4375 (  6) -0.3321 (  8)  0.2345 ( 11)  0.1874 ( 13)  0.3145 ( 15)
           0.2678 ( 20)  0.1062 ( 23) -0.1273 ( 25)  0.1519 ( 28) -0.1067 ( 34)
          -0.1367 ( 36) -0.2749 ( 38)
 CRD 21=   0.1305 ( 41) -0.1082 ( 44)  0.3375 ( 45) -0.3110 ( 46)  0.2677 ( 50)
          -0.1321 ( 51) -0.3773 ( 52) -0.1251 ( 53)  0.1642 ( 58) -0.2132 ( 59)
          -0.1549 ( 60)  0.1152 ( 61) -0.2878 ( 62)  0.3824 ( 65)  0.1916 ( 66)
          -0.2155 ( 68)  0.1811 ( 70) -0.1089 ( 71)
 CRD 22=  -0.1431 (  4) -0.1551 (  5) -0.1347 (  6) -0.2009 (  7)  0.3432 (  8)
           0.1429 ( 10)  0.3610 ( 11)  0.1207 ( 12)  0.2742 ( 13) -0.1022 ( 14)
           0.2553 ( 17) -0.1383 ( 20)  0.1065 ( 22)  0.2327 ( 27) -0.1721 ( 28)
          -0.2353 ( 29)  0.2219 ( 31) -0.1370 ( 32) -0.1843 ( 34) -0.2036 ( 36)
          -0.2397 ( 37)  0.1752 ( 38)
 CRD 23=  -0.1136 (  2)  0.1159 (  3) -0.1303 (  4) -0.5195 (  5)  0.3649 ( 11)
           0.1853 ( 12) -0.1606 ( 13) -0.1181 ( 14) -0.2135 ( 16)  0.1167 ( 18)
           0.1958 ( 20)  0.3183 ( 23) -0.1179 ( 26) -0.2049 ( 31)  0.1193 ( 34)
          -0.3407 ( 35)  0.1476 ( 37) -0.1401 ( 38)
 CRD 24=  -0.2050 ( 40)  0.1842 ( 42)  0.4882 ( 44) -0.1055 ( 46) -0.1579 ( 48)
           0.1161 ( 50)  0.1690 ( 51)  0.1629 ( 52) -0.1163 ( 53)  0.4743 ( 55)
          -0.1436 ( 56)  0.1555 ( 57)  0.1494 ( 59) -0.3002 ( 60)  0.1133 ( 61)
          -0.1096 ( 62) -0.1092 ( 67) -0.2797 ( 69) -0.1987 ( 70)
 CRD 25=   0.3054 (  1)  0.2234 (  2) -0.3571 (  6) -0.2216 (  8)  0.1368 (  9)
           0.2957 ( 10)  0.1011 ( 11) -0.1912 ( 14) -0.4972 ( 15) -0.3443 ( 16)
          -0.1416 ( 18) -0.1505 ( 20) -0.1092 ( 24) -0.1490 ( 31) -0.1115 ( 32)
 CRD 26=  -0.3646 (  2) -0.1505 (  3)  0.1377 (  4)  0.1003 (  6)  0.1994 (  7)
           0.1430 (  8)  0.2811 (  9) -0.1678 ( 11) -0.1907 ( 14) -0.6273 ( 16)
           0.1979 ( 17)  0.1774 ( 18) -0.1025 ( 23) -0.2181 ( 29)  0.1159 ( 36)
 CRD 27=   0.2662 (  5) -0.1997 (  6)  0.7138 (  8)  0.1120 ( 11) -0.1273 ( 12)
          -0.3241 ( 18)  0.1036 ( 23) -0.2169 ( 25)  0.1957 ( 28)  0.1414 ( 29)
          -0.1209 ( 31)  0.1175 ( 37) -0.1372 ( 38)
 CRD 28=  -0.1354 (  1)  0.4094 (  2) -0.1809 (  4)  0.2020 (  5)  0.2748 (  6)
          -0.2906 (  7) -0.2375 (  8) -0.2321 ( 10)  0.2939 ( 11)  0.1601 ( 13)
           0.2998 ( 15) -0.3774 ( 16)  0.1002 ( 29)  0.1075 ( 33)  0.1171 ( 36)
          -0.1806 ( 39)
 CRD 29=   0.1560 (  3)  0.2212 (  4) -0.2497 (  5) -0.1540 (  7) -0.2832 (  9)
           0.1125 ( 10) -0.2903 ( 11)  0.1722 ( 12)  0.5089 ( 13) -0.1253 ( 15)
          -0.2738 ( 16) -0.1354 ( 17)  0.1311 ( 20)  0.1202 ( 29)  0.1003 ( 31)
           0.2550 ( 32) -0.2940 ( 39)
 CRD 30=   0.2769 (  1) -0.1049 (  2) -0.1801 (  5) -0.2800 (  6)  0.1910 (  7)
          -0.1743 (  9) -0.3021 ( 10)  0.1311 ( 12) -0.2548 ( 13)  0.4599 ( 14)
          -0.1600 ( 16) -0.1239 ( 19) -0.1126 ( 20)  0.1194 ( 31)  0.2117 ( 33)
           0.2710 ( 36) -0.1640 ( 37)  0.1842 ( 38) -0.1877 ( 39)
 CRD 31=   0.1734 ( 40) -0.1344 ( 43) -0.1450 ( 44)  0.1045 ( 49)  0.1411 ( 50)
           0.1680 ( 52)  0.1306 ( 53) -0.2784 ( 54) -0.2544 ( 55)  0.1951 ( 56)
          -0.1095 ( 57)  0.1943 ( 58) -0.1489 ( 60) -0.2246 ( 61) -0.1335 ( 62)
          -0.1140 ( 63)  0.2950 ( 64) -0.2021 ( 65) -0.5440 ( 69) -0.2615 ( 71)
 CRD 32=  -0.2555 (  1) -0.1028 (  2)  0.4590 (  3)  0.2942 (  4) -0.1614 (  6)
          -0.2327 (  7)  0.2193 ( 10) -0.4433 ( 12) -0.1304 ( 13)  0.1183 ( 14)
           0.1680 ( 18) -0.1966 ( 23)  0.1407 ( 25) -0.1429 ( 28)  0.1797 ( 29)
          -0.1423 ( 31) -0.1026 ( 32)  0.1031 ( 33)  0.1449 ( 35)  0.1032 ( 37)
 CRD 33=  -0.2172 (  1)  0.1710 (  2) -0.3112 (  4)  0.1428 (  5) -0.2691 (  6)
           0.2993 (  7) -0.1244 (  8) -0.1934 (  9)  0.2059 ( 10) -0.2116 ( 11)
           0.2439 ( 15)  0.2476 ( 17) -0.1791 ( 19)  0.1382 ( 22)  0.1679 ( 24)
           0.1173 ( 25) -0.2555 ( 28) -0.1499 ( 30) -0.1009 ( 31) -0.2650 ( 35)
           0.2508 ( 37)
 CRD 34=   0.2416 (  1) -0.3148 (  2)  0.1920 (  3) -0.2202 (  4)  0.1592 (  7)
          -0.1631 ( 10)  0.2283 ( 11) -0.2074 ( 12)  0.2907 ( 13) -0.2304 ( 14)
           0.1263 ( 15) -0.1078 ( 17) -0.2537 ( 20) -0.2018 ( 22)  0.1380 ( 25)
          -0.1782 ( 27)  0.1406 ( 30) -0.1613 ( 31)  0.2137 ( 32) -0.1853 ( 33)
           0.2660 ( 34)  0.1791 ( 38)
 CRD 35=   0.3095 ( 40)  0.3168 ( 45)  0.2490 ( 46) -0.2616 ( 50)  0.1272 ( 54)
           0.2110 ( 55) -0.2562 ( 56)  0.2277 ( 57)  0.2800 ( 59) -0.2818 ( 61)
          -0.2790 ( 62)  0.1281 ( 63) -0.2626 ( 66) -0.2781 ( 68)  0.2557 ( 70)
 CRD 36=  -0.2004 (  1) -0.1403 (  2)  0.2962 (  5)  0.1531 (  6) -0.4104 (  9)
           0.1231 ( 10)  0.1191 ( 11)  0.2236 ( 14) -0.2466 ( 15)  0.1718 ( 19)
           0.2663 ( 21) -0.1530 ( 22)  0.1958 ( 23) -0.2357 ( 24)  0.1507 ( 25)
          -0.2211 ( 26)  0.1680 ( 27) -0.1476 ( 29)  0.1717 ( 30) -0.1039 ( 31)
           0.1457 ( 33)  0.1302 ( 36) -0.2028 ( 38) -0.1597 ( 39)
 CRD 37=  -0.2947 (  1)  0.1757 (  2)  0.2893 (  4) -0.1953 (  6)  0.3061 (  7)
          -0.3414 ( 10)  0.1877 ( 11)  0.1103 ( 13) -0.1179 ( 14) -0.1942 ( 15)
           0.1781 ( 17) -0.2086 ( 19)  0.1606 ( 20)  0.1914 ( 22) -0.2039 ( 24)
          -0.1823 ( 27) -0.1756 ( 28)  0.1930 ( 30)  0.1253 ( 32) -0.1346 ( 33)
           0.1627 ( 34)  0.1807 ( 35) -0.1943 ( 37) -0.1690 ( 38)
 CRD 38=  -0.1436 (  1) -0.1479 (  2)  0.3535 (  3) -0.1912 (  4)  0.2102 (  5)
          -0.1020 (  6) -0.2062 (  7)  0.2847 (  9) -0.1712 ( 10) -0.1236 ( 11)
           0.3508 ( 12) -0.1070 ( 17)  0.1003 ( 18) -0.1059 ( 19) -0.1224 ( 20)
           0.2228 ( 21) -0.1291 ( 22)  0.1953 ( 23)  0.1838 ( 25)  0.2439 ( 26)
          -0.1125 ( 27)  0.2129 ( 29) -0.1319 ( 30)  0.2138 ( 31) -0.1314 ( 34)
          -0.1004 ( 38)
 CRD 39=   0.2101 ( 42) -0.1098 ( 44)  0.1412 ( 45) -0.2043 ( 46) -0.1206 ( 49)
           0.1347 ( 50)  0.2360 ( 52) -0.3400 ( 53)  0.1345 ( 54) -0.1769 ( 55)
          -0.1270 ( 57)  0.2100 ( 58)  0.1708 ( 59)  0.2497 ( 63) -0.2248 ( 64)
          -0.2680 ( 65) -0.2395 ( 67)  0.3710 ( 69) -0.2063 ( 70) -0.2664 ( 71)
 CRD 40=  -0.1612 ( 40)  0.2186 ( 41)  0.1241 ( 42)  0.1469 ( 43)  0.1032 ( 45)
          -0.3099 ( 47) -0.2399 ( 48)  0.1263 ( 49) -0.1974 ( 50)  0.1723 ( 52)
           0.1018 ( 53) -0.2516 ( 55) -0.1818 ( 57)  0.3578 ( 58) -0.1867 ( 62)
           0.1025 ( 65) -0.1733 ( 66)  0.1503 ( 67) -0.2095 ( 68) -0.2773 ( 70)
           0.3977 ( 71)
 CRD 41=   0.2672 ( 41) -0.1579 ( 42)  0.1327 ( 43) -0.1269 ( 44)  0.1519 ( 45)
          -0.1878 ( 46)  0.1198 ( 48) -0.1844 ( 49) -0.3182 ( 51)  0.2536 ( 53)
           0.1504 ( 55) -0.1645 ( 56) -0.1325 ( 58)  0.3446 ( 59)  0.1754 ( 61)
           0.1015 ( 62) -0.2620 ( 63) -0.1370 ( 65)  0.2918 ( 66)  0.1216 ( 67)
          -0.1891 ( 68) -0.1121 ( 69) -0.3279 ( 70)
 CRD 42=  -0.2478 ( 41)  0.3319 ( 43)  0.2748 ( 47) -0.3012 ( 48) -0.3159 ( 49)
           0.2592 ( 51)  0.2247 ( 53) -0.1687 ( 55)  0.2535 ( 58) -0.1867 ( 59)
          -0.2072 ( 63)  0.2719 ( 66) -0.2662 ( 68)  0.1905 ( 70) -0.2218 ( 71)

 THE DETERMINANT OF THE G MATRIX IS 10**(   -26)


                     --------------------
                     INTERNAL COORDINATES
                     --------------------

                 - - ATOMS - -         COORDINATE      COORDINATE
 NO.   TYPE    I  J  K  L  M  N        (BOHR,RAD)       (ANG,DEG)
 ----------------------------------------------------------------
   1 STRETCH   1  2                     2.6481344       1.4013325
   2 STRETCH   1  4                     2.5812806       1.3659550
   3 STRETCH   1  3                     2.6341257       1.3939194
   4 STRETCH   2  8                     2.6315586       1.3925610
   5 STRETCH   2 11                     2.0515362       1.0856263
   6 STRETCH   3 12                     2.0542432       1.0870588
   7 STRETCH   3  5                     2.6471694       1.4008218
   8 STRETCH   4 13                     1.8333039       0.9701427
   9 STRETCH   5  7                     2.8092416       1.4865868
  10 STRETCH   5  6                     2.6450517       1.3997012
  11 STRETCH   6 14                     2.0475090       1.0834952
  12 STRETCH   6  8                     2.6381616       1.3960551
  13 STRETCH   7 10                     2.5652221       1.3574572
  14 STRETCH   7  9                     2.2976932       1.2158870
  15 STRETCH   8 15                     2.0528244       1.0863080
  16 STRETCH  10 16                     1.8425980       0.9750610
  17 BEND      1  3 12                  2.1193883     121.4320058
  18 BEND      1  4 13                  1.9020075     108.9769998
  19 BEND      1  3  5                  2.0924322     119.8875354
  20 BEND      1  2 11                  2.0733223     118.7926174
  21 BEND      1  2  8                  2.0906828     119.7872980
  22 BEND      2  1  3                  2.0931948     119.9312298
  23 BEND      2  8 15                  2.0835634     119.3793865
  24 BEND      2  8  6                  2.1090885     120.8418723
  25 BEND      2  1  4                  2.0474505     117.3102733
  26 BEND      3  5  6                  2.1020234     120.4370718
  27 BEND      3  5  7                  2.0454514     117.1957325
  28 BEND      3  1  4                  2.1425400     122.7584969
  29 BEND      5  3 12                  2.0713648     118.6804586
  30 BEND      5  6  8                  2.0789488     119.1149925
  31 BEND      5  6 14                  2.0951030     120.0405620
  32 BEND      5  7  9                  2.1803774     124.9264220
  33 BEND      5  7 10                  1.9751926     113.1701973
  34 BEND      6  5  7                  2.1357105     122.3671952
  35 BEND      6  8 15                  2.0905334     119.7787403
  36 BEND      7 10 16                  1.8424212     105.5629602
  37 BEND      8  6 14                  2.1091335     120.8444452
  38 BEND      8  2 11                  2.1191802     121.4200842
  39 BEND      9  7 10                  2.1276152     121.9033727
  40 TORSION   1  2  8 15               3.1414765     179.9933449
  41 TORSION   1  2  8  6               0.0000747       0.0042822
  42 TORSION   1  3  5  7               3.1414715     179.9930561
  43 TORSION   1  3  5  6               0.0000085       0.0004846
  44 TORSION   2  1  4 13              -3.1410211    -179.9672527
  45 TORSION   2  1  3 12               3.1414604     179.9924201
  46 TORSION   2  8  6 14               3.1415818     179.9993782
  47 TORSION   2  8  6  5              -0.0001069      -0.0061272
  48 TORSION   2  1  3  5              -0.0000415      -0.0023756
  49 TORSION   3  5  6  8               0.0000650       0.0037269
  50 TORSION   3  5  6 14               3.1415624     179.9982667
  51 TORSION   3  1  2  8               0.0000004       0.0000234
  52 TORSION   3  1  2 11               3.1414576     179.9922629
  53 TORSION   3  5  7  9               0.0004866       0.0278793
  54 TORSION   3  5  7 10               3.1415162     179.9956207
  55 TORSION   3  1  4 13               0.0005740       0.0328861
  56 TORSION   4  1  3  5               3.1415487     179.9974821
  57 TORSION   4  1  2  8              -3.1415899    -179.9998419
  58 TORSION   4  1  3 12              -0.0001348      -0.0077222
  59 TORSION   4  1  2 11              -0.0001327      -0.0076025
  60 TORSION   5  7 10 16               3.1414163     179.9898979
  61 TORSION   5  6  8 15              -3.1415079    -179.9951466
  62 TORSION   6  5  3 12              -3.1414959    -179.9944538
  63 TORSION   6  5  7 10              -0.0002088      -0.0119621
  64 TORSION   6  5  7  9              -3.1412384    -179.9797036
  65 TORSION   6  8  2 11              -3.1413788    -179.9877481
  66 TORSION   7  5  6 14               0.0001063       0.0060894
  67 TORSION   7  5  6  8              -3.1413911    -179.9884504
  68 TORSION   7  5  3 12              -0.0000329      -0.0018823
  69 TORSION   9  7 10 16              -0.0007201      -0.0412566
  70 TORSION  11  2  8 15               0.0000229       0.0013146
  71 TORSION  14  6  8 15               0.0001808       0.0103588

     ------------------------------------------
     THE POINT GROUP IS C1 , NAXIS= 1, ORDER= 1
     ------------------------------------------

     DIMENSIONS OF THE SYMMETRY SUBSPACES ARE
 A   =  226

 ..... DONE SETTING UP THE RUN .....
 STEP CPU TIME =     0.02 TOTAL CPU TIME =        0.0 (    0.0 MIN)
 TOTAL WALL CLOCK TIME=        0.0 SECONDS, CPU UTILIZATION IS 200.00%


          -----------------------------
          STATIONARY POINT LOCATION RUN
          -----------------------------

 OBTAINING INITIAL HESSIAN, HESS=GUESS   
 DIAGONAL GUESS HESSIAN IN INTERNAL COORDS IS
     1  0.4715     2  0.4078     3  0.4784     4  0.4796     5  0.3493
     6  0.3484     7  0.4720     8  0.3531     9  0.3995    10  0.4730
    11  0.3508    12  0.4764    13  0.4146    14  0.5460    15  0.3489
    16  0.3497    17  0.2326    18  0.2177    19  0.2682    20  0.2322
    21  0.2683    22  0.2682    23  0.2327    24  0.2687    25  0.2565
    26  0.2678    27  0.2611    28  0.2571    29  0.2322    30  0.2682
    31  0.2325    32  0.2614    33  0.2510    34  0.2612    35  0.2325
    36  0.2179    37  0.2327    38  0.2328    39  0.2575    40  0.2500
    41  0.2500    42  0.2500    43  0.2500    44  0.2500    45  0.2500
    46  0.2500    47  0.2500    48  0.2500    49  0.2500    50  0.2500
    51  0.2500    52  0.2500    53  0.2500    54  0.2500    55  0.2500
    56  0.2500    57  0.2500    58  0.2500    59  0.2500    60  0.2500
    61  0.2500    62  0.2500    63  0.2500    64  0.2500    65  0.2500
    66  0.2500    67  0.2500    68  0.2500    69  0.2500    70  0.2500
    71  0.2500
 TRANSFORMING HESSIAN TO SYMMETRY COORDINATES

          PARAMETERS CONTROLLING GEOMETRY SEARCH ARE
          METHOD =QA                  UPHESS =BFGS    
          NNEG   =         0          NFRZ   =         3
          NSTEP  =        50          IFOLOW =         1
          HESS   =GUESS               RESTAR =         F
          IHREP  =         0          HSSEND =         F
          NPRT   =         0          NPUN   =         0
          OPTTOL = 5.000E-04          RMIN   = 1.500E-03
          RMAX   = 1.000E-01          RLIM   = 7.000E-02
          DXMAX  = 3.000E-01          PURIFY =         F
          MOVIE  =         F          TRUPD  =         T
          TRMAX  = 5.000E-01          TRMIN  = 5.000E-02
          ITBMAT =         5          STPT   =         F
          STSTEP = 1.000E-02          PROJCT=          F
          FROZEN COORD(S)=   1   2   3


      ***** EQUILIBRIUM GEOMETRY LOCATED *****
            (SUBJECT TO   3 CONSTRAINT(S))
 COORDINATES OF ALL ATOMS ARE (ANGS)
   ATOM   CHARGE       X              Y              Z
 ------------------------------------------------------------
 C           6.0   6.3401294183   1.8652576461  -0.6304209595
 C           6.0   6.8790153350   0.6178596856  -0.3401310899
 C           6.0   4.9694404276   2.0296746832  -0.7008236267
 O           8.0   7.2030869151   2.8823331337  -0.8349433339
 C           6.0   4.1258765354   0.9427478501  -0.4804509287
 C           6.0   4.6578372678  -0.3051580412  -0.1902275728
 C           6.0   2.6500873314   1.1828821864  -0.5703595293
 C           6.0   6.0380868612  -0.4550129932  -0.1227320475
 O           8.0   2.1668927515   2.2431041990  -0.8178936532
 O           8.0   1.9125120808   0.1131219337  -0.3512411232
 H           1.0   7.9478069110   0.5061531596  -0.2889435929
 H           1.0   4.5564024729   2.9953131410  -0.9253594265
 H           1.0   6.7440119758   3.6853562686  -1.0241008951
 H           1.0   4.0198359540  -1.1496048464  -0.0185897020
 H           1.0   6.4632183100  -1.4167128746   0.1012416438
 H           1.0   0.9928912375   0.3417302458  -0.4247827835


                     --------------------
                     INTERNAL COORDINATES
                     --------------------

                 - - ATOMS - -         COORDINATE      COORDINATE
 NO.   TYPE    I  J  K  L  M  N        (BOHR,RAD)       (ANG,DEG)
 ----------------------------------------------------------------
   1 STRETCH   1  2                     2.6257455       1.3894848
   2 STRETCH   1  4                     2.5500573       1.3494323
   3 STRETCH   1  3                     2.6121850       1.3823089
   4 STRETCH   2  8                     2.6085604       1.3803908
   5 STRETCH   2 11                     2.0330272       1.0758317
   6 STRETCH   3 12                     2.0295642       1.0739992
   7 STRETCH   3  5                     2.6331513       1.3934038
   8 STRETCH   4 13                     1.7841421       0.9441274
   9 STRETCH   5  7                     2.8306189       1.4978991
  10 STRETCH   5  6                     2.6215349       1.3872566
  11 STRETCH   6 14                     2.0261490       1.0721920
  12 STRETCH   6  8                     2.6267199       1.3900004
  13 STRETCH   7 10                     2.4901520       1.3177318
  14 STRETCH   7  9                     2.2509333       1.1911427
  15 STRETCH   8 15                     2.0315808       1.0750663
  16 STRETCH  10 16                     1.7961074       0.9504592
  17 BEND      1  3 12                  2.0931687     119.9297295
  18 BEND      1  4 13                  1.9395749     111.1294573
  19 BEND      1  3  5                  2.0937852     119.9650537
  20 BEND      1  2 11                  2.0811074     119.2386703
  21 BEND      1  2  8                  2.0879218     119.6291071
  22 BEND      2  1  3                  2.0966974     120.1319142
  23 BEND      2  8 15                  2.0796442     119.1548346
  24 BEND      2  8  6                  2.1100353     120.8961146
  25 BEND      2  1  4                  2.0491074     117.4052050
  26 BEND      3  5  6                  2.0974398     120.1744512
  27 BEND      3  5  7                  2.0509504     117.5107993
  28 BEND      3  1  4                  2.1373805     122.4628808
  29 BEND      5  3 12                  2.0962315     120.1052169
  30 BEND      5  6  8                  2.0804911     119.2033590
  31 BEND      5  6 14                  2.1103912     120.9165116
  32 BEND      5  7  9                  2.1589619     123.6994074
  33 BEND      5  7 10                  1.9947222     114.2891614
  34 BEND      6  5  7                  2.1347951     122.3147495
  35 BEND      6  8 15                  2.0935059     119.9490504
  36 BEND      7 10 16                  1.9107482     109.4778066
  37 BEND      8  6 14                  2.0923030     119.8801293
  38 BEND      8  2 11                  2.1141561     121.1322225
  39 BEND      9  7 10                  2.1295012     122.0114297
  40 TORSION   1  2  8 15               3.1415211     179.9959008
  41 TORSION   1  2  8  6               0.0000584       0.0033476
  42 TORSION   1  3  5  7              -3.1415189    -179.9957737
  43 TORSION   1  3  5  6               0.0000744       0.0042623
  44 TORSION   2  1  4 13              -3.1410503    -179.9689234
  45 TORSION   2  1  3 12               3.1415067     179.9950732
  46 TORSION   2  8  6 14               3.1415226     179.9959846
  47 TORSION   2  8  6  5              -0.0000644      -0.0036910
  48 TORSION   2  1  3  5              -0.0000807      -0.0046222
  49 TORSION   3  5  6  8              -0.0000023      -0.0001293
  50 TORSION   3  5  6 14              -3.1415892    -179.9998014
  51 TORSION   3  1  2  8               0.0000147       0.0008448
  52 TORSION   3  1  2 11               3.1415450     179.9972671
  53 TORSION   3  5  7  9               0.0001832       0.0104944
  54 TORSION   3  5  7 10               3.1415342     179.9966519
  55 TORSION   3  1  4 13               0.0005748       0.0329324
  56 TORSION   4  1  3  5               3.1414787     179.9934729
  57 TORSION   4  1  2  8              -3.1415463    -179.9973448
  58 TORSION   4  1  3 12              -0.0001192      -0.0068317
  59 TORSION   4  1  2 11              -0.0000161      -0.0009225
  60 TORSION   5  7 10 16               3.1415813     179.9993521
  61 TORSION   5  6  8 15              -3.1415261    -179.9961854
  62 TORSION   6  5  3 12              -3.1415129    -179.9954326
  63 TORSION   6  5  7 10              -0.0000591      -0.0033850
  64 TORSION   6  5  7  9              -3.1414101    -179.9895425
  65 TORSION   6  8  2 11              -3.1414706    -179.9930052
  66 TORSION   7  5  6 14               0.0000041       0.0002365
  67 TORSION   7  5  6  8               3.1415911     179.9999086
  68 TORSION   7  5  3 12               0.0000791       0.0045314
  69 TORSION   9  7 10 16              -0.0002484      -0.0142296
  70 TORSION  11  2  8 15              -0.0000079      -0.0004520
  71 TORSION  14  6  8 15               0.0000609       0.0034902

          INTERNUCLEAR DISTANCES (ANGS.)


 =====================================================
   GAMESS/COSab RESULTS
 =====================================================

   Dielectric Constant                  = INFTY
   Basic Grid Size                      =                 1082
   Number of Segments                   =                   92
   Number of Segments located on spheres=                  304
   Number of Segments of the cavity     =                  647
   Solvent Radius (rsolv)               = 1.40
   Outlying Charge Error Method         = double cavity

 =====================================================

  Total solvated Energy (a.u.)          =  -493.3298157419
  Total Energy corrected (a.u.)         =  -493.3300998772

  Outlying charge effect (a.u.)         =    -0.0002841353
  Outlying charge effect (kcal/mol)     =    -0.1782977699

  Dielectric Energy (a.u.)              =    -0.0233844945
  Dielectric energy corr. (a.u.)        =    -0.0236686298

  Sum of polarization charges           =     0.0167331278
  Sum of polarization charges(cor.)     =    -0.0167331278

  Total surface area of cavity (A**2)   =  161.48
  Total volume of cavity (A**3)         =  155.97

 =====================================================
 NPS=                   647
NR.  ATOM  (X, Y, Z)(a.u.)                  CHARGE(e)  AREA(A**2) SIGMA(e/A**2)
   1   1  11.340639   3.509140   2.533423   0.000383   0.092912   0.004126
   2   1  11.537032   6.121640   1.518571  -0.000235   0.139368  -0.001685
   3   1  12.998043   3.454630  -4.830725  -0.000169   0.232280  -0.000728
   4   1  12.131139   5.542100   2.001211   0.000086   0.139368   0.000615
   5   1  13.469613   4.684874   2.083252   0.000121   0.139368   0.000868
   6   1  13.740316   3.067661  -4.505012   0.000147   0.139368   0.001057
   7   1  11.791940   4.566532  -4.819459  -0.000196   0.139368  -0.001406
   8   1  11.619173   5.437894   2.048021   0.000129   0.185824   0.000694
   9   1  11.433827   4.341553   2.458008   0.000553   0.232280   0.002380
  10   1  12.188523   3.978844   2.555013   0.000555   0.185824   0.002986
  11   1  13.089909   4.298338   2.338045   0.000138   0.139368   0.000990
  12   1  12.752448   2.683142  -4.794231   0.000318   0.278737   0.001142
  13   1  11.941243   3.698455  -4.966583   0.000245   0.325193   0.000754
  14   1  11.734098   2.366687  -4.780478   0.001372   0.418105   0.003281
  15   1  12.481545   4.909408   2.289579  -0.000092   0.325193  -0.000284
  16   2  12.178171   0.409488  -4.253168   0.000792   0.139368   0.005686
  17   2  14.681355  -1.200367  -3.061089   0.000873   0.325193   0.002684
  18   2  14.535793   1.642757   2.777493   0.001051   0.371649   0.002828
  19   2  15.452729   1.371143   2.225039   0.000398   0.371649   0.001072
  20   2  15.708755   1.569765  -3.247025  -0.000085   0.232280  -0.000366
  21   2  15.433409  -0.814505  -2.747868   0.000116   0.278737   0.000415
  22   2  15.464186  -1.274776   0.855332  -0.000610   0.092912  -0.006561
  23   2  15.313804  -1.514360  -1.960054  -0.000049   0.185824  -0.000266
  24   2  14.883961  -0.261271  -3.590859   0.000892   0.325193   0.002744
  25   2  15.006528   1.266535  -3.843716   0.000663   0.371649   0.001785
  26   2  14.854320   2.673116   2.285907   0.000707   0.371649   0.001903
  27   2  14.692981   0.299405   2.622591   0.001062   0.371649   0.002858
  28   2  15.263161  -0.737369   1.709065   0.000204   0.185824   0.001098
  29   2  13.886635  -0.498589  -3.917063   0.001720   0.325193   0.005288
  30   2  12.995739   0.025313  -4.245464   0.001088   0.232280   0.004684
  31   2  13.131381   0.737530  -4.395347   0.001376   0.232280   0.005923
  32   2  14.108086   1.326207  -4.252473   0.000621   0.232280   0.002673
  33   2  13.626051   2.469108   2.849754   0.002076   0.511017   0.004063
  34   2  13.607591   1.051592   3.085642   0.001860   0.418105   0.004448
  35   2  15.590053   2.576502   1.721134  -0.000116   0.278737  -0.000418
  36   2  15.507426   0.448056  -3.377102   0.000367   0.278737   0.001317
  37   2  15.435590  -1.668660  -1.195278  -0.000314   0.092912  -0.003383
  38   2  15.312709   0.044292   2.126961   0.000055   0.232280   0.000235
  39   2  12.363680   1.978510   2.993507   0.002787   0.464561   0.006000
  40   2  14.169549   0.473146  -4.168792   0.000963   0.278737   0.003455
  41   3   9.597171   3.790199   2.449185   0.000822   0.139368   0.005896
  42   3   9.983270   6.809427   0.931566  -0.000139   0.185824  -0.000747
  43   3   8.978226   4.508658  -5.020421   0.000852   0.325193   0.002621
  44   3   8.426476   5.462633  -4.596469   0.000353   0.418105   0.000844
  45   3   9.291961   7.118151   0.546150  -0.000302   0.139368  -0.002165
  46   3   8.012561   6.046070   1.413884   0.000564   0.371649   0.001518
  47   3   9.308386   6.511094   1.343740   0.000457   0.232280   0.001966
  48   3   9.881921   5.230934  -4.802283   0.000433   0.371649   0.001166
  49   3   8.040827   4.383048  -4.811743   0.000474   0.232280   0.002040
  50   3   8.200815   5.105944   2.030344   0.001321   0.325193   0.004062
  51   3   9.005621   4.469584   2.381554   0.001020   0.232280   0.004390
  52   3   9.666462   4.797666   2.320168   0.001422   0.232280   0.006120
  53   3   9.920454   5.906142   1.792742   0.000833   0.278737   0.002988
  54   3   9.822889   3.817603  -5.078997   0.002059   0.464561   0.004432
  55   3   8.544552   3.377242  -4.979217   0.001365   0.325193   0.004197
  56   3   9.454894   5.951324  -4.455420  -0.000251   0.232280  -0.001082
  57   3   8.414380   6.694742   0.946228   0.000259   0.325193   0.000797
  58   3   9.636778   2.515525  -4.857263   0.002492   0.464561   0.005365
  59   3   9.084119   5.657424   1.972734   0.000949   0.278737   0.003406
  60   4  15.888986   5.714381   0.726041   0.004261   0.274871   0.015503
  61   4  16.696298   5.385764  -2.601081   0.004069   0.274871   0.014804
  62   4  15.424841   8.128460  -1.283672   0.000545   0.274871   0.001981
  63   4  14.275163   6.858510  -4.429433   0.001758   0.343589   0.005118
  64   4  12.894761   7.355939   0.953142   0.000619   0.240512   0.002572
  65   4  16.020401   4.965577   0.551028   0.002857   0.171795   0.016630
  66   4  16.748587   4.738612  -2.051049   0.004010   0.240512   0.016671
  67   4  16.520110   5.658588  -0.141900   0.005468   0.343589   0.015913
  68   4  16.855473   5.516637  -1.381139   0.004280   0.274871   0.015570
  69   4  16.263549   4.582067  -3.246735   0.007395   0.446666   0.016556
  70   4  15.450518   4.267090  -3.984498   0.004047   0.274871   0.014724
  71   4  15.072067   5.435837   1.326036   0.004327   0.309230   0.013992
  72   4  15.363027   8.052691  -2.418911  -0.000405   0.274871  -0.001475
  73   4  15.003666   7.563180  -3.614594   0.000453   0.309230   0.001464
  74   4  13.506290   6.314710  -4.708341   0.001086   0.240512   0.004514
  75   4  12.683783   6.064201  -4.631027   0.000091   0.171795   0.000532
  76   4  13.927173   7.903433   0.527016   0.001249   0.309230   0.004039
  77   4  14.791698   8.172340  -0.257143   0.000769   0.309230   0.002486
  78   4  16.076417   6.675547   0.148691   0.004872   0.343589   0.014178
  79   4  15.804559   7.560218  -0.441926   0.003471   0.377948   0.009184
  80   4  16.173074   7.435593  -1.800419   0.003807   0.481025   0.007915
  81   4  16.660319   6.391285  -2.193814   0.004973   0.377948   0.013158
  82   4  16.268359   6.040862  -3.353956   0.005671   0.412307   0.013755
  83   4  15.384597   6.466089  -4.104284   0.004929   0.446666   0.011034
  84   4  14.428075   5.754077  -4.708940   0.003941   0.343589   0.011469
  85   4  14.548135   4.703523  -4.600306   0.004365   0.309230   0.014117
  86   4  13.366027   6.761790   1.384470   0.002647   0.274871   0.009631
  87   4  14.144922   7.155460   1.135317   0.002878   0.274871   0.010471
  88   4  15.164804   6.536280   1.061524   0.004568   0.309230   0.014771
  89   4  16.701695   4.942911  -0.703978   0.003767   0.240512   0.015661
  90   4  16.616053   6.525391  -0.964542   0.005123   0.377948   0.013555
  91   4  15.495884   5.244934  -4.218693   0.005674   0.377948   0.015013
  92   4  14.365588   6.154836   1.503629   0.003272   0.274871   0.011904
  93   4  15.895092   7.209159  -3.076340   0.003051   0.412307   0.007401
  94   4  13.488568   5.271875  -4.821079   0.002038   0.240512   0.008474
  95   4  15.129597   7.420315   0.511790   0.004252   0.377948   0.011250
  96   5   7.064479   1.767286   2.799883   0.000258   0.139368   0.001853
  97   5   7.377771   3.281502   2.535745   0.000460   0.185824   0.002477
  98   5   7.250558   2.471336   2.767689   0.000798   0.185824   0.004296
  99   5   7.923843   2.182679   2.848037   0.000446   0.139368   0.003201
 100   5   8.586730   0.930031  -4.504466   0.002134   0.371649   0.005743
 101   5   7.525802   1.571869  -4.671808   0.000817   0.278737   0.002932
 102   5   7.370953   0.338043  -4.374795   0.000958   0.371649   0.002577
 103   5   8.332202   2.744781   2.707292   0.001388   0.232280   0.005974
 104   6   9.218958   1.048522   3.027136   0.000513   0.092912   0.005526
 105   6   8.941722  -2.285129   3.008878   0.000957   0.325193   0.002943
 106   6   8.140016  -2.741874  -3.385679   0.000790   0.278737   0.002833
 107   6   7.461973  -3.270168  -2.647170   0.000385   0.371649   0.001035
 108   6   8.206297  -2.708111   2.704214   0.000153   0.278737   0.000550
 109   6   8.994982  -4.317375  -0.863574  -0.000284   0.092912  -0.003055
 110   6   8.917593  -3.331923   2.224974  -0.000246   0.185824  -0.001322
 111   6   8.046243  -1.674093   3.177272   0.000859   0.325193   0.002642
 112   6   6.954855  -0.814263   2.929234   0.000581   0.278737   0.002085
 113   6   7.140778  -2.282423  -3.294590   0.000922   0.418105   0.002205
 114   6   8.809664  -3.513821  -2.737995   0.000931   0.371649   0.002504
 115   6   9.021272  -4.111432  -1.679184   0.000438   0.185824   0.002356
 116   6   8.840767  -0.983103   3.397847   0.001615   0.325193   0.004965
 117   6   9.167705   0.257658   3.308545   0.001153   0.232280   0.004963
 118   6   8.393127   0.577102   3.216246   0.001230   0.185824   0.006621
 119   6   7.449002  -0.064684   3.132132   0.000838   0.232280   0.003610
 120   6   8.027976  -1.547233  -3.929231   0.002308   0.511017   0.004517
 121   6   9.090119  -2.464859  -3.620773   0.001827   0.418105   0.004370
 122   6   7.062196  -1.753261   2.782613   0.000243   0.325193   0.000748
 123   6   9.071720  -3.794750   1.604041  -0.000058   0.092912  -0.000623
 124   6   8.362599  -3.913313  -2.079344  -0.000080   0.185824  -0.000429
 125   6   9.261760  -0.992631  -4.087743   0.002882   0.464561   0.006205
 126   6   8.158259  -0.395699   3.360331   0.001277   0.325193   0.003928
 127   7   5.261076   0.089087  -4.178454  -0.001474   0.185824  -0.007933
 128   7   5.652623   3.044960  -4.712811  -0.000467   0.139368  -0.003352
 129   7   2.562958   1.772110  -3.922427  -0.001039   0.139368  -0.007453
 130   7   4.312279   3.985521   2.198923  -0.000657   0.185824  -0.003536
 131   7   4.927146   1.670992   2.658384  -0.002400   0.325193  -0.007382
 132   7   5.109742   2.568953  -4.841146  -0.000713   0.185824  -0.003839
 133   7   3.406267   2.033682  -4.495170  -0.000787   0.232280  -0.003389
 134   7   2.411137   3.098782   1.528950  -0.000380   0.092912  -0.004095
 135   7   3.385541   3.661039   2.023686  -0.000302   0.139368  -0.002165
 136   7   5.664611   2.030079  -4.794131  -0.001433   0.232280  -0.006168
 137   7   5.390117   1.134031  -4.673014  -0.002519   0.278737  -0.009036
 138   7   4.521655   0.694103  -4.494323  -0.003029   0.371649  -0.008150
 139   7   3.376564   1.270382  -4.347654  -0.001454   0.278737  -0.005218
 140   7   4.046133   2.427902   2.572118  -0.002015   0.278737  -0.007228
 141   7   4.078344   3.308183   2.424895  -0.002076   0.325193  -0.006385
 142   7   5.412701   4.025060   2.226298  -0.002692   0.464561  -0.005795
 143   7   5.217662   2.726102   2.663751  -0.003214   0.371649  -0.008648
 144   7   4.392087   1.998349  -4.799228  -0.002577   0.418105  -0.006163
 145   7   2.982575   2.866690   2.050034  -0.001948   0.325193  -0.005992
 146   8  11.084735  -0.864560  -3.997319   0.000854   0.139368   0.006129
 147   8  10.727398  -3.726855  -2.597965   0.000883   0.325193   0.002716
 148   8  13.725240  -2.728216  -2.563147   0.000578   0.278737   0.002073
 149   8  11.889528  -1.626344   3.437836   0.000907   0.371649   0.002441
 150   8  12.225301  -2.594372   3.025611   0.000344   0.371649   0.000926
 151   8  14.400620  -2.063825   1.741101  -0.000050   0.092912  -0.000537
 152   8  14.175785  -2.947890  -1.740746   0.000064   0.278737   0.000229
 153   8  11.363767  -4.139075  -2.110428   0.000136   0.278737   0.000487
 154   8  10.411471  -3.912325   1.760307  -0.000053   0.092912  -0.000571
 155   8  10.555466  -4.333343  -1.451896  -0.000221   0.185824  -0.001189
 156   8  11.727394  -3.456806  -2.959474   0.000727   0.325193   0.002237
 157   8  12.943967  -2.927442  -2.999095   0.000531   0.232280   0.002287
 158   8  14.001936  -1.886154   2.320430  -0.000066   0.185824  -0.000355
 159   8  13.093227  -1.397499   3.109190   0.001134   0.418105   0.002711
 160   8  10.863360  -2.470915   3.142923   0.000834   0.371649   0.002243
 161   8  10.471901  -3.388144   2.415979   0.000285   0.185824   0.001532
 162   8  11.097497  -2.760009  -3.483966   0.001469   0.325193   0.004516
 163   8  11.164046  -1.758566  -3.894695   0.000991   0.232280   0.004267
 164   8  11.863119  -1.516859  -3.926182   0.001536   0.232280   0.006612
 165   8  12.887623  -2.089655  -3.486059   0.000932   0.278737   0.003345
 166   8  12.122138  -0.417478   3.453440   0.002397   0.511017   0.004691
 167   8  10.868007  -1.117738   3.499520   0.001613   0.418105   0.003858
 168   8  13.319401  -2.148909   2.764411   0.000164   0.232280   0.000708
 169   8  12.687023  -3.583833  -2.519761   0.000401   0.325193   0.001232
 170   8  10.332481  -4.451505  -0.703673  -0.000050   0.092912  -0.000535
 171   8  11.177006  -3.195310   2.730420   0.000017   0.185824   0.000093
 172   8  11.052753   0.413404   3.308591   0.002731   0.464561   0.005879
 173   8  12.109275  -2.517471  -3.555776   0.000914   0.278737   0.003278
 174   9   2.862237   7.171738  -2.211617   0.004846   0.377948   0.012822
 175   9   4.999697   5.831447  -4.230652   0.004272   0.274871   0.015540
 176   9   3.324845   6.175183   0.948882   0.004272   0.343589   0.012434
 177   9   0.946259   4.761392  -0.930712   0.005519   0.309230   0.017846
 178   9   2.170114   4.334747  -4.163018   0.004135   0.309230   0.013372
 179   9   3.559391   6.996769  -3.180186   0.005473   0.412307   0.013274
 180   9   4.489282   6.597627  -3.746793   0.005264   0.343589   0.015320
 181   9   3.874156   7.459539  -1.923988   0.004705   0.343589   0.013695
 182   9   4.637670   7.441359  -1.427359   0.005325   0.309230   0.017220
 183   9   2.857608   7.194677  -1.000552   0.005316   0.412307   0.012893
 184   9   2.822381   6.747275   0.083321   0.004860   0.377948   0.012860
 185   9   1.904447   6.631039  -1.756157   0.005097   0.377948   0.013487
 186   9   1.231977   5.773200  -1.425174   0.005230   0.343589   0.015222
 187   9   2.238131   6.464537  -3.016536   0.006331   0.481025   0.013160
 188   9   2.052077   5.505876  -3.733394   0.005658   0.412307   0.013723
 189   9   4.820677   7.120381  -0.228539   0.004237   0.274871   0.015416
 190   9   4.128390   6.747546   0.520807   0.004609   0.343589   0.013415
 191   9   2.203351   5.734552   0.633819   0.005551   0.412307   0.013463
 192   9   1.404050   5.358547  -0.106625   0.005100   0.343589   0.014842
 193   9   0.900849   4.607761  -2.022058   0.005875   0.343589   0.017099
 194   9   1.397360   4.581892  -3.326215   0.004687   0.309230   0.015157
 195   9   2.979470   4.910582  -4.523748   0.005690   0.446666   0.012739
 196   9   4.051357   5.568543  -4.511180   0.004409   0.343589   0.012833
 197   9   4.792505   5.739906   1.251682   0.002000   0.171795   0.011641
 198   9   4.052285   5.630625   1.391380   0.002002   0.240512   0.008325
 199   9   2.947008   5.140235   1.358654   0.004552   0.377948   0.012043
 200   9   1.335749   4.602089   0.133738   0.003053   0.206154   0.014810
 201   9   1.871793   3.481379  -3.792582   0.004114   0.309230   0.013303
 202   9   2.888277   3.649941  -4.505668   0.002652   0.274871   0.009649
 203   9   4.937736   4.867099  -4.621220   0.003426   0.274871   0.012463
 204   9   4.627429   7.200492  -2.774305   0.004696   0.274871   0.017085
 205   9   3.813908   7.306721  -0.509274   0.004647   0.343589   0.013526
 206   9   1.820718   6.330500  -0.536589   0.005748   0.412307   0.013941
 207   9   1.306780   5.543256  -2.589604   0.006831   0.446666   0.015293
 208   9   3.212110   6.129350  -4.037881   0.005306   0.412307   0.012868
 209   9   4.923955   6.382169   0.752976   0.003451   0.240512   0.014347
 210   9   1.958740   4.505888   0.889655   0.003361   0.274871   0.012228
 211   9   1.176504   3.929149  -2.942760   0.003328   0.206154   0.016144
 212   9   4.074121   4.256058  -4.795812   0.004790   0.412307   0.011618
 213  10   3.981693  -2.321215  -2.664610   0.003756   0.240512   0.015618
 214  10   3.505300  -2.456415   1.186354   0.002798   0.206154   0.013573
 215  10   1.621908  -2.333305  -0.992536   0.000020   0.274871   0.000073
 216  10   1.774369  -0.315411   1.963002   0.000877   0.343589   0.002552
 217  10   2.252525  -0.275939  -3.574231   0.000215   0.240512   0.000893
 218  10   3.891929  -1.619932   2.005513   0.003406   0.240512   0.014161
 219  10   4.209466  -0.543561   2.440540   0.001508   0.137436   0.010970
 220  10   4.367330  -1.453334  -3.350413   0.001875   0.171795   0.010914
 221  10   1.406353  -2.049541   0.089750  -0.000929   0.274871  -0.003379
 222  10   1.490114  -1.353373   1.232883  -0.000186   0.309230  -0.000602
 223  10   2.025604   0.616845   2.143150   0.000346   0.240512   0.001440
 224  10   2.086478   1.368971   1.962342  -0.000146   0.137436  -0.001064
 225  10   1.890863  -1.185815  -3.037816   0.000310   0.309230   0.001001
 226  10   1.667540  -1.936083  -2.131259   0.000062   0.309230   0.000199
 227  10   3.464413  -2.792117  -1.891311   0.003927   0.309230   0.012700
 228  10   2.451145  -2.672283  -1.603340   0.002633   0.377948   0.006966
 229  10   2.335766  -2.737855  -0.196490   0.002970   0.481025   0.006174
 230  10   3.170136  -2.775681   0.532361   0.002675   0.240512   0.011122
 231  10   3.030754  -1.929552   1.709106   0.002815   0.274871   0.010241
 232  10   2.434191  -1.227439   1.999941   0.003021   0.377948   0.007993
 233  10   2.782110  -0.082120   2.464311   0.002928   0.343589   0.008521
 234  10   3.747420   0.206626   2.583828   0.003213   0.309230   0.010391
 235  10   3.005310  -0.404518  -3.796121   0.001013   0.206154   0.004913
 236  10   2.792448  -1.277834  -3.432260   0.002151   0.274871   0.007827
 237  10   3.543903  -1.870832  -3.156579   0.002637   0.240512   0.010963
 238  10   3.387487  -3.028572  -0.686259   0.004399   0.343589   0.012803
 239  10   3.518353  -0.910573   2.384408   0.002830   0.240512   0.011765
 240  10   3.739798  -1.048319  -3.656414   0.001771   0.206154   0.008592
 241  10   2.173886  -2.181493   0.995474   0.002280   0.412307   0.005530
 242  10   2.813104   0.974551   2.393069   0.001010   0.171795   0.005879
 243  10   2.641359  -2.168414  -2.649598   0.003210   0.377948   0.008492
 244  11  17.444101   0.627878  -0.329591  -0.005846   0.569203  -0.010271
 245  11  16.614201  -0.609690  -1.564885  -0.002596   0.372926  -0.006962
 246  11  16.476727  -0.694181   0.542992  -0.002523   0.353299  -0.007142
 247  11  16.680684   1.274862   1.235305  -0.002281   0.353299  -0.006455
 248  11  16.875833   1.343419  -2.107488  -0.003215   0.412182  -0.007801
 249  11  16.813298  -0.718685  -0.445888  -0.004097   0.490692  -0.008349
 250  11  16.849288   0.275997   0.944859  -0.003974   0.490692  -0.008099
 251  11  17.076990   1.924226   0.383476  -0.004797   0.510320  -0.009400
 252  11  17.285752   1.765418  -1.039311  -0.004484   0.471065  -0.009518
 253  11  17.039566   0.299838  -1.779682  -0.004040   0.490692  -0.008232
 254  12   7.659939   7.877669  -2.212600  -0.004267   0.372926  -0.011443
 255  12   8.326815   6.888455  -3.857324  -0.002556   0.333671  -0.007661
 256  12   8.614403   7.833864  -0.603757  -0.002526   0.274788  -0.009192
 257  12   7.691297   7.258411  -3.372427  -0.002772   0.274788  -0.010088
 258  12   8.542253   7.733502  -3.064885  -0.003704   0.333671  -0.011102
 259  12   8.506421   8.114749  -1.759672  -0.003642   0.333671  -0.010914
 260  12   7.708065   7.692585  -0.704197  -0.003843   0.412182  -0.009323
 261  13  11.564613   9.058316  -2.443698  -0.010645   0.471065  -0.022598
 262  13  13.303563   8.397675  -3.850443  -0.007530   0.451437  -0.016680
 263  13  13.789796   9.181888  -1.778760  -0.007601   0.431809  -0.017604
 264  13  12.092790   8.509211  -0.139766  -0.006936   0.392554  -0.017669
 265  13  11.693417   7.797641  -3.993487  -0.005989   0.274788  -0.021794
 266  13  12.841076   9.273793  -2.767175  -0.009540   0.471065  -0.020252
 267  13  12.527741   9.358660  -1.430018  -0.007743   0.392554  -0.019726
 268  13  11.552716   8.954599  -1.126646  -0.008504   0.392554  -0.021664
 269  13  11.966782   8.645609  -3.548892  -0.009577   0.451437  -0.021215
 270  13  13.969468   8.858943  -2.907162  -0.005545   0.353299  -0.015696
 271  13  13.205773   8.985846  -0.617861  -0.006102   0.392554  -0.015544
 272  13  12.512446   7.576099  -4.303199  -0.004015   0.294415  -0.013638
 273  14   6.328684  -4.165403   0.640272  -0.005234   0.490692  -0.010667
 274  14   7.426913  -3.871540   1.731076  -0.002636   0.392554  -0.006715
 275  14   7.974139  -4.597481  -0.142884  -0.002460   0.333671  -0.007374
 276  14   6.715363  -3.946163  -1.488681  -0.002760   0.372926  -0.007401
 277  14   7.644702  -4.479074   0.808818  -0.003996   0.451437  -0.008852
 278  14   7.246094  -4.494226  -0.757438  -0.002787   0.353299  -0.007887
 279  14   6.228536  -4.167008  -0.466189  -0.003288   0.333671  -0.009853
 280  14   6.428642  -3.376691   1.759666  -0.004013   0.471065  -0.008519
 281  15  13.137186  -4.881210   0.761044  -0.006072   0.608459  -0.009979
 282  15  11.940780  -4.957695  -0.680404  -0.002713   0.412182  -0.006583
 283  15  11.323923  -4.680446   1.300534  -0.002618   0.353299  -0.007411
 284  15  12.950388  -3.771958   2.263491  -0.002098   0.353299  -0.005938
 285  15  14.471596  -3.427171   0.803334  -0.002575   0.333671  -0.007716
 286  15  13.918972  -4.015733  -0.964302  -0.001905   0.333671  -0.005708
 287  15  11.667979  -5.064068   0.391565  -0.004132   0.490692  -0.008421
 288  15  12.248086  -4.458946   1.882258  -0.003747   0.490692  -0.007637
 289  15  13.857620  -3.804299   1.627383  -0.003981   0.510320  -0.007800
 290  15  14.209136  -4.103687   0.055435  -0.004170   0.490692  -0.008498
 291  15  13.037602  -4.764252  -0.808912  -0.004272   0.549575  -0.007773
 292  16  -0.544768   0.980681  -1.050435  -0.008695   0.392554  -0.022151
 293  16   0.192774   0.034924   0.878842  -0.008616   0.471065  -0.018290
 294  16   0.156486  -1.035699  -1.302711  -0.007846   0.431809  -0.018170
 295  16   0.650814   0.663304  -2.931810  -0.010256   0.510320  -0.020097
 296  16   0.324246   1.995931   0.540137  -0.007374   0.333671  -0.022100
 297  16  -0.453769  -0.049645  -0.453078  -0.009297   0.431809  -0.021531
 298  16  -0.266752   0.119000  -1.882049  -0.009990   0.471065  -0.021207
 299  16  -0.014022   1.537053  -2.094010  -0.010364   0.471065  -0.022002
 300  16  -0.165000   2.009152  -0.705865  -0.009512   0.431809  -0.022028
 301  16  -0.284496   1.058207   0.290861  -0.009161   0.431809  -0.021214
 302  16   0.161342  -0.926152  -0.013394  -0.007218   0.412182  -0.017511
 303  16   0.496059  -0.543103  -2.450943  -0.006073   0.372926  -0.016285
 304  16   0.668336   1.247579   1.250009  -0.006598   0.392554  -0.016808
 305   1  14.437619   2.969771  -4.025346   0.000112   0.046222   0.002427
 306   2  14.593396   2.564251  -3.896871   0.000015   0.046222   0.000334
 307   4  14.664681   3.355596  -3.987888   0.000477   0.046222   0.010329
 308   1  14.295564   4.246289   1.723618   0.000067   0.046222   0.001457
 309   2  14.452968   3.826141   1.786216  -0.000013   0.046222  -0.000285
 310   4  14.528157   4.582407   1.537216   0.000367   0.046222   0.007930
 311   1  11.049616   2.511933   2.437491   0.000206   0.048025   0.004282
 312   2  11.213713   2.110145   2.567659   0.000289   0.048025   0.006026
 313   8  10.949999   1.747290   2.605049   0.000317   0.048025   0.006607
 314   1  11.211111   1.062486  -4.090641   0.000208   0.048025   0.004323
 315   2  11.376947   0.645092  -4.030763   0.000307   0.048025   0.006390
 316   8  11.111505   0.297739  -3.923556   0.000322   0.048025   0.006703
 317   2  11.912443   0.956706  -4.261412   0.000896   0.180217   0.004974
 318   2  13.598127   1.690446  -4.237710   0.000709   0.365752   0.001938
 319   1  12.308697   1.811001  -4.433397   0.001017   0.365752   0.002780
 320   1  13.974523   2.570274  -4.263118   0.000074   0.180217   0.000412
 321   2  14.069387   3.397230   2.221600   0.000181   0.180229   0.001006
 322   2  12.389444   2.763829   2.618406   0.001382   0.365776   0.003778
 323   1  13.181838   3.750943   2.281774   0.000203   0.365776   0.000555
 324   1  11.489230   3.078468   2.534186   0.000707   0.180229   0.003922
 325   1  11.387640   6.548570   1.013094  -0.000412   0.042005  -0.009801
 326   3  10.940740   6.571400   0.961428  -0.000358   0.042005  -0.008521
 327   4  11.717723   6.805051   0.849067  -0.000464   0.042005  -0.011040
 328   1  11.523765   5.325899  -4.493107  -0.000415   0.042005  -0.009868
 329   3  11.075190   5.363765  -4.477057  -0.000369   0.042005  -0.008793
 330   4  11.848420   5.631123  -4.437622  -0.000435   0.042005  -0.010356
 331   1  10.891087   1.300164  -4.119231   0.000301   0.102160   0.002942
 332   3  10.441950   1.362481  -4.124555   0.000315   0.102160   0.003084
 333   8  10.798062   0.548593  -3.894585   0.000265   0.102160   0.002592
 334   1  10.731190   2.736030   2.347784   0.000303   0.102160   0.002965
 335   3  10.282978   2.790049   2.305091   0.000304   0.102160   0.002979
 336   8  10.640995   1.959050   2.457991   0.000263   0.102160   0.002572
 337   3  10.673721   4.799939  -4.744434  -0.000152   0.190773  -0.000797
 338   3  10.439506   2.867668  -4.696949   0.001562   0.388843   0.004017
 339   1  11.226971   3.981976  -4.745625  -0.000121   0.388843  -0.000310
 340   1  10.985578   2.062151  -4.529327   0.000833   0.190773   0.004367
 341   3  10.173828   3.677738   2.368167   0.000990   0.190781   0.005191
 342   3  10.424839   5.511348   1.763217   0.000505   0.388862   0.001299
 343   1  10.909725   4.319192   2.219198   0.001158   0.388862   0.002978
 344   1  11.161648   6.092596   1.455868  -0.000421   0.190781  -0.002208
 345   4  12.371408   6.766043   1.122517  -0.000095   0.172878  -0.000547
 346   4  13.741860   5.689081   1.549263   0.003416   0.364859   0.009364
 347   1  12.469422   5.931617   1.542850   0.000045   0.361470   0.000124
 348   1  13.893383   4.779451   1.821373   0.000565   0.184466   0.003064
 349   4  14.420608   3.929543  -4.337256   0.001767   0.172873   0.010219
 350   4  13.042302   5.038559  -4.637728   0.001540   0.364847   0.004221
 351   1  13.504413   3.834038  -4.521629   0.001227   0.361459   0.003395
 352   1  12.081690   5.011756  -4.667852  -0.000488   0.184461  -0.002644
 353   2  15.941820   3.130001   0.780899  -0.000219   0.059312  -0.003687
 354   4  15.917248   3.881507   0.511341   0.000465   0.059312   0.007842
 355  11  16.138418   2.939624   0.660316  -0.000362   0.059312  -0.006107
 356   2  16.025860   2.374262  -2.622712  -0.000248   0.059312  -0.004179
 357   4  15.996487   3.168947  -2.697802   0.000334   0.059312   0.005639
 358  11  16.214570   2.254820  -2.423822  -0.000369   0.059312  -0.006218
 359   4  15.203020   4.602029   1.163225   0.003469   0.427883   0.008107
 360   2  15.392975   3.432383   1.316167  -0.000145   0.471883  -0.000307
 361   4  15.576371   3.552146  -3.397059   0.003868   0.427854   0.009040
 362   2  15.260143   2.403061  -3.481534  -0.000089   0.471851  -0.000189
 363   2  15.056985  -2.116748  -0.502687  -0.000155   0.008900  -0.017402
 364   8  14.816506  -2.490000  -0.433883  -0.000164   0.008900  -0.018451
 365  15  14.707217  -2.742648  -0.322102  -0.000135   0.008900  -0.015185
 366   2  15.026911  -1.846211   0.716044  -0.000117   0.008900  -0.013116
 367   8  14.786050  -2.216030   0.800312  -0.000148   0.008900  -0.016619
 368  15  14.679506  -2.493371   0.800854  -0.000173   0.008900  -0.019390
 369   8  11.446742  -0.384050  -3.976940   0.001256   0.195188   0.006436
 370   8  13.008561  -1.502298  -3.454171   0.001810   0.398625   0.004542
 371   8  14.454833  -2.275073  -1.673482  -0.001354   0.398625  -0.003397
 372   2  12.444366  -0.326792  -3.930425   0.002545   0.398625   0.006383
 373   2  14.236528  -1.503836  -2.806834   0.000405   0.398625   0.001017
 374   2  15.170504  -1.888274  -1.091334  -0.000819   0.195188  -0.004197
 375   8  14.722101  -1.890307   1.259082  -0.000859   0.195205  -0.004403
 376   8  13.712448  -0.826158   2.605132   0.000444   0.398662   0.001114
 377   8  11.881642   0.696940   3.039784   0.002398   0.398662   0.006015
 378   2  14.761591  -0.999548   1.712712  -0.001305   0.398662  -0.003273
 379   2  13.241171   0.438731   2.929376   0.001804   0.398662   0.004526
 380   2  11.668120   1.656839   2.855953   0.001015   0.195205   0.005197
 381  11  16.308269   2.370245   0.994236  -0.000473   0.067245  -0.007035
 382  11  16.182595   1.403871   1.509316  -0.001066   0.149461  -0.007132
 383  11  16.047414   0.079582   1.441914  -0.001065   0.149461  -0.007122
 384  11  15.982547  -0.935699   0.580777  -0.001281   0.149461  -0.008568
 385  11  16.014666  -1.224531  -0.720032  -0.001346   0.149461  -0.009007
 386  11  16.130564  -0.668160  -1.925676  -0.001110   0.149461  -0.007425
 387  11  16.282590   0.504659  -2.540446  -0.000981   0.149461  -0.006561
 388  11  16.393983   1.599452  -2.477174  -0.000418   0.067245  -0.006222
 389   2  15.939794   2.190049   1.418231  -0.000861   0.147160  -0.005850
 390   2  15.770729   0.759065   1.825415  -0.000773   0.147160  -0.005250
 391   2  15.652099  -0.628317   1.274784  -0.001104   0.147160  -0.007503
 392   2  15.632680  -1.401665  -0.007265  -0.001392   0.147160  -0.009461
 393   2  15.720455  -1.243013  -1.493610  -0.001095   0.147160  -0.007444
 394   2  15.879336  -0.217590  -2.573129  -0.000754   0.147160  -0.005121
 395   2  16.043997   1.252993  -2.801971  -0.000863   0.147160  -0.005865
 396  15  14.678622  -2.822416   0.161376  -0.001919   0.233601  -0.008215
 397   2  15.245441  -1.854425   0.195514  -0.001382   0.329253  -0.004197
 398   3  11.100173   5.867494  -4.280863  -0.001154   0.075406  -0.015299
 399   4  11.870072   6.146414  -4.301602  -0.000967   0.075406  -0.012821
 400  13  11.754951   6.438269  -4.219408  -0.001268   0.075406  -0.016815
 401   3  10.981079   6.943167   0.574405  -0.001117   0.075406  -0.014811
 402   4  11.752014   7.212729   0.511425  -0.000977   0.075406  -0.012953
 403  13  11.643888   7.441401   0.308433  -0.001558   0.075406  -0.020665
 404   4  11.953528   5.900622  -4.492342  -0.000164   0.064756  -0.002534
 405   3  10.825912   5.572440  -4.547672  -0.000191   0.071515  -0.002665
 406   4  11.808412   7.106231   0.755617  -0.000162   0.063910  -0.002540
 407   3  10.705578   6.754042   0.960411  -0.000105   0.070581  -0.001493
 408   3   7.313575   4.420693   1.905475   0.000040   0.053661   0.000738
 409   5   7.029621   4.081843   2.011160  -0.000154   0.053661  -0.002867
 410   7   6.548591   4.139959   1.945825  -0.000370   0.053661  -0.006898
 411   3   7.474752   2.978083  -4.592802   0.000011   0.053661   0.000211
 412   5   7.192570   2.623374  -4.558560  -0.000185   0.053661  -0.003455
 413   7   6.709626   2.698618  -4.546740  -0.000428   0.053661  -0.007977
 414   3  10.068600   1.207131  -4.098787   0.000364   0.103072   0.003534
 415   5   9.796048   0.844144  -4.044535   0.000380   0.103072   0.003689
 416   8  10.419149   0.390834  -3.868670   0.000281   0.103072   0.002727
 417   3   9.909167   2.634276   2.329894   0.000363   0.103072   0.003526
 418   5   9.635690   2.279566   2.421427   0.000415   0.103072   0.004024
 419   8  10.261615   1.800976   2.483417   0.000285   0.103072   0.002766
 420   5   7.839868   2.260339  -4.647842   0.000579   0.207111   0.002797
 421   5   9.113931   1.319603  -4.410751   0.000989   0.207111   0.004777
 422   3   8.869901   2.308553  -4.583531   0.001979   0.424699   0.004659
 423   5   8.942054   2.858107   2.519539   0.001205   0.207112   0.005816
 424   5   7.668138   3.797434   2.276066   0.000599   0.207112   0.002890
 425   3   8.700513   3.824725   2.246144   0.002101   0.424703   0.004947
 426   3   6.700723   5.279532   1.253055  -0.000043   0.090708  -0.000470
 427   7   5.927062   5.041968   1.355834  -0.000041   0.090708  -0.000452
 428   9   5.733989   5.337649   1.176807   0.000504   0.090708   0.005555
 429   3   6.841105   4.024891  -4.394860  -0.000035   0.090708  -0.000381
 430   7   6.070721   3.758031  -4.423962   0.000006   0.090708   0.000061
 431   9   5.872509   4.099642  -4.396230   0.000693   0.090708   0.007644
 432   7   6.203596   4.532739   1.836988  -0.000573   0.252391  -0.002269
 433   3   7.235372   5.078671   1.677686   0.000249   0.252391   0.000987
 434   7   6.301820   3.270860  -4.607398  -0.000584   0.252118  -0.002316
 435   3   7.455300   3.494936  -4.692135   0.000289   0.252118   0.001147
 436   3   7.176807   6.573798   0.247436  -0.000236   0.082625  -0.002859
 437   9   6.218299   6.514722   0.106459   0.001202   0.082625   0.014542
 438  12   7.143106   6.761341   0.015783  -0.000367   0.082625  -0.004444
 439   3   7.282694   5.629306  -4.009263  -0.000233   0.082625  -0.002822
 440   9   6.318014   5.625282  -3.902125   0.001021   0.082625   0.012363
 441  12   7.240026   5.896824  -3.880481  -0.000374   0.082625  -0.004527
 442   9   5.691219   5.972985   0.857265   0.003738   0.419387   0.008914
 443   3   7.096365   6.169512   0.842083   0.000406   0.467438   0.000868
 444   9   5.838527   5.078852  -4.299200   0.004059   0.419843   0.009667
 445   3   7.209514   4.748709  -4.456841   0.000440   0.467945   0.000941
 446   3   9.835874   7.481125  -0.233092  -0.000982   0.073786  -0.013315
 447  12   9.651667   7.598124  -0.437937  -0.000884   0.073786  -0.011986
 448  13  10.578541   7.835892  -0.515561  -0.001964   0.073786  -0.026619
 449   3   9.925312   6.682558  -3.831964  -0.000860   0.073786  -0.011661
 450  12   9.732853   6.873239  -3.704752  -0.001025   0.073786  -0.013894
 451  13  10.657460   7.131254  -3.691127  -0.002005   0.073786  -0.027170
 452  12   7.864982   7.110093   0.062438  -0.000645   0.090095  -0.007163
 453  12   8.908412   7.500228  -0.179140  -0.000722   0.090095  -0.008014
 454   3   8.536934   7.069412   0.209836  -0.001621   0.182838  -0.008866
 455  12   9.001715   6.667329  -3.932774  -0.000861   0.090090  -0.009562
 456  12   7.966910   6.200728  -4.035914  -0.000725   0.090090  -0.008049
 457   3   8.644599   6.108605  -4.120301  -0.001637   0.182831  -0.008954
 458  13  11.466141   6.915475  -4.102663  -0.004739   0.261198  -0.018142
 459   3  10.313042   6.315372  -4.202756  -0.002275   0.367308  -0.006193
 460  13  11.236782   7.929819  -0.166756  -0.005191   0.261749  -0.019833
 461   3  10.320354   7.209706   0.417663  -0.002126   0.368080  -0.005777
 462  11  16.577846   2.307325  -2.135547  -0.000969   0.253401  -0.003824
 463  11  16.838801   2.676900  -0.883091  -0.003059   0.510797  -0.005988
 464  11  16.515379   2.869060   0.394328  -0.001071   0.253401  -0.004226
 465   4  16.509076   3.802302  -2.048101   0.005321   0.622683   0.008545
 466   4  16.466415   4.185929  -0.320369   0.005268   0.622683   0.008461
 467  13  12.185937   7.882015   0.271422  -0.001105   0.082265  -0.013434
 468  13  13.233805   8.396359  -0.088097  -0.002557   0.178198  -0.014347
 469  13  14.201238   8.694599  -1.169785  -0.002973   0.178198  -0.016681
 470  13  14.446643   8.493968  -2.617004  -0.002904   0.178198  -0.016298
 471  13  13.868968   7.877081  -3.833829  -0.002715   0.178198  -0.015238
 472  13  12.706084   7.097955  -4.319202  -0.002658   0.178198  -0.014915
 473   4  12.810160   7.788018   0.430057  -0.001696   0.176366  -0.009617
 474   4  14.100160   8.343504  -0.342408  -0.001740   0.176366  -0.009863
 475   4  14.792893   8.399255  -1.786837  -0.002260   0.176366  -0.012814
 476   4  14.603111   7.932315  -3.308453  -0.002037   0.176366  -0.011551
 477   4  13.608961   7.134958  -4.280693  -0.001646   0.176366  -0.009331
 478   4  12.504625   6.461512  -4.459532  -0.000858   0.094191  -0.009107
 479   5   6.526993   1.115839   2.602990  -0.000194   0.050286  -0.003852
 480   6   6.713239   0.707381   2.658615  -0.000031   0.050286  -0.000615
 481   7   6.050922   1.198799   2.529965  -0.000498   0.050286  -0.009902
 482   5   6.687395  -0.319675  -3.863615  -0.000216   0.050286  -0.004294
 483   6   6.871766  -0.711359  -3.732424  -0.000022   0.050286  -0.000434
 484   7   6.209301  -0.218617  -3.855108  -0.000462   0.050286  -0.009179
 485   5   9.734481   0.441221  -3.991616   0.000260   0.048534   0.005353
 486   6   9.918265   0.032024  -3.932952   0.000302   0.048534   0.006224
 487   8  10.364700  -0.019460  -3.873642   0.000308   0.048534   0.006338
 488   5   9.572427   1.891393   2.541046   0.000279   0.048534   0.005740
 489   6   9.754476   1.497730   2.669682   0.000355   0.048534   0.007322
 490   8  10.202650   1.430681   2.658877   0.000311   0.048534   0.006415
 491   6   7.661978  -0.798589  -3.940511   0.000749   0.215917   0.003468
 492   6   9.207212  -0.172409  -4.080395   0.001040   0.215917   0.004817
 493   5   8.185885   0.109852  -4.092798   0.002008   0.445059   0.004511
 494   6   9.035148   1.367380   2.855960   0.001324   0.215916   0.006131
 495   6   7.491774   0.724622   2.921151   0.000884   0.215916   0.004096
 496   5   8.017396   1.617677   2.699561   0.002102   0.445056   0.004723
 497   7   6.271221   2.024466  -4.628661  -0.001568   0.229276  -0.006840
 498   7   5.991424   0.445685  -4.252531  -0.001969   0.229276  -0.008589
 499   5   6.819900   1.135353  -4.346950  -0.002784   0.469831  -0.005925
 500   7   5.821491   1.966529   2.598398  -0.001766   0.229282  -0.007704
 501   7   6.099756   3.559130   2.284344  -0.001521   0.229282  -0.006634
 502   5   6.651773   2.640090   2.431330  -0.002807   0.469844  -0.005974
 503   8  10.589246  -0.025952  -3.971287   0.000089   0.006412   0.013852
 504   5   9.693337   0.635009  -4.139160   0.000046   0.006412   0.007164
 505   8  10.425190   1.472006   2.758794   0.000084   0.006430   0.013010
 506   5   9.523496   2.125444   2.592450   0.000054   0.006430   0.008450
 507   6   6.192581  -1.144628  -3.329984  -0.000304   0.105594  -0.002874
 508   7   5.519371  -0.685757  -3.514456  -0.000615   0.105594  -0.005826
 509  10   5.245119  -0.988264  -3.347442   0.000110   0.105594   0.001046
 510   6   6.049155   0.137227   2.445453  -0.000277   0.105594  -0.002623
 511   7   5.372826   0.623964   2.386533  -0.000563   0.105594  -0.005336
 512  10   5.103621   0.276350   2.350318   0.000289   0.105594   0.002733
 513   7   5.844683  -0.394416  -3.865726  -0.000608   0.154077  -0.003949
 514   6   6.725014  -1.169119  -3.634077   0.000173   0.154077   0.001122
 515   7   5.621144   0.949872   2.577243  -0.000573   0.154168  -0.003719
 516   6   6.629564   0.339495   2.775619   0.000223   0.154168   0.001447
 517   8  10.433159   0.776042   3.022158   0.001141   0.205732   0.005546
 518   8  10.202439  -1.280654   3.173815   0.001495   0.421750   0.003544
 519   8  10.028287  -3.452129   1.914046  -0.001886   0.421750  -0.004471
 520   6   9.697294   0.061059   3.108498   0.002547   0.421750   0.006040
 521   6   9.448066  -2.411865   2.714561  -0.000054   0.421750  -0.000127
 522   6   9.353736  -3.920920   1.293265  -0.001066   0.205732  -0.005182
 523   8  10.041000  -4.370120  -0.383756  -0.001051   0.205718  -0.005109
 524   8  10.218218  -3.602641  -2.303459  -0.000091   0.421718  -0.000216
 525   8  10.511696  -1.525883  -3.693733   0.002494   0.421718   0.005913
 526   6   9.459277  -4.060685  -1.174904  -0.001916   0.421718  -0.004542
 527   6   9.715531  -2.623882  -3.224746   0.001555   0.421718   0.003688
 528   6   9.960373  -0.693799  -3.946217   0.001069   0.205718   0.005196
 529   6   6.210854  -2.779833  -2.173664  -0.000231   0.081209  -0.002840
 530  10   5.292059  -2.508365  -2.128408   0.000941   0.081209   0.011591
 531  14   6.112929  -2.950936  -1.948861  -0.000357   0.081209  -0.004397
 532   6   6.104978  -1.832899   2.091466  -0.000236   0.081209  -0.002906
 533  10   5.192252  -1.615708   1.892254   0.000741   0.081209   0.009129
 534  14   6.016003  -2.084040   1.955768  -0.000387   0.081209  -0.004767
 535  10   5.011509  -1.715202  -2.993281   0.003824   0.501351   0.007627
 536   6   6.303309  -2.264957  -2.819707   0.000287   0.558297   0.000514
 537  10   4.834833  -0.858341   2.245028   0.004230   0.501230   0.008440
 538   6   6.215563  -0.777019   2.541721   0.000299   0.558163   0.000536
 539   6   9.353044  -4.292740   0.165581  -0.000197   0.011254  -0.017496
 540  14   9.059833  -4.310678   0.194554  -0.000164   0.011254  -0.014566
 541  15  10.088985  -4.378087   0.240613  -0.000211   0.011254  -0.018773
 542   6   9.338248  -4.160176   0.762761  -0.000192   0.011254  -0.017019
 543  14   9.046559  -4.191754   0.730289  -0.000197   0.011254  -0.017503
 544  15  10.075975  -4.261530   0.765687  -0.000226   0.011254  -0.020084
 545  14   6.670270  -3.404516  -1.944200  -0.000485   0.069987  -0.006933
 546  14   7.573655  -4.011265  -1.571361  -0.000984   0.157354  -0.006254
 547  14   8.367604  -4.393182  -0.499184  -0.001313   0.157354  -0.008343
 548   6   7.239472  -3.460229  -2.129291  -0.000870   0.151446  -0.005746
 549   6   8.374805  -4.152896  -1.316994  -0.001040   0.151446  -0.006867
 550   6   8.936859  -4.349659  -0.195862  -0.000715   0.085505  -0.008357
 551  14   8.510344  -4.193485   1.013840  -0.000608   0.069992  -0.008686
 552  14   7.965176  -3.612864   1.843954  -0.001247   0.157367  -0.007922
 553  14   6.927597  -2.758620   2.189930  -0.001032   0.157367  -0.006557
 554   6   8.692721  -3.829428   1.456082  -0.001280   0.151453  -0.008449
 555   6   7.749745  -2.940925   2.322238  -0.000870   0.151453  -0.005742
 556   6   6.743604  -2.168896   2.380593  -0.000381   0.085511  -0.004451
 557   7   2.058103   2.107367  -3.477573  -0.000470   0.065235  -0.007209
 558   9   1.977829   2.493637  -3.473991   0.000172   0.065235   0.002631
 559  16   1.613188   1.770320  -3.174088  -0.001253   0.065235  -0.019210
 560   7   1.946418   3.103662   1.007778  -0.000466   0.065235  -0.007149
 561   9   1.870478   3.451269   0.837296   0.000118   0.065235   0.001809
 562  16   1.512872   2.665198   0.854677  -0.001314   0.065235  -0.020135
 563   9   2.350069   4.070163   1.162316   0.001140   0.171576   0.006647
 564   9   4.129671   4.949149   1.453314   0.002900   0.376753   0.007696
 565   7   3.207254   3.937502   1.562501   0.000494   0.357329   0.001383
 566   7   5.081543   4.813419   1.655521   0.000338   0.183077   0.001849
 567   9   4.992295   3.922527  -4.627802   0.001354   0.171563   0.007894
 568   9   3.165031   3.170278  -4.282924   0.003143   0.376716   0.008343
 569   7   4.508765   3.101704  -4.558007   0.000653   0.357300   0.001828
 570   7   2.648347   2.384332  -3.999025   0.000182   0.183063   0.000993
 571   7   2.121566   2.349874   1.475685  -0.000619   0.036341  -0.017042
 572  10   1.913305   1.965396   1.503176  -0.000647   0.036341  -0.017813
 573  16   1.633776   1.967097   1.337143  -0.000744   0.036341  -0.020468
 574   7   2.246791   1.229311  -3.573566  -0.000576   0.036341  -0.015853
 575  10   2.036042   0.867101  -3.445738  -0.000646   0.036341  -0.017787
 576  16   1.749014   0.935905  -3.309404  -0.000858   0.036341  -0.023608
 577  10   2.482622   0.582599  -3.690264  -0.000908   0.162925  -0.005575
 578  10   3.909438  -0.410187  -3.734353   0.000882   0.343177   0.002569
 579   7   3.343062   0.687084  -3.975057  -0.002295   0.340324  -0.006745
 580   7   4.828740  -0.314997  -3.866385  -0.000558   0.173846  -0.003208
 581  10   4.312622   0.586836   2.490455   0.000657   0.162913   0.004032
 582  10   2.880072   1.497525   2.114430  -0.000830   0.343147  -0.002418
 583   7   4.102760   1.470958   2.409200  -0.001508   0.340299  -0.004431
 584   7   2.643056   2.367381   1.872119  -0.001098   0.173833  -0.006316
 585  16   1.389608   2.144508   1.196393  -0.001597   0.109599  -0.014572
 586   7   2.019797   2.793903   1.308410  -0.000940   0.133899  -0.007021
 587  16   1.447770   1.263024  -3.234854  -0.001694   0.109382  -0.015484
 588   7   2.185337   1.610900  -3.642689  -0.000918   0.133634  -0.006868
 589  15  10.816752  -4.687021   0.016238  -0.000598   0.070248  -0.008510
 590  15  11.438367  -4.637105  -0.949360  -0.001200   0.157745  -0.007605
 591  15  12.622083  -4.256964  -1.563987  -0.000982   0.157745  -0.006223
 592  15  13.837116  -3.652996  -1.276980  -0.001145   0.157745  -0.007259
 593  15  14.519624  -3.167884  -0.489498  -0.000498   0.070248  -0.007084
 594   8  10.698743  -4.504929  -0.545578  -0.001229   0.152221  -0.008074
 595   8  11.774094  -4.286989  -1.650973  -0.000849   0.152221  -0.005580
 596   8  13.203666  -3.700494  -1.846223  -0.000860   0.152221  -0.005650
 597   8  14.345289  -3.008901  -1.043621  -0.001236   0.152221  -0.008122
 598  15  14.479808  -2.809863   1.123368  -0.000603   0.070256  -0.008588
 599  15  13.755902  -2.923592   2.009124  -0.001128   0.157765  -0.007149
 600  15  12.522335  -3.362267   2.467043  -0.001092   0.157765  -0.006924
 601  15  11.364908  -3.979052   2.015654  -0.001186   0.157765  -0.007517
 602  15  10.789042  -4.439082   1.133448  -0.000574   0.070256  -0.008167
 603   8  14.281237  -2.433314   1.549441  -0.001169   0.152234  -0.007682
 604   8  13.095825  -2.732577   2.514563  -0.000861   0.152234  -0.005657
 605   8  11.670857  -3.361602   2.518455  -0.000829   0.152234  -0.005449
 606   8  10.646568  -4.037770   1.559368  -0.001239   0.152234  -0.008138
 607  12   7.137670   6.342362  -3.784566  -0.000618   0.229415  -0.002694
 608  12   6.918326   7.166488  -2.893201  -0.002276   0.461896  -0.004927
 609  12   6.881920   7.491224  -1.429663  -0.002255   0.461896  -0.004883
 610  12   7.050100   7.123474  -0.264201  -0.000572   0.229415  -0.002495
 611   9   5.690198   6.405165  -3.581106   0.007420   0.563227   0.013174
 612   9   5.488857   7.245214  -2.177979   0.007897   0.563227   0.014022
 613   9   5.614637   7.079165  -0.543478   0.007346   0.563227   0.013042
 614  16   1.010965   2.577901   0.653740  -0.003522   0.216312  -0.016281
 615  16   0.459808   2.680707  -0.495015  -0.007718   0.436892  -0.017665
 616  16   0.497515   2.344341  -2.009345  -0.007864   0.436892  -0.018000
 617  16   1.101424   1.770958  -2.979142  -0.003445   0.216312  -0.015924
 618   9   1.254169   3.781739   0.128425   0.003239   0.525482   0.006163
 619   9   0.807146   3.718617  -1.511900   0.004559   0.525482   0.008676
 620   9   1.332108   3.086484  -3.001633   0.002961   0.525482   0.005634
 621  14   5.826114  -2.493732   1.841562  -0.000733   0.226981  -0.003231
 622  14   5.514866  -3.255387   0.922100  -0.002469   0.457108  -0.005402
 623  14   5.551204  -3.580391  -0.541767  -0.002476   0.457108  -0.005417
 624  14   5.913561  -3.275852  -1.681221  -0.000666   0.226981  -0.002933
 625  10   4.445066  -2.235088   1.495609   0.005654   0.556549   0.010159
 626  10   4.198601  -3.022187   0.069188   0.005940   0.556549   0.010673
 627  10   4.520492  -2.909680  -1.542852   0.006151   0.556549   0.011052
 628  16   1.416757   0.508215  -3.209921  -0.001142   0.083274  -0.013708
 629  16   1.109221  -0.568194  -2.710346  -0.003049   0.180273  -0.016913
 630  16   0.811610  -1.375275  -1.497651  -0.003280   0.180273  -0.018193
 631  16   0.715163  -1.286816  -0.016620  -0.003357   0.180273  -0.018622
 632  16   0.859777  -0.339410   1.120081  -0.003261   0.180273  -0.018090
 633  16   1.185630   1.075023   1.442226  -0.003130   0.180273  -0.017364
 634  10   1.702732  -0.080737  -3.196287  -0.002277   0.178658  -0.012746
 635  10   1.318084  -1.323816  -2.250542  -0.002287   0.178658  -0.012800
 636  10   1.092954  -1.734374  -0.711584  -0.002752   0.178658  -0.015404
 637  10   1.120472  -1.142572   0.783958  -0.002550   0.178658  -0.014274
 638  10   1.389255   0.206776   1.617415  -0.002247   0.178658  -0.012576
 639  10   1.703619   1.478874   1.640769  -0.001127   0.095346  -0.011817
 640  13  10.877656   7.697347  -3.649372  -0.003843   0.241182  -0.015933
 641  13  10.711716   8.363036  -2.673772  -0.009416   0.482627  -0.019510
 642  13  10.753970   8.436426  -1.224882  -0.008917   0.482627  -0.018475
 643  12   9.500367   7.565493  -3.235811  -0.005083   0.482627  -0.010531
 644  12   9.388796   8.111008  -1.895506  -0.005393   0.482627  -0.011173
 645  12   9.501359   7.921901  -0.723310  -0.001874   0.241182  -0.007772
 646  15  10.385008  -4.584404   0.625521  -0.000662   0.185565  -0.003570
 647  14   8.922914  -4.448025   0.446741  -0.000536   0.185565  -0.002891
 =====================================================

              4235353  WORDS OF DYNAMIC MEMORY USED
 EXECUTION OF GAMESS TERMINATED NORMALLY Wed Nov 23 11:31:26 2016
 DDI: 263640 bytes (0.3 MB / 0 MWords) used by master data server.

 ----------------------------------------
 CPU timing information for all processes
 ========================================
 0: 721.12 + 0.220 = 721.232
 ----------------------------------------
 ddikick.x: exited gracefully.
