----- GAMESS execution script -----

          ******************************************************
          *         GAMESS VERSION =  5 DEC 2014 (R1)          *
          *             FROM IOWA STATE UNIVERSITY             *
          * M.W.SCHMIDT, K.K.BALDRIDGE, J.A.BOATZ, S.T.ELBERT, *
          *   M.S.GORDON, J.H.JENSEN, S.KOSEKI, N.MATSUNAGA,   *
          *          K.A.NGUYEN, S.J.SU, T.L.WINDUS,           *
          *       TOGETHER WITH M.DUPUIS, J.A.MONTGOMERY       *
          *         J.COMPUT.CHEM.  14, 1347-1363(1993)        *
          **************** 64 BIT LINUX VERSION ****************

 EXECUTION OF GAMESS BEGUN Wed Nov 23 11:44:00 2016

            ECHO OF THE FIRST FEW INPUT CARDS -
 INPUT CARD>! SELECT RESTRICTED HARTREE-FOCK AS DEFAULT                                     
 INPUT CARD>$contrl scftyp=rhf $end                                                         
 INPUT CARD>                                                                                
 INPUT CARD>! THEORY: HF OR DFT                                                             
 INPUT CARD> $contrl mplevl=0 $end                                                          
 INPUT CARD>                                                                                
 INPUT CARD> $system timlim=10000 mwords=20 $end                                            
 INPUT CARD> $SCF DIRSCF=.TRUE. $end                                                        
 INPUT CARD>                                                                                
 INPUT CARD>                                                                                
 INPUT CARD>! BASIS SETS                                                                    
 INPUT CARD>! 6-311G(d,p)                                                                   
 INPUT CARD> $BASIS GBASIS=N311 NGAUSS=6 NDFUNC=1 NPFUNC=1 $END                             
 INPUT CARD>                                                                                
 INPUT CARD>! One of the following                                                          
 INPUT CARD> $guess guess=HUCKEL $end                                                       
 INPUT CARD>                                                                                
 INPUT CARD> $statpt projct=.FALSE. $end                                                    
 INPUT CARD> $STATPT IFREEZ(1)=1,2,3 $END                                                   
 INPUT CARD>                                                                                
 INPUT CARD>! Optimize the geometry with COSMO effects                                      
 INPUT CARD> $statpt opttol=0.0005 nstep=50 $end                                            
 INPUT CARD> $contrl nzvar=1 $end                                                           
 INPUT CARD> $zmat dlc=.t. auto=.t. $end                                                    
 INPUT CARD> $contrl runtyp=OPTIMIZE maxit=200 $end                                         
 INPUT CARD>                                                                                
 INPUT CARD>! Run COSMO on perfect conductor                                                
 INPUT CARD> $COSGMS PRFCND=.TRUE. $end                                                     
 INPUT CARD>                                                                                
 INPUT CARD>! Specifying RSOLV                                                              
 INPUT CARD> $COSGMS COSRAD = 1.4 $end                                                      
 INPUT CARD>                                                                                
 INPUT CARD>! available memory                                                              
 INPUT CARD> $SYSTEM MWORDS=40 $END                                                         
 INPUT CARD>                                                                                
 INPUT CARD> $DATA                                                                          
 INPUT CARD>http://cactus.nci.nih.gov/chemical/structure/3-METHYL-2-PENTANOL/file?format=sdf
 INPUT CARD>C1                                                                              
 INPUT CARD>C      6.0      0.2731000000    1.2513000000   -0.8838000000                    
 INPUT CARD>C      6.0      0.2794000000    0.3377000000    0.3434000000                    
 INPUT CARD>C      6.0     -1.0703000000   -0.3741000000    0.4562000000                    
 INPUT CARD>C      6.0     -2.1844000000    0.6647000000    0.5994000000                    
 INPUT CARD>O      8.0     -1.2961000000   -1.1559000000   -0.7185000000                    
 INPUT CARD>C      6.0      1.3935000000   -0.7012000000    0.2002000000                    
 INPUT CARD>C      6.0      2.7518000000    0.0028000000    0.2128000000                    
 INPUT CARD>H      1.0      1.2346000000    1.7584000000   -0.9641000000                    
 INPUT CARD>H      1.0      0.1009000000    0.6550000000   -1.7798000000                    
 INPUT CARD>H      1.0     -0.5206000000    1.9914000000   -0.7818000000                    
 INPUT CARD>H      1.0      0.4516000000    0.9340000000    1.2395000000                    
 INPUT CARD>H      1.0     -1.0658000000   -1.0250000000    1.3305000000                    
   40000000 WORDS OF MEMORY AVAILABLE

     BASIS OPTIONS
     -------------
     GBASIS=N311         IGAUSS=       6      POLAR=POPN311 
     NDFUNC=       1     NFFUNC=       0     DIFFSP=       F
     NPFUNC=       1      DIFFS=       F     BASNAM=        


     RUN TITLE
     ---------
 http://cactus.nci.nih.gov/chemical/structure/3-METHYL-2-PENTANOL/file?format=sdf

 THE POINT GROUP OF THE MOLECULE IS C1      
 THE ORDER OF THE PRINCIPAL AXIS IS     0

 ATOM      ATOMIC                      COORDINATES (BOHR)
           CHARGE         X                   Y                   Z
 C           6.0     0.5160841672        2.3646141284       -1.6701398279
 C           6.0     0.5279894410        0.6381604661        0.6489319042
 C           6.0    -2.0225737247       -0.7069464920        0.8620929956
 C           6.0    -4.1279174476        1.2561008640        1.1327017570
 O           8.0    -2.4492738527       -2.1843342692       -1.3577681222
 C           6.0     2.6333331639       -1.3250758626        0.3783231427
 C           6.0     5.2001479730        0.0052912328        0.4021336902
 H           1.0     2.3330557044        3.3228941768       -1.8218848248
 H           1.0     0.1906733522        1.2377705220       -3.3633343129
 H           1.0    -0.9837913492        3.7632003319       -1.4773877772
 H           1.0     0.8534002561        1.7650040725        2.3423153618
 H           1.0    -2.0140699577       -1.9369691374        2.5142804267
 H           1.0    -4.1362322419        2.4861235094       -0.5194856740
 H           1.0    -5.9448889848        0.2978208157        1.2844467539
 H           1.0    -3.8023176599        2.3829444705        2.8258962420
 H           1.0    -2.4806433041       -1.2107474403       -2.9037529527
 H           1.0     2.5356343303       -2.6569547387        1.9464177674
 H           1.0     2.4018417304       -2.3392918002       -1.3995310665
 H           1.0     5.2978468066        1.3373590815       -1.1659609344
 H           1.0     5.4316394065        1.0195071704        2.1797989268
 H           1.0     6.7000234895       -1.3932949707        0.2091926668

          INTERNUCLEAR DISTANCES (ANGS.)




     $CONTRL OPTIONS
     ---------------
 SCFTYP=RHF          RUNTYP=OPTIMIZE     EXETYP=RUN     
 MPLEVL=       0     CITYP =NONE         CCTYP =NONE         VBTYP =NONE    
 DFTTYP=NONE         TDDFT =NONE    
 MULT  =       1     ICHARG=       0     NZVAR =       1     COORD =UNIQUE  
 PP    =NONE         RELWFN=NONE         LOCAL =NONE         NUMGRD=       F
 ISPHER=      -1     NOSYM =       0     MAXIT =     200     UNITS =ANGS    
 PLTORB=       F     MOLPLT=       F     AIMPAC=       F     FRIEND=        
 NPRINT=       7     IREST =       0     GEOM  =INPUT   
 NORMF =       0     NORMP =       0     ITOL  =      20     ICUT  =       9
 INTTYP=BEST         GRDTYP=BEST         QMTTOL= 1.0E-06

     $SYSTEM OPTIONS
     ---------------
  REPLICATED MEMORY=    40000000 WORDS (ON EVERY NODE).
 DISTRIBUTED MEMDDI=           0 MILLION WORDS IN AGGREGATE,
 MEMDDI DISTRIBUTED OVER   1 PROCESSORS IS           0 WORDS/PROCESSOR.
 TOTAL MEMORY REQUESTED ON EACH PROCESSOR=    40000000 WORDS.
 TIMLIM=       10000.00 MINUTES, OR       6.9 DAYS.
 PARALL= F  BALTYP=  DLB     KDIAG=    0  COREFL= F
 MXSEQ2=     300 MXSEQ3=     150  mem10=         0

     $COSGMS OPTIONS
     ---------------
     EPSI  =   INFTY     NSPA  =      92     COSRAD=    1.40
     DISEX =   10.00     OUTCHG=DBLCAV       COSBUG=       F
     COSWRT=       F     DCOSMO=       F

     SYMMETRY COORDINATES WILL NOT BE USED FOR 
     THE COSMO CALCULATION, EVEN IF SPECIFIED:
         -- SWITCHING TO C1 POINT GROUP --


     DEFINITION OF CAVITY
     ---------------------------
     ATOM         COORDINATES           RADIUS 
     1    0.5161    2.3646   -1.6701    2.0000
     2    0.5280    0.6382    0.6489    2.0000
     3   -2.0226   -0.7069    0.8621    2.0000
     4   -4.1279    1.2561    1.1327    2.0000
     5   -2.4493   -2.1843   -1.3578    1.7200
     6    2.6333   -1.3251    0.3783    2.0000
     7    5.2001    0.0053    0.4021    2.0000
     8    2.3331    3.3229   -1.8219    1.3000
     9    0.1907    1.2378   -3.3633    1.3000
    10   -0.9838    3.7632   -1.4774    1.3000
    11    0.8534    1.7650    2.3423    1.3000
    12   -2.0141   -1.9370    2.5143    1.3000
    13   -4.1362    2.4861   -0.5195    1.3000
    14   -5.9449    0.2978    1.2844    1.3000
    15   -3.8023    2.3829    2.8259    1.3000
    16   -2.4806   -1.2107   -2.9038    1.3000
    17    2.5356   -2.6570    1.9464    1.3000
    18    2.4018   -2.3393   -1.3995    1.3000
    19    5.2978    1.3374   -1.1660    1.3000
    20    5.4316    1.0195    2.1798    1.3000
    21    6.7000   -1.3933    0.2092    1.3000

          ----------------
          PROPERTIES INPUT
          ----------------

     MOMENTS            FIELD           POTENTIAL          DENSITY
 IEMOM =       1   IEFLD =       0   IEPOT =       0   IEDEN =       0
 WHERE =COMASS     WHERE =NUCLEI     WHERE =NUCLEI     WHERE =NUCLEI  
 OUTPUT=BOTH       OUTPUT=BOTH       OUTPUT=BOTH       OUTPUT=BOTH    
 IEMINT=       0   IEFINT=       0                     IEDINT=       0
                                                       MORB  =       0
          EXTRAPOLATION IN EFFECT
          SOSCF IN EFFECT
 ORBITAL PRINTING OPTION: NPREO=     1   217     2     1

     -------------------------------
     INTEGRAL TRANSFORMATION OPTIONS
     -------------------------------
     NWORD  =            0
     CUTOFF = 1.0E-09     MPTRAN =       0
     DIRTRF =       T     AOINTS =DUP     

          ----------------------
          INTEGRAL INPUT OPTIONS
          ----------------------
 NOPK  =       1 NORDER=       0 SCHWRZ=       T


 -----------------------------------------------
  STATISTICS ON AUTOMATIC COORDINATE GENERATION 
 -----------------------------------------------
  NUMBER OF USER SPECIFIED BONDS                             0
  NUMBER OF BONDS                                           20
  NUMBER OF ANGLES                                          37
  NUMBER OF TORSIONS                                        48
  NUMBER OF EXTRA COORD.                                     0
  NUMBER OF EXTRA COORD. FOR CONSTRAINTS                     0
  NUMBER OF CONSTRAINED COORD.                               0

  TOTAL NUMBER OF PRIMITIVES                               105
 -----------------------------------------------

   --- ENCODED Z MATRIX ---
 COORD  TYPE   I   J   K   L   M   N
    1      1    1   9
    2      1    1  10
    3      1    1   2
    4      1    1   8
    5      1    2  11
    6      1    2   3
    7      1    2   6
    8      1    3   4
    9      1    3  12
   10      1    3   5
   11      1    4  15
   12      1    4  14
   13      1    4  13
   14      1    5  16
   15      1    6   7
   16      1    6  18
   17      1    6  17
   18      1    7  21
   19      1    7  20
   20      1    7  19
   21      2    1   2   6
   22      2    1   2  11
   23      2    1   2   3
   24      2    2   1   8
   25      2    2   3   4
   26      2    2   3  12
   27      2    2   1  10
   28      2    2   1   9
   29      2    2   6  17
   30      2    2   3   5
   31      2    2   6   7
   32      2    2   6  18
   33      2    3   5  16
   34      2    3   2   6
   35      2    3   4  14
   36      2    3   2  11
   37      2    3   4  15
   38      2    3   4  13
   39      2    4   3   5
   40      2    4   3  12
   41      2    5   3  12
   42      2    6   2  11
   43      2    6   7  21
   44      2    6   7  19
   45      2    6   7  20
   46      2    7   6  17
   47      2    7   6  18
   48      2    8   1   9
   49      2    8   1  10
   50      2    9   1  10
   51      2   13   4  14
   52      2   13   4  15
   53      2   14   4  15
   54      2   17   6  18
   55      2   19   7  20
   56      2   19   7  21
   57      2   20   7  21
   58      3    1   2   3   5
   59      3    1   2   3  12
   60      3    1   2   3   4
   61      3    1   2   6  17
   62      3    1   2   6  18
   63      3    1   2   6   7
   64      3    2   6   7  21
   65      3    2   3   4  13
   66      3    2   6   7  19
   67      3    2   3   4  14
   68      3    2   6   7  20
   69      3    2   3   4  15
   70      3    2   3   5  16
   71      3    3   2   6  18
   72      3    3   2   1   8
   73      3    3   2   1  10
   74      3    3   2   6   7
   75      3    3   2   1   9
   76      3    3   2   6  17
   77      3    4   3   5  16
   78      3    4   3   2   6
   79      3    4   3   2  11
   80      3    5   3   4  14
   81      3    5   3   2   6
   82      3    5   3   2  11
   83      3    5   3   4  13
   84      3    5   3   4  15
   85      3    6   2   3  12
   86      3    6   2   1   8
   87      3    6   2   1   9
   88      3    6   2   1  10
   89      3    7   6   2  11
   90      3    8   1   2  11
   91      3    9   1   2  11
   92      3   10   1   2  11
   93      3   11   2   3  12
   94      3   11   2   6  18
   95      3   11   2   6  17
   96      3   12   3   4  14
   97      3   12   3   5  16
   98      3   12   3   4  13
   99      3   12   3   4  15
  100      3   17   6   7  20
  101      3   17   6   7  19
  102      3   17   6   7  21
  103      3   18   6   7  20
  104      3   18   6   7  19
  105      3   18   6   7  21

          INDEP./SYM. INTERNAL COORDINATES
          --------------------------------
 CRD  1=  -0.1032 (  7) -0.1734 ( 21)  0.1251 ( 22) -0.1346 ( 23) -0.3688 ( 25)
           0.1054 ( 26)  0.1719 ( 29)  0.1475 ( 30) -0.5061 ( 31)  0.1462 ( 32)
           0.3563 ( 34)  0.1042 ( 39)  0.1314 ( 46)  0.1438 ( 47)  0.1491 ( 70)
          -0.1120 ( 72) -0.1268 ( 73) -0.1239 ( 75) -0.1484 ( 77)  0.1358 ( 86)
           0.1239 ( 87)  0.1210 ( 88)
 CRD  2=   0.1824 (  6) -0.1372 (  7) -0.3434 ( 21)  0.4032 ( 23) -0.1322 ( 24)
           0.3292 ( 25) -0.1237 ( 26)  0.1331 ( 27)  0.1028 ( 29) -0.3164 ( 31)
          -0.1117 ( 36) -0.1191 ( 39) -0.1024 ( 40)  0.1176 ( 42)  0.1172 ( 46)
          -0.1191 ( 58) -0.1445 ( 59) -0.1441 ( 60) -0.1612 ( 61) -0.1207 ( 62)
          -0.1740 ( 63) -0.1603 ( 70)  0.1353 ( 71)  0.1391 ( 77) -0.1054 ( 91)
 CRD  3=  -0.1537 (  3)  0.2848 (  6)  0.2909 (  7)  0.2344 (  8)  0.2607 ( 15)
          -0.1845 ( 21)  0.1584 ( 22) -0.2185 ( 23)  0.2362 ( 25) -0.1077 ( 28)
           0.1718 ( 31)  0.3722 ( 34)  0.1115 ( 37) -0.1733 ( 39)  0.1020 ( 45)
          -0.1268 ( 58) -0.1193 ( 73) -0.1275 ( 74) -0.1013 ( 75) -0.1032 ( 76)
           0.1101 ( 78)  0.1285 ( 86)  0.1078 ( 87)
 CRD  4=   0.1154 (  3)  0.2770 (  6)  0.1221 (  7)  0.1076 ( 10)  0.1457 ( 15)
           0.1837 ( 23) -0.2121 ( 25) -0.1008 ( 26)  0.4146 ( 30)  0.2124 ( 31)
           0.1965 ( 33) -0.1552 ( 36)  0.1100 ( 40) -0.1162 ( 41)  0.1556 ( 44)
          -0.1559 ( 46)  0.1781 ( 65)  0.1950 ( 67)  0.1974 ( 69)  0.1634 ( 71)
           0.2607 ( 74)  0.1777 ( 76) -0.1245 ( 80) -0.1414 ( 83) -0.1221 ( 84)
           0.1033 ( 89)
 CRD  5=   0.2218 (  3)  0.1460 ( 21)  0.1155 ( 22)  0.1463 ( 24)  0.1648 ( 25)
          -0.1117 ( 30) -0.1227 ( 31) -0.1225 ( 37)  0.1926 ( 38) -0.1828 ( 40)
          -0.1735 ( 42)  0.1091 ( 44) -0.1533 ( 45)  0.1394 ( 47) -0.1121 ( 58)
          -0.2223 ( 60)  0.2497 ( 63) -0.1459 ( 64)  0.2342 ( 74) -0.3565 ( 78)
          -0.1504 ( 79) -0.2462 ( 81) -0.2179 ( 85)  0.1251 ( 89)
 CRD  6=  -0.1571 (  7) -0.2723 ( 21)  0.1056 ( 22)  0.1104 ( 23) -0.1805 ( 25)
           0.1804 ( 26)  0.1898 ( 27) -0.1381 ( 28) -0.1819 ( 30)  0.2854 ( 31)
          -0.1771 ( 32)  0.1128 ( 35) -0.1028 ( 36) -0.1666 ( 37)  0.1096 ( 38)
           0.3759 ( 39) -0.1237 ( 40)  0.1123 ( 42) -0.1218 ( 43) -0.1464 ( 59)
          -0.2979 ( 60) -0.1043 ( 65)  0.1262 ( 70) -0.1639 ( 79)  0.1778 ( 81)
 CRD  7=  -0.2345 (  6) -0.1426 (  7) -0.1712 (  8) -0.1967 ( 10) -0.1311 ( 21)
           0.1074 ( 22) -0.1849 ( 28)  0.1334 ( 29) -0.2011 ( 32) -0.2303 ( 33)
          -0.1017 ( 35)  0.1293 ( 37) -0.1660 ( 38) -0.1780 ( 39)  0.1028 ( 40)
           0.1882 ( 44) -0.1810 ( 45) -0.1810 ( 46)  0.1760 ( 47)  0.1565 ( 61)
           0.1396 ( 62)  0.2643 ( 63)  0.1362 ( 66)  0.1456 ( 68)  0.1825 ( 74)
           0.2157 ( 78)  0.1467 ( 79)  0.1065 ( 85)  0.1647 ( 89)
 CRD  8=   0.2011 (  7)  0.4226 (  8)  0.1048 ( 24) -0.1213 ( 27)  0.1752 ( 29)
          -0.1593 ( 30) -0.1379 ( 31)  0.2408 ( 33)  0.1744 ( 37)  0.1865 ( 39)
          -0.1912 ( 45)  0.1286 ( 47) -0.1263 ( 52) -0.1227 ( 53)  0.2868 ( 58)
           0.1013 ( 59)  0.1180 ( 60)  0.1185 ( 63)  0.1116 ( 74)  0.2572 ( 81)
           0.2152 ( 82)  0.1250 ( 89)  0.1477 ( 97)
 CRD  9=  -0.5195 (  3) -0.1225 (  6) -0.2417 (  7)  0.2706 ( 10) -0.1564 ( 26)
          -0.1958 ( 27) -0.2185 ( 28)  0.1002 ( 30)  0.3512 ( 33) -0.1659 ( 35)
           0.2407 ( 38)  0.1290 ( 48)  0.1297 ( 49)  0.1832 ( 50)  0.1212 ( 65)
           0.1347 ( 67) -0.1162 ( 70)
 CRD 10=   0.2745 (  3)  0.1043 (  5)  0.1934 (  6)  0.2278 ( 10) -0.1440 ( 15)
          -0.1000 ( 23)  0.3853 ( 24)  0.1513 ( 27) -0.2920 ( 28)  0.1562 ( 29)
          -0.1116 ( 32)  0.2985 ( 33) -0.2734 ( 44)  0.1653 ( 45) -0.2032 ( 49)
           0.1149 ( 56)  0.1767 ( 64)  0.1376 ( 66)  0.1323 ( 68)  0.1020 ( 72)
          -0.1071 ( 74)
 CRD 11=   0.1259 (  6) -0.2206 (  7) -0.1621 (  8)  0.5670 ( 15) -0.1057 ( 32)
           0.1221 ( 33)  0.1074 ( 36) -0.1650 ( 38)  0.2912 ( 43)  0.2042 ( 44)
           0.1255 ( 46)  0.1992 ( 47) -0.1454 ( 55) -0.2159 ( 56) -0.1596 ( 57)
          -0.1172 ( 71)  0.1266 ( 72)  0.1266 ( 73)  0.1328 ( 75)  0.1073 ( 95)
 CRD 12=  -0.3422 (  6)  0.3258 (  7) -0.1255 (  8)  0.1877 ( 15) -0.2697 ( 24)
           0.2895 ( 27) -0.3177 ( 35)  0.2267 ( 38)  0.3380 ( 43) -0.2193 ( 44)
           0.1193 ( 48) -0.1115 ( 50)  0.1377 ( 53) -0.1619 ( 57)
 CRD 13=  -0.1206 (  1)  0.1102 (  2) -0.1055 (  3)  0.2048 (  7) -0.1091 ( 19)
           0.3774 ( 27) -0.4148 ( 28) -0.1127 ( 29)  0.1689 ( 32)  0.1695 ( 35)
           0.1088 ( 37) -0.2632 ( 38)  0.1601 ( 43)  0.1299 ( 44) -0.3755 ( 45)
           0.1942 ( 48) -0.1197 ( 49) -0.1054 ( 53)  0.1052 ( 55) -0.1108 ( 56)
          -0.1588 ( 64) -0.1169 ( 66) -0.1385 ( 68)
 CRD 14=   0.1214 (  3)  0.1833 ( 10)  0.1485 ( 11) -0.2505 ( 24)  0.1294 ( 27)
           0.2385 ( 28)  0.2237 ( 33) -0.3279 ( 35)  0.4884 ( 37) -0.2093 ( 38)
          -0.2633 ( 43)  0.1613 ( 44) -0.1543 ( 50)  0.2191 ( 51) -0.1052 ( 52)
 CRD 15=  -0.2448 (  6) -0.1440 (  7)  0.3607 (  8)  0.1391 ( 15) -0.1936 ( 26)
           0.2839 ( 35)  0.2676 ( 37) -0.1948 ( 38)  0.1689 ( 40) -0.2154 ( 44)
           0.3143 ( 45) -0.2354 ( 53) -0.1485 ( 57) -0.1203 ( 59)  0.1172 ( 69)
           0.1173 ( 76) -0.1483 ( 85)  0.1071 ( 97)
 CRD 16=   0.1107 (  4) -0.1099 ( 12)  0.3768 ( 24) -0.1087 ( 25) -0.2298 ( 27)
          -0.1094 ( 28) -0.2090 ( 29) -0.3468 ( 35) -0.1535 ( 36)  0.3064 ( 37)
           0.1022 ( 42)  0.1963 ( 43)  0.1500 ( 46) -0.1264 ( 47) -0.1168 ( 48)
           0.1383 ( 50)  0.1101 ( 51) -0.1655 ( 52) -0.1179 ( 68) -0.1132 ( 72)
          -0.1310 ( 73)  0.1089 ( 76) -0.1137 ( 88) -0.1114 ( 89)
 CRD 17=  -0.1026 (  1)  0.1161 (  8) -0.1636 ( 10)  0.1104 ( 13) -0.1614 ( 14)
           0.1531 ( 15)  0.1100 ( 16) -0.1293 ( 18)  0.2650 ( 27) -0.2461 ( 28)
          -0.1557 ( 31)  0.1503 ( 32) -0.1221 ( 33) -0.1372 ( 35)  0.2822 ( 38)
           0.1031 ( 40) -0.3600 ( 43)  0.2720 ( 44)  0.2484 ( 45)  0.1171 ( 46)
          -0.1551 ( 49) -0.1169 ( 52) -0.2295 ( 55)  0.1012 ( 58)  0.1088 ( 60)
           0.1067 ( 79)
 CRD 18=  -0.1138 (  3)  0.3114 (  7) -0.2617 (  8) -0.1307 (  9) -0.1008 ( 13)
           0.1878 ( 16)  0.1650 ( 24) -0.1696 ( 27) -0.1233 ( 28) -0.1084 ( 30)
          -0.1070 ( 31)  0.1491 ( 32)  0.1057 ( 33) -0.1283 ( 36) -0.2838 ( 38)
          -0.1729 ( 40)  0.1094 ( 41)  0.1064 ( 42) -0.1881 ( 43)  0.2714 ( 45)
           0.1302 ( 50)  0.1275 ( 51)  0.1677 ( 52) -0.1231 ( 55)  0.1327 ( 59)
           0.1186 ( 71)  0.1163 ( 77)  0.1217 ( 85)
 CRD 19=  -0.1253 (  3) -0.1034 (  5)  0.1926 (  6) -0.1153 (  7) -0.1531 ( 10)
          -0.1763 ( 14) -0.2966 ( 17)  0.1203 ( 19) -0.1550 ( 20) -0.1377 ( 24)
           0.1098 ( 26) -0.1160 ( 29) -0.3802 ( 44)  0.1757 ( 45)  0.1145 ( 48)
           0.1543 ( 56) -0.1326 ( 57)  0.1142 ( 58)  0.1390 ( 63) -0.1164 ( 64)
          -0.1077 ( 66) -0.1140 ( 68)  0.1151 ( 71)  0.1626 ( 74)  0.1358 ( 82)
           0.1488 ( 86)  0.1465 ( 87)  0.1448 ( 88)  0.1798 ( 89)  0.1324 ( 94)
 CRD 20=  -0.1926 (  3)  0.1013 (  4) -0.1855 (  5)  0.1848 (  6)  0.1072 (  7)
           0.1007 ( 21) -0.2070 ( 22) -0.1247 ( 25)  0.1279 ( 26) -0.1473 ( 28)
           0.2369 ( 29) -0.1670 ( 32) -0.2112 ( 33) -0.1357 ( 34)  0.1022 ( 36)
           0.1796 ( 37) -0.1998 ( 46)  0.2547 ( 47)  0.1147 ( 48)  0.1282 ( 50)
          -0.1598 ( 61) -0.1755 ( 62) -0.1084 ( 71) -0.1294 ( 78) -0.1916 ( 79)
          -0.1020 ( 81) -0.1643 ( 82) -0.1016 ( 85)  0.1375 ( 89) -0.1638 ( 93)
 CRD 21=   0.1115 (  1)  0.2342 (  5) -0.1124 (  6) -0.4491 (  9) -0.2664 ( 10)
          -0.3109 ( 14)  0.1676 ( 33)  0.1089 ( 35) -0.1037 ( 38) -0.1360 ( 41)
          -0.1472 ( 59) -0.1263 ( 65) -0.1228 ( 67) -0.1327 ( 69) -0.1429 ( 70)
          -0.2514 ( 80) -0.2549 ( 83) -0.2614 ( 84) -0.1083 ( 93) -0.1023 ( 96)
          -0.1059 ( 98) -0.1123 ( 99)
 CRD 22=  -0.1001 (  1) -0.4340 (  5) -0.1254 (  7) -0.4575 (  9) -0.1151 ( 10)
          -0.1582 ( 14) -0.3773 ( 16)  0.1886 ( 17) -0.1033 ( 38) -0.1161 ( 42)
           0.1323 ( 58) -0.1214 ( 63)  0.1168 ( 64)  0.1114 ( 65)  0.1230 ( 67)
           0.1037 ( 69) -0.1095 ( 78)  0.1205 ( 82)  0.1052 ( 88)
 CRD 23=  -0.5101 (  1) -0.4641 (  2) -0.1626 (  3) -0.4479 (  4)  0.1206 ( 16)
          -0.1279 ( 17)  0.1754 ( 24)  0.1780 ( 27)  0.1570 ( 28) -0.1641 ( 48)
          -0.1831 ( 49) -0.1632 ( 50)
 CRD 24=   0.1802 ( 15)  0.4864 ( 18)  0.5093 ( 19)  0.5091 ( 20) -0.1876 ( 43)
          -0.1704 ( 44) -0.1698 ( 45)  0.1671 ( 55)  0.1806 ( 56)  0.1802 ( 57)
 CRD 25=  -0.1886 (  8) -0.4884 ( 11) -0.4858 ( 12) -0.5204 ( 13)  0.1704 ( 35)
           0.1762 ( 37)  0.1633 ( 38) -0.1650 ( 51) -0.1679 ( 52) -0.1771 ( 53)
 CRD 26=  -0.1106 (  4)  0.5797 (  5)  0.2179 (  6) -0.2702 (  9)  0.1138 ( 10)
           0.1306 ( 11) -0.3134 ( 33)  0.1871 ( 65)  0.2103 ( 67)  0.2001 ( 69)
           0.1336 ( 80)  0.1104 ( 83)  0.1234 ( 84)  0.1685 ( 96)  0.1453 ( 98)
           0.1583 ( 99)
 CRD 27=   0.1786 (  2)  0.1579 (  3)  0.1935 (  4) -0.1665 (  7) -0.2157 (  9)
           0.2440 ( 16) -0.3007 ( 17)  0.1745 ( 47) -0.1527 ( 62) -0.1038 ( 66)
          -0.1042 ( 68) -0.1927 ( 71) -0.1893 ( 72) -0.1846 ( 73) -0.1689 ( 75)
          -0.1380 ( 76)  0.1006 ( 79)  0.1038 ( 82) -0.1199 ( 86) -0.1152 ( 88)
          -0.1522 ( 90) -0.1318 ( 91) -0.1475 ( 92)  0.1299 ( 93) -0.2231 ( 94)
          -0.1685 ( 95) -0.1078 (103) -0.1074 (104) -0.1033 (105)
 CRD 28=   0.1235 (  4)  0.1146 (  5) -0.1971 (  6)  0.1321 (  7) -0.1426 (  9)
          -0.2507 ( 17)  0.1374 ( 18) -0.1042 ( 21)  0.1217 ( 24)  0.1176 ( 29)
           0.1159 ( 40) -0.1910 ( 46) -0.1299 ( 59) -0.1966 ( 61) -0.1469 ( 62)
           0.2157 ( 72)  0.2120 ( 73)  0.1712 ( 75) -0.1481 ( 76)  0.2193 ( 86)
           0.1748 ( 87)  0.2156 ( 88)  0.2072 ( 90)  0.1627 ( 91)  0.2036 ( 92)
          -0.1361 ( 94) -0.1858 ( 95) -0.1493 (100) -0.1295 (101) -0.1305 (102)
 CRD 29=   0.1098 ( 12) -0.1650 ( 16) -0.1569 ( 17)  0.6049 ( 18) -0.3061 ( 19)
          -0.2706 ( 20) -0.3249 ( 55)  0.1681 ( 56)  0.1492 ( 57)  0.1811 ( 66)
          -0.1515 ( 68) -0.1617 (100)  0.1709 (101) -0.1373 (103)  0.1953 (104)
 CRD 30=   0.3410 (  2) -0.3298 (  4) -0.2781 ( 11)  0.5019 ( 12) -0.2142 ( 13)
          -0.1851 ( 48)  0.1794 ( 50)  0.1449 ( 51) -0.2611 ( 52)  0.1136 ( 53)
          -0.1496 ( 65)  0.1262 ( 69) -0.1154 ( 75) -0.1452 ( 83)  0.1307 ( 84)
          -0.1163 ( 87) -0.1214 ( 91) -0.1595 ( 98)  0.1163 ( 99)
 CRD 31=  -0.1593 (  1)  0.4080 (  2) -0.2324 (  4)  0.5059 ( 11) -0.2466 ( 12)
          -0.2439 ( 13) -0.2013 ( 48)  0.1125 ( 50) -0.2669 ( 51)  0.1320 ( 52)
           0.1306 ( 53)  0.1377 ( 65) -0.1426 ( 67) -0.1262 ( 75) -0.1438 ( 80)
           0.1366 ( 83) -0.1305 ( 87) -0.1363 ( 91) -0.1328 ( 96)  0.1476 ( 98)
 CRD 32=   0.1256 (  1)  0.2170 (  2) -0.3459 (  4) -0.1766 ( 11) -0.2754 ( 12)
           0.4436 ( 13) -0.2569 ( 19)  0.2382 ( 20) -0.1050 ( 48)  0.1747 ( 50)
           0.1464 ( 52) -0.2406 ( 53)  0.1405 ( 56) -0.1274 ( 57) -0.1024 ( 64)
           0.1299 ( 67) -0.1248 ( 69) -0.1248 ( 75)  0.1205 ( 80) -0.1341 ( 84)
          -0.1198 ( 87) -0.1311 ( 91)  0.1324 ( 96) -0.1223 ( 99) -0.1011 (102)
          -0.1025 (105)
 CRD 33=   0.1755 (  4)  0.1205 ( 11)  0.1125 ( 12) -0.2304 ( 13) -0.4733 ( 19)
           0.5032 ( 20)  0.1255 ( 53)  0.2567 ( 56) -0.2734 ( 57) -0.2039 ( 64)
          -0.1980 (102) -0.1956 (105)
 CRD 34=   0.5881 (  1) -0.2795 (  2) -0.2947 (  4)  0.1785 ( 11) -0.1874 ( 13)
           0.1542 ( 48) -0.3262 ( 49)  0.1681 ( 50) -0.1024 ( 51)  0.1046 ( 53)
          -0.1782 ( 72)  0.1645 ( 73) -0.1624 ( 86)  0.1803 ( 88) -0.1690 ( 90)
           0.1737 ( 92)
 CRD 35=   0.5695 ( 16)  0.5608 ( 17)  0.1656 ( 18) -0.1413 ( 19) -0.1346 ( 20)
          -0.1122 ( 46)  0.2360 ( 54) -0.1437 ( 61) -0.1289 ( 76) -0.1381 ( 95)
           0.1175 (101) -0.1676 (103) -0.1194 (105)
 CRD 36=   0.1255 (  5)  0.1598 (  9) -0.1821 ( 10) -0.3485 ( 16)  0.3414 ( 17)
           0.1137 ( 29) -0.1123 ( 32)  0.1474 ( 33) -0.1672 ( 64) -0.1665 ( 66)
          -0.1691 ( 68) -0.2837 (100) -0.2812 (101) -0.2819 (102) -0.2803 (103)
          -0.2777 (104) -0.2785 (105)
 CRD 37=  -0.1267 (  9)  0.5659 ( 10) -0.1240 ( 14) -0.4396 ( 33)  0.1244 ( 41)
           0.1852 ( 59) -0.1204 ( 80) -0.1341 ( 83) -0.1297 ( 84)  0.1866 ( 85)
           0.1650 ( 93) -0.2116 ( 96) -0.2253 ( 98) -0.2209 ( 99) -0.1061 (103)
          -0.1023 (104) -0.1041 (105)
 CRD 38=   0.3936 (  9)  0.1594 ( 10) -0.1491 ( 13) -0.7669 ( 14) -0.1308 ( 38)
           0.1105 ( 51)
 CRD 39=   0.1407 (  8) -0.1516 ( 11) -0.2009 ( 12) -0.1048 ( 13)  0.1919 ( 14)
          -0.1464 ( 15)  0.2058 ( 18)  0.1477 ( 19)  0.1226 ( 20) -0.1313 ( 26)
           0.1128 ( 32) -0.1835 ( 35) -0.1501 ( 37) -0.1372 ( 38)  0.1676 ( 40)
           0.1802 ( 43)  0.1540 ( 44)  0.1559 ( 45) -0.1181 ( 46) -0.1266 ( 47)
           0.1561 ( 51)  0.1192 ( 52)  0.1956 ( 53) -0.1246 ( 55) -0.1716 ( 56)
          -0.1939 ( 57) -0.1061 ( 59)  0.1035 ( 71) -0.1374 ( 90) -0.1646 ( 91)
          -0.1409 ( 92)  0.1573 ( 94) -0.1111 ( 96)  0.2619 ( 97) -0.1058 ( 98)
 CRD 40=  -0.1235 (  5)  0.1495 (  6)  0.1509 (  7)  0.1726 (  8) -0.1581 ( 11)
          -0.1866 ( 12) -0.1241 ( 13)  0.1215 ( 14)  0.2101 ( 15) -0.2296 ( 18)
          -0.1749 ( 19) -0.1665 ( 20) -0.1799 ( 35) -0.1608 ( 37) -0.1471 ( 38)
           0.1442 ( 40) -0.2110 ( 43) -0.1891 ( 44) -0.1940 ( 45)  0.1256 ( 46)
           0.1162 ( 47)  0.1605 ( 51)  0.1393 ( 52)  0.1880 ( 53)  0.1658 ( 55)
           0.2110 ( 56)  0.2174 ( 57) -0.1169 ( 59)  0.1126 ( 61) -0.1113 ( 94)
           0.2114 ( 97)
 CRD 41=   0.2836 (  1)  0.2367 (  2) -0.3954 (  3)  0.2364 (  4) -0.1206 (  5)
          -0.1755 ( 14)  0.2649 ( 24)  0.2647 ( 27)  0.2767 ( 28) -0.2815 ( 48)
          -0.2430 ( 49) -0.2818 ( 50) -0.1088 ( 79) -0.1372 ( 82) -0.1324 ( 93)
           0.1299 ( 94)  0.1271 ( 95)
 CRD 42=  -0.1126 (  5)  0.2204 (  8) -0.1088 ( 11) -0.1252 ( 12)  0.1120 ( 26)
          -0.1173 ( 37) -0.1204 ( 38)  0.1451 ( 53) -0.4570 ( 70) -0.4427 ( 77)
           0.1136 ( 82)  0.1052 ( 84) -0.5088 ( 97)  0.1000 ( 98)  0.1585 ( 99)
 CRD 43=   0.1844 (  1) -0.1735 (  2)  0.1512 (  3) -0.1582 (  4) -0.4282 (  5)
           0.1096 (  6) -0.1728 (  8) -0.1116 (  9)  0.2157 ( 10)  0.1172 ( 13)
           0.1964 ( 16)  0.2428 ( 49) -0.1280 ( 51) -0.1006 ( 56) -0.1020 ( 58)
          -0.1489 ( 59)  0.1344 ( 61)  0.1195 ( 70)  0.1771 ( 72) -0.1789 ( 88)
          -0.1170 ( 92)  0.1007 ( 97)  0.1312 ( 98)  0.1117 ( 99) -0.1348 (100)
          -0.1540 (101)
 CRD 44=  -0.1147 (  2)  0.1407 (  4) -0.2600 (  8)  0.1842 ( 13)  0.3235 ( 15)
          -0.1905 ( 20) -0.1093 ( 30)  0.1334 ( 32)  0.1376 ( 36) -0.1494 ( 42)
          -0.1038 ( 44) -0.1065 ( 45) -0.1006 ( 46) -0.1072 ( 48) -0.1774 ( 52)
           0.1890 ( 55) -0.1097 ( 70) -0.1655 ( 77)  0.1133 ( 79)  0.1160 ( 82)
           0.1644 ( 84)  0.1022 ( 89) -0.1766 ( 90) -0.2889 ( 91) -0.1684 ( 92)
           0.1058 ( 94) -0.1057 ( 96) -0.1068 ( 98) -0.1089 (101) -0.1048 (102)
           0.1814 (103)
 CRD 45=   0.1637 (  6)  0.1978 (  7) -0.1043 (  8) -0.2054 (  9) -0.1764 ( 12)
           0.2253 ( 13) -0.1539 ( 14) -0.2171 ( 15) -0.1135 ( 16) -0.1475 ( 18)
           0.1927 ( 19) -0.1857 ( 29) -0.1467 ( 30) -0.1203 ( 32)  0.1384 ( 33)
           0.1294 ( 41) -0.1798 ( 52)  0.1382 ( 53)  0.1185 ( 54) -0.1996 ( 55)
          -0.1021 ( 67) -0.1004 ( 68)  0.1061 ( 69) -0.1299 ( 77)  0.2765 ( 84)
          -0.1440 ( 96) -0.1358 ( 98)  0.2545 (101)  0.1014 (102) -0.1846 (103)
          -0.1497 (105)
 CRD 46=   0.1346 (  6) -0.1347 (  8)  0.1450 (  9) -0.2212 ( 10)  0.2781 ( 11)
          -0.1250 ( 12)  0.1874 ( 16) -0.2204 ( 17) -0.1921 ( 19)  0.2233 ( 20)
          -0.1834 ( 26) -0.1134 ( 32)  0.1724 ( 51) -0.1458 ( 52) -0.1111 ( 53)
          -0.1518 ( 56)  0.1759 ( 57)  0.2059 ( 64)  0.1832 ( 67) -0.1355 ( 70)
           0.1234 ( 80) -0.1412 ( 83) -0.2817 ( 98) -0.1254 ( 99) -0.1500 (100)
          -0.1184 (101) -0.1878 (103) -0.1562 (104)
 CRD 47=   0.1612 (  1) -0.2836 (  3)  0.1045 (  6)  0.2109 (  7) -0.2377 (  8)
           0.2027 (  9)  0.1156 ( 11)  0.1515 ( 14) -0.1967 ( 15) -0.1028 ( 16)
           0.1598 ( 17)  0.1655 ( 19)  0.1657 ( 22) -0.1368 ( 33)  0.1041 ( 39)
          -0.1112 ( 41)  0.1143 ( 47) -0.1284 ( 48) -0.1119 ( 53)  0.1136 ( 58)
          -0.1105 ( 62) -0.1362 ( 71)  0.1418 ( 79)  0.1384 ( 81)  0.2824 ( 82)
          -0.1016 ( 83) -0.1050 ( 84) -0.1220 ( 89)  0.1287 ( 93) -0.2560 ( 94)
          -0.1409 ( 95)  0.1450 (101)  0.1202 (104)
 CRD 48=   0.1994 (  2) -0.2143 (  4)  0.2497 (  6) -0.2074 (  7) -0.1849 ( 12)
           0.1527 ( 17)  0.2134 ( 18) -0.1588 ( 20) -0.1287 ( 36)  0.1024 ( 42)
           0.1388 ( 48) -0.1840 ( 50) -0.1408 ( 52) -0.1490 ( 54)  0.1521 ( 55)
          -0.1384 ( 57) -0.1077 ( 65) -0.1002 ( 66)  0.1236 ( 68)  0.1485 ( 75)
           0.1485 ( 84)  0.1353 ( 87) -0.1030 ( 88)  0.2727 ( 91) -0.1805 ( 94)
          -0.1600 ( 98) -0.1361 (101)  0.2404 (103)
 CRD 49=   0.2487 (  2) -0.2164 (  4) -0.1978 (  8) -0.1393 ( 11)  0.1064 ( 12)
           0.2060 ( 15) -0.1723 ( 18)  0.1064 ( 20)  0.1121 ( 24)  0.1060 ( 39)
          -0.1022 ( 41) -0.1327 ( 46)  0.1759 ( 48) -0.1871 ( 50) -0.1521 ( 51)
           0.1078 ( 54)  0.1288 ( 57) -0.1324 ( 59) -0.1353 ( 61) -0.1101 ( 67)
          -0.1003 ( 70)  0.1345 ( 71) -0.1481 ( 72) -0.1351 ( 73)  0.1425 ( 75)
          -0.1036 ( 80) -0.1355 ( 85) -0.1356 ( 86)  0.1550 ( 87) -0.1226 ( 88)
          -0.1282 ( 90)  0.1624 ( 91) -0.1152 ( 92) -0.1581 ( 95)  0.1083 ( 98)
          -0.1072 (100) -0.1037 (103)
 CRD 50=   0.1640 (  1)  0.1257 (  3) -0.1489 (  4)  0.1254 (  8)  0.1759 ( 11)
          -0.1358 ( 13)  0.2198 ( 15) -0.1770 ( 18)  0.2147 ( 19) -0.1084 ( 20)
           0.1072 ( 32) -0.1292 ( 45) -0.1581 ( 47)  0.1539 ( 49)  0.1638 ( 51)
           0.1066 ( 54)  0.2143 ( 56) -0.1446 ( 61) -0.1571 ( 64)  0.1313 ( 66)
           0.1508 ( 67)  0.1179 ( 72) -0.1778 ( 76)  0.1007 ( 78)  0.1309 ( 80)
           0.1349 ( 85) -0.1747 ( 88) -0.1342 ( 92)  0.1298 ( 94)  0.1300 ( 96)
           0.1497 (101) -0.1387 (102)  0.1647 (104) -0.1236 (105)
 CRD 51=  -0.1779 (  1)  0.1386 (  2)  0.1896 (  3) -0.1907 (  8)  0.1347 ( 12)
          -0.1698 ( 13)  0.1114 ( 19) -0.1822 ( 20) -0.1044 ( 21) -0.1075 ( 27)
           0.1190 ( 38)  0.1675 ( 40)  0.1151 ( 44)  0.1285 ( 46)  0.1444 ( 48)
          -0.1015 ( 49) -0.1685 ( 53) -0.1562 ( 57) -0.1748 ( 59) -0.1402 ( 64)
           0.1314 ( 67)  0.1054 ( 68) -0.1063 ( 69) -0.1671 ( 70) -0.1459 ( 72)
          -0.1091 ( 74) -0.1483 ( 77)  0.1520 ( 80)  0.1199 ( 81) -0.1325 ( 86)
          -0.1699 ( 90) -0.2016 ( 93)  0.1537 ( 95)  0.1319 ( 96) -0.1057 ( 99)
           0.1127 (100) -0.1330 (102) -0.1909 (105)
 CRD 52=  -0.2122 (  1)  0.1296 (  4) -0.1109 (  7)  0.1024 ( 11) -0.1510 ( 12)
           0.1135 ( 16) -0.1715 ( 18)  0.1043 ( 19)  0.1310 ( 22)  0.1300 ( 28)
           0.1051 ( 31)  0.1055 ( 35)  0.1378 ( 43) -0.1691 ( 49) -0.1150 ( 52)
          -0.1557 ( 54) -0.1374 ( 55) -0.1148 ( 59)  0.1506 ( 61) -0.1317 ( 65)
           0.1384 ( 66) -0.1101 ( 68)  0.1816 ( 73)  0.1268 ( 77) -0.1785 ( 83)
          -0.1627 ( 86)  0.1172 ( 88) -0.1117 ( 90)  0.1682 ( 92)  0.1384 ( 96)
           0.1997 ( 99) -0.2567 (100) -0.1559 (102)  0.2490 (104)  0.1013 (105)
 CRD 53=   0.2041 (  6) -0.1577 (  7) -0.1242 (  9) -0.1283 ( 10)  0.1930 ( 12)
          -0.1246 ( 13)  0.1012 ( 16)  0.1245 ( 17) -0.1238 ( 18) -0.1591 ( 25)
           0.1274 ( 31)  0.1041 ( 33) -0.1663 ( 35)  0.1762 ( 41)  0.1248 ( 43)
           0.1568 ( 52) -0.1849 ( 54) -0.1081 ( 55)  0.1282 ( 65) -0.1098 ( 68)
          -0.1573 ( 69) -0.2057 ( 77)  0.1514 ( 80)  0.2665 ( 83) -0.1388 ( 96)
          -0.3093 ( 99) -0.2250 (100) -0.1086 (102)  0.2250 (104)  0.1460 (105)
 CRD 54=  -0.1048 (  7)  0.1578 (  9) -0.1473 ( 10) -0.1447 ( 11)  0.1519 ( 13)
           0.1609 ( 16) -0.1539 ( 17)  0.1517 ( 19) -0.1439 ( 20)  0.1068 ( 21)
          -0.1082 ( 23) -0.1083 ( 26)  0.1063 ( 29)  0.1246 ( 37) -0.1157 ( 38)
           0.1326 ( 39) -0.1059 ( 40)  0.1126 ( 44) -0.1301 ( 45)  0.1079 ( 46)
          -0.1468 ( 47) -0.1155 ( 51)  0.1114 ( 53)  0.1198 ( 56) -0.1066 ( 57)
          -0.1094 ( 60)  0.1010 ( 62) -0.1169 ( 63)  0.1702 ( 65)  0.1790 ( 66)
           0.1602 ( 68)  0.1705 ( 69) -0.1815 ( 74) -0.1765 ( 78) -0.1941 ( 79)
          -0.1984 ( 80) -0.1790 ( 89)  0.1135 ( 90)  0.1080 ( 92) -0.2243 ( 96)
          -0.2347 (102) -0.2047 (105)
 CRD 55=  -0.1237 (  2)  0.1374 (  4)  0.2446 (  6) -0.1992 (  7) -0.1296 (  8)
           0.1387 ( 15) -0.1029 ( 16)  0.1296 ( 21) -0.1335 ( 23) -0.1373 ( 24)
           0.1270 ( 27) -0.1003 ( 31) -0.1872 ( 36)  0.1166 ( 40)  0.1895 ( 42)
           0.1051 ( 50)  0.1321 ( 58)  0.1395 ( 60)  0.1803 ( 62)  0.1443 ( 63)
          -0.1118 ( 70) -0.2373 ( 75) -0.2542 ( 87)  0.2598 ( 90)  0.2788 ( 92)
          -0.1977 ( 93) -0.2184 ( 95)
 CRD 56=  -0.1043 (  1) -0.1827 (  3)  0.1545 (  6)  0.2050 (  7)  0.1166 (  8)
          -0.1138 (  9) -0.1428 ( 17)  0.2108 ( 22) -0.1503 ( 25)  0.1182 ( 28)
          -0.1425 ( 31) -0.2012 ( 34)  0.1156 ( 41)  0.1387 ( 54) -0.2123 ( 58)
           0.2206 ( 62)  0.1132 ( 68)  0.1517 ( 70)  0.1624 ( 71)  0.1921 ( 73)
           0.1198 ( 75)  0.1865 ( 79) -0.1443 ( 81) -0.1849 ( 86) -0.1936 ( 89)
          -0.1069 ( 90)  0.2468 ( 93) -0.2104 ( 95)  0.1065 (100) -0.1219 (104)
          -0.1392 (105)
 CRD 57=   0.1490 (  3) -0.1998 (  5)  0.1063 (  9) -0.1465 ( 10) -0.1467 ( 16)
           0.1016 ( 17) -0.1264 ( 21) -0.1238 ( 23) -0.1167 ( 26) -0.1096 ( 29)
           0.1263 ( 30)  0.1346 ( 32)  0.1343 ( 36)  0.1317 ( 42) -0.2079 ( 60)
           0.2038 ( 63)  0.1821 ( 65) -0.1794 ( 66) -0.1673 ( 68)  0.1727 ( 69)
          -0.1976 ( 71)  0.1612 ( 73)  0.1050 ( 75) -0.2558 ( 76) -0.1683 ( 79)
           0.1970 ( 81)  0.2522 ( 85) -0.1590 ( 86) -0.1007 ( 87)  0.1674 ( 89)
          -0.1317 ( 96)  0.1296 (102)

 THE DETERMINANT OF THE G MATRIX IS 10**(   -20)


                     --------------------
                     INTERNAL COORDINATES
                     --------------------

                 - - ATOMS - -         COORDINATE      COORDINATE
 NO.   TYPE    I  J  K  L  M  N        (BOHR,RAD)       (ANG,DEG)
 ----------------------------------------------------------------
   1 STRETCH   1  9                     2.0597515       1.0899736
   2 STRETCH   1 10                     2.0598115       1.0900054
   3 STRETCH   1  2                     2.8911724       1.5299426
   4 STRETCH   1  8                     2.0597846       1.0899912
   5 STRETCH   2 11                     2.0599069       1.0900558
   6 STRETCH   2  3                     2.8913877       1.5300566
   7 STRETCH   2  6                     2.8913661       1.5300452
   8 STRETCH   3  4                     2.8912378       1.5299773
   9 STRETCH   3 12                     2.0597940       1.0899961
  10 STRETCH   3  5                     2.7004687       1.4290266
  11 STRETCH   4 15                     2.0597814       1.0899894
  12 STRETCH   4 14                     2.0597846       1.0899912
  13 STRETCH   4 13                     2.0597932       1.0899957
  14 STRETCH   5 16                     1.8272724       0.9669510
  15 STRETCH   6  7                     2.8911904       1.5299522
  16 STRETCH   6 18                     2.0598514       1.0900265
  17 STRETCH   6 17                     2.0597007       1.0899468
  18 STRETCH   7 21                     2.0598292       1.0900147
  19 STRETCH   7 20                     2.0596883       1.0899402
  20 STRETCH   7 19                     2.0598229       1.0900114
  21 BEND      1  2  6                  1.9106917     109.4745707
  22 BEND      1  2 11                  1.9106914     109.4745535
  23 BEND      1  2  3                  1.9105997     109.4692975
  24 BEND      2  1  8                  1.9105688     109.4675259
  25 BEND      2  3  4                  1.9106870     109.4742999
  26 BEND      2  3 12                  1.9105947     109.4690134
  27 BEND      2  1 10                  1.9106964     109.4748420
  28 BEND      2  1  9                  1.9106400     109.4716093
  29 BEND      2  6 17                  1.9105703     109.4676174
  30 BEND      2  3  5                  1.9105900     109.4687422
  31 BEND      2  6  7                  1.9105397     109.4658588
  32 BEND      2  6 18                  1.9105652     109.4673220
  33 BEND      3  5 16                  1.9896427     113.9981318
  34 BEND      3  2  6                  1.9106390     109.4715530
  35 BEND      3  4 14                  1.9106608     109.4728017
  36 BEND      3  2 11                  1.9105287     109.4652290
  37 BEND      3  4 15                  1.9105683     109.4674982
  38 BEND      3  4 13                  1.9106127     109.4700414
  39 BEND      4  3  5                  1.9106305     109.4710640
  40 BEND      4  3 12                  1.9106834     109.4740937
  41 BEND      5  3 12                  1.9106139     109.4701105
  42 BEND      6  2 11                  1.9106489     109.4721197
  43 BEND      6  7 21                  1.9105542     109.4666917
  44 BEND      6  7 19                  1.9107158     109.4759498
  45 BEND      6  7 20                  1.9107791     109.4795754
  46 BEND      7  6 17                  1.9106920     109.4745863
  47 BEND      7  6 18                  1.9107518     109.4780166
  48 BEND      8  1  9                  1.9106196     109.4704372
  49 BEND      8  1 10                  1.9106300     109.4710347
  50 BEND      9  1 10                  1.9106447     109.4718746
  51 BEND     13  4 14                  1.9106498     109.4721675
  52 BEND     13  4 15                  1.9106076     109.4697531
  53 BEND     14  4 15                  1.9107003     109.4750617
  54 BEND     17  6 18                  1.9106804     109.4739218
  55 BEND     19  7 20                  1.9105654     109.4673341
  56 BEND     19  7 21                  1.9105411     109.4659411
  57 BEND     20  7 21                  1.9106439     109.4718311
  58 TORSION   1  2  3  5               1.0472531      60.0031831
  59 TORSION   1  2  3 12               3.1415744     179.9989544
  60 TORSION   1  2  3  4              -1.0471451     -59.9969929
  61 TORSION   1  2  6 17              -3.0542844    -174.9976039
  62 TORSION   1  2  6 18              -0.9599117     -54.9988892
  63 TORSION   1  2  6  7               1.1345297      65.0037635
  64 TORSION   2  6  7 21              -3.1415105    -179.9952923
  65 TORSION   2  3  4 13               1.0471191      59.9955069
  66 TORSION   2  6  7 19              -1.0472261     -60.0016360
  67 TORSION   2  3  4 14               3.1415388     179.9969126
  68 TORSION   2  6  7 20               1.0472258      60.0016175
  69 TORSION   2  3  4 15              -1.0471922     -59.9996945
  70 TORSION   2  3  5 16              -1.0472121     -60.0008354
  71 TORSION   3  2  6 18               1.1344817      65.0010106
  72 TORSION   3  2  1  8               3.1415417     179.9970801
  73 TORSION   3  2  1 10               1.0471514      59.9973529
  74 TORSION   3  2  6  7              -3.0542623    -174.9963367
  75 TORSION   3  2  1  9              -1.0473006     -60.0059038
  76 TORSION   3  2  6 17              -0.9598910     -54.9977041
  77 TORSION   4  3  5 16               1.0472206      60.0013222
  78 TORSION   4  3  2  6               3.1415905     179.9998783
  79 TORSION   4  3  2 11               1.0472367      60.0022426
  80 TORSION   5  3  4 14               1.0471654      59.9981584
  81 TORSION   5  3  2  6              -1.0471966     -59.9999457
  82 TORSION   5  3  2 11              -3.1415504    -179.9975814
  83 TORSION   5  3  4 13              -1.0472542     -60.0032473
  84 TORSION   5  3  4 15              -3.1415656    -179.9984487
  85 TORSION   6  2  3 12               1.0471247      59.9958256
  86 TORSION   6  2  1  8              -1.0472262     -60.0016390
  87 TORSION   6  2  1  9               1.0471169      59.9953771
  88 TORSION   6  2  1 10               3.1415688     179.9986338
  89 TORSION   7  6  2 11              -0.9599821     -55.0029208
  90 TORSION   8  1  2 11               1.0472596      60.0035552
  91 TORSION   9  1  2 11              -3.1415827    -179.9994288
  92 TORSION  10  1  2 11              -1.0471307     -59.9961721
  93 TORSION  11  2  3 12              -1.0472291     -60.0018101
  94 TORSION  11  2  6 18              -3.0544235    -175.0055736
  95 TORSION  11  2  6 17               1.1343892      64.9957118
  96 TORSION  12  3  4 14              -1.0472350     -60.0021454
  97 TORSION  12  3  5 16              -3.1415217    -179.9959348
  98 TORSION  12  3  4 13               3.1415307     179.9964489
  99 TORSION  12  3  4 15               1.0472193      60.0012475
 100 TORSION  17  6  7 20              -1.0470710     -59.9927470
 101 TORSION  17  6  7 19              -3.1415228    -179.9960005
 102 TORSION  17  6  7 21               1.0473781      60.0103432
 103 TORSION  18  6  7 20               3.1415529     179.9977205
 104 TORSION  18  6  7 19               1.0471010      59.9944669
 105 TORSION  18  6  7 21              -1.0471834     -59.9991893

     ------------------------------------------
     THE POINT GROUP IS C1 , NAXIS= 1, ORDER= 1
     ------------------------------------------

     DIMENSIONS OF THE SYMMETRY SUBSPACES ARE
 A   =  217

 ..... DONE SETTING UP THE RUN .....
 STEP CPU TIME =     0.01 TOTAL CPU TIME =        0.0 (    0.0 MIN)
 TOTAL WALL CLOCK TIME=        0.0 SECONDS, CPU UTILIZATION IS  33.33%


          -----------------------------
          STATIONARY POINT LOCATION RUN
          -----------------------------

 OBTAINING INITIAL HESSIAN, HESS=GUESS   
 DIAGONAL GUESS HESSIAN IN INTERNAL COORDS IS
     1  0.3464     2  0.3464     3  0.3672     4  0.3464     5  0.3463
     6  0.3671     7  0.3671     8  0.3672     9  0.3464    10  0.3608
    11  0.3464    12  0.3464    13  0.3464    14  0.3553    15  0.3672
    16  0.3464    17  0.3464    18  0.3464    19  0.3464    20  0.3464
    21  0.2485    22  0.2241    23  0.2485    24  0.2241    25  0.2485
    26  0.2241    27  0.2241    28  0.2241    29  0.2241    30  0.2430
    31  0.2485    32  0.2241    33  0.2143    34  0.2485    35  0.2241
    36  0.2241    37  0.2241    38  0.2241    39  0.2430    40  0.2241
    41  0.2194    42  0.2241    43  0.2241    44  0.2241    45  0.2241
    46  0.2241    47  0.2241    48  0.2034    49  0.2034    50  0.2034
    51  0.2034    52  0.2034    53  0.2034    54  0.2034    55  0.2034
    56  0.2034    57  0.2034    58  0.2500    59  0.2500    60  0.2500
    61  0.2500    62  0.2500    63  0.2500    64  0.2500    65  0.2500
    66  0.2500    67  0.2500    68  0.2500    69  0.2500    70  0.2500
    71  0.2500    72  0.2500    73  0.2500    74  0.2500    75  0.2500
    76  0.2500    77  0.2500    78  0.2500    79  0.2500    80  0.2500
    81  0.2500    82  0.2500    83  0.2500    84  0.2500    85  0.2500
    86  0.2500    87  0.2500    88  0.2500    89  0.2500    90  0.2500
    91  0.2500    92  0.2500    93  0.2500    94  0.2500    95  0.2500
    96  0.2500    97  0.2500    98  0.2500    99  0.2500   100  0.2500
   101  0.2500   102  0.2500   103  0.2500   104  0.2500   105  0.2500
 TRANSFORMING HESSIAN TO SYMMETRY COORDINATES

          PARAMETERS CONTROLLING GEOMETRY SEARCH ARE
          METHOD =QA                  UPHESS =BFGS    
          NNEG   =         0          NFRZ   =         3
          NSTEP  =        50          IFOLOW =         1
          HESS   =GUESS               RESTAR =         F
          IHREP  =         0          HSSEND =         F
          NPRT   =         0          NPUN   =         0
          OPTTOL = 5.000E-04          RMIN   = 1.500E-03
          RMAX   = 1.000E-01          RLIM   = 7.000E-02
          DXMAX  = 3.000E-01          PURIFY =         F
          MOVIE  =         F          TRUPD  =         T
          TRMAX  = 5.000E-01          TRMIN  = 5.000E-02
          ITBMAT =         5          STPT   =         F
          STSTEP = 1.000E-02          PROJCT=          F
          FROZEN COORD(S)=   1   2   3


      ***** EQUILIBRIUM GEOMETRY LOCATED *****
            (SUBJECT TO   3 CONSTRAINT(S))
 COORDINATES OF ALL ATOMS ARE (ANGS)
   ATOM   CHARGE       X              Y              Z
 ------------------------------------------------------------
 C           6.0   0.2650271217   1.2666371863  -1.0044600890
 C           6.0   0.2891512510   0.3218513593   0.2056173148
 C           6.0  -1.0682491405  -0.3721515749   0.3928472717
 C           6.0  -2.1576301385   0.6394643306   0.7330728861
 O           8.0  -1.4330719135  -1.1730854858  -0.7175048071
 C           6.0   1.4631583590  -0.6672053449   0.1493927148
 C           6.0   2.8134806941   0.0076137786   0.4048079372
 H           1.0   1.1957226589   1.8089655833  -1.1106324696
 H           1.0   0.1026880361   0.7133393512  -1.9267512008
 H           1.0  -0.5248782360   2.0033449056  -0.9159679729
 H           1.0   0.4287433583   0.9220121854   1.1030926533
 H           1.0  -0.9806199824  -1.0764037402   1.2126921745
 H           1.0  -2.3260854754   1.3245549651  -0.0916637266
 H           1.0  -3.0966786954   0.1467512398   0.9561555346
 H           1.0  -1.8560600936   1.2254741556   1.5963923119
 H           1.0  -1.5851385990  -0.6288901906  -1.4718707435
 H           1.0   1.3154771913  -1.4308898393   0.9109086975
 H           1.0   1.4751189458  -1.1836467201  -0.8078662596
 H           1.0   3.0486894308   0.7482209325  -0.3529074403
 H           1.0   2.8059577728   0.5125500516   1.3684073869
 H           1.0   3.6212276459  -0.7180551677   0.4174084346


                     --------------------
                     INTERNAL COORDINATES
                     --------------------

                 - - ATOMS - -         COORDINATE      COORDINATE
 NO.   TYPE    I  J  K  L  M  N        (BOHR,RAD)       (ANG,DEG)
 ----------------------------------------------------------------
   1 STRETCH   1  9                     2.0554741       1.0877101
   2 STRETCH   1 10                     2.0479954       1.0837526
   3 STRETCH   1  2                     2.9015077       1.5354119
   4 STRETCH   1  8                     2.0454369       1.0823987
   5 STRETCH   2 11                     2.0572347       1.0886418
   6 STRETCH   2  3                     2.9025791       1.5359788
   7 STRETCH   2  6                     2.9028597       1.5361273
   8 STRETCH   3  4                     2.8819846       1.5250807
   9 STRETCH   3 12                     2.0491076       1.0843411
  10 STRETCH   3  5                     2.6774640       1.4168530
  11 STRETCH   4 15                     2.0524829       1.0861273
  12 STRETCH   4 14                     2.0478425       1.0836717
  13 STRETCH   4 13                     2.0509551       1.0853188
  14 STRETCH   5 16                     1.7811013       0.9425183
  15 STRETCH   6  7                     2.8931873       1.5310089
  16 STRETCH   6 18                     2.0555489       1.0877497
  17 STRETCH   6 17                     2.0570519       1.0885451
  18 STRETCH   7 21                     2.0520800       1.0859141
  19 STRETCH   7 20                     2.0558457       1.0879068
  20 STRETCH   7 19                     2.0509881       1.0853362
  21 BEND      1  2  6                  1.9598910     112.2934827
  22 BEND      1  2 11                  1.8886268     108.2103448
  23 BEND      1  2  3                  1.9392875     111.1129862
  24 BEND      2  1  8                  1.9520703     111.8453908
  25 BEND      2  3  4                  1.9377217     111.0232742
  26 BEND      2  3 12                  1.8904082     108.3124090
  27 BEND      2  1 10                  1.9448436     111.4313322
  28 BEND      2  1  9                  1.9364868     110.9525193
  29 BEND      2  6 17                  1.8990812     108.8093397
  30 BEND      2  3  5                  1.9686500     112.7953354
  31 BEND      2  6  7                  1.9651016     112.5920271
  32 BEND      2  6 18                  1.9244287     110.2616411
  33 BEND      3  5 16                  1.9202508     110.0222654
  34 BEND      3  2  6                  1.9702901     112.8893078
  35 BEND      3  4 14                  1.9426185     111.3038400
  36 BEND      3  2 11                  1.8358056     105.1839123
  37 BEND      3  4 15                  1.9143955     109.6867843
  38 BEND      3  4 13                  1.9391242     111.1036303
  39 BEND      4  3  5                  1.9453634     111.4611120
  40 BEND      4  3 12                  1.8963825     108.6547162
  41 BEND      5  3 12                  1.8195380     104.2518493
  42 BEND      6  2 11                  1.8620293     106.6864202
  43 BEND      6  7 21                  1.9427585     111.3118612
  44 BEND      6  7 19                  1.9556665     112.0514372
  45 BEND      6  7 20                  1.9243595     110.2576795
  46 BEND      7  6 17                  1.8882786     108.1903966
  47 BEND      7  6 18                  1.9245102     110.2663115
  48 BEND      8  1  9                  1.8755199     107.4593758
  49 BEND      8  1 10                  1.8693320     107.1048350
  50 BEND      9  1 10                  1.8820401     107.8329546
  51 BEND     13  4 14                  1.8848715     107.9951801
  52 BEND     13  4 15                  1.8823476     107.8505709
  53 BEND     14  4 15                  1.8989394     108.8012137
  54 BEND     17  6 18                  1.8588140     106.5021993
  55 BEND     19  7 20                  1.8787941     107.6469710
  56 BEND     19  7 21                  1.8785319     107.6319501
  57 BEND     20  7 21                  1.8807637     107.7598199
  58 TORSION   1  2  3  5               1.0693679      61.2702698
  59 TORSION   1  2  3 12               3.0740257     176.1286972
  60 TORSION   1  2  3  4              -1.1283928     -64.6521455
  61 TORSION   1  2  6 17              -2.9428092    -168.6105451
  62 TORSION   1  2  6 18              -0.9101610     -52.1483831
  63 TORSION   1  2  6  7               1.2472231      71.4606200
  64 TORSION   2  6  7 21               3.0841569     176.7091760
  65 TORSION   2  3  4 13               1.1321646      64.8682559
  66 TORSION   2  6  7 19              -1.0944134     -62.7052688
  67 TORSION   2  3  4 14              -3.0497570    -174.7382045
  68 TORSION   2  6  7 20               0.9978393      57.1719795
  69 TORSION   2  3  4 15              -0.9473485     -54.2790722
  70 TORSION   2  3  5 16              -1.1567037     -66.2742374
  71 TORSION   3  2  6 18               1.2987502      74.4129029
  72 TORSION   3  2  1  8               3.0789570     176.4112421
  73 TORSION   3  2  1 10               0.9871314      56.5584610
  74 TORSION   3  2  6  7              -2.8270511    -161.9780939
  75 TORSION   3  2  1  9              -1.1102552     -63.6129367
  76 TORSION   3  2  6 17              -0.7338980     -42.0492590
  77 TORSION   4  3  5 16               1.0369391      59.4122315
  78 TORSION   4  3  2  6               2.9349489     168.1601851
  79 TORSION   4  3  2 11               0.9113020      52.2137563
  80 TORSION   5  3  4 14               1.0227727      58.6005605
  81 TORSION   5  3  2  6              -1.1504757     -65.9173995
  82 TORSION   5  3  2 11               3.1090627     178.1361716
  83 TORSION   5  3  4 13              -1.0784909     -61.7929791
  84 TORSION   5  3  4 15               3.1251812     179.0596928
  85 TORSION   6  2  3 12               0.8541821      48.9410278
  86 TORSION   6  2  1  8              -0.9787151     -56.0762436
  87 TORSION   6  2  1  9               1.1152580      63.8995776
  88 TORSION   6  2  1 10              -3.0705407    -175.9290247
  89 TORSION   7  6  2 11              -0.8191048     -46.9312467
  90 TORSION   8  1  2 11               1.0718501      61.4124842
  91 TORSION   9  1  2 11              -3.1173622    -178.6116945
  92 TORSION  10  1  2 11              -1.0199756     -58.4402968
  93 TORSION  11  2  3 12              -1.1694649     -67.0054010
  94 TORSION  11  2  6 18              -2.9764889    -170.5402498
  95 TORSION  11  2  6 17               1.2740483      72.9975883
  96 TORSION  12  3  4 14              -0.9725758     -55.7244905
  97 TORSION  12  3  5 16               3.0795042     176.4425956
  98 TORSION  12  3  4 13              -3.0738395    -176.1180301
  99 TORSION  12  3  4 15               1.1298326      64.7346418
 100 TORSION  17  6  7 20              -1.1015472     -63.1140070
 101 TORSION  17  6  7 19               3.0893854     177.0087448
 102 TORSION  17  6  7 21               0.9847704      56.4231896
 103 TORSION  18  6  7 20              -3.1280072    -179.2216119
 104 TORSION  18  6  7 19               1.0629254      60.9011398
 105 TORSION  18  6  7 21              -1.0416896     -59.6844154

          INTERNUCLEAR DISTANCES (ANGS.)


 =====================================================
   GAMESS/COSab RESULTS
 =====================================================

   Dielectric Constant                  = INFTY
   Basic Grid Size                      =                 1082
   Number of Segments                   =                   92
   Number of Segments located on spheres=                  258
   Number of Segments of the cavity     =                  670
   Solvent Radius (rsolv)               = 1.40
   Outlying Charge Error Method         = double cavity

 =====================================================

  Total solvated Energy (a.u.)          =  -310.3076709686
  Total Energy corrected (a.u.)         =  -310.3074926011

  Outlying charge effect (a.u.)         =     0.0001783675
  Outlying charge effect (kcal/mol)     =     0.1119273856

  Dielectric Energy (a.u.)              =    -0.0098951678
  Dielectric energy corr. (a.u.)        =    -0.0097168003

  Sum of polarization charges           =     0.0255437976
  Sum of polarization charges(cor.)     =    -0.0255437976

  Total surface area of cavity (A**2)   =  155.78
  Total volume of cavity (A**3)         =  154.88

 =====================================================
 NPS=                   670
NR.  ATOM  (X, Y, Z)(a.u.)                  CHARGE(e)  AREA(A**2) SIGMA(e/A**2)
   1   1  -1.883002   3.125914  -4.738108   0.001440   0.325193   0.004427
   2   1   1.395788   5.272395   0.381267   0.000935   0.325193   0.002874
   3   1   1.758990   3.050444  -5.400998   0.001739   0.418105   0.004160
   4   1   0.386718   5.942677  -3.192469   0.001276   0.325193   0.003924
   5   1  -2.492693   2.714107  -4.182965   0.000437   0.139368   0.003134
   6   1   1.312628   5.940701  -2.919565   0.001198   0.325193   0.003685
   7   1   2.640569   3.343672  -4.865172   0.001072   0.278737   0.003846
   8   1   2.115357   5.238245  -0.004617   0.000737   0.325193   0.002267
   9   1  -2.371368   3.421682  -4.129248   0.000495   0.139368   0.003549
  10   1   3.064617   1.316654  -4.457750   0.001085   0.232280   0.004670
  11   1   2.595713   2.079858  -5.028230   0.001509   0.325193   0.004641
  12   1   1.540059   4.243701  -5.025681   0.001360   0.464561   0.002928
  13   1   0.927683   5.355266  -4.206960   0.001134   0.418105   0.002712
  14   1   0.676202   6.168700  -1.943523   0.001730   0.371649   0.004655
  15   1   0.745674   5.886356  -0.475171   0.001731   0.418105   0.004141
  16   1   0.159258   5.292406   0.502765   0.000991   0.371649   0.002667
  17   1   0.458193   3.651088  -5.462030   0.001038   0.371649   0.002794
  18   1  -0.826775   3.616674  -5.218672   0.001438   0.418105   0.003439
  19   1  -1.395422   4.345657  -4.520740   0.001540   0.464561   0.003314
  20   1  -0.271948   5.338436  -4.137572   0.001220   0.418105   0.002917
  21   1   1.740468   5.011552  -4.325889   0.000553   0.232280   0.002382
  22   1   3.233050   2.198875  -4.502265   0.000744   0.185824   0.004006
  23   1   1.473262   5.977488  -1.195081   0.001344   0.325193   0.004133
  24   1   0.049844   4.592644  -4.938728   0.000924   0.418105   0.002211
  25   2   0.681729  -0.223659   4.072841  -0.000042   0.092912  -0.000455
  26   2   1.074997  -0.160924   4.050974  -0.000003   0.046456  -0.000071
  27   3  -4.617843  -3.248014   1.768551   0.000115   0.046456   0.002471
  28   3  -4.179627  -3.470499   2.141353   0.000019   0.232280   0.000083
  29   3  -1.012357  -0.353827   4.368590  -0.000230   0.092912  -0.002473
  30   3  -1.398166  -0.400610   4.458234  -0.000078   0.046456  -0.001683
  31   4  -6.363029   1.888227   4.317506   0.001949   0.418105   0.004661
  32   4  -7.609565   2.300791   0.601509   0.001628   0.418105   0.003894
  33   4  -5.011993   4.740467   2.352413   0.001159   0.371649   0.003120
  34   4  -3.190042   0.209427   4.920708   0.000363   0.278737   0.001304
  35   4  -5.071039  -1.197171   4.125751   0.000510   0.232280   0.002197
  36   4  -4.418379  -0.398625   4.789047   0.000883   0.371649   0.002376
  37   4  -5.235363   0.595352   4.930369   0.001313   0.325193   0.004039
  38   4  -4.958697   4.882866   1.308705   0.001097   0.325193   0.003375
  39   4  -7.179287   2.723199  -0.153386   0.000971   0.278737   0.003485
  40   4  -6.441153   0.989858  -1.555580   0.000503   0.185824   0.002705
  41   4  -6.075957   0.725528   4.556532   0.000913   0.232280   0.003933
  42   4  -5.468669   1.546096   4.883092   0.001119   0.278737   0.004014
  43   4  -7.016962   0.566876  -0.901889   0.000764   0.185824   0.004111
  44   4  -7.412609   1.463171  -0.374039   0.001545   0.325193   0.004750
  45   4  -7.098107   3.458025   1.071514   0.001227   0.464561   0.002640
  46   4  -6.106561   4.355321   1.898629   0.001069   0.464561   0.002302
  47   4  -3.929910   4.979490   1.589052   0.001437   0.325193   0.004418
  48   4  -3.110936   4.821509   1.929250   0.000453   0.139368   0.003254
  49   4  -6.726225   0.005429  -1.027252   0.000524   0.185824   0.002818
  50   4  -7.535909   2.614971   1.971961   0.001022   0.418105   0.002444
  51   4  -7.046979   2.501401   3.333054   0.001219   0.418105   0.002915
  52   4  -6.207146   3.073268   3.889414   0.001322   0.464561   0.002846
  53   4  -5.751583   4.135962   3.091372   0.000676   0.325193   0.002078
  54   4  -5.376995  -0.423278   4.536941   0.000677   0.232280   0.002916
  55   4  -4.217913   0.618852   5.115855   0.000738   0.278737   0.002647
  56   4  -6.312155   4.224210   0.943924   0.000588   0.278737   0.002111
  57   4  -6.964840   1.360671  -1.048490   0.000920   0.232280   0.003962
  58   4  -6.828729   3.528199   2.539747   0.000874   0.464561   0.001880
  59   5  -1.136385  -5.013638  -1.877422   0.005599   0.240512   0.023279
  60   5  -4.077511  -5.164430  -1.385337   0.006440   0.343589   0.018743
  61   5  -2.742622  -3.822300  -4.181804   0.001598   0.274871   0.005813
  62   5  -5.611310  -2.644190  -2.753537   0.003243   0.309230   0.010486
  63   5  -1.697521  -5.000837  -0.017050   0.002468   0.137436   0.017956
  64   5  -1.497738  -5.187008  -0.829108   0.004643   0.240512   0.019305
  65   5  -2.837671  -5.022160   0.280516   0.003090   0.240512   0.012849
  66   5  -3.429234  -5.251532  -0.442087   0.006059   0.343589   0.017635
  67   5  -1.910958  -5.333769  -1.818146   0.005151   0.274871   0.018740
  68   5  -2.932560  -5.453595  -1.549333   0.007073   0.377948   0.018715
  69   5  -4.720751  -4.675703  -0.671981   0.007992   0.412307   0.019384
  70   5  -5.131879  -3.924283  -0.023780   0.006679   0.309230   0.021599
  71   5  -3.856668  -3.620685  -4.053027   0.001057   0.274871   0.003846
  72   5  -4.977951  -3.151800  -3.486203   0.001742   0.309230   0.005632
  73   5  -5.781468  -1.935301  -2.375635   0.002028   0.206154   0.009837
  74   5  -1.130532  -3.164447  -4.035034   0.002446   0.206154   0.011865
  75   5  -1.825167  -3.378319  -4.260350   0.001300   0.206154   0.006304
  76   5  -1.363387  -4.772729  -2.847050   0.006165   0.343589   0.017944
  77   5  -2.047507  -4.367962  -3.701251   0.004009   0.309230   0.012964
  78   5  -3.331452  -4.552614  -3.528455   0.005589   0.481025   0.011620
  79   5  -3.752273  -5.070356  -2.509829   0.006231   0.377948   0.016486
  80   5  -4.838482  -4.562246  -2.080492   0.007188   0.412307   0.017433
  81   5  -5.455493  -3.642503  -2.347814   0.005858   0.377948   0.015499
  82   5  -5.899143  -2.718108  -1.717361   0.004218   0.240512   0.017536
  83   5  -5.764688  -3.238396  -0.933587   0.003453   0.171795   0.020099
  84   5  -2.328242  -5.339303  -0.537162   0.004625   0.274871   0.016827
  85   5  -4.095080  -4.625711   0.328785   0.005480   0.343589   0.015950
  86   5  -2.532892  -5.174451  -2.692387   0.006480   0.377948   0.017145
  87   5  -5.491987  -3.886820  -1.195503   0.006092   0.309230   0.019702
  88   5  -4.551422  -4.131790  -3.226625   0.004608   0.412307   0.011175
  89   5  -1.238031  -4.070593  -3.584550   0.004167   0.240512   0.017327
  90   6   3.797365  -4.820803  -0.455967   0.001614   0.371649   0.004343
  91   6   3.132001  -5.022336   0.307675   0.001324   0.278737   0.004750
  92   6   2.781131  -1.289125   4.061613   0.000211   0.139368   0.001512
  93   6   1.657542  -4.779810  -0.539063   0.000467   0.092912   0.005031
  94   6   2.579383  -4.926343  -0.619831   0.001458   0.278737   0.005229
  95   6   4.484462  -4.625873   0.346590   0.001207   0.371649   0.003247
  96   6   4.767490  -4.236649  -0.908798   0.000861   0.278737   0.003087
  97   6   4.619155  -4.372252   1.361817   0.000353   0.185824   0.001898
  98   6   1.828300  -4.913096   0.021796   0.000887   0.185824   0.004774
  99   6   2.225071  -1.222435   4.022794   0.000069   0.046456   0.001478
 100   7   7.962843  -0.189634   3.455813   0.002296   0.418105   0.005491
 101   7   6.463968  -1.355175  -2.565550   0.000812   0.278737   0.002911
 102   7   7.150114   3.132976   1.859156   0.001646   0.371649   0.004428
 103   7   8.982579   0.397970  -0.070804   0.001415   0.371649   0.003807
 104   7   5.884373  -2.938179   3.055043   0.000432   0.185824   0.002324
 105   7   4.915704  -1.311746   4.281341   0.000693   0.232280   0.002984
 106   7   5.732527  -2.094800   3.873465   0.000880   0.278737   0.003155
 107   7   6.760331  -1.553545   3.886164   0.001297   0.278737   0.004652
 108   7   8.570257   1.015642  -0.877026   0.001582   0.371649   0.004258
 109   7   6.825977   3.477348   0.884215   0.001184   0.278737   0.004246
 110   7   6.697417  -0.318725  -2.737447   0.000943   0.278737   0.003384
 111   7   7.022332  -0.672717   4.066944   0.001086   0.232280   0.004674
 112   7   7.503343  -1.348264   3.530131   0.001274   0.278737   0.004569
 113   7   4.991362   3.672630   1.656939   0.001358   0.278737   0.004871
 114   7   6.112402   3.590891   1.692168   0.001409   0.278737   0.005056
 115   7   7.979265   2.670343   1.140358   0.001483   0.464561   0.003192
 116   7   8.795919   1.472175   0.532172   0.001361   0.464561   0.002929
 117   7   8.475918  -0.108252  -1.305928   0.001893   0.371649   0.005094
 118   7   7.558790  -0.973349  -2.112826   0.001884   0.418105   0.004507
 119   7   6.814679  -2.049500  -2.024427   0.001052   0.325193   0.003234
 120   7   7.989491   2.167095   2.348108   0.001153   0.371649   0.003103
 121   7   8.225877   1.031333   2.952852   0.001520   0.418105   0.003635
 122   7   8.694734   0.094688   2.458125   0.001649   0.464561   0.003549
 123   7   9.058966   0.392896   1.134443   0.000917   0.325193   0.002819
 124   7   5.843544  -1.286011   4.274345   0.000846   0.232280   0.003643
 125   7   6.355793  -2.483702   3.403942   0.000838   0.232280   0.003608
 126   7   8.307016   2.248635   0.173000   0.000775   0.278737   0.002781
 127   7   5.638819   3.775369   0.953259   0.000667   0.139368   0.004786
 128   7   5.857339  -0.277544  -2.964204   0.000639   0.232280   0.002753
 129   7   7.746457   0.036824  -2.129864   0.001468   0.325193   0.004515
 130   7   6.357487  -2.794088  -1.540142   0.000173   0.092912   0.001861
 131   7   8.669538   1.448689   1.757727   0.001011   0.418105   0.002419
 132   8   4.041179   5.001058  -2.695725  -0.002462   0.392554  -0.006272
 133   8   3.088929   5.408241  -0.920649  -0.000739   0.294415  -0.002508
 134   8   2.923813   5.554980  -3.113237  -0.000967   0.333671  -0.002898
 135   8   3.545732   3.976776  -4.116001  -0.000363   0.196277  -0.001850
 136   8   3.805624   5.213418  -1.448459  -0.002021   0.333671  -0.006057
 137   8   2.991389   5.763553  -2.104249  -0.001162   0.392554  -0.002959
 138   8   3.349012   4.890237  -3.736483  -0.001243   0.372926  -0.003333
 139   8   4.036929   3.926854  -3.716696  -0.001444   0.274788  -0.005254
 140   9  -0.094037   0.354791  -5.869392  -0.002256   0.392554  -0.005747
 141   9  -1.275051   1.762792  -5.565819  -0.000666   0.294415  -0.002261
 142   9   1.666647   0.960693  -5.568863  -0.000557   0.294415  -0.001892
 143   9  -0.033490   2.092549  -5.971055  -0.000737   0.372926  -0.001975
 144   9   0.452607  -0.402564  -5.345052  -0.001807   0.274788  -0.006578
 145   9   1.230152   0.106775  -5.490597  -0.001701   0.372926  -0.004561
 146   9   0.808699   1.338546  -6.019522  -0.001458   0.431809  -0.003376
 147   9  -0.714984   1.146568  -5.914392  -0.001659   0.333671  -0.004973
 148  10  -2.384051   5.792189  -1.997783  -0.002013   0.353299  -0.005699
 149  10  -2.238491   5.124856  -3.370412  -0.000668   0.274788  -0.002432
 150  10  -1.241685   6.183474  -2.203915  -0.000952   0.333671  -0.002854
 151  10  -1.205635   5.752387  -0.274291  -0.000801   0.235532  -0.003401
 152  10  -2.793030   4.884813  -2.989117  -0.001443   0.294415  -0.004900
 153  10  -1.692661   5.789046  -2.968223  -0.000949   0.314043  -0.003022
 154  10  -1.009537   6.187743  -1.215848  -0.000728   0.314043  -0.002318
 155  10  -1.986412   5.903744  -0.982497  -0.001806   0.314043  -0.005751
 156  11   0.790623   3.216607   4.049558  -0.001688   0.333671  -0.005059
 157  11   1.710583   3.962004   2.629997  -0.000715   0.235532  -0.003036
 158  11   1.095237   1.229281   4.470051  -0.001045   0.314043  -0.003328
 159  11   1.662615   3.558717   3.502038  -0.001435   0.314043  -0.004569
 160  11   1.436365   2.497514   4.336822  -0.001501   0.294415  -0.005098
 161  11   0.555854   1.933413   4.520508  -0.001242   0.294415  -0.004220
 162  11   0.706786   3.990980   3.068434  -0.001421   0.353299  -0.004023
 163  12  -1.710780  -3.632787   4.151510  -0.002596   0.431809  -0.006011
 164  12  -2.494430  -2.418081   4.631824  -0.001346   0.314043  -0.004286
 165  12  -0.928969  -1.803872   4.556182  -0.001166   0.274788  -0.004244
 166  12  -1.750497  -4.477253   2.527401  -0.001749   0.372926  -0.004690
 167  12  -3.492424  -3.523024   3.355075  -0.001157   0.333671  -0.003467
 168  12  -1.791790  -1.964332   4.746548  -0.001300   0.294415  -0.004415
 169  12  -1.131656  -2.857078   4.491049  -0.001855   0.314043  -0.005906
 170  12  -1.369675  -4.144783   3.452009  -0.001760   0.314043  -0.005605
 171  12  -2.734609  -4.197931   3.050535  -0.002105   0.451437  -0.004662
 172  12  -2.954847  -3.175290   4.167549  -0.002133   0.431809  -0.004939
 173  13  -5.289453   4.240105  -1.662810  -0.002638   0.431809  -0.006108
 174  13  -5.389779   4.742603  -0.349869  -0.000584   0.235532  -0.002480
 175  13  -6.438370   3.238435  -1.322845  -0.000688   0.294415  -0.002338
 176  13  -5.894601   2.434784  -2.118376  -0.000967   0.294415  -0.003285
 177  13  -4.702858   4.911610  -0.546792  -0.001456   0.294415  -0.004947
 178  13  -6.099629   4.175692  -0.751007  -0.001147   0.372926  -0.003076
 179  13  -5.887213   3.309233  -1.950985  -0.001031   0.235532  -0.004379
 180  13  -5.060006   3.155701  -2.446504  -0.002329   0.333671  -0.006981
 181  14  -8.014331  -0.760142   2.338468  -0.003445   0.569203  -0.006053
 182  14  -7.078438  -0.078804   3.905408  -0.000824   0.372926  -0.002209
 183  14  -6.381955  -1.687064   3.183594  -0.000906   0.294415  -0.003079
 184  14  -7.398860  -1.574102   1.344041  -0.002060   0.412182  -0.004999
 185  14  -8.080024   0.204211   0.774831  -0.001028   0.372926  -0.002756
 186  14  -8.046358   1.078726   2.566539  -0.000955   0.372926  -0.002560
 187  14  -7.052934  -1.050189   3.489229  -0.001672   0.431809  -0.003871
 188  14  -6.969694  -1.851346   2.311262  -0.001978   0.431809  -0.004581
 189  14  -7.754910  -0.784243   0.672562  -0.001760   0.451437  -0.003899
 190  14  -8.282189   0.607751   1.667251  -0.001796   0.471065  -0.003812
 191  14  -7.839065   0.321831   3.250554  -0.001926   0.471065  -0.004088
 192  15  -3.063339   3.616056   5.053226  -0.003108   0.510320  -0.006091
 193  15  -3.611463   1.882432   5.432623  -0.000951   0.372926  -0.002550
 194  15  -4.736218   3.493693   4.788144  -0.001042   0.353299  -0.002949
 195  15  -3.604000   4.711469   3.552136  -0.000792   0.294415  -0.002691
 196  15  -2.515910   2.158358   5.258879  -0.002766   0.529948  -0.005220
 197  15  -4.139756   2.822881   5.335838  -0.001874   0.471065  -0.003978
 198  15  -4.106491   4.292258   4.347138  -0.002159   0.510320  -0.004231
 199  15  -2.579769   4.515410   3.596667  -0.002280   0.510320  -0.004467
 200  15  -2.222722   3.643100   4.636284  -0.002158   0.314043  -0.006873
 201  16  -3.571061  -0.205543  -4.958072  -0.006761   0.314043  -0.021530
 202  16  -4.959182  -1.470723  -4.230317  -0.004756   0.353299  -0.013461
 203  16  -3.190468  -2.150112  -5.033606  -0.003870   0.294415  -0.013144
 204  16  -4.081900  -1.138241  -4.984223  -0.005922   0.353299  -0.016762
 205  16  -2.954847  -1.202753  -5.237708  -0.005228   0.294415  -0.017757
 206  16  -4.156417   0.325407  -4.329211  -0.005669   0.255160  -0.022216
 207  16  -4.779238  -0.265160  -4.195949  -0.006487   0.353299  -0.018361
 208  16  -4.203114  -2.166135  -4.684278  -0.003940   0.314043  -0.012547
 209  16  -2.212972  -1.956256  -4.979906  -0.003937   0.255160  -0.015428
 210  16  -5.290479  -0.832669  -3.582349  -0.003316   0.255160  -0.012997
 211  17   2.200962  -4.236121   3.620458  -0.001793   0.392554  -0.004568
 212  17   2.859223  -2.760451   4.148830  -0.000672   0.333671  -0.002013
 213  17   3.914236  -4.292777   2.934095  -0.000831   0.314043  -0.002646
 214  17   2.609874  -5.156670   1.785525  -0.000490   0.314043  -0.001559
 215  17   2.048338  -3.147439   4.097720  -0.001474   0.372926  -0.003952
 216  17   3.344169  -3.812011   3.738986  -0.001339   0.412182  -0.003248
 217  17   2.860195  -4.854948   2.847608  -0.001382   0.353299  -0.003912
 218  17   1.615966  -4.999332   1.820246  -0.000913   0.392554  -0.002325
 219  17   1.661274  -4.686274   2.915399  -0.001394   0.294415  -0.004736
 220  17   3.583444  -4.873081   2.075684  -0.000312   0.274788  -0.001137
 221  18   3.380891  -3.548069  -3.517510  -0.001887   0.431809  -0.004370
 222  18   4.149996  -2.345233  -3.568003  -0.000766   0.294415  -0.002602
 223  18   2.385989  -4.558377  -2.222290  -0.000605   0.314043  -0.001927
 224  18   4.272312  -3.949130  -2.474499  -0.000702   0.353299  -0.001987
 225  18   3.401313  -2.068382  -3.899425  -0.001349   0.333671  -0.004043
 226  18   2.429444  -2.943663  -3.851972  -0.002249   0.412182  -0.005455
 227  18   2.237323  -3.973893  -3.174280  -0.001588   0.353299  -0.004495
 228  18   3.330463  -4.451243  -2.441208  -0.000907   0.412182  -0.002199
 229  18   4.372389  -3.192233  -3.142357  -0.000679   0.314043  -0.002164
 230  19   6.725144   2.678164  -2.539762  -0.002284   0.412182  -0.005542
 231  19   6.837189   1.151531  -2.859729  -0.000381   0.274788  -0.001385
 232  19   7.787708   2.442222  -1.600150  -0.000937   0.372926  -0.002513
 233  19   6.449919   3.770531  -0.582267  -0.000866   0.333671  -0.002596
 234  19   6.110065   1.630175  -3.089015  -0.001585   0.353299  -0.004486
 235  19   7.501593   1.760012  -2.365826  -0.000979   0.392554  -0.002495
 236  19   7.434235   3.192949  -0.933563  -0.000904   0.372926  -0.002423
 237  19   6.687613   3.442604  -1.697101  -0.001835   0.333671  -0.005500
 238  20   5.814320   2.028537   4.742220  -0.002328   0.471065  -0.004943
 239  20   6.328589   0.472422   4.762166  -0.000661   0.372926  -0.001773
 240  20   4.441485   0.392790   4.813535  -0.001127   0.372926  -0.003021
 241  20   5.183494   3.306505   3.330942  -0.000962   0.392554  -0.002451
 242  20   7.010420   2.165522   3.884145  -0.000750   0.372926  -0.002011
 243  20   5.417168   0.574305   5.008009  -0.001191   0.392554  -0.003034
 244  20   4.599371   1.632915   4.844108  -0.002222   0.431809  -0.005145
 245  20   4.870377   2.745768   4.226044  -0.002081   0.431809  -0.004819
 246  20   6.280806   2.977758   3.606311  -0.001177   0.471065  -0.002498
 247  20   6.843219   1.331673   4.464592  -0.000941   0.372926  -0.002523
 248  21   8.709086  -2.952520   0.874789  -0.003438   0.608459  -0.005650
 249  21   7.266232  -3.776855   0.792720  -0.001194   0.353299  -0.003380
 250  21   7.697023  -2.856960   2.536881  -0.000635   0.333671  -0.001904
 251  21   9.013512  -1.468607   1.934244  -0.000754   0.353299  -0.002133
 252  21   9.066789  -1.428605  -0.253011  -0.000737   0.372926  -0.001975
 253  21   7.728541  -2.817141  -0.977268  -0.000648   0.353299  -0.001834
 254  21   7.445555  -3.536105   1.749692  -0.001647   0.490692  -0.003356
 255  21   8.550133  -2.364270   2.240161  -0.001651   0.490692  -0.003365
 256  21   9.290095  -1.561154   0.864812  -0.001788   0.510320  -0.003504
 257  21   8.655840  -2.353951  -0.536037  -0.001740   0.490692  -0.003547
 258  21   7.675862  -3.480946  -0.122371  -0.001799   0.490692  -0.003667
 259   1  -1.043005   4.870207   0.639503  -0.000180   0.085557  -0.002099
 260   4  -1.856703   4.591459   1.177167   0.000050   0.085557   0.000589
 261  10  -1.288615   4.976310   0.493607  -0.000239   0.085557  -0.002793
 262   1  -1.226611   4.469849   1.238444   0.000011   0.063249   0.000175
 263   4  -2.010003   4.386860   1.873493  -0.000002   0.063249  -0.000030
 264  15  -2.036810   4.335587   2.171306  -0.000088   0.063249  -0.001389
 265   4  -2.004302   4.601120   1.722857   0.000228   0.071137   0.003211
 266   1  -0.878103   4.917545   0.867711   0.000116   0.071137   0.001630
 267   1   3.085855   4.350934   0.214571  -0.000095   0.092040  -0.001037
 268   7   3.914967   3.849291   0.640930   0.000159   0.092040   0.001733
 269   8   3.307101   4.403671   0.012096  -0.000208   0.092040  -0.002262
 270   1   2.605997   3.957556   1.058348   0.000172   0.206992   0.000832
 271   7   3.453814   3.505517   1.516719   0.000284   0.206992   0.001370
 272  11   2.540377   3.666437   1.751215  -0.000232   0.206992  -0.001119
 273   1   3.537676   0.278254  -3.512071   0.000337   0.215757   0.001560
 274   7   4.409606  -0.148967  -3.074694   0.000299   0.215757   0.001385
 275  18   3.867498  -0.636193  -3.302580   0.000016   0.215757   0.000074
 276   1   4.047045   1.033587  -3.418419   0.000146   0.093841   0.001558
 277   7   4.933037   0.595801  -3.038856  -0.000057   0.093841  -0.000608
 278  19   5.030236   0.884916  -3.063826  -0.000171   0.093841  -0.001818
 279   7   4.820320   0.218229  -3.200465   0.000344   0.136250   0.002525
 280   1   3.639525   0.889370  -3.872653   0.000391   0.136250   0.002866
 281   7   4.125688   3.798184   1.253956   0.000554   0.191024   0.002901
 282   1   2.847251   4.366430   0.666415   0.000405   0.191024   0.002119
 283   1   3.930501   2.323253  -3.715513  -0.000096   0.081125  -0.001183
 284   8   4.094548   2.552789  -3.603319  -0.000240   0.081125  -0.002957
 285  19   4.826681   2.110777  -3.199012  -0.000235   0.081125  -0.002893
 286   8   3.708505   2.933245  -4.024170  -0.000044   0.066015  -0.000668
 287   8   3.162960   3.816285  -4.295761  -0.000352   0.145567  -0.002417
 288   8   2.559763   4.917106  -3.960233  -0.000354   0.145567  -0.002432
 289   8   2.235698   5.670502  -2.952461  -0.000326   0.145567  -0.002240
 290   8   2.315640   5.786167  -1.660771  -0.000287   0.145567  -0.001969
 291   8   2.768783   5.219529  -0.582897  -0.000430   0.145567  -0.002953
 292   1   3.239453   3.008379  -4.366451   0.000040   0.145644   0.000274
 293   1   2.498842   4.264237  -4.443568  -0.000122   0.145644  -0.000837
 294   1   1.950807   5.360127  -3.649644  -0.000157   0.145644  -0.001075
 295   1   1.806524   5.873764  -2.290603   0.000002   0.145644   0.000015
 296   1   2.121590   5.607227  -0.890131  -0.000095   0.145644  -0.000654
 297   1   2.611332   4.931232  -0.050068  -0.000078   0.080652  -0.000972
 298   1  -2.199985   1.739708  -4.579921  -0.000306   0.081064  -0.003775
 299   9  -2.073294   1.524661  -4.757576  -0.000559   0.081064  -0.006899
 300  16  -2.733292   0.934957  -4.508300  -0.001671   0.081064  -0.020618
 301   1   2.539867   0.154530  -4.262324   0.000111   0.086388   0.001282
 302   9   2.299900   0.072967  -4.434604  -0.000123   0.086388  -0.001428
 303  18   2.829697  -0.714419  -3.893071   0.000141   0.086388   0.001637
 304   9  -1.674503   1.999311  -5.093395  -0.000187   0.072031  -0.002598
[...]
 413  14  -5.911744  -2.129440   2.279358  -0.000763   0.280304  -0.002724
 414   3  -4.896783  -2.673892   2.359673   0.000264   0.394325   0.000669
 415  15  -2.162002   1.131509   4.794308  -0.000261   0.084783  -0.003076
 416   3  -1.521044   0.263790   4.494083  -0.000100   0.119581  -0.000840
 417  17   0.720828  -4.598422   1.536660  -0.000033   0.017037  -0.001961
 418   3  -0.649335  -4.414567   1.255972   0.000089   0.024106   0.003672
 419   4  -6.545370  -0.976053  -0.527448   0.000290   0.056558   0.005129
 420   5  -6.132018  -1.550095  -0.963914   0.000912   0.056558   0.016130
 421  14  -6.703981  -1.016967  -0.273210   0.000019   0.056558   0.000331
 422   4  -5.887369  -0.363886  -1.808399   0.000162   0.076016   0.002128
 423   5  -5.626461  -0.988180  -2.293063   0.000215   0.076016   0.002832
 424  16  -5.517305  -0.811386  -2.541094  -0.000346   0.076016  -0.004555
 425   5  -5.959388  -1.547453  -1.715358   0.003183   0.317430   0.010027
 426   4  -6.383118  -0.512193  -1.234156   0.001132   0.350768   0.003227
 427   4  -3.605572   4.898514   0.325610  -0.000100   0.075075  -0.001335
 428  10  -2.923446   5.119136  -0.326193  -0.000438   0.075075  -0.005833
 429  13  -3.690095   4.912560   0.033135  -0.000295   0.075075  -0.003935
 430  10  -2.350149   5.412250  -0.274161  -0.000879   0.213278  -0.004122
 431  10  -1.623085   5.233835   0.298160  -0.000496   0.213278  -0.002326
 432   4  -2.887016   4.914490   1.028485   0.001069   0.595981   0.001794
 433  12  -2.274288  -1.220961   4.618990  -0.000605   0.164901  -0.003667
 434  12  -3.209481  -1.948325   4.311819  -0.001518   0.335014  -0.004532
 435  12  -3.911046  -2.634115   3.580043  -0.000487   0.164901  -0.002952
 436   4  -3.307071  -0.627453   4.650854  -0.000116   0.455098  -0.000255
 437   4  -4.478235  -1.638620   3.907447   0.000150   0.455098   0.000329
 438   4  -5.626812   1.091817  -2.119882  -0.000214   0.079802  -0.002681
 439  13  -5.539524   1.374559  -2.193436  -0.000327   0.079802  -0.004102
 440  16  -5.171769   0.544078  -2.724219  -0.001071   0.079802  -0.013422
 441  13  -6.014208   1.888949  -1.911733  -0.000206   0.073106  -0.002815
 442  13  -6.561642   2.631235  -1.183334  -0.000392   0.164471  -0.002386
 443  13  -6.447677   3.728877  -0.294834  -0.000488   0.164471  -0.002968
 444  13  -5.466659   4.604654   0.232284  -0.000558   0.164471  -0.003390
 445  13  -4.334024   4.917039   0.260444  -0.000128   0.073106  -0.001744
 446   4  -6.413556   1.816125  -1.450758  -0.000111   0.158256  -0.000703
 447   4  -6.826786   2.955291  -0.420094  -0.000105   0.158256  -0.000661
 448   4  -6.172930   4.133694   0.425225  -0.000250   0.158256  -0.001582
 449   4  -4.755457   4.804413   0.692867  -0.000212   0.158256  -0.001341
 450  14  -5.845977  -1.673280   3.297209  -0.000144   0.070905  -0.002028
 451  14  -6.163424  -0.778489   3.937258  -0.000366   0.158582  -0.002310
 452  14  -6.791997   0.450628   4.006067  -0.000341   0.158582  -0.002151
 453  14  -7.460134   1.365372   3.213978  -0.000372   0.158582  -0.002343
 454  14  -7.873543   1.562829   1.909879  -0.000409   0.158582  -0.002579
 455  14  -7.850131   0.956026   0.668183  -0.000284   0.158582  -0.001791
 456  14  -7.400211  -0.187760   0.035813  -0.000354   0.158582  -0.002233
 457   4  -5.552107  -1.321809   3.692650  -0.000309   0.154322  -0.002001
 458   4  -6.112099   0.006398   4.269006  -0.000073   0.154322  -0.000471
 459   4  -6.884008   1.282600   3.838450  -0.000118   0.154322  -0.000765
 460   4  -7.527832   1.944673   2.590627  -0.000185   0.154322  -0.001200
 461   4  -7.759990   1.700997   1.075161  -0.000150   0.154322  -0.000970
 462   4  -7.478224   0.658903  -0.040437  -0.000109   0.154322  -0.000709
 463   4  -6.977800  -0.449811  -0.382750   0.000069   0.086625   0.000799
 464  15  -2.588720   4.565445   2.656829  -0.000139   0.069028  -0.002009
 465  15  -3.657269   4.712649   2.930172  -0.000416   0.153235  -0.002717
 466  15  -4.747008   4.291045   3.597019  -0.000443   0.153235  -0.002892
 467  15  -5.188181   3.316387   4.412722  -0.000467   0.153235  -0.003051
 468  15  -4.798306   2.191825   5.039877  -0.000310   0.153235  -0.002024
 469  15  -3.738647   1.382518   5.219072  -0.000481   0.153235  -0.003138
 470  15  -2.672314   1.144637   5.008054  -0.000211   0.069028  -0.003061
 471   4  -3.075621   4.678349   2.328957  -0.000097   0.151335  -0.000643
 472   4  -4.485825   4.609679   2.868180  -0.000177   0.151335  -0.001171
 473   4  -5.393960   3.781418   3.747627  -0.000217   0.151335  -0.001435
 474   4  -5.424390   2.536163   4.603529  -0.000122   0.151335  -0.000805
 475   4  -4.564528   1.388995   5.081854  -0.000169   0.151335  -0.001118
 476   4  -3.170043   0.814421   4.984752  -0.000374   0.151335  -0.002470
 477  16  -5.396469  -0.382634  -2.900866  -0.002707   0.283574  -0.009547
 478   4  -5.954227   0.528663  -2.003600   0.000155   0.400124   0.000386
 479   5  -0.260499  -4.459885   0.164902   0.001015   0.079378   0.012792
 480   6   0.741802  -4.509777   0.510971   0.000286   0.079378   0.003601
 481  17   0.818624  -4.526952   0.806305   0.000041   0.079378   0.000512
 482   5   0.165933  -4.384191  -1.569221   0.002072   0.096008   0.021579
 483   6   1.198827  -4.400786  -1.318262   0.000648   0.096008   0.006750
 484  18   1.294875  -4.347525  -1.605148   0.000197   0.096008   0.002047
 485   6   0.855794  -4.658550  -0.269957   0.002940   0.594980   0.004942
 486   5  -0.516007  -4.754098  -1.007234   0.008581   0.530407   0.016178
 487   5  -1.082011  -2.003842  -4.292058  -0.000410   0.083203  -0.004932
 488   9  -0.540805  -1.155419  -4.587771  -0.000857   0.083203  -0.010303
 489  16  -1.215389  -1.768507  -4.470033  -0.000879   0.083203  -0.010563
 490   5  -0.143702  -2.159151  -3.765489   0.002454   0.323338   0.007588
 491   9   0.408318  -1.334566  -4.142954  -0.000610   0.323338  -0.001886
 492  18   0.993102  -2.133403  -3.651263   0.000765   0.323338   0.002366
 493   9   0.060585  -1.069470  -4.725882  -0.000526   0.124567  -0.004224
 494   5  -0.793674  -2.241990  -4.275114   0.000406   0.155532   0.002613
 495  12  -2.865570  -4.314600   1.952107  -0.000300   0.230023  -0.001304
 496  12  -1.716845  -4.475736   1.690910  -0.000381   0.230023  -0.001655
 497   5  -2.553923  -4.624685   0.807693   0.004645   0.551138   0.008429
 498  14  -6.888843  -1.326529   0.002378   0.000311   0.256721   0.001213
 499  14  -6.487217  -2.055762   0.976655  -0.000002   0.516395  -0.000003
 500   5  -6.014235  -2.489336  -0.618330   0.008296   0.635803   0.013049
 501   5  -5.488592  -3.201182   0.465507   0.003655   0.320282   0.011411
 502  16  -1.727143  -2.267921  -4.581725  -0.000818   0.084322  -0.009705
 503  16  -2.908962  -2.677781  -4.639168  -0.002262   0.183574  -0.012324
 504  16  -4.357931  -2.507251  -4.224078  -0.002149   0.183574  -0.011706
 505  16  -5.258453  -1.610663  -3.395776  -0.001590   0.183574  -0.008664
 506   5  -2.031149  -2.824918  -4.404751  -0.000922   0.180221  -0.005114
 507   5  -3.645186  -3.087874  -4.269097  -0.001335   0.180221  -0.007408
 508   5  -4.991136  -2.476556  -3.556797  -0.000838   0.180221  -0.004647
 509   5  -5.552804  -1.547642  -2.773480  -0.000168   0.096546  -0.001739
 510  17   0.731669  -4.708226   1.184148   0.000283   0.138991   0.002033
 511   5  -0.824725  -4.810357   0.223325   0.001409   0.177898   0.007922
 512  18   1.348016  -4.371181  -2.136256   0.000783   0.312783   0.002503
 513  18   1.317275  -3.439449  -3.234485   0.000290   0.629472   0.000461
 514   5  -0.288166  -4.227225  -2.656846   0.012583   0.781786   0.016095
 515   5  -0.317940  -3.089297  -3.748055   0.004361   0.394019   0.011069
 516   6   3.341645  -1.606567   4.010240   0.000005   0.029527   0.000158
 517   7   3.784976  -1.380861   4.052349   0.000076   0.029527   0.002584
 518  17   3.247481  -1.895681   4.011051  -0.000014   0.029527  -0.000481
 519   6   4.866210  -3.899015   2.006953   0.000015   0.029527   0.000512
 520   7   5.290049  -3.643998   2.074675   0.000081   0.029527   0.002744
 521  17   4.635908  -3.983422   2.186649  -0.000014   0.029527  -0.000469
 522   6   5.253809  -3.272162  -1.742832   0.000037   0.026964   0.001364
 523   7   5.672869  -3.022757  -1.636220   0.000064   0.026964   0.002362
 524  18   5.057054  -3.304617  -1.971717   0.000012   0.026964   0.000461
 525   6   3.452355  -0.842808   4.086184   0.000020   0.026989   0.000759
 526   7   3.885385  -0.628461   4.211567   0.000002   0.026989   0.000092
 527  20   3.989123  -0.362715   4.315595  -0.000033   0.026989  -0.001209
 528   6   5.341813  -3.748822   1.797094   0.000075   0.025401   0.002940
 529   7   5.795495  -3.566681   1.897775   0.000034   0.025401   0.001334
 530  21   6.080916  -3.569747   1.797212  -0.000003   0.025401  -0.000112
 531   6   5.710530  -3.388748  -1.103507   0.000055   0.025401   0.002176
 532   7   6.169239  -3.201697  -1.042376   0.000027   0.025401   0.001077
 533  21   6.421028  -3.237608  -0.878363  -0.000001   0.025401  -0.000054
 534   7   5.648667  -3.596607   2.023773   0.000068   0.018201   0.003725
 535   6   5.024394  -3.918200   1.884621   0.000054   0.018201   0.002964
 536   7   6.043632  -3.126649  -1.305903   0.000167   0.078966   0.002118
 537   6   5.401950  -3.391002  -1.504246   0.000187   0.078966   0.002367
 538   7   3.900254  -0.922070   4.201000   0.000157   0.073988   0.002117
 539   6   3.309581  -1.316142   4.075706   0.000113   0.073988   0.001531
 540   6   2.609123  -0.082269   3.958213  -0.000054   0.163806  -0.000328
 541  11   2.198569   0.534194   4.026608  -0.000288   0.163806  -0.001757
 542  20   3.199525   0.362359   4.135990  -0.000196   0.163806  -0.001197
 543  11   1.573214   0.525663   4.162103  -0.000119   0.052175  -0.002273
 544   6   2.214282  -0.363807   4.044362   0.000110   0.073664   0.001495
 545   6   1.328284  -1.637481   3.838842  -0.000136   0.085525  -0.001588
 546  12   0.375630  -1.804600   3.919916  -0.000208   0.085525  -0.002437
 547  17   1.345342  -1.942115   3.873477  -0.000237   0.085525  -0.002775
 548  12  -0.097248  -1.704132   4.181460  -0.000039   0.010956  -0.003552
 549   6   1.300896  -1.455198   3.994481   0.000085   0.015522   0.005460
 550  17   2.535269  -2.075196   4.044111  -0.000313   0.120416  -0.002598
 551   6   2.328671  -1.620342   3.978899  -0.000193   0.147115  -0.001311
 552  17   1.525729  -4.860044   1.055561  -0.000009   0.075285  -0.000116
 553  17   2.715804  -5.009231   1.136752  -0.000173   0.170171  -0.001015
 554  17   3.941503  -4.597560   1.787304  -0.000407   0.170171  -0.002389
 555   6   1.991493  -4.882453   0.642127   0.000225   0.162305   0.001388
 556   6   3.572340  -4.818740   1.012610  -0.000025   0.162305  -0.000157
 557   6   4.522810  -4.264030   1.753229   0.000029   0.091977   0.000312
 558  18   4.687055  -3.700893  -2.052727  -0.000050   0.071071  -0.000710
 559  18   3.845592  -4.383203  -1.695131  -0.000202   0.158594  -0.001273
 560  18   2.492303  -4.616739  -1.586039  -0.000134   0.158594  -0.000843
 561   6   4.574832  -3.975318  -1.524169  -0.000130   0.155058  -0.000835
 562   6   3.235135  -4.663509  -1.169622   0.000154   0.155058   0.000995
 563   6   1.976336  -4.651573  -1.191783   0.000270   0.086828   0.003104
 564  20   3.807670   0.075826   4.400077  -0.000218   0.136005  -0.001604
 565   6   3.045678  -0.716468   4.131738   0.000305   0.191689   0.001590
 566  21   6.300878  -3.707429   1.425824  -0.000195   0.198195  -0.000982
 567  21   6.477838  -3.605255   0.020327  -0.001002   0.405216  -0.002474
 568   6   5.302801  -4.044193   0.769207   0.000834   0.543280   0.001535
 569   6   5.505313  -3.782075  -0.811689   0.000673   0.279090   0.002413
 570   7   5.168236   3.821887   0.052169  -0.000041   0.082709  -0.000490
 571   8   4.450252   4.214742  -0.582785  -0.000258   0.082709  -0.003123
 572  19   5.254879   3.855193  -0.238580  -0.000194   0.082709  -0.002341
 573   8   3.697830   4.583862  -0.304475  -0.000560   0.277281  -0.002018
 574   7   4.826202   3.961089   0.534329   0.001036   0.395118   0.002622
 575   7   4.000640   3.283928   2.298505   0.000059   0.084185   0.000702
 576  11   3.064802   3.316619   2.462541   0.000015   0.084185   0.000173
 577  20   4.069840   3.220613   2.590401  -0.000112   0.084185  -0.001333
 578  11   2.559046   3.634595   2.341344  -0.000082   0.089047  -0.000916
 579   7   3.916522   3.535394   1.991546   0.000373   0.125933   0.002959
 580  17   4.483441  -3.940994   2.575237  -0.000138   0.169057  -0.000817
 581  17   4.076300  -3.194216   3.492712  -0.000789   0.343747  -0.002294
 582  17   3.386483  -2.291527   4.016647  -0.000137   0.169057  -0.000808
 583   7   5.321469  -3.152278   2.902933   0.000783   0.466128   0.001680
 584   7   4.536697  -1.972238   3.934128   0.000795   0.466128   0.001706
 585  18   4.288346  -1.384513  -3.320125  -0.000178   0.207554  -0.000856
 586  18   4.830785  -2.624952  -2.700262  -0.000974   0.425773  -0.002287
 587   7   5.412137  -1.263522  -2.794990   0.001038   0.567547   0.001829
 588   7   5.912951  -2.658822  -1.977061   0.000733   0.292317   0.002506
 589  19   5.908646   3.776532  -0.008721  -0.000053   0.068150  -0.000785
 590  19   6.946433   3.411316  -0.043541  -0.000258   0.150960  -0.001709
 591  19   7.856207   2.590041  -0.563859  -0.000294   0.150960  -0.001948
 592  19   8.021819   1.619897  -1.460689  -0.000208   0.150960  -0.001377
 593  19   7.376228   0.893611  -2.370982  -0.000207   0.150960  -0.001370
 594  19   6.180778   0.705193  -2.926238  -0.000367   0.150960  -0.002429
 595   7   6.284025   3.604635   0.418629   0.000091   0.149713   0.000606
 596   7   7.584852   2.916593   0.149925  -0.000051   0.149713  -0.000340
 597   7   8.222038   1.855144  -0.689762  -0.000099   0.149713  -0.000664
 598   7   7.937642   0.849977  -1.760515   0.000059   0.149713   0.000395
 599   7   6.846791   0.307998  -2.628880  -0.000091   0.149713  -0.000609
 600   7   5.685937   0.310043  -2.987234  -0.000019   0.083260  -0.000228
 601  20   4.471938  -0.250458   4.548854  -0.000081   0.070979  -0.001141
 602  20   5.608605  -0.313382   4.590709  -0.000236   0.158327  -0.001493
 603  20   6.824775   0.260115   4.299692  -0.000186   0.158327  -0.001176
 604  20   7.377683   1.377712   3.718377  -0.000254   0.158327  -0.001602
 605  20   7.027713   2.555069   3.098692  -0.000260   0.158327  -0.001640
 606  20   5.926534   3.281948   2.709193  -0.000129   0.158327  -0.000814
 607  20   4.792031   3.369349   2.654529  -0.000076   0.070979  -0.001069
 608   7   4.866180  -0.685621   4.400371  -0.000166   0.154918  -0.001070
 609   7   6.393767  -0.474876   4.301875   0.000078   0.154918   0.000503
 610   7   7.445890   0.530867   3.783074   0.000025   0.154918   0.000161
 611   7   7.566584   1.895743   3.068804  -0.000028   0.154918  -0.000182
 612   7   6.703542   3.028248   2.468613  -0.000014   0.154918  -0.000089
 613   7   5.230788   3.437580   2.242609   0.000017   0.154918   0.000107
 614  21   6.925474  -3.066577  -0.972748  -0.000090   0.069485  -0.001291
 615  21   7.647353  -2.268421  -1.282903  -0.000280   0.154487  -0.001812
 616  21   8.517996  -1.293195  -0.931756  -0.000152   0.154487  -0.000981
 617  21   9.055368  -0.676313   0.146705  -0.000298   0.154487  -0.001931
 618  21   9.034105  -0.676485   1.500196  -0.000310   0.154487  -0.002006
 619  21   8.463125  -1.293639   2.561089  -0.000200   0.154487  -0.001292
 620  21   7.581886  -2.268951   2.884466  -0.000217   0.154487  -0.001405
 621  21   6.759962  -3.193396   2.334710  -0.000333   0.154487  -0.002157
 622   7   6.886205  -2.616229  -1.366621  -0.000107   0.152111  -0.000706
 623   7   7.900993  -1.488422  -1.468897   0.000121   0.152111   0.000797
 624   7   8.736851  -0.543278  -0.620221   0.000083   0.152111   0.000548
 625   7   9.043235  -0.177173   0.823490  -0.000108   0.152111  -0.000710
 626   7   8.691655  -0.543644   2.256772  -0.000104   0.152111  -0.000687
 627   7   7.829556  -1.489000   3.078534   0.000103   0.152111   0.000676
 628   7   6.818485  -2.616777   2.944146  -0.000017   0.152111  -0.000110
 629   7   6.151872  -3.371249   2.226958   0.000059   0.084891   0.000692
 630  19   5.483933   2.301199  -3.128346  -0.000603   0.247640  -0.002436
 631  19   5.756403   3.279934  -2.424508  -0.002156   0.495696  -0.004350
 632  19   5.585048   3.936723  -1.086010  -0.001485   0.495696  -0.002995
 633   8   4.502367   3.322298  -3.336459  -0.001652   0.495696  -0.003332
 634   8   4.644241   4.346880  -2.249070  -0.002355   0.495696  -0.004752
 635   8   4.349134   4.659167  -1.090217  -0.000685   0.247640  -0.002765
 636  16  -2.967635   0.417813  -4.850089  -0.003651   0.250054  -0.014603
 637  16  -2.242199  -0.592555  -5.139719  -0.007903   0.500746  -0.015783
 638  16  -1.421093  -1.525952  -4.847241  -0.002237   0.250054  -0.008948
 639   9  -1.695769   0.830948  -5.267427  -0.003329   0.500746  -0.006649
 640   9  -0.732133  -0.380194  -5.265652  -0.003650   0.500746  -0.007289
 641  18   1.751678  -2.166822  -4.011424  -0.000053   0.235884  -0.000225
 642  18   2.621719  -1.580152  -4.083968  -0.000108   0.471560  -0.000228
 643   9   1.261033  -0.810886  -4.736098  -0.000435   0.471560  -0.000922
 644   9   2.112664  -0.193523  -4.734021   0.000284   0.235884   0.001203
 645  13  -3.880285   5.040867  -0.403851  -0.000573   0.246126  -0.002327
 646  13  -4.249705   4.588339  -1.583724  -0.002965   0.493217  -0.006011
 647  13  -4.317804   3.650271  -2.504997  -0.001100   0.246126  -0.004468
 648  10  -2.969477   5.304628  -1.354950  -0.002943   0.493217  -0.005967
 649  10  -3.242007   4.438426  -2.663753  -0.002376   0.493217  -0.004817
 650  15  -1.625556   1.764776   4.795603  -0.000390   0.249150  -0.001565
 651  15  -1.522787   2.936006   4.551070  -0.001693   0.498514  -0.003396
 652  15  -1.602780   3.983111   3.536399  -0.001290   0.498514  -0.002588
 653  11  -0.213279   2.037709   4.438888  -0.001171   0.498514  -0.002348
 654  11  -0.165892   3.368526   3.839666  -0.001306   0.498514  -0.002620
 655  11  -0.293738   4.026110   2.842984  -0.000164   0.249150  -0.000658
 656  20   4.047114   3.266692   3.053478   0.000203   0.250135   0.000812
 657  20   3.825846   2.586349   3.986060  -0.000711   0.500353  -0.001420
 658  20   3.544714   1.272255   4.476966  -0.000707   0.500353  -0.001413
 659  11   2.541227   3.277099   3.270331  -0.000723   0.500353  -0.001446
 660  11   2.256357   2.219986   4.191323  -0.000937   0.500353  -0.001873
 661  11   2.041852   1.074706   4.345781  -0.000063   0.250135  -0.000252
 662  17   1.296852  -2.390870   4.059961  -0.000027   0.261482  -0.000102
 663  17   1.064858  -3.571263   3.681419  -0.001247   0.523364  -0.002383
 664  17   0.768715  -4.463272   2.476037  -0.000939   0.523364  -0.001794
 665  12  -0.160932  -2.643794   4.129607  -0.001606   0.523364  -0.003069
 666  12  -0.461146  -3.921675   3.346524  -0.001580   0.523364  -0.003019
 667  12  -0.685761  -4.402683   2.202573  -0.000207   0.261482  -0.000791
 668  16  -4.987880   0.511280  -3.328044  -0.002418   0.243473  -0.009931
 669  16  -4.333226   0.969413  -3.625011  -0.002771   0.243473  -0.011380
 670  13  -5.091103   1.905050  -2.628861  -0.001719   0.486865  -0.003531
 =====================================================


   1 warning(s) detected.
     A line exceeding 80 characters begins with "http://cactus.nci.ni".
 There may be a problem in your input file.

              4278229  WORDS OF DYNAMIC MEMORY USED
 EXECUTION OF GAMESS TERMINATED NORMALLY Wed Nov 23 12:16:27 2016
 DDI: 263640 bytes (0.3 MB / 0 MWords) used by master data server.

 ----------------------------------------
 CPU timing information for all processes
 ========================================
 0: 1944.748 + 0.592 = 1945.340
 ----------------------------------------
 ddikick.x: exited gracefully.
