----- GAMESS execution script -----

          ******************************************************
          *         GAMESS VERSION =  5 DEC 2014 (R1)          *
          *             FROM IOWA STATE UNIVERSITY             *
          * M.W.SCHMIDT, K.K.BALDRIDGE, J.A.BOATZ, S.T.ELBERT, *
          *   M.S.GORDON, J.H.JENSEN, S.KOSEKI, N.MATSUNAGA,   *
          *          K.A.NGUYEN, S.J.SU, T.L.WINDUS,           *
          *       TOGETHER WITH M.DUPUIS, J.A.MONTGOMERY       *
          *         J.COMPUT.CHEM.  14, 1347-1363(1993)        *
          **************** 64 BIT LINUX VERSION ****************

 EXECUTION OF GAMESS BEGUN Wed Nov 23 12:43:30 2016

            ECHO OF THE FIRST FEW INPUT CARDS -
 INPUT CARD>! SELECT RESTRICTED HARTREE-FOCK AS DEFAULT                                     
 INPUT CARD>$contrl scftyp=rhf $end                                                         
 INPUT CARD>                                                                                
 INPUT CARD>! THEORY: HF OR DFT                                                             
 INPUT CARD> $contrl mplevl=0 $end                                                          
 INPUT CARD>                                                                                
 INPUT CARD> $system timlim=10000 mwords=20 $end                                            
 INPUT CARD> $SCF DIRSCF=.TRUE. $end                                                        
 INPUT CARD>                                                                                
 INPUT CARD>                                                                                
 INPUT CARD>! BASIS SETS                                                                    
 INPUT CARD>! 6-311G(d,p)                                                                   
 INPUT CARD> $BASIS GBASIS=N311 NGAUSS=6 NDFUNC=1 NPFUNC=1 $END                             
 INPUT CARD>                                                                                
 INPUT CARD>! One of the following                                                          
 INPUT CARD> $guess guess=HUCKEL $end                                                       
 INPUT CARD>                                                                                
 INPUT CARD> $statpt projct=.FALSE. $end                                                    
 INPUT CARD> $STATPT IFREEZ(1)=1,2,3 $END                                                   
 INPUT CARD>                                                                                
 INPUT CARD>! Optimize the geometry with COSMO effects                                      
 INPUT CARD> $statpt opttol=0.0005 nstep=50 $end                                            
 INPUT CARD> $contrl nzvar=1 $end                                                           
 INPUT CARD> $zmat dlc=.t. auto=.t. $end                                                    
 INPUT CARD> $contrl runtyp=OPTIMIZE maxit=200 $end                                         
 INPUT CARD>                                                                                
 INPUT CARD>! Run COSMO on perfect conductor                                                
 INPUT CARD> $COSGMS PRFCND=.TRUE. $end                                                     
 INPUT CARD>                                                                                
 INPUT CARD>! Specifying RSOLV                                                              
 INPUT CARD> $COSGMS COSRAD = 1.4 $end                                                      
 INPUT CARD>                                                                                
 INPUT CARD>! available memory                                                              
 INPUT CARD> $SYSTEM MWORDS=40 $END                                                         
 INPUT CARD>                                                                                
 INPUT CARD> $DATA                                                                          
 INPUT CARD>                                                                                
 INPUT CARD>C1                                                                              
 INPUT CARD>C      6.0      2.1190000000    2.5994000000    1.4789000000                    
 INPUT CARD>C      6.0      2.0751000000    2.0528000000    2.9217000000                    
 INPUT CARD>C      6.0      3.5109000000    2.0165000000    3.4864000000                    
 INPUT CARD>C      6.0      1.4058000000    0.6766000000    2.9860000000                    
 INPUT CARD>C      6.0      0.7468000000    2.8128000000    0.8556000000                    
 INPUT CARD>C      6.0      3.5902000000    1.6149000000    4.9526000000                    
 INPUT CARD>H      1.0      2.6428000000    3.5632000000    1.4783000000                    
 INPUT CARD>H      1.0      2.7010000000    1.9246000000    0.8396000000                    
 INPUT CARD>H      1.0      1.4838000000    2.7473000000    3.5335000000                    
 INPUT CARD>H      1.0      4.1301000000    1.3318000000    2.8944000000                    
 INPUT CARD>H      1.0      3.9589000000    3.0128000000    3.3856000000                    
 INPUT CARD>H      1.0      1.9572000000   -0.0588000000    2.3914000000                    
   40000000 WORDS OF MEMORY AVAILABLE

     BASIS OPTIONS
     -------------
     GBASIS=N311         IGAUSS=       6      POLAR=POPN311 
     NDFUNC=       1     NFFUNC=       0     DIFFSP=       F
     NPFUNC=       1      DIFFS=       F     BASNAM=        


     RUN TITLE
     ---------
                                                                                 

 THE POINT GROUP OF THE MOLECULE IS C1      
 THE ORDER OF THE PRINCIPAL AXIS IS     0

 ATOM      ATOMIC                      COORDINATES (BOHR)
           CHARGE         X                   Y                   Z
 C           6.0     4.0043293680        4.9121537325        2.7947157632
 C           6.0     3.9213703971        3.8792295076        5.5212124183
 C           6.0     6.6346389703        3.8106324542        6.5883406836
 C           6.0     2.6565767935        1.2785886033        5.6427217993
 C           6.0     1.4112473676        5.3154212583        1.6168495551
 C           6.0     6.7844942411        3.0517184976        9.3590569268
 H           1.0     4.9941678404        6.7334716395        2.7935819276
 H           1.0     5.1041498928        3.6369666360        1.5866139393
 H           1.0     2.8039754206        5.1916442061        6.6773467776
 H           1.0     7.8047573019        2.5167370704        5.4696228989
 H           1.0     7.4812362128        5.6933664558        6.3978563040
 H           1.0     3.6985717032       -0.1111158881        4.5190907270
 H           1.0     0.7143164234        1.3509651086        4.9384209237
 H           1.0     2.5464057685        0.5839253302        7.5864939503
 H           1.0     0.2146728722        6.4874293158        2.8306205570
 H           1.0     1.6055111992        6.2738902792       -0.2074919135
 H           1.0     0.4444635523        3.5218823233        1.2704627815
 H           1.0     5.5414324864        4.2258052537       10.5227501900
 H           1.0     6.2674652109        1.0690179913        9.6340120580
 H           1.0     8.7201405703        3.2860445200       10.0522084191

          INTERNUCLEAR DISTANCES (ANGS.)




     $CONTRL OPTIONS
     ---------------
 SCFTYP=RHF          RUNTYP=OPTIMIZE     EXETYP=RUN     
 MPLEVL=       0     CITYP =NONE         CCTYP =NONE         VBTYP =NONE    
 DFTTYP=NONE         TDDFT =NONE    
 MULT  =       1     ICHARG=       0     NZVAR =       1     COORD =UNIQUE  
 PP    =NONE         RELWFN=NONE         LOCAL =NONE         NUMGRD=       F
 ISPHER=      -1     NOSYM =       0     MAXIT =     200     UNITS =ANGS    
 PLTORB=       F     MOLPLT=       F     AIMPAC=       F     FRIEND=        
 NPRINT=       7     IREST =       0     GEOM  =INPUT   
 NORMF =       0     NORMP =       0     ITOL  =      20     ICUT  =       9
 INTTYP=BEST         GRDTYP=BEST         QMTTOL= 1.0E-06

     $SYSTEM OPTIONS
     ---------------
  REPLICATED MEMORY=    40000000 WORDS (ON EVERY NODE).
 DISTRIBUTED MEMDDI=           0 MILLION WORDS IN AGGREGATE,
 MEMDDI DISTRIBUTED OVER   1 PROCESSORS IS           0 WORDS/PROCESSOR.
 TOTAL MEMORY REQUESTED ON EACH PROCESSOR=    40000000 WORDS.
 TIMLIM=       10000.00 MINUTES, OR       6.9 DAYS.
 PARALL= F  BALTYP=  DLB     KDIAG=    0  COREFL= F
 MXSEQ2=     300 MXSEQ3=     150  mem10=         0

     $COSGMS OPTIONS
     ---------------
     EPSI  =   INFTY     NSPA  =      92     COSRAD=    1.40
     DISEX =   10.00     OUTCHG=DBLCAV       COSBUG=       F
     COSWRT=       F     DCOSMO=       F

     SYMMETRY COORDINATES WILL NOT BE USED FOR 
     THE COSMO CALCULATION, EVEN IF SPECIFIED:
         -- SWITCHING TO C1 POINT GROUP --


     DEFINITION OF CAVITY
     ---------------------------
     ATOM         COORDINATES           RADIUS 
     1    4.0043    4.9122    2.7947    2.0000
     2    3.9214    3.8792    5.5212    2.0000
     3    6.6346    3.8106    6.5883    2.0000
     4    2.6566    1.2786    5.6427    2.0000
     5    1.4112    5.3154    1.6168    2.0000
     6    6.7845    3.0517    9.3591    2.0000
     7    4.9942    6.7335    2.7936    1.3000
     8    5.1041    3.6370    1.5866    1.3000
     9    2.8040    5.1916    6.6773    1.3000
    10    7.8048    2.5167    5.4696    1.3000
    11    7.4812    5.6934    6.3979    1.3000
    12    3.6986   -0.1111    4.5191    1.3000
    13    0.7143    1.3510    4.9384    1.3000
    14    2.5464    0.5839    7.5865    1.3000
    15    0.2147    6.4874    2.8306    1.3000
    16    1.6055    6.2739   -0.2075    1.3000
    17    0.4445    3.5219    1.2705    1.3000
    18    5.5414    4.2258   10.5228    1.3000
    19    6.2675    1.0690    9.6340    1.3000
    20    8.7201    3.2860   10.0522    1.3000

          ----------------
          PROPERTIES INPUT
          ----------------

     MOMENTS            FIELD           POTENTIAL          DENSITY
 IEMOM =       1   IEFLD =       0   IEPOT =       0   IEDEN =       0
 WHERE =COMASS     WHERE =NUCLEI     WHERE =NUCLEI     WHERE =NUCLEI  
 OUTPUT=BOTH       OUTPUT=BOTH       OUTPUT=BOTH       OUTPUT=BOTH    
 IEMINT=       0   IEFINT=       0                     IEDINT=       0
                                                       MORB  =       0
          EXTRAPOLATION IN EFFECT
          SOSCF IN EFFECT
 ORBITAL PRINTING OPTION: NPREO=     1   198     2     1

     -------------------------------
     INTEGRAL TRANSFORMATION OPTIONS
     -------------------------------
     NWORD  =            0
     CUTOFF = 1.0E-09     MPTRAN =       0
     DIRTRF =       T     AOINTS =DUP     

          ----------------------
          INTEGRAL INPUT OPTIONS
          ----------------------
 NOPK  =       1 NORDER=       0 SCHWRZ=       T


 -----------------------------------------------
  STATISTICS ON AUTOMATIC COORDINATE GENERATION 
 -----------------------------------------------
  NUMBER OF USER SPECIFIED BONDS                             0
  NUMBER OF BONDS                                           19
  NUMBER OF ANGLES                                          36
  NUMBER OF TORSIONS                                        45
  NUMBER OF EXTRA COORD.                                     0
  NUMBER OF EXTRA COORD. FOR CONSTRAINTS                     0
  NUMBER OF CONSTRAINED COORD.                               0

  TOTAL NUMBER OF PRIMITIVES                               100
 -----------------------------------------------

   --- ENCODED Z MATRIX ---
 COORD  TYPE   I   J   K   L   M   N
    1      1    1   7
    2      1    1   5
    3      1    1   2
    4      1    1   8
    5      1    2   4
    6      1    2   9
    7      1    2   3
    8      1    3  11
    9      1    3  10
   10      1    3   6
   11      1    4  14
   12      1    4  13
   13      1    4  12
   14      1    5  16
   15      1    5  15
   16      1    5  17
   17      1    6  20
   18      1    6  19
   19      1    6  18
   20      2    1   2   9
   21      2    1   2   3
   22      2    1   5  17
   23      2    1   5  16
   24      2    1   2   4
   25      2    1   5  15
   26      2    2   4  14
   27      2    2   3  11
   28      2    2   1   7
   29      2    2   3   6
   30      2    2   3  10
   31      2    2   4  12
   32      2    2   1   5
   33      2    2   4  13
   34      2    2   1   8
   35      2    3   2   4
   36      2    3   6  18
   37      2    3   6  20
   38      2    3   2   9
   39      2    3   6  19
   40      2    4   2   9
   41      2    5   1   8
   42      2    5   1   7
   43      2    6   3  10
   44      2    6   3  11
   45      2    7   1   8
   46      2   10   3  11
   47      2   12   4  13
   48      2   12   4  14
   49      2   13   4  14
   50      2   15   5  16
   51      2   15   5  17
   52      2   16   5  17
   53      2   18   6  19
   54      2   18   6  20
   55      2   19   6  20
   56      3    1   2   3  11
   57      3    1   2   4  12
   58      3    1   2   4  13
   59      3    1   2   4  14
   60      3    1   2   3   6
   61      3    1   2   3  10
   62      3    2   1   5  16
   63      3    2   1   5  15
   64      3    2   1   5  17
   65      3    2   3   6  18
   66      3    2   3   6  19
   67      3    2   3   6  20
   68      3    3   2   4  13
   69      3    3   2   4  14
   70      3    3   2   1   8
   71      3    3   2   4  12
   72      3    3   2   1   5
   73      3    3   2   1   7
   74      3    4   2   3  11
   75      3    4   2   3  10
   76      3    4   2   1   8
   77      3    4   2   3   6
   78      3    4   2   1   5
   79      3    4   2   1   7
   80      3    5   1   2   9
   81      3    6   3   2   9
   82      3    7   1   5  16
   83      3    7   1   5  15
   84      3    7   1   5  17
   85      3    7   1   2   9
   86      3    8   1   5  16
   87      3    8   1   2   9
   88      3    8   1   5  15
   89      3    8   1   5  17
   90      3    9   2   3  11
   91      3    9   2   4  13
   92      3    9   2   4  14
   93      3    9   2   4  12
   94      3    9   2   3  10
   95      3   10   3   6  19
   96      3   10   3   6  20
   97      3   10   3   6  18
   98      3   11   3   6  19
   99      3   11   3   6  20
  100      3   11   3   6  18

          INDEP./SYM. INTERNAL COORDINATES
          --------------------------------
 CRD  1=  -0.3703 ( 21)  0.1693 ( 24) -0.1566 ( 27) -0.1565 ( 28)  0.4590 ( 29)
          -0.1395 ( 30)  0.4580 ( 32) -0.1391 ( 34)  0.1704 ( 35) -0.1263 ( 40)
          -0.1383 ( 41) -0.1211 ( 42) -0.1389 ( 43) -0.1212 ( 44) -0.1174 ( 57)
          -0.1243 ( 58) -0.1103 ( 59)  0.1104 ( 68)  0.1243 ( 69)  0.1173 ( 71)
 CRD  2=   0.1546 (  3) -0.1542 (  7) -0.1046 ( 20)  0.3637 ( 24) -0.1261 ( 26)
           0.1160 ( 27) -0.1165 ( 28) -0.3679 ( 29)  0.3692 ( 32)  0.1264 ( 33)
          -0.3638 ( 35)  0.1053 ( 38) -0.1008 ( 41) -0.1375 ( 42)  0.1002 ( 43)
           0.1374 ( 44) -0.1137 ( 61) -0.1144 ( 70)  0.1485 ( 74)  0.1018 ( 75)
           0.1018 ( 76)  0.1643 ( 77)  0.1638 ( 78)  0.1486 ( 79)  0.1033 ( 93)
 CRD  3=   0.2629 (  2)  0.2980 (  3) -0.1648 (  5)  0.2987 (  7)  0.2631 ( 10)
           0.3638 ( 21) -0.2077 ( 24)  0.1312 ( 25)  0.2084 ( 29)  0.2099 ( 32)
          -0.2056 ( 35)  0.1308 ( 36)  0.1145 ( 40) -0.1316 ( 41) -0.1311 ( 43)
           0.1136 ( 56)  0.1734 ( 60)  0.1046 ( 61) -0.1042 ( 70) -0.1733 ( 72)
          -0.1128 ( 73)
 CRD  4=  -0.1269 (  2) -0.1476 (  3) -0.2260 (  5) -0.1462 (  7) -0.1269 ( 10)
           0.1247 ( 20) -0.1123 ( 21) -0.2137 ( 22)  0.1254 ( 25)  0.1243 ( 36)
           0.1229 ( 38) -0.2145 ( 39) -0.1287 ( 40) -0.1000 ( 41)  0.1628 ( 42)
           0.1636 ( 44)  0.1396 ( 56)  0.3148 ( 60)  0.1502 ( 61)  0.1195 ( 62)
          -0.1190 ( 67) -0.1491 ( 70) -0.3136 ( 72) -0.1379 ( 73)  0.2375 ( 77)
          -0.2388 ( 78) -0.1596 ( 80)  0.1595 ( 81)
 CRD  5=  -0.1800 ( 20) -0.1050 ( 22)  0.1274 ( 23)  0.3037 ( 24) -0.1440 ( 26)
           0.3592 ( 29) -0.2071 ( 30) -0.3594 ( 32)  0.1422 ( 33)  0.2079 ( 34)
          -0.3035 ( 35) -0.1265 ( 37)  0.1810 ( 38)  0.1024 ( 39)  0.1247 ( 42)
          -0.1228 ( 44) -0.1551 ( 56) -0.1165 ( 60) -0.1067 ( 61) -0.1079 ( 70)
          -0.1199 ( 72) -0.1566 ( 73)
 CRD  6=   0.1049 (  2)  0.3086 (  3)  0.2586 (  5)  0.3111 (  7)  0.1027 ( 10)
           0.1402 ( 23)  0.1273 ( 24) -0.1152 ( 29)  0.1793 ( 30)  0.3600 ( 31)
          -0.1112 ( 32)  0.1800 ( 34)  0.1286 ( 35)  0.1415 ( 37) -0.1708 ( 40)
           0.1221 ( 59) -0.1036 ( 63)  0.1020 ( 65) -0.1221 ( 68)  0.1753 ( 74)
           0.1450 ( 75) -0.1475 ( 76)  0.1871 ( 77) -0.1919 ( 78) -0.1772 ( 79)
 CRD  7=  -0.1832 ( 22)  0.2420 ( 25)  0.1041 ( 26)  0.2019 ( 27) -0.2012 ( 28)
          -0.1004 ( 29) -0.1105 ( 30)  0.1026 ( 32) -0.1021 ( 33)  0.1067 ( 34)
          -0.2422 ( 36)  0.1855 ( 39) -0.2064 ( 41)  0.1648 ( 42)  0.2082 ( 43)
          -0.1668 ( 44) -0.2252 ( 60) -0.1092 ( 61) -0.1136 ( 63) -0.1197 ( 64)
          -0.1159 ( 65) -0.1212 ( 66) -0.1103 ( 70) -0.2252 ( 72) -0.1112 ( 75)
          -0.1080 ( 76) -0.2271 ( 77) -0.2229 ( 78) -0.1932 ( 80) -0.1942 ( 81)
 CRD  8=   0.1276 (  3)  0.5496 (  5)  0.1273 (  7) -0.2003 ( 22)  0.2640 ( 26)
           0.1726 ( 27)  0.1726 ( 28)  0.2639 ( 33) -0.2008 ( 39) -0.1206 ( 47)
          -0.1206 ( 48) -0.2296 ( 49)  0.1613 ( 62)  0.1250 ( 63)  0.1402 ( 64)
          -0.1253 ( 65) -0.1405 ( 66) -0.1617 ( 67)
 CRD  9=   0.4895 (  2) -0.4887 ( 10)  0.1495 ( 22)  0.2453 ( 23) -0.2448 ( 37)
          -0.1502 ( 39)  0.1353 ( 41)  0.1030 ( 42) -0.1354 ( 43) -0.1026 ( 44)
          -0.1417 ( 50) -0.1167 ( 51) -0.1806 ( 52)  0.1165 ( 53)  0.1413 ( 54)
           0.1804 ( 55)
 CRD 10=  -0.3982 (  3)  0.3989 (  7)  0.2493 ( 22) -0.2496 ( 23) -0.2612 ( 26)
           0.1043 ( 27) -0.1045 ( 28)  0.2622 ( 33)  0.2510 ( 37) -0.2483 ( 39)
          -0.1155 ( 47)  0.1162 ( 48)  0.1100 ( 50) -0.1099 ( 54)  0.1020 ( 57)
           0.1023 ( 71)
 CRD 11=   0.3676 (  2) -0.1112 (  3) -0.1122 (  7)  0.3686 ( 10) -0.1647 ( 21)
           0.3499 ( 23) -0.1214 ( 30) -0.1246 ( 31) -0.1212 ( 34)  0.3498 ( 37)
           0.1533 ( 41)  0.1317 ( 42)  0.1536 ( 43)  0.1324 ( 44) -0.1566 ( 50)
          -0.1594 ( 52) -0.1567 ( 54) -0.1596 ( 55)
 CRD 12=   0.1316 (  3) -0.1285 (  7)  0.2982 ( 22) -0.3033 ( 25)  0.3216 ( 26)
           0.1064 ( 27) -0.1061 ( 28) -0.1604 ( 30) -0.3216 ( 33)  0.1617 ( 34)
           0.2994 ( 36) -0.2983 ( 39) -0.1024 ( 41)  0.1015 ( 43)  0.1342 ( 47)
          -0.1330 ( 48)  0.1439 ( 50) -0.1431 ( 54) -0.1646 ( 62) -0.1192 ( 63)
          -0.1286 ( 64) -0.1185 ( 65) -0.1283 ( 66) -0.1638 ( 67)
 CRD 13=   0.1302 (  2) -0.2019 (  3)  0.1582 (  5) -0.2022 (  7)  0.1311 ( 10)
           0.1715 ( 13) -0.1353 ( 23)  0.2708 ( 25) -0.1905 ( 26) -0.1370 ( 30)
           0.5171 ( 31) -0.1920 ( 33) -0.1355 ( 34)  0.2733 ( 36) -0.1327 ( 37)
           0.1064 ( 41)  0.1072 ( 43) -0.1551 ( 47) -0.1557 ( 48)  0.1590 ( 49)
          -0.1190 ( 51) -0.1182 ( 53)
 CRD 14=   0.1001 ( 15) -0.1525 ( 22) -0.1415 ( 23)  0.3656 ( 25)  0.1660 ( 26)
          -0.1543 ( 27) -0.1528 ( 28)  0.1660 ( 30) -0.2874 ( 31)  0.1615 ( 33)
           0.1663 ( 34)  0.3636 ( 36) -0.1371 ( 37) -0.1548 ( 39) -0.1062 ( 41)
           0.1465 ( 42) -0.1066 ( 43)  0.1474 ( 44) -0.1327 ( 49) -0.1026 ( 51)
           0.1184 ( 52) -0.1006 ( 53)  0.1174 ( 55) -0.1162 ( 56) -0.1084 ( 63)
          -0.1272 ( 64)  0.1090 ( 65)  0.1272 ( 66)  0.1154 ( 73)
 CRD 15=   0.1041 ( 11) -0.1042 ( 12)  0.1052 ( 15) -0.1066 ( 19) -0.1318 ( 20)
          -0.2897 ( 23)  0.1014 ( 24)  0.2726 ( 25)  0.3146 ( 26) -0.1494 ( 27)
           0.1512 ( 28)  0.1066 ( 29) -0.1064 ( 32) -0.3158 ( 33) -0.1016 ( 35)
          -0.2773 ( 36)  0.2899 ( 37)  0.1328 ( 38)  0.1445 ( 47) -0.1448 ( 48)
          -0.1402 ( 51)  0.1188 ( 52)  0.1406 ( 53) -0.1203 ( 55)  0.1235 ( 58)
           0.1237 ( 59)  0.1238 ( 68)  0.1240 ( 69)
 CRD 16=   0.1571 (  1)  0.1377 (  2)  0.1326 (  5)  0.1582 (  8)  0.1388 ( 10)
          -0.1111 ( 14)  0.1381 ( 16) -0.1126 ( 17)  0.1384 ( 18)  0.3896 ( 22)
          -0.2765 ( 23)  0.1111 ( 26) -0.1339 ( 29) -0.1325 ( 32)  0.1093 ( 33)
          -0.2803 ( 37)  0.3909 ( 39) -0.1216 ( 49)  0.1209 ( 50) -0.2019 ( 51)
          -0.2044 ( 53)  0.1208 ( 54)
 CRD 17=  -0.1259 (  1) -0.1353 (  2) -0.2838 (  3) -0.1668 (  4)  0.2827 (  7)
           0.1236 (  8)  0.1663 (  9)  0.1337 ( 10) -0.1527 ( 20) -0.1770 ( 22)
           0.2064 ( 23) -0.1681 ( 25)  0.2033 ( 26) -0.1213 ( 29)  0.1525 ( 30)
           0.1230 ( 32) -0.2044 ( 33) -0.1521 ( 34)  0.1684 ( 36) -0.2040 ( 37)
           0.1518 ( 38)  0.1729 ( 39) -0.1099 ( 42)  0.1095 ( 44)  0.1716 ( 51)
          -0.1695 ( 53)  0.1089 ( 58)  0.1088 ( 59)  0.1084 ( 68)  0.1084 ( 69)
 CRD 18=  -0.1806 (  3) -0.1786 (  4)  0.2566 (  5)  0.1370 (  6) -0.1817 (  7)
          -0.1782 (  9) -0.1028 ( 15) -0.1023 ( 19)  0.1361 ( 21) -0.1697 ( 25)
          -0.2111 ( 27) -0.2105 ( 28)  0.1004 ( 29)  0.1766 ( 31) -0.1692 ( 36)
           0.2177 ( 40) -0.1944 ( 41)  0.1724 ( 42) -0.1944 ( 43)  0.1720 ( 44)
          -0.1416 ( 47) -0.1413 ( 48)  0.1036 ( 60) -0.1044 ( 72) -0.1048 ( 74)
           0.1045 ( 79) -0.1887 ( 80)  0.1878 ( 81)
 CRD 19=   0.2828 (  1) -0.2298 (  4) -0.2834 (  8)  0.2297 (  9)  0.1603 ( 22)
          -0.1175 ( 25) -0.1669 ( 27)  0.1678 ( 28)  0.1675 ( 30) -0.1684 ( 34)
           0.1172 ( 36) -0.1609 ( 39) -0.1249 ( 56) -0.1504 ( 60) -0.1396 ( 61)
           0.1437 ( 62)  0.1258 ( 63)  0.1289 ( 64)  0.1254 ( 65)  0.1286 ( 66)
           0.1434 ( 67) -0.1398 ( 70) -0.1500 ( 72) -0.1253 ( 73) -0.1109 ( 75)
          -0.1119 ( 76) -0.1217 ( 77) -0.1221 ( 78) -0.1259 ( 80) -0.1268 ( 81)
          -0.1012 ( 85) -0.1157 ( 87) -0.1013 ( 90) -0.1000 ( 93) -0.1160 ( 94)
 CRD 20=   0.1147 (  3)  0.2285 (  4)  0.7656 (  6)  0.1148 (  7)  0.2232 (  9)
           0.2260 ( 13)  0.1346 ( 49) -0.1009 ( 59) -0.1150 ( 74) -0.1032 ( 77)
           0.1038 ( 78)  0.1126 ( 79)
 CRD 21=   0.2031 (  1) -0.3023 (  4) -0.2041 (  8)  0.3070 (  9) -0.2090 ( 41)
           0.1652 ( 42)  0.2089 ( 43) -0.1643 ( 44)  0.1254 ( 56)  0.1315 ( 57)
           0.1231 ( 58)  0.1228 ( 59)  0.1506 ( 61)  0.1197 ( 62)  0.1205 ( 67)
           0.1245 ( 68)  0.1242 ( 69)  0.1501 ( 70)  0.1329 ( 71)  0.1252 ( 73)
           0.1293 ( 74)  0.1544 ( 75)  0.1560 ( 76)  0.1311 ( 79)  0.1369 ( 85)
           0.1618 ( 87)  0.1361 ( 90)  0.1070 ( 91)  0.1067 ( 92)  0.1154 ( 93)
           0.1613 ( 94)
 CRD 22=   0.1017 (  1) -0.1173 (  4)  0.1623 (  5) -0.1251 (  6)  0.1030 (  8)
          -0.1173 (  9)  0.4723 ( 11)  0.4726 ( 12)  0.4818 ( 13) -0.1719 ( 26)
          -0.1827 ( 31) -0.1716 ( 33)  0.1885 ( 47)  0.1886 ( 48)  0.1837 ( 49)
 CRD 23=  -0.1212 (  2)  0.1187 ( 10) -0.3355 ( 14) -0.3600 ( 15) -0.3634 ( 16)
           0.3287 ( 17)  0.3558 ( 18)  0.3530 ( 19)  0.1264 ( 22)  0.1383 ( 23)
           0.1245 ( 25) -0.1219 ( 36) -0.1357 ( 37) -0.1238 ( 39) -0.1374 ( 50)
          -0.1324 ( 51) -0.1395 ( 52)  0.1296 ( 53)  0.1347 ( 54)  0.1367 ( 55)
 CRD 24=  -0.1215 (  2) -0.1239 ( 10) -0.3344 ( 14) -0.3540 ( 15) -0.3565 ( 16)
          -0.3412 ( 17) -0.3639 ( 18) -0.3613 ( 19)  0.1245 ( 22)  0.1329 ( 23)
           0.1239 ( 25)  0.1265 ( 36)  0.1358 ( 37)  0.1269 ( 39) -0.1338 ( 50)
          -0.1318 ( 51) -0.1354 ( 52) -0.1344 ( 53) -0.1367 ( 54) -0.1381 ( 55)
 CRD 25=  -0.1838 (  3)  0.1341 (  4)  0.1727 (  7) -0.1128 (  8) -0.1224 (  9)
          -0.1156 ( 14)  0.1180 ( 17)  0.1104 ( 24)  0.1304 ( 26)  0.1124 ( 27)
          -0.1097 ( 28) -0.1274 ( 33) -0.1145 ( 35)  0.1591 ( 42) -0.1706 ( 44)
           0.1169 ( 47) -0.1179 ( 48) -0.1842 ( 57) -0.2457 ( 58) -0.2457 ( 59)
          -0.2485 ( 68) -0.2485 ( 69) -0.1871 ( 71)  0.1656 ( 74)  0.1536 ( 79)
           0.1025 ( 82)  0.1010 ( 83)  0.1139 ( 85)  0.1323 ( 90) -0.2390 ( 91)
          -0.2390 ( 92) -0.1776 ( 93)  0.1076 ( 98)  0.1114 ( 99)  0.1103 (100)
 CRD 26=   0.3621 (  1) -0.1099 (  4) -0.1710 (  5) -0.1118 (  6)  0.1147 (  7)
           0.3518 (  8) -0.1217 (  9) -0.1895 ( 11) -0.1924 ( 12) -0.1144 ( 41)
           0.1169 ( 42) -0.1163 ( 43) -0.1250 ( 56) -0.1529 ( 61)  0.1109 ( 62)
           0.1155 ( 63)  0.1090 ( 64) -0.1100 ( 65) -0.1043 ( 66) -0.1051 ( 67)
           0.1546 ( 70)  0.1347 ( 73) -0.1060 ( 74) -0.1339 ( 75)  0.1424 ( 76)
           0.1225 ( 79)  0.1831 ( 85)  0.2031 ( 87) -0.1703 ( 90) -0.1982 ( 94)
 CRD 27=  -0.1033 (  4) -0.1078 (  9)  0.4399 ( 14) -0.1699 ( 15) -0.2376 ( 16)
           0.4674 ( 17) -0.2499 ( 18) -0.1837 ( 19)  0.1282 ( 50) -0.2236 ( 51)
          -0.2378 ( 53)  0.1347 ( 54) -0.1133 ( 63)  0.1210 ( 64)  0.1203 ( 65)
          -0.1289 ( 66) -0.1240 ( 83)  0.1102 ( 84) -0.1079 ( 88)  0.1263 ( 89)
          -0.1346 ( 95)  0.1147 ( 97) -0.1180 ( 98)  0.1312 (100)
 CRD 28=  -0.1613 ( 11)  0.1587 ( 12)  0.4446 ( 14) -0.1619 ( 15) -0.2585 ( 16)
          -0.4176 ( 17)  0.2408 ( 18)  0.1546 ( 19)  0.1398 ( 50) -0.2282 ( 51)
           0.2146 ( 53) -0.1302 ( 54) -0.1218 ( 63)  0.1182 ( 64) -0.1143 ( 65)
           0.1114 ( 66) -0.1261 ( 83)  0.1139 ( 84) -0.1196 ( 88)  0.1204 ( 89)
           0.1134 ( 95) -0.1123 ( 97)  0.1078 ( 98) -0.1179 (100)
 CRD 29=   0.5430 ( 11) -0.5438 ( 12)  0.1203 ( 14) -0.1166 ( 17) -0.2604 ( 47)
           0.2607 ( 48) -0.2250 ( 57) -0.2249 ( 71) -0.2391 ( 93)
 CRD 30=  -0.1192 ( 13)  0.4287 ( 15) -0.3928 ( 16) -0.3291 ( 18)  0.3512 ( 19)
           0.2145 ( 50) -0.2341 ( 52)  0.1796 ( 54) -0.1919 ( 55)  0.1749 ( 62)
          -0.1455 ( 67)  0.1752 ( 82)  0.1691 ( 86) -0.1407 ( 96) -0.1469 ( 99)
 CRD 31=   0.3732 ( 15) -0.3201 ( 16)  0.3900 ( 18) -0.4441 ( 19)  0.1749 ( 50)
          -0.2036 ( 52) -0.2128 ( 54)  0.2423 ( 55)  0.1439 ( 62)  0.1740 ( 67)
           0.1377 ( 82)  0.1386 ( 86)  0.1675 ( 96)  0.1677 ( 99)
 CRD 32=  -0.2963 ( 11) -0.2959 ( 12)  0.6133 ( 13)  0.1663 ( 47)  0.1662 ( 48)
          -0.3415 ( 49) -0.1733 ( 58)  0.1894 ( 59) -0.1892 ( 68)  0.1735 ( 69)
          -0.1812 ( 91)  0.1814 ( 92)
 CRD 33=   0.3747 (  1)  0.4277 (  4)  0.3789 (  8)  0.4317 (  9)  0.1707 ( 45)
           0.1725 ( 46) -0.1209 ( 85) -0.1023 ( 86) -0.1263 ( 88)  0.1214 ( 90)
           0.1031 ( 96)  0.1270 ( 97)
 CRD 34=   0.4290 (  1)  0.3890 (  4) -0.4252 (  8) -0.3847 (  9)  0.1778 ( 45)
          -0.1761 ( 46)
 CRD 35=   0.2834 (  1) -0.2851 (  4)  0.1981 (  6)  0.2830 (  8) -0.2846 (  9)
          -0.1121 ( 62) -0.1177 ( 63) -0.1162 ( 64)  0.1176 ( 65)  0.1159 ( 66)
           0.1121 ( 67) -0.2019 ( 82) -0.2075 ( 83) -0.2060 ( 84) -0.1893 ( 86)
          -0.1948 ( 88) -0.1934 ( 89)  0.1929 ( 95)  0.1891 ( 96)  0.1946 ( 97)
           0.2056 ( 98)  0.2017 ( 99)  0.2072 (100)
 CRD 36=  -0.2099 (  1)  0.2038 (  4)  0.2104 (  8) -0.2039 (  9) -0.1174 ( 56)
           0.1487 ( 62)  0.1424 ( 63)  0.1366 ( 64)  0.1425 ( 65)  0.1366 ( 66)
           0.1489 ( 67) -0.1173 ( 73) -0.1131 ( 74) -0.1132 ( 79)  0.2097 ( 82)
           0.2034 ( 83)  0.1975 ( 84)  0.2242 ( 86)  0.2179 ( 88)  0.2121 ( 89)
           0.2122 ( 95)  0.2246 ( 96)  0.2181 ( 97)  0.1976 ( 98)  0.2099 ( 99)
           0.2035 (100)
 CRD 37=   0.1051 (  2) -0.1054 ( 10) -0.2199 ( 14) -0.1420 ( 15) -0.1344 ( 16)
           0.2204 ( 17)  0.1346 ( 18)  0.1422 ( 19) -0.1512 ( 22) -0.1766 ( 23)
          -0.1469 ( 25)  0.1206 ( 27) -0.1205 ( 28)  0.1354 ( 30) -0.1350 ( 34)
           0.1471 ( 36)  0.1769 ( 37)  0.1515 ( 39)  0.1487 ( 41)  0.1368 ( 42)
          -0.1490 ( 43) -0.1369 ( 44)  0.1935 ( 50)  0.1243 ( 51)  0.1823 ( 52)
          -0.1243 ( 53) -0.1939 ( 54) -0.1827 ( 55) -0.1019 ( 61) -0.1017 ( 70)
          -0.1637 ( 87)  0.1687 ( 91)  0.1686 ( 92)  0.1951 ( 93) -0.1644 ( 94)
 CRD 38=  -0.1619 (  2) -0.1751 (  3)  0.1346 (  6) -0.1750 (  7) -0.1617 ( 10)
           0.2241 ( 14)  0.1660 ( 15)  0.1614 ( 16)  0.2239 ( 17)  0.1612 ( 18)
           0.1658 ( 19)  0.1702 ( 22)  0.1909 ( 23)  0.1746 ( 25)  0.1006 ( 27)
           0.1006 ( 28)  0.1744 ( 36)  0.1908 ( 37)  0.1699 ( 39) -0.1186 ( 41)
          -0.1334 ( 42) -0.1183 ( 43) -0.1333 ( 44) -0.2070 ( 50) -0.1572 ( 51)
          -0.1998 ( 52) -0.1569 ( 53) -0.2069 ( 54) -0.1996 ( 55)  0.1141 ( 74)
          -0.1141 ( 79)  0.1037 ( 87) -0.1034 ( 94)
 CRD 39=   0.3619 (  5)  0.1274 (  6) -0.2486 ( 11) -0.2488 ( 12) -0.2955 ( 13)
          -0.2565 ( 26) -0.2678 ( 31) -0.2565 ( 33)  0.1108 ( 40)  0.2933 ( 47)
           0.2932 ( 48)  0.2454 ( 49) -0.1133 ( 80)  0.1132 ( 81) -0.1449 ( 85)
          -0.1489 ( 87)  0.1449 ( 90)  0.1486 ( 94)
 CRD 40=  -0.1012 (  2)  0.2066 (  4)  0.1282 (  5) -0.4335 (  6)  0.2077 (  9)
          -0.1010 ( 10) -0.1807 ( 11) -0.1797 ( 12)  0.1962 ( 13)  0.1064 ( 16)
           0.1072 ( 18) -0.1012 ( 21)  0.2495 ( 49) -0.1093 ( 52) -0.1097 ( 55)
          -0.1926 ( 59)  0.1926 ( 68) -0.1423 ( 74)  0.1420 ( 79) -0.1508 ( 83)
          -0.1656 ( 84)  0.1152 ( 91) -0.1157 ( 92)  0.1660 ( 98)  0.1516 (100)
 CRD 41=  -0.3379 (  2)  0.3378 ( 10)  0.1225 ( 11) -0.1232 ( 12)  0.1303 ( 15)
           0.1870 ( 16) -0.1866 ( 18) -0.1309 ( 19)  0.1374 ( 20)  0.1120 ( 22)
           0.1084 ( 23)  0.1224 ( 25)  0.1128 ( 30) -0.1127 ( 34) -0.1224 ( 36)
          -0.1085 ( 37) -0.1373 ( 38) -0.1119 ( 39) -0.2003 ( 51) -0.1009 ( 52)
           0.2003 ( 53)  0.1005 ( 55) -0.1040 ( 80) -0.1041 ( 81)  0.1062 ( 84)
          -0.1029 ( 87) -0.1465 ( 88)  0.1594 ( 91)  0.1591 ( 92)  0.2728 ( 93)
          -0.1029 ( 94) -0.1466 ( 97)  0.1066 ( 98)
 CRD 42=  -0.2664 (  2)  0.2205 (  3)  0.2210 (  7) -0.2666 ( 10) -0.1306 ( 14)
           0.1594 ( 15)  0.1476 ( 16) -0.1307 ( 17)  0.1460 ( 18)  0.1613 ( 19)
          -0.1540 ( 27) -0.1532 ( 28) -0.1554 ( 30) -0.1556 ( 34)  0.1061 ( 42)
           0.1061 ( 44)  0.1240 ( 45)  0.1242 ( 46) -0.2136 ( 51) -0.2138 ( 53)
           0.1036 ( 82)  0.2050 ( 84) -0.1444 ( 86) -0.2298 ( 88)  0.1452 ( 96)
           0.2289 ( 97) -0.2061 ( 98) -0.1030 ( 99)
 CRD 43=   0.1838 (  1) -0.2150 (  4) -0.1823 (  8)  0.2133 (  9)  0.2494 ( 15)
          -0.1953 ( 16)  0.1951 ( 18) -0.2465 ( 19)  0.1439 ( 27) -0.1454 ( 28)
          -0.1783 ( 50)  0.1609 ( 52)  0.1773 ( 54) -0.1598 ( 55) -0.2182 ( 62)
          -0.2171 ( 67)  0.1802 ( 83)  0.2017 ( 84) -0.1024 ( 86)  0.1198 ( 88)
           0.1413 ( 89)  0.1398 ( 95) -0.1016 ( 96)  0.1200 ( 97)  0.1988 ( 98)
           0.1790 (100)
 CRD 44=   0.1886 (  1) -0.1793 (  2)  0.1422 (  3) -0.3059 (  5)  0.1456 (  7)
           0.1888 (  8) -0.1801 ( 10)  0.1732 ( 13)  0.1307 ( 15)  0.1334 ( 19)
           0.1679 ( 40) -0.1002 ( 45) -0.1077 ( 47) -0.1095 ( 48) -0.1297 ( 50)
          -0.1306 ( 54)  0.1489 ( 61) -0.1491 ( 70)  0.1221 ( 75) -0.1221 ( 76)
          -0.1411 ( 80)  0.1401 ( 81) -0.1510 ( 85) -0.2836 ( 87)  0.1435 ( 88)
           0.1200 ( 89)  0.1506 ( 90)  0.2828 ( 94) -0.1210 ( 95) -0.1427 ( 97)
 CRD 45=   0.1259 (  1) -0.2349 (  3)  0.2333 (  7) -0.1276 (  8)  0.2059 ( 11)
          -0.2062 ( 12)  0.2002 ( 14) -0.1334 ( 16) -0.2010 ( 17)  0.1333 ( 18)
           0.1209 ( 20) -0.1200 ( 38) -0.1275 ( 45)  0.1286 ( 46)  0.1569 ( 47)
          -0.1560 ( 48) -0.1070 ( 50)  0.1477 ( 51) -0.1477 ( 53)  0.1076 ( 54)
           0.1405 ( 57)  0.1114 ( 63) -0.1086 ( 64)  0.1116 ( 65) -0.1089 ( 66)
           0.1404 ( 71) -0.1454 ( 84) -0.1300 ( 87)  0.2164 ( 88)  0.2769 ( 93)
          -0.1331 ( 94)  0.2175 ( 97) -0.1453 ( 98)
 CRD 46=   0.2179 (  2) -0.2246 ( 10)  0.2328 ( 11) -0.2289 ( 12) -0.1685 ( 14)
           0.1721 ( 17) -0.1023 ( 26)  0.1024 ( 33) -0.1112 ( 41) -0.1108 ( 42)
           0.1165 ( 43)  0.1122 ( 44)  0.1165 ( 45) -0.1198 ( 46)  0.1765 ( 47)
          -0.1756 ( 48)  0.1156 ( 52) -0.1238 ( 55) -0.1126 ( 56)  0.1505 ( 57)
          -0.1450 ( 58) -0.1417 ( 59)  0.1078 ( 61)  0.1031 ( 64)  0.1066 ( 66)
          -0.1467 ( 68) -0.1435 ( 69)  0.1082 ( 70)  0.1488 ( 71) -0.1061 ( 73)
          -0.1379 ( 74) -0.1339 ( 79)  0.1193 ( 84) -0.1349 ( 85) -0.1358 ( 90)
          -0.1220 ( 91) -0.1188 ( 92)  0.1735 ( 93)  0.1039 ( 95)  0.1244 ( 98)
 CRD 47=   0.1932 (  2)  0.1316 (  5)  0.1843 ( 10) -0.1046 ( 11) -0.1132 ( 12)
           0.1657 ( 13) -0.1295 ( 14)  0.1918 ( 15) -0.1351 ( 16) -0.1217 ( 17)
          -0.1360 ( 18)  0.1882 ( 19) -0.1181 ( 25) -0.1150 ( 36) -0.1361 ( 41)
          -0.1313 ( 43)  0.1548 ( 49)  0.1905 ( 52)  0.1856 ( 55)  0.1623 ( 56)
          -0.1557 ( 59) -0.1561 ( 62)  0.1079 ( 64) -0.1030 ( 66)  0.1551 ( 67)
           0.1502 ( 68) -0.1665 ( 73)  0.1166 ( 74) -0.1222 ( 79) -0.1280 ( 82)
           0.1360 ( 84) -0.1360 ( 86)  0.1151 ( 87)  0.1280 ( 89)  0.1063 ( 91)
          -0.1115 ( 92) -0.1114 ( 94) -0.1234 ( 95)  0.1347 ( 96) -0.1306 ( 98)
           0.1275 ( 99)
 CRD 48=   0.1146 (  2) -0.2516 (  5)  0.1163 ( 10)  0.1241 ( 13) -0.1749 ( 14)
           0.2062 ( 16) -0.1772 ( 17)  0.2061 ( 18) -0.1044 ( 21) -0.1289 ( 22)
          -0.1289 ( 39) -0.1440 ( 42) -0.1447 ( 44)  0.1844 ( 50) -0.1059 ( 51)
          -0.1074 ( 53)  0.1847 ( 54) -0.1087 ( 60) -0.1055 ( 61)  0.1446 ( 62)
          -0.1401 ( 63)  0.1411 ( 65) -0.1439 ( 67)  0.1048 ( 70)  0.1091 ( 72)
           0.1295 ( 82) -0.1553 ( 83) -0.1887 ( 85)  0.1687 ( 86) -0.1160 ( 88)
           0.1893 ( 90) -0.1680 ( 96)  0.1170 ( 97) -0.1283 ( 99)  0.1567 (100)
 CRD 49=  -0.1209 (  4) -0.1219 (  9) -0.1190 ( 11) -0.1180 ( 12)  0.2286 ( 13)
           0.1417 ( 14) -0.1314 ( 15)  0.1418 ( 17) -0.1326 ( 19) -0.1132 ( 23)
          -0.1389 ( 31) -0.1135 ( 37) -0.1258 ( 40)  0.1286 ( 45)  0.1294 ( 46)
           0.1723 ( 49)  0.1107 ( 51)  0.1108 ( 53)  0.1850 ( 58) -0.1231 ( 59)
          -0.1490 ( 64)  0.1497 ( 66)  0.1237 ( 68) -0.1845 ( 69)  0.1568 ( 74)
          -0.1561 ( 79)  0.1780 ( 82)  0.2005 ( 83) -0.2138 ( 89)  0.1546 ( 91)
          -0.1535 ( 92)  0.2146 ( 95) -0.1797 ( 99) -0.2009 (100)
 CRD 50=   0.1215 (  1) -0.2113 (  3)  0.1247 (  4)  0.2110 (  7) -0.1208 (  8)
          -0.1248 (  9) -0.1526 ( 14)  0.1517 ( 17)  0.1441 ( 23) -0.1364 ( 29)
           0.1368 ( 32) -0.1435 ( 37) -0.1906 ( 45)  0.1901 ( 46) -0.1229 ( 51)
           0.1222 ( 53) -0.1132 ( 63)  0.1327 ( 64) -0.1120 ( 65)  0.1325 ( 66)
          -0.1530 ( 82) -0.2507 ( 83)  0.1240 ( 86)  0.2723 ( 89)  0.2711 ( 95)
           0.1227 ( 96) -0.1534 ( 99) -0.2494 (100)
 CRD 51=   0.1366 (  1) -0.1099 (  2)  0.1799 (  3) -0.1788 (  7) -0.1372 (  8)
           0.1106 ( 10)  0.1274 ( 11) -0.1272 ( 12)  0.1055 ( 16) -0.1059 ( 18)
          -0.1145 ( 20) -0.1685 ( 24) -0.1229 ( 26)  0.1018 ( 27) -0.1019 ( 28)
           0.1229 ( 33)  0.1687 ( 35)  0.1142 ( 38)  0.1155 ( 41) -0.1154 ( 43)
           0.2042 ( 57)  0.1126 ( 60) -0.1336 ( 63) -0.1342 ( 65)  0.2045 ( 71)
           0.1131 ( 72) -0.1943 ( 75) -0.1933 ( 76)  0.1852 ( 80)  0.1857 ( 81)
           0.1096 ( 82)  0.1271 ( 85)  0.1499 ( 86)  0.1285 ( 90) -0.2414 ( 91)
          -0.2413 ( 92)  0.1505 ( 96)  0.1087 ( 99)
 CRD 52=  -0.1061 (  1)  0.1229 (  3)  0.1715 (  4) -0.1238 (  7)  0.1070 (  8)
          -0.1708 (  9)  0.1176 ( 15) -0.1144 ( 16)  0.1151 ( 18) -0.1171 ( 19)
          -0.1434 ( 20)  0.1142 ( 22)  0.1079 ( 30) -0.1079 ( 34)  0.1431 ( 38)
          -0.1147 ( 39)  0.1390 ( 42) -0.1390 ( 44)  0.1764 ( 57) -0.1654 ( 60)
           0.1586 ( 63)  0.1477 ( 64)  0.1596 ( 65)  0.1469 ( 66)  0.1759 ( 71)
          -0.1648 ( 72) -0.1933 ( 77) -0.1937 ( 78) -0.1964 ( 82)  0.1649 ( 85)
          -0.1739 ( 86)  0.1641 ( 90) -0.1580 ( 91) -0.1588 ( 92) -0.1749 ( 96)
          -0.1959 ( 99)
 CRD 53=  -0.1427 (  1)  0.1779 (  3) -0.1694 (  5)  0.1783 (  7) -0.1414 (  8)
          -0.1108 ( 13) -0.1952 ( 21) -0.1472 ( 29)  0.1202 ( 31) -0.1471 ( 32)
           0.1990 ( 40)  0.1378 ( 45)  0.1378 ( 46) -0.1006 ( 49) -0.1027 ( 57)
          -0.1950 ( 58) -0.1595 ( 61)  0.1161 ( 63) -0.1144 ( 65)  0.1949 ( 69)
           0.1600 ( 70)  0.1027 ( 71) -0.2334 ( 75)  0.2341 ( 76) -0.1867 ( 80)
           0.1852 ( 81)  0.1117 ( 83) -0.2034 ( 85) -0.1354 ( 86) -0.1355 ( 89)
           0.2038 ( 90)  0.1353 ( 95)  0.1337 ( 96) -0.1119 (100)
 CRD 54=   0.1005 (  1) -0.1395 (  4)  0.1303 (  5) -0.1985 (  6)  0.1013 (  8)
          -0.1396 (  9)  0.1266 ( 20) -0.1186 ( 24) -0.1032 ( 27) -0.1027 ( 28)
           0.1301 ( 30)  0.1300 ( 34) -0.1184 ( 35)  0.1270 ( 38)  0.2447 ( 56)
          -0.1101 ( 57) -0.1729 ( 58)  0.1973 ( 61) -0.1812 ( 63) -0.1793 ( 64)
           0.1821 ( 65)  0.1795 ( 66)  0.1731 ( 69) -0.1967 ( 70)  0.1108 ( 71)
          -0.2450 ( 73) -0.2252 ( 77)  0.2245 ( 78)  0.1666 ( 80) -0.1668 ( 81)
           0.1279 ( 82)  0.1048 ( 86) -0.1055 ( 96) -0.1281 ( 99)

 THE DETERMINANT OF THE G MATRIX IS 10**(   -16)


                     --------------------
                     INTERNAL COORDINATES
                     --------------------

                 - - ATOMS - -         COORDINATE      COORDINATE
 NO.   TYPE    I  J  K  L  M  N        (BOHR,RAD)       (ANG,DEG)
 ----------------------------------------------------------------
   1 STRETCH   1  7                     2.0729159       1.0969399
   2 STRETCH   1  5                     2.8764679       1.5221614
   3 STRETCH   1  2                     2.9167788       1.5434930
   4 STRETCH   1  8                     2.0724906       1.0967149
   5 STRETCH   2  4                     2.8944430       1.5316734
   6 STRETCH   2  9                     2.0754880       1.0983010
   7 STRETCH   2  3                     2.9163838       1.5432840
   8 STRETCH   3 11                     2.0730891       1.0970316
   9 STRETCH   3 10                     2.0724072       1.0966707
  10 STRETCH   3  6                     2.8766779       1.5222725
  11 STRETCH   4 14                     2.0671103       1.0938677
  12 STRETCH   4 13                     2.0672817       1.0939584
  13 STRETCH   4 12                     2.0687143       1.0947165
  14 STRETCH   5 16                     2.0699331       1.0953615
  15 STRETCH   5 15                     2.0684858       1.0945956
  16 STRETCH   5 17                     2.0667454       1.0936747
  17 STRETCH   6 20                     2.0693222       1.0950382
  18 STRETCH   6 19                     2.0673705       1.0940054
  19 STRETCH   6 18                     2.0682998       1.0944972
  20 BEND      1  2  9                  1.8881811     108.1848095
  21 BEND      1  2  3                  1.9006513     108.8992954
  22 BEND      1  5 17                  1.9483660     111.6331471
  23 BEND      1  5 16                  1.9190020     109.9507172
  24 BEND      1  2  4                  1.9496497     111.7067005
  25 BEND      1  5 15                  1.9397512     111.1395562
  26 BEND      2  4 14                  1.9441161     111.3896489
  27 BEND      2  3 11                  1.9017555     108.9625613
  28 BEND      2  1  7                  1.9020640     108.9802419
  29 BEND      2  3  6                  1.9900734     114.0228085
  30 BEND      2  3 10                  1.9203270     110.0266339
  31 BEND      2  4 12                  1.9397952     111.1420781
  32 BEND      2  1  5                  1.9897203     114.0025775
  33 BEND      2  4 13                  1.9442011     111.3945157
  34 BEND      2  1  8                  1.9199402     110.0044712
  35 BEND      3  2  4                  1.9498536     111.7183848
  36 BEND      3  6 18                  1.9399677     111.1519588
  37 BEND      3  6 20                  1.9192886     109.9671366
  38 BEND      3  2  9                  1.8880182     108.1754758
  39 BEND      3  6 19                  1.9477417     111.5973787
  40 BEND      4  2  9                  1.8854774     108.0298979
  41 BEND      5  1  8                  1.9028214     109.0236335
  42 BEND      5  1  7                  1.8829019     107.8823344
  43 BEND      6  3 10                  1.9026614     109.0144663
  44 BEND      6  3 11                  1.8826446     107.8675873
  45 BEND      7  1  8                  1.8617748     106.6718402
  46 BEND     10  3 11                  1.8617223     106.6688277
  47 BEND     12  4 13                  1.8877809     108.1618810
  48 BEND     12  4 14                  1.8879240     108.1700774
  49 BEND     13  4 14                  1.8567297     106.3827734
  50 BEND     15  5 16                  1.8850428     108.0049940
  51 BEND     15  5 17                  1.8959424     108.6294965
  52 BEND     16  5 17                  1.8734135     107.3386895
  53 BEND     18  6 19                  1.8957603     108.6190654
  54 BEND     18  6 20                  1.8853995     108.0254360
  55 BEND     19  6 20                  1.8733778     107.3366416
  56 TORSION   1  2  3 11               0.9446112      54.1222372
  57 TORSION   1  2  4 12               1.0680276      61.1934735
  58 TORSION   1  2  4 13              -1.0384649     -59.4996571
  59 TORSION   1  2  4 14              -3.1085411    -178.1062874
  60 TORSION   1  2  3  6               3.0486553     174.6750795
  61 TORSION   1  2  3 10              -1.0907778     -62.4969648
  62 TORSION   2  1  5 16               3.0138491     172.6808329
  63 TORSION   2  1  5 15               0.9276140      53.1483654
  64 TORSION   2  1  5 17              -1.1921380     -68.3044736
  65 TORSION   2  3  6 18              -0.9237385     -52.9263192
  66 TORSION   2  3  6 19               1.1954977      68.4969718
  67 TORSION   2  3  6 20              -3.0107428    -172.5028584
  68 TORSION   3  2  4 13               3.1107998     178.2357022
  69 TORSION   3  2  4 14               1.0407236      59.6290719
  70 TORSION   3  2  1  8               1.0969077      62.8481841
  71 TORSION   3  2  4 12              -1.0658929     -61.0711672
  72 TORSION   3  2  1  5              -3.0428660    -174.3433814
  73 TORSION   3  2  1  7              -0.9385043     -53.7723328
  74 TORSION   4  2  3 11               3.1063836     177.9826712
  75 TORSION   4  2  3 10               1.0709946      61.3634692
  76 TORSION   4  2  1  8              -1.0649857     -61.0191832
  77 TORSION   4  2  3  6              -1.0727577     -61.4644865
  78 TORSION   4  2  1  5               1.0784259      61.7892512
  79 TORSION   4  2  1  7              -3.1003977    -177.6397002
  80 TORSION   5  1  2  9              -0.9946397     -56.9886558
  81 TORSION   6  3  2  9               1.0003255      57.3144298
  82 TORSION   7  1  5 16               0.8988071      51.4978546
  83 TORSION   7  1  5 15              -1.1874280     -68.0346128
  84 TORSION   7  1  5 17               2.9760054     170.5125481
  85 TORSION   7  1  2  9               1.1097221      63.5823929
  86 TORSION   8  1  5 16              -1.1166093     -63.9769979
  87 TORSION   8  1  2  9              -3.1380512    -179.7970902
  88 TORSION   8  1  5 15               3.0803409     176.4905346
  89 TORSION   8  1  5 17               0.9605890      55.0376955
  90 TORSION   9  2  3 11              -1.1037185     -63.2384125
  91 TORSION   9  2  4 13               1.0362072      59.3702997
  92 TORSION   9  2  4 14              -1.0338690     -59.2363306
  93 TORSION   9  2  4 12              -3.1404856    -179.9365696
  94 TORSION   9  2  3 10              -3.1391076    -179.8576145
  95 TORSION  10  3  6 19              -0.9578608     -54.8813810
  96 TORSION  10  3  6 20               1.1190840      64.1187888
  97 TORSION  10  3  6 18              -3.0770970    -176.3046720
  98 TORSION  11  3  6 19              -2.9729939    -170.3400058
  99 TORSION  11  3  6 20              -0.8960492     -51.3398360
 100 TORSION  11  3  6 18               1.1909551      68.2367032

     ------------------------------------------
     THE POINT GROUP IS C1 , NAXIS= 1, ORDER= 1
     ------------------------------------------

     DIMENSIONS OF THE SYMMETRY SUBSPACES ARE
 A   =  198

 ..... DONE SETTING UP THE RUN .....
 STEP CPU TIME =     0.02 TOTAL CPU TIME =        0.0 (    0.0 MIN)
 TOTAL WALL CLOCK TIME=        0.0 SECONDS, CPU UTILIZATION IS 100.00%


          -----------------------------
          STATIONARY POINT LOCATION RUN
          -----------------------------

 OBTAINING INITIAL HESSIAN, HESS=GUESS   
 DIAGONAL GUESS HESSIAN IN INTERNAL COORDS IS
     1  0.3417     2  0.3728     3  0.3577     4  0.3419     5  0.3660
     6  0.3408     7  0.3578     8  0.3417     9  0.3419    10  0.3727
    11  0.3438    12  0.3437    13  0.3432    14  0.3428    15  0.3433
    16  0.3439    17  0.3430    18  0.3437    19  0.3434    20  0.2228
    21  0.2466    22  0.2243    23  0.2242    24  0.2474    25  0.2243
    26  0.2237    27  0.2229    28  0.2229    29  0.2481    30  0.2229
    31  0.2237    32  0.2481    33  0.2237    34  0.2229    35  0.2474
    36  0.2243    37  0.2242    38  0.2228    39  0.2243    40  0.2235
    41  0.2241    42  0.2241    43  0.2241    44  0.2241    45  0.2027
    46  0.2027    47  0.2030    48  0.2030    49  0.2030    50  0.2029
    51  0.2030    52  0.2029    53  0.2030    54  0.2029    55  0.2029
    56  0.2500    57  0.2500    58  0.2500    59  0.2500    60  0.2500
    61  0.2500    62  0.2500    63  0.2500    64  0.2500    65  0.2500
    66  0.2500    67  0.2500    68  0.2500    69  0.2500    70  0.2500
    71  0.2500    72  0.2500    73  0.2500    74  0.2500    75  0.2500
    76  0.2500    77  0.2500    78  0.2500    79  0.2500    80  0.2500
    81  0.2500    82  0.2500    83  0.2500    84  0.2500    85  0.2500
    86  0.2500    87  0.2500    88  0.2500    89  0.2500    90  0.2500
    91  0.2500    92  0.2500    93  0.2500    94  0.2500    95  0.2500
    96  0.2500    97  0.2500    98  0.2500    99  0.2500   100  0.2500
 TRANSFORMING HESSIAN TO SYMMETRY COORDINATES

          PARAMETERS CONTROLLING GEOMETRY SEARCH ARE
          METHOD =QA                  UPHESS =BFGS    
          NNEG   =         0          NFRZ   =         3
          NSTEP  =        50          IFOLOW =         1
          HESS   =GUESS               RESTAR =         F
          IHREP  =         0          HSSEND =         F
          NPRT   =         0          NPUN   =         0
          OPTTOL = 5.000E-04          RMIN   = 1.500E-03
          RMAX   = 1.000E-01          RLIM   = 7.000E-02
          DXMAX  = 3.000E-01          PURIFY =         F
          MOVIE  =         F          TRUPD  =         T
          TRMAX  = 5.000E-01          TRMIN  = 5.000E-02
          ITBMAT =         5          STPT   =         F
          STSTEP = 1.000E-02          PROJCT=          F
          FROZEN COORD(S)=   1   2   3


      ***** EQUILIBRIUM GEOMETRY LOCATED *****
            (SUBJECT TO   3 CONSTRAINT(S))
 COORDINATES OF ALL ATOMS ARE (ANGS)
   ATOM   CHARGE       X              Y              Z
 ------------------------------------------------------------
 C           6.0   2.1096874834   2.5863984304   1.4754057038
 C           6.0   2.0843226000   2.0293454835   2.9085538842
 C           6.0   3.5075051481   2.0001187630   3.4903756721
 C           6.0   1.4158857540   0.6506026610   2.9712614157
 C           6.0   0.7350441858   2.8528899643   0.8565301110
 C           6.0   3.5950443035   1.6484852154   4.9777734775
 H           1.0   2.6718246659   3.5179503237   1.4776193646
 H           1.0   2.6635758066   1.8978211503   0.8373299674
 H           1.0   1.4945084653   2.7163981995   3.5176577966
 H           1.0   4.1097271009   1.2943338985   2.9182956481
 H           1.0   3.9610286555   2.9777790830   3.3411012866
 H           1.0   1.9724056179  -0.0720163717   2.3768090972
 H           1.0   0.3998443715   0.6822863473   2.5926731343
 H           1.0   1.3656924578   0.2776658592   3.9886518268
 H           1.0   0.1369289772   3.4979843602   1.4961250572
 H           1.0   0.8410554019   3.3473661487  -0.1053288868
 H           1.0   0.1765479738   1.9374688029   0.6892401365
 H           1.0   2.9614129709   2.3029697228   5.5720241035
 H           1.0   3.2953926448   0.6241638791   5.1748758159
 H           1.0   4.6149522608   1.7615616710   5.3354013838


                     --------------------
                     INTERNAL COORDINATES
                     --------------------

                 - - ATOMS - -         COORDINATE      COORDINATE
 NO.   TYPE    I  J  K  L  M  N        (BOHR,RAD)       (ANG,DEG)
 ----------------------------------------------------------------
   1 STRETCH   1  7                     2.0560636       1.0880221
   2 STRETCH   1  5                     2.8929902       1.5309046
   3 STRETCH   1  2                     2.9060429       1.5378118
   4 STRETCH   1  8                     2.0597767       1.0899870
   5 STRETCH   2  4                     2.8979253       1.5335162
   6 STRETCH   2  9                     2.0622528       1.0912973
   7 STRETCH   2  3                     2.9060148       1.5377969
   8 STRETCH   3 11                     2.0560584       1.0880194
   9 STRETCH   3 10                     2.0597832       1.0899904
  10 STRETCH   3  6                     2.8929856       1.5309022
  11 STRETCH   4 14                     2.0498819       1.0847509
  12 STRETCH   4 13                     2.0498720       1.0847456
  13 STRETCH   4 12                     2.0573434       1.0886993
  14 STRETCH   5 16                     2.0535660       1.0867004
  15 STRETCH   5 15                     2.0553498       1.0876444
  16 STRETCH   5 17                     2.0509403       1.0853109
  17 STRETCH   6 20                     2.0535473       1.0866905
  18 STRETCH   6 19                     2.0509184       1.0852993
  19 STRETCH   6 18                     2.0553517       1.0876454
  20 BEND      1  2  9                  1.8765567     107.5187796
  21 BEND      1  2  3                  1.9222010     110.1340037
  22 BEND      1  5 17                  1.9579523     112.1824009
  23 BEND      1  5 16                  1.9277547     110.4522090
  24 BEND      1  2  4                  1.9508558     111.7758011
  25 BEND      1  5 15                  1.9383233     111.0577434
  26 BEND      2  4 14                  1.9472470     111.5690373
  27 BEND      2  3 11                  1.8931294     108.4683223
  28 BEND      2  1  7                  1.8931177     108.4676534
  29 BEND      2  3  6                  2.0096267     115.1431264
  30 BEND      2  3 10                  1.9018656     108.9688699
  31 BEND      2  4 12                  1.9300896     110.5859878
  32 BEND      2  1  5                  2.0097438     115.1498385
  33 BEND      2  4 13                  1.9473799     111.5766467
  34 BEND      2  1  8                  1.9019147     108.9716864
  35 BEND      3  2  4                  1.9507090     111.7673928
  36 BEND      3  6 18                  1.9383256     111.0578785
  37 BEND      3  6 20                  1.9278474     110.4575181
  38 BEND      3  2  9                  1.8765170     107.5165042
  39 BEND      3  6 19                  1.9578346     112.1756612
  40 BEND      4  2  9                  1.8834941     107.9162642
  41 BEND      5  1  8                  1.9066870     109.2451189
  42 BEND      5  1  7                  1.8919964     108.4034095
  43 BEND      6  3 10                  1.9066900     109.2452892
  44 BEND      6  3 11                  1.8921560     108.4125544
  45 BEND      7  1  8                  1.8540954     106.2318411
  46 BEND     10  3 11                  1.8540973     106.2319519
  47 BEND     12  4 13                  1.8834891     107.9159762
  48 BEND     12  4 14                  1.8834365     107.9129625
  49 BEND     13  4 14                  1.8692464     107.0999302
  50 BEND     15  5 16                  1.8799624     107.7139088
  51 BEND     15  5 17                  1.8838087     107.9342857
  52 BEND     16  5 17                  1.8729383     107.3114586
  53 BEND     18  6 19                  1.8837404     107.9303742
  54 BEND     18  6 20                  1.8800493     107.7188928
  55 BEND     19  6 20                  1.8729471     107.3119645
  56 TORSION   1  2  3 11               0.8772782      50.2643383
  57 TORSION   1  2  4 12               1.0831933      62.0624062
  58 TORSION   1  2  4 13              -1.0133953     -58.0632749
  59 TORSION   1  2  4 14              -3.1035579    -177.8207707
  60 TORSION   1  2  3  6               3.0003397     171.9068039
  61 TORSION   1  2  3 10              -1.1340524     -64.9764162
  62 TORSION   2  1  5 16               3.0294556     173.5750182
  63 TORSION   2  1  5 15               0.9447793      54.1318682
  64 TORSION   2  1  5 17              -1.1650669     -66.7534185
  65 TORSION   2  3  6 18              -0.9425087     -54.0017681
  66 TORSION   2  3  6 19               1.1671703      66.8739295
  67 TORSION   2  3  6 20              -3.0273557    -173.4547060
  68 TORSION   3  2  4 13               3.1062446     177.9747055
  69 TORSION   3  2  4 14               1.0160820      58.2172096
  70 TORSION   3  2  1  8               1.1375980      65.1795629
  71 TORSION   3  2  4 12              -1.0803521     -61.8996135
  72 TORSION   3  2  1  5              -2.9966755    -171.6968608
  73 TORSION   3  2  1  7              -0.8737502     -50.0621975
  74 TORSION   4  2  3 11               3.0568385     175.1439445
  75 TORSION   4  2  3 10               1.0455079      59.9031900
  76 TORSION   4  2  1  8              -1.0418782     -59.6952253
  77 TORSION   4  2  3  6              -1.1032853     -63.2135899
  78 TORSION   4  2  1  5               1.1070336      63.4283510
  79 TORSION   4  2  1  7              -3.0532264    -174.9369857
  80 TORSION   5  1  2  9              -0.9569968     -54.8318760
  81 TORSION   6  3  2  9               0.9606362      55.0404013
  82 TORSION   7  1  5 16               0.9059239      51.9056155
  83 TORSION   7  1  5 15              -1.1787523     -67.5375345
  84 TORSION   7  1  5 17               2.9945867     171.5771788
  85 TORSION   7  1  2  9               1.1659286      66.8027873
  86 TORSION   8  1  5 16              -1.1073589     -63.4469935
  87 TORSION   8  1  2  9              -3.1059086    -177.9554523
  88 TORSION   8  1  5 15               3.0911501     177.1098565
  89 TORSION   8  1  5 17               0.9813039      56.2245698
  90 TORSION   9  2  3 11              -1.1624253     -66.6020642
  91 TORSION   9  2  4 13               1.0464914      59.9595393
  92 TORSION   9  2  4 14              -1.0436712     -59.7979566
  93 TORSION   9  2  4 12              -3.1401053    -179.9147796
  94 TORSION   9  2  3 10               3.1094294     178.1571812
  95 TORSION  10  3  6 19              -0.9790536     -56.0956402
  96 TORSION  10  3  6 20               1.1096057      63.5757242
  97 TORSION  10  3  6 18              -3.0887325    -176.9713378
  98 TORSION  11  3  6 19              -2.9924272    -171.4534467
  99 TORSION  11  3  6 20              -0.9037678     -51.7820822
 100 TORSION  11  3  6 18               1.1810792      67.6708557

          INTERNUCLEAR DISTANCES (ANGS.)


 =====================================================
   GAMESS/COSab RESULTS
 =====================================================

   Dielectric Constant                  = INFTY
   Basic Grid Size                      =                 1082
   Number of Segments                   =                   92
   Number of Segments located on spheres=                  239
   Number of Segments of the cavity     =                  632
   Solvent Radius (rsolv)               = 1.40
   Outlying Charge Error Method         = double cavity

 =====================================================

  Total solvated Energy (a.u.)          =  -235.4258742794
  Total Energy corrected (a.u.)         =  -235.4257854500

  Outlying charge effect (a.u.)         =     0.0000888294
  Outlying charge effect (kcal/mol)     =     0.0557413594

  Dielectric Energy (a.u.)              =    -0.0012003175
  Dielectric energy corr. (a.u.)        =    -0.0011114881

  Sum of polarization charges           =     0.0287040247
  Sum of polarization charges(cor.)     =    -0.0287040247

  Total surface area of cavity (A**2)   =  149.75
  Total volume of cavity (A**3)         =  144.60

 =====================================================
 NPS=                   632
NR.  ATOM  (X, Y, Z)(a.u.)                  CHARGE(e)  AREA(A**2) SIGMA(e/A**2)
   1   1   6.361340   5.558038  -0.074763   0.001836   0.371649   0.004941
   2   1   6.693092   6.304500   0.562741   0.001453   0.278737   0.005214
   3   1   3.323481   8.347859   4.155879   0.000368   0.185824   0.001981
   4   1   7.639318   5.041804   1.829391   0.000806   0.185824   0.004335
   5   1   7.261867   5.389687   0.969953   0.002225   0.371649   0.005988
   6   1   5.664363   6.172473  -0.345405   0.001140   0.325193   0.003506
   7   1   5.223634   5.175817  -0.771569   0.000739   0.232280   0.003181
   8   1   5.369087   7.018187  -0.010802   0.000771   0.278737   0.002766
   9   1   7.545888   5.786262   1.888618   0.000603   0.139368   0.004324
  10   1   3.682507   8.177166   4.623945   0.000118   0.046456   0.002530
  11   2   4.231240   7.494096   6.395810   0.000173   0.092912   0.001862
  12   3  10.206896   4.628649   5.726062   0.001343   0.278737   0.004819
  13   3   5.698310   7.201232   7.904456   0.000218   0.092912   0.002345
  14   3   5.740691   7.384160   7.305921   0.000073   0.046456   0.001582
  15   3  10.094020   3.927016   5.095605   0.001493   0.278737   0.005357
  16   3   9.093674   4.812816   3.924083   0.001224   0.232280   0.005269
  17   3   9.721454   4.809036   4.683648   0.001961   0.325193   0.006030
  18   3  10.403222   3.808566   6.414853   0.001487   0.418105   0.003557
  19   3  10.201617   4.965962   6.924156   0.000983   0.325193   0.003021
  20   3   6.075528   7.235648   8.022391   0.000104   0.046456   0.002249
  21   3  10.256744   2.722305   6.601475   0.000425   0.185824   0.002286
  22   3   9.115566   4.162285   3.776114   0.000643   0.139368   0.004615
  23   4   3.977337  -1.949996   7.189952   0.000938   0.185824   0.005049
  24   4   0.960655  -2.115204   5.219483   0.001022   0.371649   0.002749
  25   4   0.356455   2.497980   8.316095   0.001272   0.371649   0.003423
  26   4   0.028382   1.391134   8.307502   0.000749   0.185824   0.004032
  27   4  -0.142650   2.978532   7.426600   0.000595   0.232280   0.002561
  28   4  -0.512125   2.387913   7.282361   0.000877   0.232280   0.003775
  29   4   2.074628  -0.399205   2.257723   0.001273   0.278737   0.004568
  30   4   1.886550  -2.323749   4.596888   0.001427   0.418105   0.003414
  31   4   4.706420  -1.831086   6.505486   0.001446   0.278737   0.005189
  32   4  -0.275053   0.066982   7.670698   0.001873   0.371649   0.005039
  33   4  -0.670496   0.409509   7.169035   0.001123   0.232280   0.004835
  34   4   3.341270  -2.318728   6.733596   0.002135   0.418105   0.005107
  35   4   2.004639  -2.470278   5.996923   0.001381   0.418105   0.003302
  36   4   0.691699  -1.607050   4.097484   0.001750   0.418105   0.004185
  37   4   1.068166  -0.777324   2.844837   0.002004   0.371649   0.005391
  38   4   0.400446  -1.284004   7.285298   0.001368   0.371649   0.003680
  39   4   0.768743  -1.942280   6.381760   0.001382   0.464561   0.002974
  40   4   0.070381  -1.495930   5.351841   0.001033   0.325193   0.003176
  41   4   0.988482   2.362178   8.801532   0.000347   0.139368   0.002486
  42   4  -0.482281   1.528368   7.669760   0.001773   0.371649   0.004771
  43   4  -0.411726   3.230402   6.480184   0.000332   0.139368   0.002384
  44   4   1.434625  -1.594237   3.430641   0.001496   0.325193   0.004601
  45   4   2.959110  -2.530463   5.873451   0.001113   0.278737   0.003994
  46   4  -0.292571  -0.934612   6.504175   0.001748   0.418105   0.004181
  47   4   1.904894  -2.188460   7.031932   0.001064   0.325193   0.003271
  48   5  -0.383249   4.503257  -1.599287   0.002251   0.418105   0.005384
  49   5   2.415047   9.028237   1.559996   0.000700   0.232280   0.003012
  50   5  -0.750282   8.072363   0.031501   0.001890   0.418105   0.004521
  51   5  -2.337769   4.766022   1.552375   0.001460   0.371649   0.003927
  52   5   2.200086   2.265958  -0.345918   0.000653   0.278737   0.002344
  53   5   2.957573   4.250436  -1.625248   0.000728   0.232280   0.003133
  54   5   2.393836   3.292367  -1.359572   0.001041   0.325193   0.003201
  55   5   1.135275   3.497786  -1.642508   0.001570   0.325193   0.004826
  56   5  -2.326637   5.510205   2.299713   0.001424   0.325193   0.004379
  57   5  -0.904753   8.320191   0.952454   0.001200   0.278737   0.004305
  58   5   1.477877   9.144606   2.052464   0.001384   0.371649   0.003725
  59   5   0.769510   4.296406  -1.945363   0.001053   0.232280   0.004535
  60   5   0.227878   3.659707  -1.533842   0.000866   0.185824   0.004662
  61   5   2.005079   8.857009   2.994415   0.000599   0.232280   0.002578
  62   5   1.421038   9.100677   0.895462   0.001224   0.278737   0.004390
  63   5   0.214651   8.806065   0.503389   0.001780   0.325193   0.005475
  64   5  -1.708147   7.234342   0.480833   0.001531   0.464561   0.003296
  65   5  -2.301556   5.855590   0.949163   0.001411   0.464561   0.003038
  66   5  -2.075597   4.549154   2.872239   0.002057   0.371649   0.005535
  67   5   2.460803   8.881499   0.642233   0.000889   0.278737   0.003189
  68   5  -1.182077   6.936883  -0.680194   0.001265   0.418105   0.003025
  69   5  -1.071459   5.604102  -1.242320   0.001501   0.418105   0.003591
  70   5  -1.381570   4.571823  -0.817917   0.001651   0.464561   0.003554
  71   5  -2.118339   4.750221   0.364907   0.000944   0.325193   0.002904
  72   5   2.082234   4.025134  -1.836477   0.000832   0.232280   0.003581
  73   5   1.710128   2.726768  -1.042596   0.000820   0.232280   0.003532
  74   5  -2.135593   6.732166   1.367483   0.000814   0.278737   0.002920
  75   5   0.580087   9.068730   1.293698   0.001374   0.278737   0.004931
  76   5  -1.650421   4.835213   3.795047   0.001034   0.232280   0.004450
  77   5  -1.857091   5.933554  -0.239560   0.001184   0.464561   0.002549
  78   6   8.629599   0.574839  11.518538   0.002263   0.418105   0.005414
  79   6   7.804569   6.687523  10.114251   0.000853   0.278737   0.003061
  80   6   5.068167   1.700067  12.456925   0.001427   0.325193   0.004387
  81   6   7.985874   4.077452  12.861604   0.001584   0.371649   0.004263
  82   6  10.035082   1.519869   8.296489   0.000703   0.278737   0.002523
  83   6   8.239403  -0.190070   8.279966   0.000748   0.232280   0.003221
  84   6   9.214606   0.343659   8.545284   0.001009   0.325193   0.003102
  85   6   9.314312   0.333814   9.847660   0.001579   0.325193   0.004857
  86   6   7.243277   4.774373  12.772507   0.001410   0.325193   0.004336
  87   6   4.550629   2.560246  12.397457   0.001244   0.278737   0.004464
  88   6   7.116214   6.651550  10.700588   0.000596   0.185824   0.003210
  89   6   8.677377   0.005571  10.439158   0.001042   0.232280   0.004484
  90   6   9.310344   0.624817  10.728965   0.000875   0.185824   0.004709
  91   6   4.220738   1.719812  11.797698   0.001415   0.278737   0.005076
  92   6   5.841980   2.461499  13.005404   0.001510   0.464561   0.003251
  93   6   7.186549   3.261375  13.162750   0.001429   0.464561   0.003076
  94   6   8.137855   5.292211  12.188338   0.001987   0.371649   0.005347
  95   6   8.156369   6.347386  10.813805   0.000925   0.232280   0.003981
  96   6   8.864769   6.227083   9.964173   0.001033   0.278737   0.003706
  97   6   6.259680   1.269705  12.661356   0.001263   0.418105   0.003021
  98   6   7.631791   0.908914  12.358592   0.001499   0.418105   0.003585
  99   6   8.598077   1.547334  12.334102   0.001648   0.464561   0.003547
 100   6   8.330686   2.827470  12.847406   0.000978   0.325193   0.003007
 101   6   8.665438  -0.154221   9.103863   0.000823   0.232280   0.003544
 102   6   9.825317   0.894318   9.005325   0.000850   0.232280   0.003658
 103   6   6.228764   3.489693  13.124803   0.000825   0.278737   0.002958
 104   6   3.659780   2.432376  11.405826   0.000869   0.185824   0.004674
 105   6   6.782896   6.864810   9.880413   0.000704   0.232280   0.003030
 106   6   7.543466   6.061216  11.652274   0.001562   0.325193   0.004803
 107   6   7.264620   2.004330  12.988300   0.001183   0.464561   0.002547
 108   6   8.600223   5.917912  11.185754   0.001000   0.232280   0.004305
 109   7   6.263250   8.684464   2.149359  -0.001713   0.431809  -0.003968
 110   7   4.580183   8.994712   3.347282  -0.000669   0.372926  -0.001794
 111   7   5.325629   8.546767   1.258315  -0.000991   0.392554  -0.002524
 112   7   7.263857   7.244956   1.912984  -0.000370   0.333671  -0.001110
 113   7   5.139146   8.740017   4.076910  -0.001033   0.353299  -0.002922
 114   7   5.085709   9.067026   2.365872  -0.001315   0.431809  -0.003045
 115   7   6.421160   7.897708   1.182808  -0.000670   0.431809  -0.001552
 116   7   7.068067   8.026445   2.550828  -0.001448   0.353299  -0.004099
 117   7   6.162279   8.770590   3.330958  -0.001854   0.392554  -0.004722
 118   8   6.288217   2.386553  -0.155781  -0.001648   0.412182  -0.003998
 119   8   4.605010   1.870022  -0.122292  -0.001004   0.392554  -0.002556
 120   8   7.255020   3.669167   0.536997  -0.000411   0.372926  -0.001101
 121   8   5.615065   3.670810  -0.802966  -0.000481   0.333671  -0.001441
 122   8   5.437878   1.518866   0.318616  -0.001413   0.353299  -0.004000
 123   8   6.448198   1.709774   0.866847  -0.001705   0.353299  -0.004827
 124   8   7.112877   2.642804   0.676435  -0.001302   0.353299  -0.003686
 125   8   6.575243   3.685461  -0.327654  -0.000635   0.392554  -0.001617
 126   8   5.322691   2.696817  -0.689259  -0.000975   0.392554  -0.002483
 127   9   1.517567   6.879167   7.778597  -0.001111   0.314043  -0.003539
 128   9   1.347558   5.158896   8.610555  -0.000626   0.255160  -0.002454
 129   9   0.476681   5.333614   7.343153  -0.000510   0.215905  -0.002363
 130   9   3.127806   7.522548   7.131376  -0.000383   0.294415  -0.001301
 131   9   1.764325   6.276992   8.545729  -0.001363   0.333671  -0.004084
 132   9   0.860055   5.454424   8.087564  -0.000522   0.255160  -0.002044
 133   9   0.838811   6.294776   7.510057  -0.001139   0.294415  -0.003869
 134   9   2.059847   7.430872   7.061919  -0.001169   0.333671  -0.003503
 135   9   2.658169   7.161086   8.024160  -0.001211   0.372926  -0.003248
 136  10   9.267745   0.978397   4.239230  -0.001391   0.353299  -0.003939
 137  10   8.366639   0.066675   5.632160  -0.000698   0.314043  -0.002223
 138  10   9.858198   1.208617   5.872501  -0.000697   0.314043  -0.002219
 139  10   9.877998   2.556295   4.264364  -0.000402   0.372926  -0.001078
 140  10   8.480791   0.285727   4.588455  -0.001359   0.333671  -0.004072
 141  10   9.257564   0.493792   5.531331  -0.000890   0.333671  -0.002666
 142  10   9.884707   1.447067   4.773434  -0.001097   0.314043  -0.003495
 143  10   9.249921   2.283023   3.563531  -0.001189   0.431809  -0.002754
 144  10   8.453712   1.043870   3.618263  -0.001808   0.372926  -0.004848
 145  10  10.198982   2.143964   5.354102  -0.000197   0.294415  -0.000670
 146  11   8.665377   7.773185   6.121252  -0.001919   0.431809  -0.004445
 147  11   8.205109   7.581945   7.615998  -0.000663   0.274788  -0.002412
 148  11   6.704499   7.893576   6.851321  -0.000608   0.274788  -0.002213
 149  11   9.280004   6.407342   4.828742  -0.000331   0.314043  -0.001055
 150  11   9.714851   6.515665   6.837781  -0.000608   0.314043  -0.001936
 151  11   7.552197   7.892296   7.262381  -0.000906   0.353299  -0.002565
 152  11   7.620650   8.072832   6.125245  -0.001538   0.333671  -0.004609
 153  11   8.808707   7.312099   5.111852  -0.001469   0.353299  -0.004157
 154  11   9.670437   6.635658   5.820782  -0.000863   0.431809  -0.001999
 155  11   9.108283   7.283646   7.124321  -0.001209   0.412182  -0.002934
 156  12   4.647988  -2.072100   3.291826  -0.002232   0.471065  -0.004739
 157  12   5.419347  -1.824757   5.057612  -0.000709   0.353299  -0.002008
 158  12   3.228317  -1.361633   2.421706  -0.000626   0.372926  -0.001678
 159  12   3.501352  -2.553444   4.116811  -0.000690   0.372926  -0.001850
 160  12   5.602934  -1.644011   3.998319  -0.001685   0.372926  -0.004519
 161  12   5.397460  -1.079824   2.956917  -0.002181   0.412182  -0.005291
 162  12   4.255087  -1.125815   2.305895  -0.001835   0.431809  -0.004250
 163  12   3.320414  -2.161654   3.162386  -0.001035   0.412182  -0.002512
 164  12   4.501309  -2.460671   4.671242  -0.001165   0.490692  -0.002374
 165  13  -1.668705   1.147854   4.528221  -0.002367   0.412182  -0.005743
 166  13  -1.314431   1.928482   6.057679  -0.000396   0.274788  -0.001439
 167  13  -1.290605   0.040090   5.435627  -0.000594   0.294415  -0.002019
 168  13  -0.510001  -0.205753   3.416851  -0.000619   0.274788  -0.002252
 169  13  -1.503047   2.173788   5.288440  -0.001484   0.314043  -0.004727
 170  13  -1.542202   0.933800   5.692383  -0.001072   0.392554  -0.002730
 171  13  -1.029606  -0.348123   4.490962  -0.000914   0.372926  -0.002451
 172  13  -1.243437   0.353651   3.820813  -0.001547   0.294415  -0.005255
 173  14   2.038300  -0.611177   9.647106  -0.001842   0.333671  -0.005520
 174  14   0.756632   0.214209   9.153377  -0.000676   0.353299  -0.001914
 175  14   1.264678   1.190818   9.501965  -0.000865   0.314043  -0.002755
 176  14   2.956350  -1.725908   8.447847  -0.000618   0.314043  -0.001969
 177  14   1.563434  -1.496108   8.494765  -0.000581   0.333671  -0.001740
 178  14   1.733153   0.367436   9.837876  -0.001888   0.353299  -0.005343
 179  14   2.458128  -1.349614   9.120812  -0.001578   0.333671  -0.004730
 180  14   1.034150  -0.740182   8.966834  -0.000985   0.353299  -0.002787
 181  15  -1.186978   8.163918   4.064625  -0.002564   0.510320  -0.005025
 182  15  -1.399613   6.161432   4.583258  -0.000788   0.333671  -0.002362
 183  15  -2.156355   6.900313   3.171090  -0.000685   0.353299  -0.001939
 184  15  -1.063334   8.639846   2.417529  -0.000679   0.372926  -0.001821
 185  15   0.617314   8.922818   3.574610  -0.000608   0.353299  -0.001722
 186  15  -0.930338   7.287070   4.867629  -0.002068   0.412182  -0.005017
 187  15  -1.860486   6.809413   4.053751  -0.001243   0.392554  -0.003166
 188  15  -1.836734   7.892373   2.840362  -0.001451   0.471065  -0.003079
 189  15  -0.436774   8.941738   3.167068  -0.001397   0.451437  -0.003094
 190  15   0.160273   8.458460   4.442661  -0.002256   0.490692  -0.004597
 191  16   1.797767   7.507386  -2.342662  -0.003221   0.588831  -0.005471
 192  16   1.242652   5.554327  -2.505568  -0.000625   0.372926  -0.001676
 193  16   3.078467   5.991208  -2.124119  -0.000830   0.353299  -0.002350
 194  16   3.055060   8.080358  -1.097774  -0.001042   0.353299  -0.002951
 195  16   1.060298   8.585175  -1.004975  -0.000690   0.372926  -0.001850
 196  16  -0.026333   7.091394  -1.883734  -0.000871   0.412182  -0.002113
 197  16   2.200902   6.075065  -2.565138  -0.001806   0.490692  -0.003680
 198  16   3.149474   7.199876  -1.883343  -0.001851   0.490692  -0.003772
 199  16   2.134709   8.472528  -1.261324  -0.001562   0.471065  -0.003317
 200  16   0.565138   7.978988  -1.699838  -0.001624   0.471065  -0.003448
 201  16   0.664496   6.446382  -2.471740  -0.001699   0.490692  -0.003462
 202  17  -0.882626   1.667057   0.541614  -0.002675   0.451437  -0.005925
 203  17   0.441612   2.038706  -0.538900  -0.000465   0.314043  -0.001479
 204  17  -1.361354   2.994382  -0.345973  -0.000681   0.333671  -0.002042
 205  17  -1.999415   3.011262   1.714213  -0.000812   0.314043  -0.002587
 206  17   0.394779   1.441208   0.252415  -0.001836   0.412182  -0.004455
 207  17  -0.593448   2.301985  -0.521787  -0.001252   0.431809  -0.002900
 208  17  -1.886351   2.927523   0.548542  -0.001260   0.431809  -0.002918
 209  17  -1.618593   2.170496   1.263380  -0.001488   0.294415  -0.005055
 210  18   4.627003   6.082442  11.979143  -0.002388   0.490692  -0.004866
 211  18   5.751213   6.701548  11.230076  -0.000718   0.372926  -0.001926
 212  18   5.557045   5.269551  12.808115  -0.001074   0.431809  -0.002488
 213  18   3.947530   3.928101  12.300785  -0.000524   0.333671  -0.001570
 214  18   3.294809   4.364124  11.388830  -0.001356   0.451437  -0.003003
 215  18   4.824200   6.677699  10.703125  -0.001798   0.451437  -0.003984
 216  18   5.967637   6.127041  12.186816  -0.000870   0.412182  -0.002111
 217  18   4.795282   4.528316  12.845292  -0.001086   0.412182  -0.002635
 218  18   3.917734   5.112359  12.154249  -0.001740   0.392554  -0.004433
 219  18   3.692095   5.779265  11.139639  -0.002027   0.372926  -0.005435
 220  19   5.829378  -1.128185  10.521596  -0.002300   0.412182  -0.005580
 221  19   7.556776  -0.798696  10.374597  -0.000441   0.294415  -0.001498
 222  19   7.132570  -0.972749   9.015141  -0.000757   0.294415  -0.002571
 223  19   4.763818   0.219628  11.502954  -0.000705   0.314043  -0.002243
 224  19   6.029860  -0.179407  11.816118  -0.000906   0.412182  -0.002198
 225  19   6.984802  -1.145754  10.012910  -0.000844   0.255160  -0.003309
 226  19   6.182278  -1.260823   9.499930  -0.001756   0.314043  -0.005592
 227  19   5.130823  -0.588273  11.085859  -0.001663   0.353299  -0.004708
 228  19   6.876120  -0.658875  11.273973  -0.001165   0.431809  -0.002698
 229  20  11.013257   3.522299  10.944533  -0.003363   0.608459  -0.005528
 230  20  11.019588   3.675466   9.287852  -0.001157   0.353299  -0.003274
 231  20  10.669614   1.833630  10.035545  -0.000611   0.333671  -0.001832
 232  20  10.020735   2.275633  11.881466  -0.000724   0.353299  -0.002048
 233  20   9.712972   4.436489  12.038023  -0.000695   0.372926  -0.001864
 234  20  10.170226   5.307160  10.227957  -0.000723   0.353299  -0.002045
 235  20  11.028482   2.700049   9.521082  -0.001630   0.490692  -0.003321
 236  20  10.614124   2.084037  11.031937  -0.001602   0.490692  -0.003264
 237  20  10.088079   3.355300  12.123400  -0.001730   0.510320  -0.003390
 238  20  10.276863   4.833513  11.244520  -0.001684   0.490692  -0.003432
 239  20  10.836035   4.552119   9.826868  -0.001845   0.490692  -0.003759
 240   1   4.307060   7.925478   5.028060   0.000031   0.029256   0.001049
 241   2   4.297686   7.705191   5.478482   0.000038   0.029256   0.001303
 242   7   4.521429   8.048435   4.851378  -0.000018   0.029256  -0.000599
 243   1   3.599321   7.728928   5.410691   0.000060   0.030552   0.001965
 244   2   3.589755   7.586581   5.891502   0.000037   0.030552   0.001201
 245   9   3.365979   7.557986   6.097374  -0.000004   0.030552  -0.000123
 246   2   3.994734   7.653265   5.808010   0.000160   0.084153   0.001898
 247   1   3.906229   7.913913   5.136507   0.000188   0.084153   0.002234
 248   1   7.649176   5.985225   2.729980   0.000181   0.070281   0.002572
 249   3   8.046299   5.765845   3.427255   0.000291   0.070281   0.004136
 250   7   7.587999   6.282279   2.768402   0.000014   0.070281   0.000201
 251   1   7.885351   3.948990   2.611452   0.000300   0.064871   0.004625
 252   3   8.413832   3.753734   3.222943   0.000185   0.064871   0.002853
 253  10   8.487144   3.457901   3.251408   0.000054   0.064871   0.000829
 254   3   8.456005   4.581169   3.322520   0.001560   0.489592   0.003187
 255   1   7.795259   5.195063   2.474146   0.001497   0.489592   0.003058
 256   1   3.290256   8.543839   3.491908   0.000030   0.029247   0.001041
 257   5   2.842699   8.591412   3.275925   0.000064   0.029247   0.002195
 258   7   3.574182   8.624711   3.420235   0.000004   0.029247   0.000134
 259   1   4.469168   4.341137  -0.928609   0.000040   0.028409   0.001410
 260   5   4.006226   4.433394  -1.090975   0.000066   0.028409   0.002325
 261   8   4.644075   4.096064  -0.881882   0.000018   0.028409   0.000620
 262   1   2.451311   8.211791   4.097781   0.000028   0.025892   0.001084
 263   5   2.002916   8.336620   3.917566   0.000014   0.025892   0.000554
 264  15   1.710434   8.346993   3.997860  -0.000030   0.025892  -0.001148
 265   1   4.193182   5.145558  -1.086001   0.000052   0.026640   0.001951
 266   5   3.763965   5.229674  -1.326497   0.000027   0.026640   0.001029
 267  16   3.618530   5.454182  -1.468941  -0.000006   0.026640  -0.000208
 268   5   2.291190   8.498471   3.646016   0.000210   0.135138   0.001556
 269   1   3.004827   8.435007   3.803517   0.000201   0.135138   0.001485
 270   5   3.820192   4.901740  -1.299075   0.000209   0.092464   0.002263
 271   1   4.440719   4.668631  -1.007808   0.000208   0.092464   0.002246
 272   1   4.526659   7.714718   0.309700   0.000086   0.036623   0.002361
 273   7   4.688587   7.856638   0.523618  -0.000054   0.036623  -0.001462
 274  16   3.902444   7.752637  -0.113406   0.000066   0.036623   0.001808
 275   7   7.419485   6.595287   2.158371  -0.000002   0.072459  -0.000029
 276   7   6.832756   6.951572   1.221896  -0.000099   0.162365  -0.000611
 277   7   5.716995   7.626087   0.709720  -0.000309   0.162365  -0.001906
 278   1   7.234116   6.315578   1.646987   0.000269   0.157471   0.001707
 279   1   6.219723   6.930164   0.613610   0.000052   0.157471   0.000331
 280   1   5.137888   7.583491   0.402163   0.000035   0.088524   0.000396
 281   7   4.002377   8.653520   3.751395  -0.000055   0.068506  -0.000797
 282   7   4.451026   8.381175   4.428135  -0.000071   0.068506  -0.001031
 283   1   3.889080   8.327946   4.237372  -0.000134   0.150607  -0.000887
 284   1   7.651967   3.910986   2.151468   0.000264   0.089378   0.002954
 285   8   7.588549   3.674649   1.964794  -0.000034   0.089378  -0.000384
 286  10   8.121229   3.410524   2.886864   0.000290   0.089378   0.003250
 287   8   5.213505   4.089252  -0.809118  -0.000052   0.078056  -0.000665
 288   8   6.272761   4.438215  -0.266206  -0.000179   0.177867  -0.001004
 289   8   7.224467   4.170065   0.849309  -0.000183   0.177867  -0.001026
 290   1   5.459405   4.640724  -0.613817  -0.000120   0.167068  -0.000720
 291   1   6.803686   4.813227   0.366942   0.000195   0.167068   0.001165
 292   1   7.479896   4.343967   1.460341   0.000281   0.095363   0.002949
 293   1   2.493110   7.780256   4.855558   0.000154   0.167123   0.000921
 294   9   2.325575   7.543915   5.546767   0.000007   0.167123   0.000042
 295  15   1.752337   7.871869   4.692587   0.000001   0.167123   0.000009
 296   9   2.985408   7.586793   6.158448  -0.000117   0.147802  -0.000795
 297   1   3.143744   7.902671   5.097879   0.000431   0.208451   0.002066
 298  15   1.494840   8.293177   4.252732  -0.000089   0.080424  -0.001110
 299   1   2.612709   8.177110   4.394599   0.000249   0.113364   0.002196
 300  16   3.681673   7.580123  -0.734817  -0.000268   0.186839  -0.001436
 301  16   3.716164   6.372553  -1.343825  -0.000900   0.381070  -0.002362
 302   1   4.635364   6.896047  -0.381805   0.000811   0.513324   0.001579
 303   1   4.567279   5.490329  -1.003879   0.000619   0.263197   0.002352
 304   2   4.421394   7.237804   7.090240   0.000023   0.030554   0.000763
 305   3   4.887783   7.188549   7.267952   0.000045   0.030554   0.001463
 306   9   4.145394   7.231112   7.220837  -0.000007   0.030554  -0.000218
 307   2   5.085906   7.370436   6.633201   0.000030   0.029254   0.001034
 308   3   5.545334   7.401899   6.831756   0.000016   0.029254   0.000530
 309  11   5.816061   7.501835   6.736840  -0.000022   0.029254  -0.000745
 310   3   5.330869   7.355456   7.058339   0.000161   0.081975   0.001966
 311   2   4.629539   7.343392   6.873538   0.000153   0.081975   0.001864
 312   2   5.009762   7.539062   5.829168   0.000119   0.162522   0.000734
 313   7   5.207761   7.843218   5.168729  -0.000051   0.162522  -0.000312
 314  11   5.749322   7.616306   5.951535  -0.000079   0.162522  -0.000487
 315   7   4.755363   8.153287   4.800141  -0.000032   0.068703  -0.000470
 316   2   4.509097   7.690190   5.786540   0.000211   0.096918   0.002177
[...]
 373   5  -0.639571   4.167335   4.931947   0.000282   0.090094   0.003129
 374  13  -0.669283   3.320498   5.485984  -0.000141   0.090094  -0.001566
 375   4  -0.384297   4.040585   5.363536   0.000137   0.059942   0.002289
 376   5  -0.733792   4.798543   4.742717   0.000203   0.059942   0.003392
 377  15  -0.764575   5.100672   4.748010   0.000019   0.059942   0.000316
 378   4   2.211621   1.001996   1.562401   0.000277   0.092776   0.002988
 379   5   2.000424   1.668236   0.788376  -0.000034   0.092776  -0.000363
 380  17   1.716457   1.558338   0.818346  -0.000133   0.092776  -0.001438
 381   5   2.268132   1.606949   0.664622   0.000177   0.055359   0.003195
 382   4   2.561044   0.550024   1.674242   0.000244   0.055359   0.004405
 383   4   6.287205  -0.374108   6.438952   0.000496   0.214601   0.002310
 384   6   7.037077  -0.077329   7.108669   0.000348   0.214601   0.001623
 385  10   7.209247   0.025157   6.376496   0.000077   0.214601   0.000359
 386   4   6.035425  -0.599230   7.047819   0.000287   0.092686   0.003096
 387   6   6.811668  -0.348408   7.696160  -0.000042   0.092686  -0.000452
 388  19   6.648245  -0.509834   7.898250  -0.000125   0.092686  -0.001344
 389   6   6.991099  -0.393786   7.496198   0.000179   0.053316   0.003355
 390   4   5.968286  -0.855368   6.516801   0.000260   0.053316   0.004881
 391   4   3.231175   0.418059   1.897543   0.000121   0.088472   0.001373
 392   8   3.761369   1.080956   1.369937   0.000218   0.088472   0.002465
 393  12   3.448892   0.206758   1.945169  -0.000064   0.088472  -0.000718
 394   8   3.830979   1.392684   0.840485   0.000033   0.029454   0.001106
 395   4   3.046845   0.481986   1.696053   0.000164   0.041844   0.003925
 396   4   0.045287   4.219258   6.053153   0.000416   0.248936   0.001673
 397   9   0.261760   4.919524   6.234604   0.000071   0.248936   0.000285
 398  15  -0.220178   5.251344   5.324524   0.000465   0.248936   0.001868
 399   4   2.039863   3.379393   8.934012   0.000424   0.248905   0.001702
 400   9   2.143616   4.127125   8.951719   0.000007   0.248905   0.000029
 401  18   2.848360   3.956444   9.755063   0.000467   0.248905   0.001877
 402   9   0.394956   4.738262   7.058274  -0.000082   0.181838  -0.000452
 403   9   1.082348   4.420453   8.160930  -0.000567   0.370877  -0.001530
 404   4   0.257675   3.580799   7.380864   0.001012   0.499865   0.002025
 405   4   1.147302   3.233698   8.565169   0.000684   0.256352   0.002670
 406   4   5.976727  -0.727529   5.859274   0.000132   0.088562   0.001491
 407  10   6.819503  -0.195042   5.779993   0.000193   0.088562   0.002175
 408  12   5.964510  -0.842923   5.574922   0.000031   0.088562   0.000351
 409  10   7.395615  -0.092840   5.991716   0.000004   0.024304   0.000159
 410   4   6.101461  -0.797937   6.073312   0.000152   0.034530   0.004408
 411  12   5.491470  -1.448935   5.583888  -0.000014   0.071097  -0.000201
 412  12   4.572327  -2.121345   5.540773  -0.000099   0.158563  -0.000621
 413  12   3.412868  -2.480643   4.892062  -0.000227   0.158563  -0.001430
 414  12   2.650313  -2.162445   3.791368  -0.000231   0.158563  -0.001460
 415  12   2.615092  -1.304633   2.715644  -0.000148   0.158563  -0.000931
 416  12   3.103984  -0.452689   2.137722  -0.000080   0.071097  -0.001130
 417   4   5.073098  -1.601916   5.995007   0.000123   0.155206   0.000791
 418   4   3.756730  -2.339613   5.659379   0.000173   0.155206   0.001112
 419   4   2.613660  -2.364057   4.618965  -0.000009   0.155206  -0.000058
 420   4   2.139203  -1.664654   3.324595   0.000166   0.155206   0.001069
 421   4   2.538949  -0.544470   2.337144   0.000124   0.155206   0.000799
 422   4   0.498763   0.218778   2.566538   0.000095   0.083438   0.001143
 423  13   0.221933   0.336089   2.617418  -0.000149   0.083438  -0.001782
 424  17   0.159675   0.935981   1.874159  -0.000148   0.083438  -0.001774
 425  13   0.127912  -0.211125   3.060188  -0.000062   0.070500  -0.000876
 426  13  -0.243275  -0.704792   4.015016  -0.000263   0.157362  -0.001670
 427  13  -0.716367  -0.563270   5.296478  -0.000315   0.157362  -0.002000
 428  13  -1.032914   0.396528   6.226304  -0.000163   0.157362  -0.001033
 429  13  -1.055666   1.758451   6.401338  -0.000269   0.157362  -0.001712
 430  13  -0.862894   2.793090   5.970588  -0.000132   0.070500  -0.001877
 431   4   0.343137  -0.659985   3.401563  -0.000009   0.153745  -0.000056
 432   4  -0.190710  -1.014807   4.804533  -0.000011   0.153745  -0.000069
 433   4  -0.660344  -0.359802   6.119687   0.000062   0.153745   0.000400
 434   4  -0.862141   1.021031   6.776797   0.000123   0.153745   0.000799
 435   4  -0.708604   2.528989   6.490952  -0.000071   0.153745  -0.000463
 436   4   2.042672   2.543145   9.227461  -0.000024   0.120293  -0.000200
 437  14   2.114035   2.292000   9.389616  -0.000170   0.120293  -0.001416
 438  18   2.913235   3.122855   9.966299   0.000376   0.120293   0.003123
 439   4   4.264442  -1.371098   8.015603   0.000106   0.083515   0.001265
 440  14   4.142995  -1.317855   8.290211  -0.000149   0.083515  -0.001781
 441  19   4.935157  -1.078538   8.771743  -0.000147   0.083515  -0.001765
 442  14   1.394529   1.850657   9.229546  -0.000151   0.070422  -0.002151
 443  14   0.671754   1.039935   8.896705  -0.000214   0.157146  -0.001359
 444  14   0.482391  -0.232815   8.420814  -0.000188   0.157146  -0.001199
 445  14   1.177097  -1.354251   8.044002  -0.000301   0.157146  -0.001916
 446  14   2.455327  -1.839217   7.929287  -0.000306   0.157146  -0.001946
 447  14   3.571162  -1.662997   8.048930  -0.000059   0.070422  -0.000842
 448   4   0.925756   1.848889   8.849809  -0.000125   0.153611  -0.000812
 449   4   0.223525   0.572610   8.347323   0.000149   0.153611   0.000967
 450   4   0.524037  -0.851142   7.840246   0.000040   0.153611   0.000263
 451   4   1.697285  -1.806422   7.547949  -0.000014   0.153611  -0.000090
 452   4   3.235694  -1.879954   7.596888   0.000053   0.153611   0.000348
 453  15  -0.885421   5.378979   4.923734   0.000194   0.106050   0.001832
 454   4  -0.450838   3.883092   6.011701   0.000483   0.157007   0.003077
 455  17   1.280892   1.300707   0.810759  -0.000222   0.255792  -0.000867
 456  17   0.336224   1.072858   1.195308  -0.000653   0.255792  -0.002553
 457   4   1.453920   0.232141   2.022768   0.002163   0.720800   0.003001
 458  18   2.967710   3.800885  10.475284   0.000189   0.108689   0.001743
 459   4   1.811025   2.877446   9.289316   0.000493   0.160849   0.003064
 460  19   5.643754  -1.165645   8.849499  -0.000648   0.259678  -0.002494
 461  19   6.418032  -0.858091   8.192788  -0.000272   0.259678  -0.001046
 462   4   5.127120  -1.312879   7.314605   0.002376   0.731418   0.003249
 463   5   3.629836   8.125439   0.235460   0.000088   0.030832   0.002855
 464   7   4.246829   8.117205   0.652697   0.000069   0.030832   0.002223
 465  16   3.495757   8.081143  -0.032244  -0.000049   0.030832  -0.001593
 466   7   4.534251   8.470306   1.179496  -0.000247   0.201703  -0.001223
 467   7   4.001285   8.777081   2.512994  -0.001003   0.413653  -0.002426
 468   5   3.314254   8.625536   1.228180   0.000950   0.551897   0.001721
 469   5   2.745884   8.826613   2.785264   0.000678   0.284275   0.002385
 470   8   3.780525   1.941528   0.206311  -0.000160   0.215085  -0.000743
 471   8   4.348036   3.104457  -0.638888  -0.001097   0.442603  -0.002478
 472   5   2.941855   2.624994  -0.420058   0.001031   0.586934   0.001756
 473   5   3.627758   4.026249  -1.228639   0.000765   0.302982   0.002525
 474   5  -1.566036   3.346824   3.051772   0.000122   0.084637   0.001442
 475  13  -1.381156   2.566965   3.670832  -0.000180   0.084637  -0.002126
 476  17  -1.562245   3.088632   2.888673  -0.000169   0.084637  -0.001999
 477  13  -1.052762   3.093150   5.218161  -0.000333   0.261728  -0.001274
 478  13  -1.461806   2.492211   4.387863  -0.000820   0.261728  -0.003134
 479   5  -1.383776   4.014569   3.980972   0.002219   0.732435   0.003029
 480  15   1.305134   8.617382   3.786681  -0.000104   0.066537  -0.001564
 481  15   0.761898   8.963921   2.929155  -0.000252   0.146478  -0.001724
 482  15  -0.236870   8.854514   2.105506  -0.000087   0.146478  -0.000591
 483  15  -1.294104   8.154191   1.823177  -0.000211   0.146478  -0.001439
 484  15  -2.005409   7.130827   2.190161  -0.000219   0.146478  -0.001495
 485  15  -2.098710   6.175862   3.066085  -0.000169   0.146478  -0.001157
 486  15  -1.538318   5.654573   4.115905  -0.000131   0.146478  -0.000892
 487   5   1.485668   8.755867   3.244423  -0.000128   0.147066  -0.000873
 488   5   0.565756   9.000433   2.137499   0.000104   0.147066   0.000710
 489   5  -0.648949   8.522037   1.484077   0.000147   0.147066   0.001001
 490   5  -1.693819   7.503666   1.534092  -0.000009   0.147066  -0.000059
 491   5  -2.169188   6.334852   2.268414  -0.000068   0.147066  -0.000463
 492   5  -1.893226   5.462667   3.406161   0.000080   0.147066   0.000541
 493   5  -1.230777   5.153478   4.337496   0.000067   0.081289   0.000819
 494  16   3.209409   5.430289  -1.815513  -0.000072   0.067806  -0.001068
 495  16   2.237232   5.037054  -2.124818  -0.000201   0.149917  -0.001344
 496  16   0.923073   5.169955  -2.201344  -0.000195   0.149917  -0.001302
 497  16  -0.079640   5.977592  -1.896678  -0.000189   0.149917  -0.001258
 498  16  -0.371332   7.138128  -1.332227  -0.000266   0.149917  -0.001775
 499  16   0.164233   8.189097  -0.732921  -0.000145   0.149917  -0.000968
 500  16   1.313636   8.711694  -0.337580  -0.000208   0.149917  -0.001390
 501  16   2.618849   8.497670  -0.303743  -0.000289   0.149917  -0.001927
 502   5   2.954926   4.900491  -1.737081  -0.000130   0.149241  -0.000874
 503   5   1.524527   4.627035  -2.035317   0.000074   0.149241   0.000497
 504   5   0.152863   5.183864  -1.900250   0.000065   0.149241   0.000437
 505   5  -0.613468   6.349087  -1.385705  -0.000016   0.149241  -0.000110
 506   5  -0.469087   7.658370  -0.696722   0.000010   0.149241   0.000066
 507   5   0.528470   8.589973  -0.107858   0.000090   0.149241   0.000603
 508   5   1.981683   8.772659   0.146230   0.000075   0.149241   0.000503
 509   5   3.118673   8.375877   0.067574   0.000011   0.082841   0.000136
 510  17  -1.876462   3.414051   2.347937  -0.000074   0.067649  -0.001089
 511  17  -2.071460   3.721386   1.317144  -0.000249   0.149628  -0.001664
 512  17  -1.715069   3.736728   0.043350  -0.000285   0.149628  -0.001904
 513  17  -0.784402   3.323201  -0.800840  -0.000191   0.149628  -0.001276
 514  17   0.349146   2.645827  -0.878539  -0.000190   0.149628  -0.001270
 515  17   1.233217   1.974924  -0.158740  -0.000363   0.149628  -0.002429
 516   5  -2.016866   3.939043   2.112571   0.000071   0.148827   0.000478
 517   5  -2.019067   4.207509   0.650812  -0.000084   0.148827  -0.000563
 518   5  -1.257030   3.971752  -0.603197  -0.000095   0.148827  -0.000641
 519   5  -0.034856   3.325855  -1.149026   0.000120   0.148827   0.000805
 520   5   1.159729   2.527572  -0.768853   0.000017   0.148827   0.000115
 521   5   1.824749   1.968803   0.068629   0.000005   0.082648   0.000057
 522  10   9.769557   1.441758   6.585716  -0.000150   0.215171  -0.000698
 523  10   8.600215   0.437326   6.466212  -0.001044   0.442793  -0.002357
 524   6   9.347498   0.960201   7.659515   0.000958   0.587159   0.001632
 525   6   7.917383  -0.045129   7.474995   0.000816   0.303103   0.002691
 526   6   9.579014   5.630009   8.833722   0.000044   0.030979   0.001419
 527  11   9.445312   5.938125   8.168824   0.000048   0.030979   0.001538
 528  20   9.753693   5.456322   9.009570  -0.000037   0.030979  -0.001199
 529  11   7.330412   7.317222   8.132645  -0.000131   0.201064  -0.000653
 530  11   8.693281   6.795379   8.013562  -0.001077   0.412261  -0.002612
 531   6   7.763284   6.764329   9.142693   0.000907   0.550234   0.001648
 532   6   9.255461   6.064241   8.907753   0.000734   0.283377   0.002590
 533   6   3.093486   3.032568  10.325608   0.000130   0.031754   0.004096
 534  14   2.557790   2.414919   9.735136   0.000098   0.031754   0.003073
 535  18   3.159861   3.295316  10.459748   0.000057   0.031754   0.001808
 536   6   3.868100   1.049445  10.868716   0.000123   0.084664   0.001449
 537  14   3.187636   0.636081  10.244101  -0.000179   0.084664  -0.002119
 538  19   3.948170   0.760071  10.812784  -0.000169   0.084664  -0.001998
 539  14   2.502456   0.812771  10.094622  -0.000784   0.259057  -0.003026
 540  14   2.078584   1.756935   9.741455  -0.000419   0.259057  -0.001617
 541   6   3.287514   2.030029  10.713614   0.002252   0.725056   0.003105
 542  18   3.335783   3.593183  11.113305  -0.000029   0.071679  -0.000406
 543  18   3.994573   3.394310  12.034785  -0.000202   0.160265  -0.001257
 544  18   5.093037   3.764080  12.798797  -0.000276   0.160265  -0.001722
 545  18   6.110242   4.707635  12.844220  -0.000269   0.160265  -0.001676
 546  18   6.596352   5.807710  12.150967  -0.000177   0.160265  -0.001105
 547  18   6.336395   6.577819  11.025613  -0.000303   0.160265  -0.001888
 548  18   5.671897   6.768932  10.106594  -0.000107   0.071679  -0.001491
 549   6   3.602576   3.092771  11.333893   0.000174   0.156095   0.001113
 550   6   4.669815   3.094099  12.470398   0.000071   0.156095   0.000454
 551   6   5.929526   3.876078  12.952351  -0.000039   0.156095  -0.000247
 552   6   6.824630   5.092896  12.566620   0.000078   0.156095   0.000498
 553   6   6.959286   6.206441  11.483786   0.000052   0.156095   0.000333
 554   6   6.273945   6.724272  10.182709  -0.000178   0.156095  -0.001141
 555  19   7.185443  -0.620030   8.407039  -0.000139   0.067616  -0.002051
 556  19   7.768634  -0.612831   9.331056  -0.000257   0.149542  -0.001715
 557  19   7.844550  -0.384843  10.631290  -0.000204   0.149542  -0.001363
 558  19   7.145273   0.021042  11.677530  -0.000224   0.149542  -0.001500
 559  19   5.949612   0.442994  12.052631  -0.000272   0.149542  -0.001816
 560  19   4.734288   0.712777  11.607035  -0.000238   0.149542  -0.001594
 561   6   7.718908  -0.397292   8.535003  -0.000175   0.148768  -0.001174
 562   6   8.249832  -0.286474   9.918057   0.000054   0.148768   0.000366
 563   6   7.880771   0.088810  11.307286   0.000031   0.148768   0.000206
 564   6   6.758874   0.578931  12.148790  -0.000015   0.148768  -0.000104
 565   6   5.331452   0.988473  12.107054   0.000001   0.148768   0.000006
 566   6   4.309907   1.168934  11.491858   0.000160   0.082608   0.001936
 567  20   9.907818   5.431138   9.623125  -0.000108   0.067792  -0.001589
 568  20   9.538532   5.519838  10.648194  -0.000222   0.149879  -0.001482
 569  20   9.199963   4.951078  11.793540  -0.000134   0.149879  -0.000897
 570  20   9.112312   3.785076  12.412160  -0.000217   0.149879  -0.001450
 571  20   9.310494   2.486316  12.257626  -0.000280   0.149879  -0.001870
 572  20   9.715564   1.572166  11.391495  -0.000153   0.149879  -0.001023
 573  20  10.166159   1.406781  10.158796  -0.000163   0.149879  -0.001086
 574  20  10.482782   2.056045   9.050581  -0.000301   0.149879  -0.002005
 575   6   9.439366   5.714563   9.850611  -0.000092   0.149213  -0.000614
 576   6   8.969782   5.528839  11.248471   0.000075   0.149213   0.000500
 577   6   8.717450   4.501821  12.292779   0.000095   0.149213   0.000634
 578   6   8.782887   3.042627  12.567528  -0.000067   0.149213  -0.000447
 579   6   9.140026   1.732535  11.963271  -0.000080   0.149213  -0.000535
 580   6   9.646598   1.093426  10.720718   0.000121   0.149213   0.000814
 581   6  10.100809   1.379893   9.334844   0.000003   0.149213   0.000018
 582   6  10.325822   2.163535   8.445394   0.000013   0.082822   0.000162
 583  11   8.456199   6.533641   4.022767   0.000279   0.222300   0.001257
 584  11   8.085064   7.423100   4.537355  -0.000482   0.444652  -0.001084
 585  11   7.185148   8.011233   5.330418  -0.000651   0.444652  -0.001463
 586  11   6.280343   7.955654   5.940270   0.000054   0.222300   0.000243
 587   7   7.565561   7.209610   3.096146  -0.000120   0.444652  -0.000269
 588   7   6.918346   8.133590   3.811738  -0.000643   0.444652  -0.001446
 589   7   5.857831   8.325684   4.601108  -0.000418   0.444652  -0.000940
 590  16   3.597365   8.096040  -0.311903   0.000282   0.127233   0.002219
 591   7   4.733950   8.148191   0.594742   0.000308   0.127233   0.002420
 592   8   6.312569   1.282762   2.411658  -0.000008   0.326510  -0.000024
 593  10   6.928850   1.025589   3.298464  -0.000001   0.326510  -0.000002
 594  12   6.018781   0.442840   3.067046  -0.000084   0.326510  -0.000256
 595  10   7.748999   1.291067   3.093223   0.000075   0.296945   0.000253
 596  10   8.380984   2.412789   2.979329   0.000121   0.593980   0.000204
 597   8   7.147371   2.068880   1.771796  -0.000305   0.593980  -0.000513
 598   8   7.689678   3.241563   1.735003   0.000506   0.296945   0.001704
 599  12   3.855165  -0.072879   1.816696   0.000415   0.306882   0.001353
 600  12   5.103178  -0.143891   2.286145  -0.000580   0.614006  -0.000944
 601   8   4.762716   1.058710   1.039658  -0.000149   0.614006  -0.000242
 602   8   5.971580   1.077513   1.606453  -0.000021   0.306882  -0.000069
 603  15  -0.639950   6.016611   5.285247   0.000195   0.250610   0.000778
 604  15  -0.190189   7.044567   5.380644  -0.000316   0.501094  -0.000630
 605  15   0.816919   7.914085   5.040491  -0.000231   0.501094  -0.000460
 606   9   0.326319   5.946892   6.555514   0.000135   0.501094   0.000269
 607   9   1.079621   7.093475   6.492930  -0.000168   0.501094  -0.000335
 608   9   1.987940   7.620852   6.086838   0.000233   0.250610   0.000930
 609  18   4.520325   6.671185   9.713118   0.000137   0.249903   0.000548
 610  18   3.675746   6.118054  10.204869  -0.000369   0.499676  -0.000738
 611  18   3.033172   4.928439  10.424291  -0.000113   0.499676  -0.000227
 612   9   3.306046   6.733793   8.676921  -0.000020   0.499676  -0.000040
 613   9   2.392934   5.827161   9.146468  -0.000108   0.499676  -0.000217
 614   9   2.037116   4.762787   9.186339   0.000301   0.249903   0.001206
 615  12   6.172108  -0.366878   3.422057  -0.000097   0.307710  -0.000316
 616  12   6.205112  -0.904129   4.647459  -0.000172   0.615674  -0.000279
 617  10   7.496422   0.216944   4.206125  -0.000426   0.615674  -0.000691
 618  10   7.450767  -0.213538   5.472593   0.000322   0.307710   0.001047
 619  20  10.086940   5.339606   8.956409   0.000263   0.130465   0.002015
 620  11   9.655028   6.118431   7.806294   0.000273   0.130465   0.002092
 621  17  -0.379779   1.130602   1.500319  -0.000593   0.243449  -0.002436
 622  17  -1.255074   1.771338   2.025529  -0.001588   0.487199  -0.003259
 623  17  -1.692120   2.684749   2.679135  -0.000064   0.243449  -0.000263
 624  13  -0.604208   0.605766   2.825243  -0.001144   0.487199  -0.002348
 625  13  -1.422359   1.574666   3.560151  -0.001809   0.487199  -0.003713
 626  18   2.959239   3.472225  10.629352   0.000106   0.017398   0.006110
 627  14   1.978888   2.219156   9.659814   0.000111   0.017398   0.006379
 628  19   3.979296   0.290796  10.833491  -0.000060   0.241321  -0.000247
 629  19   4.483478  -0.644938  10.286633  -0.001506   0.482917  -0.003118
 630  19   5.110885  -1.183186   9.423210  -0.000547   0.241321  -0.002267
 631  14   3.010216  -0.293611   9.940242  -0.001775   0.482917  -0.003675
 632  14   3.715729  -1.212595   9.060972  -0.001157   0.482917  -0.002396
 =====================================================

              3632661  WORDS OF DYNAMIC MEMORY USED
 EXECUTION OF GAMESS TERMINATED NORMALLY Wed Nov 23 13:03:06 2016
 DDI: 263640 bytes (0.3 MB / 0 MWords) used by master data server.

 ----------------------------------------
 CPU timing information for all processes
 ========================================
 0: 1174.924 + 0.440 = 1175.364
 ----------------------------------------
 ddikick.x: exited gracefully.
