----- GAMESS execution script -----

          ******************************************************
          *         GAMESS VERSION =  5 DEC 2014 (R1)          *
          *             FROM IOWA STATE UNIVERSITY             *
          * M.W.SCHMIDT, K.K.BALDRIDGE, J.A.BOATZ, S.T.ELBERT, *
          *   M.S.GORDON, J.H.JENSEN, S.KOSEKI, N.MATSUNAGA,   *
          *          K.A.NGUYEN, S.J.SU, T.L.WINDUS,           *
          *       TOGETHER WITH M.DUPUIS, J.A.MONTGOMERY       *
          *         J.COMPUT.CHEM.  14, 1347-1363(1993)        *
          **************** 64 BIT LINUX VERSION ****************

 EXECUTION OF GAMESS BEGUN Wed Nov 23 12:01:43 2016

            ECHO OF THE FIRST FEW INPUT CARDS -
 INPUT CARD>! SELECT RESTRICTED HARTREE-FOCK AS DEFAULT                                     
 INPUT CARD>$contrl scftyp=rhf $end                                                         
 INPUT CARD>                                                                                
 INPUT CARD>! THEORY: HF OR DFT                                                             
 INPUT CARD> $contrl mplevl=0 $end                                                          
 INPUT CARD>                                                                                
 INPUT CARD> $system timlim=10000 mwords=20 $end                                            
 INPUT CARD> $SCF DIRSCF=.TRUE. $end                                                        
 INPUT CARD>                                                                                
 INPUT CARD>                                                                                
 INPUT CARD>! BASIS SETS                                                                    
 INPUT CARD>! 6-311G(d,p)                                                                   
 INPUT CARD> $BASIS GBASIS=N311 NGAUSS=6 NDFUNC=1 NPFUNC=1 $END                             
 INPUT CARD>                                                                                
 INPUT CARD>! One of the following                                                          
 INPUT CARD> $guess guess=HUCKEL $end                                                       
 INPUT CARD>                                                                                
 INPUT CARD> $statpt projct=.FALSE. $end                                                    
 INPUT CARD> $STATPT IFREEZ(1)=1,2,3 $END                                                   
 INPUT CARD>                                                                                
 INPUT CARD>! Optimize the geometry with COSMO effects                                      
 INPUT CARD> $statpt opttol=0.0005 nstep=50 $end                                            
 INPUT CARD> $contrl nzvar=1 $end                                                           
 INPUT CARD> $zmat dlc=.t. auto=.t. $end                                                    
 INPUT CARD> $contrl runtyp=OPTIMIZE maxit=200 $end                                         
 INPUT CARD>                                                                                
 INPUT CARD>! Run COSMO on perfect conductor                                                
 INPUT CARD> $COSGMS PRFCND=.TRUE. $end                                                     
 INPUT CARD>                                                                                
 INPUT CARD>! Specifying RSOLV                                                              
 INPUT CARD> $COSGMS COSRAD = 1.4 $end                                                      
 INPUT CARD>                                                                                
 INPUT CARD>! available memory                                                              
 INPUT CARD> $SYSTEM MWORDS=40 $END                                                         
 INPUT CARD>                                                                                
 INPUT CARD> $DATA                                                                          
 INPUT CARD>Heptane, 3-methyl-, ID: C589811                                                 
 INPUT CARD>C1                                                                              
 INPUT CARD>C      6.0      4.6188000000    2.7561000000    1.9035000000                    
 INPUT CARD>C      6.0      3.3622000000    2.0071000000    1.4510000000                    
 INPUT CARD>C      6.0      2.1134000000    2.8177000000    1.8023000000                    
 INPUT CARD>C      6.0      3.3216000000    0.6244000000    2.0838000000                    
 INPUT CARD>C      6.0      5.8832000000    2.0821000000    1.3935000000                    
 INPUT CARD>C      6.0      0.8769000000    2.3148000000    1.0914000000                    
 INPUT CARD>C      6.0      7.1322000000    2.7192000000    1.9783000000                    
 INPUT CARD>C      6.0      8.3873000000    2.0569000000    1.4564000000                    
 INPUT CARD>H      1.0      4.5851000000    3.8053000000    1.5471000000                    
 INPUT CARD>H      1.0      4.6379000000    2.8166000000    3.0106000000                    
 INPUT CARD>H      1.0      3.4062000000    1.8890000000    0.3397000000                    
 INPUT CARD>H      1.0      1.9533000000    2.8043000000    2.8991000000                    
   40000000 WORDS OF MEMORY AVAILABLE

     BASIS OPTIONS
     -------------
     GBASIS=N311         IGAUSS=       6      POLAR=POPN311 
     NDFUNC=       1     NFFUNC=       0     DIFFSP=       F
     NPFUNC=       1      DIFFS=       F     BASNAM=        


     RUN TITLE
     ---------
 Heptane, 3-methyl-, ID: C589811                                                 

 THE POINT GROUP OF THE MOLECULE IS C1      
 THE ORDER OF THE PRINCIPAL AXIS IS     0

 ATOM      ATOMIC                      COORDINATES (BOHR)
           CHARGE         X                   Y                   Z
 C           6.0     8.7282663921        5.2082737948        3.5970934176
 C           6.0     6.3536367159        3.7928690300        2.7419924082
 C           6.0     3.9937469025        5.3246809156        3.4058531477
 C           6.0     6.2769138408        1.1799449067        3.9378110132
 C           6.0    11.1176359310        3.9345984790        2.6333331639
 C           6.0     1.6571007186        4.3743377164        2.0624469430
 C           6.0    13.4779036896        5.1385429058        3.7384449215
 C           6.0    15.8496987768        3.8869773841        2.7521969285
 H           1.0     8.6645826263        7.1909743011        2.9235950756
 H           1.0     8.7643601585        5.3226022170        5.6892090586
 H           1.0     6.4367846594        3.5696923908        0.6419399180
 H           1.0     3.6912017718        5.2993585874        5.4785046110
 H           1.0     4.3044178548        7.3364832021        2.9086662403
 H           1.0     5.9416764506        1.2772657951        5.9834393949
 H           1.0     4.7838413379        0.0000000000        3.1146463730
 H           1.0     8.0965309944        0.2031455437        3.6526513617
 H           1.0    11.0437476448        1.8840568098        3.1080323320
 H           1.0    11.1820755871        4.0196361485        0.5412175229
 H           1.0     0.0000000000        5.5272595415        2.5375240563
 H           1.0     1.8810332482        4.4310294960        0.0000000000
 H           1.0     1.2128261389        2.4129911137        2.5781531650
 H           1.0    13.5073834150        7.1841712875        3.2903908898
 H           1.0    13.4259362250        5.0230806480        5.8290487817
 H           1.0    15.9925620615        4.0356988194        0.6872933417
 H           1.0    17.5512080562        4.7588969549        3.5553304733
 H           1.0    15.9028000771        1.8679941389        3.2284078774

          INTERNUCLEAR DISTANCES (ANGS.)




     $CONTRL OPTIONS
     ---------------
 SCFTYP=RHF          RUNTYP=OPTIMIZE     EXETYP=RUN     
 MPLEVL=       0     CITYP =NONE         CCTYP =NONE         VBTYP =NONE    
 DFTTYP=NONE         TDDFT =NONE    
 MULT  =       1     ICHARG=       0     NZVAR =       1     COORD =UNIQUE  
 PP    =NONE         RELWFN=NONE         LOCAL =NONE         NUMGRD=       F
 ISPHER=      -1     NOSYM =       0     MAXIT =     200     UNITS =ANGS    
 PLTORB=       F     MOLPLT=       F     AIMPAC=       F     FRIEND=        
 NPRINT=       7     IREST =       0     GEOM  =INPUT   
 NORMF =       0     NORMP =       0     ITOL  =      20     ICUT  =       9
 INTTYP=BEST         GRDTYP=BEST         QMTTOL= 1.0E-06

     $SYSTEM OPTIONS
     ---------------
  REPLICATED MEMORY=    40000000 WORDS (ON EVERY NODE).
 DISTRIBUTED MEMDDI=           0 MILLION WORDS IN AGGREGATE,
 MEMDDI DISTRIBUTED OVER   1 PROCESSORS IS           0 WORDS/PROCESSOR.
 TOTAL MEMORY REQUESTED ON EACH PROCESSOR=    40000000 WORDS.
 TIMLIM=       10000.00 MINUTES, OR       6.9 DAYS.
 PARALL= F  BALTYP=  DLB     KDIAG=    0  COREFL= F
 MXSEQ2=     300 MXSEQ3=     150  mem10=         0

     $COSGMS OPTIONS
     ---------------
     EPSI  =   INFTY     NSPA  =      92     COSRAD=    1.40
     DISEX =   10.00     OUTCHG=DBLCAV       COSBUG=       F
     COSWRT=       F     DCOSMO=       F

     SYMMETRY COORDINATES WILL NOT BE USED FOR 
     THE COSMO CALCULATION, EVEN IF SPECIFIED:
         -- SWITCHING TO C1 POINT GROUP --


     DEFINITION OF CAVITY
     ---------------------------
     ATOM         COORDINATES           RADIUS 
     1    8.7283    5.2083    3.5971    2.0000
     2    6.3536    3.7929    2.7420    2.0000
     3    3.9937    5.3247    3.4059    2.0000
     4    6.2769    1.1799    3.9378    2.0000
     5   11.1176    3.9346    2.6333    2.0000
     6    1.6571    4.3743    2.0624    2.0000
     7   13.4779    5.1385    3.7384    2.0000
     8   15.8497    3.8870    2.7522    2.0000
     9    8.6646    7.1910    2.9236    1.3000
    10    8.7644    5.3226    5.6892    1.3000
    11    6.4368    3.5697    0.6419    1.3000
    12    3.6912    5.2994    5.4785    1.3000
    13    4.3044    7.3365    2.9087    1.3000
    14    5.9417    1.2773    5.9834    1.3000
    15    4.7838    0.0000    3.1146    1.3000
    16    8.0965    0.2031    3.6527    1.3000
    17   11.0437    1.8841    3.1080    1.3000
    18   11.1821    4.0196    0.5412    1.3000
    19    0.0000    5.5273    2.5375    1.3000
    20    1.8810    4.4310    0.0000    1.3000
    21    1.2128    2.4130    2.5782    1.3000
    22   13.5074    7.1842    3.2904    1.3000
    23   13.4259    5.0231    5.8290    1.3000
    24   15.9926    4.0357    0.6873    1.3000
    25   17.5512    4.7589    3.5553    1.3000
    26   15.9028    1.8680    3.2284    1.3000

          ----------------
          PROPERTIES INPUT
          ----------------

     MOMENTS            FIELD           POTENTIAL          DENSITY
 IEMOM =       1   IEFLD =       0   IEPOT =       0   IEDEN =       0
 WHERE =COMASS     WHERE =NUCLEI     WHERE =NUCLEI     WHERE =NUCLEI  
 OUTPUT=BOTH       OUTPUT=BOTH       OUTPUT=BOTH       OUTPUT=BOTH    
 IEMINT=       0   IEFINT=       0                     IEDINT=       0
                                                       MORB  =       0
          EXTRAPOLATION IN EFFECT
          SOSCF IN EFFECT
 ORBITAL PRINTING OPTION: NPREO=     1   260     2     1

     -------------------------------
     INTEGRAL TRANSFORMATION OPTIONS
     -------------------------------
     NWORD  =            0
     CUTOFF = 1.0E-09     MPTRAN =       0
     DIRTRF =       T     AOINTS =DUP     

          ----------------------
          INTEGRAL INPUT OPTIONS
          ----------------------
 NOPK  =       1 NORDER=       0 SCHWRZ=       T


 -----------------------------------------------
  STATISTICS ON AUTOMATIC COORDINATE GENERATION 
 -----------------------------------------------
  NUMBER OF USER SPECIFIED BONDS                             0
  NUMBER OF BONDS                                           25
  NUMBER OF ANGLES                                          48
  NUMBER OF TORSIONS                                        63
  NUMBER OF EXTRA COORD.                                     0
  NUMBER OF EXTRA COORD. FOR CONSTRAINTS                     0
  NUMBER OF CONSTRAINED COORD.                               0

  TOTAL NUMBER OF PRIMITIVES                               136
 -----------------------------------------------

   --- ENCODED Z MATRIX ---
 COORD  TYPE   I   J   K   L   M   N
    1      1    1  10
    2      1    1   2
    3      1    1   5
    4      1    1   9
    5      1    2   4
    6      1    2  11
    7      1    2   3
    8      1    3  13
    9      1    3   6
   10      1    3  12
   11      1    4  15
   12      1    4  14
   13      1    4  16
   14      1    5   7
   15      1    5  18
   16      1    5  17
   17      1    6  21
   18      1    6  20
   19      1    6  19
   20      1    7   8
   21      1    7  23
   22      1    7  22
   23      1    8  26
   24      1    8  25
   25      1    8  24
   26      2    1   2   3
   27      2    1   5   7
   28      2    1   2  11
   29      2    1   5  17
   30      2    1   5  18
   31      2    1   2   4
   32      2    2   1   9
   33      2    2   1   5
   34      2    2   4  14
   35      2    2   3  13
   36      2    2   3  12
   37      2    2   4  15
   38      2    2   4  16
   39      2    2   3   6
   40      2    2   1  10
   41      2    3   2   4
   42      2    3   2  11
   43      2    3   6  20
   44      2    3   6  21
   45      2    3   6  19
   46      2    4   2  11
   47      2    5   1   9
   48      2    5   1  10
   49      2    5   7  23
   50      2    5   7   8
   51      2    5   7  22
   52      2    6   3  12
   53      2    6   3  13
   54      2    7   5  18
   55      2    7   8  24
   56      2    7   8  26
   57      2    7   5  17
   58      2    7   8  25
   59      2    8   7  22
   60      2    8   7  23
   61      2    9   1  10
   62      2   12   3  13
   63      2   14   4  16
   64      2   14   4  15
   65      2   15   4  16
   66      2   17   5  18
   67      2   19   6  20
   68      2   19   6  21
   69      2   20   6  21
   70      2   22   7  23
   71      2   24   8  25
   72      2   24   8  26
   73      2   25   8  26
   74      3    1   2   4  16
   75      3    1   2   4  14
   76      3    1   2   4  15
   77      3    1   5   7  22
   78      3    1   2   3  12
   79      3    1   2   3   6
   80      3    1   5   7  23
   81      3    1   5   7   8
   82      3    1   2   3  13
   83      3    2   3   6  20
   84      3    2   3   6  21
   85      3    2   1   5  18
   86      3    2   3   6  19
   87      3    2   1   5  17
   88      3    2   1   5   7
   89      3    3   2   1  10
   90      3    3   2   1   9
   91      3    3   2   4  16
   92      3    3   2   4  15
   93      3    3   2   1   5
   94      3    3   2   4  14
   95      3    4   2   3   6
   96      3    4   2   1   9
   97      3    4   2   1   5
   98      3    4   2   3  12
   99      3    4   2   1  10
  100      3    4   2   3  13
  101      3    5   1   2  11
  102      3    5   7   8  24
  103      3    5   7   8  25
  104      3    5   7   8  26
  105      3    6   3   2  11
  106      3    7   5   1  10
  107      3    7   5   1   9
  108      3    8   7   5  17
  109      3    8   7   5  18
  110      3    9   1   2  11
  111      3    9   1   5  18
  112      3    9   1   5  17
  113      3   10   1   2  11
  114      3   10   1   5  18
  115      3   10   1   5  17
  116      3   11   2   4  16
  117      3   11   2   4  15
  118      3   11   2   3  12
  119      3   11   2   3  13
  120      3   11   2   4  14
  121      3   12   3   6  19
  122      3   12   3   6  21
  123      3   12   3   6  20
  124      3   13   3   6  19
  125      3   13   3   6  21
  126      3   13   3   6  20
  127      3   17   5   7  22
  128      3   17   5   7  23
  129      3   18   5   7  22
  130      3   18   5   7  23
  131      3   22   7   8  25
  132      3   22   7   8  26
  133      3   22   7   8  24
  134      3   23   7   8  25
  135      3   23   7   8  26
  136      3   23   7   8  24

          INDEP./SYM. INTERNAL COORDINATES
          --------------------------------
 CRD  1=   0.2567 ( 26)  0.3965 ( 27) -0.1301 ( 29) -0.1288 ( 30) -0.1636 ( 31)
           0.1749 ( 32) -0.5230 ( 33) -0.2228 ( 39)  0.1435 ( 40)  0.1550 ( 47)
           0.1684 ( 48) -0.2661 ( 50) -0.1045 ( 54) -0.1247 ( 57)  0.1038 ( 74)
           0.1007 ( 76)
 CRD  2=   0.1003 (  7) -0.1252 ( 27)  0.1261 ( 28)  0.1142 ( 30) -0.3054 ( 31)
           0.1044 ( 32) -0.1009 ( 33) -0.1095 ( 38)  0.2555 ( 39)  0.1451 ( 41)
           0.1453 ( 47) -0.1260 ( 52)  0.1089 ( 54) -0.1188 ( 77)  0.1869 ( 78)
           0.2379 ( 79) -0.1343 ( 80) -0.2217 ( 81)  0.1515 ( 82)  0.1390 ( 85)
           0.1290 ( 87)  0.2723 ( 88) -0.2573 ( 93) -0.2727 ( 97) -0.1558 (101)
           0.1074 (107)
 CRD  3=   0.1509 (  2)  0.2163 (  3) -0.1116 (  5)  0.1452 ( 14)  0.1145 ( 20)
           0.3352 ( 26)  0.1304 ( 33)  0.1484 ( 35) -0.3386 ( 39) -0.3185 ( 41)
           0.1128 ( 46) -0.1269 ( 49)  0.3489 ( 50)  0.1242 ( 53) -0.1066 ( 59)
          -0.1189 ( 60)  0.1259 ( 79)  0.1160 ( 88) -0.1069 ( 89) -0.1132 ( 91)
          -0.1346 ( 92) -0.1437 ( 93)  0.1033 ( 96)
 CRD  4=   0.3558 (  2)  0.2851 (  3)  0.2375 (  7)  0.1809 (  9)  0.2502 ( 14)
           0.1554 ( 20)  0.4390 ( 27) -0.1322 ( 29) -0.1104 ( 30)  0.1583 ( 33)
          -0.1087 ( 36)  0.3835 ( 39) -0.1483 ( 52) -0.1221 ( 53) -0.1654 ( 54)
          -0.1394 ( 57)
 CRD  5=  -0.1494 (  7) -0.1107 (  9) -0.1236 ( 26) -0.1461 ( 29)  0.1210 ( 30)
           0.3377 ( 31) -0.1325 ( 37) -0.1229 ( 39) -0.2268 ( 41)  0.1808 ( 42)
          -0.1092 ( 46)  0.1300 ( 47) -0.1548 ( 48)  0.1269 ( 49) -0.2271 ( 50)
          -0.1353 ( 56)  0.1514 ( 59) -0.1654 ( 77) -0.1333 ( 80) -0.2248 ( 81)
          -0.1585 ( 89) -0.1491 ( 90) -0.2777 ( 93)  0.1921 ( 95) -0.1362 ( 97)
           0.1188 ( 98)  0.1188 (100) -0.1638 (101) -0.1017 (108)
 CRD  6=  -0.1078 (  7) -0.1162 ( 20)  0.1177 ( 29)  0.2674 ( 33) -0.2360 ( 40)
          -0.1032 ( 44) -0.1944 ( 47) -0.3890 ( 50)  0.2211 ( 51)  0.1096 ( 53)
          -0.1286 ( 55) -0.1666 ( 57)  0.1759 ( 60)  0.1145 ( 78)  0.1951 ( 79)
           0.1036 ( 80)  0.1103 ( 82)  0.1745 ( 85)  0.1384 ( 87)  0.2407 ( 88)
           0.1189 ( 95)  0.1275 ( 96)  0.1445 ( 97)  0.1013 ( 99)  0.1151 (104)
           0.1013 (105)  0.1369 (106)  0.1059 (107)
 CRD  7=  -0.1397 (  5)  0.1837 (  9) -0.2019 ( 14) -0.1808 ( 20)  0.2763 ( 26)
          -0.2706 ( 27) -0.1560 ( 28)  0.1222 ( 29)  0.1193 ( 30) -0.1585 ( 34)
          -0.1850 ( 36)  0.2509 ( 39) -0.2890 ( 41)  0.1579 ( 44)  0.1644 ( 46)
          -0.2092 ( 50) -0.1662 ( 53)  0.1191 ( 74)  0.1002 ( 75) -0.1153 ( 83)
          -0.1442 ( 90) -0.1208 ( 95)  0.1113 ( 97)  0.1227 ( 99)
 CRD  8=  -0.1018 (  2) -0.1215 (  3) -0.2789 (  7) -0.1247 ( 30)  0.2137 ( 31)
           0.1459 ( 32) -0.3221 ( 33) -0.1177 ( 35) -0.1533 ( 36)  0.1590 ( 38)
           0.2886 ( 39) -0.2035 ( 41)  0.1523 ( 42)  0.1244 ( 43) -0.1591 ( 45)
           0.1916 ( 48) -0.1405 ( 49)  0.2636 ( 50) -0.1188 ( 59)  0.1290 ( 94)
           0.1110 ( 95)  0.1010 ( 96)  0.1584 ( 97)  0.1091 ( 99)
 CRD  9=   0.3321 (  5)  0.1014 ( 35)  0.1996 ( 37)  0.1264 ( 38) -0.1177 ( 40)
          -0.2123 ( 43)  0.1807 ( 44)  0.1835 ( 52) -0.1535 ( 53)  0.1593 ( 55)
          -0.1476 ( 56) -0.1144 ( 65) -0.2420 ( 79) -0.2065 ( 81)  0.2067 ( 88)
          -0.2508 ( 95)  0.1032 ( 96) -0.1062 ( 98) -0.1073 (100)  0.1002 (102)
           0.1593 (103)  0.1001 (104) -0.1665 (105)  0.1204 (106)  0.1385 (107)
          -0.1058 (108) -0.1002 (109)
 CRD 10=   0.2935 (  2) -0.1110 (  3)  0.3952 (  5)  0.2581 (  7)  0.1992 (  9)
          -0.1241 ( 14) -0.1178 ( 20) -0.1760 ( 27)  0.1161 ( 31)  0.1793 ( 32)
          -0.1676 ( 33)  0.2627 ( 34)  0.1099 ( 36) -0.1091 ( 37)  0.1542 ( 38)
           0.1056 ( 40)  0.1126 ( 43) -0.1065 ( 52) -0.1623 ( 63)  0.1182 ( 89)
           0.1050 ( 93)  0.1633 ( 95)  0.1181 ( 98)  0.1273 (100)  0.1014 (106)
 CRD 11=  -0.2906 (  5) -0.2243 (  7)  0.1595 (  9) -0.2350 ( 35)  0.1150 ( 36)
           0.1553 ( 44)  0.1259 ( 53)  0.3247 ( 55) -0.3198 ( 56)  0.1572 ( 59)
          -0.1540 ( 60) -0.1021 ( 71)  0.1037 ( 73) -0.1747 ( 81)  0.1546 ( 83)
           0.1673 ( 84)  0.1703 ( 86)  0.1077 ( 89)  0.1130 ( 90)  0.1745 ( 93)
           0.1394 ( 97) -0.1635 (108) -0.1614 (109)
 CRD 12=   0.2225 (  5)  0.1499 (  7) -0.2199 (  9) -0.2263 ( 34)  0.2179 ( 37)
           0.1963 ( 38)  0.2233 ( 43) -0.3738 ( 44)  0.1447 ( 49) -0.1689 ( 51)
          -0.1003 ( 52) -0.1419 ( 54)  0.1385 ( 55) -0.1048 ( 56)  0.1095 ( 57)
           0.1445 ( 59) -0.1096 ( 60) -0.1642 ( 65)  0.1630 ( 68)  0.1157 ( 79)
          -0.1302 ( 86) -0.1126 ( 88)  0.1154 ( 97) -0.1290 (102) -0.1279 (104)
           0.1195 (105) -0.1416 (106) -0.1118 (107)
 CRD 13=   0.1970 (  2) -0.3148 (  3) -0.2128 (  7)  0.2933 (  9)  0.2682 ( 14)
          -0.2441 ( 20)  0.1010 ( 28) -0.1470 ( 29) -0.1531 ( 34) -0.1175 ( 36)
           0.2475 ( 37)  0.1368 ( 43)  0.1251 ( 45)  0.1304 ( 49)  0.1387 ( 52)
          -0.1317 ( 55)  0.1315 ( 57) -0.1334 ( 60) -0.1225 ( 67) -0.1177 ( 75)
          -0.1156 ( 76) -0.1066 (129)
 CRD 14=   0.1007 (  2)  0.1058 (  3) -0.3267 (  9) -0.5293 ( 20) -0.1114 ( 38)
          -0.2198 ( 45) -0.1087 ( 52) -0.3992 ( 58) -0.1478 ( 59) -0.1427 ( 60)
           0.1441 ( 67)  0.1982 ( 71)  0.2150 ( 73)  0.1001 (130)
 CRD 15=   0.2888 (  2) -0.1529 (  3) -0.1545 (  7) -0.3217 (  9)  0.1928 ( 14)
           0.1882 ( 20) -0.1380 ( 27)  0.1118 ( 32)  0.1757 ( 37) -0.2309 ( 38)
          -0.3705 ( 45)  0.1220 ( 57)  0.3066 ( 58) -0.1181 ( 64)  0.1633 ( 67)
           0.1462 ( 68) -0.1002 ( 71) -0.1187 ( 73)
 CRD 16=  -0.1133 (  2) -0.1719 (  3) -0.1125 (  5)  0.2954 (  7) -0.1250 (  9)
           0.1148 ( 13)  0.3755 ( 14) -0.2429 ( 34)  0.1261 ( 36) -0.1910 ( 37)
           0.3415 ( 38) -0.2535 ( 43)  0.1010 ( 45)  0.1256 ( 54) -0.1145 ( 55)
          -0.1788 ( 56)  0.2157 ( 58)  0.1992 ( 64)  0.1052 ( 69)  0.1380 ( 72)
 CRD 17=   0.2630 (  2) -0.1274 ( 12) -0.2850 ( 14)  0.1478 ( 20) -0.3908 ( 34)
          -0.1231 ( 35)  0.1557 ( 36)  0.2295 ( 37)  0.1256 ( 38) -0.2672 ( 43)
           0.1545 ( 44)  0.2975 ( 56) -0.1619 ( 58)  0.1192 ( 63) -0.1541 ( 65)
          -0.1417 ( 72)  0.1205 ( 83)  0.1099 ( 84)  0.1379 ( 86)
 CRD 18=  -0.1179 (  5)  0.1130 ( 11)  0.1080 ( 29) -0.1937 ( 34)  0.3370 ( 37)
          -0.2583 ( 38)  0.1743 ( 40) -0.2390 ( 44)  0.2282 ( 45) -0.1715 ( 49)
           0.1612 ( 51)  0.1308 ( 54)  0.2162 ( 55) -0.2699 ( 56)  0.1007 ( 60)
           0.2023 ( 63)  0.1011 ( 69) -0.1194 ( 71)  0.1007 ( 73) -0.1359 ( 85)
          -0.1318 ( 87)  0.1380 (102)  0.1666 (103)  0.1449 (104)
 CRD 19=   0.3665 (  3)  0.1634 ( 15) -0.1497 ( 20) -0.1111 ( 25) -0.1018 ( 27)
           0.1894 ( 30) -0.1129 ( 33) -0.1725 ( 35)  0.1920 ( 37) -0.1599 ( 38)
          -0.1039 ( 40) -0.1241 ( 43)  0.1800 ( 45)  0.1653 ( 48)  0.1282 ( 53)
          -0.3775 ( 55)  0.2312 ( 58) -0.1010 ( 64)  0.1749 ( 72) -0.1006 ( 77)
           0.1017 ( 91)
 CRD 20=   0.1641 (  3)  0.1106 ( 18) -0.1057 ( 19)  0.1373 ( 30) -0.1780 ( 32)
          -0.2158 ( 34)  0.1453 ( 36)  0.2265 ( 38)  0.1012 ( 40)  0.3716 ( 43)
          -0.3090 ( 45)  0.1907 ( 47) -0.1774 ( 49)  0.1783 ( 51) -0.1312 ( 55)
          -0.1582 ( 59)  0.1395 ( 60) -0.1120 ( 65)  0.1241 ( 68) -0.1862 ( 69)
          -0.1178 ( 77) -0.1035 ( 80)  0.1166 ( 90) -0.1152 (101)  0.1237 (102)
           0.1097 (103)  0.1324 (104)
 CRD 21=   0.1820 (  3)  0.1467 (  4) -0.1262 ( 22)  0.3221 ( 29) -0.2283 ( 30)
          -0.1152 ( 34)  0.1088 ( 40)  0.1659 ( 44) -0.1521 ( 45)  0.1313 ( 47)
           0.1625 ( 49) -0.2353 ( 51)  0.2228 ( 54) -0.1190 ( 56) -0.2734 ( 57)
           0.1255 ( 58)  0.1932 ( 59) -0.2118 ( 60) -0.1079 ( 69)  0.1810 ( 77)
           0.1849 ( 80) -0.1251 (102) -0.1106 (104)  0.1316 (106)  0.1228 (107)
          -0.1381 (108)
 CRD 22=  -0.1154 (  1) -0.1372 (  2) -0.1046 (  3) -0.1045 (  8)  0.1907 ( 14)
           0.1395 ( 15)  0.1401 ( 22)  0.1519 ( 23) -0.1401 ( 28) -0.1169 ( 30)
          -0.1123 ( 32) -0.1407 ( 35)  0.1096 ( 36)  0.1143 ( 43) -0.1937 ( 44)
          -0.1058 ( 48)  0.1706 ( 49) -0.1234 ( 50) -0.1072 ( 52)  0.2048 ( 54)
           0.3455 ( 56) -0.1023 ( 57) -0.1868 ( 58)  0.1587 ( 59) -0.1155 ( 60)
           0.1371 ( 71) -0.1350 ( 72) -0.1323 ( 78) -0.1103 ( 79) -0.1139 ( 81)
          -0.1237 ( 82)  0.1306 (106)  0.1527 (107) -0.1105 (108) -0.1430 (109)
 CRD 23=   0.1011 (  1)  0.2304 (  2) -0.2353 (  7) -0.2050 (  8) -0.1660 (  9)
          -0.1271 ( 10) -0.1654 ( 14) -0.1246 ( 17) -0.1001 ( 21)  0.1061 ( 28)
          -0.1038 ( 36) -0.2058 ( 37)  0.1418 ( 38)  0.1473 ( 39)  0.1179 ( 40)
          -0.1627 ( 42) -0.3386 ( 44)  0.2299 ( 45) -0.1000 ( 48) -0.1200 ( 53)
          -0.1602 ( 55)  0.1303 ( 58)  0.1143 ( 62)  0.2025 ( 69) -0.1140 ( 91)
          -0.1235 ( 92) -0.1019 ( 94) -0.1091 (105)
 CRD 24=  -0.1261 (  1) -0.1058 (  2) -0.3060 (  3) -0.1459 (  4)  0.1819 (  7)
           0.1126 ( 10) -0.3016 ( 14) -0.1273 ( 15) -0.2422 ( 16) -0.1973 ( 21)
          -0.1027 ( 22)  0.2362 ( 27) -0.1162 ( 29)  0.1469 ( 33) -0.1364 ( 38)
           0.1138 ( 43) -0.1358 ( 47) -0.1249 ( 49)  0.2189 ( 50) -0.1380 ( 51)
          -0.2321 ( 55) -0.1008 ( 57)  0.2121 ( 58)  0.1414 ( 66)  0.1209 ( 70)
           0.1486 ( 72)
 CRD 25=  -0.1596 (  1) -0.1750 (  2)  0.2495 (  5)  0.1309 (  6) -0.1538 (  7)
          -0.1882 ( 10) -0.1354 ( 15)  0.1011 ( 17) -0.1175 ( 18) -0.1166 ( 22)
           0.1280 ( 26) -0.2015 ( 32)  0.1037 ( 33)  0.1675 ( 34) -0.1839 ( 35)
          -0.1942 ( 43)  0.1190 ( 44)  0.2047 ( 46)  0.1409 ( 47) -0.2028 ( 48)
          -0.1844 ( 52)  0.1702 ( 53) -0.1118 ( 56) -0.1326 ( 63) -0.1388 ( 64)
          -0.1075 ( 68)  0.1231 ( 79)  0.1037 ( 99) -0.1666 (101)  0.2031 (105)
 CRD 26=   0.2201 (  1) -0.2599 (  4)  0.2398 (  8) -0.2177 ( 10) -0.1794 ( 21)
           0.1867 ( 22) -0.1471 ( 32)  0.1565 ( 35) -0.1545 ( 36)  0.1392 ( 40)
          -0.1271 ( 43)  0.1391 ( 44) -0.1236 ( 55)  0.1269 ( 56)  0.1291 ( 78)
           0.1368 ( 79) -0.1433 ( 81)  0.1248 ( 82) -0.1167 ( 83) -0.1171 ( 84)
          -0.1387 ( 85) -0.1310 ( 86) -0.1329 ( 87)  0.1254 ( 89)  0.1169 ( 90)
           0.1322 ( 93)  0.1159 ( 95)  0.1054 ( 97)  0.1081 ( 98)  0.1039 (100)
           0.1122 (101)  0.1079 (103)  0.1109 (105) -0.1123 (108) -0.1162 (109)
           0.1055 (113)  0.1032 (118)
 CRD 27=   0.1237 (  1)  0.1414 (  6) -0.1094 ( 10) -0.1677 ( 15)  0.1984 ( 16)
          -0.2875 ( 21)  0.2910 ( 22)  0.1237 ( 29) -0.1143 ( 30)  0.1111 ( 32)
          -0.1260 ( 40) -0.1504 ( 47)  0.1909 ( 48) -0.1484 ( 52)  0.1357 ( 53)
          -0.1004 ( 74) -0.1084 ( 75) -0.1704 ( 89) -0.1426 ( 90) -0.1130 ( 96)
          -0.1238 ( 98) -0.1409 ( 99) -0.1152 (100)  0.1023 (102)  0.1249 (103)
           0.1024 (104) -0.1190 (106) -0.1152 (107) -0.1392 (108) -0.1358 (109)
          -0.1399 (110) -0.1103 (111) -0.1093 (112) -0.1677 (113) -0.1140 (114)
          -0.1131 (115) -0.1045 (118)
 CRD 28=   0.1876 (  1)  0.1153 (  2)  0.7637 (  6)  0.1230 (  7)  0.2487 ( 10)
           0.2029 ( 12) -0.1034 ( 37)  0.1293 ( 65)  0.1177 ( 91) -0.1060 ( 95)
           0.1371 ( 96)  0.1188 ( 99)
 CRD 29=   0.1471 (  5)  0.1367 (  8) -0.2021 ( 10)  0.4318 ( 11)  0.4600 ( 12)
           0.4393 ( 13) -0.1364 ( 18) -0.1673 ( 34) -0.1605 ( 37) -0.1750 ( 38)
          -0.1057 ( 52)  0.1805 ( 63)  0.1779 ( 64)  0.1768 ( 65)
 CRD 30=   0.1681 (  9)  0.1001 ( 13)  0.5005 ( 17)  0.4840 ( 18)  0.4665 ( 19)
          -0.1767 ( 43) -0.1697 ( 44) -0.1910 ( 45)  0.1994 ( 67)  0.1932 ( 68)
           0.1848 ( 69)
 CRD 31=   0.1736 ( 20)  0.5022 ( 23)  0.4800 ( 24)  0.5029 ( 25) -0.1766 ( 55)
          -0.1766 ( 56) -0.1941 ( 58)  0.2000 ( 71)  0.1873 ( 72)  0.1998 ( 73)
 CRD 32=   0.2954 (  1) -0.2187 (  4)  0.1227 (  8) -0.1531 ( 10) -0.1611 ( 11)
          -0.1267 ( 12) -0.1323 ( 13)  0.3721 ( 15) -0.3430 ( 16)  0.2773 ( 21)
          -0.2686 ( 22)  0.1039 ( 48) -0.1121 ( 52) -0.1186 ( 77) -0.1213 ( 80)
          -0.1089 (118)
 CRD 33=   0.1375 (  4) -0.1060 (  5)  0.1536 (  7)  0.1400 (  8) -0.1818 ( 10)
          -0.1216 ( 11) -0.1282 ( 13)  0.1050 ( 22) -0.1250 ( 29)  0.1035 ( 30)
          -0.1006 ( 32)  0.1448 ( 47) -0.1144 ( 52) -0.1072 ( 54)  0.1440 ( 57)
           0.1237 ( 59) -0.1133 ( 60) -0.1678 ( 74) -0.1367 ( 75) -0.1685 ( 76)
          -0.1132 ( 78)  0.1011 ( 85)  0.1205 ( 87) -0.1406 ( 91) -0.1413 ( 92)
          -0.1095 ( 94)  0.1178 ( 96)  0.1430 (110)  0.1629 (111)  0.1824 (112)
           0.1207 (114)  0.1402 (115) -0.1501 (116) -0.1508 (117) -0.1257 (118)
          -0.1191 (120)  0.1631 (127)  0.1581 (128)  0.1483 (129)  0.1433 (130)
 CRD 34=   0.1964 (  2)  0.3310 (  8) -0.1080 ( 11) -0.1003 ( 19) -0.1157 ( 37)
           0.1108 ( 41)  0.1941 ( 53) -0.1019 ( 63)  0.1108 ( 64)  0.1837 ( 74)
           0.1155 ( 75)  0.1726 ( 76) -0.1101 ( 78) -0.1598 ( 82) -0.1182 ( 83)
          -0.1159 ( 84) -0.1112 ( 86)  0.2162 ( 91)  0.2051 ( 92)  0.1481 ( 94)
          -0.1524 ( 98) -0.2021 (100)  0.1976 (116)  0.1865 (117) -0.1679 (118)
          -0.2177 (119)  0.1294 (120) -0.1313 (124) -0.1360 (125) -0.1383 (126)
 CRD 35=  -0.1692 ( 21) -0.1680 ( 22) -0.2983 ( 23)  0.6327 ( 24) -0.2900 ( 25)
           0.1603 ( 71) -0.3270 ( 72)  0.1564 ( 73) -0.1696 (102)  0.1726 (104)
           0.1583 (132) -0.1839 (133)  0.1891 (135) -0.1532 (136)
 CRD 36=  -0.1244 (  8) -0.1297 ( 10) -0.3016 ( 17) -0.2980 ( 18)  0.6302 ( 19)
          -0.1000 ( 45)  0.1622 ( 67)  0.1601 ( 68) -0.3280 ( 69)  0.1648 ( 83)
          -0.1809 ( 84) -0.1881 (122)  0.1577 (123) -0.1739 (125)  0.1718 (126)
 CRD 37=   0.1360 (  4) -0.3654 ( 11)  0.5380 ( 12) -0.2511 ( 13)  0.1053 ( 17)
          -0.1465 ( 18)  0.1172 ( 23) -0.1415 ( 25)  0.1921 ( 63)  0.1070 ( 64)
          -0.2799 ( 65) -0.1749 ( 74)  0.1370 ( 76) -0.1757 ( 91)  0.1362 ( 92)
          -0.1746 (116)  0.1373 (117)
 CRD 38=  -0.4571 ( 17)  0.4562 ( 18)  0.2952 ( 23) -0.2954 ( 25)  0.2443 ( 67)
          -0.2442 ( 68) -0.1574 ( 71)  0.1577 ( 73) -0.1928 ( 86) -0.1260 (103)
          -0.1860 (121) -0.1850 (124) -0.1225 (131) -0.1229 (134)
 CRD 39=  -0.2279 ( 12)  0.1772 ( 13)  0.2497 ( 17) -0.2659 ( 18)  0.4394 ( 23)
          -0.4368 ( 25)  0.1253 ( 65) -0.1343 ( 67)  0.1425 ( 68) -0.2348 ( 71)
           0.2335 ( 73)  0.1047 ( 86) -0.1835 (103)  0.1005 (121) -0.1768 (131)
          -0.1769 (134)
 CRD 40=  -0.5192 ( 11)  0.5777 ( 13) -0.1299 ( 17)  0.2567 ( 63) -0.2792 ( 64)
           0.2276 ( 75)  0.2292 ( 94)  0.2451 (120)
 CRD 41=   0.5181 (  4)  0.2244 (  8) -0.1860 ( 12) -0.2028 ( 15) -0.1042 ( 59)
           0.1034 ( 60)  0.1420 ( 65) -0.1014 ( 76) -0.1017 ( 77)  0.1475 ( 89)
           0.1035 ( 96)  0.1646 ( 99) -0.1004 (102) -0.1000 (106) -0.1062 (108)
           0.1001 (110)  0.1612 (113) -0.1101 (114) -0.1786 (127) -0.1725 (128)
          -0.1705 (129) -0.1643 (130) -0.1327 (132) -0.1402 (133) -0.1380 (135)
          -0.1454 (136)
 CRD 42=   0.1637 (  1) -0.4493 ( 15) -0.5069 ( 16)  0.3527 ( 21)  0.3642 ( 22)
          -0.1763 ( 66)  0.1254 ( 70)  0.1027 (109)  0.1050 (112) -0.1099 (127)
           0.1802 (130)  0.1130 (132)
 CRD 43=  -0.2473 (  1) -0.1430 (  4) -0.1112 ( 14)  0.2656 ( 15)  0.3224 ( 16)
           0.4598 ( 21)  0.4527 ( 22) -0.1056 ( 23)  0.1078 ( 24)  0.1346 ( 66)
           0.2003 ( 70) -0.1062 (112) -0.1484 (129)  0.1027 (132) -0.1098 (134)
          -0.1515 (136)
 CRD 44=   0.2070 (  1)  0.4871 (  8)  0.5764 ( 10) -0.1003 ( 17) -0.1155 ( 18)
           0.1142 ( 19)  0.2380 ( 62)  0.1239 ( 82)  0.1355 (100)  0.1449 (119)
           0.1225 (121)  0.1567 (123) -0.1181 (125)
 CRD 45=  -0.5231 (  1) -0.4168 (  4)  0.2092 (  8)  0.1187 ( 10) -0.2659 ( 15)
          -0.1654 ( 16)  0.1176 ( 47) -0.2275 ( 61) -0.1206 ( 66)  0.1430 ( 90)
           0.1580 ( 96)  0.1452 (110) -0.1215 (111)  0.1222 (115) -0.1115 (128)
 CRD 46=   0.2999 (  1) -0.2941 (  4) -0.1393 (  6) -0.1865 (  8)  0.1844 ( 10)
          -0.2783 ( 15)  0.2894 ( 16)  0.1293 ( 85)  0.1267 ( 87)  0.1275 (106)
           0.1317 (107)  0.2173 (111)  0.2148 (112)  0.2131 (114)  0.2105 (115)
          -0.1235 (121) -0.1307 (122) -0.1300 (123) -0.1319 (124) -0.1390 (125)
          -0.1384 (126) -0.1092 (132) -0.1090 (133) -0.1098 (135) -0.1096 (136)
 CRD 47=  -0.1296 (  1)  0.1294 (  4) -0.2848 (  8)  0.2832 ( 10)  0.2074 ( 15)
          -0.2102 ( 16) -0.1664 ( 21)  0.1664 ( 22)  0.1073 ( 82) -0.1593 ( 83)
          -0.1546 ( 84) -0.1615 ( 86) -0.1025 (111) -0.1169 (114) -0.1087 (115)
          -0.2462 (121) -0.2393 (122) -0.2439 (123) -0.2415 (124) -0.2346 (125)
          -0.2392 (126)
 CRD 48=   0.1501 ( 15) -0.1495 ( 16) -0.3347 ( 21)  0.3339 ( 22)  0.1012 ( 77)
           0.1030 ( 80) -0.1612 (102) -0.1719 (103) -0.1618 (104)  0.1040 (121)
           0.1027 (122)  0.1054 (123)  0.1149 (127)  0.1167 (128)  0.1188 (129)
           0.1206 (130) -0.2582 (131) -0.2481 (132) -0.2475 (133) -0.2567 (134)
          -0.2467 (135) -0.2460 (136)
 CRD 49=   0.1335 (  2) -0.1272 ( 23) -0.2539 ( 24) -0.1257 ( 25) -0.1820 ( 29)
          -0.1814 ( 30) -0.1314 ( 32) -0.1286 ( 40)  0.1010 ( 47)  0.1072 ( 48)
          -0.1674 ( 49) -0.1698 ( 51)  0.1700 ( 54) -0.1373 ( 55) -0.1367 ( 56)
           0.1617 ( 57) -0.1813 ( 58)  0.2085 ( 59)  0.2048 ( 60)  0.1959 ( 71)
           0.1977 ( 73)  0.1304 ( 77) -0.1236 ( 80) -0.1005 ( 85)  0.1087 (108)
           0.1669 (112) -0.1149 (113) -0.1670 (114)  0.1069 (120)  0.2372 (127)
          -0.2230 (130)  0.1210 (132) -0.1252 (136)
 CRD 50=  -0.1249 (  6)  0.1687 (  7)  0.1582 (  9) -0.1869 ( 17) -0.2113 ( 18)
          -0.3111 ( 19) -0.1554 ( 35) -0.1605 ( 36) -0.2124 ( 43) -0.2076 ( 44)
          -0.2431 ( 45)  0.1851 ( 52)  0.1923 ( 53)  0.2776 ( 67)  0.2571 ( 68)
           0.1781 ( 69)  0.1421 ( 78) -0.1137 ( 82)  0.1056 ( 98) -0.1502 (100)
          -0.1135 (116) -0.1378 (117)  0.1750 (118) -0.1527 (120)  0.1142 (123)
 CRD 51=  -0.3559 (  5) -0.1202 (  6)  0.2520 ( 11)  0.2979 ( 12)  0.2475 ( 13)
           0.2651 ( 34)  0.2580 ( 37)  0.2547 ( 38) -0.1140 ( 46) -0.2858 ( 63)
          -0.2880 ( 64) -0.2542 ( 65)  0.1103 (101) -0.1165 (105)  0.1435 (110)
           0.1417 (113) -0.1619 (118) -0.1430 (119)
 CRD 52=   0.1741 (  2) -0.1361 (  6)  0.1071 (  7)  0.1011 (  9) -0.1856 ( 14)
          -0.2972 ( 20)  0.1875 ( 23)  0.1929 ( 24)  0.1979 ( 25) -0.1416 ( 32)
          -0.1405 ( 40)  0.1518 ( 47)  0.1381 ( 48)  0.1430 ( 54)  0.1865 ( 55)
           0.1884 ( 56)  0.1183 ( 57)  0.1909 ( 58) -0.2069 ( 71) -0.2016 ( 72)
          -0.1984 ( 73)  0.1162 ( 96)  0.1282 (112) -0.1516 (113) -0.1649 (114)
           0.1337 (116)  0.1327 (120)  0.1256 (128) -0.1015 (129)
 CRD 53=  -0.1936 (  1)  0.1011 (  3) -0.1169 (  5)  0.4260 (  6)  0.1199 (  9)
          -0.1983 ( 10)  0.1987 ( 11) -0.1990 ( 12)  0.1376 ( 13) -0.1017 ( 17)
          -0.1233 ( 20)  0.1009 ( 26)  0.1244 ( 61)  0.1089 ( 62) -0.2379 ( 65)
           0.1213 ( 68)  0.1784 ( 76) -0.2026 ( 91) -0.1421 ( 96)  0.1346 (100)
           0.1065 (107)  0.1715 (112) -0.1374 (116) -0.1691 (125) -0.1400 (126)
 CRD 54=   0.1656 (  3) -0.3632 (  9) -0.1458 ( 11)  0.2207 ( 17)  0.1323 ( 18)
          -0.2482 ( 20)  0.1105 ( 23)  0.1374 ( 25) -0.1077 ( 28) -0.1235 ( 36)
           0.1282 ( 42)  0.1247 ( 43)  0.1181 ( 44)  0.1175 ( 45)  0.1073 ( 64)
          -0.1180 ( 68) -0.2182 ( 69) -0.1544 ( 72)  0.1103 (113) -0.1280 (116)
          -0.1404 (117) -0.2429 (120)  0.1797 (123) -0.1082 (125)  0.1302 (132)
 CRD 55=   0.1411 (  2) -0.1405 (  3)  0.2210 (  7) -0.2207 (  9) -0.2229 ( 14)
           0.1151 ( 17)  0.1743 ( 18) -0.1339 ( 19)  0.2306 ( 20) -0.1290 ( 23)
           0.1273 ( 24) -0.1607 ( 25) -0.1153 ( 32) -0.1527 ( 35) -0.1251 ( 36)
          -0.1264 ( 40)  0.1093 ( 47)  0.1151 ( 48)  0.1297 ( 49)  0.1390 ( 51)
           0.1172 ( 62) -0.1973 ( 69) -0.1023 ( 70)  0.1971 ( 72)  0.1273 (121)
           0.1883 (123) -0.1034 (124) -0.2275 (125) -0.1142 (131) -0.2195 (132)
           0.1048 (134)  0.1815 (136)
 CRD 56=   0.1229 (  8) -0.1028 ( 10) -0.2046 ( 15)  0.1869 ( 16)  0.1221 ( 18)
           0.2255 ( 21) -0.2549 ( 22)  0.2185 ( 23) -0.1364 ( 25) -0.1003 ( 49)
           0.1005 ( 59)  0.1335 ( 71) -0.1313 ( 73)  0.1224 (103) -0.1590 (111)
          -0.1677 (112) -0.1070 (114) -0.1157 (115)  0.1037 (118)  0.2118 (127)
           0.1990 (128)  0.2088 (129)  0.1960 (130) -0.1271 (132) -0.1782 (133)
          -0.1847 (135) -0.2359 (136)
 CRD 57=  -0.1874 (  5)  0.2620 (  8) -0.1131 (  9) -0.1732 ( 10)  0.1001 ( 12)
          -0.2104 ( 17)  0.2328 ( 18) -0.1123 ( 21)  0.1439 ( 22) -0.1286 ( 23)
           0.1334 ( 25)  0.1092 ( 46) -0.2005 ( 67)  0.1317 ( 68) -0.1092 ( 71)
           0.1371 ( 78)  0.1983 ( 86)  0.1254 ( 98) -0.1234 (101) -0.1177 (103)
          -0.1295 (113)  0.2363 (118)  0.1483 (119) -0.1898 (122) -0.2122 (123)
          -0.1442 (125) -0.1665 (126) -0.1202 (130)  0.1093 (135)  0.1175 (136)
 CRD 58=   0.1216 (  1) -0.1227 (  2) -0.1973 (  4)  0.1901 (  5)  0.1273 (  7)
           0.1043 ( 11) -0.1803 ( 13)  0.1653 ( 14)  0.1047 ( 16)  0.1246 ( 18)
          -0.1220 ( 19) -0.1556 ( 21) -0.1493 ( 24)  0.1996 ( 25) -0.1013 ( 35)
          -0.1323 ( 51) -0.1127 ( 57)  0.1029 ( 62)  0.1466 ( 63)  0.1174 ( 70)
          -0.1113 ( 72)  0.1509 ( 73)  0.1043 ( 75)  0.1030 ( 94)  0.1055 ( 99)
          -0.1428 (103) -0.1337 (105)  0.1051 (109)  0.1396 (113) -0.1206 (114)
          -0.1288 (115) -0.1601 (118) -0.1063 (119)  0.1849 (120)  0.1245 (121)
           0.1058 (123) -0.1455 (125)  0.2262 (132) -0.1401 (134)
 CRD 59=  -0.1148 (  1) -0.2095 (  3)  0.2208 (  4) -0.1961 (  5)  0.2037 (  7)
           0.1039 ( 12)  0.1504 ( 14)  0.1410 ( 15)  0.1191 ( 17) -0.1193 ( 22)
           0.1637 ( 23) -0.1756 ( 24) -0.1287 ( 42)  0.1073 ( 48) -0.1208 ( 54)
          -0.1214 ( 64)  0.1349 ( 70)  0.1500 ( 71) -0.1046 ( 72) -0.1059 ( 89)
          -0.1205 ( 99)  0.1223 (103) -0.1087 (108) -0.1506 (110)  0.1142 (111)
          -0.2494 (113)  0.1555 (114)  0.1290 (115)  0.1230 (120)  0.1041 (123)
          -0.1569 (127)  0.1373 (131)  0.1105 (132) -0.1936 (136)
 CRD 60=  -0.2505 (  2)  0.1611 (  3)  0.1023 (  4)  0.1147 (  7)  0.1354 ( 11)
          -0.1383 ( 13)  0.1002 ( 14) -0.1291 ( 15) -0.1655 ( 16) -0.1252 ( 19)
          -0.2560 ( 20)  0.1125 ( 21)  0.1048 ( 22)  0.1248 ( 24) -0.1375 ( 61)
           0.1005 ( 63) -0.1037 ( 64)  0.2279 ( 66) -0.1695 ( 70)  0.1014 ( 75)
           0.1097 ( 77) -0.1104 ( 80)  0.1072 ( 85)  0.1021 ( 94)  0.1019 (106)
          -0.1003 (107)  0.1044 (108) -0.1194 (109) -0.1842 (112)  0.2170 (114)
           0.1704 (120)  0.1308 (123)  0.2146 (127) -0.2294 (130)
 CRD 61=  -0.1114 (  1)  0.1896 (  3) -0.1977 (  9)  0.1855 ( 11) -0.2529 ( 13)
          -0.1564 ( 14)  0.1209 ( 15)  0.1347 ( 19)  0.1104 ( 24)  0.1052 ( 38)
          -0.1189 ( 47) -0.1201 ( 48)  0.1261 ( 61) -0.1040 ( 62)  0.1416 ( 63)
          -0.1873 ( 64) -0.1311 ( 66) -0.1096 ( 74)  0.1241 ( 75) -0.1908 ( 76)
           0.1109 ( 78)  0.1071 ( 87)  0.1029 ( 89) -0.1304 ( 90) -0.1718 ( 92)
           0.1431 ( 94) -0.1495 ( 96) -0.1144 (100) -0.1587 (110)  0.1358 (112)
           0.1215 (115) -0.1449 (117) -0.1142 (119)  0.1700 (120)
 CRD 62=  -0.1424 (  3) -0.2572 (  9)  0.1038 ( 10)  0.1634 ( 11) -0.2077 ( 12)
           0.1336 ( 14)  0.2255 ( 19)  0.1145 ( 26)  0.1037 ( 47)  0.1310 ( 52)
           0.1433 ( 53) -0.1210 ( 62)  0.1308 ( 63) -0.1449 ( 65)  0.1176 ( 66)
          -0.1337 ( 68)  0.1061 ( 69) -0.1169 ( 74)  0.1303 ( 76) -0.1525 ( 82)
          -0.1116 ( 83)  0.1343 ( 84)  0.1210 ( 90) -0.1978 ( 91)  0.1259 ( 96)
          -0.1732 (100)  0.1344 (110) -0.1192 (115) -0.1613 (116) -0.1708 (119)
           0.1521 (122)  0.1428 (125) -0.1031 (126)
 CRD 63=   0.2493 (  5) -0.1021 (  6)  0.1497 ( 15) -0.1803 ( 16) -0.2064 ( 17)
           0.1738 ( 18)  0.1958 ( 23) -0.1829 ( 25)  0.1016 ( 44) -0.1013 ( 46)
          -0.1491 ( 67)  0.1344 ( 68)  0.1424 ( 71) -0.1405 ( 73)  0.1388 ( 79)
           0.1447 ( 81)  0.1936 ( 86) -0.1216 ( 88) -0.1113 ( 93)  0.1932 (103)
           0.1144 (110) -0.1214 (118) -0.1047 (119)  0.1998 (121)  0.1818 (124)
           0.1891 (131)  0.1957 (134)
 CRD 64=  -0.1434 (  2)  0.2280 (  3) -0.2694 ( 14)  0.2916 ( 20) -0.1803 ( 24)
          -0.1562 ( 29) -0.1601 ( 30)  0.1506 ( 49)  0.1522 ( 51)  0.1544 ( 54)
           0.1497 ( 57) -0.1657 ( 59) -0.1627 ( 60) -0.1152 ( 61) -0.1373 ( 77)
           0.1428 ( 80) -0.1049 (102) -0.1172 (107)  0.1307 (108) -0.1235 (109)
          -0.1699 (111)  0.1457 (115)  0.2694 (128) -0.2648 (129) -0.1468 (133)
           0.1418 (135)
 CRD 65=  -0.1332 (  1)  0.1169 (  3)  0.1981 ( 12) -0.1051 ( 13) -0.1686 ( 24)
          -0.1198 ( 34) -0.1020 ( 46)  0.1283 ( 58)  0.1527 ( 61)  0.1488 ( 65)
           0.1267 ( 66) -0.1182 ( 70) -0.1275 ( 72)  0.1410 ( 74) -0.1245 ( 76)
           0.1004 ( 91) -0.1651 ( 92) -0.1651 ( 96)  0.1051 (100) -0.1164 (102)
           0.1326 (104)  0.1260 (107)  0.2069 (111) -0.1760 (115)  0.1071 (116)
          -0.1584 (117)  0.1323 (122) -0.1363 (126) -0.1205 (131) -0.2276 (133)
           0.2324 (135)
 CRD 66=  -0.1535 (  2)  0.1032 (  4)  0.1895 (  7) -0.1327 (  8) -0.1340 ( 10)
          -0.1050 ( 17)  0.1933 ( 19) -0.1491 ( 39) -0.1728 ( 45) -0.1262 ( 61)
           0.2004 ( 62)  0.1517 ( 69)  0.1069 ( 70)  0.1148 ( 74) -0.1522 ( 83)
           0.1525 ( 84) -0.1043 ( 99)  0.1254 (100) -0.1102 (111)  0.1108 (115)
           0.1222 (116) -0.1071 (118)  0.1602 (121)  0.3103 (122) -0.1542 (124)
          -0.3088 (126)  0.1519 (133) -0.1170 (134) -0.1452 (135)
 CRD 67=  -0.1393 (  1)  0.1600 (  4) -0.1003 (  8)  0.1481 ( 10) -0.1276 ( 17)
           0.1467 ( 18)  0.1635 ( 21) -0.1272 ( 23)  0.1609 ( 25) -0.1155 ( 43)
           0.1053 ( 44) -0.1007 ( 47) -0.1036 ( 52)  0.1110 ( 53) -0.1279 ( 55)
           0.1033 ( 56)  0.1108 ( 59) -0.1161 ( 60)  0.1033 ( 68)  0.1144 ( 73)
           0.1822 ( 79) -0.1881 ( 81) -0.1268 ( 83) -0.1515 ( 84) -0.1465 ( 85)
          -0.1131 ( 87) -0.1137 ( 88)  0.1123 ( 93)  0.1290 ( 95)  0.1236 ( 97)
           0.1310 (101)  0.1235 (102)  0.1716 (104) -0.1401 (108) -0.1006 (119)
           0.1841 (121)  0.2211 (124)  0.1135 (129) -0.2455 (131) -0.1825 (134)
 CRD 68=   0.1526 (  2) -0.2149 (  7) -0.1281 ( 13)  0.2069 ( 14) -0.1078 ( 15)
           0.1058 ( 20) -0.1528 ( 22) -0.1539 ( 27)  0.1087 ( 38) -0.1740 ( 50)
          -0.1141 ( 58)  0.1507 ( 66)  0.1827 ( 70)  0.1588 ( 75) -0.1058 ( 77)
           0.1104 ( 80) -0.1285 ( 87)  0.1062 ( 94) -0.1331 ( 99)  0.1246 (101)
           0.1179 (102) -0.1213 (109)  0.1013 (110)  0.1590 (111) -0.1301 (115)
          -0.1135 (116) -0.2243 (117)  0.2166 (128) -0.1879 (129)  0.1993 (133)
          -0.1621 (134) -0.2010 (135)
 CRD 69=  -0.1705 (  2)  0.1877 (  3)  0.1519 (  7) -0.1353 (  9) -0.1281 ( 11)
           0.1259 ( 13) -0.1098 ( 27)  0.1489 ( 28)  0.1431 ( 31) -0.1161 ( 33)
           0.1230 ( 37) -0.1233 ( 38)  0.1089 ( 39) -0.1284 ( 41) -0.1520 ( 42)
          -0.1073 ( 50)  0.1012 ( 61)  0.1140 ( 66) -0.2199 ( 75) -0.2498 ( 94)
           0.2016 ( 98)  0.1506 ( 99) -0.1036 (105) -0.1659 (110)  0.1098 (111)
           0.2326 (116)  0.2339 (117) -0.1849 (119)  0.1482 (128) -0.1467 (129)
 CRD 70=  -0.1773 (  2) -0.1132 (  3)  0.1620 (  5) -0.1471 (  7)  0.1829 (  8)
           0.1861 ( 26)  0.1353 ( 33) -0.1068 ( 34)  0.1313 ( 39) -0.1818 ( 46)
          -0.1219 ( 61) -0.1174 ( 62)  0.1835 ( 74)  0.1639 ( 78)  0.1745 ( 83)
          -0.1423 ( 89) -0.1645 ( 92) -0.1164 ( 94)  0.2400 ( 98) -0.1882 ( 99)
           0.1211 (101) -0.2348 (105)  0.1929 (110) -0.1061 (111)  0.1254 (115)
           0.1025 (116) -0.1681 (119) -0.1945 (121) -0.1192 (122)
 CRD 71=  -0.1439 (  6) -0.1434 ( 10)  0.1121 ( 15) -0.1372 ( 16)  0.1326 ( 21)
          -0.1405 ( 22)  0.1039 ( 36) -0.1114 ( 49)  0.1160 ( 51) -0.1103 ( 54)
           0.1116 ( 57) -0.1306 ( 74)  0.1691 ( 77)  0.1789 ( 80)  0.1638 ( 82)
           0.1307 ( 83)  0.1540 ( 84) -0.1428 ( 88) -0.1398 ( 90)  0.1464 ( 92)
          -0.1503 ( 93)  0.1004 ( 94) -0.1861 ( 95)  0.1186 ( 99)  0.1871 (102)
           0.1838 (104) -0.1132 (105) -0.1801 (106) -0.1214 (107) -0.1840 (108)
          -0.2065 (109) -0.1431 (124) -0.1487 (131) -0.1550 (134)
 CRD 72=   0.1470 (  1) -0.1225 (  4) -0.1168 (  5)  0.1464 (  6)  0.1189 ( 15)
          -0.1068 ( 16) -0.1151 ( 28) -0.1100 ( 30)  0.1084 ( 31)  0.1001 ( 32)
          -0.1263 ( 40)  0.1200 ( 47)  0.1258 ( 74)  0.1791 ( 77) -0.1667 ( 78)
           0.1739 ( 80) -0.2109 ( 82) -0.1219 ( 83) -0.1296 ( 84)  0.2034 ( 85)
           0.2185 ( 87)  0.1807 ( 89)  0.2172 ( 90) -0.1104 ( 92)  0.1496 ( 95)
          -0.2189 ( 97) -0.1952 (101)  0.1125 (102)  0.1139 (104)  0.1277 (105)
          -0.1838 (106) -0.1923 (107) -0.1330 (108) -0.1248 (109)

 THE DETERMINANT OF THE G MATRIX IS 10**(   -24)


                     --------------------
                     INTERNAL COORDINATES
                     --------------------

                 - - ATOMS - -         COORDINATE      COORDINATE
 NO.   TYPE    I  J  K  L  M  N        (BOHR,RAD)       (ANG,DEG)
 ----------------------------------------------------------------
   1 STRETCH   1 10                     2.0955480       1.1089163
   2 STRETCH   1  2                     2.8936887       1.5312742
   3 STRETCH   1  5                     2.8740510       1.5208824
   4 STRETCH   1  9                     2.0949360       1.1085925
   5 STRETCH   2  4                     2.8745854       1.5211652
   6 STRETCH   2 11                     2.1135141       1.1184236
   7 STRETCH   2  3                     2.8907159       1.5297011
   8 STRETCH   3 13                     2.0954856       1.1088833
   9 STRETCH   3  6                     2.8579377       1.5123556
  10 STRETCH   3 12                     2.0947694       1.1085043
  11 STRETCH   4 15                     2.0734357       1.0972150
  12 STRETCH   4 14                     2.0751990       1.0981481
  13 STRETCH   4 16                     2.0848164       1.1032374
  14 STRETCH   5  7                     2.8708218       1.5191736
  15 STRETCH   5 18                     2.0948345       1.1085388
  16 STRETCH   5 17                     2.1060674       1.1144830
  17 STRETCH   6 21                     2.0761053       1.0986277
  18 STRETCH   6 20                     2.0753427       1.0982241
  19 STRETCH   6 19                     2.0738635       1.0974414
  20 STRETCH   7  8                     2.8573612       1.5120506
  21 STRETCH   7 23                     2.0944347       1.1083272
  22 STRETCH   7 22                     2.0943297       1.1082716
  23 STRETCH   8 26                     2.0750638       1.0980766
  24 STRETCH   8 25                     2.0737408       1.0973765
  25 STRETCH   8 24                     2.0751758       1.0981358
  26 BEND      1  2  3                  1.9207683     110.0519183
  27 BEND      1  5  7                  1.9482698     111.6276378
  28 BEND      1  2 11                  1.8891353     108.2394771
  29 BEND      1  5 17                  1.9036384     109.0704486
  30 BEND      1  5 18                  1.9203519     110.0280571
  31 BEND      1  2  4                  1.9215273     110.0954032
  32 BEND      2  1  9                  1.9208861     110.0586639
  33 BEND      2  1  5                  1.9459054     111.4921654
  34 BEND      2  4 14                  1.9516924     111.8237384
  35 BEND      2  3 13                  1.9105176     109.4645934
  36 BEND      2  3 12                  1.9163624     109.7994782
  37 BEND      2  4 15                  1.9512514     111.7984673
  38 BEND      2  4 16                  1.9237673     110.2237475
  39 BEND      2  3  6                  1.9641653     112.5383800
  40 BEND      2  1 10                  1.9132954     109.6237515
  41 BEND      3  2  4                  1.9437294     111.3674925
  42 BEND      3  2 11                  1.8925834     108.4370414
  43 BEND      3  6 20                  1.9496297     111.7055554
  44 BEND      3  6 21                  1.9523303     111.8602887
  45 BEND      3  6 19                  1.9398700     111.1463641
  46 BEND      4  2 11                  1.8948524     108.5670446
  47 BEND      5  1  9                  1.9144066     109.6874173
  48 BEND      5  1 10                  1.9226527     110.1598861
  49 BEND      5  7 23                  1.9184825     109.9209476
  50 BEND      5  7  8                  1.9453794     111.4620298
  51 BEND      5  7 22                  1.9164792     109.8061703
  52 BEND      6  3 12                  1.9208983     110.0593679
  53 BEND      6  3 13                  1.9059704     109.2040622
  54 BEND      7  5 18                  1.9199811     110.0068163
  55 BEND      7  8 24                  1.9489505     111.6666354
  56 BEND      7  8 26                  1.9478757     111.6050558
  57 BEND      7  5 17                  1.9287891     110.5114768
  58 BEND      7  8 25                  1.9425260     111.2985417
  59 BEND      8  7 22                  1.9201626     110.0172141
  60 BEND      8  7 23                  1.9187533     109.9364637
  61 BEND      9  1 10                  1.8440345     105.6553945
  62 BEND     12  3 13                  1.8418832     105.5321328
  63 BEND     14  4 16                  1.8731818     107.3254133
  64 BEND     14  4 15                  1.8772804     107.5602442
  65 BEND     15  4 16                  1.8834283     107.9124950
  66 BEND     17  5 18                  1.8397329     105.4089316
  67 BEND     19  6 20                  1.8741121     107.3787140
  68 BEND     19  6 21                  1.8726668     107.2959062
  69 BEND     20  6 21                  1.8710415     107.2027831
  70 BEND     22  7 23                  1.8418438     105.5298788
  71 BEND     24  8 25                  1.8741797     107.3825847
  72 BEND     24  8 26                  1.8716383     107.2369771
  73 BEND     25  8 26                  1.8746692     107.4106311
  74 TORSION   1  2  4 16              -0.8741821     -50.0869461
  75 TORSION   1  2  4 14               1.2080053      69.2136044
  76 TORSION   1  2  4 15              -2.9689824    -170.1101637
  77 TORSION   1  5  7 22              -0.9976190     -57.1593580
  78 TORSION   1  2  3 12              -1.2435623     -71.2508706
  79 TORSION   1  2  3  6               2.8935182     165.7863792
  80 TORSION   1  5  7 23               1.0212241      58.5118335
  81 TORSION   1  5  7  8              -3.1299912    -179.3352835
  82 TORSION   1  2  3 13               0.7707210      44.1590628
  83 TORSION   2  3  6 20              -1.0275340     -58.8733603
  84 TORSION   2  3  6 21               1.0699658      61.3045270
  85 TORSION   2  1  5 18               1.1268185      64.5619441
  86 TORSION   2  3  6 19              -3.1203826    -178.7847539
  87 TORSION   2  1  5 17              -0.8832153     -50.6045070
  88 TORSION   2  1  5  7              -3.0195687    -173.0085425
  89 TORSION   3  2  1 10               1.1526751      66.0434189
  90 TORSION   3  2  1  9              -0.8683578     -49.7532343
  91 TORSION   3  2  4 16              -3.0097047    -172.4433789
  92 TORSION   3  2  4 15               1.1786802      67.5334035
  93 TORSION   3  2  1  5              -2.9968290    -171.7056536
  94 TORSION   3  2  4 14              -0.9275173     -53.1428284
  95 TORSION   4  2  3  6              -1.2537070     -71.8321185
  96 TORSION   4  2  1  9              -3.0173800    -172.8831384
  97 TORSION   4  2  1  5               1.1373341      65.1644423
  98 TORSION   4  2  3 12               0.8923979      51.1306317
  99 TORSION   4  2  1 10              -0.9963471     -57.0864852
 100 TORSION   4  2  3 13               2.9066812     166.5405651
 101 TORSION   5  1  2 11              -0.9313363     -53.3616368
 102 TORSION   5  7  8 24               1.0485080      60.0750834
 103 TORSION   5  7  8 25              -3.1403895    -179.9310654
 104 TORSION   5  7  8 26              -1.0462088     -59.9433495
 105 TORSION   6  3  2 11               0.8301496      47.5640661
 106 TORSION   7  5  1 10              -0.8912857     -51.0669100
 107 TORSION   7  5  1  9               1.1314059      64.8247816
 108 TORSION   8  7  5 17               1.0313310      59.0909135
 109 TORSION   8  7  5 18              -0.9929805     -56.8935931
 110 TORSION   9  1  2 11               1.1971350      68.5907826
 111 TORSION   9  1  5 18              -1.0053922     -57.6047318
 112 TORSION   9  1  5 17              -3.0154260    -172.7711829
 113 TORSION  10  1  2 11              -3.0650175    -175.6125642
 114 TORSION  10  1  5 18              -3.0280838    -173.4964234
 115 TORSION  10  1  5 17               1.2450677      71.3371255
 116 TORSION  11  2  4 16               1.1909739      68.2377771
 117 TORSION  11  2  4 15              -0.9038264     -51.7854405
 118 TORSION  11  2  3 12               2.9762544     170.5268163
 119 TORSION  11  2  3 13              -1.2926476     -74.0632504
 120 TORSION  11  2  4 14              -3.0100240    -172.4616724
 121 TORSION  12  3  6 19               1.0192410      58.3982095
 122 TORSION  12  3  6 21              -1.0735958     -61.5125097
 123 TORSION  12  3  6 20               3.1120897     178.3096030
 124 TORSION  13  3  6 19              -0.9950024     -57.0094362
 125 TORSION  13  3  6 21              -3.0878392    -176.9201554
 126 TORSION  13  3  6 20               1.0978463      62.9019574
 127 TORSION  17  5  7 22              -3.1194821    -178.7331610
 128 TORSION  17  5  7 23              -1.1006390     -63.0619695
 129 TORSION  18  5  7 22               1.1393916      65.2823324
 130 TORSION  18  5  7 23              -3.1249505    -179.0464762
 131 TORSION  22  7  8 25               1.0125493      58.0148028
 132 TORSION  22  7  8 26               3.1067300     178.0025187
 133 TORSION  22  7  8 24              -1.0817385     -61.9790483
 134 TORSION  23  7  8 25              -1.0085757     -57.7871334
 135 TORSION  23  7  8 26               1.0856050      62.2005824
 136 TORSION  23  7  8 24              -3.1028635    -177.7809846

     ------------------------------------------
     THE POINT GROUP IS C1 , NAXIS= 1, ORDER= 1
     ------------------------------------------

     DIMENSIONS OF THE SYMMETRY SUBSPACES ARE
 A   =  260

 ..... DONE SETTING UP THE RUN .....
 STEP CPU TIME =     0.02 TOTAL CPU TIME =        0.0 (    0.0 MIN)
 TOTAL WALL CLOCK TIME=        0.0 SECONDS, CPU UTILIZATION IS  66.67%


          -----------------------------
          STATIONARY POINT LOCATION RUN
          -----------------------------

 OBTAINING INITIAL HESSIAN, HESS=GUESS   
 DIAGONAL GUESS HESSIAN IN INTERNAL COORDS IS
     1  0.3339     2  0.3663     3  0.3737     4  0.3341     5  0.3735
     6  0.3277     7  0.3674     8  0.3339     9  0.3800    10  0.3341
    11  0.3415    12  0.3409    13  0.3376    14  0.3750    15  0.3341
    16  0.3303    17  0.3406    18  0.3409    19  0.3414    20  0.3802
    21  0.3342    22  0.3343    23  0.3410    24  0.3414    25  0.3409
    26  0.2484    27  0.2499    28  0.2223    29  0.2232    30  0.2235
    31  0.2490    32  0.2229    33  0.2490    34  0.2241    35  0.2230
    36  0.2230    37  0.2242    38  0.2238    39  0.2498    40  0.2229
    41  0.2491    42  0.2224    43  0.2246    44  0.2246    45  0.2247
    46  0.2229    47  0.2235    48  0.2235    49  0.2236    50  0.2505
    51  0.2236    52  0.2240    53  0.2240    54  0.2236    55  0.2247
    56  0.2247    57  0.2233    58  0.2247    59  0.2241    60  0.2241
    61  0.2015    62  0.2015    63  0.2023    64  0.2026    65  0.2024
    66  0.2013    67  0.2026    68  0.2026    69  0.2026    70  0.2016
    71  0.2026    72  0.2026    73  0.2026    74  0.2500    75  0.2500
    76  0.2500    77  0.2500    78  0.2500    79  0.2500    80  0.2500
    81  0.2500    82  0.2500    83  0.2500    84  0.2500    85  0.2500
    86  0.2500    87  0.2500    88  0.2500    89  0.2500    90  0.2500
    91  0.2500    92  0.2500    93  0.2500    94  0.2500    95  0.2500
    96  0.2500    97  0.2500    98  0.2500    99  0.2500   100  0.2500
   101  0.2500   102  0.2500   103  0.2500   104  0.2500   105  0.2500
   106  0.2500   107  0.2500   108  0.2500   109  0.2500   110  0.2500
   111  0.2500   112  0.2500   113  0.2500   114  0.2500   115  0.2500
   116  0.2500   117  0.2500   118  0.2500   119  0.2500   120  0.2500
   121  0.2500   122  0.2500   123  0.2500   124  0.2500   125  0.2500
   126  0.2500   127  0.2500   128  0.2500   129  0.2500   130  0.2500
   131  0.2500   132  0.2500   133  0.2500   134  0.2500   135  0.2500
   136  0.2500
 TRANSFORMING HESSIAN TO SYMMETRY COORDINATES

          PARAMETERS CONTROLLING GEOMETRY SEARCH ARE
          METHOD =QA                  UPHESS =BFGS    
          NNEG   =         0          NFRZ   =         3
          NSTEP  =        50          IFOLOW =         1
          HESS   =GUESS               RESTAR =         F
          IHREP  =         0          HSSEND =         F
          NPRT   =         0          NPUN   =         0
          OPTTOL = 5.000E-04          RMIN   = 1.500E-03
          RMAX   = 1.000E-01          RLIM   = 7.000E-02
          DXMAX  = 3.000E-01          PURIFY =         F
          MOVIE  =         F          TRUPD  =         T
          TRMAX  = 5.000E-01          TRMIN  = 5.000E-02
          ITBMAT =         5          STPT   =         F
          STSTEP = 1.000E-02          PROJCT=          F
          FROZEN COORD(S)=   1   2   3


      ***** EQUILIBRIUM GEOMETRY LOCATED *****
            (SUBJECT TO   3 CONSTRAINT(S))
 COORDINATES OF ALL ATOMS ARE (ANGS)
   ATOM   CHARGE       X              Y              Z
 ------------------------------------------------------------
 C           6.0   4.6159303260   2.7447688023   1.9571224980
 C           6.0   3.3595787835   2.0127099972   1.4528944881
 C           6.0   2.0931529711   2.8297020086   1.7540566769
 C           6.0   3.2787092270   0.5943342192   2.0337627052
 C           6.0   5.9152427071   2.1378484741   1.4251602784
 C           6.0   0.8080614420   2.2851751051   1.1255650849
 C           6.0   7.2000384872   2.7760571294   1.9489899697
 C           6.0   8.4307757209   2.0071595208   1.4675950947
 H           1.0   4.5644613938   3.7910794982   1.6588760596
 H           1.0   4.6227021412   2.7346264692   3.0476879559
 H           1.0   3.4423417570   1.9290419565   0.3681942940
 H           1.0   1.9630989641   2.9022551248   2.8337176555
 H           1.0   2.2463446089   3.8448425758   1.3939406520
 H           1.0   3.1885765023   0.6303819021   3.1179735197
 H           1.0   2.4282743437   0.0455818527   1.6448874053
 H           1.0   4.1636464680   0.0152610286   1.7957265766
 H           1.0   5.9480498650   1.0805440497   1.6682617609
 H           1.0   5.9086553954   2.1989379739   0.3371072917
 H           1.0  -0.0268773675   2.9500851649   1.3293119125
 H           1.0   0.9076189075   2.2018993362   0.0454475863
 H           1.0   0.5452239463   1.3054282327   1.5111788193
 H           1.0   7.2614439636   3.8140030028   1.6263009680
 H           1.0   7.1847811291   2.7877161457   3.0377397413
 H           1.0   8.4758843605   1.9905274793   0.3810815821
 H           1.0   9.3538875792   2.4441191080   1.8360861960
 H           1.0   8.3893588117   0.9748869732   1.8081793693


                     --------------------
                     INTERNAL COORDINATES
                     --------------------

                 - - ATOMS - -         COORDINATE      COORDINATE
 NO.   TYPE    I  J  K  L  M  N        (BOHR,RAD)       (ANG,DEG)
 ----------------------------------------------------------------
   1 STRETCH   1 10                     2.0609987       1.0906336
   2 STRETCH   1  2                     2.9083216       1.5390176
   3 STRETCH   1  5                     2.8904462       1.5295584
   4 STRETCH   1  9                     2.0582977       1.0892043
   5 STRETCH   2  4                     2.9004294       1.5348412
   6 STRETCH   2 11                     2.0618154       1.0910658
   7 STRETCH   2  3                     2.9042875       1.5368829
   8 STRETCH   3 13                     2.0559503       1.0879621
   9 STRETCH   3  6                     2.8925597       1.5306768
  10 STRETCH   3 12                     2.0595810       1.0898834
  11 STRETCH   4 15                     2.0489307       1.0842475
  12 STRETCH   4 14                     2.0570572       1.0885479
  13 STRETCH   4 16                     2.0485021       1.0840207
  14 STRETCH   5  7                     2.8860317       1.5272223
  15 STRETCH   5 18                     2.0593979       1.0897865
  16 STRETCH   5 17                     2.0510861       1.0853881
  17 STRETCH   6 21                     2.0507536       1.0852122
  18 STRETCH   6 20                     2.0558103       1.0878880
  19 STRETCH   6 19                     2.0534123       1.0866191
  20 STRETCH   7  8                     2.8892784       1.5289404
  21 STRETCH   7 23                     2.0577587       1.0889191
  22 STRETCH   7 22                     2.0573124       1.0886829
  23 STRETCH   8 26                     2.0556359       1.0877958
  24 STRETCH   8 25                     2.0517716       1.0857508
  25 STRETCH   8 24                     2.0552219       1.0875767
  26 BEND      1  2  3                  1.9343696     110.8312159
  27 BEND      1  5  7                  2.0147591     115.4371940
  28 BEND      1  2 11                  1.8757736     107.4739117
  29 BEND      1  5 17                  1.9116667     109.5304358
  30 BEND      1  5 18                  1.8963752     108.6542973
  31 BEND      1  2  4                  1.9375545     111.0136935
  32 BEND      2  1  9                  1.9056677     109.1867175
  33 BEND      2  1  5                  1.9722561     113.0019484
  34 BEND      2  4 14                  1.9291225     110.5305780
  35 BEND      2  3 13                  1.8913793     108.3680491
  36 BEND      2  3 12                  1.9048079     109.1374548
  37 BEND      2  4 15                  1.9533598     111.9192698
  38 BEND      2  4 16                  1.9471578     111.5639215
  39 BEND      2  3  6                  2.0067177     114.9764576
  40 BEND      2  1 10                  1.9052514     109.1628661
  41 BEND      3  2  4                  1.9537640     111.9424342
  42 BEND      3  2 11                  1.8734815     107.3425851
  43 BEND      3  6 20                  1.9369901     110.9813567
  44 BEND      3  6 21                  1.9590912     112.2476568
  45 BEND      3  6 19                  1.9288272     110.5136586
  46 BEND      4  2 11                  1.8853351     108.0217428
  47 BEND      5  1  9                  1.9029476     109.0308673
  48 BEND      5  1 10                  1.9164396     109.8039011
  49 BEND      5  7 23                  1.9130689     109.6107732
  50 BEND      5  7  8                  1.9380309     111.0409910
  51 BEND      5  7 22                  1.9221814     110.1328803
  52 BEND      6  3 12                  1.9073591     109.2836247
  53 BEND      6  3 13                  1.8904505     108.3148336
  54 BEND      7  5 18                  1.9008663     108.9116157
  55 BEND      7  8 24                  1.9343789     110.8317473
  56 BEND      7  8 26                  1.9262321     110.3649681
  57 BEND      7  5 17                  1.8805509     107.7476296
  58 BEND      7  8 25                  1.9553381     112.0326199
  59 BEND      8  7 22                  1.9184918     109.9214850
  60 BEND      8  7 23                  1.9086570     109.3579890
  61 BEND      9  1 10                  1.8577482     106.4411292
  62 BEND     12  3 13                  1.8572834     106.4145012
  63 BEND     14  4 16                  1.8796803     107.6977486
  64 BEND     14  4 15                  1.8849851     108.0016895
  65 BEND     15  4 16                  1.8662652     106.9291176
  66 BEND     17  5 18                  1.8529335     106.1652690
  67 BEND     19  6 20                  1.8789758     107.6573844
  68 BEND     19  6 21                  1.8751859     107.4402398
  69 BEND     20  6 21                  1.8816302     107.8094704
  70 BEND     22  7 23                  1.8618266     106.6748075
  71 BEND     24  8 25                  1.8859343     108.0560772
  72 BEND     24  8 26                  1.8753388     107.4489974
  73 BEND     25  8 26                  1.8839046     107.9397828
  74 TORSION   1  2  4 16              -0.9957496     -57.0522467
  75 TORSION   1  2  4 14               1.0952347      62.7523259
  76 TORSION   1  2  4 15              -3.0861361    -176.8225727
  77 TORSION   1  5  7 22              -1.1124659     -63.7396006
  78 TORSION   1  2  3 12              -1.1316751     -64.8402045
  79 TORSION   1  2  3  6               3.0016174     171.9800076
  80 TORSION   1  5  7 23               0.9307586      53.3285400
  81 TORSION   1  5  7  8               3.0414901     174.2645463
  82 TORSION   1  2  3 13               0.8840498      50.6523244
  83 TORSION   2  3  6 20              -0.9935987     -56.9290124
  84 TORSION   2  3  6 21               1.1133019      63.7874999
  85 TORSION   2  1  5 18               1.0547280      60.4314624
  86 TORSION   2  3  6 19              -3.0768796    -176.2922161
  87 TORSION   2  1  5 17              -0.9622614     -55.1335149
  88 TORSION   2  1  5  7              -3.0879700    -176.9276467
  89 TORSION   3  2  1 10               1.2209267      69.9539475
  90 TORSION   3  2  1  9              -0.8034439     -46.0339432
  91 TORSION   3  2  4 16               3.1156533     178.5137848
  92 TORSION   3  2  4 15               1.0252668      58.7434588
  93 TORSION   3  2  1  5              -2.9243710    -167.5541184
  94 TORSION   3  2  4 14              -1.0765478     -61.6816426
  95 TORSION   4  2  3  6              -1.1080128     -63.4844596
  96 TORSION   4  2  1  9              -2.9861763    -171.0952991
  97 TORSION   4  2  1  5               1.1760818      67.3845257
  98 TORSION   4  2  3 12               1.0418800      59.6953282
  99 TORSION   4  2  1 10              -0.9618057     -55.1074084
 100 TORSION   4  2  3 13               3.0576049     175.1878571
 101 TORSION   5  1  2 11              -0.8821693     -50.5445784
 102 TORSION   5  7  8 24               1.0396565      59.5679310
 103 TORSION   5  7  8 25              -3.1355277    -179.6525026
 104 TORSION   5  7  8 26              -1.0357447     -59.3438006
 105 TORSION   6  3  2 11               0.9580082      54.8898287
 106 TORSION   7  5  1 10              -0.9563408     -54.7942913
 107 TORSION   7  5  1  9               1.0727542      61.4642875
 108 TORSION   8  7  5 17               0.8991596      51.5180528
 109 TORSION   8  7  5 18              -1.1035987     -63.2315485
 110 TORSION   9  1  2 11               1.2387579      70.9755968
 111 TORSION   9  1  5 18              -1.0677332     -61.1766034
 112 TORSION   9  1  5 17              -3.0847225    -176.7415807
 113 TORSION  10  1  2 11              -3.0200569    -173.0365125
 114 TORSION  10  1  5 18              -3.0968281    -177.4351822
 115 TORSION  10  1  5 17               1.1693678      66.9998405
 116 TORSION  11  2  4 16               1.0566881      60.5437680
 117 TORSION  11  2  4 15              -1.0336984     -59.2265580
 118 TORSION  11  2  3 12               3.1079011     178.0696166
 119 TORSION  11  2  3 13              -1.1595593     -66.4378545
 120 TORSION  11  2  4 14              -3.1355130    -179.6516594
 121 TORSION  12  3  6 19               1.0577743      60.6060039
 122 TORSION  12  3  6 21              -1.0352295     -59.3142800
 123 TORSION  12  3  6 20               3.1410552     179.9692077
 124 TORSION  13  3  6 19              -0.9588065     -54.9355648
 125 TORSION  13  3  6 21              -3.0518103    -174.8558488
 126 TORSION  13  3  6 20               1.1244744      64.4276389
 127 TORSION  17  5  7 22               3.0283890     173.5139059
 128 TORSION  17  5  7 23              -1.2115718     -69.4179535
 129 TORSION  18  5  7 22               1.0256306      58.7643047
 130 TORSION  18  5  7 23               3.0688551     175.8324453
 131 TORSION  22  7  8 25               1.0162809      58.2286044
 132 TORSION  22  7  8 26               3.1160638     178.5373064
 133 TORSION  22  7  8 24              -1.0917202     -62.5509620
 134 TORSION  23  7  8 25              -1.0221993     -58.5677075
 135 TORSION  23  7  8 26               1.0775836      61.7409945
 136 TORSION  23  7  8 24              -3.1302004    -179.3472739

          INTERNUCLEAR DISTANCES (ANGS.)


 =====================================================
   GAMESS/COSab RESULTS
 =====================================================

   Dielectric Constant                  = INFTY
   Basic Grid Size                      =                 1082
   Number of Segments                   =                   92
   Number of Segments located on spheres=                  301
   Number of Segments of the cavity     =                  850
   Solvent Radius (rsolv)               = 1.40
   Outlying Charge Error Method         = double cavity

 =====================================================

  Total solvated Energy (a.u.)          =  -313.5129395963
  Total Energy corrected (a.u.)         =  -313.5128361374

  Outlying charge effect (a.u.)         =     0.0001034589
  Outlying charge effect (kcal/mol)     =     0.0649214902

  Dielectric Energy (a.u.)              =    -0.0014843454
  Dielectric energy corr. (a.u.)        =    -0.0013808865

  Sum of polarization charges           =     0.0326251641
  Sum of polarization charges(cor.)     =    -0.0326251641

  Total surface area of cavity (A**2)   =  188.98
  Total volume of cavity (A**3)         =  188.01

 =====================================================
 NPS=                   850
NR.  ATOM  (X, Y, Z)(a.u.)                  CHARGE(e)  AREA(A**2) SIGMA(e/A**2)
   1   1   9.613957   7.915019   6.157543   0.001677   0.325193   0.005155
   2   1   9.382833   8.445394   5.495804   0.001491   0.278737   0.005349
   3   1   8.920231   7.028119   0.403717   0.000304   0.139368   0.002182
   4   1   8.245821   6.633767   0.239638   0.000066   0.046456   0.001423
   5   1   7.468220   7.808297   6.114654   0.001175   0.232280   0.005059
   6   1   8.400499   8.072220   6.118130   0.002025   0.325193   0.006227
   7   1   7.725500   8.361766   5.489921   0.000647   0.139368   0.004639
   8   1   8.359451   7.001987   0.403345   0.000112   0.046456   0.002411
   9   2   6.643162   6.288356  -0.086893   0.000174   0.092912   0.001873
  10   3   2.993553   8.651010   4.878279   0.001892   0.371649   0.005091
  11   3   4.551338   6.723636  -0.154467   0.000205   0.092912   0.002204
  12   3   5.036815   7.024471   0.104980   0.000067   0.046456   0.001437
  13   3   3.143612   8.200435   5.656710   0.001506   0.278737   0.005402
  14   3   5.128122   8.348179   5.290599   0.000889   0.185824   0.004784
  15   3   4.246461   8.563645   5.278119   0.001973   0.325193   0.006066
  16   3   1.929493   8.008857   5.074245   0.001489   0.418105   0.003562
  17   3   2.015552   8.535782   3.910396   0.001047   0.325193   0.003218
  18   3   4.255506   6.977774  -0.081773   0.000101   0.046456   0.002184
  19   3   1.538196   7.120409   5.616272   0.000442   0.185824   0.002376
  20   3   4.778922   8.011381   5.865995   0.000643   0.139368   0.004615
  21   4   6.186675  -2.413317   2.509955   0.002348   0.418105   0.005615
  22   4   4.061821  -1.468292   5.579552   0.001492   0.325193   0.004587
  23   4   7.895029  -1.563055   5.888128   0.001506   0.325193   0.004631
  24   4   7.563264   0.046926   0.488234   0.000519   0.185824   0.002794
  25   4   5.312844  -0.008416   0.346958   0.000722   0.232280   0.003107
  26   4   6.419963  -0.292259   0.346022   0.001038   0.325193   0.003190
  27   4   6.533888  -1.391620   1.042190   0.001614   0.325193   0.004962
  28   4   7.661676  -0.979487   6.620784   0.001478   0.325193   0.004545
  29   4   4.168198  -0.839693   6.357265   0.001291   0.278737   0.004633
  30   4   3.309232   1.149886   6.282724   0.000404   0.092912   0.004353
  31   4   5.846897  -1.820056   1.498025   0.001047   0.232280   0.004508
  32   4   6.734112  -1.970299   1.739641   0.000889   0.185824   0.004781
  33   4   3.378803  -0.641986   5.641279   0.001502   0.278737   0.005387
  34   4   5.155155  -1.808190   5.990022   0.001602   0.464561   0.003449
  35   4   6.660808  -1.896559   6.068023   0.001352   0.418105   0.003235
  36   4   8.668587  -0.551742   6.159434   0.001952   0.371649   0.005252
  37   4   8.918226   0.422953   6.369663   0.000891   0.185824   0.004794
  38   4   4.756247  -2.232739   4.817910   0.001359   0.418105   0.003250
  39   4   5.620692  -2.610123   3.715711   0.001556   0.418105   0.003722
  40   4   6.741843  -2.613093   3.679581   0.001538   0.418105   0.003679
  41   4   7.142965  -2.325759   5.064902   0.001557   0.464561   0.003351
  42   4   5.699226  -0.803548   0.629928   0.000878   0.232280   0.003781
  43   4   7.253290  -0.606599   0.653574   0.000870   0.232280   0.003745
  44   4   6.009577  -1.516545   6.541722   0.000718   0.232280   0.003091
  45   4   3.351023   0.201667   6.154565   0.000986   0.185824   0.005305
  46   4   8.479667   0.432471   6.774379   0.000790   0.185824   0.004250
  47   4   5.943540  -2.477084   4.965340   0.001100   0.418105   0.002630
  48   5  11.999218   1.485469   0.031445   0.000999   0.185824   0.005375
  49   5  11.071128   7.005216   0.352217   0.000205   0.092912   0.002210
  50   5  10.598566   6.701445   0.073092   0.000080   0.046456   0.001718
  51   5  11.800888   0.949963   0.607874   0.001000   0.185824   0.005382
  52   5  11.555501   2.053597   5.886323   0.000256   0.139368   0.001835
  53   5  11.133940   2.663862   6.212917   0.000042   0.046456   0.000906
  54   5  10.431666   1.416877   0.076600   0.000762   0.139368   0.005471
  55   5  11.116874   1.243835   0.151080   0.001732   0.278737   0.006212
  56   5  11.384471   6.845250   0.168875   0.000125   0.046456   0.002681
  57   6   0.323842   1.409486   0.035333   0.001770   0.325193   0.005442
  58   6  -0.202578   4.298474   5.487408   0.001067   0.325193   0.003281
  59   6   1.298354   7.527295   0.143395   0.000683   0.232280   0.002940
  60   6  -1.042221   4.796041  -0.603395   0.001875   0.418105   0.004484
  61   6  -1.902272   2.783031   2.535603   0.001546   0.371649   0.004160
  62   6   2.127733   1.450334  -0.260016   0.000434   0.092912   0.004675
  63   6  -2.118992   3.707954   2.913274   0.001370   0.325193   0.004213
  64   6  -1.364942   5.583955   0.048767   0.001207   0.278737   0.004328
  65   6   0.623863   7.750844   0.828310   0.001323   0.371649   0.003559
  66   6  -0.769630   4.855356   5.080180   0.000602   0.185824   0.003239
  67   6   1.334167   1.392533  -0.257662   0.000906   0.185824   0.004875
  68   6   1.113328   1.038294   0.295526   0.001099   0.232280   0.004731
  69   6   0.664361   6.980090  -0.413719   0.001967   0.418105   0.004706
  70   6  -0.434796   6.004873  -0.628210   0.002016   0.371649   0.005424
  71   6  -1.765252   4.228820   0.273043   0.001538   0.464561   0.003311
  72   6  -2.017419   3.202396   1.437211   0.001411   0.464561   0.003036
  73   6  -1.632738   3.166950   3.851651   0.001923   0.371649   0.005174
  74   6  -0.801254   3.469180   4.980467   0.001716   0.371649   0.004618
  75   6   0.453430   3.273706   5.596921   0.001326   0.418105   0.003172
  76   6   1.828973   7.079212  -0.436351   0.000838   0.278737   0.003007
  77   6  -1.080378   3.371810  -0.440052   0.001172   0.371649   0.003153
  78   6  -0.470534   2.222601  -0.302367   0.001539   0.418105   0.003681
  79   6  -0.600740   1.565294   0.651358   0.001496   0.418105   0.003579
  80   6  -1.457945   2.074469   1.544611   0.000970   0.325193   0.002984
  81   6  -2.158657   4.168416   1.303879   0.000807   0.278737   0.002894
  82   6  -0.205523   6.811769  -0.123652   0.001344   0.278737   0.004822
  83   6  -0.099969   5.405067   5.360607   0.000675   0.232280   0.002904
  84   6  -1.434400   4.072367   4.462319   0.001484   0.325193   0.004562
  85   6   2.569996   6.708677  -0.608478   0.000330   0.139368   0.002371
  86   6  -1.462332   2.735475   0.441032   0.001050   0.418105   0.002513
  87   7  14.888750   7.865889   6.086206   0.001581   0.325193   0.004861
  88   7  13.409298   2.469339   6.239576   0.000187   0.092912   0.002015
  89   7  14.561408   8.463795   5.420093   0.001373   0.278737   0.004926
  90   7  12.346869   8.484691   5.169433   0.000497   0.139368   0.003568
  91   7  14.101679   6.926528   0.334261   0.000354   0.185824   0.001904
  92   7  12.506457   8.049100   5.967248   0.001322   0.278737   0.004741
  93   7  13.707031   8.114892   6.141387   0.001536   0.278737   0.005509
  94   7  15.729490   7.896553   5.341346   0.001317   0.371649   0.003543
  95   7  16.291172   7.647911   4.825585   0.000320   0.139368   0.002295
  96   7  15.838806   6.978494   6.192572   0.001085   0.325193   0.003338
  97   7  13.725499   2.634808   6.412852   0.000095   0.046456   0.002053
  98   7  16.037057   8.088602   4.225463   0.000447   0.185824   0.002406
  99   7  13.232930   8.489571   5.586762   0.000995   0.185824   0.005354
 100   7  13.492886   7.006842   0.340780   0.000111   0.046456   0.002396
 101   8  18.834571   1.971693   4.367528   0.002274   0.418105   0.005439
 102   8  16.927118   6.885577   0.842164   0.000899   0.278737   0.003225
 103   8  19.294655   4.085796   1.073352   0.001889   0.418105   0.004517
 104   8  17.334495   0.636807   1.238628   0.001496   0.371649   0.004025
 105   8  15.735624   2.314529   6.246105   0.000763   0.278737   0.002737
 106   8  17.284574   4.250678   6.272633   0.000768   0.232280   0.003306
 107   8  16.854505   3.106809   6.373658   0.001220   0.371649   0.003283
 108   8  17.752505   2.466681   5.808225   0.001279   0.278737   0.004587
 109   8  17.072999   1.131561   0.344601   0.001451   0.325193   0.004463
 110   8  18.750011   4.117496   0.275986   0.001192   0.278737   0.004276
 111   8  17.293834   6.290965   0.285530   0.001065   0.278737   0.003820
 112   8  18.511023   2.685360   5.304228   0.001060   0.232280   0.004565
 113   8  17.988424   1.847464   5.277302   0.001345   0.278737   0.004827
 114   8  16.230572   6.581523   0.239780   0.000553   0.185824   0.002979
 115   8  18.128556   6.398516   1.139379   0.001459   0.325193   0.004487
 116   8  18.827937   5.279917   0.853483   0.001796   0.325193   0.005522
 117   8  18.990331   2.802606   0.786131   0.001518   0.464561   0.003268
 118   8  18.272978   1.418873   0.993761   0.001428   0.464561   0.003074
 119   8  16.089959   0.648247   0.682927   0.002100   0.371649   0.005649
 120   8  15.043417   0.656099   0.861574   0.001403   0.278737   0.005033
 121   8  17.504758   7.071795   1.744006   0.001017   0.325193   0.003127
 122   8  19.538914   3.015805   1.955242   0.001261   0.418105   0.003017
 123   8  19.341945   2.205774   3.142499   0.001496   0.418105   0.003579
 124   8  18.688481   1.266295   3.322082   0.001695   0.464561   0.003648
 125   8  18.162178   0.817138   2.099384   0.000971   0.325193   0.002987
 126   8  17.732663   3.461028   6.079587   0.000833   0.232280   0.003586
 127   8  16.811336   2.078002   6.024456   0.000962   0.278737   0.003453
 128   8  18.260215   2.125469   0.307117   0.000823   0.278737   0.002951
 129   8  18.165232   5.706300   0.399452   0.001373   0.278737   0.004927
 130   8  15.497809   6.372943   0.045789   0.000121   0.092912   0.001300
[...]
 591   6   1.374697   3.401564   5.884313   0.000758   0.303435   0.002500
 592   6   1.084943   8.082802   2.312045   0.000036   0.025522   0.001428
 593  13   1.766293   8.362541   2.418575   0.000051   0.025522   0.001991
 594  19   0.797610   8.029015   2.389563  -0.000022   0.025522  -0.000861
 595  13   3.462440   7.876155   0.362390  -0.000181   0.219630  -0.000822
 596  13   2.570405   8.500601   1.514032  -0.001299   0.453115  -0.002867
 597   6   2.251935   7.563752   0.370346   0.000889   0.598451   0.001485
 598   6   1.332717   8.165732   1.798224   0.000798   0.309480   0.002578
 599   6   1.570997   0.565372   1.178250   0.000092   0.083490   0.001096
 600  15   2.301040  -0.043139   1.543039  -0.000189   0.083490  -0.002266
 601  21   1.481734   0.420631   1.431757  -0.000177   0.083490  -0.002115
 602  15   2.859653  -0.347821   1.241711  -0.000702   0.243682  -0.002883
 603  15   3.626207   0.084218   0.713369  -0.000271   0.243682  -0.001110
 604   6   2.296890   0.877810   0.430548   0.002105   0.683657   0.003079
 605  19   0.233956   7.983561   2.120155  -0.000093   0.068517  -0.001360
 606  19  -0.292569   7.594938   1.230729  -0.000257   0.151818  -0.001694
 607  19  -1.131026   6.708520   0.687523  -0.000120   0.151818  -0.000789
 608  19  -1.899388   5.655047   0.976714  -0.000239   0.151818  -0.001577
 609  19  -2.285067   4.863099   1.980650  -0.000280   0.151818  -0.001845
 610  19  -2.131157   4.654861   3.290905  -0.000166   0.151818  -0.001093
 611  19  -1.500274   5.115051   4.374432  -0.000200   0.151818  -0.001318
 612  19  -0.649076   6.056450   4.790423  -0.000307   0.151818  -0.002019
 613   6   0.424814   7.842819   1.573622  -0.000132   0.150487  -0.000880
 614   6  -0.408427   7.104844   0.567371   0.000132   0.150487   0.000875
 615   6  -1.360746   5.955122   0.416823   0.000099   0.150487   0.000658
 616   6  -2.044716   4.861389   1.183225  -0.000036   0.150487  -0.000236
 617   6  -2.182079   4.268606   2.554785   0.000001   0.150487   0.000006
 618   6  -1.716953   4.417931   3.973516   0.000111   0.150487   0.000735
 619   6  -0.838563   5.248616   4.862241  -0.000093   0.150487  -0.000615
 620   6  -0.062957   6.176817   5.011539   0.000044   0.083708   0.000523
 621  20   2.575419   2.062110  -0.860150  -0.000033   0.067672  -0.000485
 622  20   1.491739   2.002863  -0.955458  -0.000102   0.149453  -0.000679
 623  20   0.326321   2.600417  -1.108939  -0.000203   0.149453  -0.001355
 624  20  -0.247972   3.778697  -1.252714  -0.000224   0.149453  -0.001501
 625  20  -0.004317   5.072331  -1.329997  -0.000123   0.149453  -0.000823
 626  20   0.961051   5.970385  -1.310265  -0.000185   0.149453  -0.001235
 627  20   2.266852   6.118167  -1.201311  -0.000292   0.149453  -0.001951
 628   6   2.167254   1.778793  -0.537314   0.000116   0.149117   0.000776
 629   6   0.710532   2.002700  -0.688834   0.000065   0.149117   0.000434
 630   6  -0.318962   3.053571  -0.864739   0.000006   0.149117   0.000039
 631   6  -0.514621   4.516355  -0.995552   0.000039   0.149117   0.000259
 632   6   0.200832   5.813312  -1.029609   0.000059   0.149117   0.000395
 633   6   1.544823   6.432198  -0.953457   0.000047   0.149117   0.000314
 634   6   2.737564   6.334038  -0.835961   0.000007   0.082677   0.000089
 635  21   0.889190   2.149989   5.288994  -0.000115   0.066827  -0.001715
 636  21  -0.129805   2.293175   4.958237  -0.000199   0.147459  -0.001353
 637  21  -1.048942   2.176053   4.034164  -0.000143   0.147459  -0.000971
 638  21  -1.269375   1.755273   2.814823  -0.000217   0.147459  -0.001472
 639  21  -0.705170   1.194875   1.775560  -0.000299   0.147459  -0.002027
 640  21   0.423722   0.713322   1.321523  -0.000178   0.147459  -0.001204
 641   6   0.536425   2.621330   5.305576  -0.000092   0.147358  -0.000621
 642   6  -0.751970   2.689379   4.600288   0.000127   0.147358   0.000864
 643   6  -1.425877   2.371280   3.332737   0.000080   0.147358   0.000544
 644   6  -1.222580   1.791041   1.997067  -0.000070   0.147358  -0.000478
 645   6  -0.221334   1.174863   1.113975  -0.000077   0.147358  -0.000525
 646   6   0.890445   0.795001   0.906644   0.000168   0.081644   0.002061
 647   7  14.781200   7.121190   0.609784   0.000034   0.027458   0.001241
 648   8  15.177950   6.845388   0.487164   0.000067   0.027458   0.002444
 649  22  14.721961   7.390436   0.737984   0.000010   0.027458   0.000362
 650   7  16.309741   7.872575   3.317549   0.000049   0.027458   0.001788
 651   8  16.686418   7.586906   3.159372   0.000108   0.027458   0.003915
 652  22  16.113408   8.074430   3.202893   0.000014   0.027458   0.000519
 653   7  16.132346   5.603330   6.482164   0.000041   0.028173   0.001462
 654   8  16.511116   5.341524   6.291049   0.000071   0.028173   0.002505
 655  23  15.918983   5.564198   6.695402   0.000020   0.028173   0.000726
 656   7  14.400437   2.827721   6.487638   0.000047   0.028173   0.001681
 657   8  14.801739   2.602026   6.296451   0.000096   0.028173   0.003411
 658  23  14.342184   3.037174   6.700385   0.000011   0.028173   0.000404
 659   7  14.699052   6.385754   0.129776   0.000033   0.026182   0.001247
 660   8  15.099661   6.160016  -0.062661   0.000006   0.026182   0.000233
 661  24  15.174374   5.952317  -0.270913  -0.000026   0.026182  -0.001007
 662   7  16.792076   7.476777   3.724778   0.000093   0.024323   0.003804
 663   8  17.216047   7.263732   3.572168   0.000044   0.024323   0.001794
 664  25  17.480753   7.152676   3.667647   0.000001   0.024323   0.000031
 665   7  16.657484   5.820892   6.025526   0.000055   0.024323   0.002273
 666   8  17.079603   5.585065   5.904571   0.000032   0.024323   0.001301
 667  25  17.356607   5.625314   5.789822   0.000004   0.024323   0.000184
 668   7  14.394748   2.226068   6.001205   0.000047   0.026819   0.001750
 669   8  14.791807   1.950493   5.879150   0.000010   0.026819   0.000379
 670  26  14.856625   1.680892   5.755542  -0.000019   0.026819  -0.000715
 671   8  14.905806   2.220887   6.114648   0.000139   0.073847   0.001888
 672   7  14.278189   2.523810   6.295815   0.000166   0.073847   0.002247
 673   8  15.192701   6.440341   0.108639   0.000172   0.096172   0.001787
 674   7  14.685717   6.873378   0.390394   0.000173   0.096172   0.001800
 675   8  17.053679   7.420336   3.301180   0.000202   0.068660   0.002942
 676   7  16.497611   7.761486   3.604210   0.000189   0.068660   0.002753
 677   8  16.917484   5.461732   6.081346   0.000167   0.065074   0.002570
 678   7  16.317675   5.757692   6.344726   0.000165   0.065074   0.002531
 679   7  11.815653   8.559571   4.458745   0.000117   0.090202   0.001298
 680   9  10.822304   8.622948   4.202284   0.000247   0.090202   0.002736
 681  22  11.956836   8.715221   4.234813   0.000025   0.090202   0.000275
 682   9  10.220683   8.818547   4.388488   0.000038   0.036889   0.001040
 683   7  11.693894   8.631058   4.698329   0.000220   0.052568   0.004191
 684   7  13.400326   1.832775   5.478819   0.000043   0.164378   0.000265
 685  17  12.893634   1.390667   5.157450  -0.000105   0.164378  -0.000641
 686  26  13.921858   1.347290   5.214556  -0.000177   0.164378  -0.001078
 687  17  12.278464   1.355145   5.345787  -0.000094   0.081210  -0.001160
 688   7  12.951209   2.070085   5.855851   0.000225   0.114629   0.001963
 689   7  13.754360   5.924224  -0.109394   0.000133   0.167435   0.000793
 690  18  13.192046   5.565475  -0.457735  -0.000045   0.167435  -0.000271
 691  24  14.276281   5.476539  -0.438062  -0.000051   0.167435  -0.000307
 692  18  12.290072   6.085437  -0.459193  -0.000185   0.201793  -0.000916
 693   7  13.205513   6.513493   0.043917   0.000567   0.284365   0.001994
 694  22  14.244566   7.680264   0.723373  -0.000073   0.074027  -0.000992
 695  22  13.323461   7.730539   0.709812  -0.000070   0.074027  -0.000943
 696   7  13.764513   7.314233   0.590928  -0.000193   0.160210  -0.001206
 697  22  12.674464   8.936741   4.466187  -0.000015   0.071296  -0.000203
 698  22  13.788396   8.949905   4.720498  -0.000068   0.159108  -0.000426
 699  22  15.088800   8.744586   4.307516  -0.000226   0.159108  -0.001419
 700  22  15.806637   8.442205   3.471472  -0.000068   0.071296  -0.000952
 701   7  12.995782   8.707895   4.927502   0.000221   0.155549   0.001423
 702   7  14.543006   8.624456   4.953529   0.000184   0.155549   0.001181
 703   7  15.753201   8.272528   4.051801  -0.000043   0.155549  -0.000275
 704  23  13.015601   3.193352   6.931271  -0.000060   0.068684  -0.000879
 705  23  13.871599   3.145960   6.943778  -0.000060   0.068684  -0.000871
 706   7  13.434907   2.924363   6.603009  -0.000141   0.151011  -0.000935
 707  23  15.612902   5.943249   6.938203  -0.000032   0.069687  -0.000464
 708  23  14.953124   6.845822   6.919282  -0.000146   0.154729  -0.000944
 709  23  13.707513   7.370251   6.896201  -0.000033   0.154729  -0.000212
 710  23  12.600768   7.211423   6.882391  -0.000033   0.069687  -0.000469
 711   7  15.613119   6.436713   6.595895  -0.000077   0.152775  -0.000501
 712   7  14.478803   7.445813   6.569180   0.000218   0.152775   0.001424
 713   7  12.964239   7.551948   6.546813   0.000238   0.152775   0.001560
 714  24  14.967044   5.672472  -0.541579  -0.000172   0.121192  -0.001421
 715   7  14.311760   6.403589   0.024037   0.000327   0.170808   0.001916
 716  25  17.664160   7.049026   4.051544  -0.000171   0.190871  -0.000894
 717  25  17.609528   6.304663   5.197770  -0.000845   0.389365  -0.002170
 718   7  16.653299   7.277711   4.726504   0.000909   0.524156   0.001733
 719   7  16.570311   6.322514   5.951660   0.000696   0.268758   0.002591
 720  26  14.700804   1.380893   5.600308  -0.000181   0.145118  -0.001249
 721   7  13.864139   2.070942   5.925156   0.000343   0.204520   0.001679
 722   8  14.166756   0.515086   1.818962   0.000072   0.084470   0.000847
 723  17  13.240224   0.461884   2.042501   0.000136   0.084470   0.001613
 724  26  14.260942   0.350586   2.059863  -0.000010   0.084470  -0.000117
 725  17  12.652621   0.419531   1.713148   0.000074   0.108031   0.000685
 726   8  14.037359   0.542701   1.467628   0.000549   0.152822   0.003591
 727  22  15.968924   8.226533   2.767072  -0.000137   0.212153  -0.000647
 728  22  15.300171   7.910624   1.436317  -0.000986   0.435979  -0.002262
 729   8  16.589168   7.435617   2.025362   0.001049   0.579425   0.001810
 730   8  15.710310   6.991909   0.601549   0.000749   0.298817   0.002508
 731  23  14.592343   3.366109   6.971788  -0.000143   0.216828  -0.000661
 732  23  15.469823   4.651595   7.029062  -0.001102   0.446482  -0.002467
 733   8  15.747798   3.268890   6.500476   0.000990   0.591439   0.001673
 734   8  16.634735   4.800339   6.442980   0.000826   0.305439   0.002705
 735  24  15.642657   5.857554  -0.508019  -0.000100   0.067172  -0.001490
 736  24  16.717489   5.738835  -0.461569  -0.000245   0.148157  -0.001651
 737  24  17.772872   4.964046  -0.405882  -0.000081   0.148157  -0.000549
 738  24  18.162979   3.713525  -0.370537  -0.000212   0.148157  -0.001428
 739  24  17.735755   2.474690  -0.369310  -0.000219   0.148157  -0.001476
 740  24  16.657722   1.730402  -0.402680  -0.000165   0.148157  -0.001111
 741  24  15.349064   1.770764  -0.457640  -0.000119   0.148157  -0.000801
 742   8  16.048316   6.106844  -0.158688  -0.000121   0.148198  -0.000815
 743   8  17.446708   5.650395  -0.093631   0.000100   0.148198   0.000676
 744   8  18.301519   4.452699  -0.039798   0.000153   0.148198   0.001033
 745   8  18.279570   2.980582  -0.018171  -0.000006   0.148198  -0.000041
 746   8  17.389414   1.807834  -0.037180  -0.000065   0.148198  -0.000436
 747   8  15.978010   1.391557  -0.089415   0.000093   0.148198   0.000626
 748   8  14.814348   1.656992  -0.141800   0.000085   0.082066   0.001034
 749  25  17.799959   5.315679   5.821050  -0.000075   0.070252  -0.001067
 750  25  18.301700   4.302716   5.765319  -0.000236   0.156579  -0.001506
 751  25  19.021308   3.396370   5.037378  -0.000228   0.156579  -0.001456
 752  25  19.595714   3.218325   3.809553  -0.000229   0.156579  -0.001465
 753  25  19.778648   3.844917   2.608256  -0.000302   0.156579  -0.001930
 754  25  19.491681   5.007503   1.948527  -0.000168   0.156579  -0.001072
 755  25  18.857845   6.207639   2.113217  -0.000218   0.156579  -0.001395
 756  25  18.148890   6.930783   3.031716  -0.000338   0.156579  -0.002161
 757   8  17.614680   4.759125   5.959255  -0.000150   0.153426  -0.000976
 758   8  18.373033   3.479800   5.576540   0.000050   0.153426   0.000329
 759   8  19.142154   2.835272   4.414094   0.000039   0.153426   0.000252
 760   8  19.592293   3.101875   2.970301  -0.000040   0.153426  -0.000262
 761   8  19.530459   4.165305   1.864166   0.000001   0.153426   0.000005
 762   8  18.983163   5.569632   1.569930   0.000048   0.153426   0.000313
 763   8  18.185050   6.712770   2.213743   0.000037   0.153426   0.000240
 764   8  17.573535   7.171618   3.201549   0.000043   0.085828   0.000506
 765  26  14.954477   0.135091   1.898548  -0.000002   0.071097  -0.000027
 766  26  16.090985   0.064762   1.823557  -0.000180   0.158662  -0.001134
 767  26  17.317616   0.216567   2.432808  -0.000268   0.158662  -0.001688
 768  26  17.887859   0.588921   3.630735  -0.000284   0.158662  -0.001788
 769  26  17.553651   1.019846   4.896225  -0.000134   0.158662  -0.000846
 770  26  16.460376   1.321883   5.678771  -0.000280   0.158662  -0.001766
 771  26  15.325753   1.398627   5.773433  -0.000093   0.071097  -0.001309
 772   8  15.354617   0.338926   1.491426   0.000122   0.155108   0.000785
 773   8  16.886998   0.349052   1.708426   0.000031   0.155108   0.000200
 774   8  17.955881   0.660852   2.783438  -0.000040   0.155108  -0.000256
 775   8  18.096288   1.138689   4.248818   0.000103   0.155108   0.000662
 776   8  17.247140   1.574696   5.467107  -0.000021   0.155108  -0.000136
 777   8  15.777828   1.779205   5.908331  -0.000121   0.155108  -0.000783
 778  13   5.665098   9.128093   3.873070   0.000285   0.219555   0.001298
 779  13   5.789996   9.346983   2.824681  -0.000413   0.439141  -0.000941
 780  13   5.923424   8.944151   1.575505  -0.000585   0.439141  -0.001332
 781  13   5.988354   8.152155   0.846700   0.000061   0.219555   0.000276
 782   9   7.096967   9.205182   3.637286  -0.000216   0.439141  -0.000493
 783   9   7.246969   9.213814   2.326583  -0.000574   0.439141  -0.001307
 784   9   7.350534   8.439642   1.263358  -0.000259   0.439141  -0.000590
 785  22  11.958928   8.513843   1.482137   0.000232   0.237971   0.000976
 786  22  11.964568   9.073672   2.342963   0.000073   0.475638   0.000153
 787  22  11.979038   9.154600   3.598043   0.000411   0.475638   0.000864
 788   9  10.329209   8.733558   1.815803   0.000131   0.475638   0.000275
 789   9  10.339351   9.200161   2.983777   0.000157   0.475638   0.000331
 790   9  10.352793   9.064846   4.001604   0.000373   0.237971   0.001568
 791  10   6.604582   4.393586   7.343714   0.000028   0.328771   0.000084
 792  12   5.469907   4.465220   7.247607   0.000042   0.328771   0.000127
 793  14   5.992564   3.498948   7.381002  -0.000156   0.328771  -0.000475
 794  12   5.242993   5.227327   7.563943   0.000106   0.267573   0.000397
 795  12   5.337428   6.333971   7.257121   0.000234   0.534903   0.000438
 796  10   6.884456   5.557554   7.606020   0.000070   0.534903   0.000131
 797  10   6.984612   6.632473   7.203233   0.000553   0.267573   0.002068
 798  14   8.087944   1.825797   7.490416   0.000356   0.231658   0.001537
 799  14   7.286970   2.384634   7.877757  -0.000189   0.463149  -0.000408
 800  14   6.418620   2.975848   7.859711  -0.000084   0.231658  -0.000363
 801  10   8.653518   3.299018   7.619251   0.000009   0.463149   0.000020
 802  10   7.611506   4.016893   7.849769  -0.000286   0.463149  -0.000618
 803  23  11.902017   6.727581   7.244042   0.000348   0.259674   0.001341
 804  23  11.925708   5.676980   7.738316  -0.000176   0.519253  -0.000338
 805  23  11.953993   4.276514   7.548271  -0.000143   0.519253  -0.000275
 806  10  10.369497   6.307353   7.467468   0.000224   0.519253   0.000432
 807  10  10.399278   4.927830   7.774472  -0.000183   0.519253  -0.000353
 808  10  10.420266   3.839369   7.370194   0.000235   0.259674   0.000906
 809  18   9.712054   2.548280  -0.924079   0.000436   0.245858   0.001774
 810  18   9.593009   3.584440  -1.372332  -0.000080   0.491680  -0.000163
 811  18   9.446615   4.945710  -1.167698  -0.000168   0.491680  -0.000342
 812  11   8.188035   2.770311  -1.103931  -0.000053   0.491680  -0.000109
 813  11   8.036925   4.120531  -1.369321  -0.000236   0.491680  -0.000479
 814  11   7.926405   5.176665  -0.967949   0.000215   0.245858   0.000874
 815  20   3.693768   5.177749  -1.418141   0.000109   0.253242   0.000431
 816  20   3.616507   4.091778  -1.729483  -0.000341   0.506349  -0.000674
 817  20   3.427056   2.777271  -1.352942   0.000006   0.506349   0.000012
 818  11   5.194097   4.606688  -1.371267  -0.000003   0.506349  -0.000006
 819  11   5.058029   3.235943  -1.461521  -0.000095   0.506349  -0.000188
 820  11   4.884315   2.251583  -0.929454   0.000329   0.253242   0.001298
 821  14   5.452844   3.028817   7.776840  -0.000049   0.232740  -0.000209
 822  14   4.554086   2.527086   7.641523  -0.000113   0.465267  -0.000244
 823  14   3.789887   2.050281   7.125315   0.000368   0.232740   0.001582
 824  12   4.368473   4.207376   7.578712  -0.000141   0.465267  -0.000302
 825  12   3.330280   3.596471   7.171961   0.000183   0.465267   0.000394
 826  19   0.621167   8.177945   2.469376   0.000120   0.026963   0.004442
 827  13   1.983795   8.713555   2.492039   0.000124   0.026963   0.004586
 828  21   1.294539   0.098943   1.739788  -0.000086   0.251128  -0.000341
 829  21   1.080187  -0.092346   2.956093  -0.001768   0.502712  -0.003518
 830  21   1.184374   0.192069   4.168606  -0.000615   0.251128  -0.002450
 831  15   2.315927  -0.754694   2.278016  -0.001942   0.502712  -0.003863
 832  15   2.247268  -0.696655   3.791723  -0.001247   0.502712  -0.002481
 833  17  10.990447   0.016082   4.765518  -0.000597   0.231843  -0.002574
 834  17  11.184126  -0.445849   3.616200  -0.002073   0.464379  -0.004465
 835  17  10.962579  -0.253472   2.122416  -0.001422   0.464379  -0.003063
 836  16  10.022766  -0.820916   4.414557  -0.001520   0.464379  -0.003274
 837  16  10.083132  -1.100918   2.919419  -0.002361   0.464379  -0.005085
 838  16   9.765630  -0.706303   1.772556  -0.000656   0.231843  -0.002828
 839  26  14.124986   0.738864   5.117628  -0.000008   0.248438  -0.000032
 840  26  14.147259   0.034294   4.196916  -0.000702   0.496910  -0.001413
 841  26  14.222353  -0.090912   2.792007  -0.000162   0.496910  -0.000325
 842  17  12.668485   0.508284   4.700660  -0.000463   0.496910  -0.000933
 843  17  12.715978  -0.088451   3.421310  -0.000585   0.496910  -0.001178
 844  17  12.788171   0.059785   2.273513   0.000149   0.248438   0.000598
 845  24  14.277588   2.496285  -0.892062   0.000209   0.244226   0.000856
 846  24  14.366269   3.498597  -1.318784  -0.000321   0.488281  -0.000657
 847  24  14.470169   4.816991  -1.135831  -0.000263   0.488281  -0.000538
 848  18  12.765657   2.993054  -1.106754   0.000328   0.488281   0.000671
 849  18  12.876042   4.298363  -1.364466  -0.000085   0.488281  -0.000173
 850  18  12.953013   5.324302  -0.995537   0.000169   0.244226   0.000692
 =====================================================

              6157928  WORDS OF DYNAMIC MEMORY USED
 EXECUTION OF GAMESS TERMINATED NORMALLY Wed Nov 23 13:02:11 2016
 DDI: 263640 bytes (0.3 MB / 0 MWords) used by master data server.

 ----------------------------------------
 CPU timing information for all processes
 ========================================
 0: 3625.956 + 1.92 = 3627.48
 ----------------------------------------
 ddikick.x: exited gracefully.
