----- GAMESS execution script -----

          ******************************************************
          *         GAMESS VERSION =  5 DEC 2014 (R1)          *
          *             FROM IOWA STATE UNIVERSITY             *
          * M.W.SCHMIDT, K.K.BALDRIDGE, J.A.BOATZ, S.T.ELBERT, *
          *   M.S.GORDON, J.H.JENSEN, S.KOSEKI, N.MATSUNAGA,   *
          *          K.A.NGUYEN, S.J.SU, T.L.WINDUS,           *
          *       TOGETHER WITH M.DUPUIS, J.A.MONTGOMERY       *
          *         J.COMPUT.CHEM.  14, 1347-1363(1993)        *
          **************** 64 BIT LINUX VERSION ****************

 EXECUTION OF GAMESS BEGUN Wed Nov 23 11:49:37 2016

            ECHO OF THE FIRST FEW INPUT CARDS -
 INPUT CARD>! SELECT RESTRICTED HARTREE-FOCK AS DEFAULT                                     
 INPUT CARD>$contrl scftyp=rhf $end                                                         
 INPUT CARD>                                                                                
 INPUT CARD>! THEORY: HF OR DFT                                                             
 INPUT CARD> $contrl mplevl=0 $end                                                          
 INPUT CARD>                                                                                
 INPUT CARD> $system timlim=10000 mwords=20 $end                                            
 INPUT CARD> $SCF DIRSCF=.TRUE. $end                                                        
 INPUT CARD>                                                                                
 INPUT CARD>                                                                                
 INPUT CARD>! BASIS SETS                                                                    
 INPUT CARD>! 6-311G(d,p)                                                                   
 INPUT CARD> $BASIS GBASIS=N311 NGAUSS=6 NDFUNC=1 NPFUNC=1 $END                             
 INPUT CARD>                                                                                
 INPUT CARD>! One of the following                                                          
 INPUT CARD> $guess guess=HUCKEL $end                                                       
 INPUT CARD>                                                                                
 INPUT CARD> $statpt projct=.FALSE. $end                                                    
 INPUT CARD> $STATPT IFREEZ(1)=1,2,3 $END                                                   
 INPUT CARD>                                                                                
 INPUT CARD>! Optimize the geometry with COSMO effects                                      
 INPUT CARD> $statpt opttol=0.0005 nstep=50 $end                                            
 INPUT CARD> $contrl nzvar=1 $end                                                           
 INPUT CARD> $zmat dlc=.t. auto=.t. $end                                                    
 INPUT CARD> $contrl runtyp=OPTIMIZE maxit=200 $end                                         
 INPUT CARD>                                                                                
 INPUT CARD>! Run COSMO on perfect conductor                                                
 INPUT CARD> $COSGMS PRFCND=.TRUE. $end                                                     
 INPUT CARD>                                                                                
 INPUT CARD>! Specifying RSOLV                                                              
 INPUT CARD> $COSGMS COSRAD = 1.4 $end                                                      
 INPUT CARD>                                                                                
 INPUT CARD>! available memory                                                              
 INPUT CARD> $SYSTEM MWORDS=40 $END                                                         
 INPUT CARD>                                                                                
 INPUT CARD> $DATA                                                                          
 INPUT CARD>http://cactus.nci.nih.gov/chemical/structure/3-METHYL-3-PENTANOL/file?format=sdf
 INPUT CARD>C1                                                                              
 INPUT CARD>C      6.0      0.0320000000    1.4717000000   -0.3598000000                    
 INPUT CARD>C      6.0      0.0003000000   -0.0128000000    0.0090000000                    
 INPUT CARD>C      6.0      1.2497000000   -0.3638000000    0.8193000000                    
 INPUT CARD>C      6.0      2.4980000000    0.0431000000    0.0338000000                    
 INPUT CARD>C      6.0     -1.2480000000   -0.3042000000    0.8444000000                    
 INPUT CARD>C      6.0     -2.4974000000    0.0468000000    0.0341000000                    
 INPUT CARD>O      8.0     -0.0305000000   -0.7994000000   -1.1836000000                    
 INPUT CARD>H      1.0      0.9212000000    1.6793000000   -0.9550000000                    
 INPUT CARD>H      1.0     -0.8581000000    1.7218000000   -0.9371000000                    
 INPUT CARD>H      1.0      0.0555000000    2.0717000000    0.5499000000                    
 INPUT CARD>H      1.0      1.2283000000    0.1699000000    1.7695000000                    
 INPUT CARD>H      1.0      1.2719000000   -1.4375000000    1.0061000000                    
   40000000 WORDS OF MEMORY AVAILABLE

     BASIS OPTIONS
     -------------
     GBASIS=N311         IGAUSS=       6      POLAR=POPN311 
     NDFUNC=       1     NFFUNC=       0     DIFFSP=       F
     NPFUNC=       1      DIFFS=       F     BASNAM=        


     RUN TITLE
     ---------
 http://cactus.nci.nih.gov/chemical/structure/3-METHYL-3-PENTANOL/file?format=sdf

 THE POINT GROUP OF THE MOLECULE IS C1      
 THE ORDER OF THE PRINCIPAL AXIS IS     0

 ATOM      ATOMIC                      COORDINATES (BOHR)
           CHARGE         X                   Y                   Z
 C           6.0     0.0604712316        2.7811097361       -0.6799234104
 C           6.0     0.0005669178       -0.0241884926        0.0170075339
 C           6.0     2.3615905669       -0.6874823143        1.5482525017
 C           6.0     4.7205355173        0.0814471901        0.0638727384
 C           6.0    -2.3583780327       -0.5748546455        1.5956846240
 C           6.0    -4.7194016817        0.0884391762        0.0644396562
 O           8.0    -0.0576366426       -1.5106469546       -2.2366796791
 H           1.0     1.7408155799        3.1734168512       -1.8046883183
 H           1.0    -1.6215738701        3.2537302057       -1.7708622231
 H           1.0     0.1048797923        3.9149453288        1.0391603206
 H           1.0     2.3211504307        0.3210644453        3.3438701353
 H           1.0     2.4035424838       -2.7164811074        1.9012533162
 H           1.0     4.7607866809       -0.9270995696       -1.7317448951
 H           1.0     4.6785836004        2.1102570105       -0.2891280761
 H           1.0     6.4025806190       -0.3911732795        1.1548115511
 H           1.0    -2.4010858400       -2.5734288501        2.0923046136
 H           1.0    -2.3139694720        0.5589809472        3.3149573277
 H           1.0    -4.6766938744        2.0870133808       -0.4319913608
 H           1.0    -4.7638102424       -1.0453964164       -1.6546440748
 H           1.0    -6.3997460300       -0.3038679388        1.1892045641
 H           1.0    -0.0976988336       -3.3128786291       -1.9377250278

          INTERNUCLEAR DISTANCES (ANGS.)




     $CONTRL OPTIONS
     ---------------
 SCFTYP=RHF          RUNTYP=OPTIMIZE     EXETYP=RUN     
 MPLEVL=       0     CITYP =NONE         CCTYP =NONE         VBTYP =NONE    
 DFTTYP=NONE         TDDFT =NONE    
 MULT  =       1     ICHARG=       0     NZVAR =       1     COORD =UNIQUE  
 PP    =NONE         RELWFN=NONE         LOCAL =NONE         NUMGRD=       F
 ISPHER=      -1     NOSYM =       0     MAXIT =     200     UNITS =ANGS    
 PLTORB=       F     MOLPLT=       F     AIMPAC=       F     FRIEND=        
 NPRINT=       7     IREST =       0     GEOM  =INPUT   
 NORMF =       0     NORMP =       0     ITOL  =      20     ICUT  =       9
 INTTYP=BEST         GRDTYP=BEST         QMTTOL= 1.0E-06

     $SYSTEM OPTIONS
     ---------------
  REPLICATED MEMORY=    40000000 WORDS (ON EVERY NODE).
 DISTRIBUTED MEMDDI=           0 MILLION WORDS IN AGGREGATE,
 MEMDDI DISTRIBUTED OVER   1 PROCESSORS IS           0 WORDS/PROCESSOR.
 TOTAL MEMORY REQUESTED ON EACH PROCESSOR=    40000000 WORDS.
 TIMLIM=       10000.00 MINUTES, OR       6.9 DAYS.
 PARALL= F  BALTYP=  DLB     KDIAG=    0  COREFL= F
 MXSEQ2=     300 MXSEQ3=     150  mem10=         0

     $COSGMS OPTIONS
     ---------------
     EPSI  =   INFTY     NSPA  =      92     COSRAD=    1.40
     DISEX =   10.00     OUTCHG=DBLCAV       COSBUG=       F
     COSWRT=       F     DCOSMO=       F

     SYMMETRY COORDINATES WILL NOT BE USED FOR 
     THE COSMO CALCULATION, EVEN IF SPECIFIED:
         -- SWITCHING TO C1 POINT GROUP --


     DEFINITION OF CAVITY
     ---------------------------
     ATOM         COORDINATES           RADIUS 
     1    0.0605    2.7811   -0.6799    2.0000
     2    0.0006   -0.0242    0.0170    2.0000
     3    2.3616   -0.6875    1.5483    2.0000
     4    4.7205    0.0814    0.0639    2.0000
     5   -2.3584   -0.5749    1.5957    2.0000
     6   -4.7194    0.0884    0.0644    2.0000
     7   -0.0576   -1.5106   -2.2367    1.7200
     8    1.7408    3.1734   -1.8047    1.3000
     9   -1.6216    3.2537   -1.7709    1.3000
    10    0.1049    3.9149    1.0392    1.3000
    11    2.3212    0.3211    3.3439    1.3000
    12    2.4035   -2.7165    1.9013    1.3000
    13    4.7608   -0.9271   -1.7317    1.3000
    14    4.6786    2.1103   -0.2891    1.3000
    15    6.4026   -0.3912    1.1548    1.3000
    16   -2.4011   -2.5734    2.0923    1.3000
    17   -2.3140    0.5590    3.3150    1.3000
    18   -4.6767    2.0870   -0.4320    1.3000
    19   -4.7638   -1.0454   -1.6546    1.3000
    20   -6.3997   -0.3039    1.1892    1.3000
    21   -0.0977   -3.3129   -1.9377    1.3000

          ----------------
          PROPERTIES INPUT
          ----------------

     MOMENTS            FIELD           POTENTIAL          DENSITY
 IEMOM =       1   IEFLD =       0   IEPOT =       0   IEDEN =       0
 WHERE =COMASS     WHERE =NUCLEI     WHERE =NUCLEI     WHERE =NUCLEI  
 OUTPUT=BOTH       OUTPUT=BOTH       OUTPUT=BOTH       OUTPUT=BOTH    
 IEMINT=       0   IEFINT=       0                     IEDINT=       0
                                                       MORB  =       0
          EXTRAPOLATION IN EFFECT
          SOSCF IN EFFECT
 ORBITAL PRINTING OPTION: NPREO=     1   217     2     1

     -------------------------------
     INTEGRAL TRANSFORMATION OPTIONS
     -------------------------------
     NWORD  =            0
     CUTOFF = 1.0E-09     MPTRAN =       0
     DIRTRF =       T     AOINTS =DUP     

          ----------------------
          INTEGRAL INPUT OPTIONS
          ----------------------
 NOPK  =       1 NORDER=       0 SCHWRZ=       T


 -----------------------------------------------
  STATISTICS ON AUTOMATIC COORDINATE GENERATION 
 -----------------------------------------------
  NUMBER OF USER SPECIFIED BONDS                             0
  NUMBER OF BONDS                                           20
  NUMBER OF ANGLES                                          37
  NUMBER OF TORSIONS                                        48
  NUMBER OF EXTRA COORD.                                     0
  NUMBER OF EXTRA COORD. FOR CONSTRAINTS                     0
  NUMBER OF CONSTRAINED COORD.                               0

  TOTAL NUMBER OF PRIMITIVES                               105
 -----------------------------------------------

   --- ENCODED Z MATRIX ---
 COORD  TYPE   I   J   K   L   M   N
    1      1    1   8
    2      1    1   9
    3      1    1  10
    4      1    1   2
    5      1    2   7
    6      1    2   3
    7      1    2   5
    8      1    3   4
    9      1    3  12
   10      1    3  11
   11      1    4  15
   12      1    4  14
   13      1    4  13
   14      1    5  16
   15      1    5   6
   16      1    5  17
   17      1    6  20
   18      1    6  19
   19      1    6  18
   20      1    7  21
   21      2    1   2   5
   22      2    1   2   3
   23      2    1   2   7
   24      2    2   3  12
   25      2    2   3  11
   26      2    2   1  10
   27      2    2   1   9
   28      2    2   5   6
   29      2    2   1   8
   30      2    2   5  17
   31      2    2   7  21
   32      2    2   5  16
   33      2    2   3   4
   34      2    3   2   5
   35      2    3   4  13
   36      2    3   4  15
   37      2    3   2   7
   38      2    3   4  14
   39      2    4   3  11
   40      2    4   3  12
   41      2    5   2   7
   42      2    5   6  18
   43      2    5   6  19
   44      2    5   6  20
   45      2    6   5  17
   46      2    6   5  16
   47      2    8   1  10
   48      2    8   1   9
   49      2    9   1  10
   50      2   11   3  12
   51      2   13   4  14
   52      2   13   4  15
   53      2   14   4  15
   54      2   16   5  17
   55      2   18   6  19
   56      2   18   6  20
   57      2   19   6  20
   58      3    1   2   5  17
   59      3    1   2   3  11
   60      3    1   2   3  12
   61      3    1   2   3   4
   62      3    1   2   5   6
   63      3    1   2   7  21
   64      3    1   2   5  16
   65      3    2   3   4  13
   66      3    2   3   4  14
   67      3    2   3   4  15
   68      3    2   5   6  18
   69      3    2   5   6  19
   70      3    2   5   6  20
   71      3    3   2   5   6
   72      3    3   2   1   8
   73      3    3   2   5  16
   74      3    3   2   7  21
   75      3    3   2   5  17
   76      3    3   2   1  10
   77      3    3   2   1   9
   78      3    4   3   2   5
   79      3    4   3   2   7
   80      3    5   2   1  10
   81      3    5   2   3  11
   82      3    5   2   1   8
   83      3    5   2   7  21
   84      3    5   2   1   9
   85      3    5   2   3  12
   86      3    6   5   2   7
   87      3    7   2   1  10
   88      3    7   2   1   9
   89      3    7   2   1   8
   90      3    7   2   5  16
   91      3    7   2   3  11
   92      3    7   2   5  17
   93      3    7   2   3  12
   94      3   11   3   4  13
   95      3   11   3   4  14
   96      3   11   3   4  15
   97      3   12   3   4  15
   98      3   12   3   4  13
   99      3   12   3   4  14
  100      3   16   5   6  20
  101      3   16   5   6  19
  102      3   16   5   6  18
  103      3   17   5   6  20
  104      3   17   5   6  19
  105      3   17   5   6  18

          INDEP./SYM. INTERNAL COORDINATES
          --------------------------------
 CRD  1=  -0.1115 (  6) -0.1088 (  7) -0.1290 ( 21) -0.1415 ( 22)  0.1469 ( 23)
           0.1509 ( 24)  0.1454 ( 25) -0.4703 ( 28)  0.1420 ( 30)  0.1503 ( 32)
          -0.4774 ( 33)  0.3059 ( 34)  0.1341 ( 39)  0.1278 ( 40)  0.1295 ( 45)
           0.1283 ( 46) -0.1142 ( 72)  0.1337 ( 74) -0.1034 ( 76)  0.1056 ( 80)
          -0.1293 ( 83)  0.1144 ( 84)
 CRD  2=  -0.1478 (  6)  0.1486 (  7)  0.2916 ( 21) -0.2943 ( 22)  0.1336 ( 24)
           0.1004 ( 25)  0.1229 ( 27)  0.4150 ( 28) -0.1236 ( 29) -0.1049 ( 30)
          -0.1344 ( 32) -0.4069 ( 33)  0.1054 ( 37)  0.1468 ( 40) -0.1059 ( 45)
          -0.1430 ( 46)  0.1304 ( 60)  0.1428 ( 61)  0.1343 ( 62) -0.1993 ( 63)
           0.1310 ( 64) -0.1117 ( 75)
 CRD  3=   0.2876 (  6)  0.2924 (  7)  0.2882 (  8)  0.2947 ( 15) -0.1556 ( 21)
          -0.1522 ( 22)  0.2200 ( 23)  0.1988 ( 28) -0.1004 ( 31)  0.1827 ( 33)
           0.3467 ( 34) -0.1332 ( 37)  0.1253 ( 38) -0.1235 ( 40) -0.1256 ( 41)
           0.1250 ( 42) -0.1240 ( 46) -0.1153 ( 61)  0.1071 ( 62) -0.1441 ( 72)
           0.1311 ( 74) -0.1202 ( 76)  0.1158 ( 80) -0.1350 ( 83)  0.1401 ( 84)
 CRD  4=  -0.2774 (  4)  0.1055 (  5) -0.1818 ( 21) -0.1231 ( 27)  0.1048 ( 28)
           0.1465 ( 35) -0.1414 ( 38) -0.1158 ( 39)  0.1210 ( 40)  0.1568 ( 41)
          -0.1261 ( 42)  0.1943 ( 43) -0.1739 ( 45)  0.1021 ( 46)  0.1621 ( 61)
          -0.2388 ( 62) -0.1189 ( 67)  0.1587 ( 70) -0.3275 ( 71) -0.1313 ( 73)
          -0.1382 ( 75)  0.3544 ( 78)  0.1145 ( 79)  0.1912 ( 81) -0.1321 ( 83)
           0.2053 ( 85) -0.1735 ( 86)
 CRD  5=   0.1303 (  8)  0.2652 ( 21) -0.3106 ( 22) -0.1382 ( 25) -0.2831 ( 28)
          -0.1435 ( 29)  0.1289 ( 30)  0.3040 ( 33)  0.1510 ( 35)  0.2882 ( 37)
          -0.1576 ( 39) -0.2482 ( 41)  0.1801 ( 61) -0.1054 ( 67) -0.1369 ( 71)
          -0.1762 ( 73)  0.1715 ( 74) -0.1360 ( 75)  0.1130 ( 76)  0.1511 ( 79)
           0.1070 ( 80)  0.1251 ( 83)
 CRD  6=   0.1690 ( 24) -0.1507 ( 25)  0.1672 ( 30) -0.1719 ( 32) -0.2129 ( 35)
           0.2028 ( 38)  0.1924 ( 39) -0.1878 ( 40) -0.2079 ( 42)  0.2141 ( 43)
          -0.1980 ( 45)  0.1933 ( 46) -0.2077 ( 61) -0.2252 ( 62) -0.1280 ( 65)
          -0.1309 ( 66) -0.1393 ( 68) -0.1382 ( 69) -0.2497 ( 71) -0.1135 ( 73)
          -0.1143 ( 75) -0.2559 ( 78) -0.2127 ( 79) -0.1230 ( 81) -0.1189 ( 85)
          -0.2132 ( 86)
 CRD  7=   0.1934 (  4) -0.1135 (  5)  0.2675 (  6)  0.2733 (  7)  0.1250 ( 21)
           0.1362 ( 22) -0.1633 ( 23)  0.1909 ( 25)  0.3634 ( 26) -0.1015 ( 27)
          -0.1044 ( 29)  0.1682 ( 30) -0.1141 ( 31)  0.1139 ( 36) -0.1020 ( 38)
           0.1146 ( 44) -0.1527 ( 58)  0.1601 ( 59)  0.1894 ( 60)  0.2109 ( 61)
          -0.1945 ( 62) -0.1812 ( 64)  0.1272 ( 65)  0.1090 ( 66) -0.1087 ( 69)
          -0.1423 ( 77)  0.1365 ( 82)
 CRD  8=   0.2912 (  5)  0.2636 (  6)  0.2632 (  7) -0.1869 ( 23)  0.1273 ( 24)
           0.5609 ( 31)  0.1326 ( 32) -0.1460 ( 35)  0.1122 ( 36)  0.1094 ( 37)
           0.1118 ( 41) -0.1514 ( 43)  0.1102 ( 44) -0.2059 ( 79)  0.2097 ( 86)
           0.1371 ( 90) -0.1625 ( 91)  0.1643 ( 92) -0.1354 ( 93)
 CRD  9=   0.5744 (  4)  0.1508 (  5)  0.2572 (  6) -0.1097 (  8)  0.1416 ( 20)
           0.1172 ( 23)  0.1373 ( 24)  0.2010 ( 27)  0.2993 ( 29) -0.2333 ( 38)
           0.1225 ( 43) -0.1504 ( 47) -0.2106 ( 48) -0.1310 ( 49) -0.1283 ( 67)
           0.1449 ( 79)
 CRD 10=   0.2294 (  4) -0.3543 (  6)  0.4313 (  7)  0.1023 (  8) -0.1608 ( 15)
           0.2186 ( 27)  0.1451 ( 32)  0.1256 ( 35) -0.1372 ( 36) -0.1642 ( 37)
           0.1482 ( 41) -0.2443 ( 42)  0.1530 ( 44)  0.1213 ( 55) -0.1841 ( 63)
          -0.1014 ( 72) -0.1205 ( 82) -0.1008 ( 84) -0.1443 ( 86)  0.1465 ( 87)
           0.1131 ( 88) -0.1156 ( 90)
 CRD 11=   0.1039 (  6) -0.1029 (  7)  0.4614 (  8) -0.4645 ( 15)  0.3442 ( 36)
          -0.3456 ( 44) -0.1671 ( 52) -0.1821 ( 53)  0.1812 ( 56)  0.1700 ( 57)
 CRD 12=  -0.1641 (  6)  0.1292 (  7)  0.1956 (  8) -0.1994 ( 25) -0.3397 ( 27)
           0.3681 ( 29)  0.2903 ( 35)  0.1397 ( 36) -0.2448 ( 38)  0.1489 ( 39)
           0.1801 ( 42) -0.2804 ( 43)  0.1251 ( 44) -0.1265 ( 47)  0.1427 ( 49)
          -0.1767 ( 52) -0.1183 ( 56) -0.1268 ( 65) -0.1484 ( 66) -0.1737 ( 67)
          -0.1070 ( 70)
 CRD 13=  -0.1697 (  5) -0.1442 (  7)  0.2757 (  8)  0.3335 ( 15) -0.1097 ( 20)
          -0.1033 ( 25)  0.1611 ( 27) -0.1155 ( 29) -0.2169 ( 30) -0.1417 ( 31)
          -0.1437 ( 34)  0.3108 ( 36)  0.1325 ( 39) -0.1520 ( 42)  0.1536 ( 43)
           0.3149 ( 44)  0.2003 ( 45) -0.1075 ( 52) -0.1460 ( 53) -0.2030 ( 57)
           0.1403 ( 68)  0.1357 ( 70)
 CRD 14=  -0.4040 (  5)  0.1947 (  6)  0.1577 (  7) -0.2128 (  8) -0.1997 ( 15)
          -0.2949 ( 20) -0.1131 ( 23)  0.2169 ( 24) -0.3383 ( 31)  0.1948 ( 32)
          -0.1577 ( 38) -0.1864 ( 40) -0.1276 ( 42) -0.1624 ( 46)  0.1006 ( 53)
          -0.1297 ( 65) -0.1239 ( 66) -0.1274 ( 67)  0.1110 ( 68)  0.1165 ( 69)
           0.1131 ( 70) -0.1107 ( 79) -0.1140 ( 91)  0.1057 ( 92)
 CRD 15=  -0.1348 (  2)  0.1426 (  3)  0.1025 (  4) -0.1680 (  6)  0.4843 ( 26)
          -0.4270 ( 27) -0.1690 ( 30)  0.1800 ( 32) -0.1665 ( 36)  0.1748 ( 38)
           0.2542 ( 43) -0.1608 ( 44)  0.1059 ( 45) -0.1374 ( 46) -0.2184 ( 47)
           0.1499 ( 48)  0.1019 ( 56)  0.1335 ( 68)  0.1573 ( 69)  0.1566 ( 70)
 CRD 16=  -0.1510 (  1)  0.1007 (  3) -0.1743 (  7)  0.1602 ( 24) -0.1580 ( 25)
           0.3228 ( 26)  0.2217 ( 27) -0.4721 ( 29)  0.2740 ( 35) -0.1714 ( 38)
          -0.1167 ( 40)  0.2589 ( 42) -0.2262 ( 49)  0.1039 ( 53) -0.1403 ( 65)
          -0.1269 ( 66) -0.1531 ( 67)
 CRD 17=   0.1157 (  8)  0.1223 ( 10)  0.1110 ( 13)  0.1523 ( 15)  0.1538 ( 16)
          -0.1160 ( 17)  0.1281 ( 18) -0.1033 ( 20) -0.1046 ( 23) -0.2622 ( 26)
           0.1185 ( 27) -0.1537 ( 28)  0.1215 ( 29)  0.1074 ( 30)  0.1161 ( 31)
          -0.1022 ( 33)  0.3520 ( 35) -0.2004 ( 36)  0.4212 ( 43) -0.3113 ( 44)
          -0.1036 ( 48) -0.1458 ( 51) -0.2111 ( 55)  0.1072 ( 56)
 CRD 18=  -0.2017 (  6)  0.1729 (  7) -0.1550 (  8) -0.1401 (  9) -0.1338 ( 10)
           0.1434 ( 11) -0.1203 ( 24) -0.1264 ( 25) -0.1406 ( 28)  0.1010 ( 30)
           0.2086 ( 33) -0.2772 ( 35)  0.4110 ( 36) -0.3002 ( 38)  0.1581 ( 42)
           0.2180 ( 43) -0.2831 ( 44)  0.1211 ( 50)  0.2542 ( 51) -0.1638 ( 55)
 CRD 19=   0.1281 (  4)  0.1366 (  9)  0.1361 ( 12)  0.1754 ( 14)  0.1012 ( 15)
           0.1543 ( 19) -0.1162 ( 28) -0.1740 ( 31)  0.1110 ( 32) -0.2151 ( 35)
           0.3780 ( 38)  0.4516 ( 42) -0.1384 ( 43) -0.2035 ( 44) -0.1037 ( 48)
           0.1399 ( 52) -0.1332 ( 53) -0.1407 ( 55) -0.1202 ( 56)  0.1513 ( 57)
           0.1113 ( 61) -0.1061 ( 62) -0.1088 ( 71)  0.1111 ( 78)
 CRD 20=  -0.2926 (  9)  0.2380 ( 10)  0.2878 ( 14) -0.2514 ( 16) -0.1560 ( 24)
           0.1589 ( 25) -0.1646 ( 30)  0.1540 ( 32)  0.1369 ( 35) -0.1694 ( 38)
           0.1669 ( 42) -0.1442 ( 43) -0.1001 ( 58) -0.1142 ( 61) -0.1196 ( 62)
           0.1445 ( 65)  0.1460 ( 66)  0.1581 ( 67)  0.1477 ( 68)  0.1463 ( 69)
           0.1599 ( 70) -0.1577 ( 71) -0.1173 ( 73) -0.1381 ( 75) -0.1554 ( 78)
          -0.1261 ( 79) -0.1376 ( 81) -0.1139 ( 85) -0.1242 ( 86) -0.1083 ( 91)
          -0.1047 ( 92)
 CRD 21=  -0.2319 ( 10)  0.2348 ( 16)  0.1341 ( 63) -0.2913 ( 72)  0.1408 ( 74)
          -0.2925 ( 76) -0.2916 ( 77) -0.2938 ( 80) -0.2927 ( 82)  0.1413 ( 83)
          -0.2929 ( 84) -0.2895 ( 87) -0.2886 ( 88) -0.2884 ( 89)
 CRD 22=  -0.4709 (  1) -0.4734 (  2) -0.4420 (  3) -0.1231 (  4) -0.1102 (  5)
          -0.1228 ( 20)  0.1745 ( 26)  0.1875 ( 27)  0.1878 ( 29) -0.1827 ( 47)
          -0.1849 ( 48) -0.1822 ( 49)
 CRD 23=  -0.1287 (  8) -0.3477 ( 11) -0.3650 ( 12) -0.3641 ( 13)  0.1259 ( 15)
           0.3401 ( 17)  0.3564 ( 18)  0.3570 ( 19)  0.1216 ( 35)  0.1346 ( 36)
           0.1219 ( 38) -0.1193 ( 42) -0.1189 ( 43) -0.1318 ( 44) -0.1195 ( 51)
          -0.1293 ( 52) -0.1293 ( 53)  0.1168 ( 55)  0.1266 ( 56)  0.1265 ( 57)
 CRD 24=  -0.1270 (  8) -0.3427 ( 11) -0.3569 ( 12) -0.3564 ( 13) -0.1298 ( 15)
          -0.3501 ( 17) -0.3650 ( 18) -0.3641 ( 19)  0.1196 ( 35)  0.1305 ( 36)
           0.1195 ( 38)  0.1223 ( 42)  0.1220 ( 43)  0.1335 ( 44) -0.1176 ( 51)
          -0.1260 ( 52) -0.1259 ( 53) -0.1202 ( 55) -0.1290 ( 56) -0.1286 ( 57)
 CRD 25=   0.1985 (  9) -0.2025 ( 10) -0.2101 ( 14)  0.2106 ( 16) -0.1029 ( 24)
           0.1051 ( 25) -0.1047 ( 30)  0.1070 ( 32) -0.2174 ( 39)  0.2165 ( 40)
           0.2210 ( 45) -0.2226 ( 46) -0.1884 ( 58) -0.1876 ( 59) -0.1864 ( 60)
          -0.1895 ( 64) -0.1009 ( 70) -0.1843 ( 73) -0.1832 ( 75) -0.1797 ( 81)
          -0.1784 ( 85) -0.1921 ( 90) -0.1876 ( 91) -0.1910 ( 92) -0.1864 ( 93)
 CRD 26=  -0.1315 (  1) -0.1358 (  2) -0.2736 (  3)  0.1401 (  5) -0.2496 (  9)
           0.2751 ( 10) -0.2354 ( 14)  0.2627 ( 16)  0.1857 ( 20)  0.1034 ( 24)
          -0.1087 ( 31)  0.1852 ( 39) -0.1830 ( 40)  0.1764 ( 45) -0.1723 ( 46)
          -0.1424 ( 58)  0.1509 ( 59)  0.1524 ( 60) -0.1426 ( 64) -0.1430 ( 73)
          -0.1429 ( 75)  0.1504 ( 81)  0.1519 ( 85) -0.1472 ( 90)  0.1542 ( 91)
          -0.1470 ( 92)  0.1557 ( 93)
 CRD 27=  -0.1293 (  1) -0.1319 (  2)  0.1425 (  3)  0.1746 (  5)  0.3440 (  9)
           0.3942 ( 10) -0.2284 ( 11)  0.3561 ( 14)  0.3843 ( 16) -0.2309 ( 17)
          -0.2213 ( 31)  0.1185 ( 51)  0.1195 ( 55) -0.1070 ( 98)  0.1072 (101)
 CRD 28=   0.1353 (  9)  0.1216 ( 10) -0.4415 ( 11)  0.2039 ( 12)  0.2056 ( 13)
          -0.1315 ( 14) -0.1210 ( 16)  0.4371 ( 17) -0.2089 ( 18) -0.1967 ( 19)
           0.2332 ( 51) -0.1123 ( 52) -0.1122 ( 53) -0.2308 ( 55)  0.1139 ( 56)
           0.1084 ( 57) -0.1184 ( 65)  0.1195 ( 66)  0.1193 ( 68) -0.1162 ( 69)
          -0.1052 ( 94)  0.1326 ( 95) -0.1316 ( 98)  0.1062 ( 99) -0.1299 (101)
           0.1056 (102) -0.1042 (104)  0.1313 (105)
 CRD 29=  -0.3145 (  1)  0.5544 (  2) -0.2177 (  3) -0.2437 ( 11)  0.2683 ( 12)
          -0.1270 ( 17)  0.1122 ( 19) -0.2830 ( 47)  0.1022 ( 48)  0.1747 ( 49)
           0.1257 ( 51) -0.1405 ( 52) -0.1422 ( 72)  0.1586 ( 76)  0.1724 ( 80)
          -0.1284 ( 82)  0.1743 ( 87) -0.1265 ( 89)
 CRD 30=  -0.4876 (  1)  0.1684 (  2)  0.2899 (  3)  0.1944 ( 11) -0.2356 ( 12)
           0.2915 ( 17) -0.2884 ( 19) -0.1007 ( 47) -0.1361 ( 48)  0.2450 ( 49)
          -0.1030 ( 51)  0.1257 ( 52) -0.1511 ( 55)  0.1509 ( 57) -0.1026 ( 69)
           0.1344 ( 76) -0.1262 ( 77)  0.1162 ( 80) -0.1445 ( 84)  0.1318 ( 87)
          -0.1288 ( 88) -0.1085 (104)
 CRD 31=   0.1393 (  1)  0.1130 (  2) -0.2240 (  3) -0.1012 ( 11) -0.2657 ( 12)
           0.3752 ( 13)  0.4306 ( 18) -0.3223 ( 19)  0.1153 ( 48)  0.1464 ( 52)
          -0.2015 ( 53) -0.2316 ( 56)  0.1771 ( 57) -0.1327 ( 67)  0.1551 ( 70)
          -0.1342 ( 96) -0.1259 ( 97)  0.1480 (100)  0.1565 (103)
 CRD 32=  -0.3828 ( 12)  0.4118 ( 13) -0.3600 ( 18)  0.3816 ( 19)  0.2084 ( 52)
          -0.2228 ( 53)  0.1958 ( 56) -0.2068 ( 57) -0.1640 ( 67) -0.1524 ( 70)
          -0.1594 ( 96) -0.1570 ( 97) -0.1480 (100) -0.1464 (103)
 CRD 33=   0.1956 (  1)  0.1987 (  2) -0.4409 (  3)  0.1817 (  9)  0.1909 ( 10)
           0.2331 ( 11) -0.1900 ( 13)  0.1869 ( 14)  0.1859 ( 16)  0.2328 ( 17)
          -0.1763 ( 18) -0.1003 ( 19) -0.1300 ( 47)  0.2715 ( 48) -0.1281 ( 49)
          -0.1190 ( 51) -0.1189 ( 55) -0.1230 ( 72)  0.1498 ( 77) -0.1494 ( 82)
           0.1233 ( 84)  0.1364 ( 88) -0.1364 ( 89) -0.1234 ( 99)  0.1201 (102)
 CRD 34=   0.4290 (  9)  0.3842 ( 10)  0.1172 ( 11) -0.1005 ( 12) -0.4171 ( 14)
          -0.3842 ( 16) -0.1153 ( 17)  0.1697 ( 50) -0.1668 ( 54)  0.1088 ( 94)
           0.1029 (104)
 CRD 35=   0.4151 (  5)  0.1522 (  6)  0.1555 (  7) -0.2617 (  9) -0.2557 ( 14)
           0.1190 ( 25)  0.1160 ( 30) -0.4945 ( 31) -0.1215 ( 34)  0.1008 ( 46)
           0.1155 ( 48) -0.1294 ( 50) -0.1368 ( 54) -0.1361 ( 60)  0.1426 ( 64)
           0.1133 ( 77) -0.1187 ( 82) -0.1342 ( 94) -0.1267 ( 95) -0.1177 ( 96)
           0.1182 (103)  0.1337 (104)  0.1262 (105)
 CRD 36=   0.2489 (  5)  0.2582 (  9) -0.2831 ( 10)  0.2750 ( 14) -0.2985 ( 16)
           0.1057 ( 24) -0.1541 ( 31)  0.1093 ( 32)  0.1632 ( 94)  0.1614 ( 95)
           0.1611 ( 96)  0.1934 ( 97)  0.1955 ( 98)  0.1937 ( 99) -0.2016 (100)
          -0.2035 (101) -0.2020 (102) -0.1709 (103) -0.1728 (104) -0.1713 (105)
 CRD 37=  -0.2109 (  9)  0.2236 ( 10)  0.2019 ( 14) -0.2152 ( 16) -0.1415 ( 65)
          -0.1447 ( 66) -0.1472 ( 67) -0.1405 ( 68) -0.1373 ( 69) -0.1429 ( 70)
          -0.2088 ( 94) -0.2119 ( 95) -0.2144 ( 96) -0.2318 ( 97) -0.2262 ( 98)
          -0.2294 ( 99) -0.2240 (100) -0.2184 (101) -0.2216 (102) -0.2070 (103)
          -0.2015 (104) -0.2047 (105)
 CRD 38=   0.1781 (  1) -0.1533 (  2)  0.1893 (  6) -0.2047 (  7)  0.1223 ( 11)
          -0.1210 ( 17)  0.1060 ( 21) -0.1198 ( 22)  0.1107 ( 29) -0.1033 ( 30)
          -0.1180 ( 39) -0.1356 ( 40)  0.1129 ( 45)  0.1377 ( 46) -0.1562 ( 47)
           0.1297 ( 49)  0.1417 ( 60) -0.4281 ( 63)  0.1464 ( 64) -0.1029 ( 72)
          -0.2399 ( 74) -0.1004 ( 77) -0.1031 ( 82) -0.2512 ( 83) -0.1005 ( 84)
           0.1703 ( 87) -0.1182 ( 94) -0.1126 (103) -0.1348 (104)
 CRD 39=  -0.1140 (  1) -0.1446 (  2) -0.1529 (  3) -0.1156 (  5)  0.1139 (  6)
           0.1162 (  9)  0.1191 ( 14)  0.7511 ( 20) -0.1231 ( 26) -0.1328 ( 27)
          -0.1153 ( 29)  0.1196 ( 47)  0.1060 ( 48)  0.1456 ( 49) -0.1117 ( 94)
          -0.1118 ( 95)  0.1004 (105)
 CRD 40=  -0.1045 (  5)  0.1389 (  6)  0.1373 (  7)  0.2080 (  8) -0.2207 ( 11)
          -0.1557 ( 12) -0.1737 ( 13)  0.2035 ( 15) -0.2158 ( 17) -0.1701 ( 18)
          -0.1523 ( 19) -0.1880 ( 35) -0.2037 ( 36) -0.1818 ( 38)  0.1075 ( 39)
           0.1187 ( 40) -0.1781 ( 42) -0.1838 ( 43) -0.1992 ( 44)  0.1057 ( 45)
           0.1152 ( 46)  0.1606 ( 51)  0.2138 ( 52)  0.1991 ( 53)  0.1572 ( 55)
           0.1946 ( 56)  0.2093 ( 57) -0.1045 ( 60)  0.1011 ( 64)  0.1118 ( 91)
          -0.1100 ( 92)
 CRD 41=   0.1389 (  6) -0.1443 (  7)  0.2124 (  8) -0.1837 ( 11) -0.1546 ( 12)
          -0.1489 ( 13) -0.2176 ( 15)  0.1882 ( 17)  0.1525 ( 18)  0.1586 ( 19)
          -0.1644 ( 35) -0.1795 ( 36) -0.1687 ( 38)  0.1723 ( 42)  0.1692 ( 43)
           0.1837 ( 44)  0.1538 ( 51)  0.1773 ( 52)  0.1815 ( 53) -0.1577 ( 55)
          -0.1862 ( 56) -0.1814 ( 57)  0.1108 ( 58)  0.1129 ( 59) -0.2312 ( 63)
          -0.2006 ( 74) -0.2006 ( 83)  0.1051 ( 91)  0.1025 ( 92)
 CRD 42=  -0.2181 (  1) -0.2176 (  2) -0.2492 (  3)  0.4075 (  4)  0.1268 (  5)
          -0.4021 ( 20) -0.2529 ( 26) -0.2420 ( 27) -0.2419 ( 29)  0.1374 ( 31)
           0.2542 ( 47)  0.2290 ( 48)  0.2538 ( 49) -0.1179 ( 90)  0.1164 ( 91)
          -0.1180 ( 92)  0.1182 ( 93)
 CRD 43=   0.1597 (  1)  0.1578 (  2) -0.1911 (  3) -0.1311 (  4)  0.4690 (  5)
           0.1233 (  9) -0.2157 ( 10)  0.1063 ( 14)  0.1009 ( 15) -0.2031 ( 16)
          -0.1165 ( 31) -0.2346 ( 48)  0.1038 ( 53)  0.1026 ( 56)  0.1432 ( 60)
          -0.1404 ( 64) -0.1744 ( 77)  0.1784 ( 82) -0.1048 ( 88)  0.1089 ( 89)
          -0.1468 ( 98) -0.1664 ( 99)  0.1388 (101)  0.1573 (102)
 CRD 44=   0.3109 (  8) -0.1387 ( 12) -0.1249 ( 13) -0.3074 ( 15)  0.1287 ( 18)
           0.1327 ( 19)  0.1216 ( 24)  0.1199 ( 25) -0.1160 ( 30) -0.1237 ( 32)
          -0.1046 ( 37) -0.1090 ( 39)  0.1057 ( 41)  0.1097 ( 45)  0.1768 ( 51)
          -0.1755 ( 55)  0.2133 ( 63)  0.2918 ( 74)  0.2914 ( 83)  0.1667 ( 87)
           0.1524 ( 88)  0.1526 ( 89) -0.1208 ( 91) -0.1217 ( 92) -0.1389 ( 94)
           0.1407 ( 99)  0.1449 (102) -0.1337 (104)
 CRD 45=  -0.2231 (  6) -0.2247 (  7)  0.2288 (  8)  0.1594 ( 11) -0.1571 ( 12)
          -0.1350 ( 13)  0.2304 ( 15)  0.1599 ( 17) -0.1259 ( 18) -0.1677 ( 19)
           0.1555 ( 24)  0.1589 ( 25)  0.1641 ( 30)  0.1510 ( 32) -0.1016 ( 46)
          -0.1227 ( 50)  0.2124 ( 51) -0.1228 ( 54)  0.2135 ( 55) -0.1083 ( 65)
           0.1092 ( 69) -0.2462 ( 94) -0.1356 ( 96)  0.1255 ( 97)  0.2175 ( 99)
          -0.1285 (100) -0.2109 (102)  0.1333 (103)  0.2546 (104)
 CRD 46=   0.1649 (  9) -0.1915 ( 10) -0.1963 ( 12)  0.1944 ( 13) -0.2502 ( 14)
           0.2308 ( 16) -0.2579 ( 18)  0.2159 ( 19) -0.1041 ( 24)  0.1255 ( 32)
          -0.1462 ( 52)  0.1629 ( 53) -0.1798 ( 56)  0.1937 ( 57)  0.2023 ( 67)
           0.2276 ( 70)  0.1319 ( 92) -0.1221 ( 94) -0.1287 ( 95) -0.1409 ( 98)
          -0.1474 ( 99) -0.1733 (101) -0.1927 (102) -0.1653 (104) -0.1847 (105)
 CRD 47=  -0.1690 (  3)  0.3363 (  4) -0.1482 (  6) -0.1256 (  7)  0.1926 (  8)
          -0.2224 (  9)  0.1019 ( 10)  0.1020 ( 12) -0.1677 ( 13) -0.1272 ( 14)
           0.1759 ( 15)  0.1915 ( 20) -0.1534 ( 23) -0.2086 ( 31) -0.1126 ( 39)
           0.1211 ( 47)  0.1018 ( 49)  0.1060 ( 50)  0.1435 ( 52)  0.1088 ( 54)
          -0.1242 ( 59) -0.1077 ( 67)  0.1155 ( 75) -0.1181 ( 79) -0.1325 ( 81)
           0.1391 ( 86)  0.1174 ( 90) -0.2762 ( 91)  0.2472 ( 92) -0.1392 ( 93)
           0.1417 ( 94)  0.1464 ( 95)
 CRD 48=  -0.1499 (  1)  0.1533 (  2) -0.2109 (  6)  0.2150 (  7)  0.1116 (  9)
           0.2293 ( 11) -0.1167 ( 12) -0.1090 ( 14) -0.2250 ( 17)  0.1206 ( 19)
           0.1156 ( 47) -0.1190 ( 49) -0.1564 ( 50)  0.1584 ( 51) -0.1120 ( 52)
           0.1498 ( 54) -0.1576 ( 55)  0.1126 ( 57) -0.1235 ( 63) -0.1192 ( 65)
           0.1213 ( 66)  0.1202 ( 68) -0.1172 ( 69) -0.1741 ( 74) -0.1064 ( 76)
          -0.1056 ( 80) -0.1703 ( 83) -0.2179 ( 87)  0.1324 ( 91)  0.1213 ( 92)
          -0.2092 ( 94)  0.1767 ( 99)  0.1716 (102) -0.2074 (104)
 CRD 49=  -0.1421 (  1)  0.1663 (  3)  0.1429 (  4)  0.1661 (  8) -0.1232 ( 11)
          -0.1503 ( 12)  0.2190 ( 13)  0.1267 ( 15)  0.2083 ( 18) -0.1507 ( 19)
          -0.1165 ( 35) -0.1254 ( 39) -0.1062 ( 43) -0.1074 ( 45)  0.1600 ( 48)
           0.2068 ( 53)  0.1899 ( 56)  0.1221 ( 60) -0.1013 ( 66)  0.1822 ( 67)
          -0.1778 ( 70) -0.1059 ( 71) -0.1466 ( 73)  0.1650 ( 77)  0.1070 ( 78)
          -0.1294 ( 82)  0.1704 ( 85)  0.1159 ( 88) -0.1393 ( 95)  0.1443 ( 96)
           0.1430 ( 97) -0.1406 ( 99) -0.1427 (100)  0.1236 (102) -0.1427 (103)
           0.1236 (105)
 CRD 50=   0.2576 (  1) -0.2910 (  2) -0.1451 (  8)  0.1119 ( 11)  0.2061 ( 15)
          -0.1657 ( 17)  0.1233 ( 27) -0.1105 ( 29) -0.1117 ( 45) -0.1161 ( 46)
          -0.2255 ( 47)  0.2007 ( 49)  0.1052 ( 56) -0.1057 ( 60)  0.1676 ( 63)
          -0.1492 ( 64) -0.1542 ( 72) -0.1136 ( 73)  0.1240 ( 74)  0.1981 ( 76)
          -0.1147 ( 77)  0.1860 ( 80) -0.1664 ( 82)  0.1339 ( 83) -0.1269 ( 84)
           0.2214 ( 87) -0.1310 ( 89) -0.1425 ( 90) -0.1062 ( 93)  0.1210 (105)
 CRD 51=  -0.1283 (  3)  0.1825 (  4) -0.1635 (  8)  0.1898 ( 11) -0.2047 ( 12)
          -0.1384 ( 15)  0.1633 ( 17) -0.2031 ( 19) -0.1060 ( 24)  0.1356 ( 38)
           0.1681 ( 40)  0.1291 ( 42)  0.1532 ( 46)  0.1152 ( 51) -0.1924 ( 52)
          -0.1861 ( 57) -0.1180 ( 60) -0.1509 ( 65)  0.1307 ( 67)  0.1371 ( 69)
          -0.1385 ( 70) -0.1017 ( 71) -0.1070 ( 75)  0.1154 ( 81)  0.1493 ( 90)
          -0.1654 ( 93) -0.1014 ( 94)  0.1214 ( 95)  0.1802 ( 96) -0.1851 ( 98)
          -0.1079 (100)  0.1676 (101) -0.1802 (103)
 CRD 52=  -0.1284 (  1) -0.1215 (  2)  0.2469 (  3) -0.1176 ( 10)  0.1376 ( 11)
          -0.1295 ( 13) -0.1157 ( 16)  0.1406 ( 17) -0.1239 ( 18) -0.1272 ( 23)
          -0.1455 ( 26) -0.1077 ( 36) -0.1105 ( 44)  0.1920 ( 48)  0.1180 ( 50)
           0.1102 ( 51)  0.1221 ( 54)  0.1130 ( 55)  0.1565 ( 60) -0.1547 ( 64)
           0.1381 ( 66) -0.1360 ( 68) -0.1941 ( 72)  0.1280 ( 77) -0.1261 ( 82)
           0.1959 ( 84)  0.1646 ( 88) -0.1574 ( 89)  0.1964 ( 95) -0.1798 ( 97)
          -0.1972 ( 98)  0.1730 (100)  0.2028 (101) -0.2003 (105)
 CRD 53=  -0.2299 (  6)  0.2298 (  7)  0.1133 (  9)  0.1180 ( 10) -0.1486 ( 11)
          -0.1198 ( 14) -0.1117 ( 16)  0.1487 ( 17) -0.1275 ( 28)  0.1276 ( 33)
           0.1405 ( 36) -0.1406 ( 44) -0.1896 ( 50) -0.1230 ( 51)  0.1897 ( 54)
           0.1231 ( 55)  0.1144 ( 65) -0.1140 ( 66) -0.1073 ( 68)  0.1213 ( 69)
          -0.2572 ( 95) -0.1426 ( 96)  0.1457 ( 97)  0.2595 ( 98)  0.1347 (100)
           0.2601 (101) -0.1537 (103) -0.2569 (105)
 CRD 54=  -0.1858 (  9)  0.1385 ( 10) -0.1564 ( 12)  0.1401 ( 13)  0.1678 ( 14)
          -0.1529 ( 16) -0.1459 ( 18)  0.1484 ( 19) -0.1219 ( 35)  0.1244 ( 38)
          -0.1467 ( 39)  0.1132 ( 40) -0.1187 ( 42)  0.1255 ( 43)  0.1435 ( 45)
          -0.1136 ( 46) -0.1135 ( 52)  0.1135 ( 53) -0.1156 ( 56)  0.1097 ( 57)
          -0.1190 ( 59)  0.1241 ( 61)  0.1299 ( 62) -0.1806 ( 65) -0.1647 ( 66)
          -0.1722 ( 68) -0.1697 ( 69)  0.1853 ( 71) -0.1054 ( 74)  0.1825 ( 78)
           0.1811 ( 79)  0.1716 ( 86)  0.2360 ( 96)  0.2093 ( 97)  0.2223 (100)
           0.2190 (103)
 CRD 55=  -0.1307 (  1)  0.1328 (  2)  0.1883 (  6) -0.1881 (  7) -0.1491 (  8)
           0.1125 ( 10)  0.1508 ( 15) -0.1091 ( 16)  0.1330 ( 21) -0.1403 ( 22)
          -0.1297 ( 27) -0.1034 ( 28)  0.1267 ( 29)  0.1024 ( 33) -0.1506 ( 37)
           0.1565 ( 41)  0.1025 ( 47) -0.1025 ( 50)  0.1042 ( 54)  0.1782 ( 58)
           0.1711 ( 59)  0.1343 ( 61)  0.1346 ( 62) -0.1120 ( 73)  0.2130 ( 74)
          -0.2459 ( 76) -0.2491 ( 80)  0.2082 ( 83) -0.1048 ( 85)  0.2246 ( 88)
           0.2285 ( 89) -0.2000 ( 90) -0.2049 ( 93)
 CRD 56=  -0.1685 (  4)  0.1816 (  6)  0.1750 (  7)  0.1191 (  8) -0.1323 (  9)
          -0.1526 ( 14)  0.1202 ( 15)  0.1648 ( 23)  0.1094 ( 26) -0.1531 ( 28)
           0.1072 ( 31) -0.1533 ( 33) -0.1977 ( 34)  0.1546 ( 50)  0.1542 ( 54)
           0.2344 ( 58) -0.2226 ( 59)  0.1075 ( 69)  0.1773 ( 72) -0.1302 ( 74)
           0.1821 ( 75)  0.1427 ( 79) -0.1750 ( 81)  0.1392 ( 83) -0.1766 ( 84)
          -0.1637 ( 86) -0.1966 ( 90)  0.2025 ( 93)  0.1294 ( 95)  0.1189 ( 96)
          -0.1157 ( 98)  0.1117 (101) -0.1414 (103) -0.1311 (105)
 CRD 57=  -0.1361 (  4)  0.2031 (  5) -0.1144 (  9)  0.1432 ( 10) -0.1073 ( 14)
           0.1445 ( 16)  0.1249 ( 21)  0.1208 ( 22)  0.1189 ( 24) -0.1315 ( 25)
          -0.1317 ( 30)  0.1134 ( 32) -0.1274 ( 37) -0.1227 ( 41)  0.2134 ( 61)
          -0.2083 ( 62) -0.1731 ( 65) -0.1814 ( 66)  0.1789 ( 68)  0.1682 ( 69)
          -0.1685 ( 72)  0.2484 ( 73)  0.2019 ( 75) -0.1106 ( 76)  0.1504 ( 79)
           0.1043 ( 80) -0.2089 ( 81)  0.1660 ( 84) -0.2439 ( 85) -0.1505 ( 86)
           0.1072 ( 96)  0.1282 ( 97) -0.1284 (100) -0.1016 (103)

 THE DETERMINANT OF THE G MATRIX IS 10**(   -20)


                     --------------------
                     INTERNAL COORDINATES
                     --------------------

                 - - ATOMS - -         COORDINATE      COORDINATE
 NO.   TYPE    I  J  K  L  M  N        (BOHR,RAD)       (ANG,DEG)
 ----------------------------------------------------------------
   1 STRETCH   1  8                     2.0597471       1.0899713
   2 STRETCH   1  9                     2.0598042       1.0900015
   3 STRETCH   1 10                     2.0598068       1.0900029
   4 STRETCH   1  2                     2.8911934       1.5299538
   5 STRETCH   2  7                     2.7003801       1.4289797
   6 STRETCH   2  3                     2.8912113       1.5299632
   7 STRETCH   2  5                     2.8913796       1.5300523
   8 STRETCH   3  4                     2.8912380       1.5299774
   9 STRETCH   3 12                     2.0599043       1.0900545
  10 STRETCH   3 11                     2.0598652       1.0900338
  11 STRETCH   4 15                     2.0598042       1.0900015
  12 STRETCH   4 14                     2.0597181       1.0899560
  13 STRETCH   4 13                     2.0598615       1.0900318
  14 STRETCH   5 16                     2.0597947       1.0899965
  15 STRETCH   5  6                     2.8912113       1.5299632
  16 STRETCH   5 17                     2.0599645       1.0900864
  17 STRETCH   6 20                     2.0597471       1.0899713
  18 STRETCH   6 19                     2.0598068       1.0900029
  19 STRETCH   6 18                     2.0597492       1.0899724
  20 STRETCH   7 21                     1.8272980       0.9669645
  21 BEND      1  2  5                  1.9106091     109.4698404
  22 BEND      1  2  3                  1.9106489     109.4721160
  23 BEND      1  2  7                  1.9106796     109.4738767
  24 BEND      2  3 12                  1.9106682     109.4732248
  25 BEND      2  3 11                  1.9106188     109.4703944
  26 BEND      2  1 10                  1.9106732     109.4735128
  27 BEND      2  1  9                  1.9106851     109.4741920
  28 BEND      2  5  6                  1.9106840     109.4741306
  29 BEND      2  1  8                  1.9106403     109.4716225
  30 BEND      2  5 17                  1.9105753     109.4678985
  31 BEND      2  7 21                  1.9897914     114.0066493
  32 BEND      2  5 16                  1.9106473     109.4720270
  33 BEND      2  3  4                  1.9106531     109.4723570
  34 BEND      3  2  5                  1.9106840     109.4741306
  35 BEND      3  4 13                  1.9105699     109.4675892
  36 BEND      3  4 15                  1.9106233     109.4706536
  37 BEND      3  2  7                  1.9106267     109.4708475
  38 BEND      3  4 14                  1.9106317     109.4711351
  39 BEND      4  3 11                  1.9106486     109.4721015
  40 BEND      4  3 12                  1.9106257     109.4707873
  41 BEND      5  2  7                  1.9105511     109.4665125
  42 BEND      5  6 18                  1.9106170     109.4702883
  43 BEND      5  6 19                  1.9106349     109.4713187
  44 BEND      5  6 20                  1.9105927     109.4689000
  45 BEND      6  5 17                  1.9106594     109.4727203
  46 BEND      6  5 16                  1.9106607     109.4727931
  47 BEND      8  1 10                  1.9106094     109.4698537
  48 BEND      8  1  9                  1.9105652     109.4673200
  49 BEND      9  1 10                  1.9106263     109.4708226
  50 BEND     11  3 12                  1.9105850     109.4684588
  51 BEND     13  4 14                  1.9105680     109.4674821
  52 BEND     13  4 15                  1.9106935     109.4746735
  53 BEND     14  4 15                  1.9107130     109.4757900
  54 BEND     16  5 17                  1.9105727     109.4677540
  55 BEND     18  6 19                  1.9107123     109.4757502
  56 BEND     18  6 20                  1.9106331     109.4712127
  57 BEND     19  6 20                  1.9106094     109.4698537
  58 TORSION   1  2  5 17              -1.0472607     -60.0036176
  59 TORSION   1  2  3 11               1.1344813      65.0009918
  60 TORSION   1  2  3 12              -3.0543553    -175.0016695
  61 TORSION   1  2  3  4              -0.9599359     -55.0002769
  62 TORSION   1  2  5  6               1.0471621      59.9979666
  63 TORSION   1  2  7 21              -3.1415469    -179.9973790
  64 TORSION   1  2  5 16              -3.1415548    -179.9978315
  65 TORSION   2  3  4 13              -1.0471438     -59.9969193
  66 TORSION   2  3  4 14               1.0471317      59.9962262
  67 TORSION   2  3  4 15              -3.1415678    -179.9985771
  68 TORSION   2  5  6 18              -1.0472147     -60.0009811
  69 TORSION   2  5  6 19               1.0472683      60.0040556
  70 TORSION   2  5  6 20              -3.1415748    -179.9989794
  71 TORSION   3  2  5  6               3.1415927     180.0000000
  72 TORSION   3  2  1  8               1.0472333      60.0020478
  73 TORSION   3  2  5 16              -1.0471242     -59.9957981
  74 TORSION   3  2  7 21               1.0471998      60.0001263
  75 TORSION   3  2  5 17               1.0471699      59.9984158
  76 TORSION   3  2  1 10              -1.0471614     -59.9979278
  77 TORSION   3  2  1  9               3.1415811     179.9993361
  78 TORSION   4  3  2  5              -3.0543422    -175.0009169
  79 TORSION   4  3  2  7               1.1345215      65.0032959
  80 TORSION   5  2  1 10               1.0472907      60.0053392
  81 TORSION   5  2  3 11              -0.9599249     -54.9996482
  82 TORSION   5  2  1  8              -3.1414999    -179.9946852
  83 TORSION   5  2  7 21              -1.0472032     -60.0003261
  84 TORSION   5  2  1  9              -1.0471521     -59.9973968
  85 TORSION   5  2  3 12               1.1344237      64.9976906
  86 TORSION   6  5  2  7              -1.0472247     -60.0015582
  87 TORSION   7  2  1 10              -3.1415865    -179.9996458
  88 TORSION   7  2  1  9               1.0471560      59.9976182
  89 TORSION   7  2  1  8              -1.0471918     -59.9996702
  90 TORSION   7  2  5 16               1.0472437      60.0026437
  91 TORSION   7  2  3 11              -3.0542465    -174.9954354
  92 TORSION   7  2  5 17               3.1415378     179.9968575
  93 TORSION   7  2  3 12              -0.9598979     -54.9980966
  94 TORSION  11  3  4 13              -3.1415428    -179.9971427
  95 TORSION  11  3  4 14              -1.0472673     -60.0039972
  96 TORSION  11  3  4 15               1.0472185      60.0011996
  97 TORSION  12  3  4 15              -1.0471224     -59.9956920
  98 TORSION  12  3  4 13               1.0473017      60.0059658
  99 TORSION  12  3  4 14               3.1415771     179.9991113
 100 TORSION  16  5  6 20               1.0471502      59.9972878
 101 TORSION  16  5  6 19              -1.0471919     -59.9996772
 102 TORSION  16  5  6 18               3.1415104     179.9952861
 103 TORSION  17  5  6 20              -1.0472036     -60.0003478
 104 TORSION  17  5  6 19              -3.1415458    -179.9973127
 105 TORSION  17  5  6 18               1.0471565      59.9976506

     ------------------------------------------
     THE POINT GROUP IS C1 , NAXIS= 1, ORDER= 1
     ------------------------------------------

     DIMENSIONS OF THE SYMMETRY SUBSPACES ARE
 A   =  217

 ..... DONE SETTING UP THE RUN .....
 STEP CPU TIME =     0.02 TOTAL CPU TIME =        0.0 (    0.0 MIN)
 TOTAL WALL CLOCK TIME=        0.0 SECONDS, CPU UTILIZATION IS  66.67%


          -----------------------------
          STATIONARY POINT LOCATION RUN
          -----------------------------

 OBTAINING INITIAL HESSIAN, HESS=GUESS   
 DIAGONAL GUESS HESSIAN IN INTERNAL COORDS IS
     1  0.3464     2  0.3464     3  0.3464     4  0.3672     5  0.3608
     6  0.3672     7  0.3671     8  0.3672     9  0.3463    10  0.3463
    11  0.3464    12  0.3464    13  0.3463    14  0.3464    15  0.3672
    16  0.3463    17  0.3464    18  0.3464    19  0.3464    20  0.3553
    21  0.2485    22  0.2485    23  0.2430    24  0.2241    25  0.2241
    26  0.2241    27  0.2241    28  0.2485    29  0.2241    30  0.2241
    31  0.2143    32  0.2241    33  0.2485    34  0.2485    35  0.2241
    36  0.2241    37  0.2430    38  0.2241    39  0.2241    40  0.2241
    41  0.2430    42  0.2241    43  0.2241    44  0.2241    45  0.2241
    46  0.2241    47  0.2034    48  0.2034    49  0.2034    50  0.2034
    51  0.2034    52  0.2034    53  0.2034    54  0.2034    55  0.2034
    56  0.2034    57  0.2034    58  0.2500    59  0.2500    60  0.2500
    61  0.2500    62  0.2500    63  0.2500    64  0.2500    65  0.2500
    66  0.2500    67  0.2500    68  0.2500    69  0.2500    70  0.2500
    71  0.2500    72  0.2500    73  0.2500    74  0.2500    75  0.2500
    76  0.2500    77  0.2500    78  0.2500    79  0.2500    80  0.2500
    81  0.2500    82  0.2500    83  0.2500    84  0.2500    85  0.2500
    86  0.2500    87  0.2500    88  0.2500    89  0.2500    90  0.2500
    91  0.2500    92  0.2500    93  0.2500    94  0.2500    95  0.2500
    96  0.2500    97  0.2500    98  0.2500    99  0.2500   100  0.2500
   101  0.2500   102  0.2500   103  0.2500   104  0.2500   105  0.2500
 TRANSFORMING HESSIAN TO SYMMETRY COORDINATES

          PARAMETERS CONTROLLING GEOMETRY SEARCH ARE
          METHOD =QA                  UPHESS =BFGS    
          NNEG   =         0          NFRZ   =         3
          NSTEP  =        50          IFOLOW =         1
          HESS   =GUESS               RESTAR =         F
          IHREP  =         0          HSSEND =         F
          NPRT   =         0          NPUN   =         0
          OPTTOL = 5.000E-04          RMIN   = 1.500E-03
          RMAX   = 1.000E-01          RLIM   = 7.000E-02
          DXMAX  = 3.000E-01          PURIFY =         F
          MOVIE  =         F          TRUPD  =         T
          TRMAX  = 5.000E-01          TRMIN  = 5.000E-02
          ITBMAT =         5          STPT   =         F
          STSTEP = 1.000E-02          PROJCT=          F
          FROZEN COORD(S)=   1   2   3


      ***** EQUILIBRIUM GEOMETRY LOCATED *****
            (SUBJECT TO   3 CONSTRAINT(S))
 COORDINATES OF ALL ATOMS ARE (ANGS)
   ATOM   CHARGE       X              Y              Z
 ------------------------------------------------------------
 C           6.0   0.0271572976   1.4615775752  -0.4061079525
 C           6.0  -0.0001099815   0.0010396622   0.0414919301
 C           6.0   1.2637935524  -0.3510166216   0.8308984683
 C           6.0   2.5051369617   0.0161123974   0.0237347404
 C           6.0  -1.2667251134  -0.3216714618   0.8388696307
 C           6.0  -2.5121845612   0.0390790353   0.0354661766
 O           8.0  -0.0147757169  -0.7688387751  -1.1576189939
 H           1.0   0.8826181781   1.6486937189  -1.0384793509
 H           1.0  -0.8541367540   1.7119762580  -0.9775054429
 H           1.0   0.0831046685   2.1210304158   0.4557209244
 H           1.0   1.2568785625   0.1614648182   1.7902945162
 H           1.0   1.2467456446  -1.4187648177   1.0474301408
 H           1.0   2.3947279576  -0.3517277897  -0.9894811323
 H           1.0   2.6048737250   1.0946473553  -0.0253960321
 H           1.0   3.4144157936  -0.3844217177   0.4515807246
 H           1.0  -1.2582398692  -1.3859201199   1.0734765136
 H           1.0  -1.2519818073   0.2064285632   1.7895757944
 H           1.0  -2.5924753640   1.1160476655  -0.0590844842
 H           1.0  -2.4303231331  -0.3750376110  -0.9625898218
 H           1.0  -3.4209611015  -0.3238100844   0.4975602710
 H           1.0  -0.0431535461  -1.6852066708  -0.9334082420


                     --------------------
                     INTERNAL COORDINATES
                     --------------------

                 - - ATOMS - -         COORDINATE      COORDINATE
 NO.   TYPE    I  J  K  L  M  N        (BOHR,RAD)       (ANG,DEG)
 ----------------------------------------------------------------
   1 STRETCH   1  8                     2.0411834       1.0801478
   2 STRETCH   1  9                     2.0404437       1.0797564
   3 STRETCH   1 10                     2.0534264       1.0866265
   4 STRETCH   1  2                     2.8871774       1.5278286
   5 STRETCH   2  7                     2.6929722       1.4250596
   6 STRETCH   2  3                     2.8935392       1.5311951
   7 STRETCH   2  5                     2.8933597       1.5311001
   8 STRETCH   3  4                     2.8828267       1.5255263
   9 STRETCH   3 12                     2.0590755       1.0896159
  10 STRETCH   3 11                     2.0554850       1.0877159
  11 STRETCH   4 15                     2.0442851       1.0817891
  12 STRETCH   4 14                     2.0489361       1.0842504
  13 STRETCH   4 13                     2.0476321       1.0835603
  14 STRETCH   5 16                     2.0594872       1.0898337
  15 STRETCH   5  6                     2.8825398       1.5253745
  16 STRETCH   5 17                     2.0553315       1.0876347
  17 STRETCH   6 20                     2.0450068       1.0821711
  18 STRETCH   6 19                     2.0478123       1.0836557
  19 STRETCH   6 18                     2.0486302       1.0840885
  20 STRETCH   7 21                     1.7835709       0.9438251
  21 BEND      1  2  5                  1.9485400     111.6431209
  22 BEND      1  2  3                  1.9348896     110.8610064
  23 BEND      1  2  7                  1.8443124     105.6713182
  24 BEND      2  3 12                  1.8910897     108.3514603
  25 BEND      2  3 11                  1.9189390     109.9471080
  26 BEND      2  1 10                  1.9269945     110.4086495
  27 BEND      2  1  9                  1.9413770     111.2327098
  28 BEND      2  5  6                  1.9297657     110.5674280
  29 BEND      2  1  8                  1.9297051     110.5639592
  30 BEND      2  5 17                  1.9194887     109.9786029
  31 BEND      2  7 21                  1.9017508     108.9622959
  32 BEND      2  5 16                  1.8875579     108.1491034
  33 BEND      2  3  4                  1.9214984     110.0937489
  34 BEND      3  2  5                  1.9453919     111.4627437
  35 BEND      3  4 13                  1.9072543     109.2776208
  36 BEND      3  4 15                  1.9666432     112.6803545
  37 BEND      3  2  7                  1.8945081     108.5473187
  38 BEND      3  4 14                  1.9158160     109.7681696
  39 BEND      4  3 11                  1.9374270     111.0063908
  40 BEND      4  3 12                  1.9323245     110.7140381
  41 BEND      5  2  7                  1.8921314     108.4111442
  42 BEND      5  6 18                  1.9191542     109.9594362
  43 BEND      5  6 19                  1.9103125     109.4528461
  44 BEND      5  6 20                  1.9621727     112.4242125
  45 BEND      6  5 17                  1.9354438     110.8927625
  46 BEND      6  5 16                  1.9290987     110.5292146
  47 BEND      8  1 10                  1.8948638     108.5676996
  48 BEND      8  1  9                  1.8717472     107.2432161
  49 BEND      9  1 10                  1.8975816     108.7234179
  50 BEND     11  3 12                  1.8611795     106.6377320
  51 BEND     13  4 14                  1.8804048     107.7392586
  52 BEND     13  4 15                  1.9068647     109.2552986
  53 BEND     14  4 15                  1.8848359     107.9931445
  54 BEND     16  5 17                  1.8607184     106.6113139
  55 BEND     18  6 19                  1.8806356     107.7524799
  56 BEND     18  6 20                  1.8840737     107.9494705
  57 BEND     19  6 20                  1.9055825     109.1818367
  58 TORSION   1  2  5 17              -1.1780450     -67.4970061
  59 TORSION   1  2  3 11               1.2060019      69.0988216
  60 TORSION   1  2  3 12              -3.0493391    -174.7142631
  61 TORSION   1  2  3  4              -0.9338461     -53.5054416
  62 TORSION   1  2  5  6               0.9652114      55.3025380
  63 TORSION   1  2  7 21              -3.1289817    -179.2774451
  64 TORSION   1  2  5 16               3.0795475     176.4450742
  65 TORSION   2  3  4 13              -0.8249458     -47.2659151
  66 TORSION   2  3  4 14               1.2336670      70.6839114
  67 TORSION   2  3  4 15              -2.9482377    -168.9215783
  68 TORSION   2  5  6 18              -1.2066034     -69.1332839
  69 TORSION   2  5  6 19               0.8560881      49.0502358
  70 TORSION   2  5  6 20               2.9769146     170.5646418
  71 TORSION   3  2  5  6               3.1396723     179.8899729
  72 TORSION   3  2  1  8               1.0475872      60.0223275
  73 TORSION   3  2  5 16              -1.0291769     -58.9674909
  74 TORSION   3  2  7 21               1.0779130      61.7598638
  75 TORSION   3  2  5 17               0.9964160      57.0904288
  76 TORSION   3  2  1 10              -1.0496481     -60.1404086
  77 TORSION   3  2  1  9               3.1252267     179.0622993
  78 TORSION   4  3  2  5              -3.1159440    -178.5304377
  79 TORSION   4  3  2  7               1.0845054      62.1375811
  80 TORSION   5  2  1 10               1.1306721      64.7827410
  81 TORSION   5  2  3 11              -0.9760959     -55.9261745
  82 TORSION   5  2  1  8              -3.0552778    -175.0545229
  83 TORSION   5  2  7 21              -1.0379146     -59.4681271
  84 TORSION   5  2  1  9              -0.9776383     -56.0145511
  85 TORSION   5  2  3 12               1.0517483      60.2607408
  86 TORSION   6  5  2  7              -1.0593658     -60.6971903
  87 TORSION   7  2  1 10              -3.0989536    -177.5569604
  88 TORSION   7  2  1  9               1.0759213      61.6457475
  89 TORSION   7  2  1  8              -1.0017182     -57.3942243
  90 TORSION   7  2  5 16               1.0549703      60.4453459
  91 TORSION   7  2  3 11              -3.0588319    -175.2581558
  92 TORSION   7  2  5 17               3.0805631     176.5032656
  93 TORSION   7  2  3 12              -1.0309876     -59.0712405
  94 TORSION  11  3  4 13              -2.9538693    -169.2442425
  95 TORSION  11  3  4 14              -0.8952564     -51.2944160
  96 TORSION  11  3  4 15               1.2060242      69.1000943
  97 TORSION  12  3  4 15              -0.8575840     -49.1359436
  98 TORSION  12  3  4 13               1.2657079      72.5197196
  99 TORSION  12  3  4 14              -2.9588646    -169.5304539
 100 TORSION  16  5  6 20               0.8873992      50.8442318
 101 TORSION  16  5  6 19              -1.2334272     -70.6701742
 102 TORSION  16  5  6 18               2.9870665     171.1463061
 103 TORSION  17  5  6 20              -1.1723345     -67.1698202
 104 TORSION  17  5  6 19               2.9900243     171.3157739
 105 TORSION  17  5  6 18               0.9273328      53.1322541

          INTERNUCLEAR DISTANCES (ANGS.)


 =====================================================
   GAMESS/COSab RESULTS
 =====================================================

   Dielectric Constant                  = INFTY
   Basic Grid Size                      =                 1082
   Number of Segments                   =                   92
   Number of Segments located on spheres=                  248
   Number of Segments of the cavity     =                  616
   Solvent Radius (rsolv)               = 1.40
   Outlying Charge Error Method         = double cavity

 =====================================================

  Total solvated Energy (a.u.)          =  -310.3081886191
  Total Energy corrected (a.u.)         =  -310.3080960603

  Outlying charge effect (a.u.)         =     0.0000925588
  Outlying charge effect (kcal/mol)     =     0.0580815766

  Dielectric Energy (a.u.)              =    -0.0085839025
  Dielectric energy corr. (a.u.)        =    -0.0084913437

  Sum of polarization charges           =     0.0257634256
  Sum of polarization charges(cor.)     =    -0.0257634256

  Total surface area of cavity (A**2)   =  152.33
  Total volume of cavity (A**3)         =  153.27

 =====================================================
 NPS=                   616
NR.  ATOM  (X, Y, Z)(a.u.)                  CHARGE(e)  AREA(A**2) SIGMA(e/A**2)
   1   1  -2.177610   5.765874  -0.226427   0.001990   0.418105   0.004760
   2   1  -0.401326   5.134153  -3.674697   0.001580   0.418105   0.003779
   3   1   1.564950   6.214670  -0.498925   0.001258   0.371649   0.003385
   4   1   2.266201   5.798158  -1.167662   0.001226   0.325193   0.003771
   5   1   0.560549   4.744163  -3.944843   0.000994   0.278737   0.003564
   6   1   0.733468   2.355253  -4.462508   0.000571   0.139368   0.004096
   7   1  -2.156779   5.401453   0.795148   0.000557   0.185824   0.003000
   8   1  -0.563083   2.631717  -4.494343   0.000964   0.278737   0.003458
   9   1  -0.294105   3.958454  -4.335827   0.001734   0.371649   0.004667
  10   1   0.360042   5.802824  -2.990546   0.001507   0.511017   0.002949
  11   1   1.051851   6.302837  -1.630867   0.001148   0.464561   0.002471
  12   1   2.475973   5.566434  -0.032354   0.000997   0.232280   0.004290
  13   1  -0.915375   6.005221  -2.450029   0.000985   0.371649   0.002650
  14   1  -1.703086   6.068910  -1.287518   0.001034   0.325193   0.003180
  15   1  -0.992201   6.379153  -0.433773   0.001412   0.464561   0.003039
  16   1   0.398820   6.520295  -0.571137   0.000744   0.325193   0.002289
  17   1   1.395476   5.869747  -2.446511   0.000652   0.278737   0.002338
  18   1   0.262895   3.174452  -4.518356   0.001158   0.278737   0.004154
  19   1  -0.320562   6.409817  -1.683523   0.001055   0.511017   0.002065
  20   3   3.566382  -2.553598   4.623548   0.001453   0.371649   0.003909
  21   3   3.127448  -1.752656   5.112938   0.001063   0.278737   0.003812
  22   3   1.178026  -2.436458   4.680758   0.000864   0.232280   0.003719
  23   3   2.213121  -2.422894   4.910466   0.001745   0.371649   0.004696
  24   3   4.274361  -1.720449   4.670050   0.000894   0.325193   0.002749
  25   3   4.987951  -1.001894   4.292494   0.000332   0.185824   0.001787
  26   3   4.564601  -2.922824   3.677854   0.000463   0.185824   0.002493
  27   3   4.625771  -0.633070   4.615941   0.000268   0.185824   0.001442
  28   3   1.468682  -1.716868   5.081411   0.000452   0.139368   0.003245
  29   3   4.806488  -2.193222   4.039115   0.000562   0.278737   0.002016
  30   4   5.976821   1.138389   3.437819   0.000549   0.232280   0.002365
  31   4   7.881055   2.082193   0.458060   0.001982   0.371649   0.005333
  32   4   5.448052  -3.656386  -0.381343   0.000633   0.232280   0.002727
  33   4   6.112531   2.291604  -2.651640   0.001200   0.278737   0.004305
  34   4   7.940061  -0.939003  -1.706044   0.001603   0.371649   0.004313
  35   4   6.353112   0.314929   3.448073   0.000731   0.278737   0.002621
  36   4   5.361446   2.629340   2.716257   0.000634   0.185824   0.003412
  37   4   6.261523   1.948320   2.921100   0.001078   0.325193   0.003316
  38   4   7.158816   2.026508   2.147321   0.001734   0.325193   0.005331
  39   4   7.230931  -1.335065  -2.442109   0.001733   0.371649   0.004662
  40   4   5.803484   1.443675  -3.293293   0.001272   0.278737   0.004565
  41   4   5.156120  -3.400074  -1.484057   0.001201   0.371649   0.003230
  42   4   7.250105   2.472479   1.455546   0.001089   0.232280   0.004687
  43   4   7.895285   1.651907   1.333849   0.001286   0.278737   0.004613
  44   4   4.749065  -3.684922  -0.647992   0.000420   0.185824   0.002262
  45   4   5.359066   2.034114  -3.098209   0.000551   0.139368   0.003952
  46   4   6.816798   1.247050  -2.864802   0.001501   0.418105   0.003589
  47   4   7.663559   0.096025  -2.342126   0.001513   0.464561   0.003256
  48   4   7.335906  -2.191744  -1.560213   0.002324   0.418105   0.005559
  49   4   6.152795  -3.330485  -0.942778   0.000985   0.232280   0.004239
  50   4   5.977822  -3.530811   0.278571   0.001152   0.325193   0.003543
  51   4   7.095212   2.162352  -1.995723   0.001446   0.418105   0.003457
  52   4   7.766589   2.111951  -0.824097   0.001571   0.418105   0.003757
  53   4   8.305212   1.203805  -0.347606   0.001690   0.464561   0.003639
  54   4   8.286180   0.121235  -1.242820   0.001017   0.325193   0.003128
  55   4   6.025085   2.574323   2.523994   0.000633   0.185824   0.003407
  56   4   6.885429   1.357829   2.854440   0.000890   0.232280   0.003831
  57   4   6.947989   0.176270  -3.014763   0.000930   0.278737   0.003336
  58   4   6.380568  -2.795222  -1.849523   0.001645   0.325193   0.005059
  59   4   5.816775  -3.382974   1.253341   0.000201   0.092912   0.002160
  60   4   7.825868   1.188108  -1.794843   0.001096   0.418105   0.002621
  61   4   6.789318  -3.030705  -0.785387   0.001099   0.232280   0.004733
  62   5  -3.574813  -1.701724   5.004716   0.001381   0.371649   0.003715
  63   5  -3.133880  -2.593452   4.714759   0.001082   0.278737   0.003881
  64   5  -1.186176  -1.817088   4.956253   0.000829   0.232280   0.003570
  65   5  -2.221138  -2.002313   5.093791   0.001730   0.371649   0.004656
  66   5  -4.348357  -2.129701   4.439676   0.001219   0.418105   0.002915
  67   5  -4.913616  -2.281925   3.850652   0.000270   0.139368   0.001934
  68   5  -4.574264  -0.744834   4.669213   0.000364   0.185824   0.001958
  69   5  -4.952965  -0.027004   4.305043   0.000079   0.092912   0.000847
  70   5  -4.629919  -2.946139   3.538778   0.000312   0.185824   0.001681
  71   5  -1.475052  -2.589801   4.669411   0.000463   0.139368   0.003321
  72   5  -4.954760  -1.131837   4.314889   0.000292   0.185824   0.001572
  73   6  -7.436402  -1.749994  -1.863465   0.002345   0.418105   0.005610
  74   6  -5.989225   1.897138   3.135819   0.000981   0.325193   0.003015
  75   6  -5.914764   1.458591  -3.250194   0.001248   0.278737   0.004479
  76   6  -8.263345   1.443323  -0.148513   0.001489   0.371649   0.004008
  77   6  -5.893068  -3.408644   0.985581   0.000733   0.278737   0.002629
  78   6  -4.608096  -3.586359  -0.864506   0.000232   0.139368   0.001668
  79   6  -5.511113  -3.610067  -0.293040   0.001333   0.418105   0.003188
  80   6  -6.503634  -3.094270  -1.011256   0.001877   0.371649   0.005050
  81   6  -7.729106   2.393885  -0.036520   0.001618   0.371649   0.004353
  82   6  -5.961162   2.285801  -2.746909   0.001214   0.278737   0.004355
  83   6  -6.098995   2.712590   2.411009   0.000990   0.278737   0.003552
  84   6  -6.612700  -2.647433  -1.776697   0.001157   0.232280   0.004982
  85   6  -7.338392  -2.457609  -1.011119   0.001387   0.278737   0.004978
  86   6  -5.174731   1.767955  -3.284346   0.000912   0.185824   0.004906
  87   6  -6.932519   1.795775  -2.491150   0.001483   0.418105   0.003546
  88   6  -7.893570   1.641290  -1.321719   0.001445   0.464561   0.003110
  89   6  -7.835193   1.994340   1.097104   0.001926   0.371649   0.005182
  90   6  -7.077880   1.936797   2.386976   0.001939   0.418105   0.004639
  91   6  -6.696413   1.100411   3.138088   0.000703   0.232280   0.003025
  92   6  -6.054656   1.012871   3.486573   0.000345   0.139368   0.002473
  93   6  -6.833794   0.631315  -3.034627   0.001475   0.418105   0.003529
  94   6  -7.460522  -0.557059  -2.487357   0.001666   0.418105   0.003985
  95   6  -8.084346  -0.712389  -1.523716   0.001814   0.464561   0.003905
  96   6  -8.362235   0.533010  -0.935933   0.000989   0.325193   0.003042
  97   6  -5.263814  -3.418085  -1.283499   0.000876   0.278737   0.003143
  98   6  -6.518719  -3.264775   0.063577   0.000989   0.278737   0.003547
  99   6  -7.263325   2.342161  -1.608937   0.000883   0.278737   0.003168
 100   6  -5.261545   2.799046   2.634726   0.000659   0.232280   0.002836
 101   6  -7.075978   2.616033   1.615875   0.001545   0.325193   0.004752
 102   6  -6.243464   0.184716   3.535953   0.000204   0.092912   0.002192
 103   6  -7.756641   0.676636  -2.138653   0.001266   0.464561   0.002726
 104   7   1.037619  -0.855444  -5.199613   0.004654   0.240512   0.019350
 105   7  -0.893740  -3.405991  -4.637166   0.001673   0.274871   0.006086
 106   7   2.012453  -3.419022  -3.780038   0.001396   0.171795   0.008129
 107   7   0.634229  -0.009305  -5.023466   0.004757   0.240512   0.019780
 108   7  -1.269596  -0.392554  -4.998019   0.006951   0.309230   0.022480
 109   7  -0.112779  -0.614511  -5.326779   0.005225   0.274871   0.019009
 110   7   1.551402  -0.373326  -4.815302   0.005714   0.240512   0.023758
 111   7   0.222893  -3.627867  -4.589932   0.001155   0.274871   0.004201
 112   7   1.317207  -3.633491  -4.187664   0.000992   0.206154   0.004812
 113   7  -1.820456  -3.438376  -4.034028   0.001895   0.240512   0.007881
 114   7  -1.734853  -1.460953  -4.953621   0.006643   0.309230   0.021484
 115   7  -1.419524  -2.562556  -4.907281   0.003698   0.274871   0.013453
 116   7  -0.297532  -2.665210  -5.191293   0.004966   0.412307   0.012043
 117   7   0.455977  -1.680147  -5.393649   0.006409   0.377948   0.016957
 118   7   1.611118  -1.772653  -4.976126   0.006904   0.377948   0.018266
 119   7   1.789697  -2.833659  -4.501549   0.003714   0.240512   0.015441
 120   7  -0.568214   0.065315  -5.010302   0.004239   0.206154   0.020564
 121   7  -0.769960  -1.517819  -5.351412   0.006458   0.377948   0.017087
 122   7   0.894237  -2.849695  -4.973845   0.004675   0.412307   0.011338
 123   7  -2.037939  -2.663508  -4.436784   0.002828   0.206154   0.013716
 124   8   3.297667   3.874020  -3.636860  -0.002295   0.372926  -0.006155
 125   8   2.971802   5.162348  -2.344086  -0.000796   0.274788  -0.002898
 126   8   1.940388   4.232698  -4.133350  -0.000831   0.314043  -0.002646
 127   8   2.040730   2.782834  -4.367712  -0.000753   0.235532  -0.003197
 128   8   3.329777   4.661404  -2.902470  -0.001351   0.255160  -0.005294
 129   8   2.440773   4.918411  -3.441469  -0.001162   0.372926  -0.003116
 130   8   2.358035   3.597821  -4.270298  -0.001025   0.274788  -0.003732
 131   8   2.872448   2.886394  -4.091194  -0.001369   0.215905  -0.006343
 132   9  -3.248756   4.145118  -3.439372  -0.003102   0.451437  -0.006872
 133   9  -1.948484   3.923760  -4.181554  -0.000659   0.294415  -0.002239
 134   9  -2.312426   5.341473  -2.901226  -0.000583   0.274788  -0.002122
 135   9  -2.499129   3.074883  -4.133285  -0.002033   0.431809  -0.004708
 136   9  -2.212721   4.732239  -3.700737  -0.001159   0.372926  -0.003107
 137   9  -3.060841   5.154929  -2.353721  -0.001916   0.451437  -0.004244
 138  10   0.252436   5.803663   2.535150  -0.002626   0.451437  -0.005816
 139  10  -1.472324   5.116171   2.328333  -0.001375   0.314043  -0.004380
 140  10  -0.549661   6.316949   1.314126  -0.001107   0.372926  -0.002967
 141  10   1.602481   5.925758   1.379516  -0.000810   0.294415  -0.002750
 142  10   1.614151   4.943419   2.603954  -0.001533   0.274788  -0.005580
 143  10  -0.515713   4.922273   3.039913  -0.002313   0.372926  -0.006203
 144  10  -1.022322   5.837178   2.000860  -0.001615   0.412182  -0.003919
 145  10   0.581089   6.382347   1.328670  -0.001502   0.412182  -0.003643
 146  10   1.537916   5.610348   2.110709  -0.001741   0.372926  -0.004668
 147  10   0.586452   4.796348   3.147984  -0.002334   0.353299  -0.006607
 148  11   2.695939   1.116514   5.679654  -0.002247   0.431809  -0.005204
 149  11   3.146685   2.423245   4.359577  -0.001381   0.353299  -0.003910
 150  11   4.039424   0.942702   5.073964  -0.001186   0.353299  -0.003357
 151  11   2.550999  -0.379445   5.735948  -0.000895   0.372926  -0.002401
 152  11   2.039183   2.179162   4.935646  -0.002334   0.412182  -0.005661
 153  11   3.546245   1.783350   4.957485  -0.001466   0.372926  -0.003932
 154  11   3.549169   0.125096   5.533608  -0.001203   0.412182  -0.002920
 155  11   1.691429  -0.009309   5.721710  -0.001566   0.392554  -0.003990
 156  11   1.658557   1.318278   5.503336  -0.002014   0.353299  -0.005701
 157  12   2.774544  -4.993641   2.694852  -0.001998   0.412182  -0.004847
 158  12   3.543731  -4.684712   1.198456  -0.000848   0.294415  -0.002882
 159  12   2.008228  -3.981961   4.034070  -0.000801   0.372926  -0.002147
 160  12   3.918731  -4.164163   3.159786  -0.000835   0.353299  -0.002363
 161  12   2.750722  -5.020789   1.342964  -0.001715   0.372926  -0.004600
 162  12   1.760883  -5.063838   2.037147  -0.002375   0.392554  -0.006051
 163  12   1.661622  -4.665907   3.249538  -0.002022   0.412182  -0.004906
 164  12   3.037439  -4.231380   3.759045  -0.001112   0.412182  -0.002697
 165  12   3.835033  -4.621019   2.269455  -0.001106   0.353299  -0.003132
 166  13   4.774132  -1.456990  -4.181882  -0.002405   0.431809  -0.005570
 167  13   4.941765  -2.879496  -2.847747  -0.000706   0.294415  -0.002397
 168  13   6.043101  -1.253421  -3.709701  -0.000783   0.353299  -0.002217
 169  13   4.942482   0.358590  -4.063958  -0.000642   0.255160  -0.002515
 170  13   4.795048  -2.370680  -3.616829  -0.001300   0.294415  -0.004417
 171  13   5.813623  -2.190559  -3.300666  -0.000653   0.353299  -0.001847
 172  13   5.658782  -0.382607  -4.031099  -0.000850   0.353299  -0.002406
 173  13   4.484730  -0.334601  -4.303888  -0.001440   0.314043  -0.004584
 174  14   5.502443   4.434161  -0.368545  -0.002317   0.431809  -0.005366
 175  14   6.551509   3.606920   0.959438  -0.000467   0.314043  -0.001487
 176  14   5.118292   3.776961   1.706487  -0.000912   0.294415  -0.003098
 177  14   6.574708   3.571778  -1.070565  -0.000710   0.372926  -0.001903
 178  14   5.891523   4.001461   1.118218  -0.000809   0.274788  -0.002945
 179  14   5.192297   4.380229   0.738500  -0.001701   0.314043  -0.005416
 180  14   5.700008   3.814785  -1.591139  -0.001577   0.412182  -0.003826
 181  14   6.640920   3.823964  -0.074797  -0.001212   0.412182  -0.002940
 182  15   8.558186  -1.569402   1.796649  -0.003394   0.608459  -0.005578
 183  15   7.316366  -1.824022   2.874213  -0.001187   0.353299  -0.003360
 184  15   7.901049   0.023577   2.690133  -0.000619   0.333671  -0.001855
 185  15   8.804147  -0.017193   0.823371  -0.000769   0.353299  -0.002177
 186  15   8.360167  -1.959054  -0.082489  -0.000701   0.372926  -0.001879
 187  15   7.182210  -3.044444   1.212824  -0.000643   0.353299  -0.001819
 188  15   7.665364  -0.914621   2.981318  -0.001603   0.471065  -0.003403
 189  15   8.598929  -0.075936   1.855336  -0.001647   0.490692  -0.003357
 190  15   8.847889  -1.045843   0.412623  -0.001766   0.510320  -0.003460
 191  15   8.079488  -2.562857   0.731077  -0.001719   0.490692  -0.003504
 192  15   7.448111  -2.562662   2.146336  -0.001810   0.490692  -0.003689
 193  16  -2.513152  -4.936784   2.831489  -0.001641   0.333671  -0.004918
 194  16  -3.279965  -4.691877   1.067173  -0.000942   0.255160  -0.003692
 195  16  -4.094892  -4.275467   2.613861  -0.000905   0.314043  -0.002881
 196  16  -2.554068  -3.962358   4.077815  -0.000796   0.372926  -0.002134
 197  16  -2.390090  -5.052291   1.690786  -0.001645   0.333671  -0.004931
 198  16  -3.581605  -4.757775   1.921590  -0.001316   0.353299  -0.003724
 199  16  -3.222596  -4.591663   3.224362  -0.001260   0.294415  -0.004279
 200  16  -1.697637  -4.220063   3.763277  -0.001624   0.412182  -0.003941
 201  16  -1.598853  -4.911755   2.443044  -0.002112   0.333671  -0.006329
 202  16  -3.680689  -3.936912   3.641174  -0.000533   0.294415  -0.001812
 203  17  -2.746463   1.496458   5.541960  -0.002342   0.451437  -0.005189
 204  17  -3.561592   2.208446   4.521558  -0.000980   0.294415  -0.003328
 205  17  -1.984585  -0.309386   5.705699  -0.001060   0.392554  -0.002700
 206  17  -3.905002   0.477638   5.294570  -0.001030   0.372926  -0.002763
 207  17  -2.730760   2.537839   4.517221  -0.001771   0.372926  -0.004749
 208  17  -1.700738   2.006968   5.107604  -0.002594   0.412182  -0.006293
 209  17  -1.733010   0.787729   5.721991  -0.002215   0.431809  -0.005130
 210  17  -3.050026   0.043012   5.715617  -0.001242   0.412182  -0.003014
 211  17  -3.849125   1.427177   5.043026  -0.001175   0.353299  -0.003326
 212  18  -5.255939   4.522465   0.176606  -0.002379   0.412182  -0.005772
 213  18  -5.895573   3.830146   1.330514  -0.000561   0.333671  -0.001683
 214  18  -6.796274   3.650085  -0.358377  -0.000551   0.294415  -0.001872
 215  18  -5.719308   3.642853  -1.846506  -0.000701   0.274788  -0.002550
 216  18  -4.926251   4.088378   1.343184  -0.001415   0.353299  -0.004004
 217  18  -6.425025   3.944838   0.468326  -0.001104   0.412182  -0.002678
 218  18  -6.418974   3.673682  -1.241640  -0.000659   0.294415  -0.002239
 219  18  -5.671432   4.331005  -0.819753  -0.002144   0.392554  -0.005461
 220  19  -4.755745  -1.551411  -4.120856  -0.002976   0.529948  -0.005616
 221  19  -5.770687  -2.552858  -2.935494  -0.000432   0.333671  -0.001295
 222  19  -4.581583   0.201801  -4.100684  -0.001065   0.333671  -0.003192
 223  19  -6.075039  -0.712288  -3.778008  -0.000672   0.372926  -0.001802
 224  19  -4.839469  -2.825548  -3.041016  -0.001632   0.431809  -0.003779
 225  19  -5.252626  -0.254865  -4.141432  -0.001172   0.372926  -0.003142
 226  19  -5.943121  -1.744192  -3.590787  -0.001353   0.431809  -0.003133
 227  20  -8.560761  -1.445166   1.913539  -0.003403   0.608459  -0.005593
 228  20  -7.263813  -2.095785   2.727611  -0.001188   0.353299  -0.003362
 229  20  -7.573300  -2.804188   0.941065  -0.000613   0.333671  -0.001838
 230  20  -8.668457  -1.269513   0.076512  -0.000746   0.353299  -0.002112
 231  20  -8.629577   0.428040   1.456848  -0.000756   0.372926  -0.002028
 232  20  -7.499791  -0.078161   3.103309  -0.000648   0.353299  -0.001834
 233  20  -7.454877  -2.630950   1.929254  -0.001596   0.471065  -0.003388
 234  20  -8.364333  -2.132016   0.600071  -0.001636   0.490692  -0.003335
 235  20  -8.914328  -0.477756   0.812322  -0.001777   0.510320  -0.003482
 236  20  -8.358941   0.001943   2.379044  -0.001744   0.490692  -0.003555
 237  20  -7.585736  -1.157390   3.057053  -0.001803   0.490692  -0.003674
 238  21   0.121282  -5.627386  -1.600698  -0.005840   0.333671  -0.017502
 239  21   1.476608  -4.802252  -2.759079  -0.005907   0.431809  -0.013679
 240  21  -0.728755  -4.919893  -3.377860  -0.005581   0.412182  -0.013541
 241  21  -1.809325  -4.925207  -1.905515  -0.006029   0.353299  -0.017064
 242  21   0.307117  -5.472555  -2.569616  -0.005887   0.353299  -0.016663
 243  21  -0.914980  -5.420283  -2.348774  -0.005835   0.353299  -0.016516
 244  21  -0.932851  -5.417169  -1.193029  -0.006475   0.333671  -0.019406
 245  21   0.231552  -5.401882  -0.753639  -0.006480   0.294415  -0.022009
 246  21   1.387510  -5.153236  -1.727011  -0.007833   0.431809  -0.018139
 247  21   0.448354  -4.866293  -3.474490  -0.004408   0.353299  -0.012477
 248  21  -1.719906  -4.628546  -2.888973  -0.003311   0.255160  -0.012978
 249   1   1.157894   1.808900  -4.288454   0.000403   0.058884   0.006836
 250   7   1.093673   1.013614  -4.383686   0.001074   0.058884   0.018231
 251   8   1.426447   1.938262  -4.246320   0.000086   0.058884   0.001467
 252   1  -1.379181   1.828466  -4.172184   0.000426   0.055124   0.007730
 253   7  -1.327485   1.032728  -4.269663   0.001095   0.055124   0.019864
 254   9  -1.629050   1.983957  -4.111081   0.000059   0.055124   0.001074
 255   7  -0.819281   0.646845  -4.654205   0.004742   0.294428   0.016107
 256   7   0.541703   0.642761  -4.718026   0.004513   0.294428   0.015329
 257   1  -0.122494   1.759541  -4.409965   0.004227   0.645484   0.006549
 258   1   3.234118   4.935134  -1.026781   0.000001   0.074132   0.000013
 259   8   3.380188   4.830545  -1.269890  -0.000238   0.074132  -0.003214
 260  14   4.067790   4.530868  -0.843551  -0.000285   0.074132  -0.003838
 261   8   1.516208   2.612438  -4.360977  -0.000098   0.069226  -0.001419
 262   8   1.346082   3.720675  -4.263190  -0.000230   0.154382  -0.001490
 263   8   1.589753   4.877376  -3.591283  -0.000364   0.154382  -0.002357
 264   8   2.271478   5.370458  -2.523147  -0.000418   0.154382  -0.002705
 265   8   2.957422   5.181813  -1.651029  -0.000154   0.069226  -0.002231
 266   1   1.022437   2.950148  -4.364650   0.000006   0.151048   0.000038
 267   1   0.989909   4.425737  -3.972021  -0.000012   0.151048  -0.000079
 268   1   1.539804   5.406083  -2.938040  -0.000157   0.151048  -0.001040
 269   1   2.437363   5.472660  -1.704130  -0.000146   0.151048  -0.000965
 270   1  -3.089070   5.018581  -0.741377  -0.000041   0.072426  -0.000560
 271   9  -3.252221   4.937362  -0.982117  -0.000256   0.072426  -0.003541
 272  18  -3.947961   4.617049  -0.603567  -0.000338   0.072426  -0.004668
 273   9  -2.820811   5.309947  -1.340263  -0.000130   0.072267  -0.001802
 274   9  -2.151376   5.527479  -2.277447  -0.000408   0.162801  -0.002507
 275   9  -1.540131   5.016351  -3.444208  -0.000406   0.162801  -0.002495
 276   9  -1.417799   3.806270  -4.163196  -0.000379   0.162801  -0.002330
 277   9  -1.695543   2.669707  -4.232898  -0.000046   0.072267  -0.000639
 278   1  -2.283624   5.588461  -1.422911  -0.000151   0.156176  -0.000965
 279   1  -1.431286   5.537298  -2.759953  -0.000207   0.156176  -0.001324
 280   1  -0.993193   4.509391  -3.886123  -0.000078   0.156176  -0.000497
 281   1  -1.173023   2.982632  -4.277846  -0.000011   0.156176  -0.000072
 282   1   2.800528   4.863044   0.845323   0.000161   0.060336   0.002662
 283  10   2.604020   4.925537   1.068273   0.000032   0.060336   0.000525
 284  14   3.635799   4.426751   0.836200  -0.000019   0.060336  -0.000312
 285   1  -2.566345   4.545359   1.349410   0.000109   0.033128   0.003278
 286  10  -2.327427   4.634162   1.511605  -0.000031   0.033128  -0.000940
 287  18  -3.429544   4.150458   1.244155  -0.000001   0.033128  -0.000024
 288  10   2.107019   5.482162   1.096529  -0.000111   0.070283  -0.001584
 289  10   1.280506   6.120060   0.662078  -0.000442   0.156572  -0.002822
 290  10  -0.056273   6.378834   0.550852  -0.000476   0.156572  -0.003041
 291  10  -1.275846   5.930713   0.972919  -0.000359   0.156572  -0.002293
 292  10  -1.873340   5.187340   1.580523  -0.000083   0.070283  -0.001182
 293   1   1.988049   5.671449   0.536705  -0.000057   0.153574  -0.000369
 294   1   0.669183   6.333360   0.115843  -0.000206   0.153574  -0.001340
 295   1  -0.849986   6.220837   0.300567  -0.000194   0.153574  -0.001262
 296   1  -1.920021   5.381982   1.011909  -0.000065   0.153574  -0.000423
 297  14   4.414211   4.500866  -0.064464  -0.002094   0.405225  -0.005166
 298   1   3.098974   5.023025   0.088021   0.001438   0.571538   0.002515
 299  18  -4.157716   4.295436   0.988003  -0.000842   0.248218  -0.003391
 300  18  -4.336255   4.602844  -0.053680  -0.001034   0.248218  -0.004164
[...]
 359   4   5.627672  -3.119540   1.963117   0.000027   0.021647   0.001268
 360  12   4.974423  -3.405242   2.211517   0.000039   0.021647   0.001822
 361  15   5.905549  -3.007794   1.979984  -0.000012   0.021647  -0.000554
 362   4   3.511382  -3.708055  -0.601430   0.000214   0.228574   0.000934
 363  12   3.027583  -4.058587  -0.123638  -0.000598   0.228574  -0.002616
 364  21   2.443120  -4.105844  -0.936752  -0.001415   0.228574  -0.006190
 365  12   3.585300  -4.241554   0.468285  -0.000373   0.191726  -0.001947
 366  12   4.310361  -4.047333   1.631810  -0.001029   0.391512  -0.002628
 367   4   4.703327  -3.765542   0.272677   0.000740   0.526175   0.001407
 368   4   5.438100  -3.443223   1.627689   0.000694   0.270061   0.002570
 369   4   3.893489  -3.247323  -1.862068   0.000201   0.107206   0.001872
 370  13   3.870411  -3.144215  -2.149251   0.000017   0.107206   0.000163
 371  21   2.787438  -3.596827  -2.085203   0.000694   0.107206   0.006477
 372  13   4.956099   0.863371  -3.742862  -0.000045   0.070144  -0.000638
 373  13   5.895675   0.241038  -3.619305  -0.000219   0.156517  -0.001399
 374  13   6.467841  -0.947038  -3.250329  -0.000216   0.156517  -0.001382
 375  13   6.149552  -2.187412  -2.765346  -0.000128   0.156517  -0.000817
 376  13   5.078154  -2.944847  -2.373630  -0.000246   0.156517  -0.001573
 377   4   5.488876   0.972239  -3.484343   0.000091   0.153004   0.000594
 378   4   6.551928  -0.104665  -3.209213   0.000035   0.153004   0.000230
 379   4   6.702879  -1.548583  -2.701462   0.000134   0.153004   0.000874
 380   4   5.876593  -2.736449  -2.180191   0.000120   0.153004   0.000784
 381   4   4.762270  -3.221592  -1.882651  -0.000011   0.085697  -0.000134
 382  14   4.794993   3.368693   2.033526  -0.000143   0.067210  -0.002123
 383  14   5.856965   3.260844   1.821916  -0.000198   0.148561  -0.001330
 384  14   6.836767   3.130582   0.951501  -0.000152   0.148561  -0.001022
 385  14   7.102009   3.047406  -0.335872  -0.000160   0.148561  -0.001075
 386  14   6.547692   3.044242  -1.530578  -0.000221   0.148561  -0.001486
 387  14   5.657922   3.098091  -2.154760  -0.000039   0.067210  -0.000586
 388   4   5.204634   3.005642   2.254783  -0.000149   0.147946  -0.001009
 389   4   6.557734   2.854107   1.675201   0.000108   0.147946   0.000730
 390   4   7.294590   2.727787   0.398155   0.000114   0.147946   0.000770
 391   4   7.123507   2.676689  -1.070817   0.000046   0.147946   0.000308
 392   4   6.112210   2.721039  -2.150202   0.000035   0.147946   0.000234
 393  15   6.456065  -3.033096   1.702470  -0.000093   0.065973  -0.001412
 394  15   6.891345  -3.090963   0.723208  -0.000223   0.145507  -0.001534
 395  15   7.580728  -2.552873  -0.238176  -0.000067   0.145507  -0.000458
 396  15   8.221626  -1.480476  -0.596319  -0.000202   0.145507  -0.001389
 397  15   8.566742  -0.287567  -0.213027  -0.000208   0.145507  -0.001432
 398  15   8.482910   0.565560   0.763802  -0.000228   0.145507  -0.001568
 399  15   8.002479   0.749719   1.957252  -0.000142   0.145507  -0.000973
 400  15   7.310825   0.193850   2.906818  -0.000234   0.145507  -0.001606
 401  15   6.761128  -0.644248   3.290478  -0.000070   0.065973  -0.001055
 402   4   6.231012  -3.197892   1.187940  -0.000071   0.145511  -0.000490
 403   4   6.917385  -3.000330  -0.085838   0.000101   0.145511   0.000693
 404   4   7.703668  -2.048427  -0.865765   0.000073   0.145511   0.000501
 405   4   8.286467  -0.709482  -0.850900   0.000039   0.145511   0.000271
 406   4   8.440903   0.499860  -0.046979  -0.000022   0.145511  -0.000151
 407   4   8.107387   1.112964   1.235798   0.000052   0.145511   0.000356
 408   4   7.414608   0.893258   2.502461   0.000127   0.145511   0.000873
 409   4   6.629881  -0.074481   3.264255  -0.000105   0.145511  -0.000724
 410  21   2.323974  -4.248869  -1.880961  -0.001298   0.263183  -0.004931
 411   4   3.877380  -3.700986  -1.290246   0.000975   0.382804   0.002548
 412   5  -4.941243  -3.251353   2.513632   0.000049   0.026730   0.001835
 413   6  -5.324335  -3.101998   2.233888   0.000088   0.026730   0.003278
 414  16  -4.728595  -3.469316   2.519097  -0.000010   0.026730  -0.000389
 415   5  -4.928420   0.489335   4.175537   0.000007   0.026075   0.000277
 416   6  -5.311523   0.598646   3.877895   0.000048   0.026075   0.001837
 417  17  -4.714112   0.625328   4.341913  -0.000040   0.026075  -0.001523
 418   5  -5.358372  -2.989545   2.401228   0.000078   0.023419   0.003312
 419   6  -5.783995  -2.907004   2.157759   0.000064   0.023419   0.002720
 420  20  -6.064555  -2.801437   2.182536   0.000008   0.023419   0.000347
 421   5  -5.583916  -0.630784   3.809999   0.000043   0.023419   0.001836
 422   6  -6.012643  -0.515777   3.585921   0.000034   0.023419   0.001471
 423  20  -6.272594  -0.625741   3.481971  -0.000002   0.023419  -0.000097
 424   6  -5.804563  -0.038973   3.714928   0.000315   0.184973   0.001706
 425   5  -5.169975   0.007346   4.105541   0.000211   0.184973   0.001143
 426   5  -2.833801   3.007139   2.814495  -0.000034   0.088690  -0.000383
 427  10  -2.137447   3.682577   2.503216  -0.000052   0.088690  -0.000582
 428  17  -2.753309   2.941865   3.102922  -0.000179   0.088690  -0.002017
 429   5  -3.100667   3.144637   2.359750   0.000044   0.234948   0.000187
 430  10  -2.422583   3.845051   2.040772   0.000006   0.234948   0.000024
 431  18  -3.581719   3.445762   1.854689  -0.000285   0.234948  -0.001215
 432   5  -0.644930  -0.867727   5.002946  -0.000017   0.088010  -0.000195
 433  11   0.302827  -0.591225   5.039929   0.000025   0.088010   0.000279
 434  17  -0.748421  -0.603460   5.119159  -0.000193   0.088010  -0.002192
 435  11   0.848596  -0.687670   5.247404   0.000021   0.016580   0.001280
 436   5  -0.548496  -1.080012   5.105201   0.000112   0.023527   0.004775
 437  16  -1.448628  -3.338210   4.186523  -0.000088   0.069021  -0.001269
 438  16  -2.546663  -3.316861   4.323118  -0.000251   0.152856  -0.001640
 439  16  -3.774437  -3.440971   3.804534  -0.000370   0.152856  -0.002419
 440  16  -4.423271  -3.638905   2.930102  -0.000127   0.069021  -0.001842
 441   5  -1.811656  -2.938639   4.443729   0.000036   0.151698   0.000240
 442   5  -3.309997  -2.977518   4.321583  -0.000027   0.151698  -0.000175
 443   5  -4.426219  -3.202934   3.339397  -0.000196   0.151698  -0.001293
 444   5  -3.432806   2.855642   2.737139   0.000004   0.025365   0.000160
 445  17  -3.352549   2.768735   3.015976  -0.000043   0.025365  -0.001713
 446  18  -3.911390   3.110335   2.219494   0.000002   0.025365   0.000078
 447  17  -4.411474   0.427414   4.741882  -0.000125   0.069043  -0.001813
 448  17  -3.773037  -0.371116   5.175543  -0.000380   0.153128  -0.002479
 449  17  -2.547406  -0.858733   5.427397  -0.000248   0.153128  -0.001620
 450  17  -1.444508  -0.752992   5.351561  -0.000162   0.069043  -0.002343
 451   5  -4.422147  -0.168016   4.688388  -0.000265   0.151515  -0.001750
 452   5  -3.315499  -1.071522   5.173101  -0.000038   0.151515  -0.000248
 453   5  -1.813740  -1.205770   5.224388  -0.000039   0.151515  -0.000255
 454  20  -6.289482  -2.582354   2.470792  -0.000120   0.184734  -0.000652
 455  20  -6.406327  -1.479301   3.201368  -0.000768   0.376303  -0.002042
 456   5  -5.328342  -2.415001   3.220505   0.000804   0.507977   0.001582
 457   5  -5.444305  -1.093887   3.944143   0.000487   0.260140   0.001873
 458   6  -4.938830   2.869318  -2.583382  -0.000014   0.074143  -0.000189
 459   9  -4.171778   3.344169  -2.749013  -0.000390   0.074143  -0.005257
 460  18  -4.929790   3.125897  -2.420166  -0.000198   0.074143  -0.002673
 461   6  -4.228802   1.460902  -3.456263   0.000293   0.068720   0.004270
 462   9  -3.522721   2.042209  -3.503408   0.000069   0.068720   0.000998
 463  19  -4.204935   1.179333  -3.565865   0.000045   0.068720   0.000651
 464   9  -3.491301   2.924930  -3.459700  -0.001889   0.359761  -0.005251
 465   6  -4.687954   2.338201  -3.101435   0.001338   0.506632   0.002641
 466   6  -3.606528  -3.696718  -0.503487   0.000114   0.225725   0.000507
 467  16  -3.118796  -4.038337  -0.024876  -0.000702   0.225725  -0.003110
 468  21  -2.567559  -4.102593  -0.852451  -0.001727   0.225725  -0.007649
 469  16  -4.568722  -3.791762   2.247785  -0.000228   0.193647  -0.001180
 470  16  -3.959605  -4.137740   1.036990  -0.001166   0.395683  -0.002947
 471   6  -5.240557  -3.501287   1.257043   0.000916   0.531184   0.001725
 472   6  -4.452728  -3.792213  -0.094065   0.000486   0.272776   0.001781
 473   6  -4.057148   3.026194   2.351229   0.000044   0.028237   0.001551
 474  17  -3.568385   2.780777   2.872280   0.000027   0.028237   0.000949
 475  18  -4.132084   3.202881   2.118972  -0.000045   0.028237  -0.001594
 476  17  -3.551388   2.576257   3.536732  -0.000392   0.202312  -0.001936
 477  17  -4.316387   1.525382   4.186577  -0.001332   0.414313  -0.003214
 478   6  -4.684755   2.397210   3.061615   0.000836   0.553912   0.001508
 479   6  -5.455267   1.101557   3.738772   0.000571   0.284933   0.002003
 480  18  -5.573962   3.064512  -2.271670  -0.000086   0.068685  -0.001259
 481  18  -6.491347   3.051092  -1.645431  -0.000265   0.152516  -0.001735
 482  18  -7.058033   3.115590  -0.429469  -0.000236   0.152516  -0.001546
 483  18  -6.768860   3.251671   0.875030  -0.000117   0.152516  -0.000769
 484  18  -5.743330   3.403099   1.728971  -0.000289   0.152516  -0.001896
 485  18  -4.649664   3.499476   1.897959  -0.000163   0.068685  -0.002380
 486   6  -6.042070   2.695633  -2.253542  -0.000015   0.150526  -0.000098
 487   6  -7.083109   2.713878  -1.161588  -0.000012   0.150526  -0.000080
 488   6  -7.247722   2.832855   0.333473   0.000128   0.150526   0.000851
 489   6  -6.467880   3.003397   1.613793   0.000041   0.150526   0.000272
 490   6  -5.065859   3.155025   2.150270  -0.000152   0.150526  -0.001012
 491   6  -4.013130  -3.293894  -1.719904   0.000057   0.104558   0.000543
 492  19  -3.994856  -3.205232  -2.012081   0.000015   0.104558   0.000147
 493  21  -2.935296  -3.650088  -1.967960   0.000302   0.104558   0.002886
 494  19  -4.795189  -3.135307  -2.119335  -0.000082   0.072669  -0.001124
 495  19  -5.834711  -2.671818  -2.396912  -0.000207   0.163453  -0.001267
 496  19  -6.541672  -1.564010  -2.914560  -0.000144   0.163453  -0.000881
 497  19  -6.306583  -0.270892  -3.431831  -0.000245   0.163453  -0.001498
 498  19  -5.238069   0.610044  -3.709718  -0.000153   0.163453  -0.000935
 499   6  -5.328772  -3.082325  -1.823478   0.000035   0.157319   0.000222
 500   6  -6.540222  -2.175856  -2.298963   0.000185   0.157319   0.001176
 501   6  -6.821917  -0.742563  -2.916784   0.000063   0.157319   0.000399
 502   6  -6.043699   0.555293  -3.391474   0.000024   0.157319   0.000154
 503   6  -4.911336   1.158882  -3.549045   0.000195   0.088781   0.002202
 504  20  -6.733066  -0.395541   3.374055  -0.000086   0.065893  -0.001306
 505  20  -7.274840   0.428741   2.955893  -0.000256   0.145262  -0.001759
 506  20  -7.971787   0.945711   1.991233  -0.000106   0.145262  -0.000732
 507  20  -8.474276   0.710496   0.818312  -0.000233   0.145262  -0.001602
 508  20  -8.589206  -0.186513  -0.112133  -0.000211   0.145262  -0.001453
 509  20  -8.272412  -1.400610  -0.442546  -0.000196   0.145262  -0.001350
 510  20  -7.645634  -2.465235  -0.045956  -0.000129   0.145262  -0.000885
 511  20  -6.949733  -2.971270   0.925236  -0.000250   0.145262  -0.001723
 512  20  -6.495655  -2.878411   1.891160  -0.000063   0.065893  -0.000949
 513   6  -6.592859   0.169443   3.316113  -0.000105   0.145406  -0.000722
 514   6  -7.373218   1.107545   2.518127   0.000095   0.145406   0.000651
 515   6  -8.082019   1.274047   1.254934   0.000136   0.145406   0.000938
 516   6  -8.446879   0.604965   0.011959  -0.000008   0.145406  -0.000055
 517   6  -8.327589  -0.642583  -0.733139   0.000012   0.145406   0.000085
 518   6  -7.769990  -1.989184  -0.694032   0.000129   0.145406   0.000888
 519   6  -6.988358  -2.917358   0.114252  -0.000006   0.145406  -0.000043
 520   6  -6.283064  -3.070423   1.381103  -0.000079   0.145406  -0.000545
 521  21  -2.450318  -4.320036  -1.615146  -0.001714   0.244347  -0.007013
 522   6  -4.010132  -3.664792  -1.304087   0.000788   0.354357   0.002224
 523   7   2.185003   0.391234  -4.081142   0.004655   0.260357   0.017878
 524   8   2.462189   1.332640  -3.881800   0.000858   0.260357   0.003294
 525  13   3.104300   0.485926  -3.871133   0.001330   0.260357   0.005110
 526   8   1.980770   1.863402  -4.240722   0.000221   0.214646   0.001031
 527   7   1.423403   0.576394  -4.575323   0.003163   0.266394   0.011872
 528   7  -2.241216   0.480246  -3.985901   0.005031   0.272462   0.018464
 529   9  -2.489649   1.442532  -3.755627   0.000992   0.272462   0.003641
 530  19  -3.161505   0.557375  -3.762640   0.001570   0.272462   0.005763
 531   9  -1.980599   2.005887  -4.149687   0.000249   0.157808   0.001575
 532   7  -1.695642   0.598020  -4.437255   0.002596   0.196235   0.013228
 533   7   2.479106  -3.476996  -2.851807   0.000737   0.064526   0.011424
 534  13   3.313645  -3.084381  -2.690171   0.000754   0.064526   0.011691
 535  21   2.317421  -3.709289  -2.697144   0.000026   0.064526   0.000399
 536  13   3.907761  -2.885322  -3.067262   0.000223   0.219259   0.001015
 537  13   3.814399  -2.012153  -3.895516   0.000328   0.441482   0.000742
 538  13   3.592593  -0.597783  -4.225687   0.000509   0.441482   0.001154
 539   7   2.604231  -2.968596  -3.644259   0.006745   0.537113   0.012557
 540   7   2.427153  -1.605152  -4.489080   0.009173   0.537113   0.017078
 541   7   2.205520  -0.310368  -4.525058   0.004277   0.270709   0.015799
 542   7  -2.540992  -3.407024  -3.037837   0.000549   0.072630   0.007563
 543  19  -3.382106  -3.038097  -2.845380   0.000741   0.072630   0.010206
 544  21  -2.407515  -3.649145  -2.870492  -0.000019   0.072630  -0.000255
 545  19  -3.585159  -0.059997  -4.126020   0.000386   0.212841   0.001814
 546  19  -3.777239  -1.215811  -4.171225   0.000406   0.428330   0.000949
 547  19  -3.930232  -2.477747  -3.518033   0.000107   0.428330   0.000251
 548   7  -2.356952  -0.678891  -4.503388   0.009721   0.521682   0.018635
 549   7  -2.586571  -2.211563  -4.252573   0.007706   0.521682   0.014772
 550   7  -2.685434  -3.209305  -3.462414   0.002542   0.262830   0.009672
 551  21  -1.856788  -4.105799  -3.183717  -0.000722   0.084293  -0.008566
 552  21  -0.764933  -4.282036  -3.765836  -0.002085   0.183394  -0.011370
 553  21   0.747240  -4.311149  -3.693445  -0.001991   0.183394  -0.010857
 554  21   1.784479  -4.175902  -3.009404  -0.000536   0.084293  -0.006356
 555   7  -1.550655  -3.810897  -3.686861  -0.000736   0.180242  -0.004082
 556   7   0.016874  -3.969135  -4.135215  -0.001216   0.180242  -0.006747
 557   7   1.539342  -3.870387  -3.538938  -0.000644   0.180242  -0.003574
 558  13   3.893630   0.833707  -3.962517   0.000336   0.354606   0.000947
 559   8   3.143180   2.155063  -3.943448  -0.000436   0.354606  -0.001230
 560  14   5.040318   3.565848  -2.179854  -0.000133   0.200266  -0.000666
 561  14   4.780981   4.254485  -1.362364  -0.001428   0.400790  -0.003562
 562   8   3.932762   4.176870  -2.481915  -0.001673   0.400790  -0.004173
 563   8   3.630461   4.799802  -1.627317  -0.000281   0.200266  -0.001404
 564  18  -4.554603   4.577330  -0.836707  -0.000810   0.235390  -0.003440
 565  18  -4.876269   3.902570  -1.883366  -0.001864   0.471646  -0.003952
 566   9  -3.664175   4.701767  -1.797283  -0.002067   0.471646  -0.004383
 567   9  -3.927569   3.933300  -2.794452  -0.000942   0.235390  -0.004002
 568  19  -3.987482   0.928463  -3.867601   0.000532   0.264843   0.002007
 569   9  -2.922763   2.099953  -3.906793  -0.000069   0.264843  -0.000262
 570  10   2.565993   3.705066   2.277250  -0.000172   0.330834  -0.000521
 571  11   3.081793   2.890699   2.863765  -0.000233   0.330834  -0.000704
 572  14   3.651609   3.277997   2.084863  -0.000165   0.330834  -0.000499
 573  10   0.084282   3.093172   3.498271  -0.000843   0.331028  -0.002545
 574  11   0.583253   2.266535   4.082447  -0.000811   0.331028  -0.002449
 575  17  -0.484395   2.282704   4.079009  -0.000795   0.331028  -0.002401
 576  11   2.724389   2.968431   3.614254   0.000013   0.268583   0.000049
 577  11   1.719730   2.738351   4.160025  -0.000766   0.536972  -0.001426
 578  10   1.639549   4.083787   3.040674  -0.000934   0.536972  -0.001739
 579  10   0.613282   3.788162   3.509209  -0.000422   0.268583  -0.001572
 580  14   4.106450   4.179051   1.364008  -0.000500   0.477312  -0.001047
 581  10   2.550528   4.648667   1.848502   0.000189   0.477312   0.000397
 582  17  -1.216162   2.655314   4.302732  -0.000220   0.277315  -0.000792
 583  17  -2.224820   2.996666   3.783114  -0.000469   0.554396  -0.000846
 584  10  -0.800613   3.965062   3.322116  -0.001059   0.554396  -0.001910
 585  10  -1.786893   4.236166   2.724063  -0.000054   0.277315  -0.000194
 586  18  -3.923398   3.968197   1.660423   0.000196   0.227092   0.000865
 587  10  -2.302677   4.662324   1.895816   0.000385   0.227092   0.001694
 588  14   4.269900   3.323400   2.239293   0.000059   0.022899   0.002588
 589  11   3.473490   2.759348   3.333107   0.000048   0.022899   0.002114
 590  17  -0.760165  -0.250705   5.422367   0.000102   0.252806   0.000403
 591  17  -0.739503   0.901279   5.366758  -0.000870   0.505569  -0.001720
 592  17  -0.721047   1.922470   4.830647  -0.000380   0.252806  -0.001502
 593  11   0.754224   0.164024   5.432367  -0.000594   0.505569  -0.001175
 594  11   0.778624   1.519551   5.063279  -0.001043   0.505569  -0.002063
 595  15   6.099964  -3.086342   2.103703   0.000113   0.023602   0.004770
 596  12   4.799593  -3.713124   2.448749   0.000107   0.023602   0.004514
 597  12   0.485335  -4.555580   1.316392  -0.001902   0.272645  -0.006977
 598  16  -0.576780  -4.542834   1.327496  -0.001977   0.272645  -0.007249
 599  21  -0.061763  -4.680303   0.481015  -0.004618   0.272645  -0.016937
 600  16  -0.790686  -4.776569   2.025996  -0.000405   0.228431  -0.001772
 601  16  -0.776030  -4.451937   3.026465  -0.000850   0.456732  -0.001861
 602  16  -0.758761  -3.768659   3.826071   0.000074   0.228431   0.000325
 603  12   0.718593  -4.696903   2.399038  -0.001015   0.456732  -0.002221
 604  12   0.738520  -4.067794   3.522593  -0.000349   0.456732  -0.000765
 605  21   1.898395  -4.763599  -0.995715  -0.002592   0.271672  -0.009543
 606  21   0.867199  -5.062973  -0.283950  -0.007636   0.543783  -0.014043
 607  12   2.283206  -4.756533   0.460850  -0.002148   0.543783  -0.003950
 608  12   1.224991  -4.933946   1.173806  -0.001008   0.271672  -0.003710
 609  21   2.396286  -4.033264  -2.554170   0.000066   0.151421   0.000438
 610  13   3.891171  -3.246803  -2.513890   0.000396   0.151421   0.002616
 611  21  -0.595968  -5.080835   0.007993  -0.003527   0.263611  -0.013380
 612  21  -1.650804  -4.900998  -0.657485  -0.006913   0.527587  -0.013103
 613  16  -1.733956  -4.868947   0.953300  -0.002675   0.527587  -0.005071
 614  16  -2.761765  -4.573283   0.286913  -0.000599   0.263611  -0.002272
 615  21  -2.545998  -4.056598  -2.474391  -0.000389   0.273548  -0.001422
 616  19  -3.964804  -3.216936  -2.627425   0.000543   0.273548   0.001986
 =====================================================


   1 warning(s) detected.
     A line exceeding 80 characters begins with "http://cactus.nci.ni".
 There may be a problem in your input file.

              4278229  WORDS OF DYNAMIC MEMORY USED
 EXECUTION OF GAMESS TERMINATED NORMALLY Wed Nov 23 12:26:29 2016
 DDI: 263640 bytes (0.3 MB / 0 MWords) used by master data server.

 ----------------------------------------
 CPU timing information for all processes
 ========================================
 0: 2209.460 + 0.764 = 2210.224
 ----------------------------------------
 ddikick.x: exited gracefully.
