----- GAMESS execution script -----

          ******************************************************
          *         GAMESS VERSION =  5 DEC 2014 (R1)          *
          *             FROM IOWA STATE UNIVERSITY             *
          * M.W.SCHMIDT, K.K.BALDRIDGE, J.A.BOATZ, S.T.ELBERT, *
          *   M.S.GORDON, J.H.JENSEN, S.KOSEKI, N.MATSUNAGA,   *
          *          K.A.NGUYEN, S.J.SU, T.L.WINDUS,           *
          *       TOGETHER WITH M.DUPUIS, J.A.MONTGOMERY       *
          *         J.COMPUT.CHEM.  14, 1347-1363(1993)        *
          **************** 64 BIT LINUX VERSION ****************

 EXECUTION OF GAMESS BEGUN Wed Nov 23 11:31:29 2016

            ECHO OF THE FIRST FEW INPUT CARDS -
 INPUT CARD>! SELECT RESTRICTED HARTREE-FOCK AS DEFAULT                                     
 INPUT CARD>$contrl scftyp=rhf $end                                                         
 INPUT CARD>                                                                                
 INPUT CARD>! THEORY: HF OR DFT                                                             
 INPUT CARD> $contrl mplevl=0 $end                                                          
 INPUT CARD>                                                                                
 INPUT CARD> $system timlim=10000 mwords=20 $end                                            
 INPUT CARD> $SCF DIRSCF=.TRUE. $end                                                        
 INPUT CARD>                                                                                
 INPUT CARD>                                                                                
 INPUT CARD>! BASIS SETS                                                                    
 INPUT CARD>! 6-311G(d,p)                                                                   
 INPUT CARD> $BASIS GBASIS=N311 NGAUSS=6 NDFUNC=1 NPFUNC=1 $END                             
 INPUT CARD>                                                                                
 INPUT CARD>! One of the following                                                          
 INPUT CARD> $guess guess=HUCKEL $end                                                       
 INPUT CARD>                                                                                
 INPUT CARD> $statpt projct=.FALSE. $end                                                    
 INPUT CARD> $STATPT IFREEZ(1)=1,2,3 $END                                                   
 INPUT CARD>                                                                                
 INPUT CARD>! Optimize the geometry with COSMO effects                                      
 INPUT CARD> $statpt opttol=0.0005 nstep=50 $end                                            
 INPUT CARD> $contrl nzvar=1 $end                                                           
 INPUT CARD> $zmat dlc=.t. auto=.t. $end                                                    
 INPUT CARD> $contrl runtyp=OPTIMIZE maxit=200 $end                                         
 INPUT CARD>                                                                                
 INPUT CARD>! Run COSMO on perfect conductor                                                
 INPUT CARD> $COSGMS PRFCND=.TRUE. $end                                                     
 INPUT CARD>                                                                                
 INPUT CARD>! Specifying RSOLV                                                              
 INPUT CARD> $COSGMS COSRAD = 1.4 $end                                                      
 INPUT CARD>                                                                                
 INPUT CARD>! available memory                                                              
 INPUT CARD> $SYSTEM MWORDS=40 $END                                                         
 INPUT CARD>                                                                                
 INPUT CARD> $DATA                                                                          
 INPUT CARD>1-Butanol, 3-methyl-, ID: C123513                                               
 INPUT CARD>C1                                                                              
 INPUT CARD>C      6.0      2.4864000000    0.7361000000    1.5227000000                    
 INPUT CARD>C      6.0      2.6019000000    1.7397000000    2.6811000000                    
 INPUT CARD>C      6.0      1.0480000000    0.4113000000    1.1339000000                    
 INPUT CARD>C      6.0      2.0143000000    1.1940000000    3.9833000000                    
 INPUT CARD>C      6.0      4.0689000000    2.1197000000    2.8956000000                    
 INPUT CARD>O      8.0      1.0415000000   -0.4388000000   -0.0066000000                    
 INPUT CARD>H      1.0      3.0127000000   -0.1948000000    1.7716000000                    
 INPUT CARD>H      1.0      3.0020000000    1.1336000000    0.6386000000                    
 INPUT CARD>H      1.0      2.0546000000    2.6522000000    2.4130000000                    
 INPUT CARD>H      1.0      0.4991000000    1.3224000000    0.8765000000                    
 INPUT CARD>H      1.0      0.5120000000   -0.1000000000    1.9383000000                    
 INPUT CARD>H      1.0      2.1680000000    1.9014000000    4.8055000000                    
   40000000 WORDS OF MEMORY AVAILABLE

     BASIS OPTIONS
     -------------
     GBASIS=N311         IGAUSS=       6      POLAR=POPN311 
     NDFUNC=       1     NFFUNC=       0     DIFFSP=       F
     NPFUNC=       1      DIFFS=       F     BASNAM=        


     RUN TITLE
     ---------
 1-Butanol, 3-methyl-, ID: C123513                                               

 THE POINT GROUP OF THE MOLECULE IS C1      
 THE ORDER OF THE PRINCIPAL AXIS IS     0

 ATOM      ATOMIC                      COORDINATES (BOHR)
           CHARGE         X                   Y                   Z
 C           6.0     4.6986146959        1.3910272996        2.8774857615
 C           6.0     4.9168780475        3.2875563008        5.0665443457
 C           6.0     1.9804328351        0.7772442988        2.1427602975
 C           6.0     3.8064750571        2.2563328293        7.5273455269
 C           6.0     7.6891060714        4.0056521762        5.4718905700
 O           8.0     1.9681496162       -0.8292117634       -0.0124721915
 H           1.0     5.6931774832       -0.3681186224        3.3478385598
 H           1.0     5.6729574151        2.1421933797        1.2067790158
 H           1.0     3.8826310144        5.0119312646        4.5599088084
 H           1.0     0.9431622405        2.4989736462        1.6563448282
 H           1.0     0.9675397057       -0.1889725988        3.6628558820
 H           1.0     4.0969259414        3.5931249931        9.0810782340
 H           1.0     4.6923786001        0.4620380040        8.0564688035
 H           1.0     1.7689724971        1.9454729044        7.3619945030
 H           1.0     7.8735433278        5.4072619413        6.9836713602
 H           1.0     8.8259652257        2.3544096081        5.9874078195
 H           1.0     8.4952631778        4.8276829808        3.7522399212
 H           1.0     2.8597223372       -2.3704722790        0.4421958811

          INTERNUCLEAR DISTANCES (ANGS.)




     $CONTRL OPTIONS
     ---------------
 SCFTYP=RHF          RUNTYP=OPTIMIZE     EXETYP=RUN     
 MPLEVL=       0     CITYP =NONE         CCTYP =NONE         VBTYP =NONE    
 DFTTYP=NONE         TDDFT =NONE    
 MULT  =       1     ICHARG=       0     NZVAR =       1     COORD =UNIQUE  
 PP    =NONE         RELWFN=NONE         LOCAL =NONE         NUMGRD=       F
 ISPHER=      -1     NOSYM =       0     MAXIT =     200     UNITS =ANGS    
 PLTORB=       F     MOLPLT=       F     AIMPAC=       F     FRIEND=        
 NPRINT=       7     IREST =       0     GEOM  =INPUT   
 NORMF =       0     NORMP =       0     ITOL  =      20     ICUT  =       9
 INTTYP=BEST         GRDTYP=BEST         QMTTOL= 1.0E-06

     $SYSTEM OPTIONS
     ---------------
  REPLICATED MEMORY=    40000000 WORDS (ON EVERY NODE).
 DISTRIBUTED MEMDDI=           0 MILLION WORDS IN AGGREGATE,
 MEMDDI DISTRIBUTED OVER   1 PROCESSORS IS           0 WORDS/PROCESSOR.
 TOTAL MEMORY REQUESTED ON EACH PROCESSOR=    40000000 WORDS.
 TIMLIM=       10000.00 MINUTES, OR       6.9 DAYS.
 PARALL= F  BALTYP=  DLB     KDIAG=    0  COREFL= F
 MXSEQ2=     300 MXSEQ3=     150  mem10=         0

     $COSGMS OPTIONS
     ---------------
     EPSI  =   INFTY     NSPA  =      92     COSRAD=    1.40
     DISEX =   10.00     OUTCHG=DBLCAV       COSBUG=       F
     COSWRT=       F     DCOSMO=       F

     SYMMETRY COORDINATES WILL NOT BE USED FOR 
     THE COSMO CALCULATION, EVEN IF SPECIFIED:
         -- SWITCHING TO C1 POINT GROUP --


     DEFINITION OF CAVITY
     ---------------------------
     ATOM         COORDINATES           RADIUS 
     1    4.6986    1.3910    2.8775    2.0000
     2    4.9169    3.2876    5.0665    2.0000
     3    1.9804    0.7772    2.1428    2.0000
     4    3.8065    2.2563    7.5273    2.0000
     5    7.6891    4.0057    5.4719    2.0000
     6    1.9681   -0.8292   -0.0125    1.7200
     7    5.6932   -0.3681    3.3478    1.3000
     8    5.6730    2.1422    1.2068    1.3000
     9    3.8826    5.0119    4.5599    1.3000
    10    0.9432    2.4990    1.6563    1.3000
    11    0.9675   -0.1890    3.6629    1.3000
    12    4.0969    3.5931    9.0811    1.3000
    13    4.6924    0.4620    8.0565    1.3000
    14    1.7690    1.9455    7.3620    1.3000
    15    7.8735    5.4073    6.9837    1.3000
    16    8.8260    2.3544    5.9874    1.3000
    17    8.4953    4.8277    3.7522    1.3000
    18    2.8597   -2.3705    0.4422    1.3000

          ----------------
          PROPERTIES INPUT
          ----------------

     MOMENTS            FIELD           POTENTIAL          DENSITY
 IEMOM =       1   IEFLD =       0   IEPOT =       0   IEDEN =       0
 WHERE =COMASS     WHERE =NUCLEI     WHERE =NUCLEI     WHERE =NUCLEI  
 OUTPUT=BOTH       OUTPUT=BOTH       OUTPUT=BOTH       OUTPUT=BOTH    
 IEMINT=       0   IEFINT=       0                     IEDINT=       0
                                                       MORB  =       0
          EXTRAPOLATION IN EFFECT
          SOSCF IN EFFECT
 ORBITAL PRINTING OPTION: NPREO=     1   186     2     1

     -------------------------------
     INTEGRAL TRANSFORMATION OPTIONS
     -------------------------------
     NWORD  =            0
     CUTOFF = 1.0E-09     MPTRAN =       0
     DIRTRF =       T     AOINTS =DUP     

          ----------------------
          INTEGRAL INPUT OPTIONS
          ----------------------
 NOPK  =       1 NORDER=       0 SCHWRZ=       T


 -----------------------------------------------
  STATISTICS ON AUTOMATIC COORDINATE GENERATION 
 -----------------------------------------------
  NUMBER OF USER SPECIFIED BONDS                             0
  NUMBER OF BONDS                                           17
  NUMBER OF ANGLES                                          31
  NUMBER OF TORSIONS                                        39
  NUMBER OF EXTRA COORD.                                     0
  NUMBER OF EXTRA COORD. FOR CONSTRAINTS                     0
  NUMBER OF CONSTRAINED COORD.                               0

  TOTAL NUMBER OF PRIMITIVES                                87
 -----------------------------------------------

   --- ENCODED Z MATRIX ---
 COORD  TYPE   I   J   K   L   M   N
    1      1    1   7
    2      1    1   3
    3      1    1   2
    4      1    1   8
    5      1    2   4
    6      1    2   9
    7      1    2   5
    8      1    3  11
    9      1    3  10
   10      1    3   6
   11      1    4  14
   12      1    4  13
   13      1    4  12
   14      1    5  16
   15      1    5  15
   16      1    5  17
   17      1    6  18
   18      2    1   2   4
   19      2    1   3   6
   20      2    1   3  10
   21      2    1   2   9
   22      2    1   2   5
   23      2    1   3  11
   24      2    2   1   8
   25      2    2   1   7
   26      2    2   4  14
   27      2    2   5  17
   28      2    2   5  15
   29      2    2   1   3
   30      2    2   4  12
   31      2    2   4  13
   32      2    2   5  16
   33      2    3   1   7
   34      2    3   6  18
   35      2    3   1   8
   36      2    4   2   9
   37      2    4   2   5
   38      2    5   2   9
   39      2    6   3  10
   40      2    6   3  11
   41      2    7   1   8
   42      2   10   3  11
   43      2   12   4  13
   44      2   12   4  14
   45      2   13   4  14
   46      2   15   5  17
   47      2   15   5  16
   48      2   16   5  17
   49      3    1   2   4  12
   50      3    1   2   5  17
   51      3    1   2   5  15
   52      3    1   2   5  16
   53      3    1   3   6  18
   54      3    1   2   4  13
   55      3    1   2   4  14
   56      3    2   1   3  10
   57      3    2   1   3  11
   58      3    2   1   3   6
   59      3    3   1   2   9
   60      3    3   1   2   5
   61      3    3   1   2   4
   62      3    4   2   1   8
   63      3    4   2   1   7
   64      3    4   2   5  16
   65      3    4   2   5  15
   66      3    4   2   5  17
   67      3    5   2   4  13
   68      3    5   2   4  12
   69      3    5   2   1   8
   70      3    5   2   4  14
   71      3    5   2   1   7
   72      3    6   3   1   7
   73      3    6   3   1   8
   74      3    7   1   2   9
   75      3    7   1   3  11
   76      3    7   1   3  10
   77      3    8   1   3  10
   78      3    8   1   3  11
   79      3    8   1   2   9
   80      3    9   2   5  16
   81      3    9   2   4  13
   82      3    9   2   4  12
   83      3    9   2   5  15
   84      3    9   2   5  17
   85      3    9   2   4  14
   86      3   10   3   6  18
   87      3   11   3   6  18

          INDEP./SYM. INTERNAL COORDINATES
          --------------------------------
 CRD  1=   0.3224 ( 18) -0.2464 ( 19)  0.1082 ( 20) -0.3053 ( 22) -0.2095 ( 24)
          -0.1501 ( 25)  0.5897 ( 29) -0.1899 ( 33) -0.1799 ( 35) -0.1061 ( 36)
           0.1101 ( 38)  0.1021 ( 41) -0.1238 ( 49) -0.1110 ( 50) -0.1405 ( 55)
           0.1057 ( 64)
 CRD  2=   0.2225 (  2)  0.3270 (  3)  0.1372 ( 10)  0.2521 ( 18)  0.3293 ( 19)
          -0.1875 ( 21)  0.2285 ( 22)  0.1135 ( 26) -0.1104 ( 28) -0.1233 ( 30)
           0.1972 ( 34) -0.4179 ( 37) -0.1550 ( 39) -0.1054 ( 40) -0.1329 ( 52)
           0.1226 ( 54) -0.1179 ( 58)  0.1807 ( 61)  0.1092 ( 62)  0.1113 ( 63)
           0.1089 ( 65)  0.1195 ( 66) -0.1128 ( 68) -0.1142 ( 70)
 CRD  3=  -0.1664 (  2) -0.1021 (  3)  0.1739 (  5) -0.1578 (  7)  0.2847 ( 18)
           0.2371 ( 19) -0.1388 ( 20) -0.3522 ( 22) -0.1170 ( 23)  0.1788 ( 25)
          -0.1525 ( 27) -0.3374 ( 29)  0.1511 ( 31)  0.1226 ( 33)  0.1494 ( 34)
           0.1454 ( 35) -0.1647 ( 36)  0.1582 ( 37) -0.1563 ( 50) -0.1600 ( 51)
          -0.1028 ( 52) -0.1546 ( 56) -0.1826 ( 58)  0.1174 ( 60)  0.1250 ( 64)
           0.1002 ( 67)  0.1209 ( 68)
 CRD  4=   0.2679 (  2)  0.2219 (  3)  0.1729 (  5)  0.3196 (  7)  0.1696 ( 10)
          -0.1977 ( 18)  0.3444 ( 19)  0.1270 ( 21) -0.1072 ( 25) -0.1014 ( 26)
           0.1500 ( 28)  0.2210 ( 29)  0.1668 ( 30)  0.1497 ( 32)  0.2117 ( 34)
           0.3172 ( 37) -0.1270 ( 38) -0.1453 ( 39) -0.1529 ( 40) -0.1071 ( 47)
           0.1354 ( 60) -0.1219 ( 63)  0.1517 ( 69)
 CRD  5=   0.2138 (  5) -0.1402 (  7) -0.1847 ( 20)  0.2150 ( 23)  0.1538 ( 24)
          -0.1531 ( 25)  0.1836 ( 26) -0.1757 ( 27)  0.1105 ( 32)  0.2435 ( 33)
          -0.1318 ( 34) -0.2302 ( 35)  0.1034 ( 36)  0.1629 ( 53)  0.1065 ( 56)
           0.2307 ( 59)  0.3560 ( 60)  0.3505 ( 61)  0.1588 ( 62)  0.1561 ( 63)
           0.1643 ( 69)  0.1616 ( 71)
 CRD  6=   0.1145 (  3)  0.2013 (  5)  0.3261 (  7) -0.3697 ( 19)  0.1301 ( 20)
          -0.1258 ( 21)  0.1462 ( 22)  0.2101 ( 25)  0.2293 ( 31)  0.3190 ( 32)
           0.1751 ( 40) -0.1033 ( 47) -0.1309 ( 48)  0.1677 ( 49) -0.1473 ( 51)
          -0.1134 ( 52)  0.1314 ( 54)  0.1080 ( 55) -0.1057 ( 56) -0.1530 ( 57)
          -0.1829 ( 58)  0.1356 ( 60) -0.1276 ( 62) -0.1175 ( 70)  0.1229 ( 71)
 CRD  7=   0.2421 (  3)  0.1521 (  4)  0.4851 (  5)  0.1760 (  7) -0.1172 ( 10)
          -0.1012 ( 23)  0.1756 ( 24)  0.1876 ( 26)  0.2311 ( 27) -0.1068 ( 29)
           0.1303 ( 31) -0.1596 ( 32) -0.2782 ( 34) -0.1132 ( 43) -0.1457 ( 44)
          -0.1530 ( 45) -0.1108 ( 46)  0.1363 ( 56)  0.1266 ( 57)  0.2610 ( 58)
          -0.1465 ( 60)  0.1607 ( 72)  0.1035 ( 73)
 CRD  8=   0.1206 (  2) -0.1453 (  5) -0.2149 (  7) -0.1367 ( 10)  0.1002 ( 19)
          -0.3018 ( 26) -0.2034 ( 27) -0.2020 ( 28) -0.2246 ( 30)  0.4005 ( 31)
           0.2213 ( 32) -0.2855 ( 34) -0.1210 ( 36) -0.1813 ( 40)  0.1895 ( 44)
           0.1614 ( 46)  0.1702 ( 58)  0.1308 ( 64)  0.1089 ( 65)  0.1711 ( 66)
          -0.1398 ( 70)  0.1172 ( 72)  0.1111 ( 73)
 CRD  9=  -0.3610 (  2)  0.3136 (  3)  0.1383 (  5) -0.2985 (  7)  0.2058 ( 10)
          -0.1997 ( 23)  0.1341 ( 24) -0.1262 ( 26) -0.2380 ( 28)  0.2482 ( 30)
          -0.1386 ( 33)  0.2732 ( 34) -0.1068 ( 35) -0.1299 ( 38)  0.1743 ( 40)
          -0.1141 ( 43)  0.1194 ( 46)  0.1023 ( 47) -0.1390 ( 67) -0.1178 ( 68)
          -0.1115 ( 70) -0.1020 ( 86)
 CRD 10=  -0.1102 (  2)  0.4101 (  3) -0.2195 (  5)  0.1531 ( 15) -0.1104 ( 16)
          -0.1081 ( 20)  0.1081 ( 24)  0.1570 ( 25) -0.1282 ( 26) -0.3274 ( 27)
           0.5266 ( 28) -0.1089 ( 31) -0.1628 ( 32) -0.1180 ( 34)  0.1220 ( 45)
          -0.1616 ( 47)  0.2037 ( 48)
 CRD 11=   0.3326 (  2)  0.1435 (  5) -0.2477 (  7) -0.1635 ( 10) -0.1137 ( 11)
           0.1266 ( 13) -0.1099 ( 17)  0.1616 ( 20) -0.3164 ( 26)  0.5133 ( 30)
          -0.1557 ( 32) -0.1942 ( 34) -0.2048 ( 43)  0.1455 ( 45)  0.1119 ( 47)
          -0.1047 ( 50) -0.1060 ( 57)
 CRD 12=   0.1261 ( 10)  0.1108 ( 12) -0.1103 ( 14) -0.1047 ( 19) -0.1887 ( 20)
           0.2091 ( 23) -0.3259 ( 26)  0.3514 ( 27)  0.3961 ( 31) -0.4099 ( 32)
           0.1911 ( 34) -0.1259 ( 35)  0.1245 ( 39) -0.1404 ( 43)  0.1573 ( 44)
          -0.1668 ( 46)  0.1480 ( 47)  0.1322 ( 53)  0.1154 ( 59)
 CRD 13=   0.1961 (  2)  0.1462 (  9)  0.1058 ( 12)  0.3923 ( 20) -0.2745 ( 23)
           0.1434 ( 24) -0.1661 ( 25) -0.2489 ( 27)  0.2608 ( 28) -0.1694 ( 30)
           0.2466 ( 31)  0.1420 ( 33)  0.1658 ( 34) -0.2170 ( 39)  0.2406 ( 40)
          -0.1205 ( 45)  0.1555 ( 48) -0.2326 ( 53)  0.1265 ( 56)  0.1384 ( 57)
 CRD 14=  -0.1483 (  1) -0.1512 (  3)  0.2054 (  7)  0.1480 ( 10)  0.1728 ( 14)
           0.1277 ( 17)  0.1561 ( 18) -0.1432 ( 21)  0.1570 ( 24) -0.1664 ( 25)
          -0.2823 ( 26)  0.2599 ( 30)  0.3060 ( 32)  0.1456 ( 33)  0.1334 ( 34)
          -0.1293 ( 35) -0.1267 ( 37)  0.2350 ( 38)  0.1645 ( 45) -0.1572 ( 47)
          -0.1358 ( 48)  0.1075 ( 49)  0.1004 ( 55)  0.1397 ( 57)  0.1453 ( 58)
           0.1249 ( 67)  0.1537 ( 68) -0.1425 ( 69)  0.1467 ( 70) -0.1187 ( 71)
 CRD 15=  -0.1145 (  1) -0.3695 (  2) -0.1465 (  3) -0.2264 (  4) -0.1905 (  8)
          -0.1465 (  9) -0.2271 ( 10) -0.2076 ( 17)  0.2890 ( 19) -0.2882 ( 23)
          -0.1537 ( 26)  0.2167 ( 29)  0.1111 ( 31) -0.1016 ( 33) -0.2609 ( 34)
          -0.1459 ( 35) -0.1909 ( 39)  0.1275 ( 41)  0.2027 ( 42)  0.1181 ( 87)
 CRD 16=   0.2230 (  1)  0.1995 (  3) -0.1872 (  5) -0.1701 ( 10) -0.2127 ( 17)
           0.1682 ( 20)  0.1475 ( 21) -0.1267 ( 22) -0.1025 ( 23)  0.2185 ( 24)
          -0.1110 ( 25)  0.2477 ( 27) -0.1478 ( 28) -0.1604 ( 31)  0.2061 ( 33)
          -0.1754 ( 35) -0.1893 ( 36) -0.2185 ( 39)  0.1453 ( 40)  0.1218 ( 45)
          -0.1133 ( 48)  0.1216 ( 50)  0.1279 ( 51)  0.1127 ( 52)  0.1864 ( 59)
           0.1188 ( 60)  0.1322 ( 64)  0.1473 ( 65)  0.1410 ( 66) -0.1324 ( 72)
          -0.1835 ( 73)
 CRD 17=   0.1469 (  4)  0.1656 (  6)  0.2334 (  8) -0.3174 (  9) -0.1604 ( 10)
          -0.2012 ( 17) -0.1207 ( 20)  0.1895 ( 23)  0.1761 ( 24) -0.1963 ( 25)
          -0.1247 ( 27)  0.1647 ( 33) -0.1534 ( 35)  0.1083 ( 53) -0.1012 ( 54)
          -0.1271 ( 60) -0.1207 ( 62) -0.1360 ( 63) -0.1067 ( 64) -0.1872 ( 69)
          -0.2025 ( 71) -0.2148 ( 72) -0.2158 ( 73) -0.1720 ( 74) -0.1567 ( 79)
          -0.1208 ( 87)
 CRD 18=   0.1185 (  1)  0.6984 (  6) -0.1015 (  9) -0.1626 ( 11) -0.1244 ( 15)
           0.1228 ( 25)  0.1427 ( 31)  0.1341 ( 32) -0.1072 ( 33)  0.1360 ( 35)
          -0.1024 ( 43)  0.1358 ( 50)  0.1671 ( 51)  0.1571 ( 52)  0.1769 ( 62)
           0.1664 ( 63)  0.1442 ( 67)  0.1173 ( 68)  0.1462 ( 70)
 CRD 19=   0.1920 (  1)  0.1922 (  6)  0.1470 (  9)  0.1803 ( 11)  0.3053 ( 12)
           0.1791 ( 13) -0.3272 ( 14) -0.2524 ( 15) -0.2840 ( 16) -0.1575 ( 26)
           0.1618 ( 27)  0.1187 ( 28)  0.1311 ( 32)  0.1532 ( 44)  0.1100 ( 45)
          -0.1539 ( 46) -0.1294 ( 47) -0.1508 ( 48) -0.1733 ( 49) -0.1097 ( 51)
          -0.1058 ( 52) -0.1586 ( 54) -0.1483 ( 55) -0.1160 ( 64) -0.1198 ( 65)
          -0.1100 ( 66) -0.1142 ( 68) -0.1119 ( 82) -0.1033 ( 83)
 CRD 20=  -0.1175 (  5) -0.1918 (  6) -0.1025 (  7) -0.3588 ( 11) -0.4024 ( 12)
          -0.3237 ( 13) -0.3536 ( 14) -0.2791 ( 15) -0.3155 ( 16)  0.1293 ( 26)
           0.1085 ( 27)  0.1512 ( 28)  0.1672 ( 30)  0.1127 ( 31) -0.1481 ( 43)
          -0.1642 ( 44) -0.1210 ( 45) -0.1433 ( 46) -0.1333 ( 47) -0.1005 ( 48)
 CRD 21=  -0.3429 (  1)  0.2044 (  4)  0.1199 (  5) -0.2275 (  6) -0.1127 (  7)
           0.2015 (  8) -0.3067 (  9)  0.2144 ( 11)  0.1808 ( 12)  0.2693 ( 13)
          -0.2185 ( 14) -0.2277 ( 15) -0.1783 ( 16) -0.1293 ( 33)  0.1081 ( 49)
           0.1056 ( 54)  0.1080 ( 56)  0.1008 ( 66)  0.1067 ( 71)  0.1026 ( 80)
           0.1014 ( 83)  0.1039 ( 84)
 CRD 22=   0.6777 (  8)  0.3823 (  9)  0.1218 ( 10) -0.1873 ( 20) -0.1895 ( 23)
          -0.2320 ( 34)  0.2775 ( 42) -0.2296 ( 86)  0.1453 ( 87)
 CRD 23=   0.3678 (  4) -0.1188 (  5)  0.1793 (  7) -0.2928 (  9) -0.1477 ( 11)
          -0.1569 ( 13)  0.2813 ( 15)  0.1888 ( 16)  0.1501 ( 35)  0.1037 ( 40)
          -0.1608 ( 49) -0.1208 ( 54) -0.1776 ( 55)  0.1006 ( 56)  0.1485 ( 57)
           0.1614 ( 62)  0.1428 ( 63) -0.1208 ( 68)  0.1362 ( 69) -0.1376 ( 70)
           0.1176 ( 71)  0.1547 ( 74)  0.1086 ( 75)  0.1119 ( 77)  0.1597 ( 78)
           0.1734 ( 79) -0.1063 ( 81) -0.1463 ( 82) -0.1631 ( 85)
 CRD 24=  -0.1333 (  1)  0.1666 (  3)  0.2287 (  4) -0.1121 (  5) -0.2718 ( 11)
           0.2250 ( 12) -0.1912 ( 13)  0.1661 ( 14) -0.2722 ( 16)  0.1055 ( 27)
          -0.1107 ( 28)  0.1164 ( 37)  0.1710 ( 43)  0.2089 ( 47) -0.1122 ( 48)
           0.1849 ( 49) -0.1409 ( 50) -0.2262 ( 51) -0.2399 ( 65) -0.1546 ( 66)
           0.2156 ( 68)  0.1958 ( 82) -0.2435 ( 83) -0.1582 ( 84)
 CRD 25=   0.5422 ( 11) -0.4719 ( 13)  0.1087 ( 14)  0.1314 ( 15) -0.2927 ( 16)
          -0.2686 ( 43)  0.2386 ( 45)  0.1424 ( 47)  0.2016 ( 54)  0.2001 ( 67)
           0.2152 ( 81)
 CRD 26=  -0.2436 ( 12)  0.3634 ( 13)  0.5184 ( 15) -0.4177 ( 16)  0.1254 ( 44)
          -0.1620 ( 45)  0.1990 ( 47) -0.2451 ( 48)  0.1947 ( 52)  0.1839 ( 64)
           0.2149 ( 80)
 CRD 27=  -0.1453 (  4)  0.3328 ( 12) -0.2152 ( 13) -0.5021 ( 14)  0.3122 ( 15)
           0.1184 ( 16) -0.1909 ( 44)  0.1104 ( 45)  0.2870 ( 46) -0.1790 ( 48)
           0.1305 ( 49) -0.1321 ( 50)  0.1653 ( 51)  0.1584 ( 65) -0.1391 ( 66)
           0.1375 ( 68)  0.1283 ( 82)  0.1594 ( 83) -0.1381 ( 84)
 CRD 28=   0.1117 (  3)  0.2126 (  4)  0.2277 ( 11) -0.3998 ( 12) -0.2932 ( 14)
           0.2569 ( 16) -0.1012 ( 43)  0.2585 ( 44) -0.1086 ( 45)  0.1879 ( 46)
          -0.1813 ( 50) -0.1277 ( 52)  0.1955 ( 55) -0.1685 ( 64) -0.2221 ( 66)
           0.1325 ( 67)  0.2390 ( 70) -0.1487 ( 80)  0.1023 ( 81) -0.2023 ( 84)
           0.2088 ( 85)
 CRD 29=   0.6020 (  1) -0.1137 (  3)  0.5181 (  4) -0.1001 ( 35)  0.2522 ( 41)
          -0.1420 ( 62) -0.1384 ( 69) -0.1139 ( 72) -0.1446 ( 75) -0.1351 ( 76)
          -0.1432 ( 79)
 CRD 30=   0.1232 (  1)  0.1267 (  2) -0.4215 (  9)  0.5271 ( 10) -0.1178 ( 23)
          -0.4693 ( 34)  0.1125 ( 39)  0.2180 ( 40) -0.1077 ( 42) -0.1118 ( 56)
           0.1649 ( 57)  0.1599 ( 75) -0.1168 ( 76)  0.2196 ( 78)
 CRD 31=  -0.3411 (  1)  0.3304 (  4) -0.2983 (  8)  0.1671 (  9)  0.1468 ( 10)
          -0.1106 ( 17) -0.1094 ( 25) -0.1646 ( 34)  0.1612 ( 39) -0.2074 ( 56)
          -0.1092 ( 57)  0.1331 ( 62)  0.1278 ( 69) -0.1750 ( 72) -0.1488 ( 73)
          -0.2324 ( 75) -0.3305 ( 76) -0.3043 ( 77) -0.2062 ( 78)
 CRD 32=   0.2117 (  9)  0.2557 ( 10) -0.7897 ( 17) -0.1297 ( 42)  0.2162 ( 53)
           0.1016 ( 75)  0.2721 ( 86)  0.1460 ( 87)
 CRD 33=   0.1021 (  1)  0.1093 (  3) -0.1915 (  6) -0.1837 (  8) -0.1882 ( 10)
           0.1019 ( 14) -0.3629 ( 17) -0.2161 ( 20) -0.1006 ( 24)  0.2097 ( 34)
           0.1558 ( 35)  0.1746 ( 39)  0.1075 ( 42) -0.2885 ( 53)  0.1068 ( 58)
           0.1081 ( 62)  0.1221 ( 73) -0.4634 ( 86) -0.2391 ( 87)
 CRD 34=  -0.1004 (  2) -0.1041 (  6) -0.2537 (  7) -0.1682 ( 11)  0.2292 ( 14)
           0.2060 ( 15)  0.2300 ( 16) -0.1026 ( 26)  0.2171 ( 27)  0.2114 ( 28)
           0.2251 ( 32)  0.1122 ( 36) -0.1500 ( 38)  0.1283 ( 44)  0.1099 ( 45)
          -0.2244 ( 46) -0.2228 ( 47) -0.2421 ( 48)  0.1658 ( 53) -0.1600 ( 59)
          -0.2215 ( 74) -0.1259 ( 79)  0.1873 ( 81)  0.1183 ( 82)  0.1655 ( 85)
           0.1837 ( 86)  0.2017 ( 87)
 CRD 35=   0.3329 (  5)  0.1695 (  6) -0.1946 ( 11) -0.2951 ( 12) -0.2381 ( 13)
          -0.1244 ( 14) -0.1098 ( 21) -0.2309 ( 26) -0.2380 ( 30) -0.2513 ( 31)
           0.2933 ( 43)  0.2103 ( 44)  0.2592 ( 45)  0.1193 ( 47) -0.1131 ( 53)
          -0.1091 ( 74) -0.1062 ( 79)  0.1443 ( 80)  0.1380 ( 84) -0.1543 ( 86)
 CRD 36=  -0.1176 (  1)  0.1303 (  3)  0.1611 (  6)  0.1726 (  7) -0.1014 (  8)
          -0.2675 ( 10) -0.1588 ( 14) -0.1536 ( 19) -0.1488 ( 23) -0.2072 ( 24)
          -0.1734 ( 25) -0.1052 ( 32)  0.1865 ( 33)  0.1223 ( 35)  0.1249 ( 39)
           0.2481 ( 40) -0.1036 ( 44)  0.1532 ( 48)  0.1055 ( 49)  0.2312 ( 53)
          -0.1449 ( 63) -0.1001 ( 71) -0.1170 ( 72)  0.1002 ( 73) -0.1154 ( 74)
          -0.1163 ( 76)  0.1009 ( 77)  0.2132 ( 78)  0.1000 ( 81)  0.1324 ( 82)
           0.1031 ( 86)  0.3513 ( 87)
 CRD 37=   0.1757 (  1)  0.1736 (  3)  0.1368 (  5) -0.3875 (  6)  0.2647 (  7)
          -0.1531 ( 11)  0.1593 ( 12) -0.1623 ( 13) -0.2296 ( 15) -0.1412 ( 16)
          -0.1120 ( 27) -0.1198 ( 28)  0.2176 ( 44)  0.2398 ( 46) -0.1445 ( 49)
           0.1082 ( 51)  0.1352 ( 53)  0.1527 ( 62) -0.1424 ( 66)  0.1535 ( 70)
          -0.1389 ( 77) -0.1141 ( 78) -0.1516 ( 82)  0.1267 ( 83)  0.1158 ( 86)
           0.1956 ( 87)
 CRD 38=   0.2986 (  2)  0.1813 (  4) -0.1927 (  5) -0.1825 (  7) -0.2643 (  8)
           0.1654 ( 11)  0.1272 ( 16) -0.1506 ( 20) -0.1396 ( 21) -0.1277 ( 23)
           0.1257 ( 25)  0.1702 ( 40)  0.1995 ( 42) -0.1630 ( 45) -0.1501 ( 48)
           0.1198 ( 53)  0.1547 ( 75)  0.2161 ( 76)  0.2302 ( 80) -0.2353 ( 81)
          -0.1156 ( 82)  0.1591 ( 83)  0.1036 ( 84) -0.1076 ( 86)  0.2203 ( 87)
 CRD 39=  -0.1739 (  1) -0.3270 (  2)  0.2077 (  3)  0.1449 (  4) -0.1298 (  5)
           0.1099 (  7)  0.3309 (  9)  0.1090 ( 12) -0.1204 ( 15)  0.1624 ( 23)
          -0.1597 ( 24)  0.1049 ( 33) -0.1720 ( 34) -0.2077 ( 39) -0.1740 ( 42)
          -0.1487 ( 58) -0.1138 ( 71) -0.1875 ( 74)  0.1286 ( 75)  0.1806 ( 77)
           0.2450 ( 78) -0.1196 ( 79)  0.1198 ( 80)  0.1081 ( 83) -0.3014 ( 87)
 CRD 40=   0.2905 (  5) -0.2459 (  7)  0.1592 (  9) -0.1095 ( 10)  0.1191 ( 11)
          -0.1781 ( 13)  0.2066 ( 14)  0.1214 ( 15) -0.2075 ( 16)  0.1021 ( 27)
          -0.1226 ( 36)  0.1119 ( 38)  0.1168 ( 40)  0.1332 ( 41)  0.1847 ( 43)
          -0.2354 ( 47)  0.1967 ( 51) -0.1266 ( 54) -0.1213 ( 58)  0.1623 ( 59)
          -0.1236 ( 64)  0.1518 ( 65) -0.1223 ( 67) -0.1546 ( 72)  0.2300 ( 74)
           0.1526 ( 78)  0.1254 ( 79) -0.2024 ( 80) -0.1899 ( 81) -0.1106 ( 84)
 CRD 41=  -0.2590 (  3)  0.1685 (  4)  0.1194 (  5)  0.1353 (  7) -0.2735 (  8)
           0.1930 ( 10) -0.1652 ( 11)  0.1168 ( 13)  0.1210 ( 15) -0.2317 ( 16)
           0.1466 ( 21)  0.1464 ( 25) -0.1559 ( 39) -0.1419 ( 41)  0.1892 ( 42)
           0.1253 ( 45) -0.1339 ( 47)  0.1343 ( 48)  0.1505 ( 51)  0.1005 ( 53)
           0.1253 ( 56) -0.1338 ( 58) -0.1384 ( 64)  0.1048 ( 67) -0.1511 ( 73)
           0.2901 ( 76)  0.1080 ( 77) -0.1166 ( 78) -0.2122 ( 80)  0.2005 ( 81)
 CRD 42=  -0.1119 (  1)  0.2862 (  2)  0.1180 (  9) -0.2288 ( 10) -0.2414 ( 11)
           0.2118 ( 13) -0.1283 ( 15)  0.1046 ( 26) -0.1546 ( 33) -0.1410 ( 35)
           0.1493 ( 40)  0.1566 ( 41) -0.1046 ( 42) -0.1794 ( 43)  0.1652 ( 45)
          -0.1684 ( 49)  0.1334 ( 54) -0.1393 ( 55) -0.1002 ( 56)  0.1405 ( 57)
          -0.1766 ( 62)  0.1094 ( 63) -0.1011 ( 66)  0.1576 ( 67) -0.1442 ( 68)
          -0.1559 ( 69) -0.1150 ( 70)  0.1301 ( 71)  0.1202 ( 74)  0.1334 ( 75)
          -0.1073 ( 76)  0.1627 ( 78) -0.1658 ( 79)  0.1645 ( 81) -0.1373 ( 82)
          -0.1067 ( 84) -0.1082 ( 85)
 CRD 43=  -0.1116 (  2)  0.1081 ( 10) -0.2863 ( 12)  0.1907 ( 13)  0.2259 ( 14)
          -0.2520 ( 15)  0.1196 ( 22)  0.1288 ( 28) -0.1001 ( 30)  0.1206 ( 31)
          -0.2052 ( 44)  0.1529 ( 45)  0.1615 ( 46) -0.1983 ( 48)  0.1597 ( 49)
          -0.2196 ( 50)  0.1062 ( 52) -0.1910 ( 55)  0.1168 ( 62) -0.2671 ( 66)
           0.1021 ( 69) -0.2628 ( 70)  0.1088 ( 79)  0.1249 ( 82) -0.2412 ( 84)
          -0.2257 ( 85)
 CRD 44=   0.1521 (  4) -0.1772 (  5)  0.2040 (  8) -0.1839 ( 10)  0.1127 ( 14)
          -0.2114 ( 16)  0.1373 ( 19) -0.1299 ( 23)  0.1294 ( 27) -0.1254 ( 35)
           0.1326 ( 36) -0.1112 ( 38)  0.1335 ( 39) -0.1310 ( 41) -0.1504 ( 42)
           0.1011 ( 46) -0.1414 ( 47)  0.1079 ( 51) -0.1773 ( 52) -0.1245 ( 53)
          -0.1984 ( 56)  0.1695 ( 60)  0.1124 ( 61) -0.1631 ( 64)  0.1221 ( 65)
           0.1176 ( 69)  0.2265 ( 72) -0.1610 ( 74)  0.2375 ( 75) -0.2499 ( 77)
           0.2601 ( 83)
 CRD 45=  -0.2069 (  1)  0.1784 (  3) -0.2193 (  9)  0.1362 ( 10)  0.1140 ( 12)
           0.1409 ( 14) -0.1280 ( 16) -0.1262 ( 19)  0.1551 ( 20)  0.1034 ( 27)
          -0.1244 ( 29)  0.1421 ( 33)  0.1306 ( 37) -0.1367 ( 40)  0.1644 ( 41)
           0.1253 ( 42) -0.1044 ( 47)  0.1063 ( 51) -0.1395 ( 53) -0.2222 ( 57)
           0.1778 ( 60) -0.1679 ( 62)  0.1785 ( 65) -0.1545 ( 68)  0.1110 ( 71)
           0.2847 ( 73) -0.2525 ( 75)  0.2268 ( 77) -0.1175 ( 79) -0.1494 ( 82)
           0.1910 ( 83)
 CRD 46=   0.1232 (  2) -0.2481 (  3)  0.2168 (  7)  0.1236 ( 11) -0.1677 ( 13)
          -0.1437 ( 15)  0.1597 ( 18)  0.1778 ( 21) -0.1262 ( 26)  0.1020 ( 28)
           0.1609 ( 30) -0.1525 ( 37) -0.1883 ( 38) -0.1227 ( 45) -0.1094 ( 50)
          -0.2489 ( 54)  0.1022 ( 61)  0.1454 ( 63)  0.2057 ( 64)  0.1452 ( 65)
          -0.2808 ( 67) -0.1775 ( 79)  0.2532 ( 82) -0.2268 ( 84)  0.3175 ( 85)
 CRD 47=   0.1217 (  2)  0.1581 (  3) -0.1967 (  4) -0.1687 (  5)  0.1578 (  7)
          -0.1026 (  8) -0.1115 ( 12) -0.1914 ( 22) -0.1059 ( 28) -0.1651 ( 29)
           0.1205 ( 31)  0.2008 ( 36)  0.1546 ( 41) -0.1017 ( 44) -0.1259 ( 52)
          -0.1419 ( 54) -0.1925 ( 55)  0.1697 ( 56) -0.2423 ( 59)  0.2822 ( 63)
          -0.1748 ( 64)  0.1938 ( 68)  0.1866 ( 71) -0.1873 ( 72) -0.1548 ( 75)
           0.1213 ( 77) -0.2179 ( 79)  0.1329 ( 82)  0.1291 ( 83)  0.1835 ( 84)
 CRD 48=   0.1836 (  1) -0.1250 (  4) -0.1209 (  5)  0.2029 (  6)  0.1305 ( 18)
          -0.1404 ( 21)  0.1148 ( 24) -0.1507 ( 25) -0.1093 ( 32)  0.1149 ( 35)
           0.1024 ( 37) -0.1072 ( 38) -0.2362 ( 50) -0.1859 ( 52)  0.1252 ( 53)
           0.1331 ( 54)  0.1919 ( 55)  0.2107 ( 56)  0.2208 ( 57) -0.1897 ( 59)
          -0.2653 ( 61)  0.1908 ( 65) -0.1752 ( 68)  0.2612 ( 69)  0.1912 ( 71)
          -0.1309 ( 72) -0.1675 ( 73)  0.1248 ( 83)

 THE DETERMINANT OF THE G MATRIX IS 10**(   -16)


                     --------------------
                     INTERNAL COORDINATES
                     --------------------

                 - - ATOMS - -         COORDINATE      COORDINATE
 NO.   TYPE    I  J  K  L  M  N        (BOHR,RAD)       (ANG,DEG)
 ----------------------------------------------------------------
   1 STRETCH   1  7                     2.0748449       1.0979607
   2 STRETCH   1  3                     2.8818507       1.5250098
   3 STRETCH   1  2                     2.9045548       1.5370243
   4 STRETCH   1  8                     2.0748145       1.0979446
   5 STRETCH   2  4                     2.8899756       1.5293094
   6 STRETCH   2  9                     2.0735997       1.0973018
   7 STRETCH   2  5                     2.8922682       1.5305225
   8 STRETCH   3 11                     2.0664506       1.0935187
   9 STRETCH   3 10                     2.0680624       1.0943716
  10 STRETCH   3  6                     2.6880995       1.4224811
  11 STRETCH   4 14                     2.0677020       1.0941809
  12 STRETCH   4 13                     2.0698528       1.0953190
  13 STRETCH   4 12                     2.0701353       1.0954685
  14 STRETCH   5 16                     2.0699780       1.0953852
  15 STRETCH   5 15                     2.0697846       1.0952829
  16 STRETCH   5 17                     2.0694981       1.0951313
  17 STRETCH   6 18                     1.8376912       0.9724644
  18 BEND      1  2  4                  1.9604609     112.3261358
  19 BEND      1  3  6                  1.9134653     109.6334837
  20 BEND      1  3 10                  1.9344927     110.8382658
  21 BEND      1  2  9                  1.8979652     108.7453936
  22 BEND      1  2  5                  1.9174647     109.8626349
  23 BEND      1  3 11                  1.9545088     111.9851026
  24 BEND      2  1  8                  1.9126050     109.5841950
  25 BEND      2  1  7                  1.9248782     110.2873992
  26 BEND      2  4 14                  1.9435345     111.3563236
  27 BEND      2  5 17                  1.9342870     110.8264841
  28 BEND      2  5 15                  1.9346799     110.8489934
  29 BEND      2  1  3                  1.9845950     113.7089155
  30 BEND      2  4 12                  1.9334495     110.7784973
  31 BEND      2  4 13                  1.9417928     111.2565324
  32 BEND      2  5 16                  1.9425667     111.3008738
  33 BEND      3  1  7                  1.9064000     109.2286751
  34 BEND      3  6 18                  1.8761536     107.4956813
  35 BEND      3  1  8                  1.8909889     108.3456859
  36 BEND      4  2  9                  1.8892895     108.2483129
  37 BEND      4  2  5                  1.9150954     109.7268824
  38 BEND      5  2  9                  1.8816201     107.8088890
  39 BEND      6  3 10                  1.8824843     107.8584059
  40 BEND      6  3 11                  1.8840088     107.9457542
  41 BEND      7  1  8                  1.8383701     105.3308475
  42 BEND     10  3 11                  1.8927696     108.4477095
  43 BEND     12  4 13                  1.8837466     107.9307320
  44 BEND     12  4 14                  1.8706274     107.1790571
  45 BEND     13  4 14                  1.8879555     108.1718794
  46 BEND     15  5 17                  1.8788824     107.6520312
  47 BEND     15  5 16                  1.8853027     108.0198897
  48 BEND     16  5 17                  1.8858450     108.0509582
  49 TORSION   1  2  4 12               3.0772635     176.3142128
  50 TORSION   1  2  5 17               1.0221928      58.5673352
  51 TORSION   1  2  5 15               3.1074154     178.0417859
  52 TORSION   1  2  5 16              -1.0769990     -61.7074995
  53 TORSION   1  3  6 18               1.0549896      60.4464496
  54 TORSION   1  2  4 13               0.9817992      56.2529515
  55 TORSION   1  2  4 14              -1.1258297     -64.5052893
  56 TORSION   2  1  3 10               0.9869713      56.5492889
  57 TORSION   2  1  3 11              -1.1292810     -64.7030352
  58 TORSION   2  1  3  6               3.0631823     175.5074175
  59 TORSION   3  1  2  9              -0.9773862     -56.0001022
  60 TORSION   3  1  2  5              -3.0329493    -173.7751953
  61 TORSION   3  1  2  4               1.1133618      63.7909314
  62 TORSION   4  2  1  8              -3.0508758    -174.8023097
  63 TORSION   4  2  1  7              -1.0348089     -59.2901835
  64 TORSION   4  2  5 16               1.0865292      62.2535393
  65 TORSION   4  2  5 15              -1.0122417     -57.9971754
  66 TORSION   4  2  5 17              -3.0974642    -177.4716260
  67 TORSION   5  2  4 13              -1.1564150     -66.2576985
  68 TORSION   5  2  4 12               0.9390493      53.8035628
  69 TORSION   5  2  1  8              -0.9140016     -52.3684364
  70 TORSION   5  2  4 14               3.0191414     172.9840607
  71 TORSION   5  2  1  7               1.1020653      63.1436898
  72 TORSION   6  3  1  7              -1.0617546     -60.8340568
  73 TORSION   6  3  1  8               0.9322307      53.4128868
  74 TORSION   7  1  2  9              -3.1255569    -179.0812171
  75 TORSION   7  1  3 11               1.0289674      58.9554905
  76 TORSION   7  1  3 10              -3.1379656    -179.7921853
  77 TORSION   8  1  3 10              -1.1439803     -65.5452417
  78 TORSION   8  1  3 11               3.0229527     173.2024341
  79 TORSION   8  1  2  9               1.1415615      65.4066567
  80 TORSION   9  2  5 16               3.1404979     179.9372742
  81 TORSION   9  2  4 13               3.0775873     176.3327611
  82 TORSION   9  2  4 12              -1.1101337     -63.6059776
  83 TORSION   9  2  5 15               1.0417270      59.6865596
  84 TORSION   9  2  5 17              -1.0434956     -59.7878911
  85 TORSION   9  2  4 14               0.9699584      55.5745203
  86 TORSION  10  3  6 18              -3.1201815    -178.7732333
  87 TORSION  11  3  6 18              -1.0783510     -61.7849634

     ------------------------------------------
     THE POINT GROUP IS C1 , NAXIS= 1, ORDER= 1
     ------------------------------------------

     DIMENSIONS OF THE SYMMETRY SUBSPACES ARE
 A   =  186

 ..... DONE SETTING UP THE RUN .....
 STEP CPU TIME =     0.01 TOTAL CPU TIME =        0.0 (    0.0 MIN)
 TOTAL WALL CLOCK TIME=        0.0 SECONDS, CPU UTILIZATION IS  50.00%


          -----------------------------
          STATIONARY POINT LOCATION RUN
          -----------------------------

 OBTAINING INITIAL HESSIAN, HESS=GUESS   
 DIAGONAL GUESS HESSIAN IN INTERNAL COORDS IS
     1  0.3410     2  0.3707     3  0.3622     4  0.3411     5  0.3677
     6  0.3415     7  0.3668     8  0.3440     9  0.3434    10  0.3654
    11  0.3436    12  0.3428    13  0.3427    14  0.3428    15  0.3428
    16  0.3429    17  0.3515    18  0.2480    19  0.2438    20  0.2241
    21  0.2232    22  0.2480    23  0.2242    24  0.2232    25  0.2232
    26  0.2239    27  0.2237    28  0.2237    29  0.2483    30  0.2238
    31  0.2238    32  0.2237    33  0.2239    34  0.2144    35  0.2239
    36  0.2237    37  0.2485    38  0.2236    39  0.2195    40  0.2196
    41  0.2026    42  0.2030    43  0.2029    44  0.2029    45  0.2029
    46  0.2029    47  0.2029    48  0.2029    49  0.2500    50  0.2500
    51  0.2500    52  0.2500    53  0.2500    54  0.2500    55  0.2500
    56  0.2500    57  0.2500    58  0.2500    59  0.2500    60  0.2500
    61  0.2500    62  0.2500    63  0.2500    64  0.2500    65  0.2500
    66  0.2500    67  0.2500    68  0.2500    69  0.2500    70  0.2500
    71  0.2500    72  0.2500    73  0.2500    74  0.2500    75  0.2500
    76  0.2500    77  0.2500    78  0.2500    79  0.2500    80  0.2500
    81  0.2500    82  0.2500    83  0.2500    84  0.2500    85  0.2500
    86  0.2500    87  0.2500
 TRANSFORMING HESSIAN TO SYMMETRY COORDINATES

          PARAMETERS CONTROLLING GEOMETRY SEARCH ARE
          METHOD =QA                  UPHESS =BFGS    
          NNEG   =         0          NFRZ   =         3
          NSTEP  =        50          IFOLOW =         1
          HESS   =GUESS               RESTAR =         F
          IHREP  =         0          HSSEND =         F
          NPRT   =         0          NPUN   =         0
          OPTTOL = 5.000E-04          RMIN   = 1.500E-03
          RMAX   = 1.000E-01          RLIM   = 7.000E-02
          DXMAX  = 3.000E-01          PURIFY =         F
          MOVIE  =         F          TRUPD  =         T
          TRMAX  = 5.000E-01          TRMIN  = 5.000E-02
          ITBMAT =         5          STPT   =         F
          STSTEP = 1.000E-02          PROJCT=          F
          FROZEN COORD(S)=   1   2   3


      ***** EQUILIBRIUM GEOMETRY LOCATED *****
            (SUBJECT TO   3 CONSTRAINT(S))
 COORDINATES OF ALL ATOMS ARE (ANGS)
   ATOM   CHARGE       X              Y              Z
 ------------------------------------------------------------
 C           6.0   2.4839871048   0.7498935413   1.5256996414
 C           6.0   2.6081533698   1.7403031813   2.6916292922
 C           6.0   1.0579807013   0.4055440130   1.1191909249
 C           6.0   2.0059929328   1.1900789738   3.9899153951
 C           6.0   4.0771071044   2.1252592186   2.8921728984
 O           8.0   1.0332814880  -0.4486013594  -0.0060470045
 H           1.0   3.0036253748  -0.1726119675   1.7869513513
 H           1.0   2.9868611742   1.1589049579   0.6523084476
 H           1.0   2.0627847893   2.6454615568   2.4249683059
 H           1.0   0.5195053773   1.3014109335   0.8310027003
 H           1.0   0.5174139093  -0.0581741032   1.9382941577
 H           1.0   2.1673480682   1.8805652079   4.8129622934
 H           1.0   2.4665579120   0.2405207185   4.2559213223
 H           1.0   0.9362026167   1.0289534055   3.9048403738
 H           1.0   4.1877928338   2.8514604793   3.6926504797
 H           1.0   4.6739375141   1.2521556215   3.1489401171
 H           1.0   4.4939895665   2.5577922910   1.9865156064
 H           1.0   1.4644384405  -1.2568738945   0.2181576852


                     --------------------
                     INTERNAL COORDINATES
                     --------------------

                 - - ATOMS - -         COORDINATE      COORDINATE
 NO.   TYPE    I  J  K  L  M  N        (BOHR,RAD)       (ANG,DEG)
 ----------------------------------------------------------------
   1 STRETCH   1  7                     2.0608350       1.0905470
   2 STRETCH   1  3                     2.8766820       1.5222747
   3 STRETCH   1  2                     2.9004188       1.5348356
   4 STRETCH   1  8                     2.0553625       1.0876511
   5 STRETCH   2  4                     2.8974440       1.5332615
   6 STRETCH   2  9                     2.0595817       1.0898838
   7 STRETCH   2  5                     2.8945729       1.5317421
   8 STRETCH   3 11                     2.0511816       1.0854386
   9 STRETCH   3 10                     2.0489246       1.0842443
  10 STRETCH   3  6                     2.6700262       1.4129171
  11 STRETCH   4 14                     2.0507232       1.0851961
  12 STRETCH   4 13                     2.0567132       1.0883658
  13 STRETCH   4 12                     2.0529530       1.0863760
  14 STRETCH   5 16                     2.0566313       1.0883225
  15 STRETCH   5 15                     2.0531018       1.0864548
  16 STRETCH   5 17                     2.0537166       1.0867801
  17 STRETCH   6 18                     1.7822316       0.9431164
  18 BEND      1  2  4                  1.9604728     112.3268194
  19 BEND      1  3  6                  1.9452809     111.4563848
  20 BEND      1  3 10                  1.9276223     110.4446219
  21 BEND      1  2  9                  1.8855414     108.0335665
  22 BEND      1  2  5                  1.9168756     109.8288811
  23 BEND      1  3 11                  1.9408289     111.2013020
  24 BEND      2  1  8                  1.9070321     109.2648919
  25 BEND      2  1  7                  1.9021538     108.9853860
  26 BEND      2  4 14                  1.9541757     111.9660205
  27 BEND      2  5 17                  1.9377661     111.0258182
  28 BEND      2  5 15                  1.9413696     111.2322863
  29 BEND      2  1  3                  2.0093242     115.1257945
  30 BEND      2  4 12                  1.9338025     110.7987229
  31 BEND      2  4 13                  1.9324811     110.7230084
  32 BEND      2  5 16                  1.9339076     110.8047441
  33 BEND      3  1  7                  1.8954505     108.6013127
  34 BEND      3  6 18                  1.8973457     108.7098984
  35 BEND      3  1  8                  1.8794120     107.6823740
  36 BEND      4  2  9                  1.8846107     107.9802376
  37 BEND      4  2  5                  1.9347380     110.8523219
  38 BEND      5  2  9                  1.8788351     107.6493197
  39 BEND      6  3 10                  1.8536897     106.2085948
  40 BEND      6  3 11                  1.9113527     109.5124428
  41 BEND      7  1  8                  1.8651981     106.8679790
  42 BEND     10  3 11                  1.8820333     107.8325670
  43 BEND     12  4 13                  1.8823184     107.8489000
  44 BEND     12  4 14                  1.8756780     107.4684333
  45 BEND     13  4 14                  1.8826092     107.8655611
  46 BEND     15  5 17                  1.8848144     107.9919095
  47 BEND     15  5 16                  1.8823478     107.8505831
  48 BEND     16  5 17                  1.8813005     107.7905762
  49 TORSION   1  2  4 12               3.0739051     176.1217891
  50 TORSION   1  2  5 17               1.0101613      57.8779815
  51 TORSION   1  2  5 15               3.1095921     178.1665046
  52 TORSION   1  2  5 16              -1.0798676     -61.8718584
  53 TORSION   1  3  6 18               1.0803541      61.8997331
  54 TORSION   1  2  4 13               0.9861279      56.5009662
  55 TORSION   1  2  4 14              -1.1155275     -63.9150191
  56 TORSION   2  1  3 10               1.0263430      58.8051194
  57 TORSION   2  1  3 11              -1.0624639     -60.8746947
  58 TORSION   2  1  3  6               3.0825801     176.6188301
  59 TORSION   3  1  2  9              -0.9826241     -56.3002161
  60 TORSION   3  1  2  5              -3.0273061    -173.4518650
  61 TORSION   3  1  2  4               1.0941345      62.6892877
  62 TORSION   4  2  1  8              -3.0722255    -176.0255573
  63 TORSION   4  2  1  7              -1.0399112     -59.5825210
  64 TORSION   4  2  5 16               1.0968138      62.8428013
  65 TORSION   4  2  5 15              -0.9969117     -57.1188357
  66 TORSION   4  2  5 17              -3.0963425    -177.4073588
  67 TORSION   5  2  4 13              -1.1656397     -66.7862335
  68 TORSION   5  2  4 12               0.9221375      52.8345894
  69 TORSION   5  2  1  8              -0.9104808     -52.1667100
  70 TORSION   5  2  4 14               3.0158902     172.7977811
  71 TORSION   5  2  1  7               1.1218335      64.2763263
  72 TORSION   6  3  1  7              -1.0629616     -60.9032115
  73 TORSION   6  3  1  8               0.9508212      54.4780423
  74 TORSION   7  1  2  9              -3.1166698    -178.5720248
  75 TORSION   7  1  3 11               1.0751798      61.6032636
  76 TORSION   7  1  3 10              -3.1191987    -178.7169222
  77 TORSION   8  1  3 10              -1.1054159     -63.3356684
  78 TORSION   8  1  3 11               3.0889626     176.9845174
  79 TORSION   8  1  2  9               1.1342011      64.9849390
  80 TORSION   9  2  5 16              -3.1287368    -179.2634151
  81 TORSION   9  2  4 13               3.0634322     175.5217361
  82 TORSION   9  2  4 12              -1.1319759     -64.8574411
  83 TORSION   9  2  5 15               1.0607229      60.7749479
  84 TORSION   9  2  5 17              -1.0387078     -59.5135752
  85 TORSION   9  2  4 14               0.9617768      55.1057507
  86 TORSION  10  3  6 18              -3.1025393    -177.7624059
  87 TORSION  11  3  6 18              -1.0746362     -61.5721212

          INTERNUCLEAR DISTANCES (ANGS.)


 =====================================================
   GAMESS/COSab RESULTS
 =====================================================

   Dielectric Constant                  = INFTY
   Basic Grid Size                      =                 1082
   Number of Segments                   =                   92
   Number of Segments located on spheres=                  229
   Number of Segments of the cavity     =                  592
   Solvent Radius (rsolv)               = 1.40
   Outlying Charge Error Method         = double cavity

 =====================================================

  Total solvated Energy (a.u.)          =  -271.2657639341
  Total Energy corrected (a.u.)         =  -271.2656259262

  Outlying charge effect (a.u.)         =     0.0001380079
  Outlying charge effect (kcal/mol)     =     0.0866013427

  Dielectric Energy (a.u.)              =    -0.0107863559
  Dielectric energy corr. (a.u.)        =    -0.0106483480

  Sum of polarization charges           =     0.0237223658
  Sum of polarization charges(cor.)     =    -0.0237223658

  Total surface area of cavity (A**2)   =  142.23
  Total volume of cavity (A**3)         =  134.90

 =====================================================
 NPS=                   592
NR.  ATOM  (X, Y, Z)(a.u.)                  CHARGE(e)  AREA(A**2) SIGMA(e/A**2)
   1   1   8.116733   0.609620   1.498381   0.001071   0.232280   0.004612
   2   1   4.076342   4.523426   0.820783   0.000077   0.092912   0.000831
   3   1   8.023734  -0.035419   1.840186   0.001037   0.232280   0.004467
   4   1   6.668328  -0.515242   0.303875   0.001545   0.371649   0.004158
   5   1   7.541758  -0.056820   0.882526   0.001786   0.325193   0.005493
   6   1   4.461023   4.607129   0.869794   0.000060   0.046456   0.001298
   7   1   7.040761  -0.874195   1.005039   0.000548   0.139368   0.003933
   8   2   5.204497   5.820166   2.293624   0.000098   0.092912   0.001056
   9   2   4.203638   6.516229   6.914419   0.000114   0.092912   0.001231
  10   2   4.471961   6.687828   6.674357   0.000058   0.046456   0.001240
  11   3  -1.719402   0.393871   1.552062   0.000321   0.278737   0.001153
  12   3   2.417714  -2.546832   3.884698  -0.000458   0.139368  -0.003289
  13   3   1.849190  -2.699763   3.614212   0.000212   0.046456   0.004554
  14   3  -0.713883   2.827358   3.750587   0.000165   0.232280   0.000711
  15   3  -1.706496   1.363168   1.673104   0.000490   0.418105   0.001172
  16   3   2.587054   3.546301  -0.377160  -0.000148   0.185824  -0.000797
  17   3   2.635888   2.826219  -0.989217   0.000132   0.139368   0.000946
  18   3  -1.468106   0.788193   0.611318   0.000485   0.232280   0.002088
  19   3  -1.719722   0.735999   2.787504   0.000693   0.371649   0.001864
  20   3  -1.241564   1.797002   3.763882   0.000955   0.371649   0.002570
  21   3  -1.553245  -0.459748   1.714425   0.000287   0.232280   0.001234
  22   3  -1.549732  -0.490820   2.443939   0.000263   0.232280   0.001132
  23   3   2.665144  -2.213160   4.342828  -0.000325   0.092912  -0.003498
  24   3  -1.561555   1.805932   2.838814   0.000657   0.278737   0.002359
  25   3  -1.232857   1.505404   0.300770  -0.000015   0.139368  -0.000110
  26   3   1.858989   2.806329  -1.063568   0.000026   0.185824   0.000141
  27   3  -1.056230  -1.454788   2.235717   0.000776   0.185824   0.004175
  28   4   0.836782   3.932627   9.190122   0.001033   0.232280   0.004447
  29   4   2.876628   0.866830  10.936682   0.000913   0.371649   0.002457
  30   4   6.472428   1.485420  10.091330   0.001804   0.371649   0.004855
  31   4   6.155215   2.283622  10.488151   0.001228   0.278737   0.004407
  32   4   3.247426   1.888902  11.262681   0.001243   0.418105   0.002973
  33   4   1.426243   4.446288   9.505786   0.001681   0.371649   0.004523
  34   4   2.879348   5.869097   8.129705   0.000556   0.232280   0.002394
  35   4   1.755767  -0.838514   8.321367   0.001348   0.278737   0.004834
  36   4   2.335023  -1.182529   8.164513   0.000870   0.185824   0.004683
  37   4   1.696966   5.386467   7.776675   0.001011   0.325193   0.003110
  38   4   1.025777   4.705998   8.315663   0.001329   0.325193   0.004088
  39   4   1.122302   3.066909  10.088278   0.002372   0.511017   0.004642
  40   4   1.917960   1.805218  10.792544   0.001211   0.418105   0.002897
  41   4   4.129287   0.732982  10.985373   0.001635   0.418105   0.003910
  42   4   5.488545   1.198085  10.748835   0.001748   0.325193   0.005374
  43   4   1.444652  -0.058597   9.398713   0.001273   0.371649   0.003424
  44   4   1.930604   0.489615  10.319943   0.001225   0.464561   0.002637
  45   4   3.118830  -0.076809  10.442222   0.000948   0.325193   0.002914
  46   4   2.674800  -1.361072   7.457410   0.000349   0.092912   0.003757
  47   4   4.654552   1.564883  11.155133   0.001392   0.325193   0.004281
  48   4   1.902989   2.769197  10.772482   0.000967   0.278737   0.003468
  49   4   1.919171   5.328183   8.679836   0.000793   0.232280   0.003414
  50   4   2.367572  -0.650033   9.503226   0.001638   0.418105   0.003917
  51   4   0.936584   4.674627   7.036009   0.000973   0.371649   0.002618
  52   4   1.123409   1.529937  10.119103   0.000912   0.325193   0.002805
  53   5  11.021946   3.007914   3.961092   0.002285   0.418105   0.005465
  54   5   6.840574   7.655776   4.926027   0.000904   0.278737   0.003242
  55   5  10.645725   3.715446   7.819920   0.001864   0.418105   0.004459
  56   5  10.491478   6.530741   5.024320   0.001409   0.371649   0.003792
  57   5   9.813338   1.956818   3.099698   0.001632   0.325193   0.005020
  58   5  10.003221   6.985510   5.893983   0.001492   0.371649   0.004015
  59   5  10.195261   4.437875   8.276662   0.001161   0.278737   0.004166
  60   5   8.304047   3.682217   9.182057   0.000448   0.139368   0.003213
  61   5   7.254012   7.759724   5.724262   0.000590   0.185824   0.003174
  62   5  10.443725   2.161365   3.637512   0.000812   0.185824   0.004370
  63   5  10.344636   2.770335   3.064907   0.001105   0.232280   0.004759
  64   5   8.777185   2.933091   8.923854   0.001250   0.278737   0.004484
  65   5   9.713737   3.189263   8.557974   0.001436   0.278737   0.005152
  66   5  10.984852   4.838740   7.152922   0.001425   0.464561   0.003067
  67   5  10.975895   5.846935   5.946321   0.001310   0.464561   0.002820
  68   5   9.347334   7.382550   4.962229   0.001897   0.371649   0.005105
  69   5   7.665558   7.720394   4.716126   0.000894   0.232280   0.003848
  70   5   6.960854   7.332678   3.812589   0.001162   0.371649   0.003126
  71   5  11.304229   3.708346   6.575495   0.001236   0.418105   0.002956
  72   5  11.434424   3.495582   5.146402   0.001460   0.418105   0.003491
  73   5  11.278753   4.216488   4.253122   0.001628   0.464561   0.003504
  74   5  11.091052   5.524597   4.729933   0.000909   0.325193   0.002794
  75   5  10.678610   5.866248   6.885560   0.000725   0.278737   0.002602
  76   5   9.242276   3.739284   8.906810   0.000889   0.185824   0.004785
  77   5   6.385516   7.533734   5.878892   0.000600   0.232280   0.002581
  78   5   8.426702   7.725975   5.478492   0.001445   0.325193   0.004442
  79   5   6.569342   6.708981   3.068717   0.000172   0.092912   0.001849
  80   5  11.416861   4.673798   5.731879   0.001095   0.464561   0.002356
  81   5   8.261517   7.579543   4.335608   0.001002   0.232280   0.004312
  82   6  -0.960642  -1.096681  -1.431125   0.006701   0.343589   0.019503
  83   6   1.743763  -0.136476  -3.176105   0.006360   0.343589   0.018511
  84   6   1.353508  -3.299457  -2.059541   0.001644   0.274871   0.005982
  85   6   4.361912  -1.685256  -2.026019   0.003221   0.309230   0.010417
  86   6   0.079711  -3.231290   1.161364   0.002143   0.240512   0.008911
  87   6  -0.361793   0.851242  -1.535111   0.002562   0.206154   0.012425
  88   6  -0.831151   0.075507  -1.412451   0.006072   0.343589   0.017672
  89   6   0.666586   1.309219  -2.075001   0.003979   0.274871   0.014476
  90   6   1.087354   0.696710  -2.737357   0.005998   0.343589   0.017458
  91   6  -0.328743  -0.809613  -2.326286   0.007114   0.377948   0.018824
  92   6   0.609719  -0.418754  -2.940124   0.006955   0.377948   0.018401
  93   6   2.506468   0.567033  -2.884822   0.007971   0.412307   0.019333
  94   6   3.190549   1.082381  -2.315099   0.006079   0.274871   0.022116
  95   6  -1.262382  -0.800289  -0.486932   0.005689   0.343589   0.016556
  96   6   2.420289  -3.040365  -2.364793   0.000721   0.274871   0.002621
  97   6   3.599781  -2.402619  -2.342498   0.001696   0.309230   0.005485
  98   6   4.831772  -1.419644  -1.407175   0.002070   0.206154   0.010043
  99   6   0.174951  -3.568774  -0.032052   0.002725   0.309230   0.008811
 100   6   0.629203  -3.593530  -1.140051   0.002019   0.309230   0.006530
 101   6  -0.393705  -1.984130  -1.952558   0.006770   0.377948   0.017911
 102   6   0.371595  -2.840254  -2.035003   0.004835   0.377948   0.012793
 103   6   1.488013  -2.443135  -2.804903   0.005425   0.481025   0.011278
 104   6   1.559002  -1.295805  -3.206577   0.006094   0.377948   0.016124
 105   6   2.733285  -0.804079  -3.166323   0.007008   0.412307   0.016997
 106   6   3.727542  -1.135112  -2.719153   0.005649   0.377948   0.014947
 107   6   4.446460  -0.498126  -2.066484   0.004704   0.274871   0.017114
 108   6  -0.499862  -2.730933   0.990301   0.003114   0.240512   0.012945
 109   6  -0.554122  -2.913929   0.096555   0.004025   0.274871   0.014645
 110   6  -1.003077  -2.032654  -0.662894   0.008662   0.446666   0.019392
 111   6  -0.008181   0.391681  -2.288215   0.005762   0.343589   0.016769
 112   6   1.961811   1.465668  -2.294579   0.005661   0.377948   0.014979
 113   6   0.449200  -1.640810  -2.781881   0.006299   0.377948   0.016667
 114   6   3.658581   0.095263  -2.612422   0.007604   0.377948   0.020119
 115   6  -1.090116  -1.908059   0.415230   0.005618   0.309230   0.018169
 116   6   2.744055  -2.039156  -2.930133   0.004474   0.412307   0.010852
 117   6  -0.291866  -2.947337  -1.069046   0.005676   0.377948   0.015018
 118   7   7.032117  -2.365540   3.569773  -0.001478   0.333671  -0.004431
 119   7   5.189118  -2.516457   4.377236  -0.001379   0.274788  -0.005020
 120   7   7.765643  -1.348820   2.587623  -0.000508   0.353299  -0.001437
 121   7   6.151924  -2.458432   4.500326  -0.001519   0.314043  -0.004837
 122   7   7.077728  -1.910452   4.626041  -0.001960   0.353299  -0.005547
 123   7   7.740593  -1.646952   3.545058  -0.001454   0.333671  -0.004357
 124   7   6.997059  -2.098511   2.304979  -0.001349   0.392554  -0.003436
 125   7   6.132772  -2.739608   3.420920  -0.001869   0.333671  -0.005602
 126   8   6.579106   2.910207  -0.921981  -0.001614   0.353299  -0.004567
 127   8   5.035466   3.878552  -0.444565  -0.001022   0.372926  -0.002742
 128   8   7.131550   1.235248  -0.473685  -0.000656   0.372926  -0.001760
 129   8   5.959872   4.179927  -0.172927  -0.002086   0.490692  -0.004251
 130   8   5.513663   2.947757  -1.100510  -0.001636   0.392554  -0.004168
 131   8   6.461664   1.827299  -1.055432  -0.001914   0.451437  -0.004241
 132   8   7.770784   2.040908   0.011587  -0.001557   0.490692  -0.003173
 133   8   7.123051   3.339934  -0.356704  -0.002066   0.372926  -0.005539
 134   9   2.931636   7.182118   4.002912  -0.001704   0.412182  -0.004133
 135   9   4.192892   7.438099   4.583041  -0.000605   0.274788  -0.002201
 136   9   3.199798   6.951033   5.900803  -0.000372   0.274788  -0.001353
 137   9   1.651331   5.974776   4.770694  -0.001003   0.314043  -0.003194
 138   9   4.122152   6.616231   2.746733  -0.000697   0.353299  -0.001972
 139   9   3.567873   7.360238   5.175473  -0.001224   0.412182  -0.002970
 140   9   2.289699   6.726824   5.263332  -0.001208   0.451437  -0.002675
 141   9   2.124352   6.536632   3.857782  -0.001700   0.372926  -0.004560
 142   9   3.092652   6.508450   2.819419  -0.001611   0.392554  -0.004103
 143   9   4.059348   7.237795   3.583615  -0.001037   0.353299  -0.002935
 144  10  -0.553349   4.225583   0.822766  -0.002655   0.431809  -0.006149
 145  10   0.549615   3.517498  -0.604178  -0.001342   0.392554  -0.003419
 146  10   1.532851   4.360759   0.115761  -0.001830   0.392554  -0.004661
 147  10  -0.866762   3.719004   2.585903  -0.001490   0.392554  -0.003796
 148  10  -1.270731   2.868513   0.679259  -0.001306   0.372926  -0.003502
 149  10   0.375808   4.306640   0.068587  -0.001874   0.353299  -0.005305
 150  10   0.644241   4.832351   1.031968  -0.003010   0.451437  -0.006667
 151  10  -0.298289   4.488651   2.098005  -0.002784   0.431809  -0.006447
 152  10  -1.292954   3.386377   1.608345  -0.001768   0.431809  -0.004095
 153  10  -0.617055   3.248739  -0.119547  -0.002371   0.471065  -0.005033
 154  11  -0.192866  -1.601025   5.225345  -0.002788   0.431809  -0.006457
 155  11   0.867505  -2.463592   4.358026  -0.000869   0.274788  -0.003164
 156  11  -0.827004  -1.772952   3.773764  -0.000913   0.294415  -0.003100
 157  11  -1.274815   0.134114   4.612281  -0.001289   0.333671  -0.003864
 158  11   1.019174  -2.070308   5.142833  -0.001766   0.333671  -0.005292
 159  11  -0.108608  -2.244564   4.209001  -0.001515   0.392554  -0.003860
 160  11  -1.321722  -0.883628   4.048681  -0.001235   0.372926  -0.003312
 161  11  -0.910741  -0.845284   5.051344  -0.002033   0.333671  -0.006093
 162  12   4.085823   4.866602  11.171588  -0.002464   0.471065  -0.005231
 163  12   2.598564   5.049633  10.342617  -0.000734   0.353299  -0.002078
 164  12   3.855142   5.979938   9.396684  -0.001241   0.372926  -0.003327
 165  12   5.526741   3.508887  11.091474  -0.000968   0.412182  -0.002348
 166  12   3.408975   3.567385  11.453857  -0.000881   0.372926  -0.002362
 167  12   3.280503   5.622735  10.139177  -0.001412   0.412182  -0.003426
 168  12   4.674234   5.556221  10.395392  -0.002443   0.431809  -0.005658
 169  12   5.384038   4.549972  10.934428  -0.002192   0.431809  -0.005076
 170  12   4.452048   3.503706  11.525329  -0.001222   0.412182  -0.002965
 171  12   2.870258   4.355333  11.067722  -0.001069   0.372926  -0.002867
 172  13   5.302113  -1.738575   8.945053  -0.002024   0.412182  -0.004910
 173  13   4.017181  -1.882402   7.643476  -0.000917   0.294415  -0.003115
 174  13   3.986130  -1.482773   9.393950  -0.000703   0.314043  -0.002240
 175  13   5.692264  -0.419383  10.093893  -0.000636   0.333671  -0.001907
 176  13   6.580919  -0.247978   9.404866  -0.000983   0.333671  -0.002947
 177  13   5.308497  -1.907443   7.849780  -0.002128   0.392554  -0.005420
 178  13   4.019213  -1.864080   8.539648  -0.001023   0.372926  -0.002744
 179  13   4.752539  -1.051266   9.981420  -0.001211   0.431809  -0.002804
 180  13   6.105927  -1.081537   9.302747  -0.001452   0.333671  -0.004351
 181  13   6.403084  -1.273465   8.164004  -0.002428   0.412182  -0.005890
 182  14  -0.677179   1.726809   7.435233  -0.002544   0.392554  -0.006479
 183  14   0.325656   0.113761   8.153703  -0.000915   0.314043  -0.002914
 184  14  -0.114549   3.460715   6.945943  -0.001042   0.333671  -0.003123
 185  14  -0.177686   3.050296   8.389995  -0.000709   0.353299  -0.002007
 186  14   0.095493   1.129959   8.982381  -0.000819   0.372926  -0.002196
 187  14  -0.537196   2.779141   7.241006  -0.001793   0.353299  -0.005074
 188  14  -0.333544   2.106276   8.639055  -0.001524   0.431809  -0.003529
 189  14  -0.352720   0.837748   7.934030  -0.001776   0.353299  -0.005028
 190  15   8.561129   7.134951   8.579943  -0.002948   0.549575  -0.005364
 191  15   7.448599   7.788743   7.217865  -0.000948   0.412182  -0.002301
 192  15   9.495471   7.190751   7.512128  -0.001029   0.412182  -0.002496
 193  15   9.297502   5.615037   8.995296  -0.000955   0.392554  -0.002432
 194  15   6.889983   7.361724   8.023704  -0.002193   0.510320  -0.004297
 195  15   8.532554   7.750249   7.250677  -0.001300   0.451437  -0.002880
 196  15   9.724836   6.366083   8.319542  -0.001259   0.431809  -0.002916
 197  15   8.387538   5.598694   9.379447  -0.001820   0.471065  -0.003864
 198  15   7.559246   6.707318   9.020182  -0.002372   0.412182  -0.005756
 199  16  10.592229   0.729532   6.460107  -0.002293   0.471065  -0.004869
 200  16  10.283623   0.894191   4.623085  -0.000730   0.333671  -0.002187
 201  16   9.771572   1.508747   8.052508  -0.000831   0.372926  -0.002229
 202  16  11.232471   2.072918   6.385442  -0.000751   0.392554  -0.001913
 203  16   9.995388   0.258253   5.461584  -0.001857   0.392554  -0.004732
 204  16   9.395311   0.048332   6.538553  -0.002334   0.412182  -0.005662
 205  16   9.590316   0.618797   7.502156  -0.001841   0.392554  -0.004689
 206  16  10.706457   1.695763   7.390678  -0.001483   0.510320  -0.002906
 207  16  11.017781   1.416022   5.353442  -0.001188   0.471065  -0.002522
 208  17   9.620220   5.996560   1.907235  -0.002384   0.451437  -0.005282
 209  17   9.873463   3.929280   1.934606  -0.000980   0.353299  -0.002773
 210  17  10.752187   4.924178   2.794681  -0.000724   0.353299  -0.002049
 211  17   9.831123   6.843195   3.302166  -0.000733   0.372926  -0.001965
 212  17   7.923554   6.873778   2.509447  -0.000726   0.372926  -0.001946
 213  17   9.210989   5.117441   1.422001  -0.002081   0.372926  -0.005581
 214  17  10.225033   4.736985   2.015080  -0.001219   0.333671  -0.003653
 215  17  10.498733   5.980402   2.920672  -0.001584   0.471065  -0.003362
 216  17   9.030178   6.954799   2.637702  -0.001626   0.471065  -0.003451
 217  17   8.133671   6.118904   1.691408  -0.002336   0.490692  -0.004761
 218  18   3.827824  -4.565852   0.745937  -0.007100   0.392554  -0.018088
 219  18   4.405183  -3.497371  -1.034573  -0.005532   0.412182  -0.013422
 220  18   2.363619  -4.525150  -0.705562  -0.006883   0.471065  -0.014611
 221  18   1.599903  -4.230362   1.521410  -0.006416   0.471065  -0.013620
 222  18   3.700571  -4.510461  -0.365342  -0.008216   0.471065  -0.017442
 223  18   2.622954  -4.803756   0.752917  -0.008049   0.471065  -0.017086
 224  18   2.777219  -4.163931   2.096066  -0.009359   0.510320  -0.018340
 225  18   3.917636  -4.168761   1.634933  -0.007355   0.353299  -0.020819
 226  18   4.742837  -3.832916   0.325213  -0.008236   0.431809  -0.019074
 227  18   3.346054  -3.974554  -1.360343  -0.005089   0.392554  -0.012965
 228  18   1.554444  -4.503575   0.228894  -0.004548   0.372926  -0.012196
 229  18   5.002486  -2.917308  -0.451155  -0.004359   0.294415  -0.014805
 230   1   5.077520   4.810710   1.245594  -0.000019   0.028252  -0.000673
 231   2   5.116995   5.100110   1.652006  -0.000006   0.028252  -0.000228
 232   8   5.262945   4.699599   1.032460  -0.000054   0.028252  -0.001921
 233   1   4.443936   5.095581   1.654908   0.000005   0.029848   0.000177
 234   2   4.482876   5.449303   2.006893  -0.000010   0.029848  -0.000320
 235   9   4.284626   5.632613   2.148113  -0.000040   0.029848  -0.001345
 236   2   4.859543   5.382819   1.878035   0.000081   0.080041   0.001014
 237   1   4.706163   4.924359   1.339477   0.000084   0.080041   0.001055
 238   1   3.870203   3.829856   0.081202  -0.000039   0.029902  -0.001305
 239   3   3.406745   3.686818  -0.024440  -0.000032   0.029902  -0.001067
 240   8   4.138864   3.786501  -0.053499  -0.000075   0.029902  -0.002509
 241   1   3.233706   4.071696   0.448144  -0.000056   0.026388  -0.002116
 242   3   2.769855   3.993546   0.289891  -0.000083   0.026388  -0.003130
 243  10   2.490142   4.097670   0.335186  -0.000130   0.026388  -0.004918
 244   3   2.973537   3.883784   0.110693  -0.000020   0.073501  -0.000269
 245   1   3.671005   3.992379   0.236289   0.000025   0.073501   0.000346
 246   1   8.269920   1.711628   1.566376   0.000130   0.069028   0.001878
 247   5   8.735021   2.184038   2.061923   0.000207   0.069028   0.003002
 248   8   8.192329   1.885242   1.327378  -0.000047   0.069028  -0.000677
 249   1   8.615090   0.629356   3.194878   0.000186   0.064416   0.002888
 250   5   9.202444   1.034214   3.613938   0.000116   0.064416   0.001806
 251  16   9.297000   0.905625   3.874192  -0.000049   0.064416  -0.000755
 252   5   9.203307   1.514729   2.966301   0.001059   0.466886   0.002269
 253   1   8.439727   1.113286   2.091600   0.001165   0.466886   0.002494
 254   1   5.907466   0.104411  -0.488305   0.000301   0.064141   0.004699
 255   6   5.288100  -0.270138  -0.893629   0.000983   0.064141   0.015324
 256   8   5.985165   0.384312  -0.581082   0.000058   0.064141   0.000906
 257   1   5.645775  -1.149285  -0.023491   0.000176   0.075867   0.002319
 258   6   5.135336  -1.549019  -0.542166   0.000183   0.075867   0.002406
 259  18   5.137435  -1.837744  -0.395596  -0.000338   0.075867  -0.004452
 260   6   5.161611  -0.958118  -0.986681   0.002323   0.256953   0.009040
 261   1   6.003722  -0.574973  -0.211791   0.000922   0.283924   0.003246
 262   1   8.315788   0.139309   3.094979   0.000062   0.089164   0.000695
 263   7   8.246813  -0.131652   3.224287  -0.000117   0.089164  -0.001308
 264  16   8.880222   0.507906   3.834626   0.000164   0.089164   0.001842
 265   1   6.153981  -1.640580   1.081434  -0.000151   0.081804  -0.001844
 266   7   6.221578  -1.797979   1.336941  -0.000262   0.081804  -0.003209
 267  18   5.520023  -2.216029   0.712058  -0.000937   0.081804  -0.011458
 268   7   6.888472  -1.526736   1.620129  -0.000096   0.079974  -0.001196
 269   7   7.727250  -0.862049   2.298848  -0.000406   0.183340  -0.002215
 270   1   7.202173  -0.970529   1.548515   0.000032   0.170263   0.000190
 271   1   8.045125  -0.253676   2.403135   0.000133   0.097706   0.001361
 272   8   7.930399   1.476699   0.746364  -0.000019   0.085623  -0.000217
 273   8   7.066416   0.816712  -0.060169  -0.000434   0.200816  -0.002161
 274   1   7.640797   0.876721   0.717091   0.000022   0.178702   0.000126
 275   1   6.597057   0.275679  -0.165336   0.000138   0.104607   0.001317
 276   8   4.595693   4.063418   0.037731  -0.000134   0.068536  -0.001956
 277   8   5.132918   4.493869   0.548634  -0.000143   0.068536  -0.002086
 278   1   4.557249   4.340607   0.563854  -0.000318   0.150623  -0.002114
 279   1   3.309842   4.702913   1.423625  -0.000205   0.165612  -0.001239
 280   9   3.218220   5.204900   1.973947  -0.000295   0.165612  -0.001784
 281  10   2.566126   4.636329   1.301070  -0.000534   0.165612  -0.003226
 282   9   3.917416   5.727088   2.182329  -0.000237   0.145322  -0.001632
 283   1   3.963953   4.936572   1.391254   0.000205   0.204939   0.001001
 284  10   2.276205   4.404401   0.645302  -0.000536   0.137304  -0.003900
 285   1   3.401562   4.375373   0.701656   0.000086   0.193559   0.000443
 286  16   9.430453   0.726853   4.010320   0.000050   0.032221   0.001563
 287   1   8.528289   0.254110   2.940590   0.000202   0.045781   0.004411
 288  18   5.260531  -2.238833  -0.119593  -0.001844   0.231016  -0.007981
 289   1   6.153566  -1.413703   0.549565   0.000274   0.326053   0.000841
 290   2   3.542012   6.320199   6.885819   0.000011   0.029887   0.000352
 291   4   3.355246   6.102638   7.295452   0.000042   0.029887   0.001395
 292   9   3.420242   6.432727   6.630164  -0.000019   0.029887  -0.000620
 293   2   4.071653   6.142022   7.585799   0.000003   0.026168   0.000126
 294   4   3.870157   6.003923   8.021956  -0.000018   0.026168  -0.000678
 295  12   3.942558   5.974385   8.314572  -0.000053   0.026168  -0.002012
 296   4   3.620811   6.065073   7.790549   0.000124   0.098469   0.001255
 297   2   3.795986   6.319014   7.133095   0.000125   0.098469   0.001266
 298   2   5.470205   6.292735   2.842670   0.000007   0.030228   0.000240
 299   5   5.951371   6.388482   2.936667   0.000065   0.030228   0.002163
 300   9   5.208928   6.422639   2.930531  -0.000017   0.030228  -0.000579
 301   2   4.850321   6.908591   6.200969   0.000017   0.030228   0.000554
 302   5   5.339349   6.996526   6.252369   0.000068   0.030228   0.002241
 303   9   4.644334   6.983564   5.989289  -0.000020   0.030228  -0.000648
 304   2   5.275296   6.792932   6.737235   0.000025   0.025561   0.000970
 305   5   5.740038   6.957002   6.817747   0.000008   0.025561   0.000300
 306  15   5.941299   7.000974   7.039802  -0.000028   0.025561  -0.001098
 307   2   6.018884   6.094995   2.624824   0.000016   0.025875   0.000601
 308   5   6.491914   6.251244   2.659792  -0.000002   0.025875  -0.000082
 309  17   6.758189   6.231523   2.516420  -0.000035   0.025875  -0.001341
 310   5   6.324675   6.358181   2.757261   0.000084   0.040137   0.002105
 311   2   5.625239   6.209618   2.697639   0.000064   0.040137   0.001589
 312   5   5.625689   7.054629   6.540249   0.000130   0.056781   0.002288
 313   2   4.936945   6.850035   6.509874   0.000094   0.056781   0.001656
 314   2   5.895760   5.298336   1.929474  -0.000018   0.167796  -0.000106
 315   8   6.012270   4.844711   1.335208  -0.000229   0.167796  -0.001367
 316  17   6.647284   5.433081   1.897865  -0.000173   0.167796  -0.001030
 317   8   5.493381   4.689639   0.896127  -0.000118   0.074435  -0.001583
 318   2   5.372716   5.349231   1.795249   0.000161   0.104979   0.001529
 319   9   3.770713   6.809768   6.190762  -0.000254   0.105165  -0.002419
 320   2   4.200390   6.726473   6.409473  -0.000115   0.128483  -0.000894
 321   9   4.624401   6.281499   2.651595  -0.000227   0.101375  -0.002243
 322   2   4.809200   5.911259   2.397100  -0.000118   0.123851  -0.000950
 323   2   4.868124   6.266558   7.546786   0.000001   0.170267   0.000009
 324  12   4.720328   6.035318   8.259257  -0.000152   0.170267  -0.000891
 325  15   5.572536   6.444572   7.786705  -0.000181   0.170267  -0.001063
 326  12   4.150773   6.020174   8.533798  -0.000109   0.066497  -0.001638
 327   2   4.294331   6.334892   7.457115   0.000161   0.093744   0.001716
 328  15   5.995961   6.980698   7.357784  -0.000159   0.116000  -0.001375
 329   2   4.948209   6.658070   7.058700   0.000258   0.163470   0.001581
 330  17   6.925497   6.016433   2.174151  -0.000194   0.120348  -0.001616
 331   2   5.806324   5.916281   2.337168   0.000284   0.169601   0.001674
 332   3   0.789102   3.842390   4.434527  -0.000564   0.213672  -0.002640
 333   4   1.071749   4.131877   5.400576  -0.000053   0.213672  -0.000248
 334   9   1.314717   4.594802   4.858198  -0.000325   0.213672  -0.001522
 335   3   0.445325   3.405612   4.810039  -0.000262   0.091797  -0.002854
 336   4   0.694180   3.733905   5.766310  -0.000185   0.091797  -0.002010
 337  14   0.480280   3.527458   5.838200  -0.000265   0.091797  -0.002889
 338   4   0.719106   4.004188   5.673081   0.000149   0.045763   0.003253
 339   3   0.250817   3.612212   4.316076  -0.000004   0.045763  -0.000078
 340   3   3.389754   2.305893  -1.086914   0.000481   0.093723   0.005134
 341   6   3.344027   1.930611  -1.371679   0.001145   0.093723   0.012222
 342   8   4.105412   2.453620  -0.970704   0.000201   0.093723   0.002141
 343   3  -0.495171   1.737490  -0.558058   0.000054   0.015196   0.003548
 344   6  -0.405408   1.391428  -0.864458   0.000189   0.015196   0.012451
 345  10  -0.500192   2.021843  -0.457697  -0.000043   0.015196  -0.002856
 346   3   0.963768   2.434012  -1.118779   0.000079   0.015196   0.005172
 347   6   0.992022   2.058583  -1.401539   0.000272   0.015196   0.017884
 348  10   0.824757   2.654395  -0.966921  -0.000017   0.015196  -0.001089
 349   3   0.771058  -2.884969   2.428144  -0.000095   0.038752  -0.002453
 350   6   0.785953  -3.122398   2.021011  -0.000100   0.038752  -0.002590
 351  18   1.041506  -3.317637   2.003806  -0.000296   0.038752  -0.007638
 352   6   0.299871  -2.879957   1.918995   0.000729   0.159135   0.004578
 353   6  -0.772787  -1.901299   1.199662   0.004559   0.328674   0.013872
 354   6  -1.171545  -0.355780   0.035256   0.005002   0.328674   0.015218
 355   6  -0.666428   0.865260  -0.902682   0.001725   0.159135   0.010841
 356   3  -0.219808  -2.202615   2.252357   0.001347   0.342037   0.003939
 357   3  -1.246845  -0.769988   1.187429   0.002811   0.342037   0.008219
 358   3  -1.009196   0.856922  -0.052723   0.001945   0.342037   0.005687
 359   6   1.826091   1.819027  -1.681349   0.003559   0.304582   0.011685
 360   3   2.241230   2.317863  -1.233002   0.001465   0.333055   0.004398
 361   3   3.497854  -1.719146   4.873868  -0.000486   0.248865  -0.001951
 362   7   4.240301  -1.779900   4.993710  -0.000518   0.248865  -0.002081
 363  13   4.038421  -1.503070   6.021340   0.000082   0.248865   0.000330
 364   3   3.376914  -2.570642   3.436024  -0.001526   0.144085  -0.010590
 365   7   4.111255  -2.508038   3.564636  -0.001134   0.144085  -0.007874
 366  18   3.463243  -2.973166   2.911120  -0.002755   0.144085  -0.019119
 367   7   4.374903  -2.233826   4.350460  -0.000605   0.150873  -0.004013
 368   3   3.301354  -2.342072   4.057121  -0.000555   0.212776  -0.002608
 369   8   4.415711   3.196071  -0.630579  -0.000788   0.272315  -0.002892
 370   3   3.291524   3.230298  -0.530226   0.000121   0.383582   0.000317
 371   3   0.495485   3.872973   3.812512  -0.000368   0.088526  -0.004152
 372   9   1.144017   4.542019   4.187207  -0.000162   0.088526  -0.001826
 373  10   0.424933   4.018124   3.553696  -0.000455   0.088526  -0.005134
 374   9   1.287662   4.945545   4.621265  -0.000001   0.007048  -0.000157
 375   3   0.408832   3.906877   4.033462   0.000046   0.010017   0.004595
 376  10   2.042479   4.033737   0.016130  -0.000240   0.072761  -0.003297
 377  10   1.298902   3.383833  -0.614823  -0.000789   0.163639  -0.004824
 378   3   2.110578   3.551443  -0.355726  -0.000616   0.157544  -0.003908
 379   3   1.225292   2.825750  -0.957506  -0.000099   0.088893  -0.001111
 380  10  -0.789158   2.287703  -0.120851  -0.000241   0.071095  -0.003397
 381  10  -1.314463   2.299933   0.898650  -0.000636   0.159041  -0.003997
 382  10  -1.312029   2.725229   2.216154  -0.000519   0.159041  -0.003262
 383  10  -0.556913   3.466333   3.109050  -0.000825   0.159041  -0.005187
 384   3  -1.027066   1.853521   0.228597  -0.000469   0.154712  -0.003030
 385   3  -1.472935   2.060082   1.703766  -0.000413   0.154712  -0.002667
 386   3  -1.021908   2.754529   3.019786  -0.000348   0.154712  -0.002252
 387   3  -0.171106   3.463196   3.633067  -0.000374   0.086858  -0.004304
 388   3   2.648586  -1.699973   5.056993  -0.000338   0.120608  -0.002801
 389  11   2.380884  -1.672262   5.206105  -0.000473   0.120608  -0.003921
 390  13   3.209862  -1.390610   6.163218   0.000153   0.120608   0.001269
 391   3  -0.732100   1.487030   4.768034  -0.000240   0.083938  -0.002865
 392  11  -0.739535   1.238689   4.945554  -0.000404   0.083938  -0.004813
 393  14  -0.474581   1.671375   5.754638  -0.000442   0.083938  -0.005267
 394  11  -1.116300   0.915016   4.430648  -0.000256   0.071501  -0.003586
 395  11  -1.413288   0.042723   3.740822  -0.000536   0.160023  -0.003351
 396  11  -1.106484  -1.213147   3.232312  -0.000658   0.160023  -0.004110
 397  11  -0.135716  -2.203677   3.312202  -0.000691   0.160023  -0.004321
 398  11   1.067702  -2.488771   3.944995  -0.000788   0.160023  -0.004922
 399  11   1.888439  -2.150888   4.677924  -0.000361   0.071501  -0.005054
 400   3  -1.297185   0.885164   3.851278  -0.000366   0.155542  -0.002355
 401   3  -1.408362  -0.436489   3.029682  -0.000374   0.155542  -0.002408
 402   3  -0.647464  -1.774404   2.774404  -0.000448   0.155542  -0.002882
 403   3   0.647442  -2.534141   3.198865  -0.000685   0.155542  -0.004403
 404   3   1.901025  -2.378150   4.114476  -0.000793   0.155542  -0.005096
 405  13   3.739473  -1.693579   6.718804   0.000071   0.102300   0.000698
 406   3   2.986634  -1.994012   5.007666   0.000291   0.151341   0.001920
 407  14   0.053933   3.243837   5.954525  -0.000676   0.269011  -0.002514
 408  14  -0.472387   2.284228   6.146270  -0.001158   0.269011  -0.004306
 409   3  -0.430636   2.588597   4.564674  -0.000371   0.755124  -0.000491
 410  18   2.759614  -3.415787   2.695717  -0.003924   0.237997  -0.016488
 411  18   1.484154  -3.490388   2.257991  -0.002381   0.237997  -0.010003
 412   3   1.872867  -2.817247   3.094082  -0.004950   0.555484  -0.008911
 413   4   6.665407   3.232344   9.855903   0.000152   0.067901   0.002235
 414   5   7.307769   3.538326   9.423773   0.000214   0.067901   0.003158
 415  12   6.508219   3.459041   9.985263  -0.000076   0.067901  -0.001115
 416   4   7.525237   1.573765   8.852854   0.000219   0.063901   0.003429
 417   5   8.253149   1.847839   8.556950   0.000190   0.063901   0.002969
 418  16   8.427050   1.651976   8.400224  -0.000038   0.063901  -0.000592
 419   5   7.961853   2.898368   9.114875   0.001229   0.511226   0.002403
 420   4   7.070604   2.123696   9.504846   0.001383   0.511226   0.002706
 421   9   1.542533   5.321613   5.296178  -0.000324   0.212366  -0.001527
 422   9   2.524091   6.171720   6.122391  -0.001257   0.437063  -0.002875
 423   4   1.554837   5.107794   6.519310   0.000752   0.579603   0.001297
 424   4   2.799562   5.985485   7.380728   0.000657   0.299281   0.002196
 425   4   3.028284  -1.371746   6.610349   0.000099   0.035716   0.002760
 426  11   2.448998  -1.458178   5.775536  -0.000033   0.035716  -0.000914
 427  13   3.277123  -1.426855   6.773912   0.000007   0.035716   0.000204
 428   4   1.155603  -0.573276   7.253987   0.000033   0.084242   0.000387
 429  11   0.755310  -0.811064   6.342807  -0.000354   0.084242  -0.004197
 430  14   0.891639  -0.427339   7.206732  -0.000247   0.084242  -0.002933
 431  11   1.743018  -1.757689   5.495522  -0.000789   0.252802  -0.003121
 432  11   0.848627  -1.372218   5.909926  -0.001071   0.252802  -0.004235
 433   4   2.033705  -1.191326   6.947722   0.001706   0.709211   0.002406
 434  12   3.629455   5.941653   8.743715  -0.000107   0.066581  -0.001614
 435  12   2.759265   5.552192   9.241052  -0.000239   0.146706  -0.001631
 436  12   2.211921   4.701991  10.061631  -0.000217   0.146706  -0.001477
 437  12   2.457641   3.698967  10.854942  -0.000223   0.146706  -0.001518
 438  12   3.401797   2.929387  11.315477  -0.000279   0.146706  -0.001903
 439  12   4.680791   2.689619  11.265885  -0.000166   0.146706  -0.001132
 440  12   5.802081   3.071997  10.725262  -0.000270   0.146706  -0.001840
 441   4   3.101904   5.784854   8.536408  -0.000168   0.147029  -0.001142
 442   4   2.110803   5.063728   9.335699   0.000005   0.147029   0.000035
 443   4   1.932541   3.968458  10.289520   0.000096   0.147029   0.000653
 444   4   2.635767   2.920836  11.030553  -0.000061   0.147029  -0.000412
 445   4   3.949666   2.324303  11.273423  -0.000050   0.147029  -0.000342
 446   4   5.368253   2.408586  10.924601   0.000150   0.147029   0.001017
 447   4   6.261283   2.912458  10.326801   0.000073   0.081344   0.000896
 448   4   7.150506   1.037900   8.958970   0.000076   0.088140   0.000866
 449  13   7.086245   0.740673   8.918233  -0.000008   0.088140  -0.000089
 450  16   7.965524   1.194590   8.381383   0.000177   0.088140   0.002003
 451  13   6.646849   0.473409   9.489692  -0.000060   0.068544  -0.000870
 452  13   5.796282   0.246481  10.152370  -0.000188   0.151724  -0.001242
 453  13   4.588783  -0.289984  10.328083  -0.000245   0.151724  -0.001615
 454  13   3.611882  -0.940745   9.696498  -0.000304   0.151724  -0.002006
 455  13   3.260342  -1.442830   8.512837  -0.000159   0.151724  -0.001047
 456  13   3.495032  -1.626167   7.451983  -0.000067   0.068544  -0.000977
 457   4   6.334557   0.813311   9.866735  -0.000007   0.150710  -0.000045
 458   4   5.056229   0.373790  10.511169   0.000027   0.150710   0.000181
 459   4   3.762051  -0.329598  10.241082  -0.000041   0.150710  -0.000274
 460   4   2.974999  -1.012617   9.165615   0.000041   0.150710   0.000272
 461   4   3.013116  -1.399260   7.719361   0.000069   0.150710   0.000455
 462  14   0.862126  -0.282981   7.888156  -0.000090   0.066233  -0.001357
 463  14   0.704285   0.296082   8.776190  -0.000310   0.145892  -0.002126
 464  14   0.486342   1.437913   9.354112  -0.000319   0.145892  -0.002188
 465  14   0.312331   2.706394   9.139760  -0.000216   0.145892  -0.001479
 466  14   0.248919   3.615539   8.215256  -0.000267   0.145892  -0.001830
 467  14   0.320402   3.817031   6.934802  -0.000420   0.145892  -0.002878
 468   4   1.157891  -0.263201   8.394380   0.000035   0.146295   0.000237
 469   4   0.923723   0.752806   9.414614  -0.000082   0.146295  -0.000559
 470   4   0.692135   2.176956   9.629431  -0.000072   0.146295  -0.000493
 471   4   0.551852   3.463621   8.956530   0.000081   0.146295   0.000551
 472   4   0.556620   4.119848   7.653716  -0.000021   0.146295  -0.000143
 473   4   0.656301   4.080146   6.475490  -0.000052   0.080918  -0.000643
 474  16   8.588467   1.435573   8.378433   0.000046   0.058455   0.000789
 475   4   7.321286   1.215237   9.136462   0.000315   0.083145   0.003783
 476   5   9.054364   2.839706   2.063268   0.000071   0.085010   0.000837
 477   8   8.396101   2.555713   1.424144   0.000103   0.085010   0.001208
 478  17   9.088330   3.116814   1.937761  -0.000110   0.085010  -0.001294
 479   8   8.230352   2.097963   1.057574   0.000048   0.079665   0.000603
 480   5   9.139610   2.466089   2.083156   0.000420   0.112757   0.003729
 481   9   4.601183   7.166731   5.605585  -0.000130   0.172330  -0.000752
 482   9   4.897361   7.198231   4.363709  -0.000791   0.350752  -0.002255
 483   9   5.047477   6.723338   3.187735  -0.000159   0.172330  -0.000921
 484   5   5.776850   7.309273   5.428928   0.000814   0.474746   0.001715
 485   5   6.096069   6.992129   3.699522   0.000768   0.474746   0.001617
 486   5   7.658450   4.091630   9.310322   0.000034   0.086839   0.000388
 487  12   6.782305   3.994236   9.737739   0.000113   0.086839   0.001300
 488  15   7.670850   4.395896   9.340702  -0.000046   0.086839  -0.000526
 489  12   6.464434   3.654956  10.165745   0.000021   0.060183   0.000348
 490   5   7.713846   3.831938   9.458246   0.000293   0.085331   0.003437
 491  15   8.380519   4.579348   9.251917  -0.000051   0.066640  -0.000758
 492  15   9.335455   4.873764   8.852780  -0.000147   0.146853  -0.001002
 493  15  10.048096   5.630928   8.067337  -0.000256   0.146853  -0.001744
 494  15   9.984116   6.599275   7.197690  -0.000303   0.146853  -0.002061
 495  15   9.168187   7.405383   6.579202  -0.000173   0.146853  -0.001181
 496  15   7.914957   7.738391   6.450381  -0.000205   0.146853  -0.001393
 497  15   6.707708   7.469882   6.860902  -0.000345   0.146853  -0.002349
 498   5   8.820472   4.262036   9.024094   0.000132   0.147140   0.000900
 499   5   9.959473   4.859680   8.324415   0.000071   0.147140   0.000483
 500   5  10.342863   5.879540   7.346177  -0.000063   0.147140  -0.000427
 501   5   9.822794   6.928328   6.466618   0.000014   0.147140   0.000097
 502   5   8.599822   7.601600   6.024922   0.000088   0.147140   0.000600
 503   5   7.145561   7.639723   6.191420  -0.000124   0.147140  -0.000846
 504   5   6.147657   7.237347   6.694441   0.000012   0.081415   0.000151
 505  16   9.916332   1.107473   4.142376  -0.000068   0.071060  -0.000957
 506  16  10.717986   1.785736   4.585363  -0.000176   0.158502  -0.001107
 507  16  11.215374   2.448855   5.684115  -0.000295   0.158502  -0.001864
 508  16  10.959614   2.666545   7.018871  -0.000301   0.158502  -0.001898
 509  16  10.061597   2.344423   8.010929  -0.000172   0.158502  -0.001084
 510  16   9.115778   1.788864   8.320302  -0.000083   0.071060  -0.001173
 511   5  10.152855   1.636426   3.964834   0.000015   0.155102   0.000098
 512   5  11.064164   2.519122   4.848099  -0.000003   0.155102  -0.000021
 513   5  11.207871   3.042978   6.295414  -0.000091   0.155102  -0.000588
 514   5  10.521669   2.980867   7.679272   0.000005   0.155102   0.000033
 515   5   9.303071   2.359720   8.399682   0.000067   0.155102   0.000435
 516  17   7.202861   6.549069   2.562206  -0.000126   0.071461  -0.001762
 517  17   7.985551   7.108063   3.189450  -0.000317   0.159765  -0.001984
 518  17   9.244237   7.110279   3.769891  -0.000197   0.159765  -0.001234
 519  17  10.371110   6.315272   3.908918  -0.000322   0.159765  -0.002013
 520  17  10.868908   5.073860   3.545181  -0.000350   0.159765  -0.002193
 521  17  10.517962   3.933851   2.839190  -0.000178   0.159765  -0.001113
 522  17   9.731622   3.379432   2.212451  -0.000056   0.071461  -0.000778
 523   5   7.176691   6.843315   3.093123  -0.000168   0.155623  -0.001080
 524   5   8.423200   7.319994   3.894554  -0.000024   0.155623  -0.000157
 525   5   9.843432   6.848009   4.322886   0.000051   0.155623   0.000325
 526   5  10.810672   5.635637   4.189107  -0.000107   0.155623  -0.000690
 527   5  10.898099   4.217869   3.552249  -0.000065   0.155623  -0.000418
 528   5  10.067135   3.220333   2.693344   0.000078   0.155623   0.000502
 529   8   5.948703   0.760846  -0.922415   0.000422   0.291828   0.001446
 530   8   5.081351   1.926911  -1.195851  -0.000221   0.589498  -0.000375
 531   6   4.642373   0.307702  -1.635906   0.010122   0.718372   0.014090
 532   6   3.649937   1.570753  -1.774986   0.004302   0.362618   0.011863
 533  10   0.226701   2.561467  -0.765511  -0.001036   0.358567  -0.002888
 534   6   0.129804   1.562713  -1.301966   0.003348   0.436784   0.007665
 535  18   1.048143  -3.681955   1.581062  -0.000438   0.080291  -0.005449
 536  18   1.024239  -4.013281   0.432601  -0.001501   0.173297  -0.008662
 537  18   1.644491  -4.046381  -0.879465  -0.001819   0.173297  -0.010499
 538  18   2.817420  -3.627583  -1.625236  -0.001937   0.173297  -0.011179
 539  18   4.080853  -2.921906  -1.510852  -0.001734   0.173297  -0.010009
 540  18   4.872515  -2.316448  -0.850546  -0.000502   0.080291  -0.006248
 541   6   0.652977  -3.544572   1.092306  -0.000401   0.172506  -0.002322
 542   6   0.905654  -3.832365  -0.431078  -0.000581   0.172506  -0.003367
 543   6   1.927450  -3.612584  -1.603682  -0.001136   0.172506  -0.006587
 544   6   3.315746  -2.971832  -1.963461  -0.001088   0.172506  -0.006310
 545   6   4.523509  -2.162584  -1.368651  -0.000701   0.172506  -0.004065
 546   7   7.085621  -0.802680   5.685758  -0.000482   0.328271  -0.001469
 547  13   6.851762  -0.620481   6.734932  -0.000382   0.328271  -0.001164
 548  16   7.792638  -0.186825   6.262199  -0.000328   0.328271  -0.000998
 549  13   4.468822  -1.851808   6.676633   0.000015   0.232911   0.000063
 550  13   5.495750  -1.766755   6.885784  -0.000534   0.465644  -0.001147
 551  13   6.424639  -1.289476   7.007977  -0.000187   0.232911  -0.000802
 552   7   5.183980  -2.093086   5.275443  -0.000310   0.465644  -0.000666
 553   7   6.404840  -1.742068   5.482275  -0.000599   0.465644  -0.001287
 554  16   8.600262  -0.300146   5.869457  -0.000228   0.302469  -0.000754
 555  16   9.183765   0.088060   4.747756  -0.000494   0.605158  -0.000816
 556   7   7.845266  -1.040897   4.619417  -0.000886   0.605158  -0.001464
 557   7   8.341739  -0.549350   3.496345   0.000258   0.302469   0.000852
 558  18   5.389978  -2.820884   0.617347  -0.002197   0.231411  -0.009493
 559  18   4.954272  -3.385508   1.435064  -0.005851   0.462763  -0.012643
 560  18   4.049775  -3.496404   2.399136  -0.005936   0.462763  -0.012828
 561   7   6.164321  -2.406008   1.865084  -0.001281   0.462763  -0.002769
 562   7   5.465035  -2.887888   2.884220  -0.001848   0.462763  -0.003992
 563   7   4.658634  -2.782361   3.602469  -0.000590   0.231411  -0.002549
 564  17   9.144328   3.424130   1.589604   0.000201   0.253441   0.000792
 565  17   8.599481   4.391238   1.191077  -0.000820   0.506945  -0.001618
 566  17   7.543964   5.344124   1.384317  -0.000697   0.506945  -0.001374
 567   8   8.053260   2.957149   0.612899  -0.000572   0.506945  -0.001129
 568   8   7.205093   4.091439   0.381717  -0.000904   0.506945  -0.001783
 569   8   6.285112   4.730352   0.751050  -0.000038   0.253441  -0.000148
 570  10   0.303082   4.389544   3.317144  -0.000263   0.249922  -0.001051
 571  10   0.727716   4.933183   2.447612  -0.001370   0.499665  -0.002741
 572  10   1.669475   5.003395   1.476603  -0.001124   0.499665  -0.002249
 573   9   1.374399   5.426672   3.948192  -0.000439   0.499665  -0.000878
 574   9   2.081552   5.876601   2.884144  -0.000600   0.499665  -0.001201
 575   9   2.929862   5.734507   2.182631   0.000035   0.249922   0.000138
 576  13   3.413521  -1.717474   6.828068   0.000178   0.049357   0.003607
 577  11   2.230118  -1.903501   5.384396   0.000181   0.049357   0.003660
 578  14  -0.645014   1.546113   6.395399  -0.000779   0.237449  -0.003279
 579  14  -0.323962   0.524430   6.891826  -0.001954   0.475144  -0.004112
 580  14   0.436798  -0.324249   7.198975  -0.000254   0.237449  -0.001069
 581  11  -0.801980   0.502077   5.421525  -0.001831   0.475144  -0.003853
 582  11  -0.127437  -0.664152   5.922580  -0.002149   0.475144  -0.004523
 583  15   5.965880   6.721135   8.233742  -0.000024   0.255448  -0.000093
 584  15   6.642568   6.287232   9.078094  -0.000792   0.510873  -0.001550
 585  15   7.422757   5.194778   9.538386  -0.000295   0.510873  -0.000577
 586  12   5.007951   5.998916   9.245769  -0.000664   0.510873  -0.001300
 587  12   5.847214   5.222197  10.086224  -0.000731   0.510873  -0.001431
 588  12   6.417075   4.217330  10.243102   0.000092   0.255448   0.000361
 589  16   8.558738   0.896589   8.196731   0.000234   0.279465   0.000839
 590  16   8.454648   0.124471   7.283556  -0.000474   0.558741  -0.000848
 591  13   7.204123  -0.033119   8.532746  -0.000112   0.558741  -0.000201
 592  13   7.039207  -0.728562   7.568353  -0.000109   0.279465  -0.000390
 =====================================================

              3173564  WORDS OF DYNAMIC MEMORY USED
 EXECUTION OF GAMESS TERMINATED NORMALLY Wed Nov 23 11:46:00 2016
 DDI: 263640 bytes (0.3 MB / 0 MWords) used by master data server.

 ----------------------------------------
 CPU timing information for all processes
 ========================================
 0: 869.200 + 0.332 = 869.532
 ----------------------------------------
 ddikick.x: exited gracefully.
