----- GAMESS execution script -----

          ******************************************************
          *         GAMESS VERSION =  5 DEC 2014 (R1)          *
          *             FROM IOWA STATE UNIVERSITY             *
          * M.W.SCHMIDT, K.K.BALDRIDGE, J.A.BOATZ, S.T.ELBERT, *
          *   M.S.GORDON, J.H.JENSEN, S.KOSEKI, N.MATSUNAGA,   *
          *          K.A.NGUYEN, S.J.SU, T.L.WINDUS,           *
          *       TOGETHER WITH M.DUPUIS, J.A.MONTGOMERY       *
          *         J.COMPUT.CHEM.  14, 1347-1363(1993)        *
          **************** 64 BIT LINUX VERSION ****************

 EXECUTION OF GAMESS BEGUN Wed Nov 23 12:26:32 2016

            ECHO OF THE FIRST FEW INPUT CARDS -
 INPUT CARD>! SELECT RESTRICTED HARTREE-FOCK AS DEFAULT                                     
 INPUT CARD>$contrl scftyp=rhf $end                                                         
 INPUT CARD>                                                                                
 INPUT CARD>! THEORY: HF OR DFT                                                             
 INPUT CARD> $contrl mplevl=0 $end                                                          
 INPUT CARD>                                                                                
 INPUT CARD> $system timlim=10000 mwords=20 $end                                            
 INPUT CARD> $SCF DIRSCF=.TRUE. $end                                                        
 INPUT CARD>                                                                                
 INPUT CARD>                                                                                
 INPUT CARD>! BASIS SETS                                                                    
 INPUT CARD>! 6-311G(d,p)                                                                   
 INPUT CARD> $BASIS GBASIS=N311 NGAUSS=6 NDFUNC=1 NPFUNC=1 $END                             
 INPUT CARD>                                                                                
 INPUT CARD>! One of the following                                                          
 INPUT CARD> $guess guess=HUCKEL $end                                                       
 INPUT CARD>                                                                                
 INPUT CARD> $statpt projct=.FALSE. $end                                                    
 INPUT CARD> $STATPT IFREEZ(1)=1,2,3 $END                                                   
 INPUT CARD>                                                                                
 INPUT CARD>! Optimize the geometry with COSMO effects                                      
 INPUT CARD> $statpt opttol=0.0005 nstep=50 $end                                            
 INPUT CARD> $contrl nzvar=1 $end                                                           
 INPUT CARD> $zmat dlc=.t. auto=.t. $end                                                    
 INPUT CARD> $contrl runtyp=OPTIMIZE maxit=200 $end                                         
 INPUT CARD>                                                                                
 INPUT CARD>! Run COSMO on perfect conductor                                                
 INPUT CARD> $COSGMS PRFCND=.TRUE. $end                                                     
 INPUT CARD>                                                                                
 INPUT CARD>! Specifying RSOLV                                                              
 INPUT CARD> $COSGMS COSRAD = 1.4 $end                                                      
 INPUT CARD>                                                                                
 INPUT CARD>! available memory                                                              
 INPUT CARD> $SYSTEM MWORDS=40 $END                                                         
 INPUT CARD>                                                                                
 INPUT CARD> $DATA                                                                          
 INPUT CARD>http://cactus.nci.nih.gov/chemical/structure/octane/file?format=sdf&get3d=True  
 INPUT CARD>C1                                                                              
 INPUT CARD>C      6.0      4.3498900000    0.5289000000    0.3328200000                    
 INPUT CARD>C      6.0      3.1176700000   -0.3771800000    0.2944400000                    
 INPUT CARD>C      6.0      1.8607000000    0.4783600000    0.1237300000                    
 INPUT CARD>C      6.0      0.6284800000   -0.4277200000    0.0853500000                    
 INPUT CARD>C      6.0     -0.6284800000    0.4277200000   -0.0853500000                    
 INPUT CARD>C      6.0     -1.8607000000   -0.4783600000   -0.1237300000                    
 INPUT CARD>C      6.0     -3.1176700000    0.3771800000   -0.2944400000                    
 INPUT CARD>C      6.0     -4.3498900000   -0.5289000000   -0.3328200000                    
 INPUT CARD>H      1.0      4.2655400000    1.2217800000    1.1700600000                    
 INPUT CARD>H      1.0      5.2454400000   -0.0805600000    0.4544400000                    
 INPUT CARD>H      1.0      4.4167700000    1.0910500000   -0.5986800000                    
 INPUT CARD>H      1.0      3.2021100000   -1.0699600000   -0.5428000000                    
   40000000 WORDS OF MEMORY AVAILABLE

     BASIS OPTIONS
     -------------
     GBASIS=N311         IGAUSS=       6      POLAR=POPN311 
     NDFUNC=       1     NFFUNC=       0     DIFFSP=       F
     NPFUNC=       1      DIFFS=       F     BASNAM=        


     RUN TITLE
     ---------
 http://cactus.nci.nih.gov/chemical/structure/octane/file?format=sdf&get3d=True  

 THE POINT GROUP OF THE MOLECULE IS C1      
 THE ORDER OF THE PRINCIPAL AXIS IS     0

 ATOM      ATOMIC                      COORDINATES (BOHR)
           CHARGE         X                   Y                   Z
 C           6.0     8.2201001767        0.9994760749        0.6289386032
 C           6.0     5.8915420201       -0.7127668480        0.5564109198
 C           6.0     3.5162131454        0.9039693235        0.2338157965
 C           6.0     1.1876549888       -0.8082735995        0.1612881131
 C           6.0    -1.1876549888        0.8082735995       -0.1612881131
 C           6.0    -3.5162131454       -0.9039693235       -0.2338157965
 C           6.0    -5.8915420201        0.7127668480       -0.5564109198
 C           6.0    -8.2201001767       -0.9994760749       -0.6289386032
 H           1.0     8.0607017897        2.3088294173        2.2110927892
 H           1.0     9.9124442850       -0.1522363256        0.8587670779
 H           1.0     8.3464850508        2.0617855389       -1.1313411543
 H           1.0     6.0511104825       -2.0219312178       -1.0257432661
 H           1.0     5.7653461187       -1.7748684422        2.3166906774
 H           1.0     3.3568336555        2.2131336933        1.8159888797
 H           1.0     3.6425980194        1.9660898149       -1.5264450638
 H           1.0     1.3470533758       -2.1176269418       -1.4208660729
 H           1.0     1.0612701147       -1.8705830635        1.9215678706
 H           1.0    -1.3470533758        2.1176269418        1.4208660729
 H           1.0    -1.0612701147        1.8705830635       -1.9215678706
 H           1.0    -6.0511104825        2.0219312178        1.0257432661
 H           1.0    -5.7653461187        1.7748684422       -2.3166906774
 H           1.0    -8.0607017897       -2.3088294173       -2.2110927892
 H           1.0    -8.3464850508       -2.0617855389        1.1313411543
 H           1.0    -9.9124442850        0.1522363256       -0.8587670779
 C           6.0    -3.6758571968       -2.5534166519        2.0659051416
 H           1.0    -3.3619548130       -2.3481357178       -1.7209545598
 H           1.0    -3.7917918861       -1.3628514851        3.7659404346
 H           1.0    -1.9832296296       -3.7550367157        2.1757171187
 H           1.0    -5.3696752914       -3.7521076404        1.9427328017

          INTERNUCLEAR DISTANCES (ANGS.)




     $CONTRL OPTIONS
     ---------------
 SCFTYP=RHF          RUNTYP=OPTIMIZE     EXETYP=RUN     
 MPLEVL=       0     CITYP =NONE         CCTYP =NONE         VBTYP =NONE    
 DFTTYP=NONE         TDDFT =NONE    
 MULT  =       1     ICHARG=       0     NZVAR =       1     COORD =UNIQUE  
 PP    =NONE         RELWFN=NONE         LOCAL =NONE         NUMGRD=       F
 ISPHER=      -1     NOSYM =       0     MAXIT =     200     UNITS =ANGS    
 PLTORB=       F     MOLPLT=       F     AIMPAC=       F     FRIEND=        
 NPRINT=       7     IREST =       0     GEOM  =INPUT   
 NORMF =       0     NORMP =       0     ITOL  =      20     ICUT  =       9
 INTTYP=BEST         GRDTYP=BEST         QMTTOL= 1.0E-06

     $SYSTEM OPTIONS
     ---------------
  REPLICATED MEMORY=    40000000 WORDS (ON EVERY NODE).
 DISTRIBUTED MEMDDI=           0 MILLION WORDS IN AGGREGATE,
 MEMDDI DISTRIBUTED OVER   1 PROCESSORS IS           0 WORDS/PROCESSOR.
 TOTAL MEMORY REQUESTED ON EACH PROCESSOR=    40000000 WORDS.
 TIMLIM=       10000.00 MINUTES, OR       6.9 DAYS.
 PARALL= F  BALTYP=  DLB     KDIAG=    0  COREFL= F
 MXSEQ2=     300 MXSEQ3=     150  mem10=         0

     $COSGMS OPTIONS
     ---------------
     EPSI  =   INFTY     NSPA  =      92     COSRAD=    1.40
     DISEX =   10.00     OUTCHG=DBLCAV       COSBUG=       F
     COSWRT=       F     DCOSMO=       F

     SYMMETRY COORDINATES WILL NOT BE USED FOR 
     THE COSMO CALCULATION, EVEN IF SPECIFIED:
         -- SWITCHING TO C1 POINT GROUP --


     DEFINITION OF CAVITY
     ---------------------------
     ATOM         COORDINATES           RADIUS 
     1    8.2201    0.9995    0.6289    2.0000
     2    5.8915   -0.7128    0.5564    2.0000
     3    3.5162    0.9040    0.2338    2.0000
     4    1.1877   -0.8083    0.1613    2.0000
     5   -1.1877    0.8083   -0.1613    2.0000
     6   -3.5162   -0.9040   -0.2338    2.0000
     7   -5.8915    0.7128   -0.5564    2.0000
     8   -8.2201   -0.9995   -0.6289    2.0000
     9    8.0607    2.3088    2.2111    1.3000
    10    9.9124   -0.1522    0.8588    1.3000
    11    8.3465    2.0618   -1.1313    1.3000
    12    6.0511   -2.0219   -1.0257    1.3000
    13    5.7653   -1.7749    2.3167    1.3000
    14    3.3568    2.2131    1.8160    1.3000
    15    3.6426    1.9661   -1.5264    1.3000
    16    1.3471   -2.1176   -1.4209    1.3000
    17    1.0613   -1.8706    1.9216    1.3000
    18   -1.3471    2.1176    1.4209    1.3000
    19   -1.0613    1.8706   -1.9216    1.3000
    20   -6.0511    2.0219    1.0257    1.3000
    21   -5.7653    1.7749   -2.3167    1.3000
    22   -8.0607   -2.3088   -2.2111    1.3000
    23   -8.3465   -2.0618    1.1313    1.3000
    24   -9.9124    0.1522   -0.8588    1.3000
    25   -3.6759   -2.5534    2.0659    2.0000
    26   -3.3620   -2.3481   -1.7210    1.3000
    27   -3.7918   -1.3629    3.7659    1.3000
    28   -1.9832   -3.7550    2.1757    1.3000
    29   -5.3697   -3.7521    1.9427    1.3000

          ----------------
          PROPERTIES INPUT
          ----------------

     MOMENTS            FIELD           POTENTIAL          DENSITY
 IEMOM =       1   IEFLD =       0   IEPOT =       0   IEDEN =       0
 WHERE =COMASS     WHERE =NUCLEI     WHERE =NUCLEI     WHERE =NUCLEI  
 OUTPUT=BOTH       OUTPUT=BOTH       OUTPUT=BOTH       OUTPUT=BOTH    
 IEMINT=       0   IEFINT=       0                     IEDINT=       0
                                                       MORB  =       0
          EXTRAPOLATION IN EFFECT
          SOSCF IN EFFECT
 ORBITAL PRINTING OPTION: NPREO=     1   291     2     1

     -------------------------------
     INTEGRAL TRANSFORMATION OPTIONS
     -------------------------------
     NWORD  =            0
     CUTOFF = 1.0E-09     MPTRAN =       0
     DIRTRF =       T     AOINTS =DUP     

          ----------------------
          INTEGRAL INPUT OPTIONS
          ----------------------
 NOPK  =       1 NORDER=       0 SCHWRZ=       T


 -----------------------------------------------
  STATISTICS ON AUTOMATIC COORDINATE GENERATION 
 -----------------------------------------------
  NUMBER OF USER SPECIFIED BONDS                             0
  NUMBER OF BONDS                                           28
  NUMBER OF ANGLES                                          54
  NUMBER OF TORSIONS                                        72
  NUMBER OF EXTRA COORD.                                     0
  NUMBER OF EXTRA COORD. FOR CONSTRAINTS                     0
  NUMBER OF CONSTRAINED COORD.                               0

  TOTAL NUMBER OF PRIMITIVES                               154
 -----------------------------------------------

   --- ENCODED Z MATRIX ---
 COORD  TYPE   I   J   K   L   M   N
    1      1    1  10
    2      1    1   9
    3      1    1   2
    4      1    1  11
    5      1    2   3
    6      1    2  12
    7      1    2  13
    8      1    3  15
    9      1    3  14
   10      1    3   4
   11      1    4  16
   12      1    4   5
   13      1    4  17
   14      1    5   6
   15      1    5  19
   16      1    5  18
   17      1    6   7
   18      1    6  26
   19      1    6  25
   20      1    7   8
   21      1    7  21
   22      1    7  20
   23      1    8  24
   24      1    8  23
   25      1    8  22
   26      1   25  29
   27      1   25  28
   28      1   25  27
   29      2    1   2   3
   30      2    1   2  12
   31      2    1   2  13
   32      2    2   1  10
   33      2    2   1   9
   34      2    2   3   4
   35      2    2   1  11
   36      2    2   3  15
   37      2    2   3  14
   38      2    3   2  12
   39      2    3   4   5
   40      2    3   2  13
   41      2    3   4  17
   42      2    3   4  16
   43      2    4   5  19
   44      2    4   5  18
   45      2    4   5   6
   46      2    4   3  14
   47      2    4   3  15
   48      2    5   6   7
   49      2    5   4  16
   50      2    5   4  17
   51      2    5   6  26
   52      2    5   6  25
   53      2    6   5  18
   54      2    6   5  19
   55      2    6  25  28
   56      2    6  25  27
   57      2    6  25  29
   58      2    6   7  20
   59      2    6   7  21
   60      2    6   7   8
   61      2    7   8  23
   62      2    7   8  22
   63      2    7   8  24
   64      2    7   6  25
   65      2    7   6  26
   66      2    8   7  20
   67      2    8   7  21
   68      2    9   1  10
   69      2    9   1  11
   70      2   10   1  11
   71      2   12   2  13
   72      2   14   3  15
   73      2   16   4  17
   74      2   18   5  19
   75      2   20   7  21
   76      2   22   8  23
   77      2   22   8  24
   78      2   23   8  24
   79      2   25   6  26
   80      2   27  25  28
   81      2   27  25  29
   82      2   28  25  29
   83      3    1   2   3   4
   84      3    1   2   3  14
   85      3    1   2   3  15
   86      3    2   3   4  17
   87      3    2   3   4   5
   88      3    2   3   4  16
   89      3    3   2   1  10
   90      3    3   2   1  11
   91      3    3   2   1   9
   92      3    3   4   5  18
   93      3    3   4   5  19
   94      3    3   4   5   6
   95      3    4   5   6  25
   96      3    4   5   6  26
   97      3    4   5   6   7
   98      3    4   3   2  13
   99      3    4   3   2  12
  100      3    5   6  25  27
  101      3    5   6  25  28
  102      3    5   6  25  29
  103      3    5   4   3  14
  104      3    5   4   3  15
  105      3    5   6   7  20
  106      3    5   6   7  21
  107      3    5   6   7   8
  108      3    6   5   4  17
  109      3    6   5   4  16
  110      3    6   7   8  22
  111      3    6   7   8  23
  112      3    6   7   8  24
  113      3    7   6  25  29
  114      3    7   6  25  27
  115      3    7   6  25  28
  116      3    7   6   5  18
  117      3    7   6   5  19
  118      3    8   7   6  25
  119      3    8   7   6  26
  120      3    9   1   2  13
  121      3    9   1   2  12
  122      3   10   1   2  12
  123      3   10   1   2  13
  124      3   11   1   2  13
  125      3   11   1   2  12
  126      3   12   2   3  15
  127      3   12   2   3  14
  128      3   13   2   3  15
  129      3   13   2   3  14
  130      3   14   3   4  16
  131      3   14   3   4  17
  132      3   15   3   4  16
  133      3   15   3   4  17
  134      3   16   4   5  18
  135      3   16   4   5  19
  136      3   17   4   5  18
  137      3   17   4   5  19
  138      3   18   5   6  25
  139      3   18   5   6  26
  140      3   19   5   6  25
  141      3   19   5   6  26
  142      3   20   7   8  24
  143      3   20   7   8  22
  144      3   20   7   8  23
  145      3   20   7   6  25
  146      3   20   7   6  26
  147      3   21   7   8  24
  148      3   21   7   8  22
  149      3   21   7   8  23
  150      3   21   7   6  25
  151      3   21   7   6  26
  152      3   26   6  25  29
  153      3   26   6  25  27
  154      3   26   6  25  28

          INDEP./SYM. INTERNAL COORDINATES
          --------------------------------
 CRD  1=  -0.1865 ( 29)  0.3468 ( 34) -0.4341 ( 39)  0.1321 ( 41)  0.1168 ( 42)
          -0.1447 ( 43) -0.1407 ( 44)  0.4783 ( 45) -0.1083 ( 47) -0.2172 ( 48)
           0.1297 ( 49)  0.1299 ( 50)  0.1413 ( 52) -0.1282 ( 53) -0.1459 ( 54)
           0.1733 ( 60)
 CRD  2=  -0.1412 ( 10) -0.1725 ( 14) -0.2219 ( 29)  0.1250 ( 30) -0.1800 ( 39)
           0.1675 ( 42)  0.1146 ( 43) -0.1688 ( 45) -0.1095 ( 46)  0.1032 ( 49)
          -0.2457 ( 52)  0.1612 ( 54)  0.1871 ( 83) -0.2115 ( 87)  0.1317 ( 92)
           0.1540 ( 93)  0.3183 ( 94) -0.1750 ( 95) -0.1009 ( 96) -0.2023 ( 97)
           0.1230 ( 99) -0.1103 (103)  0.1489 (105)  0.1486 (106)  0.2163 (107)
           0.1440 (108)  0.1602 (109)
 CRD  3=   0.1061 (  5)  0.1690 ( 10)  0.1771 ( 14)  0.1487 ( 17)  0.3328 ( 29)
          -0.1240 ( 31) -0.1807 ( 34)  0.2242 ( 39) -0.1168 ( 40) -0.1202 ( 41)
          -0.1172 ( 44)  0.2287 ( 45) -0.1361 ( 48) -0.1095 ( 50) -0.1163 ( 53)
          -0.1217 ( 58) -0.1126 ( 59)  0.4037 ( 60) -0.1552 ( 66) -0.1491 ( 87)
           0.1515 ( 94) -0.1294 ( 95) -0.1232 ( 97)
 CRD  4=  -0.1225 (  3) -0.1806 (  5) -0.2326 ( 10) -0.2736 ( 12) -0.2363 ( 14)
          -0.2889 ( 34)  0.1025 ( 37) -0.1036 ( 39) -0.1864 ( 45)  0.1122 ( 46)
          -0.2804 ( 48) -0.1216 ( 59)  0.2917 ( 60)  0.3389 ( 64) -0.1073 ( 94)
           0.1199 ( 97)  0.1110 (113)  0.1128 (116) -0.1215 (140)
 CRD  5=   0.1011 (  5)  0.1666 ( 12)  0.2151 ( 17)  0.1460 ( 20) -0.1174 ( 29)
           0.2511 ( 34) -0.1627 ( 36)  0.1059 ( 40)  0.1423 ( 44) -0.1053 ( 45)
          -0.1084 ( 46)  0.1437 ( 48) -0.1399 ( 49) -0.3092 ( 52)  0.1079 ( 57)
          -0.1091 ( 59)  0.3139 ( 60)  0.1850 ( 64) -0.1447 ( 65) -0.1385 ( 67)
           0.1840 ( 87)  0.1415 ( 96)  0.2115 ( 97)  0.1056 (103)  0.1243 (104)
           0.1186 (116)  0.1074 (117) -0.1606 (118) -0.1163 (150)
 CRD  6=   0.1146 ( 12)  0.1462 ( 17) -0.1926 ( 29)  0.1156 ( 31)  0.2373 ( 34)
          -0.1828 ( 37)  0.1468 ( 38)  0.1187 ( 39)  0.1008 ( 41) -0.1486 ( 42)
           0.2104 ( 43) -0.1085 ( 44) -0.1628 ( 45) -0.1831 ( 47) -0.1775 ( 50)
           0.1814 ( 53)  0.1405 ( 60) -0.1681 ( 83) -0.1651 ( 87) -0.1289 ( 92)
          -0.1118 ( 93) -0.1850 ( 94) -0.2290 ( 95) -0.1396 ( 96) -0.1858 ( 97)
          -0.1424 ( 98) -0.1014 ( 99) -0.1277 (103) -0.1161 (104) -0.1275 (109)
          -0.1076 (138) -0.1222 (140)
 CRD  7=  -0.2021 (  3) -0.1356 (  5)  0.1875 ( 14) -0.4966 ( 29)  0.1847 ( 30)
           0.1209 ( 31) -0.1652 ( 33) -0.1303 ( 34)  0.1353 ( 38)  0.2982 ( 39)
           0.1576 ( 40) -0.1463 ( 41)  0.1373 ( 47)  0.2363 ( 52)  0.1216 ( 55)
           0.1720 ( 60) -0.1770 ( 64) -0.1019 ( 71)  0.1073 ( 95)  0.1174 (118)
 CRD  8=  -0.1398 (  3) -0.2073 (  5) -0.1755 ( 10)  0.1073 ( 14)  0.1618 ( 17)
          -0.2313 ( 19)  0.2198 ( 20) -0.3060 ( 34)  0.1040 ( 37) -0.2507 ( 39)
          -0.1213 ( 44)  0.1802 ( 45)  0.1308 ( 46)  0.3002 ( 48)  0.1223 ( 49)
           0.1394 ( 50) -0.1547 ( 52) -0.1415 ( 56)  0.1440 ( 60) -0.1941 ( 64)
           0.1372 ( 79) -0.1105 ( 83) -0.1025 ( 97) -0.1145 (117)
 CRD  9=  -0.2304 ( 19)  0.1192 ( 33) -0.1270 ( 35) -0.1049 ( 49)  0.1238 ( 51)
          -0.1123 ( 57) -0.2338 ( 61)  0.2143 ( 62) -0.1767 ( 66)  0.1984 ( 67)
          -0.1068 ( 79) -0.2118 ( 83) -0.1030 ( 85)  0.1139 ( 86)  0.2089 ( 87)
           0.1123 ( 88)  0.1280 ( 89) -0.1074 ( 98) -0.1009 ( 99)  0.1548 (105)
           0.1501 (106)  0.3337 (107)  0.2849 (118)  0.2074 (119)  0.1060 (145)
           0.1013 (150)
 CRD 10=  -0.1228 (  3)  0.1589 ( 12)  0.1017 ( 14)  0.2190 ( 17)  0.1276 ( 19)
          -0.1710 ( 29) -0.1858 ( 34)  0.1300 ( 39) -0.1178 ( 44)  0.3241 ( 45)
           0.1116 ( 46)  0.1145 ( 51) -0.1859 ( 52) -0.1063 ( 53) -0.1120 ( 54)
          -0.1522 ( 55)  0.1062 ( 56)  0.1493 ( 57)  0.1950 ( 58) -0.3189 ( 60)
          -0.1071 ( 62)  0.1529 ( 63)  0.2710 ( 64) -0.1407 ( 65) -0.1337 ( 95)
          -0.1096 (114)  0.1289 (117) -0.1229 (138)
 CRD 11=   0.2323 ( 14)  0.2621 ( 17)  0.1832 ( 19)  0.1817 ( 20)  0.1243 ( 35)
          -0.2153 ( 39) -0.1660 ( 45)  0.1612 ( 53)  0.3262 ( 56) -0.1726 ( 57)
           0.1672 ( 58) -0.1201 ( 59)  0.1327 ( 62) -0.1478 ( 66)  0.1008 ( 67)
          -0.1054 ( 80)  0.1066 ( 83)  0.1014 ( 97)  0.1157 (100)  0.1414 (102)
           0.1276 (110)  0.1246 (111) -0.1236 (115)  0.1118 (116)  0.2104 (118)
          -0.1165 (140)  0.1407 (145)  0.1516 (150)
 CRD 12=   0.1039 ( 12) -0.1295 ( 14) -0.4377 ( 19)  0.1545 ( 30) -0.1547 ( 31)
          -0.2679 ( 33)  0.2437 ( 35)  0.1001 ( 37)  0.1091 ( 40) -0.1960 ( 54)
          -0.2683 ( 55) -0.1518 ( 57)  0.1127 ( 61)  0.1208 ( 80)  0.1714 ( 82)
           0.2024 ( 83)  0.1513 ( 84)  0.1536 ( 85) -0.1330 ( 94) -0.1005 ( 95)
          -0.1450 (108) -0.1307 (109)
 CRD 13=  -0.2337 ( 17) -0.2604 ( 19)  0.1729 ( 36) -0.1680 ( 37)  0.1969 ( 38)
          -0.1868 ( 40)  0.1033 ( 44) -0.1103 ( 53)  0.1360 ( 58) -0.2268 ( 59)
          -0.1004 ( 63)  0.1086 ( 67) -0.1899 ( 86) -0.1959 ( 87) -0.1748 ( 88)
          -0.1859 ( 89) -0.1836 ( 90) -0.1859 ( 91)  0.1665 ( 95)  0.1122 ( 96)
           0.2005 ( 97)  0.1630 (110)  0.1789 (111)  0.1708 (112)  0.1076 (116)
           0.1331 (117)
 CRD 14=  -0.1088 (  3) -0.1089 ( 10)  0.2111 ( 12) -0.1612 ( 14)  0.2449 ( 17)
          -0.3544 ( 20) -0.2366 ( 33)  0.1781 ( 35) -0.1141 ( 42)  0.1556 ( 55)
          -0.1569 ( 56)  0.1061 ( 59) -0.3577 ( 61)  0.1253 ( 62) -0.1422 ( 66)
           0.1002 ( 68)  0.1250 ( 76)  0.1768 ( 78) -0.1105 ( 92) -0.1301 ( 94)
           0.1004 (101) -0.1106 (112)  0.1061 (119)
 CRD 15=  -0.4574 (  3)  0.1331 (  5) -0.1085 ( 10)  0.1962 ( 12) -0.1203 ( 20)
          -0.1826 ( 30) -0.3051 ( 32)  0.1362 ( 33) -0.2533 ( 35)  0.1897 ( 56)
          -0.2012 ( 57)  0.1483 ( 61) -0.1879 ( 62)  0.2309 ( 70)  0.1009 ( 77)
           0.1038 ( 94)
 CRD 16=   0.3537 (  3)  0.1634 (  5) -0.1781 ( 10)  0.1261 ( 12) -0.2313 ( 14)
           0.2237 ( 17)  0.1172 ( 31)  0.4088 ( 32) -0.1296 ( 34) -0.1667 ( 35)
           0.1594 ( 55) -0.3060 ( 57) -0.1870 ( 62) -0.2070 ( 68) -0.1207 ( 70)
 CRD 17=  -0.1723 (  3)  0.1281 (  5) -0.2197 ( 14)  0.4517 ( 20) -0.1207 ( 33)
          -0.1223 ( 48)  0.2633 ( 55) -0.1549 ( 56) -0.1146 ( 57)  0.4629 ( 63)
           0.1254 ( 66)  0.1195 ( 67) -0.2227 ( 77) -0.1723 ( 78)  0.1061 ( 81)
          -0.1040 (150)
 CRD 18=   0.1033 (  1)  0.4407 (  5) -0.2448 ( 10)  0.1047 ( 14) -0.2268 ( 17)
           0.1179 ( 20)  0.2886 ( 32) -0.1993 ( 33) -0.1729 ( 35)  0.1300 ( 36)
           0.1292 ( 37) -0.2492 ( 55)  0.1460 ( 56)  0.1971 ( 57)  0.2324 ( 62)
           0.1595 ( 69) -0.1461 ( 81)
 CRD 19=   0.1077 (  3) -0.2286 (  5)  0.2079 ( 12) -0.2424 ( 14) -0.1028 ( 17)
           0.1189 ( 20)  0.1429 ( 28) -0.1438 ( 32)  0.1424 ( 33)  0.1057 ( 35)
           0.1045 ( 44) -0.1126 ( 53) -0.2158 ( 55)  0.4297 ( 56) -0.1525 ( 57)
          -0.1796 ( 58)  0.1137 ( 59) -0.1507 ( 61)  0.2758 ( 62)  0.1217 ( 66)
          -0.1105 ( 69) -0.1168 ( 77) -0.1176 ( 81)  0.1537 ( 82) -0.1285 (110)
          -0.1256 (111) -0.1482 (112)
 CRD 20=  -0.1337 (  3)  0.1054 (  5)  0.2810 ( 10) -0.2753 ( 12) -0.1261 ( 26)
           0.1373 ( 32) -0.2532 ( 33)  0.1013 ( 41) -0.1254 ( 52)  0.2279 ( 55)
           0.1892 ( 56) -0.3839 ( 57)  0.1299 ( 59)  0.1371 ( 62) -0.2469 ( 63)
          -0.1104 ( 65) -0.1046 ( 67)  0.1198 ( 69) -0.1777 ( 80) -0.1014 (113)
          -0.1178 (115)
 CRD 21=   0.1014 (  9)  0.1775 ( 10) -0.1564 ( 12)  0.1038 ( 23) -0.1238 ( 30)
           0.1029 ( 32) -0.2309 ( 33)  0.1429 ( 38) -0.1465 ( 40)  0.1226 ( 42)
          -0.1330 ( 43) -0.1481 ( 49)  0.1175 ( 54) -0.2834 ( 55)  0.1428 ( 56)
          -0.1251 ( 58) -0.3322 ( 62)  0.3100 ( 63)  0.1039 ( 65)  0.1768 ( 76)
           0.1003 ( 82) -0.1207 ( 89) -0.1084 ( 90) -0.1219 ( 91)  0.1093 ( 96)
           0.1046 (103)  0.1036 (104) -0.1141 (117)
 CRD 22=   0.1004 (  3)  0.1263 (  4) -0.1458 (  8) -0.2999 ( 10)  0.1031 ( 12)
           0.1077 ( 14)  0.1086 ( 15) -0.1431 ( 32) -0.1804 ( 33)  0.4267 ( 35)
          -0.1330 ( 42) -0.2015 ( 47) -0.1143 ( 53)  0.1183 ( 54)  0.2922 ( 61)
          -0.1758 ( 62)  0.1308 ( 68) -0.1075 ( 69) -0.1266 ( 70)  0.1096 ( 77)
          -0.1423 ( 83) -0.1375 ( 98) -0.1589 ( 99)  0.1601 (109)
 CRD 23=   0.1796 ( 10)  0.1337 ( 11) -0.1103 ( 14)  0.1846 ( 30) -0.1952 ( 31)
           0.1006 ( 32) -0.2537 ( 38)  0.2019 ( 40)  0.2516 ( 41) -0.1727 ( 42)
           0.1288 ( 44)  0.1523 ( 46)  0.2129 ( 49) -0.1907 ( 50) -0.1686 ( 53)
           0.1347 ( 54) -0.1004 ( 55)  0.1200 ( 56) -0.1287 ( 62)  0.1161 ( 63)
           0.1209 ( 84) -0.1003 ( 87)  0.1547 ( 89)  0.1761 ( 90)  0.1634 ( 91)
          -0.1461 ( 92) -0.1120 ( 93) -0.1118 ( 98) -0.1082 ( 99) -0.1172 (103)
          -0.1479 (104)  0.1510 (108)  0.1089 (109)
 CRD 24=   0.1845 (  5) -0.2289 ( 10) -0.1017 ( 11) -0.2760 ( 12) -0.1420 ( 13)
           0.1399 ( 14) -0.1008 ( 19) -0.1515 ( 20) -0.1220 ( 21) -0.1866 ( 32)
           0.2316 ( 33)  0.1177 ( 39)  0.1501 ( 40) -0.1079 ( 43) -0.1042 ( 50)
          -0.1663 ( 57)  0.1155 ( 60) -0.2938 ( 61)  0.2084 ( 63) -0.1133 ( 67)
          -0.1241 ( 69)  0.1700 ( 76)
 CRD 25=  -0.1685 ( 30)  0.1759 ( 31) -0.2794 ( 36)  0.3033 ( 37)  0.1645 ( 38)
          -0.1169 ( 40)  0.2187 ( 41) -0.2286 ( 42) -0.2758 ( 46)  0.2631 ( 47)
           0.2197 ( 49) -0.2622 ( 50) -0.1033 ( 53) -0.1250 ( 84) -0.1184 ( 85)
           0.2061 ( 86)  0.1861 ( 88) -0.1334 ( 92) -0.1304 ( 93)  0.1532 ( 98)
           0.1561 ( 99) -0.1618 (103) -0.1460 (104)
 CRD 26=   0.2353 (  5) -0.2882 ( 12) -0.2351 ( 14) -0.1251 ( 15) -0.1486 ( 16)
           0.2702 ( 17)  0.1121 ( 20)  0.1235 ( 21)  0.1268 ( 22) -0.1327 ( 29)
          -0.1653 ( 32)  0.1491 ( 33)  0.1139 ( 36)  0.1243 ( 40) -0.1342 ( 43)
          -0.1103 ( 49) -0.1280 ( 51) -0.1615 ( 55)  0.1604 ( 57)  0.1026 ( 58)
          -0.1078 ( 60)  0.1889 ( 61)  0.1025 ( 62) -0.1622 ( 63)  0.1364 ( 65)
          -0.1066 ( 69) -0.1319 ( 76)  0.1049 (101)  0.1077 (102)  0.1038 (113)
           0.1011 (115)
 CRD 27=  -0.2760 (  5) -0.1969 (  7) -0.2408 (  9) -0.2634 ( 10) -0.1551 ( 11)
          -0.1455 ( 12) -0.1332 ( 15)  0.1513 ( 17)  0.1154 ( 21)  0.1875 ( 29)
           0.1686 ( 32)  0.2128 ( 34) -0.2335 ( 35) -0.1187 ( 37) -0.1146 ( 38)
           0.1653 ( 39) -0.1052 ( 40) -0.1280 ( 42) -0.1412 ( 43)  0.1552 ( 59)
           0.1071 ( 61)  0.1123 ( 69)  0.1058 ( 71)  0.1292 ( 72)  0.1009 ( 85)
           0.1225 ( 96)
 CRD 28=  -0.1015 (  2) -0.1509 (  5) -0.1770 (  6) -0.2013 (  8) -0.1748 ( 10)
          -0.1863 ( 12) -0.1842 ( 13) -0.1597 ( 14) -0.2452 ( 16) -0.1474 ( 21)
           0.1008 ( 22)  0.1077 ( 29) -0.2065 ( 33)  0.1439 ( 34)  0.1574 ( 39)
          -0.1105 ( 41) -0.1204 ( 44)  0.1221 ( 45) -0.1354 ( 51)  0.1482 ( 58)
          -0.1737 ( 59) -0.1346 ( 61) -0.1296 ( 66)  0.1054 ( 79) -0.1283 ( 83)
          -0.1122 ( 84)  0.1014 ( 93) -0.1038 ( 96) -0.1312 (105) -0.1175 (106)
           0.1260 (110)  0.1270 (111)  0.1229 (112) -0.1001 (145)
 CRD 29=   0.1168 ( 11)  0.1409 ( 14)  0.1209 ( 15)  0.1598 ( 17) -0.2016 ( 19)
          -0.1870 ( 21)  0.2899 ( 22) -0.1236 ( 24)  0.1385 ( 25) -0.1256 ( 43)
           0.1950 ( 44) -0.1021 ( 45) -0.1173 ( 48)  0.1170 ( 52) -0.1365 ( 53)
           0.2275 ( 54) -0.1500 ( 56) -0.1648 ( 61)  0.2219 ( 62)  0.1019 ( 65)
           0.1225 ( 66) -0.1154 ( 67) -0.1064 ( 77)  0.1244 ( 78) -0.1765 ( 79)
           0.1169 ( 80)  0.1199 ( 81)  0.1140 ( 94) -0.1890 (107)  0.1255 (108)
           0.1157 (109) -0.2295 (119) -0.1234 (138) -0.1077 (140) -0.1035 (146)
 CRD 30=  -0.2643 (  6)  0.2636 (  7)  0.2441 ( 11) -0.2598 ( 13) -0.2029 ( 15)
           0.1659 ( 16) -0.1077 ( 18)  0.1269 ( 21)  0.1328 ( 53) -0.1022 ( 54)
          -0.1064 ( 58)  0.1237 ( 59)  0.1126 ( 66) -0.1442 ( 84) -0.1435 ( 85)
          -0.1232 ( 87)  0.1349 ( 89)  0.1114 ( 90)  0.1114 ( 91)  0.1431 ( 92)
           0.1294 ( 93)  0.1048 ( 96)  0.1206 ( 97) -0.1437 (103) -0.1436 (104)
           0.1514 (116)  0.1254 (117)  0.1356 (139)  0.1096 (141)  0.1031 (145)
 CRD 31=   0.1068 ( 14)  0.2153 ( 16)  0.1060 ( 17)  0.7695 ( 18)  0.1729 ( 22)
           0.2065 ( 28)  0.1181 ( 82) -0.1116 (102)  0.1057 (140) -0.1200 (145)
          -0.1336 (150)
 CRD 32=   0.2750 (  6) -0.2751 (  7) -0.2961 (  8)  0.2956 (  9)  0.1287 ( 18)
           0.1669 ( 22)  0.1044 ( 26)  0.1346 ( 28)  0.1479 ( 43) -0.1675 ( 44)
           0.1194 ( 53)  0.1219 ( 66)  0.1000 ( 85)  0.1207 ( 86)  0.1201 ( 88)
          -0.1010 ( 89) -0.1011 ( 98) -0.1011 ( 99)  0.1005 (114)  0.1355 (116)
           0.1183 (117)  0.1480 (138)  0.1349 (139)  0.1308 (140)  0.1177 (141)
 CRD 33=   0.1198 ( 18) -0.1693 ( 19) -0.1454 ( 21)  0.1883 ( 22) -0.4504 ( 26)
          -0.4667 ( 27) -0.4703 ( 28)  0.1642 ( 55)  0.1713 ( 56)  0.1580 ( 57)
          -0.1664 ( 80) -0.1654 ( 81) -0.1618 ( 82)
 CRD 34=   0.1807 ( 20)  0.4878 ( 23)  0.5118 ( 24)  0.5079 ( 25) -0.1701 ( 61)
          -0.1711 ( 62) -0.1875 ( 63)  0.1677 ( 76)  0.1811 ( 77)  0.1800 ( 78)
 CRD 35=  -0.4902 (  1) -0.5103 (  2) -0.1817 (  3) -0.5102 (  4)  0.1867 ( 32)
           0.1711 ( 33)  0.1711 ( 35) -0.1803 ( 68) -0.1684 ( 69) -0.1803 ( 70)
 CRD 36=   0.1724 (  6) -0.1715 (  7) -0.2692 (  8)  0.2730 (  9)  0.3244 ( 11)
          -0.3085 ( 13) -0.1964 ( 15)  0.2897 ( 16)  0.1383 ( 21) -0.1831 ( 22)
          -0.1087 ( 26)  0.1177 ( 44) -0.1351 ( 66) -0.1171 (105) -0.1065 (145)
          -0.1210 (146)
 CRD 37=  -0.1473 ( 15) -0.1567 ( 17)  0.1062 ( 19) -0.1997 ( 21)  0.1718 ( 22)
           0.1549 ( 27) -0.1123 ( 36)  0.1045 ( 37) -0.1358 ( 41)  0.1049 ( 42)
          -0.1488 ( 43) -0.1026 ( 49)  0.1270 ( 50)  0.1191 (100)  0.1465 (101)
           0.1440 (102)  0.1083 (105) -0.1132 (108)  0.1255 (113)  0.1006 (114)
           0.1280 (115) -0.1159 (117) -0.1169 (126) -0.1122 (127) -0.1178 (128)
          -0.1132 (129) -0.1331 (130) -0.1512 (131) -0.1371 (132) -0.1551 (133)
          -0.1143 (134) -0.1589 (135) -0.1301 (136) -0.1748 (137) -0.1147 (139)
          -0.1273 (140) -0.1487 (141)  0.1037 (146)  0.1461 (152)  0.1212 (153)
           0.1486 (154)
 CRD 38=  -0.1999 ( 14) -0.1940 ( 15)  0.1311 ( 16)  0.1072 ( 19) -0.2944 ( 21)
           0.1149 ( 23)  0.1993 ( 26)  0.1126 ( 57)  0.1025 ( 59) -0.1132 ( 64)
          -0.1991 ( 67) -0.1278 (100) -0.1591 (101) -0.1746 (102)  0.1362 (105)
           0.1733 (106)  0.1054 (110) -0.1948 (113) -0.1480 (114) -0.1793 (115)
           0.1634 (145)  0.1743 (146)  0.1282 (147)  0.1458 (148)  0.1332 (149)
           0.2005 (150)  0.2114 (151) -0.1964 (152) -0.1497 (153) -0.1810 (154)
 CRD 39=  -0.1657 ( 15) -0.1078 ( 21)  0.5420 ( 27) -0.4067 ( 28) -0.2409 ( 81)
           0.2170 ( 82)  0.1347 (100)  0.1134 (101) -0.1262 (102) -0.1232 (113)
           0.1377 (114)  0.1164 (115)  0.1111 (126)  0.1142 (127)  0.1113 (128)
           0.1144 (129) -0.1172 (152)  0.1437 (153)  0.1224 (154)
 CRD 40=  -0.1135 ( 15)  0.6214 ( 26) -0.3226 ( 27) -0.2623 ( 28) -0.3337 ( 80)
           0.1830 ( 81)  0.1413 ( 82) -0.1773 (100)  0.1714 (101) -0.1752 (114)
           0.1736 (115) -0.1875 (153)  0.1613 (154)
 CRD 41=  -0.6031 (  1)  0.2689 (  2)  0.2685 (  4)  0.2584 (  6)  0.2586 (  7)
          -0.1501 ( 68)  0.3181 ( 69) -0.1504 ( 70) -0.1598 ( 90)  0.1601 ( 91)
           0.1898 (120)  0.1305 (121) -0.1301 (124) -0.1894 (125)
 CRD 42=   0.2054 ( 21)  0.1777 ( 22) -0.5923 ( 23)  0.2800 ( 24)  0.2785 ( 25)
           0.3193 ( 76) -0.1564 ( 77) -0.1537 ( 78) -0.1535 (110)  0.1716 (111)
          -0.1344 (143)  0.1907 (144) -0.1644 (148)  0.1607 (149)
 CRD 43=  -0.3043 (  2)  0.3087 (  4)  0.1970 ( 15)  0.1126 ( 23)  0.2601 ( 24)
          -0.3771 ( 25) -0.2542 ( 28) -0.1647 ( 68)  0.1626 ( 70) -0.1469 ( 77)
           0.2028 ( 78)  0.1500 ( 82) -0.1520 ( 89)  0.1224 (112) -0.1662 (122)
          -0.1660 (123)  0.1265 (142)  0.1197 (147)
 CRD 44=   0.3922 (  2) -0.3926 (  4)  0.3916 ( 24) -0.3745 ( 25)  0.2133 ( 68)
          -0.2130 ( 70) -0.2123 ( 77)  0.2034 ( 78)  0.1609 ( 89)  0.1599 (112)
           0.1553 (122)  0.1553 (123)  0.1547 (142)  0.1562 (147)
 CRD 45=   0.2330 (  2) -0.2229 (  4) -0.1459 ( 11)  0.3311 ( 15)  0.1905 ( 21)
           0.1379 ( 23) -0.3004 ( 24)  0.1502 ( 25) -0.2715 ( 28)  0.1259 ( 68)
          -0.1307 ( 70)  0.1530 ( 77)  0.1652 ( 82) -0.1163 (102) -0.1051 (112)
          -0.1073 (113) -0.1118 (120) -0.1114 (121) -0.1168 (124) -0.1164 (125)
          -0.1134 (126) -0.1212 (127) -0.1107 (128) -0.1185 (129)  0.1073 (138)
           0.1006 (139) -0.1024 (147) -0.1135 (152)
 CRD 46=   0.1383 (  1) -0.1039 (  4)  0.2177 (  6)  0.2061 (  7) -0.4137 (  8)
          -0.4317 (  9)  0.3631 ( 11)  0.4035 ( 13) -0.1255 ( 16) -0.1385 ( 72)
           0.1258 ( 73) -0.1203 (128) -0.1420 (130)  0.1098 (133)
 CRD 47=  -0.1641 (  1)  0.1316 (  2)  0.1207 (  4) -0.3761 (  6) -0.3860 (  7)
           0.1671 (  8)  0.1492 (  9)  0.3518 ( 11)  0.3903 ( 13) -0.1686 ( 15)
          -0.2190 ( 16) -0.1389 ( 71)  0.1419 ( 73) -0.1298 (124) -0.1204 (127)
           0.1027 (134)
 CRD 48=   0.1105 (  1) -0.1053 (  5)  0.3438 (  6)  0.3382 (  7)  0.3694 (  8)
           0.3578 (  9) -0.2456 ( 15) -0.2594 ( 16)  0.1801 ( 21)  0.1373 ( 22)
           0.1483 ( 71)  0.1613 ( 72) -0.1025 ( 74) -0.1126 (121) -0.1235 (129)
 CRD 49=   0.1623 (  8)  0.1272 (  9)  0.1173 ( 11)  0.1709 ( 13)  0.1501 ( 15)
          -0.4703 ( 21) -0.5324 ( 22) -0.1437 ( 23)  0.1137 ( 24)  0.1334 ( 25)
          -0.2117 ( 75) -0.1169 (106) -0.1104 (142) -0.1502 (143)  0.1134 (149)
          -0.1233 (150) -0.1202 (151)
 CRD 50=   0.1128 (  8)  0.1702 (  9)  0.3092 ( 11)  0.2058 ( 13)  0.3604 ( 15)
           0.4922 ( 16)  0.1939 ( 22) -0.1186 ( 43)  0.1308 ( 73)  0.1999 ( 74)
          -0.1388 (117)  0.1036 (126)  0.1050 (131) -0.1358 (136) -0.1437 (140)
          -0.1498 (141)
 CRD 51=  -0.1571 (  8)  0.1567 (  9)  0.2597 ( 15) -0.2759 ( 16)  0.1319 ( 21)
          -0.1489 ( 22)  0.1086 ( 90)  0.1084 ( 91) -0.1395 ( 92) -0.1407 ( 93)
          -0.1098 (103) -0.1075 (104)  0.1610 (120)  0.1606 (121)  0.1433 (122)
           0.1437 (123)  0.1611 (124)  0.1607 (125)  0.1253 (126)  0.1239 (127)
           0.1261 (128)  0.1247 (129) -0.1279 (130) -0.1244 (131) -0.1256 (132)
          -0.1221 (133) -0.2038 (134) -0.2050 (135) -0.1976 (136) -0.1987 (137)
           0.1017 (140)
 CRD 52=  -0.2710 (  8)  0.2710 (  9) -0.3013 ( 11)  0.3014 ( 13) -0.1555 ( 15)
           0.1588 ( 16) -0.1098 ( 18) -0.1598 ( 21)  0.1583 ( 22) -0.1272 ( 86)
          -0.1293 ( 88) -0.1212 (103) -0.1203 (104) -0.2042 (130) -0.2021 (131)
          -0.2033 (132) -0.2012 (133)  0.1025 (135)  0.1005 (136)  0.1052 (137)
          -0.1510 (142) -0.1563 (143) -0.1548 (144) -0.1433 (147) -0.1486 (148)
          -0.1471 (149)
 CRD 53=   0.2487 (  6) -0.2487 (  7)  0.2137 (  8) -0.2135 (  9)  0.1496 ( 11)
          -0.1488 ( 13) -0.2209 ( 21)  0.2215 ( 22) -0.1266 (110) -0.1229 (111)
          -0.1266 (112)  0.1419 (120)  0.1413 (121)  0.1506 (122)  0.1513 (123)
           0.1421 (124)  0.1415 (125) -0.1016 (127) -0.1007 (129) -0.2079 (142)
          -0.2079 (143) -0.2042 (144) -0.1983 (147) -0.1983 (148) -0.1946 (149)
 CRD 54=  -0.2626 (  6)  0.2627 (  7)  0.1283 ( 11) -0.1274 ( 13)  0.1378 ( 15)
          -0.1371 ( 16) -0.1433 ( 21)  0.1428 ( 22) -0.1382 ( 89) -0.1252 ( 90)
          -0.1254 ( 91) -0.1062 ( 92)  0.1021 ( 98)  0.1011 ( 99) -0.1926 (120)
          -0.1933 (121) -0.2061 (122) -0.2054 (123) -0.1924 (124) -0.1931 (125)
           0.1176 (126)  0.1157 (127)  0.1186 (128)  0.1166 (129) -0.1435 (134)
          -0.1313 (135) -0.1375 (136) -0.1252 (137) -0.1478 (142) -0.1459 (143)
          -0.1425 (144) -0.1385 (147) -0.1366 (148) -0.1332 (149)
 CRD 55=  -0.2407 (  1) -0.1343 (  2) -0.1334 (  4)  0.1880 ( 30)  0.1880 ( 31)
          -0.1967 ( 32) -0.1549 ( 33) -0.1547 ( 35)  0.1511 ( 36)  0.1489 ( 37)
          -0.1485 ( 38) -0.1475 ( 40)  0.1225 ( 41)  0.1259 ( 42) -0.1593 ( 46)
          -0.1609 ( 47) -0.1357 ( 49) -0.1367 ( 50)  0.1991 ( 68)  0.1090 ( 69)
           0.1982 ( 70)  0.1238 ( 98) -0.1257 ( 99) -0.1094 (121)  0.1087 (124)
          -0.2228 (127)  0.2215 (128) -0.1696 (130)  0.1755 (133) -0.1331 (134)
           0.1310 (137)
 CRD 56=   0.1242 ( 17)  0.2196 ( 20) -0.2947 ( 23) -0.1890 ( 24) -0.2109 ( 25)
          -0.1409 ( 58) -0.1350 ( 59) -0.2258 ( 61) -0.2295 ( 62) -0.2608 ( 63)
           0.1749 ( 66)  0.1722 ( 67)  0.1867 ( 76)  0.2742 ( 77)  0.2553 ( 78)
           0.1375 (105) -0.1195 (106)  0.1177 (145)  0.1990 (146) -0.1394 (150)
          -0.1359 (152) -0.1433 (153) -0.1206 (154)
 CRD 57=   0.1166 (  1)  0.1024 (  2) -0.1618 (  3)  0.1043 (  4)  0.1144 ( 14)
           0.3240 ( 19) -0.1939 ( 26) -0.2327 ( 27) -0.1946 ( 28)  0.1180 ( 32)
           0.1131 ( 33)  0.1122 ( 35)  0.1036 ( 44) -0.2285 ( 55) -0.2130 ( 56)
          -0.2099 ( 57) -0.1008 ( 65) -0.1170 ( 68) -0.1074 ( 69) -0.1188 ( 70)
           0.1080 ( 79)  0.2270 ( 80)  0.1976 ( 81)  0.2270 ( 82) -0.1252 ( 96)
           0.1056 (137) -0.1988 (139)  0.1076 (146)
 CRD 58=  -0.1392 (  1) -0.1282 (  2)  0.2106 (  3) -0.1307 (  4)  0.1221 (  5)
          -0.1080 ( 14)  0.2650 ( 19) -0.1139 ( 20) -0.1668 ( 26) -0.1271 ( 27)
          -0.1879 ( 28) -0.1447 ( 32) -0.1392 ( 33) -0.1407 ( 35) -0.1128 ( 41)
          -0.1259 ( 42) -0.1105 ( 43)  0.1219 ( 49)  0.1038 ( 50)  0.1028 ( 53)
           0.1167 ( 54) -0.1545 ( 55) -0.1790 ( 56) -0.1738 ( 57)  0.1431 ( 68)
           0.1365 ( 69)  0.1450 ( 70)  0.1647 ( 80)  0.1948 ( 81)  0.1479 ( 82)
           0.1151 (130) -0.1142 (133)  0.1562 (134) -0.1163 (137) -0.1109 (141)
           0.1328 (151)
 CRD 59=  -0.1571 (  3)  0.1361 ( 12) -0.1069 ( 14) -0.1880 ( 16) -0.1097 ( 17)
           0.4211 ( 18) -0.1986 ( 22)  0.1647 ( 27) -0.2211 ( 28) -0.1237 ( 43)
           0.1028 ( 74)  0.1047 ( 81) -0.1988 ( 82)  0.1803 (102) -0.1669 (115)
           0.1142 (137) -0.1732 (140) -0.1091 (147) -0.1446 (148) -0.1801 (149)
           0.1255 (150) -0.1637 (154)
 CRD 60=   0.1087 (  2) -0.2536 (  3)  0.1164 (  4)  0.1378 ( 10)  0.1446 ( 12)
          -0.1762 ( 18) -0.2881 ( 20) -0.1064 ( 21)  0.1088 ( 22)  0.1798 ( 24)
          -0.1569 ( 26)  0.1092 ( 37) -0.1174 ( 44) -0.1105 ( 47)  0.1168 ( 53)
           0.1082 ( 61)  0.1458 ( 65) -0.1434 ( 69) -0.1466 ( 76) -0.1268 ( 78)
           0.1007 (115) -0.1032 (121)  0.1317 (139)  0.1377 (143) -0.1025 (150)
          -0.1920 (152) -0.2153 (153)
 CRD 61=  -0.1119 (  2)  0.2462 (  3) -0.1292 (  4) -0.1176 (  5) -0.2021 ( 10)
           0.1988 ( 14)  0.1287 ( 17) -0.2724 ( 20)  0.1642 ( 24)  0.1116 ( 25)
           0.1252 ( 38)  0.1116 ( 40)  0.1246 ( 41) -0.1216 ( 54) -0.1523 ( 58)
          -0.1226 ( 59)  0.1678 ( 69) -0.1928 ( 76)  0.1632 (121) -0.1010 (123)
          -0.1552 (124) -0.1099 (132)  0.1594 (137)  0.1043 (142)  0.2068 (143)
          -0.1232 (147) -0.1707 (149) -0.1241 (153)
 CRD 62=  -0.1773 (  2)  0.1770 (  4)  0.2611 (  6) -0.2598 (  7)  0.2231 (  8)
          -0.2262 (  9)  0.1285 ( 11) -0.1205 ( 13)  0.1376 ( 68) -0.1384 ( 70)
           0.1168 ( 89) -0.1828 (120) -0.1816 (121) -0.1833 (124) -0.1822 (125)
           0.2162 (126)  0.2131 (127)  0.2168 (128)  0.2138 (129) -0.1581 (130)
          -0.1651 (131) -0.1598 (132) -0.1667 (133)
 CRD 63=  -0.1265 (  2)  0.1556 (  4)  0.1295 (  6) -0.1425 (  7) -0.1796 ( 11)
           0.1833 ( 13) -0.1783 ( 15)  0.1770 ( 16)  0.1524 ( 17) -0.1323 ( 20)
           0.1514 ( 21) -0.1953 ( 22) -0.1017 ( 24)  0.2509 ( 25) -0.1005 ( 41)
          -0.1658 ( 59)  0.1154 ( 68) -0.1076 ( 70) -0.1080 ( 76) -0.1277 ( 77)
           0.1509 ( 78)  0.1474 ( 89)  0.1150 ( 94)  0.1788 (112) -0.1005 (120)
          -0.1249 (121) -0.1031 (125) -0.1410 (134) -0.1344 (135) -0.1536 (136)
          -0.1471 (137)  0.1097 (142) -0.1255 (144) -0.1325 (148) -0.2356 (149)
 CRD 64=  -0.1960 (  1)  0.1603 (  2)  0.2621 (  5) -0.1045 (  6) -0.2105 ( 12)
           0.2106 ( 17) -0.1213 ( 21) -0.1627 ( 23)  0.1517 ( 24) -0.1395 ( 40)
           0.1015 ( 50) -0.1032 ( 54) -0.1185 ( 58) -0.1819 ( 69)  0.1317 ( 71)
           0.1121 ( 75) -0.1484 ( 76)  0.1078 ( 90) -0.1117 ( 91) -0.1890 (121)
          -0.1241 (122)  0.2370 (124) -0.1038 (133)  0.1393 (135)  0.2194 (143)
          -0.1322 (149)  0.1298 (153)
 CRD 65=  -0.1600 ( 13)  0.1917 ( 15) -0.2625 ( 19) -0.1409 ( 20)  0.2152 ( 21)
          -0.1349 ( 24)  0.1254 ( 25)  0.1257 ( 28) -0.1415 ( 74) -0.1191 ( 75)
          -0.1479 ( 77)  0.1485 ( 79) -0.1002 ( 80) -0.1255 ( 96)  0.1478 (105)
           0.1034 (112) -0.1559 (116)  0.1362 (119) -0.1319 (130) -0.1012 (132)
           0.1935 (134)  0.1154 (136) -0.1261 (138) -0.2598 (139) -0.1083 (141)
          -0.1811 (143) -0.1279 (144)  0.1206 (145)  0.2806 (146)  0.1550 (151)
 CRD 66=  -0.2033 (  1)  0.1415 (  3)  0.1432 (  4)  0.1091 (  5) -0.1313 (  7)
           0.1368 (  9) -0.2193 ( 10) -0.1029 ( 11)  0.1388 ( 14) -0.1722 ( 17)
           0.1170 ( 23) -0.1442 ( 26)  0.1913 ( 27)  0.1007 ( 46)  0.1057 ( 47)
           0.1515 ( 68) -0.1196 ( 69)  0.1749 ( 71) -0.1271 ( 72) -0.1060 ( 80)
           0.1519 ( 81) -0.1226 ( 85)  0.1012 ( 90)  0.1201 (102) -0.1231 (114)
          -0.2031 (121)  0.1192 (123)  0.1374 (124)  0.1657 (127) -0.1978 (128)
           0.1202 (133) -0.1050 (134)  0.1167 (149) -0.1998 (153)
 CRD 67=   0.1769 (  3) -0.2067 (  5)  0.1205 (  8)  0.1474 (  9) -0.1602 ( 11)
           0.1762 ( 12) -0.1306 ( 13) -0.2114 ( 14)  0.1103 ( 26)  0.1015 ( 36)
          -0.2292 ( 72)  0.2485 ( 73) -0.1276 ( 74)  0.1250 ( 86) -0.1270 ( 88)
          -0.1284 (103)  0.1259 (104) -0.1080 (108)  0.1497 (127) -0.1564 (128)
          -0.2424 (130)  0.2639 (133)  0.1872 (134) -0.1976 (137)  0.1076 (143)
           0.1090 (153)
 CRD 68=  -0.1910 (  2) -0.1089 (  3)  0.1598 (  4) -0.1765 (  8)  0.1071 (  9)
           0.1010 ( 10) -0.1058 ( 11) -0.1418 ( 12)  0.1684 ( 15) -0.2113 ( 19)
           0.1762 ( 24) -0.1549 ( 25)  0.1459 ( 44)  0.1160 ( 49) -0.1030 ( 65)
          -0.1762 ( 70)  0.1241 ( 77) -0.1353 ( 78)  0.1021 ( 79) -0.1410 ( 87)
           0.1907 ( 89)  0.1364 ( 97)  0.1119 ( 98) -0.1794 (112)  0.1505 (122)
           0.1209 (123) -0.1195 (124) -0.1180 (127)  0.1207 (130)  0.1007 (131)
          -0.1059 (138) -0.2048 (139) -0.1366 (142)  0.1087 (146) -0.1236 (147)
 CRD 69=   0.1120 (  3) -0.1221 ( 10)  0.1550 ( 12) -0.2175 ( 20)  0.1643 ( 23)
          -0.1086 ( 25)  0.2523 ( 26) -0.2229 ( 27) -0.1089 ( 43)  0.1079 ( 55)
          -0.1018 ( 57)  0.1219 ( 66)  0.1012 ( 67) -0.1211 ( 75) -0.1334 ( 78)
           0.1841 ( 80) -0.1819 ( 81)  0.1608 (100) -0.1385 (101) -0.1167 (102)
          -0.1244 (106) -0.1263 (113)  0.1511 (114) -0.1481 (115) -0.1286 (140)
          -0.1434 (141)  0.1068 (144)  0.1041 (146)  0.1185 (149) -0.1426 (150)
          -0.1139 (151)  0.1799 (153) -0.1193 (154)
 CRD 70=  -0.1188 (  1)  0.1130 (  3)  0.1060 (  4) -0.1069 ( 10)  0.1415 ( 12)
          -0.1045 ( 16)  0.2035 ( 20) -0.2038 ( 23)  0.1956 ( 28) -0.1410 ( 43)
          -0.1084 ( 48) -0.1014 ( 66) -0.1399 ( 67)  0.1066 ( 68) -0.1097 ( 73)
          -0.1159 ( 76)  0.1024 ( 77)  0.1317 ( 82) -0.1411 (102)  0.1242 (106)
          -0.1195 (109)  0.1130 (110) -0.1147 (111)  0.1452 (115) -0.1042 (117)
          -0.1013 (120) -0.1115 (129)  0.1662 (136) -0.1353 (140) -0.1680 (141)
          -0.1473 (144)  0.1239 (148) -0.1038 (149)  0.1507 (150)  0.1768 (151)
          -0.1007 (152)  0.1236 (154)
 CRD 71=  -0.1411 (  3)  0.2038 (  5) -0.1176 (  9) -0.1807 ( 10)  0.1763 ( 12)
          -0.1505 ( 14)  0.1403 ( 16) -0.1125 ( 28) -0.1503 ( 36) -0.1233 ( 37)
           0.1133 ( 41)  0.1573 ( 42)  0.1316 ( 46) -0.1532 ( 49) -0.1418 ( 50)
           0.1047 ( 54) -0.1062 ( 71)  0.1361 ( 72) -0.1592 ( 74)  0.1465 ( 86)
           0.1253 ( 92) -0.1278 ( 93) -0.1008 ( 99)  0.1369 (103) -0.1614 (104)
           0.2643 (131) -0.2759 (132) -0.2035 (135)  0.1540 (136)
 CRD 72=   0.1995 (  1) -0.1259 (  2) -0.2015 (  3)  0.2153 (  5)  0.1118 (  9)
          -0.2434 ( 10)  0.1620 ( 12) -0.1090 ( 16) -0.1127 ( 27)  0.1135 ( 28)
           0.1689 ( 30)  0.1168 ( 31)  0.1118 ( 33) -0.1132 ( 37) -0.1469 ( 38)
          -0.1395 ( 40)  0.1516 ( 47)  0.1186 ( 69) -0.1351 ( 70) -0.1217 ( 72)
           0.1017 ( 74)  0.1448 ( 84) -0.1264 ( 85) -0.1454 ( 90)  0.1003 ( 91)
           0.1144 ( 98) -0.1049 (102)  0.1937 (120)  0.1400 (123) -0.2159 (125)
          -0.2493 (126)  0.2084 (129) -0.1253 (140) -0.1192 (152)
 CRD 73=   0.1012 (  2) -0.1895 (  4) -0.1037 (  7)  0.1438 (  8)  0.1261 ( 13)
          -0.1164 ( 15) -0.1611 ( 19)  0.1120 ( 21)  0.1963 ( 24) -0.1031 ( 25)
           0.1135 ( 31)  0.1211 ( 35) -0.1253 ( 61) -0.1161 ( 67) -0.1476 ( 68)
           0.1518 ( 77) -0.1510 ( 83)  0.1164 ( 88) -0.1158 ( 89)  0.1382 ( 91)
           0.1398 ( 94) -0.1210 ( 96) -0.1117 (103) -0.1536 (107)  0.1436 (110)
          -0.1195 (112)  0.1153 (116)  0.1421 (120) -0.2255 (122) -0.1119 (123)
           0.1111 (127) -0.1122 (134) -0.1090 (141) -0.2352 (142) -0.1023 (144)
           0.1227 (146) -0.1165 (147)  0.1466 (148)
 CRD 74=   0.1023 ( 11) -0.1379 ( 17)  0.1755 ( 22) -0.1615 ( 23)  0.1770 ( 25)
           0.1062 ( 26) -0.1817 ( 28)  0.1121 ( 56)  0.1186 ( 60) -0.1280 ( 62)
           0.1401 ( 63) -0.1125 ( 66) -0.1754 ( 75) -0.1329 ( 76)  0.1303 ( 78)
          -0.1359 ( 82) -0.1759 (101) -0.1862 (111)  0.1294 (113) -0.1078 (115)
           0.1330 (123) -0.1106 (125) -0.2587 (144)  0.2581 (147)  0.2527 (148)
          -0.1769 (150) -0.1502 (154)
 CRD 75=   0.1105 (  1)  0.1249 (  5) -0.1118 (  6) -0.1036 (  7)  0.1008 ( 11)
          -0.1850 ( 14)  0.1953 ( 17) -0.1333 ( 29) -0.1145 ( 32)  0.1244 ( 39)
           0.1769 ( 71) -0.1581 ( 73) -0.1455 ( 74)  0.1283 ( 75)  0.1112 ( 92)
          -0.1199 ( 93)  0.1150 (108) -0.1112 (109)  0.2041 (120) -0.1092 (122)
           0.1230 (123) -0.2046 (125)  0.1114 (126) -0.1158 (129) -0.2277 (135)
           0.2296 (136)  0.1140 (142)  0.1775 (144) -0.1767 (148)  0.1124 (152)
 CRD 76=  -0.1174 (  7) -0.1186 ( 12)  0.2001 ( 14) -0.1903 ( 17)  0.1281 ( 20)
           0.1257 ( 26) -0.1364 ( 27)  0.1065 ( 44) -0.1487 ( 51) -0.1514 ( 52)
           0.1317 ( 55) -0.1203 ( 57)  0.1719 ( 64)  0.1333 ( 65) -0.1054 ( 81)
          -0.1127 ( 84)  0.1027 ( 91)  0.1339 ( 96)  0.2212 (100) -0.1005 (105)
           0.2055 (114)  0.1437 (119) -0.1402 (122)  0.1241 (126) -0.1903 (138)
           0.1509 (141) -0.1743 (145)  0.1627 (151) -0.2263 (152) -0.2093 (154)
 CRD 77=   0.1027 (  2) -0.1689 (  5)  0.1703 (  6)  0.1193 (  9) -0.1503 ( 10)
           0.1355 ( 13) -0.1373 ( 21)  0.1422 ( 29)  0.1576 ( 34)  0.1113 ( 39)
          -0.1478 ( 71) -0.1664 ( 72) -0.1144 ( 73) -0.1833 ( 85)  0.1388 ( 90)
           0.1211 ( 98) -0.1538 (103) -0.1278 (109) -0.1325 (110)  0.1396 (119)
          -0.1427 (120) -0.1882 (123)  0.1306 (125) -0.1736 (126)  0.2184 (129)
          -0.1472 (131)  0.2037 (132)  0.1662 (142)
 CRD 78=   0.1010 (  4) -0.1033 (  5)  0.1546 (  7)  0.1357 ( 11) -0.1280 ( 12)
           0.1001 ( 14)  0.1393 ( 16) -0.1432 ( 22)  0.1043 ( 34) -0.1140 ( 51)
           0.1189 ( 65) -0.1010 ( 67) -0.1033 ( 72)  0.1720 ( 84)  0.1224 ( 87)
          -0.1450 ( 91) -0.1155 ( 93) -0.1087 ( 95) -0.1074 ( 97)  0.1206 (100)
           0.1316 (104)  0.1451 (108)  0.1113 (111)  0.1630 (114) -0.1579 (118)
           0.1777 (122) -0.1382 (126) -0.1695 (131)  0.1173 (141) -0.1165 (145)
          -0.1444 (147)  0.1702 (151) -0.1351 (154)
 CRD 79=   0.1473 ( 12)  0.1677 ( 14) -0.1347 ( 15)  0.1706 ( 17) -0.1804 ( 19)
          -0.1285 ( 21) -0.1003 ( 39) -0.1587 ( 45) -0.1836 ( 48) -0.1298 ( 60)
           0.1500 ( 74)  0.1240 ( 75)  0.1803 ( 79) -0.1015 ( 92) -0.1780 ( 96)
          -0.1617 (101) -0.1591 (105)  0.1098 (109)  0.1538 (113)  0.1741 (116)
           0.1829 (119) -0.1044 (132)  0.1325 (135) -0.1517 (136)  0.2188 (138)
          -0.2293 (141)  0.1234 (142)  0.1071 (144) -0.1974 (145)  0.1999 (151)
 CRD 80=   0.1248 (  6) -0.1264 (  7) -0.1547 (  8)  0.1503 (  9) -0.1059 ( 13)
          -0.1267 ( 18) -0.1127 ( 22)  0.1202 ( 36) -0.1213 ( 37) -0.1163 ( 38)
           0.1170 ( 40)  0.1018 ( 41) -0.1029 ( 42) -0.1111 ( 46)  0.1137 ( 47)
          -0.1858 ( 84) -0.1822 ( 85) -0.1926 ( 86) -0.2038 ( 88)  0.1700 ( 90)
           0.1706 ( 91) -0.1356 ( 92) -0.1069 ( 93) -0.1417 ( 94) -0.1150 ( 97)
           0.2019 ( 98)  0.2038 ( 99) -0.1100 (101)  0.1466 (103)  0.1407 (104)
           0.1358 (106)  0.1119 (110)  0.1248 (111)  0.1353 (113) -0.1175 (117)
          -0.1605 (118) -0.1226 (122) -0.1213 (123) -0.1044 (147)
 CRD 81=   0.1079 ( 11) -0.1017 ( 13) -0.1179 ( 15)  0.1456 ( 16)  0.1563 ( 18)
          -0.1079 ( 19)  0.1105 ( 43) -0.1009 ( 49) -0.1183 ( 51)  0.1060 ( 52)
          -0.1242 ( 53)  0.1084 ( 54) -0.1006 ( 65) -0.1232 ( 86) -0.1173 ( 88)
          -0.1588 ( 92) -0.1769 ( 93) -0.2246 ( 95) -0.1914 ( 96)  0.1110 ( 98)
           0.1105 ( 99)  0.1050 (100)  0.1495 (101)  0.1585 (103)  0.1610 (104)
          -0.1712 (105) -0.2030 (106)  0.2010 (108)  0.1933 (109) -0.1239 (110)
          -0.1301 (111) -0.1384 (113)  0.1758 (116)  0.2115 (117)  0.1630 (118)
           0.1329 (119)

 THE DETERMINANT OF THE G MATRIX IS 10**(   -28)


                     --------------------
                     INTERNAL COORDINATES
                     --------------------

                 - - ATOMS - -         COORDINATE      COORDINATE
 NO.   TYPE    I  J  K  L  M  N        (BOHR,RAD)       (ANG,DEG)
 ----------------------------------------------------------------
   1 STRETCH   1 10                     2.0599250       1.0900655
   2 STRETCH   1  9                     2.0598606       1.0900314
   3 STRETCH   1  2                     2.8912314       1.5299739
   4 STRETCH   1 11                     2.0598688       1.0900357
   5 STRETCH   2  3                     2.8913821       1.5300537
   6 STRETCH   2 12                     2.0597537       1.0899748
   7 STRETCH   2 13                     2.0597500       1.0899728
   8 STRETCH   3 15                     2.0597552       1.0899756
   9 STRETCH   3 14                     2.0597536       1.0899747
  10 STRETCH   3  4                     2.8912314       1.5299739
  11 STRETCH   4 16                     2.0598606       1.0900314
  12 STRETCH   4  5                     2.8912589       1.5299884
  13 STRETCH   4 17                     2.0598688       1.0900357
  14 STRETCH   5  6                     2.8912314       1.5299739
  15 STRETCH   5 19                     2.0598688       1.0900357
  16 STRETCH   5 18                     2.0598606       1.0900314
  17 STRETCH   6  7                     2.8913821       1.5300537
  18 STRETCH   6 26                     2.0787001       1.1000008
  19 STRETCH   6 25                     2.8345862       1.4999985
  20 STRETCH   7  8                     2.8912314       1.5299739
  21 STRETCH   7 21                     2.0597500       1.0899728
  22 STRETCH   7 20                     2.0597537       1.0899748
  23 STRETCH   8 24                     2.0599250       1.0900655
  24 STRETCH   8 23                     2.0598688       1.0900357
  25 STRETCH   8 22                     2.0598606       1.0900314
  26 STRETCH  25 29                     2.0787138       1.1000081
  27 STRETCH  25 28                     2.0786865       1.0999936
  28 STRETCH  25 27                     2.0787030       1.1000023
  29 BEND      1  2  3                  1.9105941     109.4689801
  30 BEND      1  2 12                  1.9105830     109.4683438
  31 BEND      1  2 13                  1.9105780     109.4680584
  32 BEND      2  1 10                  1.9106580     109.4726409
  33 BEND      2  1  9                  1.9106928     109.4746351
  34 BEND      2  3  4                  1.9105941     109.4689801
  35 BEND      2  1 11                  1.9106994     109.4750125
  36 BEND      2  3 15                  1.9105682     109.4674938
  37 BEND      2  3 14                  1.9105571     109.4668587
  38 BEND      3  2 12                  1.9106381     109.4715000
  39 BEND      3  4  5                  1.9106445     109.4718662
  40 BEND      3  2 13                  1.9106447     109.4718755
  41 BEND      3  4 17                  1.9106994     109.4750125
  42 BEND      3  4 16                  1.9106928     109.4746351
  43 BEND      4  5 19                  1.9105780     109.4680567
  44 BEND      4  5 18                  1.9105780     109.4680569
  45 BEND      4  5  6                  1.9106445     109.4718662
  46 BEND      4  3 14                  1.9106617     109.4728493
  47 BEND      4  3 15                  1.9106615     109.4728420
  48 BEND      5  6  7                  1.9105941     109.4689801
  49 BEND      5  4 16                  1.9105780     109.4680569
  50 BEND      5  4 17                  1.9105780     109.4680567
  51 BEND      5  6 26                  1.9493974     111.6922415
  52 BEND      5  6 25                  1.9493965     111.6921929
  53 BEND      6  5 18                  1.9106928     109.4746351
  54 BEND      6  5 19                  1.9106994     109.4750125
  55 BEND      6 25 28                  1.9106793     109.4738605
  56 BEND      6 25 27                  1.9106788     109.4738285
  57 BEND      6 25 29                  1.9106739     109.4735489
  58 BEND      6  7 20                  1.9106381     109.4715000
  59 BEND      6  7 21                  1.9106447     109.4718755
  60 BEND      6  7  8                  1.9105941     109.4689801
  61 BEND      7  8 23                  1.9106994     109.4750125
  62 BEND      7  8 22                  1.9106928     109.4746351
  63 BEND      7  8 24                  1.9106580     109.4726409
  64 BEND      7  6 25                  1.9494009     111.6924437
  65 BEND      7  6 26                  1.9493916     111.6919120
  66 BEND      8  7 20                  1.9105830     109.4683438
  67 BEND      8  7 21                  1.9105780     109.4680584
  68 BEND      9  1 10                  1.9105695     109.4675706
  69 BEND      9  1 11                  1.9106066     109.4696959
  70 BEND     10  1 11                  1.9105730     109.4677682
  71 BEND     12  2 13                  1.9107614     109.4785656
  72 BEND     14  3 15                  1.9107568     109.4782994
  73 BEND     16  4 17                  1.9106066     109.4696959
  74 BEND     18  5 19                  1.9106066     109.4696959
  75 BEND     20  7 21                  1.9107614     109.4785656
  76 BEND     22  8 23                  1.9106066     109.4696959
  77 BEND     22  8 24                  1.9105695     109.4675706
  78 BEND     23  8 24                  1.9105730     109.4677682
  79 BEND     25  6 26                  1.7521189     100.3890206
  80 BEND     27 25 28                  1.9105923     109.4688725
  81 BEND     27 25 29                  1.9105846     109.4684341
  82 BEND     28 25 29                  1.9105906     109.4687790
  83 TORSION   1  2  3  4               3.1415927     180.0000000
  84 TORSION   1  2  3 14              -1.0472333     -60.0020482
  85 TORSION   1  2  3 15               1.0472267      60.0016682
  86 TORSION   2  3  4 17               1.0472165      60.0010884
  87 TORSION   2  3  4  5               3.1415914     179.9999308
  88 TORSION   2  3  4 16              -1.0472230     -60.0014577
  89 TORSION   3  2  1 10               3.1415917     179.9999480
  90 TORSION   3  2  1 11              -1.0472165     -60.0010884
  91 TORSION   3  2  1  9               1.0472230      60.0014577
  92 TORSION   3  4  5 18              -1.0471515     -59.9973602
  93 TORSION   3  4  5 19               1.0471434      59.9968981
  94 TORSION   3  4  5  6               3.1415927     180.0000000
  95 TORSION   4  5  6 25               0.9733403      55.7682899
  96 TORSION   4  5  6 26              -0.9733492     -55.7687998
  97 TORSION   4  5  6  7              -3.1415914    -179.9999308
  98 TORSION   4  3  2 13              -1.0472821     -60.0048439
  99 TORSION   4  3  2 12               1.0472800      60.0047242
 100 TORSION   5  6 25 27               1.0472029      60.0003052
 101 TORSION   5  6 25 28              -1.0471981     -60.0000327
 102 TORSION   5  6 25 29               3.1415912     179.9999152
 103 TORSION   5  4  3 14               1.0472961      60.0056477
 104 TORSION   5  4  3 15              -1.0472850     -60.0050128
 105 TORSION   5  6  7 20              -1.0472800     -60.0047242
 106 TORSION   5  6  7 21               1.0472821      60.0048439
 107 TORSION   5  6  7  8               3.1415927     180.0000000
 108 TORSION   6  5  4 17              -1.0471434     -59.9968981
 109 TORSION   6  5  4 16               1.0471515      59.9973602
 110 TORSION   6  7  8 22              -1.0472230     -60.0014577
 111 TORSION   6  7  8 23               1.0472165      60.0010884
 112 TORSION   6  7  8 24              -3.1415917    -179.9999480
 113 TORSION   7  6 25 29               0.9952686      57.0246884
 114 TORSION   7  6 25 27              -1.0991197     -62.9749216
 115 TORSION   7  6 25 28               3.0896646     177.0247405
 116 TORSION   7  6  5 18               1.0472230      60.0014577
 117 TORSION   7  6  5 19              -1.0472165     -60.0010884
 118 TORSION   8  7  6 25              -0.9733416     -55.7683674
 119 TORSION   8  7  6 26               0.9733470      55.7686763
 120 TORSION   9  1  2 13              -1.0471284     -59.9960362
 121 TORSION   9  1  2 12               3.1415694     179.9986664
 122 TORSION  10  1  2 12              -1.0472472     -60.0028433
 123 TORSION  10  1  2 13               1.0472404      60.0024542
 124 TORSION  11  1  2 13              -3.1415679    -179.9985822
 125 TORSION  11  1  2 12               1.0471298      59.9961203
 126 TORSION  12  2  3 15              -1.0470860     -59.9936075
 127 TORSION  12  2  3 14              -3.1415459    -179.9973239
 128 TORSION  13  2  3 15               3.1415372     179.9968244
 129 TORSION  13  2  3 14               1.0470773      59.9931080
 130 TORSION  14  3  4 16              -3.1415183    -179.9957407
 131 TORSION  14  3  4 17              -1.0470788     -59.9931947
 132 TORSION  15  3  4 16               1.0470858      59.9935988
 133 TORSION  15  3  4 17               3.1415254     179.9961448
 134 TORSION  16  4  5 18               3.1415927     180.0000000
 135 TORSION  16  4  5 19              -1.0472978     -60.0057416
 136 TORSION  17  4  5 18               1.0472978      60.0057416
 137 TORSION  17  4  5 19               3.1415927     180.0000000
 138 TORSION  18  5  6 25              -1.1210306     -64.2303216
 139 TORSION  18  5  6 26              -3.0677200    -175.7674113
 140 TORSION  19  5  6 25               3.0677152     175.7671323
 141 TORSION  19  5  6 26               1.1210257      64.2300426
 142 TORSION  20  7  8 24               1.0472472      60.0028433
 143 TORSION  20  7  8 22              -3.1415694    -179.9986664
 144 TORSION  20  7  8 23              -1.0471298     -59.9961203
 145 TORSION  20  7  6 25               1.1209710      64.2269084
 146 TORSION  20  7  6 26               3.0676597     175.7639521
 147 TORSION  21  7  8 24              -1.0472404     -60.0024542
 148 TORSION  21  7  8 22               1.0471284      59.9960362
 149 TORSION  21  7  8 23               3.1415679     179.9985822
 150 TORSION  21  7  6 25              -3.0676522    -175.7635235
 151 TORSION  21  7  6 26              -1.1209635     -64.2264798
 152 TORSION  26  6 25 29              -1.0731604     -61.4875608
 153 TORSION  26  6 25 27               3.1156366     178.5128291
 154 TORSION  26  6 25 28               1.0212356      58.5124913

     ------------------------------------------
     THE POINT GROUP IS C1 , NAXIS= 1, ORDER= 1
     ------------------------------------------

     DIMENSIONS OF THE SYMMETRY SUBSPACES ARE
 A   =  291

 ..... DONE SETTING UP THE RUN .....
 STEP CPU TIME =     0.03 TOTAL CPU TIME =        0.0 (    0.0 MIN)
 TOTAL WALL CLOCK TIME=        0.0 SECONDS, CPU UTILIZATION IS  75.00%


          -----------------------------
          STATIONARY POINT LOCATION RUN
          -----------------------------

 OBTAINING INITIAL HESSIAN, HESS=GUESS   
 DIAGONAL GUESS HESSIAN IN INTERNAL COORDS IS
     1  0.3463     2  0.3463     3  0.3672     4  0.3463     5  0.3671
     6  0.3464     7  0.3464     8  0.3464     9  0.3464    10  0.3672
    11  0.3463    12  0.3672    13  0.3463    14  0.3672    15  0.3463
    16  0.3463    17  0.3671    18  0.3397    19  0.3892    20  0.3672
    21  0.3464    22  0.3464    23  0.3463    24  0.3463    25  0.3463
    26  0.3397    27  0.3397    28  0.3397    29  0.2485    30  0.2241
    31  0.2241    32  0.2241    33  0.2241    34  0.2485    35  0.2241
    36  0.2241    37  0.2241    38  0.2241    39  0.2485    40  0.2241
    41  0.2241    42  0.2241    43  0.2241    44  0.2241    45  0.2485
    46  0.2241    47  0.2241    48  0.2485    49  0.2241    50  0.2241
    51  0.2235    52  0.2506    53  0.2241    54  0.2241    55  0.2253
    56  0.2253    57  0.2253    58  0.2241    59  0.2241    60  0.2485
    61  0.2241    62  0.2241    63  0.2241    64  0.2506    65  0.2235
    66  0.2241    67  0.2241    68  0.2034    69  0.2034    70  0.2034
    71  0.2034    72  0.2034    73  0.2034    74  0.2034    75  0.2034
    76  0.2034    77  0.2034    78  0.2034    79  0.2253    80  0.2024
    81  0.2024    82  0.2024    83  0.2500    84  0.2500    85  0.2500
    86  0.2500    87  0.2500    88  0.2500    89  0.2500    90  0.2500
    91  0.2500    92  0.2500    93  0.2500    94  0.2500    95  0.2500
    96  0.2500    97  0.2500    98  0.2500    99  0.2500   100  0.2500
   101  0.2500   102  0.2500   103  0.2500   104  0.2500   105  0.2500
   106  0.2500   107  0.2500   108  0.2500   109  0.2500   110  0.2500
   111  0.2500   112  0.2500   113  0.2500   114  0.2500   115  0.2500
   116  0.2500   117  0.2500   118  0.2500   119  0.2500   120  0.2500
   121  0.2500   122  0.2500   123  0.2500   124  0.2500   125  0.2500
   126  0.2500   127  0.2500   128  0.2500   129  0.2500   130  0.2500
   131  0.2500   132  0.2500   133  0.2500   134  0.2500   135  0.2500
   136  0.2500   137  0.2500   138  0.2500   139  0.2500   140  0.2500
   141  0.2500   142  0.2500   143  0.2500   144  0.2500   145  0.2500
   146  0.2500   147  0.2500   148  0.2500   149  0.2500   150  0.2500
   151  0.2500   152  0.2500   153  0.2500   154  0.2500
 TRANSFORMING HESSIAN TO SYMMETRY COORDINATES

          PARAMETERS CONTROLLING GEOMETRY SEARCH ARE
          METHOD =QA                  UPHESS =BFGS    
          NNEG   =         0          NFRZ   =         3
          NSTEP  =        50          IFOLOW =         1
          HESS   =GUESS               RESTAR =         F
          IHREP  =         0          HSSEND =         F
          NPRT   =         0          NPUN   =         0
          OPTTOL = 5.000E-04          RMIN   = 1.500E-03
          RMAX   = 1.000E-01          RLIM   = 7.000E-02
          DXMAX  = 3.000E-01          PURIFY =         F
          MOVIE  =         F          TRUPD  =         T
          TRMAX  = 5.000E-01          TRMIN  = 5.000E-02
          ITBMAT =         5          STPT   =         F
          STSTEP = 1.000E-02          PROJCT=          F
          FROZEN COORD(S)=   1   2   3


      ***** EQUILIBRIUM GEOMETRY LOCATED *****
            (SUBJECT TO   3 CONSTRAINT(S))
 COORDINATES OF ALL ATOMS ARE (ANGS)
   ATOM   CHARGE       X              Y              Z
 ------------------------------------------------------------
 C           6.0   4.3959661979   0.4885422613   0.5031670416
 C           6.0   3.1983740149  -0.3540156186   0.0738275305
 C           6.0   1.9009916240   0.4509739431   0.1134599647
 C           6.0   0.6547142211  -0.3963417858  -0.0993845413
 C           6.0  -0.6451453008   0.4096979445  -0.0475659273
 C           6.0  -1.8911457958  -0.4839331846  -0.0143962553
 C           6.0  -3.1723090369   0.3090650955  -0.3069705788
 C           6.0  -4.4039693416  -0.5825009752  -0.4765114778
 H           1.0   4.2608079970   0.8395680467   1.5235479214
 H           1.0   5.3232775012  -0.0745343827   0.4616588939
 H           1.0   4.5008816347   1.3622023542  -0.1355295207
 H           1.0   3.3556326109  -0.7447099552  -0.9305423523
 H           1.0   3.1090198880  -1.2186446692   0.7299840002
 H           1.0   1.8212421705   0.9413002452   1.0828804998
 H           1.0   1.9466894158   1.2431594149  -0.6330228082
 H           1.0   0.7089458166  -0.9092951461  -1.0597981103
 H           1.0   0.6444565287  -1.1720159888   0.6593477506
 H           1.0  -0.6467933739   1.0570602441   0.8296127598
 H           1.0  -0.6799201825   1.0663116034  -0.9159442689
 H           1.0  -3.3453799532   1.0330717865   0.4892297085
 H           1.0  -3.0283646436   0.8832773152  -1.2202850964
 H           1.0  -4.2270968977  -1.3301604657  -1.2466901933
 H           1.0  -4.6501218808  -1.1070069382   0.4406503005
 H           1.0  -5.2751238167  -0.0030025196  -0.7657540625
 C           6.0  -1.9823127445  -1.2096407668   1.3353424798
 H           1.0  -1.7849335810  -1.2256237011  -0.8067215585
 H           1.0  -2.0448896300  -0.4814411150   2.1425133351
 H           1.0  -1.1134120757  -1.8300864508   1.5186908424
 H           1.0  -2.8516615506  -1.8525212408   1.3969406859


                     --------------------
                     INTERNAL COORDINATES
                     --------------------

                 - - ATOMS - -         COORDINATE      COORDINATE
 NO.   TYPE    I  J  K  L  M  N        (BOHR,RAD)       (ANG,DEG)
 ----------------------------------------------------------------
   1 STRETCH   1 10                     2.0516233       1.0856724
   2 STRETCH   1  9                     2.0550837       1.0875036
   3 STRETCH   1  2                     2.8835901       1.5259303
   4 STRETCH   1 11                     2.0547001       1.0873006
   5 STRETCH   2  3                     2.8862618       1.5273441
   6 STRETCH   2 12                     2.0580940       1.0890965
   7 STRETCH   2 13                     2.0580746       1.0890863
   8 STRETCH   3 15                     2.0587458       1.0894414
   9 STRETCH   3 14                     2.0584625       1.0892915
  10 STRETCH   3  4                     2.8761444       1.5219902
  11 STRETCH   4 16                     2.0601103       1.0901635
  12 STRETCH   4  5                     2.8919723       1.5303660
  13 STRETCH   4 17                     2.0505490       1.0851039
  14 STRETCH   5  6                     2.8982471       1.5336864
  15 STRETCH   5 19                     2.0583547       1.0892345
  16 STRETCH   5 18                     2.0601681       1.0901941
  17 STRETCH   6  7                     2.9004833       1.5348698
  18 STRETCH   6 26                     2.0607245       1.0904885
  19 STRETCH   6 25                     2.9010572       1.5351735
  20 STRETCH   7  8                     2.8911086       1.5299089
  21 STRETCH   7 21                     2.0567504       1.0883855
  22 STRETCH   7 20                     2.0597789       1.0899881
  23 STRETCH   8 24                     2.0513668       1.0855367
  24 STRETCH   8 23                     2.0500551       1.0848425
  25 STRETCH   8 22                     2.0557699       1.0878666
  26 STRETCH  25 29                     2.0465453       1.0829852
  27 STRETCH  25 28                     2.0471567       1.0833087
  28 STRETCH  25 27                     2.0577332       1.0889056
  29 BEND      1  2  3                  1.9480229     111.6134925
  30 BEND      1  2 12                  1.9222122     110.1346454
  31 BEND      1  2 13                  1.9105307     109.4653464
  32 BEND      2  1 10                  1.9532713     111.9142006
  33 BEND      2  1  9                  1.9226969     110.1624157
  34 BEND      2  3  4                  1.9806904     113.4852006
  35 BEND      2  1 11                  1.9327699     110.7395599
  36 BEND      2  3 15                  1.9069245     109.2587247
  37 BEND      2  3 14                  1.8991930     108.8157436
  38 BEND      3  2 12                  1.9130956     109.6123022
  39 BEND      3  4  5                  1.9796471     113.4254241
  40 BEND      3  2 13                  1.9103884     109.4571918
  41 BEND      3  4 17                  1.8838009     107.9338387
  42 BEND      3  4 16                  1.9224151     110.1462725
  43 BEND      4  5 19                  1.8940221     108.5194713
  44 BEND      4  5 18                  1.9190785     109.9550980
  45 BEND      4  5  6                  1.9648079     112.5752022
  46 BEND      4  3 14                  1.8913619     108.3670557
  47 BEND      4  3 15                  1.9212671     110.0804941
  48 BEND      5  6  7                  1.9530055     111.8989745
  49 BEND      5  4 16                  1.8964308     108.6574815
  50 BEND      5  4 17                  1.9228203     110.1694867
  51 BEND      5  6 26                  1.8770161     107.5451014
  52 BEND      5  6 25                  1.9205861     110.0414806
  53 BEND      6  5 18                  1.9043063     109.1087166
  54 BEND      6  5 19                  1.9204260     110.0323037
  55 BEND      6 25 28                  1.9518675     111.8337688
  56 BEND      6 25 27                  1.9166643     109.8167733
  57 BEND      6 25 29                  1.9587491     112.2280593
  58 BEND      6  7 20                  1.9139682     109.6622982
  59 BEND      6  7 21                  1.8987860     108.7924236
  60 BEND      6  7  8                  1.9736251     113.0803861
  61 BEND      7  8 23                  1.9505959     111.7609136
  62 BEND      7  8 22                  1.9263157     110.3697582
  63 BEND      7  8 24                  1.9438871     111.3765261
  64 BEND      7  6 25                  1.9414850     111.2388965
  65 BEND      7  6 26                  1.8694152     107.1096034
  66 BEND      8  7 20                  1.9179337     109.8895035
  67 BEND      8  7 21                  1.8975102     108.7193278
  68 BEND      9  1 10                  1.8853959     108.0252280
  69 BEND      9  1 11                  1.8794665     107.6854989
  70 BEND     10  1 11                  1.8879476     108.1714299
  71 BEND     12  2 13                  1.8573634     106.4190836
  72 BEND     14  3 15                  1.8603793     106.5918800
  73 BEND     16  4 17                  1.8547181     106.2675216
  74 BEND     18  5 19                  1.8581934     106.4666420
  75 BEND     20  7 21                  1.8582704     106.4710498
  76 BEND     22  8 23                  1.8787906     107.6467710
  77 BEND     22  8 24                  1.8846513     107.9825630
  78 BEND     23  8 24                  1.8768288     107.5343704
  79 BEND     25  6 26                  1.8997786     108.8492955
  80 BEND     27 25 28                  1.8793140     107.6767628
  81 BEND     27 25 29                  1.8846078     107.9800705
  82 BEND     28 25 29                  1.8694627     107.1123216
  83 TORSION   1  2  3  4              -2.9877620    -171.1861532
  84 TORSION   1  2  3 14              -0.8806059     -50.4550026
  85 TORSION   1  2  3 15               1.1442357      65.5598781
  86 TORSION   2  3  4 17               0.9975133      57.1533017
  87 TORSION   2  3  4  5               3.1330347     179.5096638
  88 TORSION   2  3  4 16              -1.0203797     -58.4634501
  89 TORSION   3  2  1 10              -3.1257625    -179.0930008
  90 TORSION   3  2  1 11              -1.0177218     -58.3111653
  91 TORSION   3  2  1  9               1.0595346      60.7068627
  92 TORSION   3  4  5 18              -0.8370929     -47.9618889
  93 TORSION   3  4  5 19               1.1889179      68.1199756
  94 TORSION   3  4  5  6              -2.9642797    -169.8407137
  95 TORSION   4  5  6 25               1.2172595      69.7438299
  96 TORSION   4  5  6 26              -0.8496582     -48.6818287
  97 TORSION   4  5  6  7              -2.8980455    -166.0457772
  98 TORSION   4  3  2 13              -0.8699772     -49.8460198
  99 TORSION   4  3  2 12               1.1610179      66.5214261
 100 TORSION   5  6 25 27               1.0456151      59.9093331
 101 TORSION   5  6 25 28              -1.0396576     -59.5679913
 102 TORSION   5  6 25 29              -3.1411863    -179.9767199
 103 TORSION   5  4  3 14               1.0214698      58.5259092
 104 TORSION   5  4  3 15              -1.0068493     -57.6882152
 105 TORSION   5  6  7 20              -1.1363978     -65.1108002
 106 TORSION   5  6  7 21               0.8895808      50.9692273
 107 TORSION   5  6  7  8               2.9996413     171.8667852
 108 TORSION   6  5  4 17              -0.8505505     -48.7329544
 109 TORSION   6  5  4 16               1.1747356      67.3073931
 110 TORSION   6  7  8 22              -0.9632851     -55.1921713
 111 TORSION   6  7  8 23               1.1269527      64.5696321
 112 TORSION   6  7  8 24              -3.0565081    -175.1250117
 113 TORSION   7  6 25 29               0.9674678      55.4318197
 114 TORSION   7  6 25 27              -1.1289161     -64.6821273
 115 TORSION   7  6 25 28               3.0689965     175.8405483
 116 TORSION   7  6  5 18               1.2496049      71.5970863
 117 TORSION   7  6  5 19              -0.7830625     -44.8661762
 118 TORSION   8  7  6 25              -1.1273902     -64.5947007
 119 TORSION   8  7  6 26               0.9466975      54.2417695
 120 TORSION   9  1  2 13              -1.0581676     -60.6285385
 121 TORSION   9  1  2 12              -3.0944900    -177.3012187
 122 TORSION  10  1  2 12              -0.9966019     -57.1010822
 123 TORSION  10  1  2 13               1.0397205      59.5715980
 124 TORSION  11  1  2 13              -3.1354241    -179.6465665
 125 TORSION  11  1  2 12               1.1114388      63.6807533
 126 TORSION  12  2  3 15              -0.9901697     -56.7325427
 127 TORSION  12  2  3 14              -3.0150113    -172.7474233
 128 TORSION  13  2  3 15              -3.0211647    -173.0999885
 129 TORSION  13  2  3 14               1.2371789      70.8851309
 130 TORSION  14  3  4 16              -3.1319446    -179.4472047
 131 TORSION  14  3  4 17              -1.1140516     -63.8304529
 132 TORSION  15  3  4 16               1.1229216      64.3386709
 133 TORSION  15  3  4 17               3.1408146     179.9554227
 134 TORSION  16  4  5 18              -2.9812629    -170.8137821
 135 TORSION  16  4  5 19              -0.9552522     -54.7319176
 136 TORSION  17  4  5 18               1.2766363      73.1458703
 137 TORSION  17  4  5 19              -2.9805383    -170.7722651
 138 TORSION  18  5  6 25              -0.9182754     -52.6133066
 139 TORSION  18  5  6 26              -2.9851931    -171.0389652
 140 TORSION  19  5  6 25              -2.9509428    -169.0765691
 141 TORSION  19  5  6 26               1.2653248      72.4977723
 142 TORSION  20  7  8 24               1.0817300      61.9785622
 143 TORSION  20  7  8 22              -3.1082324    -178.0885974
 144 TORSION  20  7  8 23              -1.0179946     -58.3267941
 145 TORSION  20  7  6 25               1.0197560      58.4277139
 146 TORSION  20  7  6 26               3.0938437     177.2641841
 147 TORSION  21  7  8 24              -0.9457243     -54.1860109
 148 TORSION  21  7  8 22               1.1474986      65.7468295
 149 TORSION  21  7  8 23              -3.0454489    -174.4913671
 150 TORSION  21  7  6 25               3.0457347     174.5077414
 151 TORSION  21  7  6 26              -1.1633630     -66.6557884
 152 TORSION  26  6 25 29              -1.0883284     -62.3566240
 153 TORSION  26  6 25 27               3.0984731     177.5294290
 154 TORSION  26  6 25 28               1.0132004      58.0521046

          INTERNUCLEAR DISTANCES (ANGS.)


 =====================================================
   GAMESS/COSab RESULTS
 =====================================================

   Dielectric Constant                  = INFTY
   Basic Grid Size                      =                 1082
   Number of Segments                   =                   92
   Number of Segments located on spheres=                  324
   Number of Segments of the cavity     =                  938
   Solvent Radius (rsolv)               = 1.40
   Outlying Charge Error Method         = double cavity

 =====================================================

  Total solvated Energy (a.u.)          =  -352.5558311009
  Total Energy corrected (a.u.)         =  -352.5557191974

  Outlying charge effect (a.u.)         =     0.0001119036
  Outlying charge effect (kcal/mol)     =     0.0702206023

  Dielectric Energy (a.u.)              =    -0.0016364331
  Dielectric energy corr. (a.u.)        =    -0.0015245296

  Sum of polarization charges           =     0.0344519750
  Sum of polarization charges(cor.)     =    -0.0344519750

  Total surface area of cavity (A**2)   =  207.94
  Total volume of cavity (A**3)         =  209.30

 =====================================================
 NPS=                   938
NR.  ATOM  (X, Y, Z)(a.u.)                  CHARGE(e)  AREA(A**2) SIGMA(e/A**2)
   1   1  11.590366   2.052719  -0.542187   0.002239   0.418105   0.005355
   2   1   8.837372  -1.542786   3.765451   0.000762   0.232280   0.003281
   3   1  11.298246   1.048909   3.257777   0.001897   0.418105   0.004537
   4   1   9.719653   4.346059   1.707967   0.001518   0.371649   0.004084
   5   1   8.829438   1.258103  -2.777344   0.000772   0.278737   0.002771
   6   1  10.175857  -0.646246  -1.935182   0.000796   0.232280   0.003426
   7   1   9.876008   0.424871  -2.451321   0.001228   0.371649   0.003304
   8   1  10.731017   1.245665  -1.931050   0.001512   0.325193   0.004649
   9   1   9.165180   4.192957   2.641049   0.001664   0.371649   0.004477
  10   1  10.627815   1.286004   3.911797   0.001221   0.278737   0.004381
  11   1   8.983229  -0.791638   4.250312   0.001238   0.325193   0.003806
  12   1  11.362943   1.096141  -1.266513   0.001076   0.232280   0.004632
  13   1  10.973783   2.074372  -1.467485   0.001292   0.278737   0.004635
  14   1   7.806176  -0.921625   4.211185   0.000607   0.232280   0.002614
  15   1   9.951137  -1.125916   3.667962   0.001423   0.325193   0.004376
  16   1  10.693284  -0.000227   3.732570   0.001791   0.325193   0.005507
  17   1  11.070019   2.368159   3.086974   0.001551   0.464561   0.003339
  18   1  10.528028   3.644622   2.345819   0.001443   0.464561   0.003106
  19   1   8.322350   4.588306   1.873370   0.002014   0.371649   0.005420
  20   1   7.162553   4.489953   1.453231   0.001074   0.232280   0.004623
  21   1   9.402902  -1.963732   3.130114   0.000822   0.278737   0.002949
  22   1  11.783652   1.782995   2.158790   0.001282   0.418105   0.003067
  23   1  11.862792   2.191601   0.769077   0.001519   0.418105   0.003634
[...]
 679  24  -9.948180   2.299016  -0.359740  -0.000002   0.025272  -0.000069
 680   7  -8.613762   2.203268  -2.955639   0.000053   0.025272   0.002117
 681   8  -9.030410   1.942188  -3.039417   0.000073   0.025272   0.002901
 682  24  -9.324569   1.933791  -2.969598   0.000016   0.025272   0.000651
 683   8  -9.602268   2.312312   0.268075   0.000227   0.098175   0.002316
 684   7  -9.035212   2.762287   0.234770   0.000242   0.098175   0.002466
 685   8  -6.707540  -0.807429  -4.355754   0.000242   0.109562   0.002205
 686   7  -6.059122  -0.496488  -4.248997   0.000214   0.109562   0.001955
 687   7  -4.327169   3.852858  -1.744396   0.000128   0.085323   0.001497
 688  19  -3.380559   3.819740  -1.912048   0.000210   0.085323   0.002463
 689  21  -4.366124   3.822335  -2.047341  -0.000047   0.085323  -0.000549
 690  19  -2.860808   4.074491  -1.763860   0.000115   0.084467   0.001361
 691   7  -4.240264   4.064647  -1.422240   0.000483   0.119566   0.004038
 692  20  -5.341108   4.194726   0.705338  -0.000001   0.068616  -0.000016
 693  20  -6.389278   4.295393   0.385950  -0.000057   0.151762  -0.000374
 694  20  -7.657710   3.899982   0.469778  -0.000193   0.151762  -0.001269
 695  20  -8.417331   3.235770   0.908640  -0.000065   0.068616  -0.000942
 696   7  -5.590708   4.221504   0.164324   0.000248   0.150998   0.001645
 697   7  -7.064989   4.125493  -0.068847   0.000198   0.150998   0.001308
 698   7  -8.293823   3.378857   0.342968  -0.000018   0.150998  -0.000121
 699  21  -7.615797   2.938729  -3.209343  -0.000064   0.075883  -0.000845
 700  21  -6.910505   3.718459  -2.607952  -0.000168   0.171881  -0.000976
 701  21  -5.554372   4.048021  -2.187012  -0.000169   0.171881  -0.000986
 702   7  -7.638364   3.205697  -2.643957  -0.000126   0.163280  -0.000774
 703   7  -6.409210   4.022275  -1.936834   0.000194   0.163280   0.001185
 704   7  -5.096304   4.080127  -1.693536   0.000247   0.092708   0.002664
 705  21  -4.881235   0.511048  -4.304680  -0.000063   0.066681  -0.000938
 706  21  -5.700386   0.476340  -4.455607  -0.000070   0.066681  -0.001052
 707   7  -5.303496   0.109100  -4.222849  -0.000118   0.147393  -0.000797
 708   7  -5.366986  -1.389444  -3.837638   0.000116   0.165046   0.000701
 709  22  -5.871006  -1.952940  -3.918264  -0.000103   0.165046  -0.000625
 710  26  -4.841380  -1.908900  -3.734885  -0.000008   0.165046  -0.000047
 711  22  -6.511956  -1.836888  -4.288717  -0.000101   0.094785  -0.001068
 712   7  -5.729384  -1.041077  -4.122678   0.000261   0.133629   0.001950
 713  24 -10.051415   2.399397  -0.787719  -0.000170   0.197375  -0.000860
 714  24  -9.733742   2.278583  -2.161576  -0.000901   0.403461  -0.002232
 715   7  -8.959924   2.902440  -1.093949   0.000945   0.541125   0.001747
 716   7  -8.582455   2.621938  -2.633261   0.000724   0.277941   0.002606
 717  26  -4.133521  -1.753565  -3.849348  -0.000123   0.133820  -0.000921
 718   7  -4.785473  -0.863475  -3.985555   0.000387   0.188806   0.002048
 719   8  -7.870403   0.090583   2.826420   0.000333   0.212880   0.001565
 720  20  -7.411386   0.684755   2.955968   0.000087   0.212880   0.000411
 721  25  -7.037984  -0.131394   3.400372   0.000480   0.212880   0.002255
 722  20  -8.653995   2.701417   1.359614  -0.000121   0.208583  -0.000580
 723  20  -8.172609   1.754248   2.416452  -0.000894   0.428128  -0.002088
 724   8  -9.324157   1.658435   1.482869   0.001070   0.570158   0.001876
 725   8  -8.645851   0.553213   2.588262   0.000809   0.293792   0.002752
 726  21  -6.355514   0.614509  -4.484695  -0.000074   0.166121  -0.000446
 727  21  -7.173927   1.499473  -4.254326  -0.000641   0.337477  -0.001899
 728  21  -7.745840   2.367317  -3.601800  -0.000085   0.166121  -0.000510
 729   8  -7.461930   0.166484  -4.405617   0.000873   0.458385   0.001905
 730   8  -8.456757   1.420679  -3.773875   0.000936   0.458385   0.002043
 731   8  -6.559521  -4.491319  -0.952378   0.000083   0.058414   0.001423
 732  22  -6.611894  -4.485768  -1.251577   0.000028   0.058414   0.000478
 733  25  -5.764265  -4.559615  -0.307124   0.000174   0.058414   0.002971
 734  22  -7.209292  -4.741535  -1.679181  -0.000062   0.071265  -0.000863
 735  22  -8.336343  -4.832230  -1.849972  -0.000177   0.159109  -0.001114
 736  22  -9.459299  -4.400226  -2.527238  -0.000228   0.159109  -0.001432
 737  22  -9.855813  -3.497946  -3.494200  -0.000251   0.159109  -0.001577
 738  22  -9.352665  -2.519557  -4.328433  -0.000156   0.159109  -0.000978
 739  22  -8.169658  -1.892475  -4.665497  -0.000279   0.159109  -0.001756
 740  22  -7.042077  -1.792435  -4.503657  -0.000101   0.071265  -0.001412
 741   8  -7.685088  -4.752732  -1.302720   0.000147   0.155406   0.000946
 742   8  -9.161750  -4.630752  -1.760257   0.000093   0.155406   0.000595
 743   8 -10.065835  -3.836852  -2.738574  -0.000011   0.155406  -0.000072
 744   8 -10.002387  -2.717854  -3.810286   0.000093   0.155406   0.000598
 745   8  -8.999124  -1.762598  -4.507208   0.000076   0.155406   0.000488
 746   8  -7.494329  -1.388396  -4.524885  -0.000153   0.155406  -0.000981
 747   8  -8.277091  -0.582346   2.928605  -0.000068   0.090149  -0.000759
 748  23  -8.352694  -0.861170   3.028186  -0.000146   0.090149  -0.001619
 749  25  -7.429749  -0.827008   3.458826   0.000222   0.090149   0.002459
 750   8  -8.187882  -4.599531   0.747145   0.000073   0.078615   0.000930
 751  23  -8.279138  -4.556970   1.034788  -0.000202   0.078615  -0.002565
 752  29  -7.503408  -4.788138   1.437579  -0.000229   0.078615  -0.002911
 753  23  -9.090980  -0.796653   2.894607  -0.000132   0.072436  -0.001828
 754  23 -10.157314  -1.021582   2.479790  -0.000273   0.162669  -0.001677
 755  23 -10.988098  -1.896036   1.756742  -0.000187   0.162669  -0.001149
 756  23 -10.936426  -3.121915   1.069560  -0.000287   0.162669  -0.001762
 757  23 -10.025905  -4.139165   0.732187  -0.000318   0.162669  -0.001953
 758  23  -8.933146  -4.541152   0.795578  -0.000080   0.072436  -0.001104
 759   8  -9.498511  -0.468998   2.577641  -0.000170   0.157065  -0.001080
 760   8 -10.789763  -1.064360   1.890618   0.000099   0.157065   0.000633
 761   8 -11.254555  -2.317347   1.049323   0.000016   0.157065   0.000099
 762   8 -10.680543  -3.655522   0.438108  -0.000089   0.157065  -0.000565
 763   8  -9.329969  -4.467529   0.336212  -0.000002   0.157065  -0.000014
 764  24  -9.734286   1.681531  -3.216471  -0.000065   0.069498  -0.000937
 765  24 -10.173395   0.775578  -3.709013  -0.000246   0.154560  -0.001593
 766  24 -10.942861  -0.335456  -3.617474  -0.000122   0.154560  -0.000788
 767  24 -11.702237  -1.042266  -2.746485  -0.000263   0.154560  -0.001703
 768  24 -12.132419  -1.047837  -1.462053  -0.000292   0.154560  -0.001891
 769  24 -12.052636  -0.349829  -0.303920  -0.000169   0.154560  -0.001091
 770  24 -11.496415   0.758443   0.241245  -0.000176   0.154560  -0.001137
 771  24 -10.697490   1.811262  -0.055646  -0.000304   0.154560  -0.001965
 772   8  -9.494438   1.247416  -3.553430  -0.000066   0.152093  -0.000432
 773   8 -10.222133  -0.034645  -3.930337   0.000034   0.152093   0.000224
 774   8 -11.129818  -1.113913  -3.358877   0.000124   0.152093   0.000813
 775   8 -11.836068  -1.536859  -2.079187  -0.000074   0.152093  -0.000490
 776   8 -12.044103  -1.125754  -0.629017  -0.000076   0.152093  -0.000501
 777   8 -11.666502  -0.053351   0.382245   0.000122   0.152093   0.000802
 778   8 -10.861941   1.229705   0.529647  -0.000024   0.152093  -0.000158
 779   8 -10.124799   2.089539   0.032195   0.000010   0.084907   0.000115
 780   8  -6.492267  -4.638948  -0.102448   0.000239   0.087622   0.002730
 781  25  -5.688538  -4.928129   0.471618  -0.000057   0.087622  -0.000646
 782  29  -5.935600  -4.979120   0.642165  -0.000141   0.087622  -0.001608
 783  25  -7.077866  -0.534978   3.860419   0.000320   0.091721   0.003493
 784   8  -8.251324  -0.285558   3.009095   0.000264   0.091721   0.002881
 785  25  -5.497164  -5.016230   0.196615   0.000302   0.130191   0.002316
 786   8  -6.601740  -4.698483  -0.723124   0.000445   0.130191   0.003419
 787  29  -6.729034  -5.120483   1.278617  -0.001393   0.413094  -0.003372
 788   8  -7.403096  -4.797676  -0.006942   0.001767   0.585071   0.003020
 789  14   4.626850   1.048660   4.325870   0.000146   0.244928   0.000597
 790  14   4.675513   2.178903   4.317370  -0.000429   0.489816  -0.000875
 791  14   4.854259   3.341639   3.596213  -0.000173   0.489816  -0.000353
 792   9   6.103644   1.419602   4.616043  -0.000448   0.489816  -0.000915
 793   9   6.213146   2.762836   4.319895  -0.000459   0.489816  -0.000937
 794   9   6.386969   3.566827   3.543188   0.000318   0.244928   0.001299
 795  15   5.223762   4.533138  -0.873454   0.000432   0.236653   0.001824
 796  15   5.429765   4.221427  -1.856515   0.000020   0.473090   0.000043
 797  15   5.639855   3.281430  -2.710230  -0.000021   0.473090  -0.000044
 798  11   6.841713   4.510692  -0.955566  -0.000083   0.473090  -0.000175
 799  11   7.085307   3.893838  -2.058614  -0.000350   0.473090  -0.000740
 800  11   7.230865   2.999143  -2.591851   0.000097   0.236653   0.000410
 801  16   3.122048  -1.293671  -3.977134   0.000292   0.289880   0.001006
 802  16   3.183785  -2.505982  -3.697574  -0.000054   0.579662  -0.000094
 803  16   3.202947  -3.451157  -2.886438   0.000362   0.289880   0.001248
 804  12   4.746179  -1.667869  -3.827616  -0.000021   0.579662  -0.000036
 805  12   4.796609  -3.012793  -3.147702   0.000345   0.579662   0.000595
 806  17   2.769416  -4.383618   1.214638   0.000353   0.251713   0.001401
 807  17   2.744213  -4.032108   2.326162  -0.000427   0.503450  -0.000848
 808  17   2.738787  -2.941691   3.235352  -0.000374   0.503450  -0.000744
 809  13   4.236642  -4.307149   1.691406  -0.000219   0.503450  -0.000435
 810  13   4.214910  -3.595369   2.919640  -0.000451   0.503450  -0.000896
 811  13   4.219200  -2.559031   3.454119   0.000165   0.251713   0.000657
 812  14   0.927381   0.966379   3.542797   0.000281   0.292773   0.000958
 813  18  -0.115094   0.997128   3.627914  -0.000304   0.292773  -0.001039
 814  25  -0.546727   0.159057   3.848470   0.000544   0.292773   0.001859
 815  18   0.140358   1.657234   3.841212   0.000206   0.240321   0.000858
 816  18   0.213383   2.744611   3.626650  -0.000250   0.480578  -0.000521
 817  18   0.353270   3.743444   2.720072  -0.000079   0.480578  -0.000165
 818  14   1.646287   2.008245   3.939053  -0.000247   0.480578  -0.000514
 819  14   1.758965   3.251567   3.409362  -0.000141   0.480578  -0.000293
 820  14   1.881152   3.897182   2.513812   0.000426   0.240321   0.001775
 821  25  -0.489455  -0.413232   4.501617   0.000712   0.209185   0.003403
 822  14   1.707262   0.889260   3.995313   0.000230   0.130487   0.001762
 823  19   0.312395   4.170040  -1.973219   0.000497   0.284498   0.001748
 824  19   0.467082   3.509282  -2.996257  -0.000031   0.568878  -0.000054
 825  19   0.603595   2.449872  -3.601362   0.000215   0.284498   0.000757
 826  15   1.957362   4.053343  -2.214198   0.000055   0.568878   0.000097
 827  15   2.138916   2.980871  -3.229295  -0.000033   0.568878  -0.000059
 828  19  -0.343496   0.929206  -3.993296   0.000269   0.107173   0.002508
 829  16   0.435176  -0.290417  -4.082772   0.000273   0.107173   0.002547
 830  26  -1.983280  -2.083090  -3.793765   0.000227   0.283827   0.000801
 831  26  -1.789181  -3.262836  -3.355654  -0.000354   0.567822  -0.000623
 832  26  -1.588013  -4.094007  -2.412202   0.000182   0.283827   0.000643
 833  16  -0.412194  -2.359872  -3.813053  -0.000165   0.567822  -0.000291
 834  16  -0.165870  -3.613042  -2.952086   0.000219   0.567822   0.000385
 835  17   0.480906  -2.362458   3.875063  -0.000209   0.072370  -0.002894
 836  25  -0.352471  -2.371275   4.385635  -0.000073   0.072370  -0.001006
 837  28  -0.213489  -2.628597   4.304214  -0.000193   0.072370  -0.002662
 838  25  -0.314886  -1.978538   4.528555   0.000573   0.208917   0.002743
 839  17   0.930214  -1.893441   3.799100  -0.000101   0.147420  -0.000682
 840  28  -0.513796  -5.112885   1.641730  -0.000455   0.214299  -0.002123
 841  28  -0.052303  -4.949771   2.710673  -0.002055   0.429044  -0.004790
 842  28   0.167234  -4.078192   3.827199  -0.001937   0.429044  -0.004514
 843  28   0.012848  -3.022071   4.320144  -0.000202   0.214299  -0.000943
 844  17   0.716541  -4.688970   1.540037  -0.001220   0.429044  -0.002844
 845  17   1.162031  -4.212370   2.816308  -0.001884   0.429044  -0.004390
 846  17   1.130762  -3.044481   3.646691  -0.001599   0.429044  -0.003727
 847  18  -3.408052   2.442699   3.193541  -0.000017   0.322558  -0.000054
 848  20  -4.559089   2.424420   3.038461   0.000072   0.322558   0.000222
 849  27  -4.005004   1.798464   3.759440  -0.000264   0.322558  -0.000818
 850  20  -4.810296   3.184546   2.810599   0.000115   0.247210   0.000463
 851  20  -4.708588   3.803627   1.960598   0.000226   0.494091   0.000458
 852  18  -3.139504   3.456037   2.708283   0.000181   0.494091   0.000366
 853  18  -3.031325   4.004652   1.811943   0.000509   0.247210   0.002059
 854  18  -1.075859   0.787175   4.071211   0.000149   0.085594   0.001739
 855  25  -1.395455   0.002199   4.529065   0.000129   0.085594   0.001508
 856  27  -1.612793   0.154082   4.684087  -0.000070   0.085594  -0.000813
 857  25  -1.084887  -0.082942   4.521692   0.000280   0.072790   0.003851
 858  18  -0.602739   1.118345   3.931371   0.000013   0.051413   0.000248
 859  27  -1.778594   0.492486   4.942402   0.000315   0.242411   0.001299
 860  27  -2.632117   1.230743   4.898610  -0.000410   0.484803  -0.000845
 861  27  -3.560995   1.707016   4.467572  -0.000202   0.242411  -0.000835
 862  18  -1.256819   1.709048   4.163493  -0.000188   0.484803  -0.000388
 863  18  -2.368731   2.466706   3.867281  -0.000468   0.484803  -0.000964
 864  21  -4.317041   3.902534  -2.523476   0.000315   0.262427   0.001201
 865  21  -4.130083   3.251534  -3.574622  -0.000604   0.525176  -0.001149
 866  21  -3.945757   1.866886  -4.164256  -0.000547   0.525176  -0.001041
 867  19  -2.841169   3.792935  -2.763787  -0.000380   0.525176  -0.000723
 868  19  -2.621340   2.726096  -3.818503  -0.000688   0.525176  -0.001309
 869  19  -2.498712   1.499239  -4.026940   0.000225   0.262427   0.000857
 870  20  -6.675504   0.823205   3.479927   0.000198   0.087829   0.002254
 871  25  -6.385028   0.058294   4.045841   0.000106   0.087829   0.001204
 872  27  -6.190330   0.202199   4.234857   0.000041   0.087829   0.000472
 873  25  -6.704905  -0.029443   3.995749   0.000398   0.115551   0.003442
 874  20  -7.228380   1.097696   3.211660   0.000020   0.081380   0.000248
 875  27  -4.607627   1.646921   4.359785  -0.000116   0.295984  -0.000391
 876  27  -5.663515   0.916275   4.521039  -0.000036   0.592087  -0.000062
 877  20  -5.808585   2.301149   3.456236  -0.000437   0.592087  -0.000737
 878  20  -6.822231   1.499056   3.518812   0.000269   0.295984   0.000910
 879  22  -5.965441  -4.313648  -1.418623   0.000431   0.241958   0.001783
 880  25  -5.089028  -4.530645  -0.513513   0.000441   0.241958   0.001822
 881  26  -4.933554  -4.372198  -1.240080   0.000006   0.241958   0.000026
 882  25  -5.305365  -4.962610  -0.189163   0.000276   0.094533   0.002917
 883  22  -6.561395  -4.643556  -1.551859   0.000148   0.063987   0.002316
 884  26  -4.837936  -4.514047  -1.912780   0.000291   0.253142   0.001150
 885  26  -4.666419  -4.061321  -2.972425  -0.000256   0.506287  -0.000505
 886  26  -4.572712  -2.892379  -3.770343  -0.000195   0.506287  -0.000386
 887  22  -6.234130  -4.432606  -2.593667  -0.000268   0.506287  -0.000530
 888  22  -6.063352  -3.610644  -3.736949  -0.000621   0.506287  -0.001227
 889  22  -6.031219  -2.530402  -4.172001   0.000058   0.253142   0.000231
 890  23  -8.122491  -2.491323   3.483316  -0.000220   0.076798  -0.002864
 891  25  -7.291558  -2.549286   4.070815   0.000047   0.076798   0.000614
 892  29  -7.418814  -2.801131   3.958618  -0.000210   0.076798  -0.002740
 893  25  -7.266372  -1.481876   4.076440   0.001628   0.581100   0.002802
 894  23  -8.558561  -1.791728   3.324849  -0.001213   0.408989  -0.002967
 895  29  -7.641546  -3.176580   3.943564  -0.000173   0.207650  -0.000832
 896  29  -7.756930  -4.127863   3.418943  -0.001566   0.415476  -0.003769
 897  29  -7.519893  -4.911338   2.362361  -0.001646   0.415476  -0.003961
 898  23  -8.769788  -3.105091   3.195165  -0.001656   0.415476  -0.003986
 899  23  -8.764394  -4.154228   2.367115  -0.001531   0.415476  -0.003684
 900  23  -8.460879  -4.625093   1.429220  -0.000156   0.207650  -0.000752
 901  26  -2.467450  -4.598276  -1.042886  -0.000036   0.169031  -0.000216
 902  26  -3.700335  -4.699404  -1.155740  -0.000367   0.343507  -0.001069
 903  25  -2.963676  -5.020740  -0.032313   0.001104   0.466161   0.002368
 904  25  -4.370681  -5.025365  -0.161932   0.000639   0.238243   0.002681
 905  27  -6.085784  -0.227977   4.848275  -0.000022   0.068262  -0.000321
 906  27  -5.735083  -0.985899   5.559227  -0.000069   0.150923  -0.000455
 907  27  -4.734627  -1.593308   6.184765  -0.000172   0.150923  -0.001142
 908  27  -3.413119  -1.612749   6.304752  -0.000196   0.150923  -0.001297
 909  27  -2.299088  -1.036445   5.871201  -0.000082   0.150923  -0.000546
 910  27  -1.804139  -0.290964   5.237030  -0.000051   0.068262  -0.000744
 911  25  -6.213403  -0.806239   4.905497   0.000173   0.150263   0.001154
 912  25  -5.455614  -1.729900   5.797531   0.000207   0.150263   0.001379
 913  25  -4.080676  -2.101085   6.238990   0.000018   0.150263   0.000119
 914  25  -2.638486  -1.771342   6.053315   0.000172   0.150263   0.001144
 915  25  -1.705836  -0.872549   5.314766   0.000141   0.150263   0.000937
 916  28  -0.612381  -2.893440   4.740129  -0.000027   0.066217  -0.000409
 917  28  -1.249106  -3.675577   5.110936  -0.000250   0.146017  -0.001713
 918  28  -1.966320  -4.741316   4.903464  -0.000246   0.146017  -0.001686
 919  28  -2.368374  -5.574726   3.988576  -0.000178   0.146017  -0.001221
 920  28  -2.300040  -5.854036   2.719499  -0.000156   0.146017  -0.001065
 921  28  -1.787701  -5.471410   1.586209  -0.000337   0.146017  -0.002306
 922  25  -1.087532  -2.876407   5.083332   0.000040   0.146091   0.000273
 923  25  -1.958008  -4.030400   5.303554   0.000046   0.146091   0.000313
 924  25  -2.619588  -5.152955   4.640145   0.000028   0.146091   0.000190
 925  25  -2.816844  -5.810665   3.349241   0.000184   0.146091   0.001260
 926  25  -2.473618  -5.749597   1.929243  -0.000035   0.146091  -0.000238
 927  25  -1.913435  -5.233797   1.019878   0.000016   0.080899   0.000195
 928  29  -5.570118  -5.407826   1.103228  -0.000102   0.069355  -0.001477
 929  29  -5.191964  -5.826162   2.074100  -0.000184   0.154434  -0.001194
 930  29  -5.147825  -5.756102   3.428294  -0.000185   0.154434  -0.001199
 931  29  -5.609982  -5.030627   4.477481  -0.000273   0.154434  -0.001767
 932  29  -6.382862  -3.956738   4.777674  -0.000272   0.154434  -0.001764
 933  29  -7.032364  -3.112451   4.422816  -0.000071   0.069355  -0.001024
 934  25  -5.024371  -5.567630   1.291082  -0.000099   0.151576  -0.000653
 935  25  -4.682325  -5.891290   2.740487   0.000165   0.151576   0.001087
 936  25  -4.930601  -5.418792   4.167943   0.000021   0.151576   0.000140
 937  25  -5.664135  -4.350084   4.969389  -0.000007   0.151576  -0.000044
 938  25  -6.572515  -3.137414   4.805677   0.000066   0.151576   0.000432
 =====================================================

              7674369  WORDS OF DYNAMIC MEMORY USED
 EXECUTION OF GAMESS TERMINATED NORMALLY Wed Nov 23 13:56:50 2016
 DDI: 263640 bytes (0.3 MB / 0 MWords) used by master data server.

 ----------------------------------------
 CPU timing information for all processes
 ========================================
 0: 5414.576 + 1.484 = 5416.60
 ----------------------------------------
 ddikick.x: exited gracefully.
