----- GAMESS execution script -----

          ******************************************************
          *         GAMESS VERSION =  5 DEC 2014 (R1)          *
          *             FROM IOWA STATE UNIVERSITY             *
          * M.W.SCHMIDT, K.K.BALDRIDGE, J.A.BOATZ, S.T.ELBERT, *
          *   M.S.GORDON, J.H.JENSEN, S.KOSEKI, N.MATSUNAGA,   *
          *          K.A.NGUYEN, S.J.SU, T.L.WINDUS,           *
          *       TOGETHER WITH M.DUPUIS, J.A.MONTGOMERY       *
          *         J.COMPUT.CHEM.  14, 1347-1363(1993)        *
          **************** 64 BIT LINUX VERSION ****************

 EXECUTION OF GAMESS BEGUN Wed Nov 23 11:46:03 2016

            ECHO OF THE FIRST FEW INPUT CARDS -
 INPUT CARD>! SELECT RESTRICTED HARTREE-FOCK AS DEFAULT                                     
 INPUT CARD>$contrl scftyp=rhf $end                                                         
 INPUT CARD>                                                                                
 INPUT CARD>! THEORY: HF OR DFT                                                             
 INPUT CARD> $contrl mplevl=0 $end                                                          
 INPUT CARD>                                                                                
 INPUT CARD> $system timlim=10000 mwords=20 $end                                            
 INPUT CARD> $SCF DIRSCF=.TRUE. $end                                                        
 INPUT CARD>                                                                                
 INPUT CARD>                                                                                
 INPUT CARD>! BASIS SETS                                                                    
 INPUT CARD>! 6-311G(d,p)                                                                   
 INPUT CARD> $BASIS GBASIS=N311 NGAUSS=6 NDFUNC=1 NPFUNC=1 $END                             
 INPUT CARD>                                                                                
 INPUT CARD>! One of the following                                                          
 INPUT CARD> $guess guess=HUCKEL $end                                                       
 INPUT CARD>                                                                                
 INPUT CARD> $statpt projct=.FALSE. $end                                                    
 INPUT CARD> $STATPT IFREEZ(1)=1,2,3 $END                                                   
 INPUT CARD>                                                                                
 INPUT CARD>! Optimize the geometry with COSMO effects                                      
 INPUT CARD> $statpt opttol=0.0005 nstep=50 $end                                            
 INPUT CARD> $contrl nzvar=1 $end                                                           
 INPUT CARD> $zmat dlc=.t. auto=.t. $end                                                    
 INPUT CARD> $contrl runtyp=OPTIMIZE maxit=200 $end                                         
 INPUT CARD>                                                                                
 INPUT CARD>! Run COSMO on perfect conductor                                                
 INPUT CARD> $COSGMS PRFCND=.TRUE. $end                                                     
 INPUT CARD>                                                                                
 INPUT CARD>! Specifying RSOLV                                                              
 INPUT CARD> $COSGMS COSRAD = 1.4 $end                                                      
 INPUT CARD>                                                                                
 INPUT CARD>! available memory                                                              
 INPUT CARD> $SYSTEM MWORDS=40 $END                                                         
 INPUT CARD>                                                                                
 INPUT CARD> $DATA                                                                          
 INPUT CARD>http://cactus.nci.nih.gov/chemical/structure/3-METHYL-3-HEXANOL/file?format=sdf&
 INPUT CARD>C1                                                                              
 INPUT CARD>C      6.0      0.5981000000    1.3365000000    0.7649000000                    
 INPUT CARD>C      6.0      0.4725000000    0.0361000000   -0.0314000000                    
 INPUT CARD>C      6.0      1.6049000000   -0.9145000000    0.3625000000                    
 INPUT CARD>C      6.0      2.9503000000   -0.2109000000    0.1736000000                    
 INPUT CARD>C      6.0     -0.8748000000   -0.6212000000    0.2745000000                    
 INPUT CARD>C      6.0     -2.0071000000    0.3294000000   -0.1194000000                    
 INPUT CARD>C      6.0     -3.3544000000   -0.3279000000    0.1866000000                    
 INPUT CARD>O      8.0      0.5561000000    0.3233000000   -1.4288000000                    
 INPUT CARD>H      1.0      1.5580000000    1.8048000000    0.5470000000                    
 INPUT CARD>H      1.0     -0.2086000000    2.0137000000    0.4843000000                    
 INPUT CARD>H      1.0      0.5344000000    1.1175000000    1.8308000000                    
 INPUT CARD>H      1.0      1.4896000000   -1.2037000000    1.4071000000                    
   40000000 WORDS OF MEMORY AVAILABLE

     BASIS OPTIONS
     -------------
     GBASIS=N311         IGAUSS=       6      POLAR=POPN311 
     NDFUNC=       1     NFFUNC=       0     DIFFSP=       F
     NPFUNC=       1      DIFFS=       F     BASNAM=        


     RUN TITLE
     ---------
 http://cactus.nci.nih.gov/chemical/structure/3-METHYL-3-HEXANOL/file?format=sdf&

 THE POINT GROUP OF THE MOLECULE IS C1      
 THE ORDER OF THE PRINCIPAL AXIS IS     0

 ATOM      ATOMIC                      COORDINATES (BOHR)
           CHARGE         X                   Y                   Z
 C           6.0     1.1302451133        2.5256187826        1.4454514080
 C           6.0     0.8928955292        0.0682191082       -0.0593373960
 C           6.0     3.0328212377       -1.7281544158        0.6850256705
 C           6.0     5.5752585816       -0.3985432108        0.3280564315
 C           6.0    -1.6531322941       -1.1738977836        0.5187297836
 C           6.0    -3.7928690300        0.6224757404       -0.2256332829
 C           6.0    -6.3388968532       -0.6196411514        0.3526228693
 O           8.0     1.0508766218        0.6109484118       -2.7000404913
 H           1.0     2.9441930889        3.4105774626        1.0336801153
 H           1.0    -0.3941968410        3.8053412215        0.9151942959
 H           1.0     1.0098695678        2.1117687913        3.4597103383
 H           1.0     2.8149358313       -2.2746631714        2.6590334373
 H           1.0     2.9636572665       -3.4083097915       -0.5043678661
 H           1.0     5.7931439880        0.1479655448       -1.6459513353
 H           1.0     5.6444225527        1.2818011375        1.5174499681
 H           1.0     7.0997005359       -1.6782656497        0.8583135436
 H           1.0    -1.8220737974       -2.9245399386       -0.5533117692
 H           1.0    -1.7735078395       -1.5877477749        2.5329887139
 H           1.0    -3.6239275267        2.3731178954        0.8464082699
 H           1.0    -3.6724934845        1.0365147043       -2.2397032406
 H           1.0    -6.5080273291       -2.3702833064       -0.7194186835
 H           1.0    -6.4594613712       -1.0334911427        2.3666928270
 H           1.0    -7.8633388075        0.6600812875       -0.1778232154
 H           1.0     0.9144384055       -0.8632268312       -3.7711371811

          INTERNUCLEAR DISTANCES (ANGS.)




     $CONTRL OPTIONS
     ---------------
 SCFTYP=RHF          RUNTYP=OPTIMIZE     EXETYP=RUN     
 MPLEVL=       0     CITYP =NONE         CCTYP =NONE         VBTYP =NONE    
 DFTTYP=NONE         TDDFT =NONE    
 MULT  =       1     ICHARG=       0     NZVAR =       1     COORD =UNIQUE  
 PP    =NONE         RELWFN=NONE         LOCAL =NONE         NUMGRD=       F
 ISPHER=      -1     NOSYM =       0     MAXIT =     200     UNITS =ANGS    
 PLTORB=       F     MOLPLT=       F     AIMPAC=       F     FRIEND=        
 NPRINT=       7     IREST =       0     GEOM  =INPUT   
 NORMF =       0     NORMP =       0     ITOL  =      20     ICUT  =       9
 INTTYP=BEST         GRDTYP=BEST         QMTTOL= 1.0E-06

     $SYSTEM OPTIONS
     ---------------
  REPLICATED MEMORY=    40000000 WORDS (ON EVERY NODE).
 DISTRIBUTED MEMDDI=           0 MILLION WORDS IN AGGREGATE,
 MEMDDI DISTRIBUTED OVER   1 PROCESSORS IS           0 WORDS/PROCESSOR.
 TOTAL MEMORY REQUESTED ON EACH PROCESSOR=    40000000 WORDS.
 TIMLIM=       10000.00 MINUTES, OR       6.9 DAYS.
 PARALL= F  BALTYP=  DLB     KDIAG=    0  COREFL= F
 MXSEQ2=     300 MXSEQ3=     150  mem10=         0

     $COSGMS OPTIONS
     ---------------
     EPSI  =   INFTY     NSPA  =      92     COSRAD=    1.40
     DISEX =   10.00     OUTCHG=DBLCAV       COSBUG=       F
     COSWRT=       F     DCOSMO=       F

     SYMMETRY COORDINATES WILL NOT BE USED FOR 
     THE COSMO CALCULATION, EVEN IF SPECIFIED:
         -- SWITCHING TO C1 POINT GROUP --


     DEFINITION OF CAVITY
     ---------------------------
     ATOM         COORDINATES           RADIUS 
     1    1.1302    2.5256    1.4455    2.0000
     2    0.8929    0.0682   -0.0593    2.0000
     3    3.0328   -1.7282    0.6850    2.0000
     4    5.5753   -0.3985    0.3281    2.0000
     5   -1.6531   -1.1739    0.5187    2.0000
     6   -3.7929    0.6225   -0.2256    2.0000
     7   -6.3389   -0.6196    0.3526    2.0000
     8    1.0509    0.6109   -2.7000    1.7200
     9    2.9442    3.4106    1.0337    1.3000
    10   -0.3942    3.8053    0.9152    1.3000
    11    1.0099    2.1118    3.4597    1.3000
    12    2.8149   -2.2747    2.6590    1.3000
    13    2.9637   -3.4083   -0.5044    1.3000
    14    5.7931    0.1480   -1.6460    1.3000
    15    5.6444    1.2818    1.5174    1.3000
    16    7.0997   -1.6783    0.8583    1.3000
    17   -1.8221   -2.9245   -0.5533    1.3000
    18   -1.7735   -1.5877    2.5330    1.3000
    19   -3.6239    2.3731    0.8464    1.3000
    20   -3.6725    1.0365   -2.2397    1.3000
    21   -6.5080   -2.3703   -0.7194    1.3000
    22   -6.4595   -1.0335    2.3667    1.3000
    23   -7.8633    0.6601   -0.1778    1.3000
    24    0.9144   -0.8632   -3.7711    1.3000

          ----------------
          PROPERTIES INPUT
          ----------------

     MOMENTS            FIELD           POTENTIAL          DENSITY
 IEMOM =       1   IEFLD =       0   IEPOT =       0   IEDEN =       0
 WHERE =COMASS     WHERE =NUCLEI     WHERE =NUCLEI     WHERE =NUCLEI  
 OUTPUT=BOTH       OUTPUT=BOTH       OUTPUT=BOTH       OUTPUT=BOTH    
 IEMINT=       0   IEFINT=       0                     IEDINT=       0
                                                       MORB  =       0
          EXTRAPOLATION IN EFFECT
          SOSCF IN EFFECT
 ORBITAL PRINTING OPTION: NPREO=     1   248     2     1

     -------------------------------
     INTEGRAL TRANSFORMATION OPTIONS
     -------------------------------
     NWORD  =            0
     CUTOFF = 1.0E-09     MPTRAN =       0
     DIRTRF =       T     AOINTS =DUP     

          ----------------------
          INTEGRAL INPUT OPTIONS
          ----------------------
 NOPK  =       1 NORDER=       0 SCHWRZ=       T


 -----------------------------------------------
  STATISTICS ON AUTOMATIC COORDINATE GENERATION 
 -----------------------------------------------
  NUMBER OF USER SPECIFIED BONDS                             0
  NUMBER OF BONDS                                           23
  NUMBER OF ANGLES                                          43
  NUMBER OF TORSIONS                                        57
  NUMBER OF EXTRA COORD.                                     0
  NUMBER OF EXTRA COORD. FOR CONSTRAINTS                     0
  NUMBER OF CONSTRAINED COORD.                               0

  TOTAL NUMBER OF PRIMITIVES                               123
 -----------------------------------------------

   --- ENCODED Z MATRIX ---
 COORD  TYPE   I   J   K   L   M   N
    1      1    1  11
    2      1    1  10
    3      1    1   9
    4      1    1   2
    5      1    2   3
    6      1    2   8
    7      1    2   5
    8      1    3   4
    9      1    3  13
   10      1    3  12
   11      1    4  15
   12      1    4  14
   13      1    4  16
   14      1    5   6
   15      1    5  18
   16      1    5  17
   17      1    6   7
   18      1    6  20
   19      1    6  19
   20      1    7  23
   21      1    7  22
   22      1    7  21
   23      1    8  24
   24      2    1   2   3
   25      2    1   2   8
   26      2    1   2   5
   27      2    2   3  12
   28      2    2   1   9
   29      2    2   3  13
   30      2    2   1  10
   31      2    2   8  24
   32      2    2   3   4
   33      2    2   5   6
   34      2    2   5  18
   35      2    2   1  11
   36      2    2   5  17
   37      2    3   4  16
   38      2    3   2   5
   39      2    3   2   8
   40      2    3   4  15
   41      2    3   4  14
   42      2    4   3  12
   43      2    4   3  13
   44      2    5   6   7
   45      2    5   6  19
   46      2    5   6  20
   47      2    5   2   8
   48      2    6   5  17
   49      2    6   5  18
   50      2    6   7  21
   51      2    6   7  22
   52      2    6   7  23
   53      2    7   6  19
   54      2    7   6  20
   55      2    9   1  11
   56      2    9   1  10
   57      2   10   1  11
   58      2   12   3  13
   59      2   14   4  16
   60      2   14   4  15
   61      2   15   4  16
   62      2   17   5  18
   63      2   19   6  20
   64      2   21   7  22
   65      2   21   7  23
   66      2   22   7  23
   67      3    1   2   5  18
   68      3    1   2   5   6
   69      3    1   2   3  12
   70      3    1   2   8  24
   71      3    1   2   3  13
   72      3    1   2   3   4
   73      3    1   2   5  17
   74      3    2   5   6  19
   75      3    2   5   6  20
   76      3    2   5   6   7
   77      3    2   3   4  16
   78      3    2   3   4  14
   79      3    2   3   4  15
   80      3    3   2   8  24
   81      3    3   2   1  11
   82      3    3   2   5  17
   83      3    3   2   5  18
   84      3    3   2   1  10
   85      3    3   2   5   6
   86      3    3   2   1   9
   87      3    4   3   2   5
   88      3    4   3   2   8
   89      3    5   2   8  24
   90      3    5   2   1   9
   91      3    5   2   1  10
   92      3    5   2   3  13
   93      3    5   2   1  11
   94      3    5   6   7  21
   95      3    5   6   7  22
   96      3    5   6   7  23
   97      3    5   2   3  12
   98      3    6   5   2   8
   99      3    7   6   5  17
  100      3    7   6   5  18
  101      3    8   2   1  11
  102      3    8   2   5  17
  103      3    8   2   3  13
  104      3    8   2   5  18
  105      3    8   2   3  12
  106      3    8   2   1   9
  107      3    8   2   1  10
  108      3   12   3   4  16
  109      3   12   3   4  14
  110      3   12   3   4  15
  111      3   13   3   4  16
  112      3   13   3   4  14
  113      3   13   3   4  15
  114      3   17   5   6  20
  115      3   17   5   6  19
  116      3   18   5   6  20
  117      3   18   5   6  19
  118      3   19   6   7  23
  119      3   19   6   7  22
  120      3   19   6   7  21
  121      3   20   6   7  23
  122      3   20   6   7  22
  123      3   20   6   7  21

          INDEP./SYM. INTERNAL COORDINATES
          --------------------------------
 CRD  1=   0.1233 ( 25) -0.1506 ( 26)  0.1027 ( 27)  0.1025 ( 29) -0.3177 ( 32)
          -0.5437 ( 33)  0.1520 ( 34)  0.1668 ( 36)  0.2856 ( 38)  0.3257 ( 44)
          -0.1073 ( 45) -0.1092 ( 46)  0.1612 ( 48)  0.1583 ( 49)  0.1151 ( 80)
          -0.1342 ( 89)  0.1030 ( 90)  0.1167 ( 91)  0.1017 ( 93)
 CRD  2=   0.1831 (  5)  0.2857 ( 24) -0.2565 ( 26) -0.1373 ( 27)  0.1058 ( 28)
          -0.1625 ( 29) -0.1115 ( 30)  0.5170 ( 32) -0.2311 ( 33)  0.1087 ( 36)
          -0.1568 ( 42) -0.1510 ( 43)  0.1734 ( 44)  0.1460 ( 47)  0.1046 ( 48)
          -0.1580 ( 68)  0.1736 ( 70) -0.1137 ( 71) -0.1049 ( 73)  0.1186 ( 76)
          -0.1096 ( 80)  0.1387 ( 97)
 CRD  3=   0.1642 (  5)  0.3317 (  7)  0.1476 (  8)  0.2294 ( 14)  0.2034 ( 17)
          -0.1134 ( 24)  0.1752 ( 26)  0.2305 ( 32)  0.1063 ( 33) -0.1078 ( 36)
           0.1049 ( 40) -0.1220 ( 43)  0.4358 ( 44) -0.1080 ( 45) -0.1230 ( 46)
          -0.1447 ( 47)  0.1575 ( 51) -0.2040 ( 54)  0.1134 ( 68) -0.1272 ( 75)
          -0.1855 ( 76)  0.1106 ( 85) -0.1757 ( 87) -0.1329 ( 92) -0.1190 ( 97)
 CRD  4=  -0.1360 (  4)  0.2633 (  7)  0.2186 ( 14)  0.1674 ( 17) -0.1338 ( 24)
          -0.1172 ( 26)  0.2885 ( 33) -0.1867 ( 34)  0.1299 ( 38)  0.1035 ( 41)
           0.1576 ( 44)  0.1069 ( 47) -0.1426 ( 49)  0.1455 ( 50) -0.1534 ( 53)
           0.1247 ( 72)  0.1479 ( 74)  0.1524 ( 75)  0.2625 ( 76) -0.1222 ( 83)
          -0.2345 ( 85)  0.2707 ( 87) -0.1214 ( 89)  0.1732 ( 92)  0.1432 ( 97)
          -0.1066 ( 98)  0.1231 (100)
 CRD  5=  -0.1484 (  5) -0.1254 (  8) -0.1546 ( 14) -0.2207 ( 25)  0.2899 ( 26)
          -0.1289 ( 28)  0.1132 ( 31) -0.1926 ( 33)  0.1003 ( 35) -0.2646 ( 38)
           0.2695 ( 39) -0.1079 ( 40)  0.2352 ( 44) -0.1664 ( 45)  0.1776 ( 48)
          -0.1437 ( 68)  0.1385 ( 69)  0.1154 ( 71)  0.2462 ( 72)  0.1459 ( 81)
          -0.1237 ( 82) -0.1359 ( 83) -0.2154 ( 85)  0.1464 ( 86)  0.1572 ( 89)
          -0.1084 ( 91)
 CRD  6=  -0.1837 (  4)  0.1493 (  5)  0.2229 (  8) -0.1185 ( 17) -0.2847 ( 24)
           0.1409 ( 25) -0.1349 ( 27)  0.2781 ( 32) -0.1052 ( 33)  0.1199 ( 34)
           0.2139 ( 38)  0.1433 ( 39)  0.1328 ( 41) -0.1225 ( 42) -0.2798 ( 44)
           0.1508 ( 46) -0.2484 ( 47) -0.1115 ( 50)  0.1203 ( 53)  0.1893 ( 80)
          -0.1831 ( 82) -0.1291 ( 83) -0.2036 ( 85)  0.1231 ( 88)  0.1017 ( 90)
           0.1229 ( 91)  0.1269 ( 93)
 CRD  7=  -0.1530 ( 24)  0.1708 ( 30)  0.1398 ( 32) -0.1014 ( 33) -0.1418 ( 34)
           0.1975 ( 36)  0.1153 ( 39)  0.1015 ( 41)  0.1350 ( 45) -0.1688 ( 46)
          -0.1938 ( 48)  0.2620 ( 49)  0.1085 ( 50) -0.1130 ( 51)  0.1102 ( 54)
           0.1717 ( 67)  0.3436 ( 68)  0.1650 ( 73)  0.1335 ( 74)  0.1228 ( 75)
           0.1632 ( 76)  0.1953 ( 85)  0.1106 ( 88)  0.1448 ( 94)  0.1476 ( 95)
           0.1077 ( 96)  0.2799 ( 98)  0.1021 ( 99)  0.1013 (102)  0.1080 (104)
 CRD  8=  -0.1531 (  5)  0.1346 (  6) -0.1340 ( 24) -0.2377 ( 27)  0.1202 ( 28)
           0.1758 ( 29)  0.1974 ( 31) -0.2133 ( 35)  0.2321 ( 40) -0.2194 ( 41)
           0.2209 ( 42) -0.2159 ( 43) -0.1498 ( 69) -0.1648 ( 71) -0.2982 ( 72)
          -0.1777 ( 78) -0.1697 ( 79) -0.1214 ( 83)  0.1075 ( 84) -0.1528 ( 85)
          -0.1848 ( 87) -0.2431 ( 88) -0.1162 ( 90) -0.1097 (103)
 CRD  9=  -0.1236 (  4)  0.3893 (  5)  0.2411 (  6)  0.1408 (  7) -0.2058 ( 25)
           0.1111 ( 29) -0.1290 ( 30)  0.5048 ( 31) -0.1104 ( 32)  0.1033 ( 35)
           0.1648 ( 37)  0.1272 ( 39) -0.1239 ( 41) -0.1154 ( 44) -0.1082 ( 50)
          -0.1477 ( 88)  0.2235 ( 98)  0.1379 (102) -0.1017 (103)  0.1798 (104)
          -0.1378 (105)
 CRD 10=  -0.5900 (  4) -0.2831 (  5) -0.1416 (  7) -0.1191 ( 28) -0.1527 ( 30)
          -0.2245 ( 35) -0.1018 ( 36) -0.1120 ( 37)  0.1093 ( 47) -0.1721 ( 50)
           0.2260 ( 51)  0.1636 ( 55)  0.1548 ( 56)  0.1779 ( 57) -0.1653 ( 76)
           0.1375 ( 96) -0.1284 (100)
 CRD 11=   0.1121 (  4)  0.2681 (  5) -0.3532 (  7) -0.2481 (  8)  0.2201 ( 14)
           0.2768 ( 28)  0.1253 ( 29)  0.1260 ( 33) -0.1234 ( 34) -0.1544 ( 35)
          -0.1381 ( 36)  0.1096 ( 39) -0.2819 ( 40)  0.1083 ( 44) -0.1089 ( 47)
           0.1271 ( 51)  0.1245 ( 60) -0.1175 ( 69)  0.1616 ( 70) -0.1056 ( 77)
           0.1508 ( 84)  0.1605 ( 88) -0.1142 (100) -0.1135 (101)  0.1145 (103)
 CRD 12=  -0.2768 (  4)  0.1218 (  5) -0.2981 (  6) -0.2457 (  7)  0.1891 ( 14)
          -0.1800 ( 23) -0.1009 ( 25) -0.1344 ( 28) -0.2179 ( 30) -0.2341 ( 31)
           0.1079 ( 35)  0.1188 ( 39)  0.1344 ( 40) -0.2232 ( 41) -0.1019 ( 47)
           0.2560 ( 50) -0.2759 ( 51) -0.1302 ( 53)  0.1350 ( 56)  0.1259 ( 76)
          -0.1248 ( 87)  0.1586 ( 99)
 CRD 13=  -0.3147 (  8)  0.1030 ( 14)  0.4503 ( 17) -0.1016 ( 30) -0.1556 ( 33)
          -0.3029 ( 37) -0.1208 ( 44)  0.4722 ( 52)  0.1253 ( 53)  0.1371 ( 54)
           0.1348 ( 59)  0.1305 ( 61) -0.2051 ( 65) -0.1865 ( 66)
 CRD 14=   0.1448 (  7) -0.4189 (  8)  0.1937 ( 14) -0.4294 ( 17) -0.3735 ( 37)
          -0.1356 ( 42) -0.1132 ( 43) -0.1296 ( 51) -0.1840 ( 52) -0.1150 ( 53)
          -0.1165 ( 54)  0.1863 ( 59)  0.1561 ( 61)  0.1243 ( 64)  0.1302 ( 65)
           0.1454 ( 66)
 CRD 15=  -0.1333 (  2) -0.1601 (  5) -0.1713 (  6)  0.1968 (  7) -0.1240 ( 23)
          -0.1850 ( 27)  0.3440 ( 28)  0.1491 ( 29) -0.4955 ( 30) -0.1178 ( 31)
           0.1577 ( 35) -0.1710 ( 40)  0.2713 ( 41)  0.1226 ( 42) -0.1942 ( 55)
           0.1333 ( 57) -0.1749 ( 77) -0.1519 ( 78) -0.1474 ( 79)
 CRD 16=   0.1001 (  3)  0.1457 (  7) -0.1518 (  8) -0.3572 ( 14)  0.1092 ( 17)
           0.1838 ( 27)  0.3242 ( 28) -0.1439 ( 30) -0.2734 ( 35) -0.1879 ( 41)
          -0.1405 ( 42) -0.1284 ( 49)  0.2761 ( 50) -0.2704 ( 52)  0.1727 ( 57)
           0.1106 ( 59) -0.1624 ( 64)  0.1286 ( 77)  0.1154 ( 78)  0.1206 ( 79)
 CRD 17=  -0.1115 (  2) -0.2336 (  5)  0.3074 (  6)  0.1988 (  8)  0.1892 ( 14)
           0.2244 ( 23)  0.2296 ( 28) -0.2131 ( 29) -0.3113 ( 30)  0.2695 ( 31)
           0.1659 ( 35)  0.2413 ( 40)  0.1838 ( 43) -0.1521 ( 51) -0.1702 ( 55)
          -0.1141 ( 61)  0.1361 ( 77)  0.1271 ( 78)  0.1259 ( 79)  0.1060 ( 88)
           0.1120 (105)
 CRD 18=   0.1521 (  1) -0.1167 (  3)  0.1199 (  6) -0.2629 (  7) -0.1779 ( 14)
          -0.1063 ( 15)  0.1633 ( 17)  0.1022 ( 23) -0.2971 ( 28)  0.1218 ( 33)
           0.4506 ( 35) -0.1738 ( 37)  0.1131 ( 38)  0.1018 ( 41)  0.1887 ( 50)
           0.2545 ( 51) -0.2822 ( 52)  0.1663 ( 56) -0.1564 ( 57) -0.1905 ( 64)
 CRD 19=   0.1347 (  6) -0.1104 ( 16) -0.1068 ( 21)  0.1123 ( 22)  0.1761 ( 31)
           0.1978 ( 34) -0.1073 ( 35) -0.2129 ( 36) -0.2814 ( 40)  0.2880 ( 41)
           0.1091 ( 48) -0.1082 ( 49)  0.4120 ( 50) -0.3877 ( 51) -0.1212 ( 59)
           0.1177 ( 61) -0.1596 ( 65)  0.1604 ( 66) -0.2005 ( 74) -0.2021 ( 75)
          -0.1476 ( 76)
 CRD 20=  -0.1010 ( 22)  0.1037 ( 23)  0.1801 ( 34) -0.1655 ( 36) -0.1826 ( 41)
           0.3295 ( 45) -0.3394 ( 46)  0.1286 ( 48) -0.1323 ( 49) -0.1273 ( 50)
          -0.3085 ( 53)  0.3068 ( 54) -0.1281 ( 74) -0.1279 ( 75)  0.2370 ( 94)
           0.2345 ( 95)  0.2151 ( 96) -0.1280 ( 98)  0.1723 ( 99)  0.1792 (100)
 CRD 21=   0.1826 (  5)  0.1963 (  8)  0.1564 (  9)  0.1578 ( 10) -0.1661 ( 13)
           0.1361 ( 27)  0.1162 ( 29)  0.1166 ( 30) -0.2351 ( 32) -0.1681 ( 35)
          -0.4619 ( 37)  0.3385 ( 40)  0.3336 ( 41) -0.1037 ( 56) -0.1381 ( 58)
          -0.2979 ( 60)
 CRD 22=  -0.4467 ( 14) -0.1358 ( 15) -0.1551 ( 16) -0.1307 ( 17) -0.2042 ( 18)
          -0.1974 ( 19)  0.1230 ( 20)  0.1905 ( 33)  0.2754 ( 44) -0.1814 ( 45)
          -0.1667 ( 46) -0.1292 ( 48) -0.1120 ( 49) -0.2256 ( 50) -0.2495 ( 51)
           0.3236 ( 52)  0.1185 ( 62)  0.1663 ( 63)  0.2168 ( 64)
 CRD 23=   0.2739 (  9) -0.2236 ( 10)  0.1353 ( 11) -0.1244 ( 12)  0.1349 ( 15)
          -0.1379 ( 16) -0.1485 ( 18)  0.1365 ( 19) -0.1124 ( 21)  0.1111 ( 22)
          -0.1600 ( 27)  0.1703 ( 29) -0.1166 ( 31)  0.2833 ( 40) -0.2376 ( 41)
           0.1801 ( 50) -0.1897 ( 51)  0.1360 ( 59) -0.1366 ( 61) -0.1035 ( 65)
           0.1043 ( 66)  0.1352 ( 72) -0.1653 ( 76) -0.1725 ( 77) -0.1650 ( 78)
          -0.1651 ( 79)  0.2077 ( 87)  0.1453 ( 88)  0.1489 ( 92)  0.1661 ( 97)
          -0.1321 ( 99) -0.1204 (100)  0.1037 (105)
 CRD 24=   0.1501 (  9) -0.1117 ( 10)  0.1222 ( 15) -0.1849 ( 16)  0.2895 ( 18)
          -0.3087 ( 19)  0.1010 ( 21) -0.1023 ( 22)  0.2122 ( 34) -0.2069 ( 36)
           0.1705 ( 48) -0.2090 ( 49) -0.1019 ( 50)  0.1847 ( 67)  0.1626 ( 73)
           0.1923 ( 82)  0.2145 ( 83) -0.1400 ( 94) -0.1396 ( 95) -0.1663 ( 96)
           0.1853 ( 99)  0.1900 (100)  0.1708 (102)  0.1929 (104)
 CRD 25=  -0.2340 ( 10)  0.2349 ( 15)  0.1347 ( 70)  0.1424 ( 80) -0.2892 ( 81)
          -0.2886 ( 84) -0.2892 ( 86)  0.1423 ( 89) -0.2898 ( 90) -0.2892 ( 91)
          -0.2898 ( 93) -0.2854 (101) -0.2854 (106) -0.2848 (107)
 CRD 26=   0.4587 (  1)  0.4725 (  2)  0.4836 (  3)  0.1288 (  4)  0.1069 ( 23)
          -0.1892 ( 28) -0.1910 ( 30) -0.1763 ( 35)  0.1826 ( 55)  0.1885 ( 56)
           0.1853 ( 57)
 CRD 27=  -0.1785 (  8) -0.5037 ( 11) -0.5031 ( 12) -0.4819 ( 13)  0.1850 ( 37)
           0.1686 ( 40)  0.1684 ( 41) -0.1782 ( 59) -0.1656 ( 60) -0.1782 ( 61)
 CRD 28=   0.1793 ( 17)  0.4838 ( 20)  0.5036 ( 21)  0.5036 ( 22) -0.1689 ( 50)
          -0.1689 ( 51) -0.1842 ( 52)  0.1662 ( 64)  0.1779 ( 65)  0.1779 ( 66)
 CRD 29=   0.1926 (  1)  0.1366 (  2)  0.3153 (  9) -0.3327 ( 10) -0.1206 ( 23)
           0.1359 ( 27) -0.1420 ( 29) -0.2800 ( 42)  0.2784 ( 43) -0.2361 ( 69)
          -0.2364 ( 71) -0.1224 ( 77) -0.1055 ( 78) -0.1053 ( 79) -0.2311 ( 92)
          -0.2309 ( 97) -0.2374 (103) -0.2372 (105) -0.1204 (108) -0.1035 (109)
          -0.1033 (110) -0.1229 (111) -0.1060 (112) -0.1058 (113)
 CRD 30=  -0.1440 (  1)  0.3620 ( 15) -0.3353 ( 16)  0.3037 ( 18) -0.3019 ( 19)
           0.1254 ( 23) -0.2114 ( 48)  0.2151 ( 49) -0.1429 ( 53)  0.1446 ( 54)
          -0.1783 ( 67) -0.1783 ( 73) -0.1338 ( 74) -0.1345 ( 75) -0.1737 ( 82)
          -0.1737 ( 83) -0.1849 (102) -0.1849 (104) -0.1216 (114) -0.1210 (115)
          -0.1189 (116) -0.1183 (117)
 CRD 31=  -0.1445 (  1)  0.1322 (  2)  0.1374 (  3) -0.1884 (  6) -0.3779 (  9)
          -0.4323 ( 10) -0.1107 ( 12)  0.2759 ( 13) -0.3723 ( 15) -0.3104 ( 16)
           0.2376 ( 31) -0.1051 ( 58) -0.1437 ( 60)  0.1055 ( 69)  0.1249 (112)
 CRD 32=   0.2522 ( 18)  0.2537 ( 19) -0.5983 ( 20)  0.2661 ( 21)  0.2675 ( 22)
           0.3154 ( 64) -0.1486 ( 65) -0.1494 ( 66) -0.1581 ( 94)  0.1592 ( 95)
           0.1888 (119) -0.1284 (120)  0.1296 (122) -0.1877 (123)
 CRD 33=  -0.2387 (  1)  0.2993 (  3)  0.3217 ( 11)  0.1953 ( 12) -0.5121 ( 13)
          -0.2010 ( 15) -0.1768 ( 16)  0.1066 ( 31)  0.1003 ( 56) -0.1381 ( 57)
          -0.1702 ( 59)  0.2694 ( 60) -0.1006 ( 61) -0.1528 ( 78)  0.1316 ( 79)
          -0.1515 (109)  0.1329 (110) -0.1433 (112)  0.1411 (113)
 CRD 34=  -0.1288 (  1)  0.5914 (  2) -0.4538 (  3)  0.1436 ( 11) -0.1443 ( 13)
          -0.3079 ( 55)  0.2423 ( 57)  0.1965 ( 81) -0.1302 ( 86) -0.1253 ( 90)
           0.2014 ( 93)  0.2094 (101) -0.1173 (106)
 CRD 35=  -0.1081 (  2)  0.4940 ( 11) -0.5463 ( 12)  0.1375 ( 21) -0.1291 ( 22)
          -0.2694 ( 59)  0.2954 ( 61)  0.2140 ( 77)  0.2108 (108) -0.1006 (110)
           0.2063 (111) -0.1051 (113)
 CRD 36=   0.1373 ( 11) -0.1267 ( 12) -0.5301 ( 21)  0.5297 ( 22)  0.2877 ( 65)
          -0.2875 ( 66) -0.2194 ( 96) -0.2132 (118) -0.2131 (121)
 CRD 37=  -0.5409 (  1)  0.1942 (  2)  0.3167 (  3)  0.1177 (  9)  0.1232 ( 10)
          -0.1708 ( 12)  0.1924 ( 13)  0.1774 ( 15)  0.1565 ( 16) -0.1196 ( 55)
           0.3146 ( 56) -0.1865 ( 57)  0.1874 ( 84) -0.1360 ( 86) -0.1553 ( 90)
           0.1681 ( 91) -0.1482 (106)  0.1753 (107) -0.1038 (113)
 CRD 38=   0.2020 (  9)  0.1968 ( 10) -0.1301 ( 15) -0.1637 ( 16)  0.5066 ( 18)
           0.5159 ( 19)  0.2183 ( 20) -0.1689 ( 21) -0.1674 ( 22)  0.1886 ( 63)
          -0.1003 ( 64)  0.1167 (116)  0.1602 (120) -0.1459 (122)
 CRD 39=  -0.3843 (  9) -0.3395 ( 10)  0.3632 ( 15)  0.3974 ( 16)  0.2411 ( 18)
           0.2305 ( 19) -0.1541 ( 58)  0.1692 ( 62)  0.1109 ( 63)
 CRD 40=  -0.1271 (  5) -0.3265 (  6) -0.1222 (  7)  0.2715 (  9)  0.3565 ( 16)
          -0.1073 ( 27)  0.4014 ( 31) -0.1298 ( 34)  0.1188 ( 58)  0.1191 ( 62)
           0.1202 ( 71) -0.1352 (100)  0.1080 (108)  0.1253 (109)  0.1142 (110)
          -0.1074 (114) -0.1170 (115) -0.1944 (116) -0.2039 (117) -0.1085 (119)
          -0.1099 (120) -0.1075 (121) -0.1198 (122) -0.1212 (123)
 CRD 41=   0.3034 (  6)  0.1130 (  7) -0.2817 ( 15)  0.1564 ( 16) -0.3050 ( 31)
           0.1015 ( 45)  0.1061 ( 54)  0.1059 ( 56)  0.1227 ( 67)  0.1844 ( 73)
           0.1316 ( 82) -0.1035 ( 90) -0.1294 ( 94) -0.1312 ( 95) -0.1091 ( 96)
          -0.1434 ( 99)  0.1418 (102) -0.2082 (114) -0.2029 (115) -0.1486 (116)
          -0.1434 (117) -0.1692 (118) -0.1913 (119) -0.1895 (120) -0.1678 (121)
          -0.1899 (122) -0.1881 (123)
 CRD 42=  -0.1745 (  6) -0.2940 (  9)  0.3120 ( 10)  0.1613 ( 15) -0.1577 ( 16)
          -0.1964 ( 18)  0.1958 ( 19) -0.1154 ( 29) -0.1260 ( 77) -0.1268 ( 78)
          -0.1266 ( 79) -0.2145 (108) -0.2154 (109) -0.2152 (110) -0.2418 (111)
          -0.2427 (112) -0.2425 (113) -0.1509 (118) -0.1511 (119) -0.1521 (120)
          -0.1479 (121) -0.1480 (122) -0.1490 (123)
 CRD 43=   0.1644 (  9) -0.1755 ( 10)  0.2154 ( 15) -0.2052 ( 16) -0.3089 ( 18)
           0.3088 ( 19)  0.1074 ( 74)  0.1034 ( 75)  0.1189 ( 77)  0.1128 ( 78)
           0.1152 ( 79) -0.1069 ( 94) -0.1076 ( 95) -0.1237 ( 96)  0.1140 ( 99)
           0.1014 (100)  0.1637 (108)  0.1576 (109)  0.1600 (110)  0.1789 (111)
           0.1728 (112)  0.1752 (113)  0.1486 (114)  0.1526 (115)  0.1360 (116)
           0.1400 (117) -0.1936 (118) -0.1774 (119) -0.1767 (120) -0.1963 (121)
          -0.1802 (122) -0.1795 (123)
 CRD 44=  -0.1508 (  2)  0.1789 (  3)  0.1886 (  5) -0.1988 (  7)  0.1212 ( 13)
          -0.1207 ( 24)  0.1050 ( 26)  0.1121 ( 28) -0.1062 ( 34) -0.1020 ( 36)
          -0.1183 ( 42) -0.1345 ( 43)  0.1334 ( 48)  0.1024 ( 49) -0.1563 ( 55)
           0.1280 ( 57) -0.4275 ( 70)  0.1406 ( 71)  0.1367 ( 73) -0.2381 ( 80)
          -0.1006 ( 84) -0.1023 ( 86) -0.2517 ( 89) -0.1022 ( 90) -0.1005 ( 91)
          -0.1092 (100)  0.1699 (101) -0.1155 (109)  0.1075 (115) -0.1592 (116)
 CRD 45=   0.1527 (  1)  0.1497 (  2)  0.1153 (  3) -0.1169 (  5)  0.1142 (  6)
          -0.1203 (  9) -0.1077 ( 16) -0.7491 ( 23)  0.1171 ( 28)  0.1352 ( 30)
           0.1251 ( 35) -0.1184 ( 55) -0.1107 ( 56) -0.1484 ( 57)  0.1002 (108)
           0.1155 (109)  0.1154 (110)
 CRD 46=  -0.1715 (  7) -0.1977 ( 17)  0.2969 ( 20)  0.1932 ( 21)  0.1942 ( 22)
           0.1514 ( 45)  0.1514 ( 46)  0.2219 ( 50)  0.2212 ( 51)  0.2589 ( 52)
          -0.1842 ( 53) -0.1864 ( 54) -0.1773 ( 64) -0.2627 ( 65) -0.2620 ( 66)
          -0.1007 ( 70) -0.1298 ( 74)  0.1394 ( 75) -0.1813 (115)  0.1816 (116)
          -0.1006 (120)
 CRD 47=   0.1966 (  5)  0.2922 (  8) -0.2129 ( 11) -0.2214 ( 12) -0.2736 ( 13)
          -0.1011 ( 27) -0.1092 ( 29) -0.2610 ( 37) -0.2401 ( 40) -0.2409 ( 41)
           0.1350 ( 42)  0.1279 ( 43)  0.2663 ( 59)  0.2169 ( 60)  0.2589 ( 61)
           0.1334 ( 69) -0.1874 ( 70) -0.1538 ( 80) -0.1674 ( 89) -0.1055 ( 92)
           0.1276 ( 97)  0.1494 (105)
 CRD 48=   0.2471 (  1)  0.2180 (  2)  0.2204 (  3) -0.4064 (  4) -0.1226 (  6)
           0.4037 ( 23)  0.2423 ( 28)  0.2423 ( 30) -0.1404 ( 31)  0.2527 ( 35)
          -0.2541 ( 55) -0.2311 ( 56) -0.2520 ( 57)  0.1118 (102) -0.1192 (103)
           0.1233 (104) -0.1164 (105)
 CRD 49=   0.1479 (  1) -0.1098 (  3) -0.3479 (  6)  0.2300 (  7)  0.1551 ( 10)
           0.1232 ( 15) -0.2801 ( 17)  0.1298 ( 21)  0.1311 ( 22)  0.1105 ( 31)
          -0.1011 ( 36)  0.1714 ( 48)  0.1161 ( 49)  0.1052 ( 50)  0.1181 ( 51)
           0.1503 ( 56) -0.1631 ( 64)  0.1353 ( 70)  0.1776 ( 73)  0.1399 ( 80)
           0.1104 ( 82) -0.1159 ( 83)  0.1430 ( 84)  0.1717 ( 89) -0.1494 (104)
           0.1599 (107)  0.1121 (112)  0.1326 (113)  0.1239 (120)
 CRD 50=   0.1390 (  1) -0.1183 (  2) -0.1210 (  3)  0.1121 (  4) -0.3276 (  6)
          -0.1455 (  8) -0.1014 (  9)  0.1704 ( 10)  0.1119 ( 11)  0.1352 ( 15)
           0.2789 ( 17) -0.1212 ( 21) -0.1170 ( 22)  0.1444 ( 34)  0.1473 ( 36)
          -0.1408 ( 49) -0.1055 ( 50)  0.1761 ( 56) -0.1061 ( 61)  0.1519 ( 64)
           0.1341 ( 67) -0.1248 ( 70) -0.1204 ( 71) -0.1885 ( 80)  0.1112 ( 84)
          -0.1238 ( 89) -0.1673 ( 90) -0.1414 ( 99)  0.1015 (104) -0.1638 (106)
           0.1068 (112)  0.1074 (113) -0.1398 (114) -0.1847 (115)  0.1159 (122)
 CRD 51=  -0.2107 (  5) -0.1157 (  7)  0.3761 (  8) -0.1920 ( 11) -0.1693 ( 12)
           0.1190 ( 13) -0.1020 ( 14)  0.1785 ( 17)  0.1847 ( 27)  0.1789 ( 29)
          -0.1391 ( 42) -0.1337 ( 43)  0.2520 ( 60)  0.1187 ( 64)  0.1381 ( 70)
           0.1828 ( 80)  0.2142 ( 89)  0.1243 (101) -0.1020 (105)  0.1017 (107)
          -0.1297 (108) -0.2396 (109)  0.1460 (111)  0.2307 (113)  0.1234 (122)
 CRD 52=  -0.1408 (  9)  0.1483 ( 10)  0.1118 ( 11) -0.1547 ( 12) -0.1718 ( 15)
           0.1755 ( 16)  0.2794 ( 18) -0.2795 ( 19) -0.2091 ( 21)  0.2050 ( 22)
           0.1011 ( 34) -0.1028 ( 36)  0.1061 ( 59) -0.1050 ( 61) -0.1620 ( 65)
           0.1626 ( 66) -0.1330 ( 77)  0.1629 ( 96)  0.1014 (110)  0.1055 (112)
           0.1306 (113)  0.1917 (114)  0.1894 (115)  0.1948 (116)  0.1925 (117)
          -0.1967 (119) -0.1988 (120) -0.1946 (122) -0.1968 (123)
 CRD 53=   0.1521 (  1) -0.3344 (  4) -0.1367 (  8)  0.2344 (  9) -0.1330 ( 11)
           0.1013 ( 12)  0.1016 ( 13)  0.1617 ( 16) -0.1950 ( 23)  0.1498 ( 25)
           0.2028 ( 31) -0.1138 ( 57) -0.1494 ( 58) -0.1493 ( 59) -0.1383 ( 62)
           0.1168 ( 69)  0.1331 ( 88)  0.1265 ( 97) -0.1247 ( 98)  0.1138 (100)
          -0.1263 (102)  0.1512 (103) -0.2196 (104)  0.2838 (105) -0.2124 (109)
          -0.1358 (110)  0.1684 (116)  0.1169 (117)
 CRD 54=   0.2289 (  5)  0.1279 ( 12) -0.1437 ( 13) -0.3347 ( 14)  0.1003 ( 17)
           0.1171 ( 18)  0.2379 ( 20) -0.1722 ( 21) -0.1131 ( 22)  0.1411 ( 45)
           0.1219 ( 46)  0.1060 ( 49) -0.1399 ( 60) -0.1459 ( 63)  0.2179 ( 64)
          -0.1036 ( 65)  0.1291 ( 80)  0.1403 ( 89) -0.1415 ( 94)  0.1263 ( 95)
           0.1272 (101) -0.1395 (104)  0.1241 (109) -0.1747 (113) -0.1085 (118)
          -0.2723 (120)  0.1193 (121)  0.2234 (122)
 CRD 55=   0.1590 (  2) -0.1063 (  3) -0.1214 (  5)  0.2318 (  7)  0.1142 ( 10)
          -0.1673 ( 12)  0.1721 ( 13) -0.1226 ( 15) -0.1588 ( 17)  0.1464 ( 19)
           0.1878 ( 20) -0.1685 ( 22) -0.1089 ( 57) -0.1248 ( 58)  0.1085 ( 60)
          -0.1571 ( 61)  0.1129 ( 62) -0.1634 ( 63)  0.1040 ( 64) -0.1745 ( 66)
          -0.1007 ( 70) -0.1170 ( 75) -0.1068 ( 77) -0.1518 ( 80) -0.1236 ( 81)
          -0.1254 ( 89)  0.1007 ( 95) -0.1124 ( 96) -0.1736 (101)  0.1165 (105)
          -0.1171 (108)  0.1836 (113)  0.1700 (115) -0.1699 (116) -0.1241 (118)
           0.2035 (122)
 CRD 56=  -0.1021 (  3)  0.1716 (  4)  0.1148 (  9) -0.2486 ( 11)  0.1699 ( 12)
          -0.1956 ( 16) -0.1311 ( 17)  0.1275 ( 18) -0.1972 ( 21)  0.1725 ( 22)
           0.1225 ( 39) -0.1074 ( 49) -0.1971 ( 59)  0.1306 ( 61)  0.1161 ( 62)
          -0.1889 ( 65)  0.1011 ( 66)  0.1190 ( 74)  0.2225 ( 77) -0.1485 ( 85)
           0.2012 ( 96)  0.1621 (104)  0.1166 (108) -0.1680 (109)  0.1481 (111)
          -0.1365 (112) -0.1412 (116)  0.1008 (118) -0.1447 (120)  0.1521 (121)
 CRD 57=   0.2308 (  2) -0.2923 (  3)  0.2348 (  8) -0.1947 ( 13)  0.1250 ( 28)
          -0.1283 ( 42) -0.1334 ( 43)  0.1787 ( 55) -0.2277 ( 57)  0.1049 ( 58)
          -0.1021 ( 60)  0.1234 ( 61) -0.1619 ( 70)  0.1683 ( 71) -0.1130 ( 79)
          -0.1419 ( 80) -0.1726 ( 81)  0.1821 ( 84)  0.1077 ( 86) -0.1140 ( 89)
           0.1573 ( 91)  0.1338 ( 92) -0.1974 ( 93) -0.2111 (101)  0.1639 (103)
           0.1436 (107) -0.1436 (110) -0.1118 (113)
 CRD 58=   0.2081 (  1) -0.1739 (  2)  0.1366 (  8) -0.1371 ( 13)  0.2474 ( 14)
          -0.1383 ( 15) -0.2550 ( 17)  0.1116 ( 34) -0.1052 ( 38) -0.1760 ( 48)
          -0.1056 ( 49)  0.1431 ( 53) -0.1459 ( 55)  0.1505 ( 56)  0.1113 ( 62)
          -0.1290 ( 63)  0.1035 ( 71) -0.1993 ( 73)  0.1090 ( 74) -0.1459 ( 75)
          -0.1508 ( 82)  0.1086 ( 84) -0.1381 ( 86) -0.2024 ( 90) -0.1947 (102)
           0.1046 (103) -0.1599 (106) -0.1058 (110) -0.1103 (114)  0.1446 (115)
           0.1807 (117)
 CRD 59=  -0.1585 (  1) -0.1575 (  7)  0.1363 ( 14)  0.1687 ( 15) -0.1551 ( 17)
           0.2378 ( 20) -0.1563 ( 21)  0.1072 ( 33)  0.1154 ( 36) -0.1331 ( 45)
          -0.1465 ( 46)  0.1239 ( 51) -0.1270 ( 52)  0.1023 ( 53)  0.1650 ( 54)
          -0.1272 ( 56) -0.1852 ( 62)  0.1569 ( 64) -0.1504 ( 65)  0.1311 ( 73)
           0.1034 ( 82)  0.1238 ( 86)  0.1149 ( 90) -0.1722 ( 94)  0.1302 ( 95)
          -0.1385 ( 99)  0.1428 (100)  0.1024 (106) -0.2376 (114) -0.1081 (115)
           0.1732 (117)  0.1693 (118)  0.2439 (119) -0.2639 (123)
 CRD 60=  -0.1481 (  4)  0.1208 (  9)  0.2042 ( 11) -0.1231 ( 13) -0.1565 ( 16)
           0.1305 ( 19) -0.1100 ( 21)  0.2092 ( 22) -0.1326 ( 40) -0.1214 ( 43)
          -0.1354 ( 50) -0.1237 ( 53)  0.1583 ( 59)  0.1603 ( 66)  0.1038 ( 67)
           0.1698 ( 76) -0.1103 ( 77)  0.1645 ( 78)  0.1305 ( 83) -0.1572 ( 87)
          -0.1567 ( 95)  0.1245 ( 96) -0.1084 ( 98) -0.2472 (108) -0.1462 (110)
           0.1944 (112) -0.1303 (116)  0.1233 (118) -0.1579 (119)  0.2573 (121)
           0.1141 (123)
 CRD 61=   0.1701 (  1) -0.1166 (  3)  0.1364 (  5)  0.1037 (  6) -0.1903 ( 10)
          -0.2020 ( 12)  0.1519 ( 13) -0.1205 ( 21) -0.1134 ( 32) -0.1044 ( 35)
          -0.1332 ( 37)  0.1444 ( 41)  0.1280 ( 42)  0.1260 ( 56)  0.1688 ( 58)
           0.1253 ( 60) -0.1495 ( 61)  0.1803 ( 71)  0.1995 ( 79)  0.1142 ( 84)
          -0.1096 ( 86) -0.1209 ( 87)  0.1850 ( 91) -0.1077 ( 94)  0.1565 (107)
           0.2493 (110) -0.2890 (111) -0.2367 (112)  0.1618 (118) -0.1089 (123)
 CRD 62=  -0.1187 (  2) -0.2235 (  5)  0.1706 (  7)  0.1110 ( 14)  0.1562 ( 17)
          -0.1431 ( 18) -0.1390 ( 19)  0.1094 ( 20) -0.1984 ( 44) -0.1298 ( 52)
          -0.1064 ( 58)  0.1033 ( 62)  0.2312 ( 63)  0.1070 ( 64) -0.1415 ( 74)
           0.1382 ( 75)  0.1268 ( 93)  0.1070 ( 99) -0.1692 (106) -0.1137 (108)
          -0.1451 (110)  0.1431 (112)  0.2431 (114) -0.2404 (117)  0.1372 (118)
           0.2254 (119) -0.1292 (121) -0.2264 (123)
 CRD 63=   0.1127 (  2) -0.1371 (  3)  0.1351 (  5) -0.2051 (  7) -0.1718 (  8)
           0.1161 (  9)  0.1610 ( 14) -0.1676 ( 24)  0.1346 ( 26)  0.1246 ( 28)
          -0.1181 ( 30)  0.1363 ( 32) -0.1124 ( 39)  0.1419 ( 47) -0.1403 ( 58)
           0.1558 ( 67)  0.2345 ( 69)  0.2512 ( 80) -0.2352 ( 81) -0.1076 ( 82)
          -0.1383 ( 88)  0.1883 ( 89) -0.2106 ( 93)  0.1499 ( 97) -0.1359 (102)
          -0.2209 (103)  0.2041 (106)  0.2299 (107)
 CRD 64=   0.1349 (  4) -0.1347 (  5)  0.1861 (  9) -0.1055 ( 10)  0.1123 ( 11)
          -0.1335 ( 14)  0.1337 ( 15)  0.1659 ( 18)  0.1191 ( 33)  0.1018 ( 38)
           0.1045 ( 39) -0.1085 ( 40)  0.1059 ( 42) -0.1078 ( 43) -0.1208 ( 62)
          -0.1247 ( 67) -0.1262 ( 68)  0.1047 ( 69) -0.1234 ( 72)  0.1192 ( 74)
           0.1863 ( 78)  0.1436 ( 79) -0.1560 ( 83) -0.1575 ( 85) -0.1866 ( 88)
          -0.1115 ( 89)  0.1069 ( 93)  0.1633 ( 94)  0.1170 ( 95)  0.1370 ( 97)
          -0.1967 ( 99)  0.1922 (102) -0.2089 (108) -0.1288 (111)  0.1296 (117)
          -0.1852 (118)
 CRD 65=  -0.1371 (  5)  0.1246 (  6) -0.1481 (  7)  0.1328 ( 10) -0.1170 ( 14)
           0.1634 ( 16)  0.1549 ( 19) -0.1366 ( 25)  0.1183 ( 32)  0.1273 ( 33)
          -0.1044 ( 35)  0.1628 ( 38) -0.1164 ( 58) -0.1237 ( 62) -0.2163 ( 67)
           0.1638 ( 69)  0.1568 ( 72) -0.1502 ( 75) -0.1176 ( 81) -0.1027 ( 83)
           0.1088 ( 85) -0.1924 ( 86) -0.1070 ( 89)  0.1630 ( 91) -0.1255 ( 94)
          -0.1609 ( 95)  0.1690 ( 98)  0.2116 (100)  0.1311 (102) -0.1806 (103)
           0.1265 (111) -0.1192 (114)  0.1641 (121)
 CRD 66=   0.1279 (  4) -0.1806 (  6) -0.1176 ( 10) -0.1583 ( 15)  0.1286 ( 16)
          -0.1076 ( 24) -0.1227 ( 26)  0.1132 ( 27) -0.1041 ( 29)  0.1343 ( 34)
          -0.1188 ( 36)  0.1122 ( 39)  0.1218 ( 47) -0.1106 ( 48)  0.2211 ( 68)
          -0.1811 ( 72) -0.2043 ( 74) -0.1950 ( 75)  0.1487 ( 78)  0.1546 ( 79)
          -0.2360 ( 82) -0.1984 ( 83)  0.1434 ( 86) -0.1318 ( 88) -0.1502 ( 91)
           0.2256 ( 92) -0.1327 ( 94) -0.1298 ( 95)  0.2003 ( 97)  0.1751 ( 98)
           0.1579 ( 99)  0.1369 (100) -0.1030 (111)

 THE DETERMINANT OF THE G MATRIX IS 10**(   -24)


                     --------------------
                     INTERNAL COORDINATES
                     --------------------

                 - - ATOMS - -         COORDINATE      COORDINATE
 NO.   TYPE    I  J  K  L  M  N        (BOHR,RAD)       (ANG,DEG)
 ----------------------------------------------------------------
   1 STRETCH   1 11                     2.0598546       1.0900282
   2 STRETCH   1 10                     2.0598023       1.0900005
   3 STRETCH   1  9                     2.0598822       1.0900428
   4 STRETCH   1  2                     2.8912864       1.5300030
   5 STRETCH   2  3                     2.8914211       1.5300743
   6 STRETCH   2  8                     2.7005233       1.4290555
   7 STRETCH   2  5                     2.8912409       1.5299789
   8 STRETCH   3  4                     2.8912421       1.5299795
   9 STRETCH   3 13                     2.0596997       1.0899462
  10 STRETCH   3 12                     2.0598186       1.0900091
  11 STRETCH   4 15                     2.0598538       1.0900278
  12 STRETCH   4 14                     2.0598186       1.0900091
  13 STRETCH   4 16                     2.0598023       1.0900005
  14 STRETCH   5  6                     2.8912813       1.5300003
  15 STRETCH   5 18                     2.0598546       1.0900282
  16 STRETCH   5 17                     2.0597481       1.0899718
  17 STRETCH   6  7                     2.8912786       1.5299989
  18 STRETCH   6 20                     2.0597078       1.0899505
  19 STRETCH   6 19                     2.0597481       1.0899718
  20 STRETCH   7 23                     2.0598509       1.0900262
  21 STRETCH   7 22                     2.0596809       1.0899363
  22 STRETCH   7 21                     2.0597636       1.0899800
  23 STRETCH   8 24                     1.8273084       0.9669701
  24 BEND      1  2  3                  1.9106010     109.4693725
  25 BEND      1  2  8                  1.9106113     109.4699658
  26 BEND      1  2  5                  1.9106762     109.4736834
  27 BEND      2  3 12                  1.9105595     109.4669973
  28 BEND      2  1  9                  1.9106994     109.4750128
  29 BEND      2  3 13                  1.9105775     109.4680287
  30 BEND      2  1 10                  1.9106118     109.4699901
  31 BEND      2  8 24                  1.9896081     113.9961459
  32 BEND      2  3  4                  1.9106122     109.4700174
  33 BEND      2  5  6                  1.9106038     109.4695338
  34 BEND      2  5 18                  1.9105848     109.4684441
  35 BEND      2  1 11                  1.9106793     109.4738577
  36 BEND      2  5 17                  1.9106054     109.4696283
  37 BEND      3  4 16                  1.9106066     109.4696940
  38 BEND      3  2  5                  1.9106477     109.4720516
  39 BEND      3  2  8                  1.9105973     109.4691600
  40 BEND      3  4 15                  1.9106856     109.4742223
  41 BEND      3  4 14                  1.9106545     109.4724402
  42 BEND      4  3 12                  1.9106545     109.4724402
  43 BEND      4  3 13                  1.9106673     109.4731746
  44 BEND      5  6  7                  1.9105813     109.4682465
  45 BEND      5  6 19                  1.9106733     109.4735168
  46 BEND      5  6 20                  1.9106922     109.4745989
  47 BEND      5  2  8                  1.9106659     109.4730902
  48 BEND      6  5 17                  1.9106733     109.4735168
  49 BEND      6  5 18                  1.9106316     109.4711263
  50 BEND      6  7 21                  1.9106478     109.4720534
  51 BEND      6  7 22                  1.9107440     109.4775671
  52 BEND      6  7 23                  1.9105926     109.4688947
  53 BEND      7  6 19                  1.9105647     109.4672963
  54 BEND      7  6 20                  1.9106955     109.4747876
  55 BEND      9  1 11                  1.9105474     109.4663007
  56 BEND      9  1 10                  1.9106571     109.4725895
  57 BEND     10  1 11                  1.9106045     109.4695729
  58 BEND     12  3 13                  1.9107283     109.4766652
  59 BEND     14  4 16                  1.9105544     109.4667021
  60 BEND     14  4 15                  1.9106760     109.4736696
  61 BEND     15  4 16                  1.9106223     109.4705952
  62 BEND     17  5 18                  1.9107005     109.4750743
  63 BEND     19  6 20                  1.9105923     109.4688776
  64 BEND     21  7 22                  1.9106633     109.4729451
  65 BEND     21  7 23                  1.9105276     109.4651698
  66 BEND     22  7 23                  1.9106240     109.4706930
  67 TORSION   1  2  5 18              -1.0471445     -59.9969624
  68 TORSION   1  2  5  6               1.0472009      60.0001890
  69 TORSION   1  2  3 12               1.1344754      65.0006506
  70 TORSION   1  2  8 24              -3.1415732    -179.9988851
  71 TORSION   1  2  3 13              -3.0542777    -174.9972219
  72 TORSION   1  2  3  4              -0.9598878     -54.9975202
  73 TORSION   1  2  5 17              -3.1415753    -179.9990068
  74 TORSION   2  5  6 19              -1.0472251     -60.0015771
  75 TORSION   2  5  6 20               1.0471806      59.9990283
  76 TORSION   2  5  6  7              -3.1415290    -179.9963556
  77 TORSION   2  3  4 16              -3.1415829    -179.9994405
  78 TORSION   2  3  4 14              -1.0472877     -60.0051624
  79 TORSION   2  3  4 15               1.0472049      60.0004223
  80 TORSION   3  2  8 24               1.0472919      60.0054084
  81 TORSION   3  2  1 11              -1.0472170     -60.0011168
  82 TORSION   3  2  5 17              -1.0471845     -59.9992532
  83 TORSION   3  2  5 18               1.0472463      60.0027912
  84 TORSION   3  2  1 10              -3.1415920    -179.9999600
  85 TORSION   3  2  5  6               3.1415917     179.9999426
  86 TORSION   3  2  1  9               1.0471416      59.9967947
  87 TORSION   4  3  2  5              -3.0543247    -174.9999136
  88 TORSION   4  3  2  8               1.1344387      64.9985496
  89 TORSION   5  2  8 24              -1.0471189     -59.9954924
  90 TORSION   5  2  1  9               3.1415610     179.9981889
  91 TORSION   5  2  1 10              -1.0471725     -59.9985658
  92 TORSION   5  2  3 13               1.1344707      65.0003847
  93 TORSION   5  2  1 11               1.0472024      60.0002774
  94 TORSION   5  6  7 21              -1.0472628     -60.0037393
  95 TORSION   5  6  7 22               1.0472459      60.0027697
  96 TORSION   5  6  7 23              -3.1415126    -179.9954145
  97 TORSION   5  2  3 12              -0.9599615     -55.0017428
  98 TORSION   6  5  2  8              -1.0472137     -60.0009273
  99 TORSION   7  6  5 17               1.0472887      60.0052215
 100 TORSION   7  6  5 18              -1.0472123     -60.0008468
 101 TORSION   8  2  1 11              -3.1415349    -179.9966931
 102 TORSION   8  2  5 17               1.0471954      59.9998769
 103 TORSION   8  2  3 13              -0.9599512     -55.0011521
 104 TORSION   8  2  5 18              -3.1415591    -179.9980787
 105 TORSION   8  2  3 12              -3.0543834    -175.0032796
 106 TORSION   8  2  1  9              -1.0471763     -59.9987816
 107 TORSION   8  2  1 10               1.0472755      60.0044637
 108 TORSION  12  3  4 16               1.0472974      60.0057219
 109 TORSION  12  3  4 14               3.1415927     180.0000000
 110 TORSION  12  3  4 15              -1.0471001     -59.9944153
 111 TORSION  13  3  4 16              -1.0472480     -60.0028902
 112 TORSION  13  3  4 14               1.0470472      59.9913879
 113 TORSION  13  3  4 15               3.1415398     179.9969726
 114 TORSION  17  5  6 20              -1.0471870     -59.9993946
 115 TORSION  17  5  6 19               3.1415927     180.0000000
 116 TORSION  18  5  6 20               3.1414973     179.9945371
 117 TORSION  18  5  6 19               1.0470916      59.9939317
 118 TORSION  19  6  7 23               1.0473022      60.0059974
 119 TORSION  19  6  7 22              -1.0471246     -59.9958184
 120 TORSION  19  6  7 21               3.1415520     179.9976725
 121 TORSION  20  6  7 23              -1.0470390     -59.9909140
 122 TORSION  20  6  7 22              -3.1414658    -179.9927297
 123 TORSION  20  6  7 21               1.0472108      60.0007612

     ------------------------------------------
     THE POINT GROUP IS C1 , NAXIS= 1, ORDER= 1
     ------------------------------------------

     DIMENSIONS OF THE SYMMETRY SUBSPACES ARE
 A   =  248

 ..... DONE SETTING UP THE RUN .....
 STEP CPU TIME =     0.02 TOTAL CPU TIME =        0.0 (    0.0 MIN)
 TOTAL WALL CLOCK TIME=        0.0 SECONDS, CPU UTILIZATION IS  66.67%


          -----------------------------
          STATIONARY POINT LOCATION RUN
          -----------------------------

 OBTAINING INITIAL HESSIAN, HESS=GUESS   
 DIAGONAL GUESS HESSIAN IN INTERNAL COORDS IS
     1  0.3463     2  0.3464     3  0.3463     4  0.3672     5  0.3671
     6  0.3608     7  0.3672     8  0.3672     9  0.3464    10  0.3464
    11  0.3463    12  0.3464    13  0.3464    14  0.3672    15  0.3463
    16  0.3464    17  0.3672    18  0.3464    19  0.3464    20  0.3464
    21  0.3464    22  0.3464    23  0.3553    24  0.2485    25  0.2430
    26  0.2485    27  0.2241    28  0.2241    29  0.2241    30  0.2241
    31  0.2143    32  0.2485    33  0.2485    34  0.2241    35  0.2241
    36  0.2241    37  0.2241    38  0.2485    39  0.2430    40  0.2241
    41  0.2241    42  0.2241    43  0.2241    44  0.2485    45  0.2241
    46  0.2241    47  0.2430    48  0.2241    49  0.2241    50  0.2241
    51  0.2241    52  0.2241    53  0.2241    54  0.2241    55  0.2034
    56  0.2034    57  0.2034    58  0.2034    59  0.2034    60  0.2034
    61  0.2034    62  0.2034    63  0.2034    64  0.2034    65  0.2034
    66  0.2034    67  0.2500    68  0.2500    69  0.2500    70  0.2500
    71  0.2500    72  0.2500    73  0.2500    74  0.2500    75  0.2500
    76  0.2500    77  0.2500    78  0.2500    79  0.2500    80  0.2500
    81  0.2500    82  0.2500    83  0.2500    84  0.2500    85  0.2500
    86  0.2500    87  0.2500    88  0.2500    89  0.2500    90  0.2500
    91  0.2500    92  0.2500    93  0.2500    94  0.2500    95  0.2500
    96  0.2500    97  0.2500    98  0.2500    99  0.2500   100  0.2500
   101  0.2500   102  0.2500   103  0.2500   104  0.2500   105  0.2500
   106  0.2500   107  0.2500   108  0.2500   109  0.2500   110  0.2500
   111  0.2500   112  0.2500   113  0.2500   114  0.2500   115  0.2500
   116  0.2500   117  0.2500   118  0.2500   119  0.2500   120  0.2500
   121  0.2500   122  0.2500   123  0.2500
 TRANSFORMING HESSIAN TO SYMMETRY COORDINATES

          PARAMETERS CONTROLLING GEOMETRY SEARCH ARE
          METHOD =QA                  UPHESS =BFGS    
          NNEG   =         0          NFRZ   =         3
          NSTEP  =        50          IFOLOW =         1
          HESS   =GUESS               RESTAR =         F
          IHREP  =         0          HSSEND =         F
          NPRT   =         0          NPUN   =         0
          OPTTOL = 5.000E-04          RMIN   = 1.500E-03
          RMAX   = 1.000E-01          RLIM   = 7.000E-02
          DXMAX  = 3.000E-01          PURIFY =         F
          MOVIE  =         F          TRUPD  =         T
          TRMAX  = 5.000E-01          TRMIN  = 5.000E-02
          ITBMAT =         5          STPT   =         F
          STSTEP = 1.000E-02          PROJCT=          F
          FROZEN COORD(S)=   1   2   3


      ***** EQUILIBRIUM GEOMETRY LOCATED *****
            (SUBJECT TO   3 CONSTRAINT(S))
 COORDINATES OF ALL ATOMS ARE (ANGS)
   ATOM   CHARGE       X              Y              Z
 ------------------------------------------------------------
 C           6.0   0.6200651849   1.3256694542   0.7781260837
 C           6.0   0.4773501229   0.0241446913  -0.0088872623
 C           6.0   1.6285474758  -0.9231233198   0.3550913959
 C           6.0   2.9641166456  -0.2045596126   0.1643997024
 C           6.0  -0.8901344329  -0.6060898112   0.2495591813
 C           6.0  -2.0546783752   0.2597048659  -0.2339830891
 C           6.0  -3.3862135967  -0.2908187836   0.2501886679
 O           8.0   0.5825846268   0.3541707858  -1.3888018480
 H           1.0   1.5734433063   1.7932689299   0.5862773542
 H           1.0  -0.1493113006   2.0376742518   0.5218232969
 H           1.0   0.5534936448   1.1078290080   1.8409188039
 H           1.0   1.5150174143  -1.2707843661   1.3797074682
 H           1.0   1.5706339650  -1.8076604357  -0.2787902698
 H           1.0   2.9459976000   0.3434379349  -0.7700615058
 H           1.0   3.1087045406   0.5148948220   0.9629059252
 H           1.0   3.8118412204  -0.8762052010   0.1672353405
 H           1.0  -0.9429818441  -1.5729329743  -0.2523133553
 H           1.0  -0.9923953141  -0.8010310270   1.3146096579
 H           1.0  -1.9452891780   1.2776327608   0.1207455729
 H           1.0  -2.0338422738   0.3127117730  -1.3189005793
 H           1.0  -3.5354580424  -1.3065673058  -0.1053973752
 H           1.0  -3.4007135417  -0.3085837150   1.3369958981
 H           1.0  -4.2154378843   0.3206564629  -0.0906094630
 H           1.0   0.5265944818  -0.4423788964  -1.8927750670


                     --------------------
                     INTERNAL COORDINATES
                     --------------------

                 - - ATOMS - -         COORDINATE      COORDINATE
 NO.   TYPE    I  J  K  L  M  N        (BOHR,RAD)       (ANG,DEG)
 ----------------------------------------------------------------
   1 STRETCH   1 11                     2.0539979       1.0869290
   2 STRETCH   1 10                     2.0393130       1.0791581
   3 STRETCH   1  9                     2.0391405       1.0790667
   4 STRETCH   1  2                     2.8868460       1.5276532
   5 STRETCH   2  3                     2.9000076       1.5346180
   6 STRETCH   2  8                     2.6885666       1.4227283
   7 STRETCH   2  5                     2.8870190       1.5277448
   8 STRETCH   3  4                     2.8885265       1.5285425
   9 STRETCH   3 13                     2.0593382       1.0897549
  10 STRETCH   3 12                     2.0558928       1.0879317
  11 STRETCH   4 15                     2.0494011       1.0844964
  12 STRETCH   4 14                     2.0474092       1.0834424
  13 STRETCH   4 16                     2.0438352       1.0815511
  14 STRETCH   5  6                     2.8904631       1.5295673
  15 STRETCH   5 18                     2.0551949       1.0875624
  16 STRETCH   5 17                     2.0609752       1.0906212
  17 STRETCH   6  7                     2.8724361       1.5200278
  18 STRETCH   6 20                     2.0530199       1.0864114
  19 STRETCH   6 19                     2.0475210       1.0835016
  20 STRETCH   7 23                     2.0507300       1.0851996
  21 STRETCH   7 22                     2.0542250       1.0870491
  22 STRETCH   7 21                     2.0531683       1.0864899
  23 STRETCH   8 24                     1.7843810       0.9442538
  24 BEND      1  2  3                  1.9109449     109.4890768
  25 BEND      1  2  8                  1.8703925     107.1655954
  26 BEND      1  2  5                  1.9261605     110.3608690
  27 BEND      2  3 12                  1.9202115     110.0200164
  28 BEND      2  1  9                  1.9392124     111.1086863
  29 BEND      2  3 13                  1.8999044     108.8565025
  30 BEND      2  1 10                  1.9532043     111.9103620
  31 BEND      2  8 24                  1.8939910     108.5176919
  32 BEND      2  3  4                  1.9131276     109.6141351
  33 BEND      2  5  6                  1.9763243     113.2350435
  34 BEND      2  5 18                  1.9005127     108.8913558
  35 BEND      2  1 11                  1.9042036     109.1028273
  36 BEND      2  5 17                  1.9084072     109.3436809
  37 BEND      3  4 16                  1.9742459     113.1159563
  38 BEND      3  2  5                  1.9570275     112.1294147
  39 BEND      3  2  8                  1.8941419     108.5263340
  40 BEND      3  4 15                  1.9139919     109.6636606
  41 BEND      3  4 14                  1.9079041     109.3148499
  42 BEND      4  3 12                  1.9378835     111.0325438
  43 BEND      4  3 13                  1.9341800     110.8203520
  44 BEND      5  6  7                  1.9403917     111.1762567
  45 BEND      5  6 19                  1.9298821     110.5740965
  46 BEND      5  6 20                  1.9057347     109.1905563
  47 BEND      5  2  8                  1.9028423     109.0248319
  48 BEND      6  5 17                  1.8959253     108.6285181
  49 BEND      6  5 18                  1.9171372     109.8438698
  50 BEND      6  7 21                  1.9333687     110.7738658
  51 BEND      6  7 22                  1.9135278     109.6370653
  52 BEND      6  7 23                  1.9447060     111.4234451
  53 BEND      7  6 19                  1.9011916     108.9302561
  54 BEND      7  6 20                  1.9311036     110.6440864
  55 BEND      9  1 11                  1.8910479     108.3490609
  56 BEND      9  1 10                  1.8773414     107.5637413
  57 BEND     10  1 11                  1.8973644     108.7109727
  58 BEND     12  3 13                  1.8576047     106.4329105
  59 BEND     14  4 16                  1.9065363     109.2364807
  60 BEND     14  4 15                  1.8773067     107.5617488
  61 BEND     15  4 16                  1.8813053     107.7908513
  62 BEND     17  5 18                  1.8620851     106.6896180
  63 BEND     19  6 20                  1.8537223     106.2104669
  64 BEND     21  7 22                  1.8860906     108.0650312
  65 BEND     21  7 23                  1.8955110     108.6047795
  66 BEND     22  7 23                  1.8891337     108.2393884
  67 TORSION   1  2  5 18              -1.0312965     -59.0889380
  68 TORSION   1  2  5  6               1.1068161      63.4158930
  69 TORSION   1  2  3 12               1.2042970      69.0011352
  70 TORSION   1  2  8 24               3.1079997     178.0752655
  71 TORSION   1  2  3 13              -3.0495926    -174.7287879
  72 TORSION   1  2  3  4              -0.9314286     -53.3669259
  73 TORSION   1  2  5 17              -3.0597304    -175.3096362
  74 TORSION   2  5  6 19              -0.8601575     -49.2833942
  75 TORSION   2  5  6 20               1.1733488      67.2279364
  76 TORSION   2  5  6  7              -2.9743261    -170.4163302
  77 TORSION   2  3  4 16              -2.8949651    -165.8692812
  78 TORSION   2  3  4 14              -0.7665054     -43.9175231
  79 TORSION   2  3  4 15               1.2876666      73.7778608
  80 TORSION   3  2  8 24               1.0458974      59.9255041
  81 TORSION   3  2  1 11              -1.0812637     -61.9518470
  82 TORSION   3  2  5 17              -0.9243335     -52.9604057
  83 TORSION   3  2  5 18               1.1041004      63.2602925
  84 TORSION   3  2  1 10               3.1014895     177.7022604
  85 TORSION   3  2  5  6              -3.0409723    -174.2348765
  86 TORSION   3  2  1  9               1.0025565      57.4422576
  87 TORSION   4  3  2  5              -3.0754511    -176.2103702
  88 TORSION   4  3  2  8               1.1047653      63.2983917
  89 TORSION   5  2  8 24              -1.0903444     -62.4721296
  90 TORSION   5  2  1  9              -3.1183817    -178.6701125
  91 TORSION   5  2  1 10              -1.0194487     -58.4101098
  92 TORSION   5  2  3 13               1.0895701      62.4277679
  93 TORSION   5  2  1 11               1.0809833      61.9357828
  94 TORSION   5  6  7 21              -1.0294417     -58.9826644
  95 TORSION   5  6  7 22               1.0505706      60.1932602
  96 TORSION   5  6  7 23               3.1414846     179.9938111
  97 TORSION   5  2  3 12              -0.9397256     -53.8423090
  98 TORSION   6  5  2  8              -0.9430556     -54.0331053
  99 TORSION   7  6  5 17               1.1852056      67.9072814
 100 TORSION   7  6  5 18              -0.8454793     -48.4423960
 101 TORSION   8  2  1 11              -3.1324040    -179.4735310
 102 TORSION   8  2  5 17               1.1735832      67.2413655
 103 TORSION   8  2  3 13              -1.0133987     -58.0634703
 104 TORSION   8  2  5 18              -3.0811682    -176.5379363
 105 TORSION   8  2  3 12              -3.0426944    -174.3335472
 106 TORSION   8  2  1  9              -1.0485838     -60.0794264
 107 TORSION   8  2  1 10               1.0503492      60.1805764
 108 TORSION  12  3  4 16               1.2630566      72.3678112
 109 TORSION  12  3  4 14              -2.8916690    -165.6804307
 110 TORSION  12  3  4 15              -0.8374971     -47.9850468
 111 TORSION  13  3  4 16              -0.7975738     -45.6976112
 112 TORSION  13  3  4 14               1.3308859      76.2541469
 113 TORSION  13  3  4 15              -2.8981274    -166.0504692
 114 TORSION  17  5  6 20              -0.9503048     -54.4484520
 115 TORSION  17  5  6 19              -2.9838111    -170.9597826
 116 TORSION  18  5  6 20              -2.9809897    -170.7981294
 117 TORSION  18  5  6 19               1.2686893      72.6905401
 118 TORSION  19  6  7 23               1.0105776      57.9018296
 119 TORSION  19  6  7 22              -1.0803365     -61.8987213
 120 TORSION  19  6  7 21               3.1228365     178.9253540
 121 TORSION  20  6  7 23              -1.0209394     -58.4955205
 122 TORSION  20  6  7 22              -3.1118535    -178.2960715
 123 TORSION  20  6  7 21               1.0913195      62.5280039

          INTERNUCLEAR DISTANCES (ANGS.)


 =====================================================
   GAMESS/COSab RESULTS
 =====================================================

   Dielectric Constant                  = INFTY
   Basic Grid Size                      =                 1082
   Number of Segments                   =                   92
   Number of Segments located on spheres=                  276
   Number of Segments of the cavity     =                  715
   Solvent Radius (rsolv)               = 1.40
   Outlying Charge Error Method         = double cavity

 =====================================================

  Total solvated Energy (a.u.)          =  -349.3514305469
  Total Energy corrected (a.u.)         =  -349.3513148132

  Outlying charge effect (a.u.)         =     0.0001157337
  Outlying charge effect (kcal/mol)     =     0.0726240578

  Dielectric Energy (a.u.)              =    -0.0090653905
  Dielectric energy corr. (a.u.)        =    -0.0089496568

  Sum of polarization charges           =     0.0279723791
  Sum of polarization charges(cor.)     =    -0.0279723791

  Total surface area of cavity (A**2)   =  171.89
  Total volume of cavity (A**3)         =  174.90

 =====================================================
 NPS=                   715
NR.  ATOM  (X, Y, Z)(a.u.)                  CHARGE(e)  AREA(A**2) SIGMA(e/A**2)
   1   1  -1.063761   4.557795   3.722843   0.001633   0.371649   0.004395
   2   1   1.346391   6.271274   1.205788   0.001643   0.418105   0.003929
   3   1   2.716279   4.338661   4.392240   0.001290   0.371649   0.003471
   4   1  -1.576774   3.477224   3.875615   0.001257   0.278737   0.004508
   5   1   3.507616   4.462278   3.705982   0.001197   0.325193   0.003680
   6   1   2.262491   6.087593   0.959912   0.000996   0.278737   0.003572
   7   1   2.293014   4.859636  -1.265148   0.000789   0.232280   0.003395
   8   1  -0.905802   3.910292   4.297724   0.000707   0.185824   0.003806
   9   1   1.187414   5.280978  -1.094476   0.001015   0.278737   0.003642
  10   1   1.505580   5.931464  -0.089426   0.001837   0.371649   0.004944
  11   1   2.006448   6.080452   2.367509   0.001330   0.464561   0.002863
  12   1   2.402922   5.312536   3.681105   0.001178   0.464561   0.002535
  13   1   3.517426   3.436293   4.283810   0.000953   0.232280   0.004104
  14   1   0.700827   6.125360   2.448458   0.001048   0.418105   0.002507
  15   1  -0.108022   5.458559   3.451287   0.001306   0.418105   0.003124
  16   1   0.190109   4.769111   4.333141   0.001481   0.464561   0.003188
  17   1   1.587907   4.761249   4.473947   0.000791   0.325193   0.002432
  18   1  -1.554438   2.646799   4.084253   0.000341   0.139368   0.002449
  19   1   2.865999   5.586547   2.855636   0.000668   0.278737   0.002396
  20   1   2.053878   5.485362  -0.680015   0.000984   0.232280   0.004235
  21   1   1.188238   5.663370   3.546396   0.000940   0.464561   0.002022
  22   3   3.858983  -5.362222   1.436101   0.001394   0.371649   0.003750
  23   3   5.222919  -3.490989   3.246117   0.000070   0.092912   0.000752
  24   3   3.376274  -5.130500   2.323216   0.001044   0.278737   0.003747
  25   3   1.525486  -5.087715   1.506577   0.000725   0.185824   0.003904
  26   3   2.483192  -5.351450   1.630543   0.001723   0.371649   0.004636
  27   3   4.712294  -4.895174   1.968992   0.001288   0.464561   0.002772
  28   3   5.331168  -4.202736   2.449266   0.000338   0.185824   0.001819
  29   3   4.957069  -5.022543   0.595905   0.000425   0.185824   0.002287
  30   3   4.849133  -4.297387   2.822341   0.000244   0.139368   0.001752
  31   3   1.733604  -4.923566   2.210989   0.000462   0.139368   0.003317
  32   3   5.335694  -4.751709   1.046889   0.000328   0.185824   0.001766
  33   4   6.525188  -2.391536   3.378394   0.000566   0.232280   0.002438
  34   4   8.772836   0.214834   2.276465   0.002287   0.418105   0.005471
  35   4   6.217794  -2.493650  -2.765753   0.000634   0.232280   0.002729
  36   4   7.316550   2.980371   0.232249   0.001740   0.371649   0.004681
  37   4   8.933639  -0.005141  -1.431354   0.001570   0.371649   0.004225
  38   4   6.867391  -2.964963   2.766950   0.000738   0.278737   0.002647
  39   4   6.044207  -0.824609   4.038448   0.000628   0.185824   0.003382
  40   4   6.892078  -1.509484   3.680746   0.001067   0.325193   0.003280
  41   4   7.867236  -0.963074   3.280140   0.001731   0.325193   0.005322
  42   4   8.290588   0.375812  -2.233154   0.001702   0.371649   0.004580
  43   4   7.145478   2.897478  -0.745275   0.001426   0.325193   0.004386
  44   4   6.143834  -1.486419  -3.264273   0.001121   0.325193   0.003448
  45   4   8.046516  -0.160367   3.183710   0.001089   0.232280   0.004689
  46   4   8.549893  -0.734143   2.649395   0.000870   0.185824   0.004683
  47   4   5.549737  -2.236303  -2.984778   0.000374   0.185824   0.002012
  48   4   8.167401   2.304816  -0.364727   0.001404   0.418105   0.003357
  49   4   8.763564   1.169974  -1.053838   0.001484   0.464561   0.003194
  50   4   8.271286  -0.854719  -2.323057   0.002306   0.418105   0.005515
  51   4   6.988747  -1.930621  -2.847688   0.000978   0.232280   0.004210
  52   4   6.680407  -2.970973  -2.227177   0.001154   0.325193   0.003547
  53   4   8.369664   2.133748   0.829127   0.001294   0.371649   0.003483
  54   4   8.753963   1.199434   1.663441   0.001109   0.278737   0.003977
  55   4   9.235281   0.292508   1.096636   0.001664   0.464561   0.003581
  56   4   9.269040   0.284125  -0.307828   0.000978   0.325193   0.003008
  57   4   6.721721  -0.782138   3.898516   0.000656   0.185824   0.003530
  58   4   7.497068  -1.901009   3.208436   0.000885   0.232280   0.003811
  59   4   8.125288   1.807874  -1.449575   0.000909   0.278737   0.003262
  60   4   7.329353  -0.921206  -3.007820   0.001620   0.325193   0.004981
  61   4   6.424531  -3.602283  -1.496464   0.000200   0.092912   0.002149
  62   4   8.955158   1.355912   0.319415   0.001266   0.464561   0.002726
  63   4   7.616197  -1.924801  -2.492621   0.001101   0.232280   0.004741
  64   5  -3.062676  -4.197039   2.222427   0.001139   0.278737   0.004086
  65   5  -2.784129  -4.573977   1.617996   0.001002   0.232280   0.004316
  66   5  -1.033858  -4.397447   2.284826   0.000761   0.185824   0.004094
  67   5  -1.939220  -4.460371   2.268453   0.001693   0.325193   0.005205
  68   5  -1.252101  -4.714472   1.638049   0.000538   0.139368   0.003860
  69   6  -4.921971   3.345530  -2.690437   0.001662   0.371649   0.004472
  70   6  -4.140155  -2.195637  -3.088153   0.000159   0.092912   0.001707
  71   6  -3.624120  -1.933559  -3.330074   0.000030   0.046456   0.000653
  72   6  -4.289130   3.876902  -2.071058   0.001252   0.278737   0.004490
  73   6  -4.047211   2.161440   2.943988   0.000069   0.139368   0.000492
  74   6  -3.591218   3.391328  -2.847593   0.001561   0.325193   0.004800
  75   6  -5.702884   3.464445  -1.901187   0.001348   0.418105   0.003225
  76   6  -5.867565   2.597176  -2.872794   0.000932   0.278737   0.003342
  77   6  -4.634472  -1.941079  -3.235969   0.000172   0.092912   0.001849
  78   6  -5.809669   3.711799  -0.885245   0.000417   0.185824   0.002242
  79   6  -3.090421   3.706372  -2.263264   0.000743   0.139368   0.005334
  80   7  -9.196536   0.615792   2.731111   0.002260   0.418105   0.005404
  81   7  -7.440177  -0.883487  -3.145051   0.000856   0.278737   0.003072
  82   7  -7.907039  -3.107585   2.810885   0.002025   0.418105   0.004843
  83   7  -9.984349  -1.544567  -0.190252   0.001553   0.371649   0.004179
  84   7  -7.237859   3.106025   0.938798   0.000665   0.278737   0.002387
  85   7  -6.270919   2.218719   3.042685   0.000697   0.232280   0.003003
  86   7  -7.015945   2.691576   2.316308   0.001023   0.325193   0.003145
  87   7  -8.165016   2.100680   2.507884   0.001526   0.325193   0.004693
  88   7  -9.492595  -2.420704  -0.628529   0.001620   0.371649   0.004359
  89   7  -7.705623  -3.709586   2.082558   0.001259   0.278737   0.004518
  90   7  -7.602267  -1.904003  -2.844136   0.001009   0.278737   0.003620
  91   7  -8.321195   1.390032   3.085712   0.001082   0.232280   0.004657
  92   7  -8.959754   1.589243   2.248259   0.001291   0.278737   0.004631
  93   7  -5.711914  -3.493827   2.740724   0.001114   0.232280   0.004795
  94   7  -6.625776  -3.527443   2.789065   0.002116   0.371649   0.005694
  95   7  -8.916849  -2.964170   1.926917   0.001616   0.464561   0.003479
  96   7  -9.768083  -2.224441   0.831187   0.001442   0.464561   0.003105
  97   7  -9.472487  -1.539055  -1.491635   0.002237   0.418105   0.005350
  98   7  -8.283961  -1.202450  -2.737353   0.000931   0.232280   0.004009
  99   7  -7.860463  -0.051044  -2.976836   0.001096   0.325193   0.003371
 100   7  -8.866875  -2.080693   2.891379   0.001417   0.418105   0.003389
 101   7  -9.359023  -0.718067   2.816757   0.001590   0.418105   0.003804
 102   7  -9.854404  -0.135211   1.946836   0.001741   0.464561   0.003747
 103   7 -10.127065  -1.014080   0.885245   0.001023   0.325193   0.003147
 104   7  -7.193833   2.120937   3.026385   0.000831   0.232280   0.003576
 105   7  -7.727206   2.768045   1.703045   0.000835   0.232280   0.003593
 106   7  -9.215214  -3.039347   0.865613   0.000850   0.278737   0.003048
 107   7  -6.063875  -3.951322   2.085259   0.000613   0.139368   0.004396
 108   7  -6.750026  -1.975977  -3.009517   0.000692   0.232280   0.002979
 109   7  -8.660327  -2.034812  -2.166305   0.001517   0.325193   0.004665
 110   7  -7.475320   0.863675  -2.863161   0.000191   0.092912   0.002053
 111   7  -9.677588  -1.678846   1.976100   0.001217   0.464561   0.002620
 112   7  -8.841690  -0.906799  -2.389029   0.001050   0.232280   0.004521
 113   8  -0.404011   3.344563  -3.693424   0.004281   0.171795   0.024921
 114   8   2.472856   3.151385  -4.212396   0.004581   0.240512   0.019046
 115   8   0.480847   1.122196  -5.782771   0.001675   0.274871   0.006093
 116   8   3.314300  -0.028500  -4.900113   0.000900   0.137436   0.006549
 117   8   0.123982   3.698152  -3.284894   0.002372   0.103077   0.023010
 118   8   2.057900   3.646437  -3.510657   0.004913   0.240512   0.020429
 119   8   0.355554   3.519064  -3.998426   0.004645   0.240512   0.019313
 120   8   1.342828   3.498704  -4.205740   0.005186   0.274871   0.018866
 121   8   2.946992   3.173588  -3.565243   0.005754   0.240512   0.023922
 122   8   1.585585   0.847764  -5.833476   0.001046   0.274871   0.003804
 123   8   2.756342   0.525354  -5.417917   0.001687   0.274871   0.006138
 124   8  -0.440102   0.794629  -5.483499   0.001646   0.206154   0.007982
 125   8  -0.346246   2.782613  -4.625494   0.006928   0.343589   0.020163
 126   8  -0.010094   1.943060  -5.400735   0.003640   0.274871   0.013242
 127   8   1.234573   1.962810  -5.603298   0.005622   0.481025   0.011687
 128   8   1.909933   2.760027  -4.977935   0.006354   0.377948   0.016813
 129   8   3.015662   2.308691  -4.676451   0.006982   0.377948   0.018473
 130   8   3.310656   1.117389  -4.965574   0.002995   0.171795   0.017436
 131   8   1.084684   3.814812  -3.442995   0.003506   0.171795   0.020410
 132   8   0.686985   2.937596  -4.915309   0.006520   0.377948   0.017251
 133   8   2.478333   1.535872  -5.438052   0.004839   0.412307   0.011737
 134   8  -0.627255   1.680966  -5.184633   0.002732   0.171795   0.015902
 135   9   4.763261   4.974304   0.544364  -0.002083   0.333671  -0.006244
 136   9   4.365511   4.862566   2.495370  -0.000783   0.255160  -0.003068
 137   9   3.656234   5.666117   0.489342  -0.000839   0.333671  -0.002515
 138   9   3.814646   4.801769  -0.717164  -0.000949   0.255160  -0.003720
 139   9   4.776719   4.962230   1.662303  -0.001703   0.314043  -0.005424
 140   9   3.958827   5.592363   1.564284  -0.001016   0.353299  -0.002876
 141   9   4.106577   5.160839  -0.161278  -0.001334   0.314043  -0.004248
 142  10  -1.492594   5.921286   0.454717  -0.002496   0.412182  -0.006055
 143  10  -1.737699   5.216670   2.418030  -0.000479   0.235532  -0.002034
 144  10  -0.287866   5.946680  -0.295194  -0.000719   0.294415  -0.002443
 145  10  -0.693644   6.159466   1.717606  -0.000839   0.353299  -0.002375
 146  10  -0.919134   5.428398  -0.785922  -0.002142   0.412182  -0.005197
 147  10  -0.409104   6.277854   0.628839  -0.001047   0.353299  -0.002965
 148  10  -1.621703   5.776809   1.714503  -0.001789   0.372926  -0.004798
 149  11   1.061255   2.222722   5.932032  -0.002500   0.451437  -0.005538
 150  11  -0.783558   2.226049   5.112986  -0.000994   0.294415  -0.003375
 151  11   0.345907   3.367425   5.459273  -0.001040   0.372926  -0.002788
 152  11   2.428324   2.537516   5.460496  -0.001362   0.412182  -0.003305
 153  11   0.092040   1.400778   5.634138  -0.002465   0.392554  -0.006278
 154  11  -0.174990   2.643545   5.538413  -0.001280   0.333671  -0.003836
 155  11   1.529202   3.309922   5.557743  -0.001141   0.372926  -0.003060
 156  11   2.249521   1.469175   5.527434  -0.002311   0.431809  -0.005352
 157  11   1.118779   0.927607   5.639978  -0.002559   0.372926  -0.006861
 158  12   2.899524  -3.602462   4.750000  -0.002232   0.431809  -0.005169
 159  12   3.575401  -1.736382   4.862323  -0.001406   0.333671  -0.004215
 160  12   4.323706  -3.356087   4.336420  -0.001210   0.353299  -0.003424
 161  12   2.749090  -4.593344   3.710734  -0.000899   0.372926  -0.002411
 162  12   2.530269  -2.316492   5.039803  -0.002466   0.431809  -0.005710
 163  12   3.898137  -2.648146   4.821464  -0.001368   0.353299  -0.003871
 164  12   3.771113  -4.199133   4.013904  -0.001209   0.412182  -0.002934
 165  12   1.829637  -4.229158   3.882709  -0.001567   0.412182  -0.003801
 166  12   1.888448  -3.200757   4.715944  -0.001961   0.333671  -0.005878
 167  13   3.265687  -5.553825  -1.699943  -0.001997   0.412182  -0.004846
 168  13   4.211089  -4.333422  -2.436906  -0.000848   0.294415  -0.002881
 169  13   2.405383  -5.770431  -0.108464  -0.000805   0.353299  -0.002279
 170  13   4.358516  -5.434059  -0.697575  -0.000881   0.353299  -0.002493
 171  13   3.401805  -4.591256  -2.640070  -0.001652   0.372926  -0.004429
 172  13   2.316922  -5.036147  -2.254899  -0.002396   0.392554  -0.006104
 173  13   2.099705  -5.624458  -1.162189  -0.001948   0.412182  -0.004726
 174  13   3.411562  -5.829017  -0.401617  -0.001139   0.412182  -0.002763
 175  13   4.374340  -5.093405  -1.642094  -0.001215   0.353299  -0.003439
 176  14   6.046107   1.944383  -3.486860  -0.002272   0.412182  -0.005511
 177  14   6.137834  -0.095906  -3.725555  -0.000564   0.274788  -0.002053
 178  14   7.244845   1.516666  -3.026027  -0.000800   0.353299  -0.002265
 179  14   6.299979   2.916059  -2.053899  -0.000539   0.235532  -0.002286
 180  14   6.030795   0.873318  -3.857238  -0.001383   0.314043  -0.004404
 181  14   6.968747   0.669966  -3.472652  -0.000585   0.314043  -0.001861
 182  14   6.869653   2.383545  -2.608394  -0.001113   0.392554  -0.002835
 183  14   5.602215   2.784322  -2.669385  -0.001491   0.333671  -0.004467
 184  15   6.572679   2.675046   3.447784  -0.002518   0.431809  -0.005832
 185  15   7.513757   1.149896   3.640884  -0.000496   0.314043  -0.001579
 186  15   5.858803   0.795535   4.269805  -0.001012   0.294415  -0.003437
 187  15   7.678866   2.544160   2.377499  -0.000665   0.372926  -0.001782
 188  15   6.768443   1.100531   4.104336  -0.001003   0.372926  -0.002690
 189  15   6.069232   1.911862   4.081443  -0.001801   0.314043  -0.005734
 190  15   6.903714   3.167185   2.221681  -0.001423   0.372926  -0.003817
 191  15   7.651457   1.984743   3.181348  -0.001074   0.372926  -0.002880
 192  16   9.142432  -3.159147   0.438328  -0.003257   0.588831  -0.005532
 193  16   8.742820  -2.411664  -1.442892  -0.000601   0.353299  -0.001702
 194  16   7.637904  -3.844379  -0.711761  -0.000917   0.353299  -0.002597
 195  16   7.798574  -3.696691   1.547086  -0.000917   0.353299  -0.002594
 196  16   9.061750  -2.024799   1.879753  -0.000763   0.372926  -0.002046
 197  16   9.620949  -1.313991   0.044974  -0.000920   0.412182  -0.002232
 198  16   8.464231  -3.354514  -0.932820  -0.001805   0.490692  -0.003678
 199  16   7.929865  -3.996894   0.478796  -0.001957   0.510320  -0.003835
 200  16   8.564924  -3.041527   1.819661  -0.001509   0.471065  -0.003202
 201  16   9.560945  -1.866989   0.973453  -0.001673   0.471065  -0.003552
 202  16   9.397943  -2.137437  -0.677388  -0.001817   0.490692  -0.003703
 203  17  -2.086933  -5.194090  -1.479929  -0.001314   0.294415  -0.004462
 204  17  -2.456298  -3.854629  -2.668165  -0.001202   0.294415  -0.004083
 205  17  -2.361241  -5.237307   0.278083  -0.000589   0.372926  -0.001580
 206  17  -1.521164  -4.565640  -2.328474  -0.002015   0.372926  -0.005403
 207  17  -2.775737  -4.620389  -2.003800  -0.001770   0.372926  -0.004747
 208  17  -2.710525  -5.234525  -0.712986  -0.001547   0.333671  -0.004637
 209  17  -1.364317  -5.358208  -0.066108  -0.001297   0.412182  -0.003146
 210  17  -1.246651  -5.220060  -1.311434  -0.001612   0.294415  -0.005476
 211  18  -2.029420  -2.151765   4.851582  -0.001383   0.294415  -0.004697
 212  18  -1.920593  -3.596282   3.786549  -0.000589   0.314043  -0.001875
 213  18  -2.418188  -0.772328   4.762576  -0.002362   0.392554  -0.006017
 214  18  -1.309349  -1.649653   4.870933  -0.002070   0.333671  -0.006204
 215  18  -1.469235  -2.929028   4.450735  -0.001575   0.333671  -0.004722
 216  18  -2.776851  -3.163835   4.065237  -0.001529   0.412182  -0.003710
 217  18  -2.790454  -2.076336   4.693583  -0.001494   0.255160  -0.005853
 218  19  -4.329708   4.682726   0.908165  -0.001199   0.274788  -0.004364
 219  19  -4.291464   3.456755   2.365881  -0.000442   0.215905  -0.002045
 220  19  -5.193662   4.316256   0.566985  -0.000778   0.294415  -0.002641
 221  19  -3.829015   4.582185  -0.917372  -0.000360   0.235532  -0.001529
[...]
 458   7  -5.125107  -4.033122   1.375270   0.000104   0.065378   0.001587
 459  21  -5.265315  -4.160479   1.136843  -0.000025   0.065378  -0.000375
 460   7  -5.014760  -3.838099   1.993080   0.000995   0.357825   0.002781
 461   5  -3.824288  -3.864181   2.221106   0.000766   0.357825   0.002139
 462   5  -0.482062  -3.749694   3.032961   0.000036   0.087396   0.000411
 463  12   0.477687  -3.727423   3.264646   0.000024   0.087396   0.000278
 464  18  -0.588304  -3.603061   3.280304  -0.000154   0.087396  -0.001760
 465  12   1.023372  -4.114694   3.252616  -0.000061   0.133050  -0.000456
 466   5  -0.347787  -4.140219   2.750235   0.000520   0.188756   0.002755
 467   5  -3.722668  -4.388322   0.768909   0.000078   0.087716   0.000887
 468  17  -3.608530  -4.515435   0.512715  -0.000041   0.087716  -0.000467
 469  21  -4.690358  -4.321567   0.544618   0.000121   0.087716   0.001385
 470  17  -1.210512  -4.987155   0.796993  -0.000043   0.077185  -0.000554
 471  17  -2.433682  -4.902954   0.763589  -0.000349   0.175281  -0.001989
 472   5  -1.654474  -4.790506   1.199945   0.000086   0.165722   0.000517
 473   5  -2.991244  -4.640412   1.051560   0.000126   0.094298   0.001335
 474  18  -2.976502  -3.584177   3.203904  -0.000069   0.074138  -0.000935
 475  18  -1.806503  -3.767141   3.282753  -0.000392   0.167076  -0.002347
 476   5  -2.561364  -3.872971   2.847847  -0.000027   0.160261  -0.000167
 477   5  -1.259132  -3.959797   2.956989   0.000101   0.090576   0.001120
 478  21  -5.305059  -4.431221   0.806503   0.000012   0.126827   0.000094
 479   5  -3.893695  -4.388956   1.222764   0.000540   0.180076   0.002997
 480   6  -4.633905   2.421903   2.728314   0.000015   0.028179   0.000524
 481   7  -5.068902   2.219022   2.851797   0.000049   0.028179   0.001740
 482  19  -4.540446   2.681436   2.606371  -0.000012   0.028179  -0.000439
 483   6  -6.094156   3.536601  -0.020083   0.000028   0.028179   0.000997
 484   7  -6.510533   3.319507   0.138444   0.000088   0.028179   0.003109
 485  19  -5.870292   3.696589   0.103413   0.000002   0.028179   0.000062
 486   6  -6.326151   1.301971  -3.218945   0.000053   0.026271   0.002014
 487   7  -6.739460   1.107426  -3.026855   0.000074   0.026271   0.002804
 488  20  -6.119026   1.243376  -3.432063   0.000036   0.026271   0.001358
 489   6  -5.179041  -1.576817  -3.337577   0.000063   0.026271   0.002415
 490   7  -5.607416  -1.733553  -3.143929   0.000107   0.026271   0.004078
 491  20  -5.074865  -1.377052  -3.540048   0.000020   0.026271   0.000773
 492   6  -5.192760  -2.317523  -2.788987   0.000043   0.026104   0.001640
 493   7  -5.627268  -2.521705  -2.666197   0.000021   0.026104   0.000801
 494  21  -5.740018  -2.775972  -2.546158  -0.000026   0.026104  -0.000996
 495   6  -4.756870   1.821270   3.102786   0.000023   0.027600   0.000845
 496   7  -5.186463   1.665868   3.294898  -0.000003   0.027600  -0.000092
 497  22  -5.280219   1.468556   3.505260  -0.000039   0.027600  -0.001419
 498   6  -6.600137   3.267675  -0.301676   0.000078   0.025114   0.003113
 499   7  -7.049501   3.128676  -0.145822   0.000022   0.025114   0.000861
 500  23  -7.329112   3.071756  -0.245621  -0.000010   0.025114  -0.000399
 501   6  -6.807910   1.629053  -2.736269   0.000063   0.025114   0.002504
 502   7  -7.260074   1.467976  -2.613216   0.000029   0.025114   0.001152
 503  23  -7.520753   1.560364  -2.491180  -0.000000   0.025114  -0.000016
 504   7  -5.745934  -2.147166  -2.941489   0.000258   0.103890   0.002488
 505   6  -5.063854  -1.983721  -3.110129   0.000197   0.103890   0.001901
 506   7  -5.200039   1.902647   3.164615   0.000113   0.061953   0.001826
 507   6  -4.613481   2.215229   2.902854   0.000104   0.061953   0.001682
 508   7  -6.882698   3.231848   0.048471   0.000113   0.044503   0.002548
 509   6  -6.275573   3.481109  -0.228727   0.000113   0.044503   0.002529
 510   7  -7.122485   1.304972  -2.801921   0.000166   0.070916   0.002338
 511   6  -6.485859   1.489730  -3.071332   0.000198   0.070916   0.002796
 512   6  -1.875601   3.539343  -2.033760   0.001674   0.263749   0.006345
 513   8  -0.942810   3.483180  -2.403208   0.004481   0.263749   0.016990
 514  10  -1.166448   4.045646  -1.569865   0.000426   0.263749   0.001617
 515   6  -2.603134   2.795750  -3.257294   0.000650   0.087925   0.007393
 516   8  -1.658712   2.690785  -3.553409   0.002269   0.087925   0.025811
 517  20  -2.662244   2.620973  -3.501648   0.000317   0.087925   0.003609
 518   8  -1.094531   3.149854  -3.416848   0.005763   0.308384   0.018689
 519   6  -2.362453   3.329750  -2.754751   0.002250   0.344340   0.006533
 520   6  -2.755129   4.049560  -1.483929  -0.000071   0.066664  -0.001070
 521  10  -2.016031   4.488075  -1.017747  -0.000316   0.066664  -0.004739
 522  19  -2.769197   4.229825  -1.240499  -0.000201   0.066664  -0.003015
 523  10  -1.428286   4.620158  -1.205456  -0.000415   0.143405  -0.002894
 524   6  -2.563167   3.984691  -1.836881   0.000557   0.203237   0.002743
 525   6  -3.239407  -1.989407  -3.243555   0.000029   0.031761   0.000900
 526  17  -2.809748  -2.525405  -2.951769  -0.000003   0.031761  -0.000084
 527  20  -3.268538  -1.758501  -3.436875  -0.000041   0.031761  -0.001279
 528   6  -4.349176  -2.774976  -2.431177   0.000064   0.166276   0.000385
 529  17  -3.837396  -3.279673  -2.210343  -0.000150   0.166276  -0.000900
 530  21  -4.933122  -3.166621  -2.147445  -0.000142   0.166276  -0.000855
 531  17  -3.046137  -3.283631  -2.591096  -0.000596   0.213175  -0.002794
 532   6  -3.584562  -2.384865  -3.014543   0.000458   0.300369   0.001524
 533  19  -4.125348   2.899176   2.607161  -0.000098   0.047239  -0.002067
 534   6  -4.124127   2.486847   2.773105  -0.000029   0.057713  -0.000498
 535  19  -3.414823   4.221120  -1.405340  -0.000051   0.077511  -0.000655
 536  19  -4.599363   4.216334  -1.026329  -0.000345   0.177225  -0.001947
 537  19  -5.485279   4.015502  -0.176843  -0.000103   0.077511  -0.001327
 538   6  -3.962791   4.006497  -1.637370   0.000092   0.165295   0.000556
 539   6  -5.399425   3.863824  -0.784949  -0.000142   0.165295  -0.000858
 540  20  -3.744101  -1.501015  -3.776420  -0.000094   0.068928  -0.001360
 541  20  -4.595714  -1.357427  -3.785752  -0.000065   0.068928  -0.000945
 542   6  -4.216220  -1.682949  -3.458819  -0.000125   0.151188  -0.000829
 543  20  -5.769665   1.568728  -3.665321  -0.000015   0.066756  -0.000227
 544  20  -5.036699   2.357318  -3.612722  -0.000143   0.147164  -0.000973
 545  20  -3.790764   2.743922  -3.569917  -0.000037   0.147164  -0.000250
 546   6  -5.723137   2.032994  -3.306192  -0.000036   0.147343  -0.000241
 547   6  -4.528261   2.881026  -3.241823   0.000208   0.147343   0.001409
 548   6  -3.345812   3.009733  -3.212836   0.000226   0.081557   0.002776
 549  21  -5.679380  -3.064721  -2.434289  -0.000149   0.109315  -0.001366
 550   6  -4.767678  -2.503013  -2.785027   0.000293   0.154119   0.001898
 551  22  -5.045749   1.074997   3.799380  -0.000354   0.157462  -0.002248
 552   6  -4.318846   1.710789   3.224872   0.000292   0.221998   0.001314
 553  23  -7.533128   3.015920  -0.645175  -0.000219   0.196859  -0.001112
 554  23  -7.634100   2.286583  -1.856789  -0.001005   0.402532  -0.002497
 555   6  -6.517624   3.070583  -1.348119   0.000806   0.539645   0.001494
 556   6  -6.630517   2.119226  -2.645002   0.000732   0.277270   0.002641
 557   7  -5.107204  -2.767656   3.333892   0.000096   0.084837   0.001133
 558  18  -4.164105  -2.725504   3.503828   0.000039   0.084837   0.000454
 559  22  -5.183690  -2.580066   3.563505  -0.000111   0.084837  -0.001310
 560  18  -3.629768  -3.130924   3.466869  -0.000104   0.161745  -0.000646
 561   7  -4.979106  -3.238135   3.034709   0.000666   0.228847   0.002911
 562  19  -5.699274   3.808913   0.558253  -0.000247   0.217257  -0.001136
 563  19  -5.058261   3.331890   1.913789  -0.001382   0.448011  -0.003085
 564   7  -6.419096   3.119584   1.305652   0.000837   0.592209   0.001413
 565   7  -5.581599   2.469068   2.746192   0.000703   0.306189   0.002295
 566  20  -5.242142  -1.012777  -3.783735  -0.000076   0.204734  -0.000374
 567  20  -5.840439   0.335646  -3.780736  -0.000693   0.419790  -0.001651
 568   7  -6.379480  -0.947470  -3.291567   0.001135   0.560089   0.002026
 569   7  -6.950767   0.625656  -3.178857   0.000799   0.288398   0.002769
 570  21  -5.928115  -4.337200   1.209818  -0.000042   0.066835  -0.000634
 571  21  -6.987062  -4.246782   1.395984  -0.000140   0.147366  -0.000953
 572  21  -8.186033  -3.927400   0.986881  -0.000186   0.147366  -0.001259
 573  21  -8.864333  -3.470985  -0.032184  -0.000222   0.147366  -0.001504
 574  21  -8.758922  -3.054532  -1.266022  -0.000129   0.147366  -0.000876
 575  21  -7.910677  -2.839541  -2.236156  -0.000182   0.147366  -0.001235
 576  21  -6.648544  -2.909384  -2.566371  -0.000333   0.147366  -0.002256
 577   7  -6.225447  -4.090762   1.654698   0.000160   0.147493   0.001085
 578   7  -7.676081  -3.867357   1.625377   0.000136   0.147493   0.000923
 579   7  -8.785949  -3.408695   0.781025   0.000028   0.147493   0.000189
 580   7  -9.124650  -2.892643  -0.550922   0.000094   0.147493   0.000637
 581   7  -8.560835  -2.519325  -1.853940   0.000145   0.147493   0.000981
 582   7  -7.313151  -2.433511  -2.622724  -0.000115   0.147493  -0.000782
 583   7  -6.133999  -2.576054  -2.710444   0.000022   0.081654   0.000263
 584  22  -5.765073   1.441663   3.749352  -0.000077   0.069796  -0.001109
 585  22  -6.887793   1.440768   3.734356  -0.000233   0.155211  -0.001500
 586  22  -8.047977   0.737493   3.707378  -0.000152   0.155211  -0.000981
 587  22  -8.532160  -0.529858   3.680201  -0.000201   0.155211  -0.001295
 588  22  -8.136514  -1.827765   3.664266  -0.000220   0.155211  -0.001415
 589  22  -7.027596  -2.609843   3.666280  -0.000090   0.155211  -0.000582
 590  22  -5.907626  -2.688624   3.679938  -0.000078   0.069796  -0.001116
 591   7  -6.166619   1.736282   3.413157  -0.000193   0.152773  -0.001264
 592   7  -7.655762   1.411839   3.387982   0.000070   0.152773   0.000459
 593   7  -8.632132   0.241748   3.355827   0.000068   0.152773   0.000443
 594   7  -8.684702  -1.281415   3.330228   0.000037   0.152773   0.000240
 595   7  -7.791343  -2.516440   3.321962   0.000069   0.152773   0.000455
 596   7  -6.328134  -2.943415   3.334509   0.000031   0.152773   0.000204
 597  23  -8.012301   1.340132  -2.514573  -0.000087   0.069406  -0.001255
 598  23  -8.691620   0.451712  -2.455727  -0.000263   0.154345  -0.001704
 599  23  -9.548045  -0.306074  -1.731556  -0.000127   0.154345  -0.000823
 600  23 -10.120496  -0.400821  -0.508669  -0.000231   0.154345  -0.001494
 601  23 -10.168704   0.207240   0.699662  -0.000259   0.154345  -0.001680
 602  23  -9.672435   1.262893   1.386279  -0.000191   0.154345  -0.001235
 603  23  -8.839984   2.323059   1.262995  -0.000212   0.154345  -0.001371
 604  23  -8.020746   2.942768   0.381554  -0.000342   0.154345  -0.002213
 605   7  -7.938940   0.764099  -2.662440  -0.000112   0.151899  -0.000740
 606   7  -8.910993  -0.340455  -2.279120   0.000020   0.151899   0.000135
 607   7  -9.759272  -0.846577  -1.123211   0.000030   0.151899   0.000199
 608   7 -10.127738  -0.541838   0.320128   0.000008   0.151899   0.000050
 609   7  -9.861739   0.445857   1.445100  -0.000004   0.151899  -0.000027
 610   7  -9.072919   1.701954   1.779534   0.000084   0.151899   0.000556
 611   7  -8.092362   2.699244   1.183059  -0.000069   0.151899  -0.000456
 612   7  -7.414327   3.084183   0.223952  -0.000022   0.084794  -0.000264
 613   8   3.508329   3.138772  -2.345953   0.004307   0.256659   0.016781
 614   9   3.814488   3.596453  -1.482289   0.000716   0.256659   0.002791
 615  14   4.398252   2.995186  -2.064921   0.001040   0.256659   0.004051
 616   9   3.509673   4.181078  -1.355934   0.000143   0.116056   0.001229
 617   8   2.998205   3.584659  -2.598839   0.001615   0.144398   0.011183
 618  10  -0.464413   4.671211  -1.500043   0.000312   0.234455   0.001329
 619   8  -0.268044   3.847229  -2.718415   0.003555   0.291814   0.012181
 620   8   3.675223  -0.493059  -4.309297   0.000671   0.063027   0.010654
 621  14   4.479631  -0.393463  -3.847276   0.000746   0.063027   0.011834
 622  24   3.494705  -0.750060  -4.383083  -0.000013   0.063027  -0.000199
 623  14   5.112434  -0.027150  -3.918687   0.000304   0.224828   0.001350
 624  14   5.107147   1.211188  -3.877006   0.000281   0.452953   0.000620
 625  14   4.903576   2.471205  -3.077556   0.000496   0.452953   0.001095
 626   8   3.888847   0.435707  -4.489558   0.007033   0.550371   0.012778
 627   8   3.793916   2.040007  -4.099108   0.009671   0.550371   0.017571
 628   8   3.556530   2.994025  -3.175801   0.004439   0.277498   0.015995
 629   8  -1.154109   0.133398  -4.992195   0.000519   0.090538   0.005729
 630  20  -2.119411   0.147312  -4.708083   0.000743   0.090538   0.008206
 631  24  -1.061169  -0.174553  -5.036963  -0.000142   0.090538  -0.001571
 632  20  -2.714582   2.414007  -3.976572   0.000927   0.279697   0.003314
 633  20  -2.713337   1.170389  -4.667504   0.000237   0.564334   0.000420
 634   8  -1.286295   2.111239  -4.497184   0.011609   0.688946   0.016850
 635   8  -1.280212   0.687720  -5.113783   0.003279   0.347607   0.009432
 636  24  -0.414871  -0.243943  -5.498209  -0.000643   0.080352  -0.008008
 637  24   0.721989  -0.107998  -5.839351  -0.001925   0.173367  -0.011106
 638  24   2.136463  -0.345319  -5.621376  -0.001778   0.173367  -0.010255
 639  24   3.017821  -0.819881  -4.969220  -0.000510   0.080352  -0.006345
 640   8  -0.039271   0.272584  -5.578127  -0.000784   0.172683  -0.004538
 641   8   1.519461   0.280488  -5.763759  -0.001095   0.172683  -0.006342
 642   8   2.867474  -0.215111  -5.130188  -0.000539   0.172683  -0.003124
 643  14   5.243414   3.226739  -1.765418   0.000162   0.401349   0.000403
 644   9   4.603886   4.124644  -0.801482  -0.000757   0.401349  -0.001885
 645  15   6.312650   3.526958   1.588283  -0.000213   0.196896  -0.001080
 646  15   5.946815   3.391288   2.619038  -0.001576   0.394083  -0.004000
 647   9   5.277833   4.254156   1.765870  -0.001775   0.394083  -0.004505
 648   9   4.864033   4.052217   2.767213  -0.000352   0.196896  -0.001788
 649  19  -3.419988   4.225987   2.058142  -0.000717   0.222056  -0.003230
 650  19  -3.420501   4.812359   0.949256  -0.002493   0.444910  -0.005603
 651  19  -3.057301   4.733912  -0.528462  -0.001843   0.444910  -0.004141
 652  10  -2.370909   4.929274   1.885687  -0.002117   0.444910  -0.004758
 653  10  -2.224370   5.351676   0.429040  -0.002754   0.444910  -0.006189
 654  10  -1.831962   5.029742  -0.718059  -0.000889   0.222056  -0.004005
 655  11   3.254139   0.631427   4.404955  -0.000192   0.324767  -0.000592
 656  12   3.677560  -0.381665   4.238430  -0.000277   0.324767  -0.000854
 657  15   4.351419   0.375815   4.045618  -0.000207   0.324767  -0.000637
 658  11   0.673011  -0.366819   4.655754  -0.001017   0.313665  -0.003241
 659  12   1.083081  -1.378774   4.455761  -0.000780   0.313665  -0.002488
 660  18   0.016085  -1.179813   4.437059  -0.000870   0.313665  -0.002775
 661  12   3.233394  -0.830945   4.761307  -0.000012   0.256341  -0.000046
 662  12   2.201281  -1.274365   4.896428  -0.000856   0.512506  -0.001671
 663  11   2.265125   0.429681   5.120080  -0.000945   0.512506  -0.001843
 664  11   1.219554  -0.000782   5.160324  -0.000445   0.256341  -0.001736
 665  15   4.897210   1.399959   4.276720  -0.000366   0.439082  -0.000834
 666  11   3.297870   1.537158   4.818309   0.000264   0.439082   0.000602
 667  18  -0.676032  -0.999255   4.824486  -0.000311   0.228834  -0.001361
 668  18  -1.490273  -0.334629   4.805586  -0.000779   0.457532  -0.001704
 669  18  -2.183448   0.340166   4.394209  -0.000055   0.228834  -0.000240
 670  11  -0.061338   0.396188   5.158198  -0.001124   0.457532  -0.002456
 671  11  -1.002237   1.232227   4.889628  -0.000549   0.457532  -0.001199
 672  15   5.007447   0.176383   4.230769   0.000107   0.090424   0.001184
 673  12   4.093701  -0.928778   4.482571   0.000099   0.090424   0.001098
 674  18  -0.605561  -3.488339   3.764769   0.000129   0.291650   0.000443
 675  18  -0.420180  -2.404369   4.446370  -0.001123   0.583485  -0.001925
 676  12   0.968991  -3.374176   4.099703  -0.001049   0.583485  -0.001797
 677  12   1.168629  -2.229664   4.669061  -0.000445   0.291650  -0.001525
 678  16   6.657622  -4.128997  -0.583837   0.000285   0.111910   0.002545
 679  13   5.316626  -4.664733  -0.913179   0.000251   0.111910   0.002246
 680  13   1.057793  -4.040381  -2.361866  -0.001846   0.282633  -0.006531
 681  17  -0.008136  -3.933224  -2.343489  -0.001705   0.282633  -0.006032
 682  24   0.615048  -3.466226  -3.047342  -0.004721   0.282633  -0.016703
 683  17  -0.318588  -4.634292  -1.964243  -0.000507   0.298496  -0.001699
 684  17  -0.350396  -5.115084  -0.722069  -0.001060   0.597354  -0.001774
 685  13   1.175516  -4.999564  -1.516602  -0.001382   0.597354  -0.002314
 686  13   1.156201  -5.351399  -0.231686   0.000130   0.298496   0.000435
 687  24   2.832066  -2.661585  -4.084143  -0.002884   0.285730  -0.010094
 688  24   1.651793  -3.291042  -3.853118  -0.008831   0.572226  -0.015433
 689  13   3.010266  -3.748968  -3.061053  -0.002451   0.572226  -0.004283
 690  13   1.805705  -4.281529  -2.732353  -0.001132   0.285730  -0.003961
 691  24   3.552074  -1.006328  -4.552021   0.000089   0.068982   0.001294
 692  14   5.024800  -0.561622  -3.854842   0.000223   0.068982   0.003230
 693  17  -2.165041  -2.474267  -3.105111  -0.000674   0.307172  -0.002194
 694  20  -2.622676  -1.660482  -3.537862   0.000226   0.307172   0.000735
 695  24  -1.528364  -1.979764  -3.779660  -0.002361   0.307172  -0.007686
 696  20  -3.234447  -1.741042  -3.677585   0.000080   0.025665   0.003134
 697  17  -2.595000  -2.875786  -3.034808   0.000051   0.025665   0.001989
 698  21  -5.227718  -3.763763  -2.049638   0.000019   0.288615   0.000065
 699  21  -5.244636  -4.493557  -1.024921  -0.000706   0.577228  -0.001224
 700  21  -5.191580  -4.664044   0.220490   0.000105   0.288615   0.000364
 701  17  -3.675980  -4.234898  -1.766236  -0.000606   0.577228  -0.001050
 702  17  -3.653455  -4.796035  -0.351286  -0.000262   0.577228  -0.000453
 703  24   0.155773  -3.371502  -3.666435  -0.002852   0.232586  -0.012264
 704  24  -0.686403  -2.797053  -4.024992  -0.005725   0.465086  -0.012309
 705  17  -1.051926  -3.849823  -2.837168  -0.001644   0.465086  -0.003534
 706  17  -1.874026  -3.215481  -3.136466  -0.000386   0.232586  -0.001659
 707  22  -5.170499  -2.424594   3.991693   0.000218   0.242171   0.000899
 708  22  -4.965325  -1.444863   4.512831  -0.000589   0.484321  -0.001217
 709  22  -4.691025  -0.099049   4.417770  -0.000755   0.484321  -0.001559
 710  18  -3.651056  -2.359089   4.203218  -0.000715   0.484321  -0.001477
 711  18  -3.381902  -1.059400   4.569082  -0.000863   0.484321  -0.001781
 712  18  -3.167426   0.003707   4.257057  -0.000068   0.242171  -0.000281
 713  24  -1.350285  -1.668322  -4.606512  -0.001974   0.354936  -0.005561
 714  24  -1.184778  -0.692467  -5.152080  -0.000883   0.354936  -0.002487
 715  20  -2.803761  -0.702793  -4.491054  -0.000177   0.710323  -0.000249
 =====================================================


   1 warning(s) detected.
     A line exceeding 80 characters begins with "http://cactus.nci.ni".
 There may be a problem in your input file.

              5552099  WORDS OF DYNAMIC MEMORY USED
 EXECUTION OF GAMESS TERMINATED NORMALLY Wed Nov 23 12:43:27 2016
 DDI: 263640 bytes (0.3 MB / 0 MWords) used by master data server.

 ----------------------------------------
 CPU timing information for all processes
 ========================================
 0: 3441.712 + 1.68 = 3442.780
 ----------------------------------------
 ddikick.x: exited gracefully.
