----- GAMESS execution script -----

          ******************************************************
          *         GAMESS VERSION =  5 DEC 2014 (R1)          *
          *             FROM IOWA STATE UNIVERSITY             *
          * M.W.SCHMIDT, K.K.BALDRIDGE, J.A.BOATZ, S.T.ELBERT, *
          *   M.S.GORDON, J.H.JENSEN, S.KOSEKI, N.MATSUNAGA,   *
          *          K.A.NGUYEN, S.J.SU, T.L.WINDUS,           *
          *       TOGETHER WITH M.DUPUIS, J.A.MONTGOMERY       *
          *         J.COMPUT.CHEM.  14, 1347-1363(1993)        *
          **************** 64 BIT LINUX VERSION ****************

 EXECUTION OF GAMESS BEGUN Wed Nov 23 12:16:30 2016

            ECHO OF THE FIRST FEW INPUT CARDS -
 INPUT CARD>! SELECT RESTRICTED HARTREE-FOCK AS DEFAULT                                     
 INPUT CARD>$contrl scftyp=rhf $end                                                         
 INPUT CARD>                                                                                
 INPUT CARD>! THEORY: HF OR DFT                                                             
 INPUT CARD> $contrl mplevl=0 $end                                                          
 INPUT CARD>                                                                                
 INPUT CARD> $system timlim=10000 mwords=20 $end                                            
 INPUT CARD> $SCF DIRSCF=.TRUE. $end                                                        
 INPUT CARD>                                                                                
 INPUT CARD>                                                                                
 INPUT CARD>! BASIS SETS                                                                    
 INPUT CARD>! 6-311G(d,p)                                                                   
 INPUT CARD> $BASIS GBASIS=N311 NGAUSS=6 NDFUNC=1 NPFUNC=1 $END                             
 INPUT CARD>                                                                                
 INPUT CARD>! One of the following                                                          
 INPUT CARD> $guess guess=HUCKEL $end                                                       
 INPUT CARD>                                                                                
 INPUT CARD> $statpt projct=.FALSE. $end                                                    
 INPUT CARD> $STATPT IFREEZ(1)=1,2,3 $END                                                   
 INPUT CARD>                                                                                
 INPUT CARD>! Optimize the geometry with COSMO effects                                      
 INPUT CARD> $statpt opttol=0.0005 nstep=50 $end                                            
 INPUT CARD> $contrl nzvar=1 $end                                                           
 INPUT CARD> $zmat dlc=.t. auto=.t. $end                                                    
 INPUT CARD> $contrl runtyp=OPTIMIZE maxit=200 $end                                         
 INPUT CARD>                                                                                
 INPUT CARD>! Run COSMO on perfect conductor                                                
 INPUT CARD> $COSGMS PRFCND=.TRUE. $end                                                     
 INPUT CARD>                                                                                
 INPUT CARD>! Specifying RSOLV                                                              
 INPUT CARD> $COSGMS COSRAD = 1.4 $end                                                      
 INPUT CARD>                                                                                
 INPUT CARD>! available memory                                                              
 INPUT CARD> $SYSTEM MWORDS=40 $END                                                         
 INPUT CARD>                                                                                
 INPUT CARD> $DATA                                                                          
 INPUT CARD>Hexane, 3-methyl-, ID: C589344                                                  
 INPUT CARD>C1                                                                              
 INPUT CARD>C      6.0      3.2686000000    3.3958000000    1.1888000000                    
 INPUT CARD>C      6.0      4.0572000000    2.1702000000    1.6585000000                    
 INPUT CARD>C      6.0      1.8505000000    3.3937000000    1.7394000000                    
 INPUT CARD>C      6.0      5.5272000000    2.3078000000    1.2582000000                    
 INPUT CARD>C      6.0      3.4431000000    0.9020000000    1.0852000000                    
 INPUT CARD>C      6.0      6.4188000000    1.3203000000    1.9775000000                    
 INPUT CARD>C      6.0      1.0185000000    4.5059000000    1.1446000000                    
 INPUT CARD>H      1.0      3.7876000000    4.3244000000    1.5006000000                    
 INPUT CARD>H      1.0      3.2468000000    3.4233000000    0.0806000000                    
 INPUT CARD>H      1.0      3.9976000000    2.1222000000    2.7743000000                    
 INPUT CARD>H      1.0      1.3844000000    2.4029000000    1.5338000000                    
 INPUT CARD>H      1.0      1.8744000000    3.4851000000    2.8433000000                    
   40000000 WORDS OF MEMORY AVAILABLE

     BASIS OPTIONS
     -------------
     GBASIS=N311         IGAUSS=       6      POLAR=POPN311 
     NDFUNC=       1     NFFUNC=       0     DIFFSP=       F
     NPFUNC=       1      DIFFS=       F     BASNAM=        


     RUN TITLE
     ---------
 Hexane, 3-methyl-, ID: C589344                                                  

 THE POINT GROUP OF THE MOLECULE IS C1      
 THE ORDER OF THE PRINCIPAL AXIS IS     0

 ATOM      ATOMIC                      COORDINATES (BOHR)
           CHARGE         X                   Y                   Z
 C           6.0     6.1767583635        6.4171315091        2.2465062542
 C           6.0     7.6669962774        4.1010833386        3.1341105506
 C           6.0     3.4969379403        6.4131630845        3.2869893830
 C           6.0    10.4448934793        4.3611096345        2.3776532378
 C           6.0     6.5065155483        1.7045328409        2.0507306419
 C           6.0    12.1297731700        2.4950052216        3.7369331407
 C           6.0     1.9246859185        8.5149163281        2.1629803655
 H           1.0     7.1575261511        8.1719310613        2.8357228172
 H           1.0     6.1355623369        6.4690989738        0.1523119146
 H           1.0     7.5543686085        4.0103764911        5.2426668077
 H           1.0     2.6161366574        4.5408225759        2.8984617200
 H           1.0     3.5421023914        6.5858840398        5.3730579009
 H           1.0    10.6410470369        4.1296182010        0.3050017744
 H           1.0    11.1015732601        6.3079053470        2.7890465853
 H           1.0     6.7939428711        1.5677166794        0.0000000000
 H           1.0     7.3156962163        0.0000000000        2.9109339115
 H           1.0     4.4499267559        1.6803443483        2.3925820731
 H           1.0    14.1141744297        2.7404806274        3.1858890427
 H           1.0    12.0252713229        2.7261187099        5.7969234399
 H           1.0    11.6095316056        0.5306350574        3.3115558209
 H           1.0     1.7663268807        8.3363372222        0.1014782855
 H           1.0     0.0000000000        8.5101920131        2.9349334315
 H           1.0     2.7480395313       10.3781861520        2.5575551518

          INTERNUCLEAR DISTANCES (ANGS.)




     $CONTRL OPTIONS
     ---------------
 SCFTYP=RHF          RUNTYP=OPTIMIZE     EXETYP=RUN     
 MPLEVL=       0     CITYP =NONE         CCTYP =NONE         VBTYP =NONE    
 DFTTYP=NONE         TDDFT =NONE    
 MULT  =       1     ICHARG=       0     NZVAR =       1     COORD =UNIQUE  
 PP    =NONE         RELWFN=NONE         LOCAL =NONE         NUMGRD=       F
 ISPHER=      -1     NOSYM =       0     MAXIT =     200     UNITS =ANGS    
 PLTORB=       F     MOLPLT=       F     AIMPAC=       F     FRIEND=        
 NPRINT=       7     IREST =       0     GEOM  =INPUT   
 NORMF =       0     NORMP =       0     ITOL  =      20     ICUT  =       9
 INTTYP=BEST         GRDTYP=BEST         QMTTOL= 1.0E-06

     $SYSTEM OPTIONS
     ---------------
  REPLICATED MEMORY=    40000000 WORDS (ON EVERY NODE).
 DISTRIBUTED MEMDDI=           0 MILLION WORDS IN AGGREGATE,
 MEMDDI DISTRIBUTED OVER   1 PROCESSORS IS           0 WORDS/PROCESSOR.
 TOTAL MEMORY REQUESTED ON EACH PROCESSOR=    40000000 WORDS.
 TIMLIM=       10000.00 MINUTES, OR       6.9 DAYS.
 PARALL= F  BALTYP=  DLB     KDIAG=    0  COREFL= F
 MXSEQ2=     300 MXSEQ3=     150  mem10=         0

     $COSGMS OPTIONS
     ---------------
     EPSI  =   INFTY     NSPA  =      92     COSRAD=    1.40
     DISEX =   10.00     OUTCHG=DBLCAV       COSBUG=       F
     COSWRT=       F     DCOSMO=       F

     SYMMETRY COORDINATES WILL NOT BE USED FOR 
     THE COSMO CALCULATION, EVEN IF SPECIFIED:
         -- SWITCHING TO C1 POINT GROUP --


     DEFINITION OF CAVITY
     ---------------------------
     ATOM         COORDINATES           RADIUS 
     1    6.1768    6.4171    2.2465    2.0000
     2    7.6670    4.1011    3.1341    2.0000
     3    3.4969    6.4132    3.2870    2.0000
     4   10.4449    4.3611    2.3777    2.0000
     5    6.5065    1.7045    2.0507    2.0000
     6   12.1298    2.4950    3.7369    2.0000
     7    1.9247    8.5149    2.1630    2.0000
     8    7.1575    8.1719    2.8357    1.3000
     9    6.1356    6.4691    0.1523    1.3000
    10    7.5544    4.0104    5.2427    1.3000
    11    2.6161    4.5408    2.8985    1.3000
    12    3.5421    6.5859    5.3731    1.3000
    13   10.6410    4.1296    0.3050    1.3000
    14   11.1016    6.3079    2.7890    1.3000
    15    6.7939    1.5677    0.0000    1.3000
    16    7.3157    0.0000    2.9109    1.3000
    17    4.4499    1.6803    2.3926    1.3000
    18   14.1142    2.7405    3.1859    1.3000
    19   12.0253    2.7261    5.7969    1.3000
    20   11.6095    0.5306    3.3116    1.3000
    21    1.7663    8.3363    0.1015    1.3000
    22    0.0000    8.5102    2.9349    1.3000
    23    2.7480   10.3782    2.5576    1.3000

          ----------------
          PROPERTIES INPUT
          ----------------

     MOMENTS            FIELD           POTENTIAL          DENSITY
 IEMOM =       1   IEFLD =       0   IEPOT =       0   IEDEN =       0
 WHERE =COMASS     WHERE =NUCLEI     WHERE =NUCLEI     WHERE =NUCLEI  
 OUTPUT=BOTH       OUTPUT=BOTH       OUTPUT=BOTH       OUTPUT=BOTH    
 IEMINT=       0   IEFINT=       0                     IEDINT=       0
                                                       MORB  =       0
          EXTRAPOLATION IN EFFECT
          SOSCF IN EFFECT
 ORBITAL PRINTING OPTION: NPREO=     1   229     2     1

     -------------------------------
     INTEGRAL TRANSFORMATION OPTIONS
     -------------------------------
     NWORD  =            0
     CUTOFF = 1.0E-09     MPTRAN =       0
     DIRTRF =       T     AOINTS =DUP     

          ----------------------
          INTEGRAL INPUT OPTIONS
          ----------------------
 NOPK  =       1 NORDER=       0 SCHWRZ=       T


 -----------------------------------------------
  STATISTICS ON AUTOMATIC COORDINATE GENERATION 
 -----------------------------------------------
  NUMBER OF USER SPECIFIED BONDS                             0
  NUMBER OF BONDS                                           22
  NUMBER OF ANGLES                                          42
  NUMBER OF TORSIONS                                        54
  NUMBER OF EXTRA COORD.                                     0
  NUMBER OF EXTRA COORD. FOR CONSTRAINTS                     0
  NUMBER OF CONSTRAINED COORD.                               0

  TOTAL NUMBER OF PRIMITIVES                               118
 -----------------------------------------------

   --- ENCODED Z MATRIX ---
 COORD  TYPE   I   J   K   L   M   N
    1      1    1   9
    2      1    1   3
    3      1    1   2
    4      1    1   8
    5      1    2   4
    6      1    2  10
    7      1    2   5
    8      1    3   7
    9      1    3  12
   10      1    3  11
   11      1    4  14
   12      1    4  13
   13      1    4   6
   14      1    5  16
   15      1    5  15
   16      1    5  17
   17      1    6  20
   18      1    6  19
   19      1    6  18
   20      1    7  23
   21      1    7  22
   22      1    7  21
   23      2    1   3  11
   24      2    1   2   4
   25      2    1   2   5
   26      2    1   2  10
   27      2    1   3  12
   28      2    1   3   7
   29      2    2   5  17
   30      2    2   5  16
   31      2    2   5  15
   32      2    2   4   6
   33      2    2   4  13
   34      2    2   1   9
   35      2    2   1   8
   36      2    2   1   3
   37      2    2   4  14
   38      2    3   7  21
   39      2    3   7  22
   40      2    3   7  23
   41      2    3   1   8
   42      2    3   1   9
   43      2    4   6  20
   44      2    4   2   5
   45      2    4   2  10
   46      2    4   6  18
   47      2    4   6  19
   48      2    5   2  10
   49      2    6   4  13
   50      2    6   4  14
   51      2    7   3  11
   52      2    7   3  12
   53      2    8   1   9
   54      2   11   3  12
   55      2   13   4  14
   56      2   15   5  17
   57      2   15   5  16
   58      2   16   5  17
   59      2   18   6  19
   60      2   18   6  20
   61      2   19   6  20
   62      2   21   7  22
   63      2   21   7  23
   64      2   22   7  23
   65      3    1   2   5  17
   66      3    1   2   4  14
   67      3    1   2   5  15
   68      3    1   3   7  21
   69      3    1   3   7  22
   70      3    1   2   5  16
   71      3    1   3   7  23
   72      3    1   2   4   6
   73      3    1   2   4  13
   74      3    2   1   3   7
   75      3    2   4   6  18
   76      3    2   4   6  19
   77      3    2   4   6  20
   78      3    2   1   3  12
   79      3    2   1   3  11
   80      3    3   1   2   4
   81      3    3   1   2   5
   82      3    3   1   2  10
   83      3    4   2   5  17
   84      3    4   2   1   8
   85      3    4   2   1   9
   86      3    4   2   5  15
   87      3    4   2   5  16
   88      3    5   2   4  14
   89      3    5   2   1   8
   90      3    5   2   4  13
   91      3    5   2   1   9
   92      3    5   2   4   6
   93      3    6   4   2  10
   94      3    7   3   1   8
   95      3    7   3   1   9
   96      3    8   1   3  11
   97      3    8   1   3  12
   98      3    8   1   2  10
   99      3    9   1   3  11
  100      3    9   1   3  12
  101      3    9   1   2  10
  102      3   10   2   5  17
  103      3   10   2   4  14
  104      3   10   2   4  13
  105      3   10   2   5  15
  106      3   10   2   5  16
  107      3   11   3   7  21
  108      3   11   3   7  23
  109      3   11   3   7  22
  110      3   12   3   7  21
  111      3   12   3   7  23
  112      3   12   3   7  22
  113      3   13   4   6  19
  114      3   13   4   6  18
  115      3   13   4   6  20
  116      3   14   4   6  19
  117      3   14   4   6  18
  118      3   14   4   6  20

          INDEP./SYM. INTERNAL COORDINATES
          --------------------------------
 CRD  1=  -0.1137 ( 23)  0.3300 ( 24) -0.1986 ( 25) -0.1193 ( 27)  0.3273 ( 28)
          -0.2952 ( 32)  0.1403 ( 34)  0.1856 ( 35) -0.5282 ( 36)  0.1108 ( 37)
           0.1533 ( 41)  0.1709 ( 42)  0.1043 ( 48)  0.1266 ( 65)  0.1115 ( 67)
           0.1191 ( 70) -0.1101 ( 86) -0.1025 ( 87)
 CRD  2=   0.1071 (  3) -0.1682 (  5)  0.3637 ( 25) -0.1459 ( 26)  0.1273 ( 29)
          -0.1061 ( 30) -0.4510 ( 32)  0.1274 ( 33) -0.1039 ( 35)  0.1734 ( 36)
           0.1453 ( 37) -0.1050 ( 41) -0.3211 ( 44)  0.1560 ( 49)  0.1270 ( 50)
          -0.1149 ( 66) -0.1531 ( 72) -0.1744 ( 73) -0.1599 ( 74)  0.2039 ( 81)
           0.1444 ( 88)  0.1158 ( 89)  0.1062 ( 92)
 CRD  3=   0.2877 (  2)  0.3870 (  3)  0.2170 (  5)  0.2381 (  8)  0.1852 ( 13)
          -0.1278 ( 23) -0.1218 ( 27)  0.4598 ( 28)  0.3096 ( 32)  0.1472 ( 36)
           0.1193 ( 38) -0.1437 ( 44) -0.1234 ( 49) -0.1039 ( 50) -0.1429 ( 51)
          -0.1796 ( 52)
 CRD  4=  -0.1079 (  2) -0.1068 (  3)  0.1796 (  7) -0.2720 ( 24)  0.1521 ( 25)
           0.1987 ( 28)  0.1277 ( 32)  0.1692 ( 34) -0.2644 ( 36)  0.1094 ( 38)
           0.1373 ( 42)  0.1075 ( 43)  0.2332 ( 44) -0.1137 ( 50) -0.1168 ( 52)
          -0.1776 ( 66) -0.2901 ( 72) -0.1483 ( 73) -0.2505 ( 74)  0.1090 ( 75)
          -0.1728 ( 78) -0.1271 ( 79)  0.2526 ( 80)  0.1280 ( 84)  0.1389 ( 85)
          -0.1272 ( 92) -0.1193 ( 95)
 CRD  5=   0.1372 (  2)  0.1774 (  5)  0.1112 (  7)  0.1270 ( 13)  0.1797 ( 23)
           0.1787 ( 24) -0.2542 ( 25) -0.1286 ( 28)  0.1503 ( 30) -0.1282 ( 34)
           0.2038 ( 36) -0.2401 ( 41)  0.1073 ( 43)  0.1180 ( 44) -0.2035 ( 45)
           0.1564 ( 48)  0.1119 ( 68)  0.1214 ( 69)  0.1304 ( 71) -0.1103 ( 72)
           0.1059 ( 75)  0.3158 ( 80)  0.2178 ( 81)  0.1733 ( 82)  0.1669 ( 84)
           0.1647 ( 85) -0.1049 ( 86) -0.1285 ( 90) -0.2290 ( 92)
 CRD  6=   0.1712 (  5) -0.1183 (  7)  0.1538 ( 13)  0.2445 ( 24) -0.1637 ( 26)
           0.1921 ( 27) -0.2962 ( 28)  0.1540 ( 32) -0.1430 ( 33)  0.2058 ( 34)
          -0.1861 ( 40) -0.1274 ( 42)  0.1641 ( 43) -0.1846 ( 44) -0.1756 ( 50)
           0.1794 ( 51)  0.1243 ( 65)  0.1091 ( 67)  0.1115 ( 70) -0.1551 ( 72)
          -0.1989 ( 74) -0.1067 ( 76) -0.1129 ( 78) -0.1510 ( 79) -0.1578 ( 80)
          -0.1422 ( 84) -0.1453 ( 92) -0.1160 ( 93) -0.1195 ( 94)
 CRD  7=  -0.1592 (  2) -0.2445 (  5) -0.1258 (  8)  0.1328 ( 25)  0.2168 ( 29)
          -0.2048 ( 31)  0.3195 ( 32) -0.1977 ( 33)  0.1684 ( 35) -0.1740 ( 36)
          -0.1081 ( 38)  0.1855 ( 42) -0.2817 ( 44)  0.1034 ( 45) -0.1545 ( 46)
           0.1214 ( 48)  0.1032 ( 74)  0.2937 ( 81)  0.1295 ( 82)  0.1774 ( 89)
           0.2039 ( 91)
 CRD  8=   0.1606 (  3)  0.1592 (  5) -0.1280 (  8)  0.1965 ( 13)  0.1048 ( 23)
          -0.1866 ( 28) -0.2286 ( 30)  0.1742 ( 31)  0.1483 ( 33)  0.1294 ( 34)
           0.1075 ( 35) -0.1606 ( 36) -0.1709 ( 37) -0.1666 ( 40) -0.1380 ( 43)
           0.2483 ( 47) -0.2203 ( 49)  0.1497 ( 50)  0.1108 ( 67)  0.1034 ( 69)
           0.1025 ( 70)  0.1517 ( 72) -0.1193 ( 74)  0.1169 ( 76)  0.1261 ( 77)
           0.1599 ( 80)  0.1304 ( 82)  0.1098 ( 85)  0.1464 ( 88)  0.1488 ( 90)
           0.2695 ( 92)  0.1764 ( 93)
 CRD  9=   0.2243 (  3)  0.1108 (  4)  0.2148 (  5)  0.5543 (  7)  0.1222 ( 25)
          -0.1052 ( 28)  0.1729 ( 29)  0.2166 ( 31)  0.1439 ( 35) -0.1205 ( 36)
          -0.2481 ( 38)  0.1833 ( 40)  0.1026 ( 52) -0.1786 ( 56) -0.1450 ( 57)
          -0.1388 ( 58) -0.1451 ( 69) -0.1049 ( 72)  0.1898 ( 74)  0.1516 ( 95)
 CRD 10=  -0.1029 (  3)  0.2346 (  5)  0.2788 (  7) -0.2800 ( 13)  0.1757 ( 29)
           0.2158 ( 30) -0.1573 ( 31)  0.1842 ( 37)  0.2049 ( 38) -0.2337 ( 40)
          -0.4015 ( 43)  0.1811 ( 47) -0.1024 ( 52) -0.1664 ( 58)  0.1702 ( 60)
           0.1175 ( 61)  0.1036 ( 72) -0.1887 ( 75) -0.1245 ( 76) -0.1265 ( 77)
          -0.1083 ( 95)
 CRD 11=   0.3868 (  2) -0.1373 (  3)  0.1440 (  5) -0.4193 ( 13)  0.1022 ( 23)
          -0.1823 ( 30)  0.1621 ( 31)  0.1304 ( 33) -0.2488 ( 38)  0.2072 ( 39)
           0.1121 ( 42) -0.2285 ( 46) -0.1424 ( 47) -0.1641 ( 49)  0.1750 ( 59)
           0.1092 ( 60)  0.1176 ( 67)  0.1259 ( 70) -0.1062 ( 73)
 CRD 12=  -0.1376 (  3)  0.1668 (  5) -0.5652 (  8)  0.1143 ( 13)  0.1051 ( 23)
           0.1210 ( 28) -0.1479 ( 30)  0.1279 ( 36) -0.4059 ( 39)  0.1653 ( 46)
          -0.2100 ( 51) -0.1506 ( 52)  0.2345 ( 62)  0.1927 ( 64)  0.1041 ( 97)
          -0.1076 ( 99)  0.1054 (110)
 CRD 13=   0.1439 (  2) -0.3708 (  3)  0.1595 (  5)  0.2450 (  8)  0.2927 ( 13)
           0.2734 ( 29) -0.2359 ( 30)  0.2585 ( 39)  0.1092 ( 41)  0.1066 ( 42)
           0.3598 ( 46)  0.1317 ( 57) -0.1649 ( 59) -0.1283 ( 60) -0.1002 ( 62)
          -0.1286 ( 64)  0.1018 ( 96)
 CRD 14=   0.2932 (  2) -0.3040 (  5)  0.1219 (  7) -0.1136 (  8)  0.1998 ( 13)
           0.1167 ( 15) -0.1122 ( 16)  0.1040 ( 18) -0.3374 ( 29)  0.3467 ( 31)
          -0.1916 ( 33) -0.1134 ( 38)  0.1288 ( 39) -0.1151 ( 40) -0.1169 ( 43)
           0.3318 ( 47)  0.1444 ( 49) -0.2018 ( 57)  0.1056 ( 58) -0.1334 ( 59)
          -0.1138 ( 61)  0.1115 ( 63) -0.1289 ( 75) -0.1016 ( 76)
 CRD 15=  -0.1024 (  1) -0.2406 (  2) -0.1537 (  3)  0.1394 (  8) -0.1148 ( 14)
           0.1058 ( 15) -0.1716 ( 27) -0.3729 ( 30)  0.3939 ( 31) -0.1260 ( 33)
           0.2027 ( 37)  0.2424 ( 38) -0.2128 ( 39) -0.1209 ( 46) -0.1757 ( 50)
           0.1336 ( 52) -0.1618 ( 56)  0.1572 ( 58) -0.1587 ( 63)  0.1218 ( 68)
           0.1102 ( 69) -0.1181 ( 75) -0.1338 ( 76) -0.1148 ( 77)
 CRD 16=   0.1221 (  2) -0.1027 (  5)  0.1376 (  7) -0.1817 ( 23)  0.2046 ( 27)
           0.2565 ( 29) -0.2412 ( 30)  0.1176 ( 31) -0.2090 ( 34)  0.1193 ( 35)
           0.2094 ( 38) -0.3269 ( 40)  0.1015 ( 42)  0.2834 ( 43) -0.1822 ( 46)
           0.1566 ( 51) -0.2105 ( 52) -0.1701 ( 56)  0.1073 ( 59) -0.1136 ( 62)
          -0.1360 ( 68) -0.1287 ( 71)  0.1807 ( 78)  0.1624 ( 79) -0.1123 ( 95)
 CRD 17=  -0.1446 (  3) -0.1138 (  4)  0.1257 ( 18)  0.1144 ( 20) -0.1295 ( 23)
           0.1394 ( 27)  0.2185 ( 29) -0.1014 ( 31)  0.1053 ( 33) -0.1529 ( 35)
          -0.2000 ( 38)  0.3402 ( 40) -0.1246 ( 45) -0.3022 ( 46)  0.4103 ( 47)
           0.1660 ( 60) -0.1519 ( 61)  0.1326 ( 62) -0.1172 ( 64) -0.1026 ( 68)
          -0.1342 ( 69) -0.1167 ( 71)  0.1088 ( 84)
 CRD 18=  -0.1377 (  3)  0.1129 (  8)  0.1062 (  9)  0.1099 ( 20) -0.1968 ( 23)
          -0.1134 ( 26)  0.2436 ( 27) -0.2184 ( 29)  0.1758 ( 31)  0.1099 ( 32)
          -0.1561 ( 34)  0.1245 ( 35) -0.1239 ( 37) -0.2022 ( 39)  0.2396 ( 40)
          -0.1403 ( 41)  0.1178 ( 42) -0.1602 ( 43)  0.2506 ( 46) -0.1356 ( 47)
           0.2454 ( 51) -0.1731 ( 52)  0.1011 ( 58)  0.1402 ( 61) -0.1496 ( 63)
           0.1046 ( 65) -0.1302 ( 68) -0.1297 ( 69)  0.1060 ( 70) -0.1531 ( 71)
           0.1062 ( 79)  0.1076 ( 81) -0.1247 ( 95)
 CRD 19=  -0.2063 (  2)  0.1780 (  3) -0.1102 (  4) -0.1053 (  7) -0.1305 (  8)
          -0.1528 (  9) -0.1070 ( 10) -0.1004 ( 11) -0.1118 ( 12) -0.1426 ( 13)
           0.1014 ( 21) -0.1205 ( 22) -0.1783 ( 23)  0.1178 ( 26)  0.1613 ( 28)
          -0.2102 ( 30) -0.1375 ( 33) -0.3286 ( 38)  0.2682 ( 39) -0.1017 ( 41)
          -0.2335 ( 43)  0.1798 ( 46) -0.1586 ( 50) -0.1270 ( 52)  0.1010 ( 54)
           0.1620 ( 61)  0.1958 ( 63) -0.1025 ( 93)
 CRD 20=   0.2500 (  2)  0.1599 (  3)  0.1573 (  4) -0.2925 (  5)  0.1218 (  9)
          -0.1911 ( 11) -0.1202 ( 12) -0.1260 ( 13)  0.1480 ( 23) -0.1440 ( 28)
           0.1755 ( 29) -0.1284 ( 30)  0.1420 ( 32)  0.1450 ( 34) -0.1405 ( 37)
           0.1948 ( 38) -0.1619 ( 39)  0.1887 ( 41) -0.2464 ( 43) -0.1547 ( 45)
           0.1936 ( 46)  0.1068 ( 55)  0.1645 ( 61) -0.1071 ( 63) -0.1364 ( 82)
           0.1176 ( 84) -0.1027 ( 87)
 CRD 21=   0.2738 (  1)  0.2318 (  2)  0.1813 (  3)  0.1960 ( 10)  0.1281 ( 11)
           0.1165 ( 20) -0.1052 ( 24)  0.1614 ( 26)  0.1199 ( 27) -0.1534 ( 28)
          -0.1842 ( 33)  0.1244 ( 35) -0.1479 ( 36)  0.2187 ( 37) -0.1321 ( 39)
           0.2416 ( 40)  0.1773 ( 42)  0.1140 ( 43) -0.1473 ( 48)  0.1789 ( 49)
          -0.1330 ( 50)  0.1131 ( 51) -0.1006 ( 53)  0.1069 ( 62)  0.1403 ( 66)
           0.1490 ( 73) -0.1254 ( 75) -0.1302 ( 76) -0.1304 ( 77)  0.1174 ( 82)
           0.1183 ( 88)  0.1270 ( 90) -0.1324 ( 94)
 CRD 22=  -0.1284 (  3) -0.1193 (  4) -0.1247 (  5)  0.1291 (  6)  0.2078 (  7)
          -0.1209 (  9)  0.2161 ( 11) -0.2948 ( 12)  0.1448 ( 17) -0.1518 ( 18)
          -0.1025 ( 25)  0.1309 ( 31)  0.1328 ( 34) -0.2086 ( 35)  0.1307 ( 41)
          -0.1571 ( 42)  0.2117 ( 43) -0.2540 ( 47)  0.1455 ( 48) -0.1005 ( 56)
          -0.1226 ( 57)  0.1393 ( 59) -0.1484 ( 60)  0.2084 ( 72) -0.1430 ( 74)
          -0.1139 ( 78) -0.1176 ( 79)  0.1056 ( 89)  0.1063 ( 91)  0.1219 ( 92)
           0.2291 ( 93)  0.1002 (103)  0.1137 (104)
 CRD 23=   0.1706 (  4)  0.1562 (  6) -0.2844 (  9)  0.3016 ( 10) -0.1006 ( 22)
           0.1058 ( 23)  0.1228 ( 33) -0.1521 ( 34)  0.1427 ( 35) -0.1441 ( 37)
          -0.1003 ( 38)  0.1035 ( 40) -0.1229 ( 41)  0.1588 ( 42) -0.1488 ( 49)
           0.1483 ( 50) -0.1073 ( 67)  0.1300 ( 68)  0.1582 ( 69)  0.1295 ( 71)
          -0.1054 ( 80) -0.1683 ( 84) -0.1957 ( 85) -0.1330 ( 88) -0.1195 ( 89)
          -0.1341 ( 90) -0.1468 ( 91) -0.1721 ( 94) -0.1707 ( 95) -0.1593 ( 98)
          -0.1867 (101)
 CRD 24=  -0.1828 (  1) -0.1153 (  3) -0.1227 (  5) -0.7617 (  6) -0.2524 ( 12)
          -0.2026 ( 15)  0.1037 ( 30) -0.1292 ( 58) -0.1198 ( 83) -0.1387 ( 89)
          -0.1211 ( 91)  0.1063 ( 92)
 CRD 25=  -0.1042 (  1) -0.1277 (  7) -0.1218 (  9) -0.1715 ( 11)  0.2422 ( 12)
          -0.3793 ( 14) -0.4187 ( 15) -0.3996 ( 16)  0.1255 ( 18)  0.1649 ( 29)
           0.1450 ( 30)  0.1487 ( 31)  0.1396 ( 49) -0.1651 ( 56) -0.1596 ( 57)
          -0.1636 ( 58)  0.1156 ( 73)  0.1010 ( 90)
 CRD 26=  -0.1681 ( 13) -0.5001 ( 17) -0.4844 ( 18) -0.4662 ( 19)  0.1700 ( 43)
           0.1910 ( 46)  0.1764 ( 47) -0.1990 ( 59) -0.1935 ( 60) -0.1848 ( 61)
 CRD 27=   0.1721 (  8)  0.4974 ( 20)  0.4758 ( 21)  0.4995 ( 22) -0.1749 ( 38)
          -0.1926 ( 39) -0.1752 ( 40)  0.1983 ( 62)  0.1857 ( 63)  0.1980 ( 64)
 CRD 28=   0.3439 (  1) -0.2602 (  4) -0.1089 (  7)  0.3141 (  9) -0.2838 ( 10)
           0.1092 ( 11) -0.1352 ( 12) -0.2702 ( 14) -0.2345 ( 15) -0.2312 ( 16)
           0.1383 ( 42) -0.1139 ( 49)  0.1146 ( 52) -0.1001 ( 57) -0.1006 ( 65)
          -0.1003 ( 67) -0.1055 ( 69) -0.1008 ( 70) -0.1158 ( 78) -0.1086 ( 79)
          -0.1119 (104)
 CRD 29=   0.2136 (  4)  0.1793 (  5) -0.1064 (  7)  0.1349 ( 10)  0.1195 ( 11)
          -0.1784 ( 12) -0.1198 ( 14) -0.1348 ( 16) -0.1012 ( 23)  0.1023 ( 25)
          -0.1058 ( 29) -0.1071 ( 35)  0.1739 ( 41) -0.1071 ( 49)  0.1460 ( 51)
          -0.1034 ( 52) -0.1957 ( 65) -0.1527 ( 67) -0.1946 ( 70) -0.1029 ( 73)
           0.1181 ( 78)  0.1400 ( 79) -0.1667 ( 83)  0.1245 ( 84) -0.1237 ( 86)
          -0.1655 ( 87)  0.1559 ( 89)  0.1042 ( 91)  0.1942 ( 96)  0.1722 ( 97)
           0.1756 ( 98)  0.1394 ( 99)  0.1175 (100)  0.1240 (101) -0.1767 (102)
          -0.1116 (104) -0.1337 (105) -0.1755 (106)
 CRD 30=   0.1170 (  1) -0.1914 (  3) -0.1389 (  4)  0.1123 (  7) -0.3580 ( 11)
           0.1311 ( 14)  0.1082 ( 30) -0.1046 ( 44) -0.1888 ( 50) -0.1012 ( 57)
          -0.1570 ( 65)  0.1638 ( 66) -0.1483 ( 70)  0.1249 ( 73)  0.1172 ( 75)
           0.1257 ( 76)  0.1224 ( 77) -0.1955 ( 83) -0.1351 ( 86) -0.1867 ( 87)
           0.1985 ( 88)  0.1596 ( 90) -0.1029 (101) -0.1748 (102)  0.2244 (103)
           0.1855 (104) -0.1145 (105) -0.1661 (106)  0.1383 (116)  0.1299 (117)
           0.1351 (118)
 CRD 31=  -0.1666 (  9) -0.1685 ( 10)  0.1270 ( 19) -0.2932 ( 20)  0.6210 ( 21)
          -0.2843 ( 22)  0.1578 ( 62) -0.3212 ( 63)  0.1533 ( 64) -0.1688 ( 68)
           0.1673 ( 71) -0.1838 (107)  0.1522 (108) -0.1536 (110)  0.1825 (111)
 CRD 32=  -0.1132 ( 11) -0.1307 ( 12) -0.2889 ( 17) -0.3011 ( 18)  0.6203 ( 19)
          -0.1223 ( 21)  0.1552 ( 59)  0.1617 ( 60) -0.3224 ( 61)  0.1602 ( 76)
          -0.1798 ( 77)  0.1541 (113) -0.1859 (115)  0.1684 (116) -0.1716 (118)
 CRD 33=   0.3392 ( 14) -0.5642 ( 15)  0.2446 ( 16) -0.2049 ( 17)  0.1733 ( 18)
          -0.1129 ( 20)  0.1188 ( 22) -0.1854 ( 56) -0.1256 ( 57)  0.3067 ( 58)
           0.1087 ( 59)  0.1687 ( 65) -0.1638 ( 70)  0.1798 ( 83) -0.1527 ( 87)
           0.1755 (102) -0.1569 (106)
 CRD 34=   0.1734 ( 15) -0.1847 ( 16) -0.4816 ( 17)  0.4946 ( 18)  0.1754 ( 20)
          -0.1841 ( 22)  0.2580 ( 59) -0.2649 ( 60) -0.2039 ( 75) -0.1966 (114)
          -0.1950 (117)
 CRD 35=  -0.1920 ( 15)  0.1098 ( 16)  0.1203 ( 17) -0.1420 ( 18)  0.5066 ( 20)
          -0.5055 ( 22)  0.1068 ( 58) -0.2711 ( 62)  0.2712 ( 64) -0.2095 ( 69)
          -0.1992 (109) -0.1998 (112)
 CRD 36=   0.5371 ( 14) -0.5646 ( 16)  0.1298 ( 17) -0.2669 ( 56)  0.2709 ( 57)
          -0.2300 ( 67) -0.2303 ( 86) -0.2468 (105)
 CRD 37=   0.3129 (  1)  0.3254 (  4) -0.4991 (  9) -0.5182 ( 10)  0.1217 ( 20)
          -0.1342 ( 21)  0.1197 ( 22)  0.1136 ( 53) -0.1941 ( 54) -0.1002 ( 78)
           0.1309 ( 96) -0.1643 (100) -0.1416 (108)  0.1138 (110)
 CRD 38=   0.3367 (  1)  0.3946 (  4)  0.2589 (  9)  0.2390 ( 10)  0.3608 ( 11)
           0.3716 ( 12)  0.1668 ( 53)  0.1197 ( 54)  0.1577 ( 55) -0.1413 ( 99)
           0.1060 (103) -0.1008 (110)  0.1105 (113)
 CRD 39=   0.3050 (  1)  0.3665 (  4)  0.1678 (  9)  0.1391 ( 10) -0.4391 ( 11)
          -0.4316 ( 12)  0.1594 ( 53) -0.1964 ( 55) -0.1099 ( 88) -0.1134 (113)
 CRD 40=   0.3947 (  1) -0.3188 (  4) -0.1255 ( 11)  0.1668 ( 12) -0.1100 ( 52)
           0.1400 ( 68)  0.1136 ( 69)  0.1379 ( 71) -0.1598 ( 84) -0.1125 ( 85)
          -0.1771 ( 89) -0.1298 ( 91)  0.1391 ( 94)  0.1274 ( 95)  0.1989 ( 96)
           0.2090 ( 97) -0.1611 ( 98)  0.1872 ( 99)  0.1973 (100) -0.1138 (101)
           0.1797 (107)  0.1775 (108)  0.1533 (109)  0.1827 (110)  0.1805 (111)
           0.1562 (112)
 CRD 41=  -0.1368 (  6) -0.1843 (  9)  0.1891 ( 10) -0.2872 ( 11)  0.2826 ( 12)
           0.1005 ( 33) -0.1020 ( 68) -0.1012 ( 71) -0.1524 ( 75) -0.1575 ( 76)
          -0.1536 ( 77) -0.1597 (107) -0.1589 (108) -0.1567 (109) -0.1659 (110)
          -0.1651 (111) -0.1629 (112) -0.2543 (113) -0.2493 (114) -0.2504 (115)
          -0.2465 (116) -0.2414 (117) -0.2426 (118)
 CRD 42=   0.2063 (  1) -0.2049 (  4) -0.3180 (  9)  0.3237 ( 10)  0.1798 ( 11)
          -0.1792 ( 12) -0.1196 ( 68) -0.1382 ( 69) -0.1217 ( 71)  0.1087 ( 75)
           0.1027 ( 76)  0.1115 ( 78)  0.1060 ( 79)  0.1036 ( 94)  0.1103 ( 95)
           0.1329 ( 96)  0.1385 ( 97)  0.1396 ( 99)  0.1452 (100) -0.1877 (107)
          -0.1898 (108) -0.2063 (109) -0.1859 (110) -0.1880 (111) -0.2045 (112)
           0.1482 (113)  0.1542 (114)  0.1449 (115)  0.1480 (116)  0.1540 (117)
           0.1447 (118)
 CRD 43=   0.1443 (  3) -0.1595 ( 20) -0.2858 ( 21) -0.1500 ( 22) -0.1777 ( 23)
          -0.1743 ( 27) -0.1526 ( 34) -0.1520 ( 35) -0.1660 ( 38) -0.2100 ( 39)
          -0.1686 ( 40)  0.1141 ( 41)  0.1244 ( 42)  0.2045 ( 51)  0.2148 ( 52)
           0.2254 ( 62)  0.1253 ( 63)  0.2337 ( 64) -0.1368 ( 78)  0.1293 ( 79)
           0.2174 ( 96) -0.2185 (100) -0.1382 (101)  0.1304 (102)  0.1457 (105)
           0.1262 (106)  0.1345 (108) -0.1123 (110)
 CRD 44=   0.1104 (  3)  0.1778 (  5) -0.1350 (  6)  0.1651 ( 13) -0.1878 ( 17)
          -0.2118 ( 18) -0.3063 ( 19) -0.1047 ( 21) -0.1532 ( 33) -0.1497 ( 37)
          -0.2072 ( 43) -0.2412 ( 46) -0.2129 ( 47)  0.1773 ( 49)  0.1877 ( 50)
           0.2752 ( 59)  0.2552 ( 60)  0.1804 ( 61) -0.1120 ( 66)  0.1388 ( 73)
          -0.1490 ( 88)  0.1019 ( 90)  0.1611 (104) -0.1209 (105) -0.1115 (106)
           0.1101 (113)
 CRD 45=  -0.1128 (  6) -0.3584 (  7)  0.2538 ( 14)  0.2953 ( 15)  0.2513 ( 16)
           0.2563 ( 29)  0.2589 ( 30)  0.2653 ( 31) -0.1152 ( 48) -0.2862 ( 56)
          -0.2869 ( 57) -0.2578 ( 58)  0.1128 ( 82) -0.1152 ( 93)  0.1410 ( 98)
           0.1438 (101) -0.1407 (103) -0.1609 (104)
 CRD 46=   0.1196 (  1) -0.1476 (  2)  0.1434 (  3)  0.1176 (  5) -0.2675 (  6)
          -0.3116 (  8)  0.1065 ( 12)  0.1321 ( 15) -0.1351 ( 16)  0.1654 ( 20)
           0.1033 ( 21)  0.1866 ( 22) -0.1056 ( 34)  0.1611 ( 38)  0.1458 ( 39)
           0.1472 ( 40)  0.1737 ( 41)  0.1386 ( 42)  0.1322 ( 58) -0.1511 ( 62)
          -0.1987 ( 63) -0.1370 ( 64) -0.1041 ( 82)  0.1018 ( 83) -0.1121 ( 85)
           0.1702 ( 89) -0.1183 ( 99) -0.1794 (101)  0.1962 (102)  0.1645 (105)
           0.1052 (108)  0.1192 (118)
 CRD 47=  -0.1471 (  1)  0.3598 (  6) -0.1173 (  7) -0.2036 (  8) -0.1758 ( 12)
           0.2469 ( 13)  0.2270 ( 14) -0.1622 ( 15) -0.1745 ( 17)  0.1051 ( 22)
          -0.1177 ( 34) -0.1053 ( 35) -0.1024 ( 46) -0.2046 ( 58)  0.1620 ( 60)
           0.1043 ( 61) -0.1101 ( 63)  0.1235 ( 67)  0.1486 ( 70) -0.1877 ( 83)
           0.1305 ( 88)  0.1326 ( 94)  0.1512 ( 96)  0.1371 ( 97)  0.1329 (105)
           0.1579 (106) -0.1151 (116) -0.1096 (118)
 CRD 48=   0.1010 (  2)  0.1663 (  3)  0.1191 (  5) -0.2701 (  8) -0.3399 ( 13)
           0.2053 ( 17)  0.1560 ( 18)  0.1730 ( 20) -0.1172 ( 27) -0.1601 ( 33)
          -0.1020 ( 35) -0.1292 ( 37)  0.1000 ( 46)  0.1043 ( 47)  0.1023 ( 49)
           0.1023 ( 50)  0.1077 ( 55) -0.2334 ( 61) -0.1744 ( 63) -0.1048 (102)
          -0.1673 (105)  0.1002 (108) -0.1804 (110)  0.2189 (113)  0.1122 (114)
          -0.1328 (117) -0.1860 (118)
 CRD 49=   0.1428 (  1) -0.1639 (  4)  0.1217 (  5) -0.2454 (  9)  0.2492 ( 10)
           0.1204 ( 11) -0.1733 ( 12) -0.1234 ( 13)  0.2140 ( 18) -0.2055 ( 20)
           0.1857 ( 22) -0.1354 ( 37) -0.1091 ( 59)  0.1075 ( 60) -0.1436 ( 62)
           0.1500 ( 64) -0.1542 ( 69)  0.1426 ( 75) -0.1726 ( 96) -0.1666 ( 97)
          -0.1954 ( 99) -0.1894 (100)  0.1835 (107)  0.1750 (108)  0.1993 (110)
           0.1908 (111) -0.1055 (115) -0.1224 (116) -0.2066 (118)
 CRD 50=  -0.1973 (  2)  0.1299 (  5)  0.2034 (  7)  0.1029 ( 10) -0.2226 ( 11)
          -0.1082 ( 16)  0.1871 ( 17) -0.1470 ( 19) -0.1006 ( 20)  0.1712 ( 21)
           0.1114 ( 23)  0.1193 ( 26) -0.1207 ( 33) -0.1025 ( 48) -0.1415 ( 54)
           0.1359 ( 55)  0.1214 ( 56)  0.1396 ( 59) -0.1097 ( 61)  0.1445 ( 63)
           0.1045 ( 68)  0.1050 ( 76) -0.1199 ( 93) -0.1046 ( 95) -0.1399 (100)
          -0.1641 (103) -0.2357 (104)  0.1391 (105) -0.1826 (108)  0.2033 (110)
           0.1119 (112)  0.2700 (113)  0.1185 (115)
 CRD 51=  -0.2330 (  2)  0.1104 (  4)  0.2200 (  5) -0.1767 (  7)  0.1647 (  9)
           0.1400 ( 11) -0.1298 ( 12) -0.1603 ( 13)  0.1220 ( 15)  0.2151 ( 18)
           0.1317 ( 21) -0.2087 ( 22)  0.1135 ( 23) -0.1085 ( 37)  0.1079 ( 48)
          -0.1193 ( 57) -0.1097 ( 59)  0.1035 ( 60)  0.1308 ( 63) -0.1241 ( 64)
          -0.1059 ( 71)  0.1170 ( 73)  0.1247 ( 75) -0.1361 ( 82) -0.1287 ( 85)
          -0.1022 ( 98) -0.2160 (101)  0.1595 (104) -0.2378 (108) -0.1166 (111)
          -0.1338 (115) -0.1845 (118)
 CRD 52=   0.1034 (  1)  0.1277 (  2) -0.2821 (  3)  0.1502 (  5)  0.1647 (  8)
          -0.1541 ( 10)  0.1637 ( 14) -0.2097 ( 16) -0.1462 ( 19)  0.1332 ( 20)
          -0.2180 ( 21)  0.1015 ( 26)  0.1085 ( 35) -0.1029 ( 53)  0.1840 ( 54)
           0.1451 ( 56) -0.1344 ( 57)  0.1517 ( 62) -0.1109 ( 63)  0.1303 ( 67)
          -0.1146 ( 68)  0.1200 ( 78)  0.1419 ( 86) -0.1754 ( 96)  0.1804 (100)
          -0.1296 (104)  0.2318 (105)  0.1431 (108)  0.1114 (109) -0.2169 (110)
           0.1302 (113) -0.1214 (118)
 CRD 53=  -0.2301 (  4) -0.1134 (  5)  0.2737 (  7) -0.2214 ( 17)  0.1419 ( 18)
           0.2010 ( 20) -0.1748 ( 22) -0.1297 ( 42)  0.1282 ( 45) -0.1115 ( 48)
           0.1058 ( 53) -0.1655 ( 59)  0.1079 ( 60)  0.1276 ( 62) -0.1557 ( 64)
           0.2176 ( 69)  0.2085 ( 75) -0.1532 ( 80)  0.1209 ( 91) -0.1002 ( 95)
           0.1336 ( 98) -0.1305 (100)  0.2405 (101)  0.1422 (109)  0.1566 (112)
          -0.1334 (113)  0.1330 (114) -0.1141 (116)  0.1523 (117)
 CRD 54=  -0.1569 (  2)  0.1518 (  8) -0.1064 ( 12)  0.2696 ( 13) -0.2319 ( 14)
           0.2258 ( 16) -0.1966 ( 19) -0.1042 ( 29) -0.1402 ( 49) -0.1258 ( 50)
           0.1381 ( 55) -0.1681 ( 56)  0.1745 ( 57)  0.1404 ( 60)  0.1362 ( 65)
           0.1350 ( 66) -0.1490 ( 67)  0.1393 ( 70) -0.1201 ( 73) -0.1161 ( 77)
           0.1496 ( 83) -0.1356 ( 86)  0.1527 ( 87)  0.1623 ( 88)  0.1096 ( 89)
           0.1272 ( 98)  0.1142 (102)  0.1432 (103) -0.1119 (104) -0.1710 (105)
           0.1172 (106) -0.1189 (115) -0.1350 (118)
 CRD 55=  -0.1051 (  1)  0.2474 (  2) -0.2604 (  8)  0.1843 ( 13)  0.2191 ( 15)
          -0.1072 ( 16) -0.1697 ( 19) -0.1165 ( 24) -0.1475 ( 41) -0.1270 ( 42)
          -0.1119 ( 50)  0.1165 ( 51)  0.1037 ( 52)  0.1136 ( 53) -0.1278 ( 54)
           0.1519 ( 58)  0.1138 ( 66) -0.1832 ( 70) -0.1206 ( 78)  0.1198 ( 79)
           0.1581 ( 83) -0.1510 ( 84) -0.1050 ( 87)  0.1293 ( 88) -0.1737 ( 89)
           0.1259 ( 96) -0.1144 ( 97) -0.1814 ( 98)  0.1466 ( 99)  0.1255 (102)
           0.1348 (103) -0.1376 (106) -0.1173 (115) -0.1012 (118)
 CRD 56=  -0.1712 (  1) -0.1198 (  2)  0.1720 (  3)  0.1639 (  8)  0.1486 ( 15)
          -0.2479 ( 21)  0.1062 ( 22)  0.1425 ( 23)  0.1456 ( 27) -0.1259 ( 36)
          -0.1005 ( 38)  0.1319 ( 39) -0.1300 ( 51) -0.1487 ( 52)  0.2015 ( 53)
           0.1078 ( 58)  0.1009 ( 62) -0.1522 ( 63)  0.1129 ( 64) -0.1599 ( 68)
          -0.1042 ( 70)  0.1641 ( 71) -0.1007 ( 84) -0.1132 ( 87) -0.1376 ( 89)
           0.1616 ( 94) -0.1345 ( 95)  0.1062 ( 96)  0.2381 ( 97) -0.1050 ( 98)
          -0.1899 ( 99) -0.2618 (107) -0.1114 (109)  0.2560 (111)
 CRD 57=  -0.1529 (  4) -0.1718 (  7)  0.1060 ( 10)  0.1217 ( 11)  0.2019 ( 17)
          -0.1028 ( 18)  0.1877 ( 20) -0.1521 ( 22) -0.1021 ( 26) -0.1241 ( 40)
          -0.1345 ( 43)  0.1090 ( 48) -0.1169 ( 50) -0.1116 ( 51)  0.1483 ( 59)
           0.1381 ( 62) -0.1139 ( 64) -0.1231 ( 68)  0.1385 ( 69) -0.1729 ( 72)
           0.1913 ( 74) -0.1231 ( 75)  0.1587 ( 76) -0.1384 ( 82)  0.1296 ( 85)
           0.1068 ( 91) -0.1159 ( 92) -0.1160 (100)  0.1332 (104)  0.1884 (109)
           0.2375 (112) -0.2494 (114) -0.1123 (115)  0.1583 (116) -0.1235 (117)
 CRD 58=  -0.1462 (  5)  0.1005 (  9)  0.1839 ( 12) -0.1423 ( 15)  0.1840 ( 18)
          -0.1833 ( 19)  0.1190 ( 22)  0.1425 ( 32)  0.1621 ( 46) -0.1357 ( 47)
          -0.1171 ( 49) -0.1873 ( 55)  0.1286 ( 60) -0.1450 ( 61) -0.1645 ( 65)
           0.1178 ( 71) -0.2069 ( 77) -0.1008 ( 83) -0.1619 ( 88) -0.1202 (102)
          -0.1223 (107) -0.1617 (109)  0.1371 (111) -0.2963 (115)  0.2815 (116)
           0.2609 (117)
 CRD 59=   0.1270 (  2)  0.1711 (  3) -0.2149 (  5)  0.1415 (  8) -0.1367 (  9)
          -0.1568 ( 10) -0.1121 ( 16)  0.1221 ( 21) -0.2062 ( 28) -0.1406 ( 39)
           0.1071 ( 53)  0.2183 ( 54)  0.1121 ( 63)  0.1101 ( 67)  0.1209 ( 68)
           0.1234 ( 78) -0.1392 ( 79) -0.1038 ( 87) -0.1071 ( 89) -0.1025 ( 95)
           0.2448 ( 97) -0.2164 ( 99) -0.1927 (106)  0.2448 (107)  0.1177 (109)
          -0.2419 (111) -0.1547 (112) -0.1412 (115)  0.1352 (116)
 CRD 60=   0.1890 (  2) -0.1933 (  3)  0.1924 (  5) -0.1386 ( 13) -0.1333 ( 14)
           0.1494 ( 16)  0.1589 ( 25)  0.1635 ( 26) -0.1433 ( 29)  0.1309 ( 30)
           0.1029 ( 32) -0.1162 ( 36) -0.1436 ( 44) -0.1706 ( 45)  0.1019 ( 53)
          -0.1009 ( 56)  0.1081 ( 57) -0.2515 ( 67)  0.1065 ( 85) -0.2655 ( 86)
           0.1975 ( 90)  0.1796 ( 91)  0.1026 ( 92) -0.1921 ( 98)  0.2491 (102)
          -0.1862 (103)  0.2755 (106)  0.1024 (107) -0.1027 (111)
 CRD 61=  -0.1030 (  1)  0.1436 (  3)  0.1117 (  5) -0.1523 (  7) -0.1164 (  9)
          -0.2088 ( 11) -0.1266 ( 17) -0.1493 ( 24) -0.1008 ( 32) -0.1002 ( 36)
           0.1193 ( 37)  0.1214 ( 43)  0.1455 ( 48) -0.1172 ( 49)  0.1044 ( 50)
          -0.1402 ( 65) -0.1172 ( 71)  0.1195 ( 72) -0.1603 ( 73) -0.2198 ( 76)
          -0.1581 ( 77)  0.1181 ( 80)  0.1143 ( 81)  0.1226 ( 85)  0.1058 ( 87)
          -0.2092 ( 90)  0.1188 ( 91)  0.2655 ( 93)  0.1491 ( 94) -0.1738 ( 98)
          -0.1037 ( 99)  0.1161 (103)  0.1336 (109)  0.2394 (114)  0.1016 (115)
           0.1375 (117)
 CRD 62=   0.1178 (  3) -0.1473 (  4)  0.1113 (  5) -0.1356 (  6)  0.1186 (  9)
          -0.1663 ( 10) -0.1366 ( 12)  0.1111 ( 23) -0.1278 ( 24) -0.1045 ( 32)
          -0.1085 ( 36)  0.1028 ( 40)  0.1254 ( 48)  0.1054 ( 51) -0.1039 ( 52)
          -0.1635 ( 65)  0.1160 ( 66)  0.1953 ( 68)  0.1731 ( 71)  0.1129 ( 77)
           0.1492 ( 78) -0.1561 ( 80) -0.1619 ( 82)  0.1260 ( 86)  0.1856 ( 87)
          -0.1424 ( 90)  0.1955 ( 91) -0.1721 ( 92) -0.1290 ( 94) -0.2356 ( 95)
           0.1022 ( 97)  0.1529 (103) -0.1502 (109) -0.1933 (112) -0.1341 (117)
 CRD 63=   0.1538 (  1) -0.1211 (  4)  0.1699 (  6) -0.1314 (  7)  0.1182 ( 12)
           0.1177 ( 25) -0.1266 ( 26) -0.1147 ( 33) -0.1354 ( 34)  0.1055 ( 35)
           0.1135 ( 41)  0.1097 ( 44) -0.1107 ( 45)  0.1453 ( 65) -0.2390 ( 66)
           0.1365 ( 68)  0.1426 ( 71) -0.1846 ( 73) -0.1436 ( 76) -0.1540 ( 77)
           0.1969 ( 78)  0.2154 ( 79) -0.2250 ( 81) -0.1928 ( 82)  0.2425 ( 84)
           0.1968 ( 85) -0.1309 ( 87)  0.1777 ( 92)  0.1486 ( 93) -0.1665 ( 94)
          -0.1512 ( 95)  0.1075 (117)

 THE DETERMINANT OF THE G MATRIX IS 10**(   -20)


                     --------------------
                     INTERNAL COORDINATES
                     --------------------

                 - - ATOMS - -         COORDINATE      COORDINATE
 NO.   TYPE    I  J  K  L  M  N        (BOHR,RAD)       (ANG,DEG)
 ----------------------------------------------------------------
   1 STRETCH   1  9                     2.0952441       1.1087555
   2 STRETCH   1  3                     2.8747275       1.5212404
   3 STRETCH   1  2                     2.8935669       1.5312098
   4 STRETCH   1  8                     2.0948516       1.1085478
   5 STRETCH   2  4                     2.8907705       1.5297300
   6 STRETCH   2 10                     2.1135095       1.1184211
   7 STRETCH   2  5                     2.8746968       1.5212242
   8 STRETCH   3  7                     2.8553002       1.5109599
   9 STRETCH   3 12                     2.0936939       1.1079352
  10 STRETCH   3 11                     2.1053322       1.1140939
  11 STRETCH   4 14                     2.0953487       1.1088109
  12 STRETCH   4 13                     2.0947431       1.1084904
  13 STRETCH   4  6                     2.8581125       1.5124481
  14 STRETCH   5 16                     2.0736816       1.0973451
  15 STRETCH   5 15                     2.0752902       1.0981963
  16 STRETCH   5 17                     2.0849472       1.1033066
  17 STRETCH   6 20                     2.0761376       1.0986448
  18 STRETCH   6 19                     2.0755467       1.0983321
  19 STRETCH   6 18                     2.0740675       1.0975494
  20 STRETCH   7 23                     2.0749397       1.0980109
  21 STRETCH   7 22                     2.0737285       1.0973699
  22 STRETCH   7 21                     2.0752732       1.0981874
  23 BEND      1  3 11                  1.9012105     108.9313404
  24 BEND      1  2  4                  1.9205219     110.0377989
  25 BEND      1  2  5                  1.9217248     110.1067199
  26 BEND      1  2 10                  1.8890821     108.2364298
  27 BEND      1  3 12                  1.9181389     109.9012631
  28 BEND      1  3  7                  1.9496037     111.7040638
  29 BEND      2  5 17                  1.9241831     110.2475698
  30 BEND      2  5 16                  1.9513203     111.8024163
  31 BEND      2  5 15                  1.9513749     111.8055438
  32 BEND      2  4  6                  1.9641718     112.5387536
  33 BEND      2  4 13                  1.9166123     109.8137981
  34 BEND      2  1  9                  1.9140743     109.6683809
  35 BEND      2  1  8                  1.9209939     110.0648411
  36 BEND      2  1  3                  1.9476196     111.5903838
  37 BEND      2  4 14                  1.9106592     109.4727059
  38 BEND      3  7 21                  1.9495061     111.6984727
  39 BEND      3  7 22                  1.9421213     111.2753521
  40 BEND      3  7 23                  1.9472659     111.5701155
  41 BEND      3  1  8                  1.9132411     109.6206377
  42 BEND      3  1  9                  1.9214010     110.0881685
  43 BEND      4  6 20                  1.9526095     111.8762814
  44 BEND      4  2  5                  1.9436730     111.3642604
  45 BEND      4  2 10                  1.8924502     108.4294082
  46 BEND      4  6 18                  1.9394839     111.1242422
  47 BEND      4  6 19                  1.9494161     111.6933132
  48 BEND      5  2 10                  1.8951464     108.5838914
  49 BEND      6  4 13                  1.9211338     110.0728609
  50 BEND      6  4 14                  1.9055108     109.1777269
  51 BEND      7  3 11                  1.9300858     110.5857691
  52 BEND      7  3 12                  1.9213069     110.0827774
  53 BEND      8  1  9                  1.8437290     105.6378918
  54 BEND     11  3 12                  1.8403109     105.4420457
  55 BEND     13  4 14                  1.8416922     105.5211901
  56 BEND     15  5 17                  1.8732595     107.3298640
  57 BEND     15  5 16                  1.8772457     107.5582534
  58 BEND     16  5 17                  1.8832099     107.8999811
  59 BEND     18  6 19                  1.8741108     107.3786390
  60 BEND     18  6 20                  1.8726556     107.2952613
  61 BEND     19  6 20                  1.8713957     107.2230756
  62 BEND     21  7 22                  1.8741938     107.3833956
  63 BEND     21  7 23                  1.8717721     107.2446423
  64 BEND     22  7 23                  1.8750135     107.4303591
  65 TORSION   1  2  5 17              -0.8710492     -49.9074441
  66 TORSION   1  2  4 14               0.7693819      44.0823365
  67 TORSION   1  2  5 15               1.2113071      69.4027842
  68 TORSION   1  3  7 21               1.0560315      60.5061495
  69 TORSION   1  3  7 22              -3.1327473    -179.4931988
  70 TORSION   1  2  5 16              -2.9658999    -169.9335494
  71 TORSION   1  3  7 23              -1.0388182     -59.5198991
  72 TORSION   1  2  4  6               2.8916979     165.6820834
  73 TORSION   1  2  4 13              -1.2448926     -71.3270892
  74 TORSION   2  1  3  7              -3.0190567    -172.9792059
  75 TORSION   2  4  6 18              -3.1252225    -179.0620619
  76 TORSION   2  4  6 19              -1.0327828     -59.1740962
  77 TORSION   2  4  6 20               1.0652159      61.0323772
  78 TORSION   2  1  3 12               1.1262826      64.5312392
  79 TORSION   2  1  3 11              -0.8818593     -50.5268136
  80 TORSION   3  1  2  4              -2.9979647    -171.7707238
  81 TORSION   3  1  2  5               1.1363026      65.1053451
  82 TORSION   3  1  2 10              -0.9328051     -53.4457962
  83 TORSION   4  2  5 17              -3.0063573    -172.2515864
  84 TORSION   4  2  1  8              -0.8697395     -49.8324040
  85 TORSION   4  2  1  9               1.1514362      65.9724328
  86 TORSION   4  2  5 15              -0.9240010     -52.9413581
  87 TORSION   4  2  5 16               1.1819773      67.7223083
  88 TORSION   5  2  4 14               2.9053836     166.4662171
  89 TORSION   5  2  1  8              -3.0186575    -172.9563351
  90 TORSION   5  2  4 13               0.8911091      51.0567913
  91 TORSION   5  2  1  9              -0.9974818     -57.1514982
  92 TORSION   5  2  4  6              -1.2554858     -71.9340361
  93 TORSION   6  4  2 10               0.8286140      47.4760855
  94 TORSION   7  3  1  8               1.1314377      64.8266027
  95 TORSION   7  3  1  9              -0.8894893     -50.9639852
  96 TORSION   8  1  3 11              -3.0145502    -172.7210049
  97 TORSION   8  1  3 12              -1.0064084     -57.6629522
  98 TORSION   8  1  2 10               1.1954200      68.4925236
  99 TORSION   9  1  3 11               1.2477081      71.4884072
 100 TORSION   9  1  3 12              -3.0273354    -173.4535401
 101 TORSION   9  1  2 10              -3.0665896    -175.7026396
 102 TORSION  10  2  5 17               1.1943322      68.4301956
 103 TORSION  10  2  4 14              -1.2937019     -74.1236613
 104 TORSION  10  2  4 13               2.9752089     170.4669129
 105 TORSION  10  2  5 15              -3.0064968    -172.2595761
 106 TORSION  10  2  5 16              -0.9005185     -51.5959097
 107 TORSION  11  3  7 21              -1.0645510     -60.9942808
 108 TORSION  11  3  7 23               3.1237845     178.9796705
 109 TORSION  11  3  7 22               1.0298555      59.0063709
 110 TORSION  12  3  7 21              -3.0911213    -177.1082028
 111 TORSION  12  3  7 23               1.0972143      62.8657486
 112 TORSION  12  3  7 22              -0.9967148     -57.1075511
 113 TORSION  13  4  6 19               3.1063419     177.9802788
 114 TORSION  13  4  6 18               1.0139021      58.0923130
 115 TORSION  13  4  6 20              -1.0788447     -61.8132479
 116 TORSION  14  4  6 19               1.0924583      62.5932518
 117 TORSION  14  4  6 18              -0.9999814     -57.2947139
 118 TORSION  14  4  6 20              -3.0927282    -177.2002748

     ------------------------------------------
     THE POINT GROUP IS C1 , NAXIS= 1, ORDER= 1
     ------------------------------------------

     DIMENSIONS OF THE SYMMETRY SUBSPACES ARE
 A   =  229

 ..... DONE SETTING UP THE RUN .....
 STEP CPU TIME =     0.02 TOTAL CPU TIME =        0.0 (    0.0 MIN)
 TOTAL WALL CLOCK TIME=        0.0 SECONDS, CPU UTILIZATION IS  66.67%


          -----------------------------
          STATIONARY POINT LOCATION RUN
          -----------------------------

 OBTAINING INITIAL HESSIAN, HESS=GUESS   
 DIAGONAL GUESS HESSIAN IN INTERNAL COORDS IS
     1  0.3340     2  0.3735     3  0.3663     4  0.3341     5  0.3674
     6  0.3277     7  0.3735     8  0.3810     9  0.3345    10  0.3305
    11  0.3339    12  0.3341    13  0.3799    14  0.3415    15  0.3409
    16  0.3375    17  0.3406    18  0.3408    19  0.3413    20  0.3410
    21  0.3414    22  0.3409    23  0.2232    24  0.2484    25  0.2490
    26  0.2223    27  0.2235    28  0.2505    29  0.2238    30  0.2242
    31  0.2241    32  0.2497    33  0.2230    34  0.2229    35  0.2229
    36  0.2490    37  0.2230    38  0.2247    39  0.2248    40  0.2247
    41  0.2235    42  0.2235    43  0.2246    44  0.2491    45  0.2224
    46  0.2247    47  0.2246    48  0.2229    49  0.2240    50  0.2240
    51  0.2238    52  0.2241    53  0.2015    54  0.2013    55  0.2015
    56  0.2023    57  0.2026    58  0.2024    59  0.2026    60  0.2026
    61  0.2026    62  0.2026    63  0.2026    64  0.2026    65  0.2500
    66  0.2500    67  0.2500    68  0.2500    69  0.2500    70  0.2500
    71  0.2500    72  0.2500    73  0.2500    74  0.2500    75  0.2500
    76  0.2500    77  0.2500    78  0.2500    79  0.2500    80  0.2500
    81  0.2500    82  0.2500    83  0.2500    84  0.2500    85  0.2500
    86  0.2500    87  0.2500    88  0.2500    89  0.2500    90  0.2500
    91  0.2500    92  0.2500    93  0.2500    94  0.2500    95  0.2500
    96  0.2500    97  0.2500    98  0.2500    99  0.2500   100  0.2500
   101  0.2500   102  0.2500   103  0.2500   104  0.2500   105  0.2500
   106  0.2500   107  0.2500   108  0.2500   109  0.2500   110  0.2500
   111  0.2500   112  0.2500   113  0.2500   114  0.2500   115  0.2500
   116  0.2500   117  0.2500   118  0.2500
 TRANSFORMING HESSIAN TO SYMMETRY COORDINATES

          PARAMETERS CONTROLLING GEOMETRY SEARCH ARE
          METHOD =QA                  UPHESS =BFGS    
          NNEG   =         0          NFRZ   =         3
          NSTEP  =        50          IFOLOW =         1
          HESS   =GUESS               RESTAR =         F
          IHREP  =         0          HSSEND =         F
          NPRT   =         0          NPUN   =         0
          OPTTOL = 5.000E-04          RMIN   = 1.500E-03
          RMAX   = 1.000E-01          RLIM   = 7.000E-02
          DXMAX  = 3.000E-01          PURIFY =         F
          MOVIE  =         F          TRUPD  =         T
          TRMAX  = 5.000E-01          TRMIN  = 5.000E-02
          ITBMAT =         5          STPT   =         F
          STSTEP = 1.000E-02          PROJCT=          F
          FROZEN COORD(S)=   1   2   3


      ***** EQUILIBRIUM GEOMETRY LOCATED *****
            (SUBJECT TO   3 CONSTRAINT(S))
 COORDINATES OF ALL ATOMS ARE (ANGS)
   ATOM   CHARGE       X              Y              Z
 ------------------------------------------------------------
 C           6.0   3.2495477493   3.3807118750   1.1760169449
 C           6.0   4.0550008911   2.1651569784   1.6398453073
 C           6.0   1.8664000727   3.4750080507   1.8188469397
 C           6.0   5.5423528048   2.3288401328   1.3046243406
 C           6.0   3.4630527116   0.8827711912   1.0399949090
 C           6.0   6.4304024241   1.2807567138   1.9720773660
 C           6.0   0.9771938126   4.4845935148   1.1054895713
 H           1.0   3.7950048219   4.2952834222   1.4023159049
 H           1.0   3.1500269897   3.3442359602   0.0908040394
 H           1.0   3.9764345658   2.1065909832   2.7264239718
 H           1.0   1.3772564787   2.5062298073   1.8119787154
 H           1.0   1.9855400995   3.7471913381   2.8666415220
 H           1.0   5.6790996838   2.3018836780   0.2236109089
 H           1.0   5.8634106676   3.3168301043   1.6291936638
 H           1.0   3.5636243941   0.8941843596  -0.0436583073
 H           1.0   3.9486509534  -0.0107457905   1.4150279403
 H           1.0   2.4072701448   0.7921930246   1.2696220813
 H           1.0   7.4790950379   1.4562197864   1.7529249304
 H           1.0   6.3028624052   1.3130250599   3.0517432101
 H           1.0   6.1857515367   0.2777184445   1.6383744990
 H           1.0   0.8242600166   4.1777799389   0.0737488626
 H           1.0   0.0052083659   4.5674543912   1.5814680280
 H           1.0   1.4385029456   5.4687632540   1.0963729566


                     --------------------
                     INTERNAL COORDINATES
                     --------------------

                 - - ATOMS - -         COORDINATE      COORDINATE
 NO.   TYPE    I  J  K  L  M  N        (BOHR,RAD)       (ANG,DEG)
 ----------------------------------------------------------------
   1 STRETCH   1  9                     2.0605137       1.0903770
   2 STRETCH   1  3                     2.8877707       1.5281426
   3 STRETCH   1  2                     2.8916298       1.5301847
   4 STRETCH   1  8                     2.0572649       1.0886578
   5 STRETCH   2  4                     2.8977461       1.5334213
   6 STRETCH   2 10                     2.0616693       1.0909885
   7 STRETCH   2  5                     2.8998130       1.5345151
   8 STRETCH   3  7                     2.8776186       1.5227703
   9 STRETCH   3 12                     2.0581116       1.0891059
  10 STRETCH   3 11                     2.0508881       1.0852833
  11 STRETCH   4 14                     2.0567196       1.0883692
  12 STRETCH   4 13                     2.0597289       1.0899617
  13 STRETCH   4  6                     2.8861533       1.5272867
  14 STRETCH   5 16                     2.0482642       1.0838948
  15 STRETCH   5 15                     2.0567210       1.0883700
  16 STRETCH   5 17                     2.0489457       1.0842554
  17 STRETCH   6 20                     2.0504158       1.0850334
  18 STRETCH   6 19                     2.0553635       1.0876516
  19 STRETCH   6 18                     2.0515248       1.0856202
  20 STRETCH   7 23                     2.0540542       1.0869587
  21 STRETCH   7 22                     2.0511817       1.0854387
  22 STRETCH   7 21                     2.0545174       1.0872038
  23 BEND      1  3 11                  1.9285779     110.4993741
  24 BEND      1  2  4                  1.9385303     111.0696023
  25 BEND      1  2  5                  1.9201802     110.0182194
  26 BEND      1  2 10                  1.8824482     107.8563391
  27 BEND      1  3 12                  1.8977009     108.7302521
  28 BEND      1  3  7                  1.9523704     111.8625819
  29 BEND      2  5 17                  1.9419084     111.2631572
  30 BEND      2  5 16                  1.9614928     112.3852588
  31 BEND      2  5 15                  1.9228240     110.1697003
  32 BEND      2  4  6                  1.9770802     113.2783510
  33 BEND      2  4 13                  1.9133210     109.6252176
  34 BEND      2  1  9                  1.8998555     108.8536994
  35 BEND      2  1  8                  1.9183643     109.9141755
  36 BEND      2  1  3                  1.9800670     113.4494843
  37 BEND      2  4 14                  1.8942396     108.5319359
  38 BEND      3  7 21                  1.9172919     109.8527355
  39 BEND      3  7 22                  1.9477513     111.5979319
  40 BEND      3  7 23                  1.9352075     110.8792245
  41 BEND      3  1  8                  1.8904257     108.3134169
  42 BEND      3  1  9                  1.9157162     109.7624524
  43 BEND      4  6 20                  1.9485888     111.6459130
  44 BEND      4  2  5                  1.9583404     112.2046404
  45 BEND      4  2 10                  1.8684802     107.0560280
  46 BEND      4  6 18                  1.9417924     111.2565110
  47 BEND      4  6 19                  1.9233210     110.1981751
  48 BEND      5  2 10                  1.8930281     108.4625219
  49 BEND      6  4 13                  1.9214478     110.0908488
  50 BEND      6  4 14                  1.8976850     108.7293435
  51 BEND      7  3 11                  1.9025173     109.0062095
  52 BEND      7  3 12                  1.9271701     110.4187125
  53 BEND      8  1  9                  1.8553394     106.3031185
  54 BEND     11  3 12                  1.8530059     106.1694152
  55 BEND     13  4 14                  1.8558501     106.3323763
  56 BEND     15  5 17                  1.8772932     107.5609799
  57 BEND     15  5 16                  1.8878318     108.1647955
  58 BEND     16  5 17                  1.8693131     107.1037497
  59 BEND     18  6 19                  1.8847951     107.9908031
  60 BEND     18  6 20                  1.8808756     107.7662356
  61 BEND     19  6 20                  1.8820777     107.8351085
  62 BEND     21  7 22                  1.8878000     108.1629748
  63 BEND     21  7 23                  1.8831063     107.8940411
  64 BEND     22  7 23                  1.8908336     108.3367863
  65 TORSION   1  2  5 17              -0.9544799     -54.6876696
  66 TORSION   1  2  4 14               0.8412635      48.2008508
  67 TORSION   1  2  5 15               1.1259479      64.5120626
  68 TORSION   1  3  7 21               1.0743751      61.5571605
  69 TORSION   1  3  7 22              -3.1151272    -178.4836428
  70 TORSION   1  2  5 16              -3.0507028    -174.7923955
  71 TORSION   1  3  7 23              -1.0054821     -57.6098821
  72 TORSION   1  2  4  6               2.9506035     169.0571267
  73 TORSION   1  2  4 13              -1.1789166     -67.5469444
  74 TORSION   2  1  3  7              -2.9057274    -166.4859157
  75 TORSION   2  4  6 18              -3.0924999    -177.1871923
  76 TORSION   2  4  6 19              -1.0024401     -57.4355866
  77 TORSION   2  4  6 20               1.0886181      62.3732226
  78 TORSION   2  1  3 12               1.2445389      71.3068276
  79 TORSION   2  1  3 11              -0.7826350     -44.8416807
  80 TORSION   3  1  2  4              -2.8512123    -163.3624338
  81 TORSION   3  1  2  5               1.2529726      71.7900413
  82 TORSION   3  1  2 10              -0.8087854     -46.3399928
  83 TORSION   4  2  5 17              -3.1220548    -178.8805656
  84 TORSION   4  2  1  8              -0.7318945     -41.9344640
  85 TORSION   4  2  1  9               1.2936181      74.1188578
  86 TORSION   4  2  5 15              -1.0416270     -59.6808334
  87 TORSION   4  2  5 16               1.0649076      61.0147085
  88 TORSION   5  2  4 14               2.9986043     171.8073735
  89 TORSION   5  2  1  8              -2.9108948    -166.7819889
  90 TORSION   5  2  4 13               0.9784242      56.0595783
  91 TORSION   5  2  1  9              -0.8853823     -50.7286672
  92 TORSION   5  2  4  6              -1.1752410     -67.3363507
  93 TORSION   6  4  2 10               0.8996542      51.5463914
  94 TORSION   7  3  1  8               1.2425687      71.1939407
  95 TORSION   7  3  1  9              -0.7761741     -44.4715006
  96 TORSION   8  1  3 11              -2.9175242    -167.1618244
  97 TORSION   8  1  3 12              -0.8903503     -51.0133161
  98 TORSION   8  1  2 10               1.3105324      75.0879770
  99 TORSION   9  1  3 11               1.3469183      77.1727344
 100 TORSION   9  1  3 12              -2.9090931    -166.6787573
 101 TORSION   9  1  2 10              -2.9471403    -168.8587012
 102 TORSION  10  2  5 17               1.1007358      63.0675173
 103 TORSION  10  2  4 14              -1.2096857     -69.3098844
 104 TORSION  10  2  4 13               3.0533195     174.9423204
 105 TORSION  10  2  5 15              -3.1020217    -177.7327504
 106 TORSION  10  2  5 16              -0.9954871     -57.0372086
 107 TORSION  11  3  7 21              -1.0636522     -60.9427817
 108 TORSION  11  3  7 23               3.1396759     179.8901757
 109 TORSION  11  3  7 22               1.0300308      59.0164151
 110 TORSION  12  3  7 21              -3.0928442    -177.2069196
 111 TORSION  12  3  7 23               1.1104838      63.6260378
 112 TORSION  12  3  7 22              -0.9991613     -57.2477229
 113 TORSION  13  4  6 19               3.1315538     179.4248147
 114 TORSION  13  4  6 18               1.0414940      59.6732090
 115 TORSION  13  4  6 20              -1.0605733     -60.7663761
 116 TORSION  14  4  6 19               1.1049513      63.3090482
 117 TORSION  14  4  6 18              -0.9851085     -56.4425575
 118 TORSION  14  4  6 20              -3.0871758    -176.8821426

          INTERNUCLEAR DISTANCES (ANGS.)


 =====================================================
   GAMESS/COSab RESULTS
 =====================================================

   Dielectric Constant                  = INFTY
   Basic Grid Size                      =                 1082
   Number of Segments                   =                   92
   Number of Segments located on spheres=                  272
   Number of Segments of the cavity     =                  743
   Solvent Radius (rsolv)               = 1.40
   Outlying Charge Error Method         = double cavity

 =====================================================

  Total solvated Energy (a.u.)          =  -274.4679505087
  Total Energy corrected (a.u.)         =  -274.4678565096

  Outlying charge effect (a.u.)         =     0.0000939992
  Outlying charge effect (kcal/mol)     =     0.0589854115

  Dielectric Energy (a.u.)              =    -0.0013887165
  Dielectric energy corr. (a.u.)        =    -0.0012947174

  Sum of polarization charges           =     0.0305539102
  Sum of polarization charges(cor.)     =    -0.0305539102

  Total surface area of cavity (A**2)   =  168.84
  Total volume of cavity (A**3)         =  165.85

 =====================================================
 NPS=                   743
NR.  ATOM  (X, Y, Z)(a.u.)                  CHARGE(e)  AREA(A**2) SIGMA(e/A**2)
   1   1   6.468791   9.163611  -0.322466   0.001419   0.278737   0.005092
   2   1   6.977431   9.450862   0.171274   0.001206   0.232280   0.005191
   3   1   7.189484   8.055117   5.448360   0.000157   0.092912   0.001692
   4   1   7.507438   7.559840   5.545694   0.000056   0.046456   0.001204
   5   1   8.244733   8.070434  -0.428892   0.001228   0.232280   0.005286
   6   1   7.537453   8.731739  -0.393624   0.002004   0.325193   0.006162
   7   1   8.319689   8.698804   0.173060   0.000653   0.139368   0.004686
   8   1   7.560409   7.934102   5.365639   0.000102   0.046456   0.002190
   9   2   8.593230   6.393149   5.948635   0.000163   0.092912   0.001755
  10   3   1.647436   5.383936   6.495296   0.001842   0.371649   0.004957
  11   3   5.046454   9.614904   5.075584   0.000148   0.092912   0.001593
  12   3   5.370633   9.203317   5.420557   0.000031   0.046456   0.000676
  13   3   1.590877   4.605638   6.023552   0.001396   0.278737   0.005009
  14   3   1.739518   4.384673   0.921666   0.000014   0.046456   0.000296
  15   3   3.542657   4.277746   6.444488   0.000811   0.185824   0.004366
  16   3   2.694632   4.585121   6.545886   0.001895   0.325193   0.005827
  17   3   0.731001   5.547507   5.766891   0.001315   0.371649   0.003539
  18   3   0.258249   5.849086   5.193415   0.000300   0.139368   0.002155
  19   3   1.074183   6.626641   6.311926   0.001156   0.325193   0.003554
  20   3   4.514123   9.724553   5.264264   0.000163   0.092912   0.001759
  21   3   0.258305   5.198300   4.751367   0.000398   0.185824   0.002140
  22   3   3.072345   3.858017   6.033284   0.000604   0.139368   0.004337
  23   4  12.792895   6.875553   0.797850   0.001844   0.371649   0.004961
  24   4  10.594138   6.005860   5.885000   0.000187   0.092912   0.002015
  25   4  10.291412   6.483713   5.613863   0.000064   0.046456   0.001384
  26   4  12.448650   6.515526   0.034067   0.001380   0.278737   0.004950
  27   4  10.743546   7.546092   0.387190   0.000902   0.185824   0.004856
  28   4  11.628642   7.345012   0.396098   0.001919   0.325193   0.005900
  29   4  13.414392   5.945893   0.663054   0.001204   0.325193   0.003703
  30   4  13.615408   5.190664   0.518854   0.000367   0.139368   0.002630
  31   4  13.627026   6.365585   1.772898   0.001090   0.325193   0.003353
  32   4  10.971527   6.098555   5.805170   0.000104   0.046456   0.002240
  33   4  13.402559   4.833643   0.116417   0.000443   0.185824   0.002386
  34   4  10.899006   7.070952  -0.175419   0.000631   0.139368   0.004529
  35   5   4.868397  -1.475562   3.227290   0.002272   0.418105   0.005433
  36   5   7.285452  -1.583562   0.187432   0.001718   0.371649   0.004622
  37   5   3.781380   0.153575  -0.122005   0.001485   0.325193   0.004565
  38   5   4.816987   1.300755   5.306850   0.000494   0.185824   0.002656
  39   5   6.770842   0.180891   5.432409   0.000751   0.232280   0.003232
  40   5   5.661683   0.456647   5.434819   0.001030   0.325193   0.003168
  41   5   5.042198  -0.442180   4.717481   0.001584   0.325193   0.004872
  42   5   4.266593   0.571487  -0.844298   0.001461   0.325193   0.004491
  43   5   7.406670  -0.969268  -0.600656   0.001264   0.278737   0.004536
  44   5   9.164723   0.572559  -0.528039   0.000172   0.046456   0.003693
  45   5   5.445202  -1.135816   4.248700   0.001031   0.232280   0.004436
  46   5   4.593939  -0.841860   4.009869   0.000905   0.185824   0.004872
  47   5   8.852175  -0.593035   0.004596   0.000618   0.139368   0.004435
  48   5   8.271415  -1.047174  -0.016551   0.001549   0.278737   0.005559
  49   5   6.076854  -1.360583  -0.246539   0.001587   0.464561   0.003417
  50   5   4.710028  -0.722013  -0.316546   0.001344   0.418105   0.003213
  51   5   3.607001   1.334851  -0.389662   0.001742   0.325193   0.005356
  52   5   3.519444   2.175065  -0.243332   0.000897   0.185824   0.004829
  53   5   6.221921  -1.947810   0.914208   0.001310   0.418105   0.003134
  54   5   5.277727  -1.892393   2.014187   0.001536   0.418105   0.003674
  55   5   4.263881  -1.341899   2.118877   0.001659   0.464561   0.003571
  56   5   4.078080  -0.891601   0.680861   0.001547   0.464561   0.003330
  57   5   6.054399  -0.329478   5.136048   0.000857   0.232280   0.003688
  58   5   4.780202   0.581999   5.126423   0.000841   0.232280   0.003621
  59   5   5.465408  -0.686940  -0.786731   0.000711   0.232280   0.003063
  60   5   8.825604  -0.120435  -0.459627   0.000700   0.139368   0.005020
  61   5   4.139502   2.334643  -0.873258   0.001253   0.278737   0.004495
  62   5   5.061516  -1.596166   0.769597   0.001088   0.418105   0.002602
  63   6  11.836679  -0.591222   5.988502   0.001809   0.325193   0.005563
  64   6  13.294715   1.411712   0.268269   0.000853   0.278737   0.003060
  65   6  13.784626   5.273614   5.591170   0.000567   0.185824   0.003049
  66   6  14.706952   1.911274   6.464540   0.001944   0.418105   0.004650
  67   6  14.313177  -0.669705   3.473127   0.001483   0.371649   0.003991
  68   6  10.209451   0.178476   6.068940   0.000803   0.185824   0.004321
  69   6  15.039987   0.063372   3.104524   0.001607   0.371649   0.004323
  70   6  15.308606   2.270297   5.799297   0.001215   0.278737   0.004361
  71   6  14.626462   4.804356   5.300221   0.001241   0.325193   0.003816
  72   6  14.262112   1.600846   0.700296   0.000989   0.278737   0.003549
  73   6  10.941641  -0.109656   6.260332   0.000887   0.185824   0.004775
  74   6  10.964293  -0.556004   5.730678   0.001134   0.232280   0.004882
  75   6  14.365487   5.371331   4.548111   0.000642   0.232280   0.002765
  76   6  14.093032   4.421498   6.278275   0.001449   0.325193   0.004456
  77   6  14.670859   3.211141   6.430873   0.001848   0.325193   0.005682
  78   6  15.014503   0.877836   5.652689   0.001559   0.464561   0.003355
  79   6  14.741504  -0.207079   4.547767   0.001427   0.464561   0.003072
  80   6  14.373338  -0.187604   2.130571   0.001961   0.371649   0.005277
  81   6  13.777595   0.471708   0.925996   0.001915   0.418105   0.004580
  82   6  12.524094   0.761510   0.351167   0.001105   0.371649   0.002972
  83   6  13.213925   5.128399   6.139570   0.000819   0.278737   0.002937
  84   6  14.036442   0.673713   6.498234   0.001373   0.418105   0.003284
  85   6  12.924109  -0.236503   6.301390   0.001584   0.418105   0.003788
  86   6  12.720658  -0.927804   5.385252   0.001540   0.418105   0.003682
  87   6  13.712070  -0.937280   4.485823   0.000975   0.325193   0.002999
  88   6  15.326197   0.581251   4.634886   0.000818   0.278737   0.002936
  89   6  14.874225   3.909072   5.884376   0.001367   0.278737   0.004906
  90   6  14.082405   2.423614   0.477576   0.000688   0.232280   0.002963
  91   6  14.626542   0.668207   1.470642   0.001478   0.325193   0.004544
  92   6  12.386797   5.164842   6.314413   0.000332   0.139368   0.002380
  93   6  14.042724  -0.256592   5.608872   0.001218   0.464561   0.002623
  94   7  -0.008679  11.655477   2.940171   0.002261   0.418105   0.005407
  95   7  -0.533423   5.616664   1.417096   0.000736   0.232280   0.003167
  96   7  -1.556118   8.959569   0.517320   0.001932   0.418105   0.004620
  97   7   1.526117  11.278389  -0.424999   0.001546   0.371649   0.004159
  98   7   2.938737  10.771526   4.884762   0.000789   0.278737   0.002831
  99   7   0.806060   9.676369   5.517965   0.000799   0.232280   0.003442
 100   7   1.676227  10.499018   5.276094   0.001296   0.418105   0.003100
 101   7   0.980619  11.311975   4.430826   0.001527   0.325193   0.004696
 102   7   1.592253  10.440620  -1.128769   0.001680   0.371649   0.004519
 103   7  -1.149429   8.477882  -0.214811   0.001235   0.278737   0.004432
 104   7  -0.584818   5.996055   0.596116   0.001209   0.325193   0.003718
 105   7   0.133335  11.202775   4.065473   0.001082   0.232280   0.004657
 106   7   0.881002  11.806046   3.590260   0.001318   0.278737   0.004730
 107   7   0.394569   5.329460   0.577913   0.000542   0.232280   0.002332
 108   7  -1.307457   6.523126   1.362737   0.001410   0.325193   0.004337
 109   7  -1.580455   7.673573   0.711527   0.001797   0.325193   0.005527
 110   7  -0.840416   9.874121  -0.170465   0.001584   0.464561   0.003409
 111   7   0.347490  10.874530  -0.416399   0.001459   0.464561   0.003141
 112   7   2.744518  10.669848  -0.853571   0.002041   0.371649   0.005492
 113   7   3.915803  10.156661  -0.589289   0.001223   0.278737   0.004389
 114   7  -0.920680   5.904593   2.234287   0.000789   0.278737   0.002832
 115   7  -1.299377  10.259543   0.993158   0.001323   0.418105   0.003165
 116   7  -0.695402  11.261346   1.851140   0.001546   0.418105   0.003698
 117   7   0.269356  11.889756   1.723745   0.001756   0.464561   0.003781
 118   7   0.787408  11.701809   0.431449   0.001020   0.325193   0.003138
 119   7   0.656527  10.474008   5.067399   0.000853   0.232280   0.003674
 120   7   2.004656  11.314929   4.577456   0.000983   0.278737   0.003526
 121   7   0.029178  10.039669  -0.831857   0.000864   0.278737   0.003101
 122   7  -1.170431   6.910094   0.435656   0.001345   0.278737   0.004826
 123   7   3.236421   9.734198  -1.192130   0.001517   0.325193   0.004664
 124   7  -0.811268   5.973340   3.070553   0.000355   0.139368   0.002549
 125   7  -0.415625  11.097053   0.575986   0.001209   0.464561   0.002602
 126   8   8.557688  10.076488   3.173118  -0.002214   0.471065  -0.004700
 127   8   7.429299   9.425848   4.712844  -0.000650   0.314043  -0.002071
 128   8   7.740891  10.119522   1.345996  -0.000439   0.372926  -0.001177
 129   8   8.298423   9.396696   4.418421  -0.001357   0.392554  -0.003458
 130   8   7.365252  10.264787   3.826512  -0.001730   0.451437  -0.003832
 131   8   7.626770  10.529020   2.552312  -0.001682   0.412182  -0.004080
 132   8   8.675559   9.808253   1.694870  -0.001343   0.471065  -0.002850
 133   9   5.859912   6.288566  -2.283099  -0.001009   0.274788  -0.003672
 134   9   7.107083   7.509615  -1.641295  -0.000176   0.294415  -0.000596
 135   9   4.933545   5.623746  -1.952575  -0.001704   0.372926  -0.004568
 136   9   6.366536   5.663232  -2.159259  -0.001369   0.274788  -0.004982
 137   9   6.933236   6.649879  -2.056544  -0.001308   0.392554  -0.003332
 138   9   6.077771   7.888828  -1.714483  -0.000794   0.412182  -0.001927
 139   9   5.454667   6.980674  -2.141453  -0.001336   0.314043  -0.004255
 140  10   7.278868   4.043579   7.596709  -0.001199   0.314043  -0.003818
 141  10   7.565839   2.225977   6.870548  -0.000498   0.196277  -0.002535
 142  10   6.116179   2.923198   6.873069  -0.000570   0.255160  -0.002235
 143  10   8.151971   5.570148   6.913661  -0.000508   0.294415  -0.001725
 144  10   7.726448   3.209576   7.474946  -0.001193   0.294415  -0.004051
 145  10   6.927713   2.608085   7.103174  -0.000634   0.294415  -0.002154
 146  10   6.427265   3.656540   7.331194  -0.001019   0.274788  -0.003707
 147  10   7.409009   4.945442   7.409087  -0.000948   0.255160  -0.003714
 148  10   8.278973   4.658448   7.386328  -0.001106   0.314043  -0.003521
 149  11   0.944694   2.964990   3.810906  -0.001777   0.353299  -0.005030
 150  11   1.152179   3.610622   1.791780  -0.000434   0.176649  -0.002458
 151  11   0.292501   3.919241   3.600690  -0.000740   0.314043  -0.002358
 152  11   1.283216   3.556664   5.128033  -0.000188   0.196277  -0.000957
 153  11   0.670848   3.428256   2.654147  -0.001164   0.372926  -0.003121
 154  11   0.665805   3.710991   4.534552  -0.000583   0.333671  -0.001748
 155  11   1.911940   3.059811   5.081909  -0.000937   0.333671  -0.002808
 156  12   3.849256   7.822894   7.757153  -0.002111   0.490692  -0.004302
 157  12   3.337290   8.992019   6.904344  -0.000649   0.294415  -0.002205
 158  12   5.156932   8.711081   6.602500  -0.000770   0.353299  -0.002180
 159  12   3.490082   5.941584   7.577674  -0.000655   0.431809  -0.001518
 160  12   2.089873   7.409634   7.195976  -0.000392   0.333671  -0.001175
 161  12   4.264625   8.959099   6.915782  -0.001129   0.431809  -0.002614
 162  12   5.184591   7.723776   7.306666  -0.001881   0.490692  -0.003833
 163  12   4.441474   6.738521   7.750084  -0.001658   0.412182  -0.004023
 164  12   2.777337   6.725444   7.643907  -0.000979   0.451437  -0.002168
 165  12   2.689211   8.225137   7.313660  -0.001121   0.451437  -0.002482
 166  13  11.142323   4.337971  -1.999543  -0.001159   0.294415  -0.003937
 167  13  11.201083   2.664155  -1.301737  -0.000735   0.314043  -0.002340
 168  13  12.600987   3.925771  -1.114292  -0.000696   0.314043  -0.002216
 169  13  11.769425   5.876670  -1.198500  -0.000378   0.333671  -0.001133
 170  13  10.622309   6.012381  -1.382810  -0.000777   0.333671  -0.002330
 171  13  10.710830   3.508543  -1.885415  -0.001425   0.314043  -0.004537
 172  13  11.914969   3.333806  -1.475620  -0.000951   0.353299  -0.002693
 173  13  11.962353   4.666550  -1.680056  -0.001117   0.314043  -0.003558
 174  13  11.005054   5.364258  -1.798179  -0.000895   0.274788  -0.003256
 175  13  10.152602   4.643934  -1.946627  -0.001651   0.333671  -0.004949
 176  13  12.591236   5.054882  -1.020086  -0.000387   0.314043  -0.001232
 177  14  12.013353   8.426610   3.788892  -0.001899   0.431809  -0.004397
 178  14  12.489289   7.313915   4.797892  -0.000650   0.274788  -0.002364
 179  14  10.834554   7.448231   5.219188  -0.000519   0.274788  -0.001887
 180  14  11.722455   8.287954   1.836963  -0.000338   0.314043  -0.001076
 181  14  13.253732   7.406449   2.957489  -0.000548   0.333671  -0.001642
 182  14  11.763741   7.517815   5.080138  -0.000909   0.353299  -0.002574
 183  14  11.172691   8.294008   4.464882  -0.001541   0.333671  -0.004617
 184  14  11.560731   8.660926   2.800152  -0.001410   0.333671  -0.004224
 185  14  12.620282   8.062335   2.412906  -0.000838   0.431809  -0.001942
 186  14  12.933954   7.662022   3.888196  -0.001317   0.412182  -0.003194
 187  15   6.581400   1.306637  -2.504262  -0.001702   0.372926  -0.004565
 188  15   5.247944   2.265045  -1.951991  -0.000737   0.274788  -0.002683
 189  15   5.530566   0.637518  -1.947697  -0.000606   0.314043  -0.001929
 190  15   7.570709   0.070233  -1.729483  -0.000530   0.333671  -0.001588
 191  15   8.384856   0.864184  -1.703937  -0.000933   0.333671  -0.002797
 192  15   6.413497   2.439538  -2.399837  -0.001836   0.392554  -0.004678
 193  15   5.341313   1.493787  -2.096541  -0.000815   0.333671  -0.002443
 194  15   6.457600   0.128414  -1.958855  -0.001084   0.431809  -0.002509
 195  15   7.627213   1.036522  -2.275900  -0.001360   0.333671  -0.004076
 196  15   7.555858   2.216027  -2.337082  -0.002188   0.392554  -0.005575
 197  16   8.155858  -2.305602   3.249264  -0.002498   0.431809  -0.005786
 198  16   7.711943  -2.299078   1.790958  -0.000542   0.274788  -0.001971
 199  16   6.633008  -2.209008   3.420777  -0.000611   0.294415  -0.002074
 200  16   7.511061  -1.096822   4.881674  -0.000880   0.353299  -0.002492
 201  16   8.485623  -2.105939   1.875763  -0.001398   0.333671  -0.004189
 202  16   7.131477  -2.453093   2.587444  -0.001049   0.372926  -0.002814
 203  16   6.963407  -1.847138   4.239035  -0.001021   0.392554  -0.002602
 204  16   8.094403  -1.788837   4.257457  -0.001684   0.314043  -0.005361
 205  17   2.249777   0.635639   2.478951  -0.002030   0.353299  -0.005747
 206  17   3.373748   0.677853   4.394909  -0.000828   0.314043  -0.002637
 207  17   2.935139  -0.345355   2.588878  -0.000862   0.353299  -0.002440
 208  17   2.643757   0.716513   1.059220  -0.000359   0.196277  -0.001830
 209  17   2.633616   0.544869   3.607354  -0.001529   0.314043  -0.004868
 210  17   3.262432  -0.218827   3.597376  -0.000507   0.294415  -0.001721
 211  17   2.679884   0.085862   1.657724  -0.000852   0.333671  -0.002552
 212  17   2.452609   1.429170   1.120447  -0.000986   0.274788  -0.003589
 213  18  16.519554   3.066864   2.820272  -0.003368   0.608459  -0.005535
 214  18  15.608618   4.078345   1.863614  -0.001178   0.353299  -0.003334
 215  18  15.561439   2.110008   1.419417  -0.000601   0.333671  -0.001802
 216  18  16.109145   1.298778   3.170348  -0.000707   0.353299  -0.002001
 217  18  16.155492   2.859464   4.703526  -0.000671   0.372926  -0.001801
 218  18  15.598808   4.649245   3.848965  -0.000638   0.353299  -0.001807
 219  18  15.651700   3.175801   1.428331  -0.001596   0.490692  -0.003253
 220  18  16.100331   1.761561   2.223631  -0.001597   0.490692  -0.003255
 221  18  16.405921   2.050893   3.928631  -0.001716   0.510320  -0.003363
 222  18  16.211451   3.754960   4.155617  -0.001688   0.490692  -0.003441
 223  18  15.846459   4.440919   2.814783  -0.001738   0.490692  -0.003542
 224  19  12.071886   2.378848   8.216163  -0.002107   0.431809  -0.004878
 225  19  10.780837   0.983861   7.353256  -0.000690   0.392554  -0.001757
 226  19  11.687225   4.255253   7.451612  -0.001254   0.372926  -0.003363
 227  19  13.330296   3.088321   7.677786  -0.000775   0.392554  -0.001974
 228  19  12.928275   1.139259   7.555439  -0.000408   0.274788  -0.001484
[...]
 484  18  14.846483   4.817642   2.315063  -0.000963   0.406202  -0.002372
 485   4  13.988453   4.948266   1.139457   0.000924   0.544300   0.001698
 486   4  14.077091   5.839479   2.491287   0.000700   0.279699   0.002503
 487  19  11.395917   4.712594   6.808871  -0.000163   0.128820  -0.001267
 488   4  10.842472   5.480000   6.193804   0.000326   0.181593   0.001795
 489   5   7.977789   0.996450   5.579577   0.000385   0.209520   0.001839
 490   6   8.979305   1.149503   5.861233   0.000451   0.209520   0.002153
 491  10   8.122910   1.589136   6.026375   0.000062   0.209520   0.000296
 492   5   9.952505   1.187170  -0.141297   0.000484   0.214839   0.002255
 493   6  10.960198   1.300416   0.138011   0.000342   0.214839   0.001591
 494  13  10.690885   1.834293  -0.334493   0.000087   0.214839   0.000403
 495   5   8.043902   0.238347   5.229837  -0.000050   0.091689  -0.000544
 496   6   9.049518   0.412356   5.457255   0.000247   0.091689   0.002695
 497  16   8.169608  -0.021337   5.130230  -0.000129   0.091689  -0.001407
 498   5  10.059698   0.429239   0.305062   0.000246   0.091852   0.002682
 499   6  11.075593   0.522520   0.534254  -0.000069   0.091852  -0.000756
 500  20  11.018243   0.243593   0.645636  -0.000147   0.091852  -0.001599
 501   6   9.344278   0.657659   5.963151   0.000388   0.111213   0.003491
 502   5   7.946185   0.410661   5.492827   0.000316   0.111213   0.002844
 503   6  11.128548   0.717277   0.257301   0.000328   0.124337   0.002641
 504   5   9.715725   0.593031  -0.218543   0.000428   0.124337   0.003440
 505   5   4.733610   3.198429  -1.056202   0.000122   0.083886   0.001460
 506   9   4.821459   4.143758  -1.150674   0.000165   0.083886   0.001966
 507  15   4.941234   3.111897  -1.264712  -0.000049   0.083886  -0.000586
 508   5   4.078541   4.066000  -0.491891   0.000574   0.290254   0.001977
 509   9   4.032434   4.968935  -0.812871  -0.000360   0.290254  -0.001240
 510  21   3.109725   5.432682  -0.682349   0.000164   0.290254   0.000565
 511   9   4.498032   4.674866  -1.202390  -0.000023   0.091791  -0.000249
 512   5   4.353414   3.297191  -0.936197   0.000445   0.129851   0.003425
 513  10   5.805698   2.525820   6.252277  -0.000075   0.174115  -0.000428
 514  10   6.940938   1.939545   6.332134  -0.000449   0.354325  -0.001268
 515   5   5.796941   1.453396   5.702748   0.001038   0.479575   0.002164
 516   5   7.130508   0.868971   5.720887   0.000718   0.245430   0.002926
 517   5   3.978622   1.811141   4.867073  -0.000172   0.071723  -0.002396
 518  11   3.291711   2.529036   4.895808  -0.000204   0.071723  -0.002839
 519  17   3.700964   1.785555   4.746130  -0.000267   0.071723  -0.003717
 520  11   3.048335   2.867246   5.186432   0.000038   0.037148   0.001020
 521   5   4.095161   1.842148   5.128096   0.000147   0.052742   0.002793
 522   5   9.309693   1.178078  -0.662852   0.000102   0.088379   0.001152
 523  13   9.985002   1.903447  -0.740041   0.000199   0.088379   0.002250
 524  15   9.140496   1.259650  -0.905684  -0.000071   0.088379  -0.000805
 525  13  10.604997   2.030051  -0.759344   0.000035   0.048619   0.000719
 526   5   9.547692   1.024591  -0.602625   0.000239   0.069032   0.003469
 527  15   8.725025   0.660978  -1.091226  -0.000039   0.068164  -0.000568
 528  15   7.930650  -0.089881  -1.172857  -0.000105   0.150712  -0.000698
 529  15   6.643576  -0.385793  -1.295421  -0.000195   0.150712  -0.001293
 530  15   5.436248   0.152899  -1.401795  -0.000239   0.150712  -0.001588
 531  15   4.791273   1.310863  -1.449457  -0.000101   0.150712  -0.000673
 532  15   4.812483   2.406697  -1.435948  -0.000037   0.068164  -0.000538
 533   5   8.604635   0.175773  -0.769486   0.000206   0.150037   0.001371
 534   5   7.337830  -0.598814  -0.895210   0.000144   0.150037   0.000959
 535   5   5.860826  -0.455058  -1.030771   0.000016   0.150037   0.000105
 536   5   4.764025   0.549579  -1.121980   0.000104   0.150037   0.000692
 537   5   4.485854   2.013512  -1.132378   0.000143   0.150037   0.000951
 538   5   9.152660  -1.032992   1.004821   0.000099   0.082636   0.001204
 539  16   9.190277  -1.203164   1.254546  -0.000192   0.082636  -0.002318
 540  20  10.105134  -1.014298   1.407650  -0.000154   0.082636  -0.001862
 541  16   7.540378  -0.399950   5.101463  -0.000114   0.066071  -0.001720
 542  16   6.720700  -0.993236   4.749285  -0.000201   0.145581  -0.001381
 543  16   6.155746  -1.692908   3.813808  -0.000153   0.145581  -0.001054
 544  16   6.295713  -2.126759   2.598896  -0.000236   0.145581  -0.001618
 545  16   7.086930  -2.128433   1.570401  -0.000280   0.145581  -0.001924
 546  16   8.226009  -1.697287   1.122694  -0.000148   0.145581  -0.001014
 547   5   6.962291  -0.305406   5.112176  -0.000139   0.145885  -0.000955
 548   5   6.006128  -1.130795   4.383729   0.000101   0.145885   0.000694
 549   5   5.755011  -1.800572   3.113104  -0.000001   0.145885  -0.000005
 550   5   6.305230  -2.057916   1.787517  -0.000015   0.145885  -0.000101
 551   5   7.445806  -1.804149   0.915257   0.000008   0.145885   0.000057
 552   5   8.503094  -1.315182   0.711215   0.000171   0.080721   0.002125
 553  17   2.908569   1.859814   0.605285  -0.000038   0.066646  -0.000568
 554  17   3.017205   0.788442   0.682119  -0.000235   0.147066  -0.001599
 555  17   3.264403  -0.276528   1.398558  -0.000261   0.147066  -0.001778
 556  17   3.561704  -0.689529   2.602550  -0.000265   0.147066  -0.001804
 557  17   3.793343  -0.289744   3.825280  -0.000191   0.147066  -0.001299
 558  17   3.869124   0.767156   4.590638  -0.000320   0.147066  -0.002175
 559   5   3.213647   1.475057   0.281511   0.000094   0.146946   0.000642
 560   5   3.419455   0.075233   0.675551   0.000071   0.146946   0.000480
 561   5   3.741437  -0.798743   1.811168  -0.000085   0.146946  -0.000578
 562   5   4.054217  -0.806559   3.246174   0.000094   0.146946   0.000638
 563   5   4.236006   0.054830   4.421800   0.000151   0.146946   0.001030
 564   5   4.253444   1.133682   4.927572  -0.000032   0.081423  -0.000393
 565  20  10.800523  -0.651459   1.047986  -0.001156   0.418030  -0.002765
 566   5   9.501175  -0.306867   0.279107   0.001831   0.594940   0.003078
 567  21   2.121953   5.399239  -0.802866   0.000120   0.327859   0.000365
 568   5   3.420017   3.224226  -0.398588   0.001457   0.523087   0.002785
 569   6   9.579808   1.303401   6.358113   0.000078   0.086119   0.000906
 570  10   8.765249   1.828252   6.411674   0.000132   0.086119   0.001537
 571  19   9.712149   1.438457   6.599423  -0.000017   0.086119  -0.000201
 572  10   8.160439   1.808683   6.426182   0.000004   0.039560   0.000111
 573   6   9.401514   1.102468   6.306523   0.000209   0.056046   0.003724
 574  13  12.931381   3.610769  -0.474479  -0.000114   0.209105  -0.000547
 575  13  11.880393   2.551157  -0.641704  -0.000884   0.429261  -0.002060
 576   6  13.175248   2.525896   0.088821   0.001091   0.571520   0.001909
 577   6  11.882586   1.414124  -0.005020   0.000750   0.294523   0.002547
 578  14  11.982858   6.521768   5.397904  -0.000059   0.166020  -0.000354
 579  14  12.924595   6.653185   4.620973  -0.000636   0.337293  -0.001886
 580  14  13.510925   6.634807   3.542252  -0.000086   0.166020  -0.000519
 581   6  12.820090   5.691332   5.592853   0.000805   0.458102   0.001757
 582   6  13.913465   5.772215   4.265081   0.000878   0.458102   0.001916
 583   6  10.294683  -0.801930   4.818543   0.000090   0.082797   0.001093
 584  16   9.370136  -1.039443   4.420222  -0.000159   0.082797  -0.001918
 585  20  10.302328  -0.987315   4.576377  -0.000197   0.082797  -0.002385
 586  16   8.604926  -0.847758   4.766951  -0.001191   0.416624  -0.002860
 587   6   9.773132  -0.157335   5.512879   0.001708   0.592947   0.002881
 588  18  15.016405   5.036073   3.501471  -0.000071   0.069349  -0.001017
 589  18  15.301563   4.516157   4.449748  -0.000277   0.154152  -0.001798
 590  18  15.626923   3.370525   5.089406  -0.000123   0.154152  -0.000797
 591  18  15.805967   2.046146   4.885783  -0.000245   0.154152  -0.001587
 592  18  15.763796   1.097039   3.924059  -0.000285   0.154152  -0.001850
 593  18  15.518052   0.920235   2.606544  -0.000169   0.154152  -0.001094
 594  18  15.171535   1.589695   1.484382  -0.000215   0.154152  -0.001395
 595  18  14.869200   2.825369   1.027000  -0.000309   0.154152  -0.002006
 596   6  14.783823   5.045867   4.053403  -0.000114   0.151844  -0.000748
 597   6  15.176126   4.076418   5.154468   0.000113   0.151844   0.000744
 598   6  15.475520   2.610315   5.413281   0.000102   0.151844   0.000671
 599   6  15.556763   1.260863   4.721577  -0.000034   0.151844  -0.000226
 600   6  15.385868   0.592566   3.368709   0.000001   0.151844   0.000005
 601   6  15.034325   0.884987   1.920612   0.000115   0.151844   0.000760
 602   6  14.649192   2.015801   0.983057  -0.000123   0.151844  -0.000810
 603   6  14.410579   3.212950   0.799757   0.000054   0.084726   0.000639
 604  19  10.271034   0.978559   6.806084  -0.000047   0.071654  -0.000660
 605  19  11.299432   0.482958   6.942378  -0.000141   0.160195  -0.000878
 606  19  12.669481   0.638218   7.099582  -0.000235   0.160195  -0.001469
 607  19  13.643098   1.623407   7.185156  -0.000240   0.160195  -0.001501
 608  19  13.790024   3.003152   7.161283  -0.000171   0.160195  -0.001067
 609  19  13.045328   4.167715   7.038513  -0.000197   0.160195  -0.001228
 610  19  12.013237   4.655523   6.902015  -0.000089   0.071654  -0.001240
 611   6  10.557323   0.527608   6.514867   0.000096   0.156051   0.000615
 612   6  12.064315   0.177501   6.703350   0.000070   0.156051   0.000449
 613   6  13.459724   0.856520   6.847899  -0.000042   0.156051  -0.000271
 614   6  14.126890   2.264591   6.884636   0.000087   0.156051   0.000555
 615   6  13.770980   3.779461   6.797325   0.000138   0.156051   0.000884
 616   6  12.549278   4.731678   6.624551  -0.000120   0.156051  -0.000771
 617  20  11.722291   0.035936   0.687159  -0.000127   0.066261  -0.001918
 618  20  12.663433  -0.317839   1.060524  -0.000191   0.145982  -0.001311
 619  20  13.380955  -0.813186   2.023392  -0.000129   0.145982  -0.000882
 620  20  13.346827  -1.215590   3.257989  -0.000233   0.145982  -0.001599
 621  20  12.574145  -1.370641   4.290579  -0.000266   0.145982  -0.001820
 622  20  11.359400  -1.218846   4.724943  -0.000155   0.145982  -0.001065
 623   6  12.258998   0.272312   0.669389  -0.000073   0.146331  -0.000500
 624   6  13.388429  -0.255697   1.428428   0.000155   0.146331   0.001057
 625   6  13.792247  -0.786179   2.726914   0.000100   0.146331   0.000681
 626   6  13.315502  -1.115581   4.066599  -0.000041   0.146331  -0.000280
 627   6  12.141128  -1.117505   4.933425  -0.000032   0.146331  -0.000221
 628   6  10.992691  -0.899818   5.121113   0.000180   0.080953   0.002221
 629   7   3.702833   8.679466  -1.267977   0.000162   0.083970   0.001935
 630   9   4.467936   8.116157  -1.349985   0.000164   0.083970   0.001955
 631  21   3.508355   8.502548  -1.424919  -0.000074   0.083970  -0.000881
 632   9   5.198187   8.237010  -1.346686  -0.000014   0.236280  -0.000059
 633   7   4.194972   9.183116  -1.015443   0.001059   0.334015   0.003170
 634  11   0.124768   4.632602   3.429190  -0.000214   0.217625  -0.000982
 635  11   0.747745   4.260505   2.034456  -0.001295   0.448665  -0.002886
 636   7  -0.209172   5.344164   2.459956   0.000842   0.593255   0.001419
 637   7   0.659684   4.977655   0.941639   0.000675   0.306664   0.002201
 638  12   3.591875   9.484698   6.039738  -0.000080   0.208123  -0.000384
 639  12   2.359397   8.732435   6.430417  -0.000788   0.427132  -0.001844
 640   7   2.534947   9.895674   5.525321   0.001034   0.568955   0.001817
 641   7   1.192775   8.913987   5.882745   0.000852   0.293148   0.002907
 642  21   0.884409   5.576927  -0.315274  -0.000122   0.069744  -0.001748
 643  21  -0.056210   6.186761  -0.357194  -0.000271   0.155055  -0.001745
 644  21  -0.660103   7.371823  -0.620079  -0.000124   0.155055  -0.000798
 645  21  -0.402094   8.636693  -1.034452  -0.000213   0.155055  -0.001375
 646  21   0.609430   9.450013  -1.426240  -0.000254   0.155055  -0.001641
 647  21   1.949540   9.470117  -1.630858  -0.000108   0.155055  -0.000696
 648  21   2.931444   8.927865  -1.615154  -0.000027   0.069744  -0.000386
 649   7   0.439320   5.663189   0.078784  -0.000150   0.152698  -0.000983
 650   7  -0.638835   6.727385  -0.077862   0.000136   0.152698   0.000888
 651   7  -0.844186   8.181903  -0.479948   0.000117   0.152698   0.000765
 652   7  -0.090467   9.415720  -0.958565   0.000008   0.152698   0.000053
 653   7   1.305693   9.910521  -1.312649   0.000078   0.152698   0.000513
 654   7   2.757784   9.458448  -1.393456   0.000132   0.152698   0.000863
 655  22  -0.100315   8.789891   5.436896  -0.000071   0.069656  -0.001026
 656  22  -0.198927   9.840802   5.052576  -0.000219   0.154997  -0.001410
 657  22  -0.607901  10.684127   4.070615  -0.000202   0.154997  -0.001303
 658  22  -1.203867  10.698807   2.851059  -0.000188   0.154997  -0.001215
 659  22  -1.735181   9.878642   1.908858  -0.000271   0.154997  -0.001748
 660  22  -1.977500   8.569942   1.641851  -0.000150   0.154997  -0.000965
 661  22  -1.828507   7.325297   2.162779  -0.000228   0.154997  -0.001468
 662  22  -1.351112   6.670250   3.251683  -0.000339   0.154997  -0.002184
 663   7   0.289687   9.243919   5.391746  -0.000136   0.152360  -0.000891
 664   7   0.017536  10.526196   4.612772   0.000073   0.152360   0.000477
 665   7  -0.579262  11.035735   3.305369   0.000082   0.152360   0.000540
 666   7  -1.248714  10.557386   2.021578  -0.000003   0.152360  -0.000021
 667   7  -1.708148   9.293129   1.303473   0.000031   0.152360   0.000201
 668   7  -1.763570   7.776787   1.454267   0.000073   0.152360   0.000477
 669   7  -1.391580   6.648627   2.410289   0.000028   0.152360   0.000184
 670   7  -0.896697   6.278967   3.485225   0.000019   0.085100   0.000221
 671  23   4.162050  10.944388   0.178355  -0.000035   0.067138  -0.000517
 672  23   3.200232  11.393227  -0.035984  -0.000133   0.148122  -0.000895
 673  23   2.076454  11.923830   0.381291  -0.000190   0.148122  -0.001280
 674  23   1.398945  12.251335   1.454724  -0.000214   0.148122  -0.001443
 675  23   1.432219  12.247877   2.765227  -0.000132   0.148122  -0.000893
 676  23   2.163284  11.914806   3.801153  -0.000181   0.148122  -0.001221
 677  23   3.306719  11.382159   4.158057  -0.000315   0.148122  -0.002124
 678   7   3.723387  10.776135  -0.179102   0.000131   0.148078   0.000885
 679   7   2.389699  11.401347  -0.169948   0.000128   0.148078   0.000862
 680   7   1.324392  11.908844   0.711678   0.000018   0.148078   0.000120
 681   7   0.943383  12.100489   2.121571   0.000041   0.148078   0.000276
 682   7   1.395424  11.901461   3.509282   0.000104   0.148078   0.000705
 683   7   2.504030  11.389464   4.333022  -0.000092   0.148078  -0.000624
 684   7   3.582927  10.884672   4.431287  -0.000025   0.082024  -0.000309
 685  12   5.739684   8.757956   5.978767   0.000354   0.216608   0.001634
 686   8   6.750432   9.182982   5.050747   0.000350   0.216608   0.001615
 687  14  10.638957   8.527242   1.778327   0.000250   0.216992   0.001150
 688  14  10.660197   8.813688   2.820051  -0.000534   0.434045  -0.001231
 689  14  10.399130   8.556358   4.090388  -0.000675   0.434045  -0.001554
 690  14  10.006304   7.903648   4.856775   0.000004   0.216992   0.000020
 691   8   9.424531   9.242972   2.033318  -0.000331   0.434045  -0.000763
 692   8   9.336719   9.361989   3.347189  -0.000713   0.434045  -0.001642
 693   8   8.928315   8.753860   4.447878  -0.000298   0.434045  -0.000687
 694  23   4.828281  11.110657   3.559487   0.000123   0.274344   0.000447
 695  23   5.108341  11.380622   2.437856  -0.000421   0.548510  -0.000768
 696  23   5.153818  11.167680   1.270826   0.000116   0.274344   0.000424
 697   8   6.371207  10.534396   3.324979  -0.000100   0.548510  -0.000182
 698   8   6.574237  10.569960   1.897588   0.000257   0.548510   0.000468
 699   9   7.560910   4.785869  -1.484041   0.000022   0.323694   0.000069
 700  13   8.641111   4.340553  -1.420961   0.000032   0.323694   0.000098
 701  15   7.740971   3.746043  -1.558879  -0.000255   0.323694  -0.000788
 702  13   9.209766   5.004028  -1.703708   0.000084   0.352124   0.000239
 703  13   9.604140   6.001546  -1.384679   0.000360   0.352124   0.001023
 704   9   7.867016   6.123019  -1.579869   0.000115   0.704605   0.000163
 705  15   5.207692   3.150451  -1.698460   0.000337   0.301642   0.001119
 706  15   6.511427   3.387549  -2.008477  -0.000790   0.603832  -0.001308
 707   9   5.452417   4.712656  -1.779979  -0.000582   0.603832  -0.000964
 708   9   6.782246   4.946480  -1.950067  -0.000082   0.301642  -0.000271
 709  21   3.377063   8.208441  -1.781239   0.000309   0.268998   0.001148
 710  21   2.961674   7.047515  -1.874113  -0.000654   0.538152  -0.001215
 711  21   2.573159   5.973152  -1.401121  -0.000197   0.268998  -0.000733
 712   9   4.613580   7.265802  -1.842125  -0.000442   0.538152  -0.000822
 713   9   4.112465   5.872433  -1.605178  -0.000399   0.538152  -0.000741
 714  12   4.565437   5.292316   7.247431   0.000479   0.265780   0.001803
 715  12   5.316251   6.196338   7.330537   0.000029   0.531461   0.000055
 716  12   5.994007   7.056012   6.895230   0.000232   0.265780   0.000873
 717  10   6.051350   4.647507   7.227166  -0.000147   0.531461  -0.000276
 718  10   6.942327   5.747498   7.007504   0.000051   0.531461   0.000095
 719  19  10.633239   4.325477   7.212995   0.000004   0.252744   0.000014
 720  19  10.230516   3.299001   7.589011  -0.000656   0.505494  -0.001298
 721  19   9.827161   1.980329   7.256779  -0.000153   0.505494  -0.000303
 722  10   9.083384   4.419994   7.191058  -0.000188   0.505494  -0.000373
 723  10   8.608571   3.092738   7.348899  -0.000322   0.505494  -0.000638
 724  10   8.335084   2.081786   6.838599   0.000218   0.252744   0.000863
 725  17   3.294028   1.644426   4.679784  -0.000305   0.201459  -0.001514
 726  17   2.510548   1.409518   3.934231  -0.001789   0.403191  -0.004438
 727  17   2.011240   1.506383   2.679844  -0.002067   0.403191  -0.005126
 728  17   2.238502   2.031150   1.452998  -0.001332   0.403191  -0.003304
 729  11   2.370323   2.558079   4.736311  -0.001218   0.403191  -0.003022
 730  11   1.564590   2.415055   3.658110  -0.001814   0.403191  -0.004499
 731  11   1.421438   2.742161   2.352472  -0.001637   0.403191  -0.004060
 732  11   1.789141   3.251448   1.441268  -0.000236   0.201459  -0.001174
 733  15   8.022154   3.099929  -1.970016  -0.000083   0.240074  -0.000344
 734  15   8.609778   2.196337  -1.861991  -0.000265   0.479990  -0.000552
 735  15   9.087821   1.378253  -1.336954   0.000360   0.240074   0.001498
 736  13   9.522336   3.601526  -1.794982  -0.000313   0.479990  -0.000653
 737  13  10.187404   2.527052  -1.399896   0.000040   0.479990   0.000083
 738  20  10.322789  -1.359259   4.338716  -0.000046   0.215487  -0.000214
 739  20  10.472996  -1.745899   3.333624  -0.001366   0.431069  -0.003169
 740  20  10.578683  -1.550113   2.022227  -0.001452   0.431069  -0.003369
 741  16   9.048684  -1.703238   3.832414  -0.001468   0.431069  -0.003405
 742  16   9.207192  -1.924349   2.530397  -0.001384   0.431069  -0.003211
 743  16   9.261913  -1.557353   1.508349  -0.000045   0.215487  -0.000208
 =====================================================

              4810692  WORDS OF DYNAMIC MEMORY USED
 EXECUTION OF GAMESS TERMINATED NORMALLY Wed Nov 23 12:47:57 2016
 DDI: 263640 bytes (0.3 MB / 0 MWords) used by master data server.

 ----------------------------------------
 CPU timing information for all processes
 ========================================
 0: 1885.312 + 0.588 = 1885.900
 ----------------------------------------
 ddikick.x: exited gracefully.
