----- GAMESS execution script -----

          ******************************************************
          *         GAMESS VERSION =  5 DEC 2014 (R1)          *
          *             FROM IOWA STATE UNIVERSITY             *
          * M.W.SCHMIDT, K.K.BALDRIDGE, J.A.BOATZ, S.T.ELBERT, *
          *   M.S.GORDON, J.H.JENSEN, S.KOSEKI, N.MATSUNAGA,   *
          *          K.A.NGUYEN, S.J.SU, T.L.WINDUS,           *
          *       TOGETHER WITH M.DUPUIS, J.A.MONTGOMERY       *
          *         J.COMPUT.CHEM.  14, 1347-1363(1993)        *
          **************** 64 BIT LINUX VERSION ****************

 EXECUTION OF GAMESS BEGUN Wed Nov 23 11:40:28 2016

            ECHO OF THE FIRST FEW INPUT CARDS -
 INPUT CARD>! SELECT RESTRICTED HARTREE-FOCK AS DEFAULT                                     
 INPUT CARD>$contrl scftyp=rhf $end                                                         
 INPUT CARD>                                                                                
 INPUT CARD>! THEORY: HF OR DFT                                                             
 INPUT CARD> $contrl mplevl=0 $end                                                          
 INPUT CARD>                                                                                
 INPUT CARD> $system timlim=10000 mwords=20 $end                                            
 INPUT CARD> $SCF DIRSCF=.TRUE. $end                                                        
 INPUT CARD>                                                                                
 INPUT CARD>                                                                                
 INPUT CARD>! BASIS SETS                                                                    
 INPUT CARD>! 6-311G(d,p)                                                                   
 INPUT CARD> $BASIS GBASIS=N311 NGAUSS=6 NDFUNC=1 NPFUNC=1 $END                             
 INPUT CARD>                                                                                
 INPUT CARD>! One of the following                                                          
 INPUT CARD> $guess guess=HUCKEL $end                                                       
 INPUT CARD>                                                                                
 INPUT CARD> $statpt projct=.FALSE. $end                                                    
 INPUT CARD> $STATPT IFREEZ(1)=1,2,3 $END                                                   
 INPUT CARD>                                                                                
 INPUT CARD>! Optimize the geometry with COSMO effects                                      
 INPUT CARD> $statpt opttol=0.0005 nstep=50 $end                                            
 INPUT CARD> $contrl nzvar=1 $end                                                           
 INPUT CARD> $zmat dlc=.t. auto=.t. $end                                                    
 INPUT CARD> $contrl runtyp=OPTIMIZE maxit=200 $end                                         
 INPUT CARD>                                                                                
 INPUT CARD>! Run COSMO on perfect conductor                                                
 INPUT CARD> $COSGMS PRFCND=.TRUE. $end                                                     
 INPUT CARD>                                                                                
 INPUT CARD>! Specifying RSOLV                                                              
 INPUT CARD> $COSGMS COSRAD = 1.4 $end                                                      
 INPUT CARD>                                                                                
 INPUT CARD>! available memory                                                              
 INPUT CARD> $SYSTEM MWORDS=40 $END                                                         
 INPUT CARD>                                                                                
 INPUT CARD> $DATA                                                                          
 INPUT CARD>1-Butene, 3-methyl-, ID: C563451                                                
 INPUT CARD>C1                                                                              
 INPUT CARD>C      6.0      3.3946000000    2.7424000000    1.2683000000                    
 INPUT CARD>C      6.0      2.1465000000    2.0277000000    1.6799000000                    
 INPUT CARD>C      6.0      2.1103000000    0.5579000000    1.2979000000                    
 INPUT CARD>C      6.0      0.9375000000    2.7481000000    1.0972000000                    
 INPUT CARD>C      6.0      4.4514000000    2.1942000000    0.6822000000                    
 INPUT CARD>H      1.0      3.3920000000    3.8168000000    1.4961000000                    
 INPUT CARD>H      1.0      2.1008000000    2.0979000000    2.7958000000                    
 INPUT CARD>H      1.0      1.1760000000    0.0890000000    1.6340000000                    
 INPUT CARD>H      1.0      2.1745000000    0.4169000000    0.2105000000                    
 INPUT CARD>H      1.0      2.9389000000    0.0000000000    1.7536000000                    
 INPUT CARD>H      1.0      0.9378000000    2.7119000000    0.0000000000                    
 INPUT CARD>H      1.0      0.0000000000    2.2918000000    1.4409000000                    
   40000000 WORDS OF MEMORY AVAILABLE

     BASIS OPTIONS
     -------------
     GBASIS=N311         IGAUSS=       6      POLAR=POPN311 
     NDFUNC=       1     NFFUNC=       0     DIFFSP=       F
     NPFUNC=       1      DIFFS=       F     BASNAM=        


     RUN TITLE
     ---------
 1-Butene, 3-methyl-, ID: C563451                                                

 THE POINT GROUP OF THE MOLECULE IS C1      
 THE ORDER OF THE PRINCIPAL AXIS IS     0

 ATOM      ATOMIC                      COORDINATES (BOHR)
           CHARGE         X                   Y                   Z
 C           6.0     6.4148638379        5.1823845487        2.3967394702
 C           6.0     4.0562968326        3.8317973853        3.1745506868
 C           6.0     3.9878887519        1.0542781286        2.4526753595
 C           6.0     1.7716181135        5.1931559869        2.0734073537
 C           6.0     8.4119262617        4.1464367623        1.2891710688
 H           1.0     6.4099505504        7.2127061499        2.8272190502
 H           1.0     3.9699363550        3.9644561496        5.2832959165
 H           1.0     2.2223177616        0.1681856129        3.0878122639
 H           1.0     4.1092091603        0.7878267643        0.3977873204
 H           1.0     5.5537157053        0.0000000000        3.3138234921
 H           1.0     1.7721850313        5.1247479061        0.0000000000
 H           1.0     0.0000000000        4.3308740187        2.7229061757
 H           1.0     1.7323118129        7.1911632737        2.6304985749
 H           1.0    10.0760189665        5.2388873558        0.7906613533
 H           1.0     8.5472306425        2.1565552972        0.7985982024

          INTERNUCLEAR DISTANCES (ANGS.)




     $CONTRL OPTIONS
     ---------------
 SCFTYP=RHF          RUNTYP=OPTIMIZE     EXETYP=RUN     
 MPLEVL=       0     CITYP =NONE         CCTYP =NONE         VBTYP =NONE    
 DFTTYP=NONE         TDDFT =NONE    
 MULT  =       1     ICHARG=       0     NZVAR =       1     COORD =UNIQUE  
 PP    =NONE         RELWFN=NONE         LOCAL =NONE         NUMGRD=       F
 ISPHER=      -1     NOSYM =       0     MAXIT =     200     UNITS =ANGS    
 PLTORB=       F     MOLPLT=       F     AIMPAC=       F     FRIEND=        
 NPRINT=       7     IREST =       0     GEOM  =INPUT   
 NORMF =       0     NORMP =       0     ITOL  =      20     ICUT  =       9
 INTTYP=BEST         GRDTYP=BEST         QMTTOL= 1.0E-06

     $SYSTEM OPTIONS
     ---------------
  REPLICATED MEMORY=    40000000 WORDS (ON EVERY NODE).
 DISTRIBUTED MEMDDI=           0 MILLION WORDS IN AGGREGATE,
 MEMDDI DISTRIBUTED OVER   1 PROCESSORS IS           0 WORDS/PROCESSOR.
 TOTAL MEMORY REQUESTED ON EACH PROCESSOR=    40000000 WORDS.
 TIMLIM=       10000.00 MINUTES, OR       6.9 DAYS.
 PARALL= F  BALTYP=  DLB     KDIAG=    0  COREFL= F
 MXSEQ2=     300 MXSEQ3=     150  mem10=         0

     $COSGMS OPTIONS
     ---------------
     EPSI  =   INFTY     NSPA  =      92     COSRAD=    1.40
     DISEX =   10.00     OUTCHG=DBLCAV       COSBUG=       F
     COSWRT=       F     DCOSMO=       F

     SYMMETRY COORDINATES WILL NOT BE USED FOR 
     THE COSMO CALCULATION, EVEN IF SPECIFIED:
         -- SWITCHING TO C1 POINT GROUP --


     DEFINITION OF CAVITY
     ---------------------------
     ATOM         COORDINATES           RADIUS 
     1    6.4149    5.1824    2.3967    2.0000
     2    4.0563    3.8318    3.1746    2.0000
     3    3.9879    1.0543    2.4527    2.0000
     4    1.7716    5.1932    2.0734    2.0000
     5    8.4119    4.1464    1.2892    2.0000
     6    6.4100    7.2127    2.8272    1.3000
     7    3.9699    3.9645    5.2833    1.3000
     8    2.2223    0.1682    3.0878    1.3000
     9    4.1092    0.7878    0.3978    1.3000
    10    5.5537    0.0000    3.3138    1.3000
    11    1.7722    5.1247    0.0000    1.3000
    12    0.0000    4.3309    2.7229    1.3000
    13    1.7323    7.1912    2.6305    1.3000
    14   10.0760    5.2389    0.7907    1.3000
    15    8.5472    2.1566    0.7986    1.3000

          ----------------
          PROPERTIES INPUT
          ----------------

     MOMENTS            FIELD           POTENTIAL          DENSITY
 IEMOM =       1   IEFLD =       0   IEPOT =       0   IEDEN =       0
 WHERE =COMASS     WHERE =NUCLEI     WHERE =NUCLEI     WHERE =NUCLEI  
 OUTPUT=BOTH       OUTPUT=BOTH       OUTPUT=BOTH       OUTPUT=BOTH    
 IEMINT=       0   IEFINT=       0                     IEDINT=       0
                                                       MORB  =       0
          EXTRAPOLATION IN EFFECT
          SOSCF IN EFFECT
 ORBITAL PRINTING OPTION: NPREO=     1   155     2     1

     -------------------------------
     INTEGRAL TRANSFORMATION OPTIONS
     -------------------------------
     NWORD  =            0
     CUTOFF = 1.0E-09     MPTRAN =       0
     DIRTRF =       T     AOINTS =DUP     

          ----------------------
          INTEGRAL INPUT OPTIONS
          ----------------------
 NOPK  =       1 NORDER=       0 SCHWRZ=       T


 -----------------------------------------------
  STATISTICS ON AUTOMATIC COORDINATE GENERATION 
 -----------------------------------------------
  NUMBER OF USER SPECIFIED BONDS                             0
  NUMBER OF BONDS                                           14
  NUMBER OF ANGLES                                          24
  NUMBER OF TORSIONS                                        28
  NUMBER OF EXTRA COORD.                                     0
  NUMBER OF EXTRA COORD. FOR CONSTRAINTS                     0
  NUMBER OF CONSTRAINED COORD.                               0

  TOTAL NUMBER OF PRIMITIVES                                66
 -----------------------------------------------

   --- ENCODED Z MATRIX ---
 COORD  TYPE   I   J   K   L   M   N
    1      1    1   5
    2      1    1   2
    3      1    1   6
    4      1    2   4
    5      1    2   7
    6      1    2   3
    7      1    3   8
    8      1    3  10
    9      1    3   9
   10      1    4  13
   11      1    4  12
   12      1    4  11
   13      1    5  15
   14      1    5  14
   15      2    1   5  14
   16      2    1   2   3
   17      2    1   5  15
   18      2    1   2   4
   19      2    1   2   7
   20      2    2   1   5
   21      2    2   4  12
   22      2    2   3   8
   23      2    2   4  13
   24      2    2   1   6
   25      2    2   3   9
   26      2    2   4  11
   27      2    2   3  10
   28      2    3   2   7
   29      2    3   2   4
   30      2    4   2   7
   31      2    5   1   6
   32      2    8   3   9
   33      2    8   3  10
   34      2    9   3  10
   35      2   11   4  12
   36      2   11   4  13
   37      2   12   4  13
   38      2   14   5  15
   39      3    1   2   4  11
   40      3    1   2   3   9
   41      3    1   2   4  12
   42      3    1   2   3  10
   43      3    1   2   4  13
   44      3    1   2   3   8
   45      3    2   1   5  14
   46      3    2   1   5  15
   47      3    3   2   4  13
   48      3    3   2   1   5
   49      3    3   2   4  12
   50      3    3   2   4  11
   51      3    3   2   1   6
   52      3    4   2   3   8
   53      3    4   2   1   6
   54      3    4   2   1   5
   55      3    4   2   3  10
   56      3    4   2   3   9
   57      3    5   1   2   7
   58      3    6   1   5  15
   59      3    6   1   5  14
   60      3    6   1   2   7
   61      3    7   2   4  13
   62      3    7   2   3   8
   63      3    7   2   4  12
   64      3    7   2   3  10
   65      3    7   2   4  11
   66      3    7   2   3   9

          INDEP./SYM. INTERNAL COORDINATES
          --------------------------------
 CRD  1=   0.1511 (  2) -0.1517 ( 15)  0.4188 ( 16)  0.1671 ( 17) -0.2673 ( 18)
           0.5439 ( 20) -0.2918 ( 24) -0.1036 ( 28) -0.1049 ( 29)  0.1180 ( 30)
          -0.2520 ( 31)  0.1373 ( 39)  0.1469 ( 41)  0.1106 ( 42)  0.1618 ( 43)
          -0.1086 ( 47) -0.1235 ( 49) -0.1331 ( 50)
 CRD  2=   0.1245 (  1)  0.2139 (  2) -0.1422 (  6)  0.4635 ( 18) -0.1938 ( 19)
          -0.1770 ( 21) -0.1104 ( 22)  0.1564 ( 23)  0.1906 ( 28) -0.5187 ( 29)
          -0.1546 ( 40) -0.1156 ( 42) -0.2287 ( 48) -0.1525 ( 51)  0.1613 ( 52)
           0.1313 ( 53)  0.1276 ( 55)
 CRD  3=   0.2360 (  1)  0.2158 (  2)  0.3707 (  4)  0.1084 (  6) -0.2669 ( 16)
           0.1829 ( 17)  0.1454 ( 18)  0.2938 ( 20)  0.1231 ( 22) -0.1099 ( 24)
           0.2617 ( 26) -0.1169 ( 27)  0.2658 ( 29) -0.2080 ( 30) -0.1842 ( 31)
          -0.1183 ( 35) -0.1114 ( 42) -0.1300 ( 44) -0.1768 ( 53) -0.2412 ( 54)
           0.1350 ( 56)
 CRD  4=  -0.2158 (  1)  0.1098 (  3)  0.5348 (  6)  0.1211 ( 15)  0.1663 ( 16)
          -0.2146 ( 17) -0.1142 ( 19) -0.1949 ( 20) -0.1105 ( 21)  0.1544 ( 24)
           0.2088 ( 25)  0.2023 ( 26)  0.2193 ( 27) -0.1279 ( 32) -0.1188 ( 33)
          -0.1977 ( 34)  0.1206 ( 39)  0.1608 ( 41) -0.1577 ( 48) -0.1587 ( 53)
          -0.2240 ( 54) -0.1383 ( 58)
 CRD  5=   0.1130 (  1)  0.3315 (  2)  0.1003 (  3)  0.3579 (  4)  0.1879 (  6)
           0.1679 ( 15) -0.1177 ( 17) -0.1277 ( 20)  0.1039 ( 21)  0.2876 ( 23)
           0.1624 ( 24)  0.1994 ( 25) -0.1091 ( 26) -0.1484 ( 28)  0.1237 ( 30)
          -0.1584 ( 37)  0.1522 ( 46)  0.2473 ( 48) -0.1348 ( 49)  0.2187 ( 51)
           0.2329 ( 53)  0.2614 ( 54)  0.1117 ( 57)  0.1827 ( 58)
 CRD  6=  -0.1387 (  2) -0.1113 (  4) -0.1085 (  5) -0.2442 (  6) -0.2527 ( 21)
          -0.3362 ( 22) -0.1340 ( 23)  0.4356 ( 25)  0.2955 ( 26) -0.3006 ( 27)
          -0.1267 ( 28)  0.2347 ( 33)  0.1494 ( 37) -0.1258 ( 44)  0.1050 ( 45)
           0.1153 ( 46) -0.1651 ( 47)  0.1326 ( 48) -0.1077 ( 50)  0.1797 ( 51)
           0.1534 ( 55)
 CRD  7=   0.3087 (  1)  0.4566 (  2)  0.1394 (  3) -0.3793 (  4)  0.1527 ( 14)
           0.2724 ( 15) -0.1272 ( 17)  0.1375 ( 19)  0.1637 ( 22) -0.2847 ( 23)
          -0.1921 ( 27) -0.1089 ( 30)  0.1623 ( 36)  0.1352 ( 37) -0.1452 ( 38)
           0.1164 ( 40)  0.1093 ( 42)  0.1014 ( 44)
 CRD  8=  -0.2696 (  1) -0.2500 (  4)  0.2071 (  6) -0.2650 ( 15)  0.1363 ( 17)
          -0.2827 ( 21)  0.3768 ( 22)  0.2001 ( 23)  0.2122 ( 24) -0.1351 ( 26)
          -0.2872 ( 27) -0.2818 ( 31) -0.2073 ( 32)  0.1876 ( 35)  0.1287 ( 38)
 CRD  9=   0.3434 (  1) -0.2096 (  2)  0.1550 (  6)  0.1264 ( 10) -0.1257 ( 11)
           0.1925 ( 15) -0.4227 ( 21)  0.1123 ( 22)  0.3654 ( 23) -0.3968 ( 24)
           0.3530 ( 31)  0.1900 ( 35) -0.1563 ( 36) -0.1681 ( 38)
 CRD 10=   0.1149 (  8) -0.1120 (  9) -0.1089 ( 15)  0.1710 ( 19) -0.3489 ( 21)
           0.1726 ( 24) -0.2921 ( 25)  0.3893 ( 26)  0.3543 ( 27) -0.1590 ( 31)
           0.1724 ( 32) -0.1174 ( 33) -0.1591 ( 36)  0.1402 ( 37)  0.1379 ( 40)
           0.1597 ( 42) -0.1299 ( 43)  0.1810 ( 44) -0.1538 ( 45)  0.1184 ( 48)
           0.1233 ( 52)  0.1086 ( 54)  0.1019 ( 55)  0.1339 ( 57)
 CRD 11=   0.1158 (  7) -0.1044 (  9) -0.1032 ( 10)  0.1431 ( 12)  0.1363 ( 15)
           0.1245 ( 16) -0.1616 ( 17) -0.1702 ( 19)  0.4037 ( 22) -0.2371 ( 23)
          -0.1074 ( 24) -0.3185 ( 25)  0.3318 ( 26) -0.1275 ( 27)  0.1322 ( 30)
           0.1003 ( 31) -0.1243 ( 33)  0.1996 ( 34) -0.1603 ( 35)  0.1197 ( 37)
           0.1348 ( 39)  0.1526 ( 41) -0.1147 ( 42)  0.1421 ( 43)  0.1388 ( 45)
           0.1594 ( 46)  0.1336 ( 51)  0.1563 ( 53)
 CRD 12=   0.1996 (  4) -0.1942 (  6)  0.1135 (  7) -0.1079 ( 11)  0.1183 ( 16)
          -0.1334 ( 18) -0.1389 ( 21)  0.1370 ( 22)  0.2450 ( 23)  0.1044 ( 24)
           0.1046 ( 26) -0.2934 ( 27) -0.1817 ( 28)  0.1763 ( 30)  0.1896 ( 34)
          -0.1903 ( 36) -0.1035 ( 41) -0.1613 ( 45) -0.2507 ( 46) -0.1317 ( 47)
          -0.1137 ( 48) -0.1491 ( 49) -0.1347 ( 50) -0.1383 ( 51) -0.1364 ( 52)
          -0.1006 ( 53) -0.1191 ( 55) -0.1248 ( 56) -0.2400 ( 57) -0.2244 ( 58)
          -0.1350 ( 59) -0.2646 ( 60)
 CRD 13=   0.2488 (  1)  0.4175 (  3)  0.1314 (  5)  0.1110 (  6)  0.3243 ( 13)
          -0.2700 ( 14) -0.2875 ( 15)  0.4454 ( 17) -0.2251 ( 20) -0.1389 ( 23)
           0.1316 ( 26)  0.1002 ( 30)  0.1387 ( 31) -0.1579 ( 38)
 CRD 14=   0.1321 (  3) -0.1213 (  4) -0.3859 (  5)  0.1204 (  8) -0.1546 (  9)
           0.1097 ( 10) -0.2409 ( 25) -0.1917 ( 26)  0.1522 ( 27) -0.1747 ( 28)
           0.1579 ( 29)  0.1521 ( 32) -0.1044 ( 33)  0.1535 ( 35) -0.1439 ( 40)
          -0.1212 ( 42) -0.1638 ( 44)  0.3624 ( 45)  0.1748 ( 46) -0.1491 ( 47)
          -0.1396 ( 49) -0.1548 ( 50)  0.1410 ( 51) -0.1841 ( 54) -0.1568 ( 57)
           0.2337 ( 59) -0.1010 ( 62)
 CRD 15=   0.2361 (  3) -0.3487 (  5)  0.2303 (  7)  0.2148 (  8)  0.2184 (  9)
          -0.2151 ( 10) -0.1601 ( 11) -0.3538 ( 12)  0.1189 ( 13)  0.1522 ( 21)
           0.1560 ( 23) -0.1284 ( 25) -0.1443 ( 27)  0.1028 ( 33)  0.1541 ( 34)
          -0.1897 ( 37)  0.1385 ( 39)  0.1486 ( 41)  0.1047 ( 42)  0.1164 ( 43)
           0.1043 ( 44) -0.1032 ( 45)  0.1597 ( 52)  0.1600 ( 55)  0.1529 ( 56)
           0.1026 ( 62)  0.1029 ( 64)
 CRD 16=   0.2066 (  5)  0.1276 (  6)  0.3530 (  7)  0.3961 (  8)  0.4460 (  9)
           0.2409 ( 10)  0.1962 ( 11)  0.2741 ( 12) -0.1142 ( 13) -0.1280 ( 21)
          -0.1878 ( 22) -0.1263 ( 25) -0.1437 ( 27)  0.1682 ( 32)  0.1853 ( 33)
           0.1365 ( 34)  0.1059 ( 35)  0.1177 ( 37) -0.1076 ( 38)
 CRD 17=   0.1738 ( 10)  0.1866 ( 11)  0.1697 ( 12)  0.5399 ( 13)  0.4765 ( 14)
          -0.2543 ( 15) -0.2155 ( 17)  0.4697 ( 38)
 CRD 18=  -0.1725 (  4)  0.4113 (  5)  0.1086 (  7)  0.1096 (  8)  0.1681 (  9)
          -0.3130 ( 10) -0.3925 ( 11) -0.2344 ( 12)  0.1329 ( 13)  0.2083 ( 14)
           0.1345 ( 26) -0.1321 ( 36)  0.1195 ( 38)  0.2187 ( 45)  0.1373 ( 46)
          -0.1326 ( 52) -0.1410 ( 55) -0.1273 ( 56)  0.1045 ( 58)  0.1860 ( 59)
          -0.1120 ( 62) -0.1204 ( 64) -0.1067 ( 66)
 CRD 19=  -0.1698 (  2) -0.3037 (  3) -0.2390 (  5)  0.1935 (  6)  0.3092 (  7)
           0.1841 (  8)  0.1303 ( 18)  0.1011 ( 21) -0.1143 ( 23) -0.1085 ( 35)
          -0.1641 ( 39) -0.2276 ( 41) -0.2172 ( 43) -0.1795 ( 45) -0.2279 ( 47)
          -0.2384 ( 49) -0.1749 ( 50)  0.1279 ( 57) -0.1245 ( 59) -0.2566 ( 61)
          -0.2671 ( 63) -0.2036 ( 65)
 CRD 20=   0.4690 (  7) -0.3250 (  8) -0.1381 (  9) -0.2660 ( 10) -0.1526 ( 11)
           0.4024 ( 12)  0.1784 ( 32) -0.2550 ( 34)  0.1411 ( 35) -0.2067 ( 37)
           0.1382 ( 40)  0.1517 ( 41) -0.1329 ( 42)  0.1584 ( 49) -0.1180 ( 55)
           0.1530 ( 56)  0.1402 ( 63) -0.1190 ( 64)  0.1520 ( 66)
 CRD 21=  -0.2057 (  7)  0.4773 (  8) -0.2429 (  9) -0.4481 ( 10)  0.1227 ( 11)
           0.2920 ( 12) -0.2391 ( 32)  0.1272 ( 33)  0.1035 ( 34)  0.2245 ( 35)
          -0.1513 ( 37) -0.1096 ( 39) -0.1316 ( 40)  0.1313 ( 41)  0.1260 ( 44)
           0.1312 ( 49) -0.1096 ( 50)  0.1279 ( 52) -0.1297 ( 56)  0.1131 ( 62)
           0.1199 ( 63) -0.1209 ( 65) -0.1444 ( 66)
 CRD 22=  -0.1886 (  7)  0.1658 (  8)  0.3030 ( 10) -0.6168 ( 11)  0.2984 ( 12)
          -0.1474 ( 35)  0.3117 ( 36) -0.1615 ( 37)  0.1951 ( 39) -0.1465 ( 43)
          -0.1553 ( 47)  0.1863 ( 50) -0.1313 ( 61)  0.2103 ( 65)
 CRD 23=   0.2937 (  7)  0.2093 (  8) -0.5592 (  9)  0.2501 ( 10) -0.2316 ( 12)
          -0.1211 ( 32)  0.3171 ( 33) -0.1784 ( 34) -0.1152 ( 35)  0.1247 ( 37)
          -0.1518 ( 42)  0.1835 ( 44)  0.1125 ( 47)  0.1059 ( 50)  0.1459 ( 52)
          -0.1893 ( 55)  0.1724 ( 62) -0.1628 ( 64)
 CRD 24=  -0.1006 (  4) -0.2922 (  5) -0.1016 (  7) -0.1118 ( 11)  0.1059 ( 14)
          -0.1041 ( 31)  0.1359 ( 37) -0.1945 ( 40) -0.2201 ( 42)  0.1363 ( 43)
          -0.2141 ( 44) -0.3057 ( 45) -0.1222 ( 46)  0.1792 ( 47)  0.1137 ( 48)
           0.1114 ( 50)  0.1253 ( 51) -0.2017 ( 52) -0.2077 ( 55) -0.1821 ( 56)
           0.1230 ( 57) -0.1340 ( 58) -0.3176 ( 59)  0.1346 ( 60)  0.1280 ( 61)
          -0.2035 ( 62) -0.2095 ( 64) -0.1839 ( 66)
 CRD 25=  -0.1773 (  1)  0.3641 (  2)  0.1447 (  5) -0.4912 ( 14) -0.1454 ( 15)
          -0.1701 ( 17) -0.3510 ( 24) -0.1512 ( 30)  0.3272 ( 31)  0.3155 ( 38)
          -0.1733 ( 62) -0.1543 ( 64) -0.1784 ( 66)
 CRD 26=  -0.1672 (  2)  0.5969 (  3) -0.1226 (  8)  0.1220 ( 10) -0.4213 ( 13)
           0.2586 ( 14)  0.1586 ( 28) -0.1002 ( 30)  0.1098 ( 33)  0.1107 ( 46)
           0.1220 ( 57)  0.1939 ( 58) -0.1654 ( 61) -0.1443 ( 63) -0.1813 ( 65)
 CRD 27=  -0.2298 (  3) -0.2800 (  5) -0.1385 (  8)  0.1032 (  9)  0.1538 ( 10)
           0.1039 ( 11)  0.1805 ( 12)  0.2496 ( 13)  0.1199 ( 21)  0.1167 ( 23)
           0.1702 ( 26)  0.1168 ( 33) -0.1337 ( 35) -0.1769 ( 36) -0.1243 ( 37)
          -0.1134 ( 38) -0.1066 ( 45)  0.2496 ( 46) -0.2651 ( 51) -0.1934 ( 53)
           0.4467 ( 58) -0.1138 ( 60) -0.1522 ( 64) -0.1475 ( 66)
 CRD 28=  -0.1125 (  3)  0.1604 (  5)  0.2815 (  6) -0.2031 (  7) -0.2145 (  8)
          -0.2764 (  9)  0.1096 ( 10)  0.2742 ( 13)  0.1412 ( 15) -0.2188 ( 22)
          -0.2336 ( 25) -0.2184 ( 27)  0.2520 ( 32)  0.2050 ( 33)  0.2608 ( 34)
          -0.1579 ( 38)  0.1088 ( 51)  0.1239 ( 57) -0.1890 ( 58)  0.2171 ( 60)
          -0.1260 ( 61) -0.1359 ( 65)
 CRD 29=  -0.3560 (  4) -0.1279 (  6)  0.1134 (  7)  0.1819 ( 10)  0.2401 ( 11)
           0.2203 ( 12)  0.1033 ( 19)  0.2190 ( 21)  0.2136 ( 23)  0.2011 ( 26)
          -0.2523 ( 35) -0.2061 ( 36) -0.2193 ( 37)  0.2209 ( 45) -0.2071 ( 46)
           0.1215 ( 51)  0.1522 ( 53) -0.3375 ( 58)  0.1958 ( 60)
 CRD 30=  -0.3844 (  1)  0.3095 (  5) -0.1501 (  6)  0.1904 (  7) -0.1069 (  9)
           0.1316 ( 11) -0.1835 ( 12)  0.1474 ( 13)  0.2754 ( 14)  0.1047 ( 15)
           0.1787 ( 17) -0.1820 ( 33)  0.1051 ( 36) -0.1340 ( 37) -0.2833 ( 38)
          -0.1165 ( 40)  0.1285 ( 41) -0.1414 ( 44) -0.1888 ( 45)  0.1162 ( 46)
          -0.1398 ( 47)  0.1266 ( 55)  0.1295 ( 58) -0.1755 ( 59) -0.1616 ( 62)
           0.1517 ( 63)  0.1088 ( 65) -0.1367 ( 66)
 CRD 31=   0.1142 (  1) -0.2879 (  3)  0.2999 (  6) -0.1196 (  8) -0.1080 (  9)
          -0.1036 ( 10) -0.3970 ( 13)  0.3104 ( 14) -0.3428 ( 15)  0.2839 ( 17)
          -0.2371 ( 20) -0.1020 ( 28)  0.2585 ( 31)  0.1403 ( 34)  0.1163 ( 61)
           0.1095 ( 63)  0.2015 ( 65) -0.1001 ( 66)
 CRD 32=   0.4663 (  1) -0.1980 (  2) -0.1126 (  3) -0.2457 (  4)  0.2162 (  5)
           0.1178 (  8) -0.1593 (  9)  0.1243 ( 10)  0.1268 ( 11) -0.1001 ( 13)
          -0.2405 ( 14) -0.1774 ( 17)  0.1858 ( 24) -0.1671 ( 31) -0.1165 ( 33)
          -0.1666 ( 37)  0.2325 ( 38)  0.1633 ( 41) -0.1570 ( 44) -0.1875 ( 45)
           0.1316 ( 46)  0.1120 ( 58) -0.2071 ( 59)  0.1120 ( 64)
 CRD 33=  -0.1774 (  1)  0.3488 (  2) -0.2866 (  4) -0.2197 (  7)  0.2536 (  8)
           0.1488 ( 10)  0.1025 ( 12)  0.1535 ( 14)  0.1591 ( 17) -0.1556 ( 19)
          -0.1172 ( 24)  0.1225 ( 30)  0.1865 ( 31)  0.1763 ( 32) -0.1779 ( 34)
          -0.1696 ( 36)  0.1406 ( 40) -0.1206 ( 44) -0.1034 ( 45)  0.1772 ( 56)
          -0.1092 ( 57) -0.1247 ( 59) -0.1844 ( 65)  0.3344 ( 66)
 CRD 34=  -0.1335 (  1) -0.1111 (  2)  0.1997 (  3) -0.1751 (  4)  0.2913 (  6)
          -0.1217 (  7) -0.1136 (  9) -0.2820 ( 10)  0.2013 ( 11)  0.1686 ( 12)
           0.1323 ( 13)  0.1436 ( 15) -0.1022 ( 16)  0.2071 ( 20)  0.1129 ( 23)
          -0.1228 ( 24) -0.1126 ( 28)  0.1604 ( 32) -0.2680 ( 35)  0.1060 ( 39)
          -0.2464 ( 41) -0.1698 ( 49)  0.1826 ( 50) -0.1513 ( 57) -0.1874 ( 60)
           0.2719 ( 65)  0.1042 ( 66)
 CRD 35=  -0.2656 (  7)  0.2440 (  9)  0.2651 ( 11) -0.2594 ( 12)  0.1076 ( 16)
          -0.1020 ( 18) -0.1353 ( 21)  0.1357 ( 22) -0.1025 ( 25)  0.1089 ( 26)
           0.1735 ( 33) -0.2071 ( 34)  0.2075 ( 36) -0.1842 ( 37)  0.1174 ( 39)
           0.1198 ( 40) -0.2281 ( 42) -0.2285 ( 43) -0.2895 ( 47) -0.2879 ( 55)
          -0.2592 ( 61) -0.2542 ( 64)
 CRD 36=  -0.2204 (  4) -0.2871 (  8)  0.2005 (  9) -0.1012 ( 16) -0.1388 ( 25)
           0.1838 ( 27) -0.1526 ( 28)  0.1423 ( 29) -0.1982 ( 32)  0.1627 ( 33)
          -0.2331 ( 40) -0.1201 ( 42)  0.1597 ( 44)  0.2085 ( 46)  0.2470 ( 51)
           0.2474 ( 52)  0.1033 ( 53) -0.1082 ( 54) -0.1454 ( 56) -0.2286 ( 57)
          -0.3000 ( 59)  0.3546 ( 62)
 CRD 37=   0.1379 (  2) -0.2937 (  6) -0.2546 ( 10)  0.1457 ( 12) -0.1545 ( 18)
          -0.1222 ( 19) -0.1380 ( 20)  0.1958 ( 23)  0.1076 ( 24) -0.1186 ( 26)
           0.1381 ( 28)  0.1694 ( 29) -0.1403 ( 30) -0.1767 ( 35)  0.1197 ( 37)
           0.2999 ( 39)  0.1452 ( 43)  0.1098 ( 46) -0.1954 ( 49)  0.1758 ( 50)
          -0.1264 ( 53) -0.2294 ( 54) -0.1300 ( 59)  0.1823 ( 60) -0.1606 ( 61)
          -0.3772 ( 63)
 CRD 38=   0.2471 (  2) -0.1190 (  4) -0.1149 (  5)  0.1660 (  7) -0.1103 (  9)
           0.1561 ( 11) -0.1328 ( 12) -0.1614 ( 16) -0.1240 ( 19) -0.1322 ( 21)
          -0.1585 ( 22)  0.1292 ( 26)  0.1087 ( 28)  0.1796 ( 30)  0.1184 ( 34)
          -0.1127 ( 37) -0.1431 ( 40)  0.1225 ( 42) -0.1787 ( 43) -0.1482 ( 46)
           0.2327 ( 49)  0.2554 ( 50) -0.1980 ( 52)  0.1463 ( 54) -0.2917 ( 56)
           0.1679 ( 59) -0.1167 ( 60) -0.2665 ( 61)  0.1304 ( 62)  0.3023 ( 64)
 CRD 39=  -0.1154 (  4)  0.1815 (  5)  0.1228 ( 18) -0.1387 ( 19)  0.1151 ( 39)
          -0.2001 ( 40) -0.2376 ( 42)  0.1710 ( 43) -0.1032 ( 44) -0.1090 ( 45)
          -0.3893 ( 46)  0.3878 ( 48) -0.1376 ( 49)  0.1615 ( 52) -0.2801 ( 53)
           0.1424 ( 54)  0.2004 ( 57)  0.3357 ( 59) -0.2221 ( 60)  0.1100 ( 62)

 THE DETERMINANT OF THE G MATRIX IS 10**(   -12)


                     --------------------
                     INTERNAL COORDINATES
                     --------------------

                 - - ATOMS - -         COORDINATE      COORDINATE
 NO.   TYPE    I  J  K  L  M  N        (BOHR,RAD)       (ANG,DEG)
 ----------------------------------------------------------------
   1 STRETCH   1  5                     2.5076192       1.3269750
   2 STRETCH   1  2                     2.8269974       1.4959827
   3 STRETCH   1  6                     2.0754620       1.0982873
   4 STRETCH   2  4                     2.8784667       1.5232191
   5 STRETCH   2  7                     2.1146780       1.1190395
   6 STRETCH   2  3                     2.8706091       1.5190611
   7 STRETCH   3  8                     2.0750421       1.0980651
   8 STRETCH   3 10                     2.0748235       1.0979494
   9 STRETCH   3  9                     2.0756396       1.0983813
  10 STRETCH   4 13                     2.0745912       1.0978265
  11 STRETCH   4 12                     2.0746107       1.0978368
  12 STRETCH   4 11                     2.0745356       1.0977971
  13 STRETCH   5 15                     2.0539224       1.0868890
  14 STRETCH   5 14                     2.0521123       1.0859311
  15 BEND      1  5 14                  2.1331535     122.2206901
  16 BEND      1  2  3                  1.9964831     114.3900552
  17 BEND      1  5 15                  2.1630072     123.9311858
  18 BEND      1  2  4                  1.9081552     109.3292395
  19 BEND      1  2  7                  1.8529934     106.1687023
  20 BEND      2  1  5                  2.2001122     126.0571443
  21 BEND      2  4 12                  1.9406264     111.1897014
  22 BEND      2  3  8                  1.9352953     110.8842546
  23 BEND      2  4 13                  1.9474383     111.5799966
  24 BEND      2  1  6                  1.9914017     114.0989121
  25 BEND      2  3  9                  1.9517134     111.8249401
  26 BEND      2  4 11                  1.9460673     111.5014452
  27 BEND      2  3 10                  1.9490461     111.6721166
  28 BEND      3  2  7                  1.8865053     108.0887909
  29 BEND      3  2  4                  1.9203677     110.0289633
  30 BEND      4  2  7                  1.8958807     108.6259600
  31 BEND      5  1  6                  2.0916618     119.8433928
  32 BEND      8  3  9                  1.8733290     107.3338481
  33 BEND      8  3 10                  1.8735027     107.3437999
  34 BEND      9  3 10                  1.8771219     107.5511620
  35 BEND     11  4 12                  1.8748891     107.4232311
  36 BEND     11  4 13                  1.8756437     107.4664672
  37 BEND     12  4 13                  1.8755350     107.4602414
  38 BEND     14  5 15                  1.9870245     113.8481174
  39 TORSION   1  2  4 11               1.1221924      64.2968881
  40 TORSION   1  2  3  9              -1.0599806     -60.7324135
  41 TORSION   1  2  4 12              -3.0690460    -175.8433819
  42 TORSION   1  2  3 10               1.0444813      59.8443684
  43 TORSION   1  2  4 13              -0.9753548     -55.8837164
  44 TORSION   1  2  3  8               3.1330635     179.5113161
  45 TORSION   2  1  5 14              -3.1304676    -179.3625800
  46 TORSION   2  1  5 15               0.0105709       0.6056651
  47 TORSION   3  2  4 13               3.1014415     177.6995105
  48 TORSION   3  2  1  5              -0.0619138      -3.5474007
  49 TORSION   3  2  4 12               1.0077504      57.7398450
  50 TORSION   3  2  4 11              -1.0841965     -62.1198850
  51 TORSION   3  2  1  6               3.0844326     176.7249699
  52 TORSION   4  2  3  8              -0.9944288     -56.9765739
  53 TORSION   4  2  1  6               0.9221904      52.8376195
  54 TORSION   4  2  1  5              -2.2241560    -127.4347511
  55 TORSION   4  2  3 10              -3.0830111    -176.6435216
  56 TORSION   4  2  3  9               1.0957124      62.7796965
  57 TORSION   5  1  2  7               2.0168642     115.5578041
  58 TORSION   6  1  5 15              -3.1360247    -179.6809784
  59 TORSION   6  1  5 14               0.0061222       0.3507764
  60 TORSION   6  1  2  7              -1.1199747     -64.1698253
  61 TORSION   7  2  4 13               1.0395296      59.5606615
  62 TORSION   7  2  3  8               1.0732599      61.4932601
  63 TORSION   7  2  4 12              -1.0541615     -60.3990040
  64 TORSION   7  2  3 10              -1.0153224     -58.1736876
  65 TORSION   7  2  4 11               3.1370769     179.7412661
  66 TORSION   7  2  3  9              -3.1197842    -178.7504694

     ------------------------------------------
     THE POINT GROUP IS C1 , NAXIS= 1, ORDER= 1
     ------------------------------------------

     DIMENSIONS OF THE SYMMETRY SUBSPACES ARE
 A   =  155

 ..... DONE SETTING UP THE RUN .....
 STEP CPU TIME =     0.01 TOTAL CPU TIME =        0.0 (    0.0 MIN)
 TOTAL WALL CLOCK TIME=        0.0 SECONDS, CPU UTILIZATION IS 100.00%


          -----------------------------
          STATIONARY POINT LOCATION RUN
          -----------------------------

 OBTAINING INITIAL HESSIAN, HESS=GUESS   
 DIAGONAL GUESS HESSIAN IN INTERNAL COORDS IS
     1  0.5448     2  0.3923     3  0.3408     4  0.3720     5  0.3274
     6  0.3751     7  0.3410     8  0.3411     9  0.3408    10  0.3411
    11  0.3411    12  0.3412    13  0.3485    14  0.3491    15  0.2370
    16  0.2517    17  0.2369    18  0.2514    19  0.2244    20  0.2660
    21  0.2240    22  0.2242    23  0.2240    24  0.2256    25  0.2242
    26  0.2240    27  0.2243    28  0.2230    29  0.2497    30  0.2228
    31  0.2362    32  0.2026    33  0.2026    34  0.2026    35  0.2026
    36  0.2026    37  0.2026    38  0.2038    39  0.2500    40  0.2500
    41  0.2500    42  0.2500    43  0.2500    44  0.2500    45  0.2500
    46  0.2500    47  0.2500    48  0.2500    49  0.2500    50  0.2500
    51  0.2500    52  0.2500    53  0.2500    54  0.2500    55  0.2500
    56  0.2500    57  0.2500    58  0.2500    59  0.2500    60  0.2500
    61  0.2500    62  0.2500    63  0.2500    64  0.2500    65  0.2500
    66  0.2500
 TRANSFORMING HESSIAN TO SYMMETRY COORDINATES

          PARAMETERS CONTROLLING GEOMETRY SEARCH ARE
          METHOD =QA                  UPHESS =BFGS    
          NNEG   =         0          NFRZ   =         3
          NSTEP  =        50          IFOLOW =         1
          HESS   =GUESS               RESTAR =         F
          IHREP  =         0          HSSEND =         F
          NPRT   =         0          NPUN   =         0
          OPTTOL = 5.000E-04          RMIN   = 1.500E-03
          RMAX   = 1.000E-01          RLIM   = 7.000E-02
          DXMAX  = 3.000E-01          PURIFY =         F
          MOVIE  =         F          TRUPD  =         T
          TRMAX  = 5.000E-01          TRMIN  = 5.000E-02
          ITBMAT =         5          STPT   =         F
          STSTEP = 1.000E-02          PROJCT=          F
          FROZEN COORD(S)=   1   2   3


      ***** EQUILIBRIUM GEOMETRY LOCATED *****
            (SUBJECT TO   3 CONSTRAINT(S))
 COORDINATES OF ALL ATOMS ARE (ANGS)
   ATOM   CHARGE       X              Y              Z
 ------------------------------------------------------------
 C           6.0   3.4167109604   2.7343189917   1.2847728483
 C           6.0   2.1378807742   2.0294521828   1.6781932142
 C           6.0   2.1124520466   0.5475594548   1.3075047869
 C           6.0   0.9204347914   2.7548919508   1.0883166944
 C           6.0   4.4553530630   2.2026049846   0.6659414394
 H           1.0   3.4557221075   3.7824422801   1.5471877447
 H           1.0   2.0649874276   2.1075824132   2.7630900110
 H           1.0   1.1830219787   0.0964988129   1.6401876938
 H           1.0   2.1820272418   0.4152701003   0.2307684939
 H           1.0   2.9322246310   0.0043276137   1.7667156746
 H           1.0   0.9372093239   2.7117426782   0.0019908672
 H           1.0   0.0013884616   2.2877025442   1.4307582237
 H           1.0   0.8947799612   3.7992819247   1.3855364233
 H           1.0   5.3256456981   2.7900203985   0.4277947086
 H           1.0   4.4845494161   1.1658632685   0.3790505261


                     --------------------
                     INTERNAL COORDINATES
                     --------------------

                 - - ATOMS - -         COORDINATE      COORDINATE
 NO.   TYPE    I  J  K  L  M  N        (BOHR,RAD)       (ANG,DEG)
 ----------------------------------------------------------------
   1 STRETCH   1  5                     2.4959049       1.3207761
   2 STRETCH   1  2                     2.8578152       1.5122908
   3 STRETCH   1  6                     2.0431302       1.0811780
   4 STRETCH   2  4                     2.9008321       1.5350544
   5 STRETCH   2  7                     2.0600777       1.0901462
   6 STRETCH   2  3                     2.8870552       1.5277639
   7 STRETCH   3  8                     2.0510047       1.0853450
   8 STRETCH   3 10                     2.0510297       1.0853583
   9 STRETCH   3  9                     2.0542480       1.0870613
  10 STRETCH   4 13                     2.0525488       1.0861621
  11 STRETCH   4 12                     2.0529229       1.0863601
  12 STRETCH   4 11                     2.0547214       1.0873118
  13 STRETCH   5 15                     2.0335350       1.0761005
  14 STRETCH   5 14                     2.0345777       1.0766522
  15 BEND      1  5 14                  2.1172436     121.3091242
  16 BEND      1  2  3                  1.9856451     113.7690834
  17 BEND      1  5 15                  2.1342408     122.2829896
  18 BEND      1  2  4                  1.9288236     110.5134494
  19 BEND      1  2  7                  1.8567104     106.3816716
  20 BEND      2  1  5                  2.2133476     126.8154751
  21 BEND      2  4 12                  1.9247247     110.2786006
  22 BEND      2  3  8                  1.9208988     110.0593960
  23 BEND      2  4 13                  1.9476402     111.5915659
  24 BEND      2  1  6                  2.0033747     114.7849127
  25 BEND      2  3  9                  1.9361775     110.9348013
  26 BEND      2  4 11                  1.9314999     110.6667944
  27 BEND      2  3 10                  1.9500767     111.7311662
  28 BEND      3  2  7                  1.8858536     108.0514522
  29 BEND      3  2  4                  1.9304554     110.6069466
  30 BEND      4  2  7                  1.8707958     107.1887042
  31 BEND      5  1  6                  2.0664581     118.3993269
  32 BEND      8  3  9                  1.8837233     107.9293941
  33 BEND      8  3 10                  1.8850456     108.0051549
  34 BEND      9  3 10                  1.8858072     108.0487909
  35 BEND     11  4 12                  1.8869556     108.1145941
  36 BEND     11  4 13                  1.8880059     108.1747683
  37 BEND     12  4 13                  1.8831213     107.8949012
  38 BEND     14  5 15                  2.0316774     116.4065420
  39 TORSION   1  2  4 11               1.1246319      64.4366636
  40 TORSION   1  2  3  9              -1.0850111     -62.1665592
  41 TORSION   1  2  4 12              -3.0714948    -175.9836902
  42 TORSION   1  2  3 10               1.0204857      58.4695252
  43 TORSION   1  2  4 13              -0.9788042     -56.0813486
  44 TORSION   1  2  3  8               3.1146252     178.4548788
  45 TORSION   2  1  5 14              -3.1412179    -179.9785259
  46 TORSION   2  1  5 15              -0.0072531      -0.4155734
  47 TORSION   3  2  4 13               3.0895306     177.0170660
  48 TORSION   3  2  1  5               0.0122350       0.7010120
  49 TORSION   3  2  4 12               0.9968400      57.1147244
  50 TORSION   3  2  4 11              -1.0902186     -62.4649218
  51 TORSION   3  2  1  6              -3.1328299    -179.4979294
  52 TORSION   4  2  3  8              -0.9855505     -56.4678858
  53 TORSION   4  2  1  6               0.9664750      55.3749407
  54 TORSION   4  2  1  5              -2.1716454    -124.4261179
  55 TORSION   4  2  3 10              -3.0796900    -176.4532393
  56 TORSION   4  2  3  9               1.0979984      62.9106763
  57 TORSION   5  1  2  7               2.0864058     119.5422473
  58 TORSION   6  1  5 15               3.1379232     179.7897534
  59 TORSION   6  1  5 14               0.0039584       0.2268008
  60 TORSION   6  1  2  7              -1.0586590     -60.6566941
  61 TORSION   7  2  4 13               1.0375331      59.4462650
  62 TORSION   7  2  3  8               1.0571833      60.5721425
  63 TORSION   7  2  4 12              -1.0551576     -60.4560766
  64 TORSION   7  2  3 10              -1.0369562     -59.4132110
  65 TORSION   7  2  4 11               3.1409692     179.9642771
  66 TORSION   7  2  3  9               3.1407323     179.9507046

          INTERNUCLEAR DISTANCES (ANGS.)


 =====================================================
   GAMESS/COSab RESULTS
 =====================================================

   Dielectric Constant                  = INFTY
   Basic Grid Size                      =                 1082
   Number of Segments                   =                   92
   Number of Segments located on spheres=                  219
   Number of Segments of the cavity     =                  535
   Solvent Radius (rsolv)               = 1.40
   Outlying Charge Error Method         = double cavity

 =====================================================

  Total solvated Energy (a.u.)          =  -195.1932079920
  Total Energy corrected (a.u.)         =  -195.1931620980

  Outlying charge effect (a.u.)         =     0.0000458940
  Outlying charge effect (kcal/mol)     =     0.0287989570

  Dielectric Energy (a.u.)              =    -0.0030996315
  Dielectric energy corr. (a.u.)        =    -0.0030537375

  Sum of polarization charges           =     0.0245034651
  Sum of polarization charges(cor.)     =    -0.0245034651

  Total surface area of cavity (A**2)   =  127.66
  Total volume of cavity (A**3)         =  118.37

 =====================================================
 NPS=                   535
NR.  ATOM  (X, Y, Z)(a.u.)                  CHARGE(e)  AREA(A**2) SIGMA(e/A**2)
   1   1   7.875210   3.298718   5.391148   0.001006   0.139368   0.007221
   2   1   6.605074   6.767132   5.848700   0.000519   0.278737   0.001862
   3   1   9.052083   6.660525   4.733876   0.001978   0.278737   0.007097
   4   1   5.610160   7.833423  -0.113492   0.000994   0.232280   0.004280
   5   1   5.687048   8.342426   0.528038   0.000592   0.185824   0.003184
   6   1   7.870034   8.275090   0.807039   0.000106   0.092912   0.001144
   7   1   8.959395   7.403934   4.164855   0.000570   0.232280   0.002456
   8   1   5.782380   7.061022   5.628281  -0.000023   0.185824  -0.000124
   9   1   7.332693   6.189910   5.959246   0.000877   0.325193   0.002696
  10   1   8.605858   6.225162   5.351162   0.001785   0.278737   0.006404
  11   1   7.309459   8.207888   0.351652   0.000978   0.185824   0.005260
  12   1   6.427952   7.708722  -0.369216   0.001932   0.325193   0.005940
  13   1   7.384616   5.108122   6.091145   0.000828   0.278737   0.002971
  14   1   7.642249   3.978652   5.814036   0.001389   0.232280   0.005981
  15   1   8.341389   4.302878   5.587786   0.002402   0.232280   0.010343
  16   1   8.791929   5.233702   5.398770   0.000944   0.185824   0.005079
  17   1   5.817861   6.832960  -0.903977   0.001941   0.185824   0.010443
  18   1   6.570202   8.308238   0.329130   0.000786   0.185824   0.004231
  19   1   7.934142   6.899573   5.444455   0.001161   0.325193   0.003570
  20   1   8.151143   5.360002   5.800656   0.001504   0.278737   0.005395
  21   2   6.201554   2.705283   6.058448   0.000085   0.092912   0.000912
  22   2   1.437475   2.740615   5.683923   0.000023   0.092912   0.000249
  23   2   6.210063   2.337459   5.879125   0.000009   0.046456   0.000184
  24   2   3.924384   6.752166   5.571655  -0.000093   0.092912  -0.000999
  25   2   1.691202   2.451423   5.789105  -0.000004   0.046456  -0.000094
  26   3   5.893630  -1.452684   0.354076   0.001132   0.278737   0.004061
  27   3   3.483905   0.064897   6.088229   0.000944   0.325193   0.002904
  28   3   2.278737  -1.490932   0.241437   0.001795   0.418105   0.004294
  29   3   4.213898  -2.586217   3.530900   0.001351   0.371649   0.003635
  30   3   3.192399  -2.382896   3.872550   0.001439   0.371649   0.003873
  31   3   1.589920  -1.434851   0.916581   0.001103   0.278737   0.003956
  32   3   2.729739  -0.296648   5.775148   0.000505   0.185824   0.002718
  33   3   6.402350  -1.577150   1.185407   0.001043   0.278737   0.003743
  34   3   1.172003   0.433130   0.027422   0.001098   0.232280   0.004728
  35   3   1.451766  -0.436577   0.090287   0.001952   0.371649   0.005252
  36   3   2.685201  -2.293878   1.247294   0.001371   0.464561   0.002951
  37   3   3.581639  -2.722382   2.465984   0.001250   0.464561   0.002690
  38   3   3.879554  -1.962230   4.770800   0.001820   0.371649   0.004898
  39   3   3.984085  -0.893438   5.721425   0.001601   0.371649   0.004309
  40   3   4.617271   0.204824   6.104628   0.001045   0.371649   0.002812
  41   3   3.571739  -2.042847   0.317645   0.001192   0.418105   0.002852
  42   3   4.954841  -2.073921   0.549011   0.001207   0.371649   0.003247
  43   3   5.528943  -2.271928   1.476884   0.001219   0.371649   0.003281
  44   3   4.842555  -2.647632   2.501581   0.000865   0.325193   0.002661
  45   3   2.633408  -2.489444   2.333623   0.000691   0.278737   0.002481
  46   3   0.810671   0.014691   0.703559   0.000557   0.139368   0.003998
  47   3   2.503460   0.574403   5.914195   0.000548   0.232280   0.002361
  48   3   3.156105  -1.315758   5.309991   0.001383   0.325193   0.004254
  49   3   5.423870   0.856933   5.964002   0.000139   0.092912   0.001494
  50   3   4.151320  -2.567993   1.339789   0.001038   0.464561   0.002235
  51   4  -1.341274   6.946069   3.385571   0.002023   0.418105   0.004838
  52   4  -1.500062   4.639150   0.194081   0.001761   0.418105   0.004212
  53   4   0.265154   8.194807   0.273947   0.001305   0.371649   0.003511
  54   4   1.657873   6.873983   5.447120   0.000532   0.278737   0.001907
  55   4   0.212834   4.859527   5.496680   0.000595   0.232280   0.002561
  56   4   0.535578   5.954093   5.560273   0.000875   0.325193   0.002691
  57   4  -0.329588   6.648955   4.871159   0.001385   0.325193   0.004259
  58   4   0.706060   7.692931  -0.595102   0.001447   0.371649   0.003893
  59   4  -0.909453   4.595524  -0.569275   0.001111   0.278737   0.003987
  60   4   0.555336   2.771375  -0.580601   0.000111   0.046456   0.002395
  61   4   3.156160   7.456159  -0.629200   0.000613   0.185824   0.003297
  62   4  -1.035555   6.301676   4.376885   0.000951   0.232280   0.004095
  63   4  -0.620720   7.267878   4.169191   0.001120   0.278737   0.004018
  64   4  -0.399729   2.699611   0.205520   0.001079   0.232280   0.004647
  65   4  -0.912957   3.436737   0.027047   0.001927   0.371649   0.005186
  66   4  -1.246884   5.920234  -0.147109   0.001346   0.464561   0.002898
  67   4  -0.615678   7.350405   0.022043   0.001198   0.464561   0.002579
  68   4   1.604156   8.336787  -0.056212   0.001533   0.325193   0.004714
  69   4   3.019710   8.057000  -0.068627   0.000605   0.185824   0.003258
  70   4  -1.850103   5.739050   1.000286   0.001108   0.418105   0.002650
  71   4  -1.764321   6.620149   2.149560   0.001301   0.418105   0.003111
  72   4  -1.172075   7.602362   2.312009   0.001424   0.464561   0.003064
  73   4  -0.600259   8.014766   1.096822   0.000785   0.325193   0.002414
  74   4  -0.263870   5.612016   5.235698   0.000725   0.232280   0.003120
  75   4   0.701134   6.844515   5.300330   0.000759   0.232280   0.003266
  76   4  -0.526602   6.610379  -0.622432   0.000707   0.278737   0.002538
  77   4  -0.123159   3.135885  -0.498744   0.000555   0.139368   0.003986
  78   4   2.225610   7.876686  -0.573049   0.001272   0.278737   0.004563
  79   4  -1.417174   6.948666   0.923652   0.000972   0.464561   0.002092
  80   4   2.872581   8.427473   0.437332   0.000611   0.185824   0.003289
  81   5   9.315220   2.568178   4.566082   0.002710   0.232280   0.011665
  82   5   7.305887   2.822225  -2.095426   0.001089   0.232280   0.004689
  83   5  10.400824   5.774831   4.043775   0.001846   0.278737   0.006623
  84   5  11.674383   2.620557   2.403983   0.001062   0.418105   0.002539
  85   5  10.471573   2.826983  -1.620730   0.000400   0.278737   0.001435
  86   5   8.341139   5.929590  -2.081450   0.002289   0.371649   0.006158
  87   5   9.257768   6.316661  -1.731575   0.001551   0.325193   0.004770
  88   5  11.252207   3.572809  -1.172992   0.000247   0.371649   0.000664
  89   5  12.102455   3.542419   1.837277   0.000816   0.418105   0.001951
  90   5  10.957384   5.913638   3.443808   0.001428   0.278737   0.005121
  91   5   9.269467   7.822775   0.854989  -0.000055   0.092912  -0.000595
  92   5   6.580490   3.932069  -2.035434   0.002309   0.232280   0.009942
  93   5  10.330770   6.746308   3.246906   0.000788   0.185824   0.004242
  94   5  10.996111   4.874146   3.930173   0.002106   0.325193   0.006477
  95   5  11.602773   3.607385   3.218653   0.001942   0.464561   0.004181
  96   5  11.806692   2.503004   1.019456   0.000627   0.371649   0.001688
  97   5  11.395505   2.524001  -0.397723   0.000458   0.371649   0.001232
  98   5  10.159409   3.833157  -2.080452   0.001353   0.603929   0.002240
  99   5   9.196903   5.058792  -2.329879   0.001845   0.464561   0.003971
 100   5   8.211656   6.991261  -1.239200   0.002990   0.371649   0.008046
 101   5   8.850735   7.673251  -0.072580   0.000522   0.185824   0.002810
 102   5  10.223455   4.476811   4.564614   0.003697   0.325193   0.011370
 103   5   9.851241   3.438986   4.680561   0.002571   0.325193   0.007905
 104   5   9.971429   2.108818   4.025855   0.003196   0.464561   0.006880
 105   5  11.003628   2.290133   3.283511   0.001809   0.464561   0.003894
 106   5  11.299845   1.759004   1.718109   0.000724   0.371649   0.001948
 107   5  10.601483   1.293342   2.394963   0.000769   0.278737   0.002760
 108   5  10.769150   2.233819  -0.987382   0.000128   0.278737   0.000458
 109   5   9.468514   2.464060  -1.950832   0.000713   0.418105   0.001705
 110   5   8.177933   2.548969  -2.150806   0.001211   0.325193   0.003723
 111   5   7.480757   3.732307  -2.377249   0.001761   0.325193   0.005416
 112   5   7.731072   4.903660  -2.383103   0.003129   0.511017   0.006124
 113   5   7.258416   6.111549  -1.764286   0.004445   0.418105   0.010632
 114   5  10.123162   5.059249  -1.993777   0.000592   0.278737   0.002123
 115   5  11.907116   3.085680   0.278199   0.000199   0.325193   0.000612
 116   5  11.663969   4.635291   3.138158   0.001421   0.325193   0.004369
 117   5  10.057673   7.247542   2.701283   0.000021   0.092912   0.000221
 118   5   8.901919   7.257916  -0.855499   0.000990   0.232280   0.004263
 119   5  10.119865   1.374275   3.160924   0.001430   0.325193   0.004398
 120   5   6.650215   4.942216  -1.989017   0.002989   0.278737   0.010725
 121   5  10.776133   3.494253   4.136593   0.002701   0.418105   0.006460
 122   5  11.197790   1.707610   0.524194   0.000072   0.232280   0.000308
 123   5   8.739630   3.676059  -2.475885   0.001821   0.557473   0.003267
 124   6   7.025445   9.474978   3.535445  -0.003469   0.471065  -0.007364
 125   6   6.002439   8.429146   4.952171  -0.002129   0.412182  -0.005165
 126   6   5.997508   9.262509   1.792787  -0.001989   0.392554  -0.005068
 127   6   7.938975   9.033761   2.220875  -0.001568   0.274788  -0.005706
 128   6   8.045136   8.473955   4.331541  -0.001555   0.412182  -0.003774
 129   6   5.870748   9.184381   4.128847  -0.003404   0.451437  -0.007541
 130   6   5.953785   9.535639   2.895856  -0.003072   0.412182  -0.007452
 131   6   7.088309   9.341919   1.970034  -0.002403   0.451437  -0.005322
 132   6   8.144531   8.962629   3.292450  -0.002843   0.471065  -0.006034
 133   6   7.097979   8.632268   4.797045  -0.002159   0.412182  -0.005239
 134   7   3.724604   4.112367   7.668260  -0.002621   0.510320  -0.005136
 135   7   3.442985   2.571576   7.179226  -0.000781   0.274788  -0.002844
 136   7   2.062981   3.710618   6.827122  -0.001038   0.353299  -0.002937
 137   7   3.244835   5.721763   6.827313  -0.001014   0.314043  -0.003228
 138   7   4.817170   5.161327   7.173142  -0.001025   0.314043  -0.003265
 139   7   5.373250   3.218180   7.034417  -0.000966   0.372926  -0.002590
 140   7   2.722231   3.120400   7.196065  -0.001685   0.451437  -0.003733
 141   7   2.665803   4.722547   7.211192  -0.001786   0.471065  -0.003791
 142   7   4.020596   5.542511   7.115740  -0.001376   0.372926  -0.003690
 143   7   5.030966   4.252693   7.386718  -0.001504   0.372926  -0.004034
 144   7   4.423086   2.951831   7.389673  -0.001779   0.451437  -0.003942
 145   8   0.364664  -1.236695   3.821373  -0.002855   0.510320  -0.005594
 146   8   1.503908  -0.694094   5.274738  -0.000785   0.372926  -0.002105
 147   8   1.555260  -2.088340   3.744661  -0.000952   0.372926  -0.002552
 148   8   0.468196  -1.196725   2.094725  -0.001042   0.392554  -0.002654
 149   8   0.657532   0.072309   4.979079  -0.002725   0.588831  -0.004628
 150   8   1.367967  -1.525696   4.637343  -0.001524   0.451437  -0.003376
 151   8   0.990731  -1.906184   2.748142  -0.001350   0.431809  -0.003126
 152   8  -0.020389  -0.367734   2.297571  -0.001711   0.431809  -0.003963
 153   8  -0.109939  -0.253159   3.686013  -0.002716   0.451437  -0.006017
 154   9   4.134547   0.085461  -1.918897  -0.001881   0.372926  -0.005045
 155   9   2.519303   0.036614  -1.267480  -0.000710   0.353299  -0.002010
 156   9   4.104263  -1.183130  -1.034337  -0.000935   0.412182  -0.002269
 157   9   5.104336   0.302311  -1.763950  -0.002081   0.372926  -0.005580
 158   9   4.252022   1.370768  -1.946169  -0.002330   0.392554  -0.005936
 159   9   3.088724   0.888261  -1.789616  -0.002119   0.431809  -0.004907
 160   9   3.274449  -0.583187  -1.419458  -0.001459   0.431809  -0.003378
 161   9   5.196238  -0.771848  -1.132722  -0.001434   0.451437  -0.003177
 162  10   6.920856  -1.538838   4.656988  -0.002301   0.431809  -0.005328
 163  10   6.977962  -1.848964   2.616388  -0.001021   0.372926  -0.002738
 164  10   5.711281  -2.055108   4.661097  -0.000887   0.372926  -0.002379
 165  10   6.237552  -0.357266   5.665941  -0.000968   0.372926  -0.002595
 166  10   7.630116  -0.711934   4.412189  -0.002109   0.353299  -0.005970
 167  10   7.474269  -1.497442   3.514991  -0.002226   0.412182  -0.005401
 168  10   6.282166  -2.318910   3.604322  -0.001519   0.490692  -0.003095
 169  10   5.940473  -1.296346   5.381595  -0.001088   0.372926  -0.002918
 170  10   7.082763  -0.021818   5.251060  -0.001838   0.412182  -0.004459
 171  11   1.475607   5.436306  -2.415022  -0.002089   0.412182  -0.005068
 172  11   2.634811   6.643263  -1.723143  -0.000857   0.333671  -0.002570
 173  11   0.869941   6.538191  -1.791890  -0.000885   0.372926  -0.002373
 174  11   0.132121   4.447244  -1.696340  -0.000666   0.333671  -0.001996
 175  11   0.890393   3.599478  -1.709124  -0.001142   0.333671  -0.003421
 176  11   2.820552   5.495735  -2.186167  -0.002543   0.490692  -0.005182
 177  11   1.789736   6.553503  -1.994364  -0.001016   0.333671  -0.003045
 178  11   0.239736   5.567440  -1.865425  -0.001268   0.431809  -0.002936
 179  11   1.099965   4.378347  -2.238567  -0.001496   0.333671  -0.004483
 180  11   2.286509   4.339484  -2.266310  -0.002679   0.431809  -0.006204
 181  12  -2.287645   3.748626   3.381779  -0.002604   0.471065  -0.005528
 182  12  -1.742530   4.994016   4.297322  -0.000852   0.372926  -0.002285
 183  12  -0.780691   3.472253   4.871121  -0.001339   0.372926  -0.003592
 184  12  -1.676706   2.834496   1.704290  -0.001191   0.392554  -0.003034
 185  12  -2.378756   4.833128   2.381145  -0.000937   0.372926  -0.002513
 186  12  -1.502880   4.140135   4.636382  -0.001376   0.392554  -0.003505
 187  12  -1.534180   2.937845   4.028249  -0.002501   0.431809  -0.005792
 188  12  -1.834728   2.694469   2.785538  -0.002370   0.431809  -0.005489
 189  12  -2.247164   3.857110   1.834035  -0.001431   0.471065  -0.003037
 190  12  -2.251882   5.021433   3.385447  -0.001144   0.372926  -0.003067
 191  13   1.127900   9.340755   3.641775  -0.002527   0.471065  -0.005364
 192  13   1.149889   8.343213   4.713129  -0.000976   0.392554  -0.002487
 193  13  -0.019819   8.909637   2.958166  -0.001270   0.412182  -0.003081
 194  13   1.441409   9.307272   1.415828  -0.000881   0.353299  -0.002493
 195  13   2.473968   9.349269   1.773024  -0.001572   0.412182  -0.003813
 196  13   2.184452   8.680207   4.499680  -0.002197   0.471065  -0.004663
 197  13   0.210990   8.547224   4.023472  -0.001050   0.392554  -0.002675
 198  13   0.451760   9.205107   1.988223  -0.001307   0.412182  -0.003170
 199  13   1.523749   9.630008   2.566575  -0.001954   0.372926  -0.005240
 200  13   2.389167   9.422265   3.337988  -0.002530   0.412182  -0.006137
 201  14  12.004615   6.665697   0.235910  -0.004920   0.608459  -0.008086
 202  14  11.545819   6.788558   2.049587  -0.001850   0.412182  -0.004488
 203  14  10.425280   7.685853   0.526186  -0.001790   0.353299  -0.005066
 204  14  10.782391   6.521605  -1.181158  -0.001390   0.353299  -0.003935
 205  14  12.030214   4.883293  -0.612056  -0.001639   0.333671  -0.004913
 206  14  12.448383   4.922447   1.285294  -0.001308   0.333671  -0.003920
 207  14  11.148087   7.434680   1.237682  -0.003059   0.490692  -0.006234
 208  14  10.808475   7.259548  -0.429308  -0.002757   0.490692  -0.005618
 209  14  11.620458   5.815859  -1.012891  -0.003019   0.510320  -0.005917
 210  14  12.460409   5.236479   0.268912  -0.003102   0.490692  -0.006322
 211  14  12.249830   6.012538   1.650693  -0.003194   0.549575  -0.005811
 212  15   8.845773  -0.056568  -0.173010  -0.003563   0.412182  -0.008645
 213  15   9.791587   0.321761   1.588571  -0.001040   0.235532  -0.004417
 214  15  10.281085   0.691559   0.018732  -0.001422   0.294415  -0.004831
 215  15   8.965221   1.192482  -1.468383  -0.000824   0.255160  -0.003231
 216  15   9.218880  -0.131329   0.892949  -0.001973   0.235532  -0.008375
 217  15  10.008256   0.284129   0.703362  -0.001658   0.294415  -0.005632
 218  15   9.674931   0.687974  -0.799741  -0.002492   0.431809  -0.005770
 219  15   8.369119   0.652873  -1.186471  -0.002822   0.372926  -0.007567
 220   1   4.915603   7.408700   5.058769  -0.000118   0.019198  -0.006128
 221   2   4.508759   7.148011   5.155759  -0.000105   0.019198  -0.005460
 222   6   5.051348   7.649038   4.940786  -0.000153   0.019198  -0.007953
 223   1   6.740801   3.647710   5.988551   0.000103   0.031258   0.003305
 224   2   6.342025   3.406719   6.150121   0.000014   0.031258   0.000438
 225   7   6.126096   3.489489   6.348854  -0.000045   0.031258  -0.001440
 226   1   4.941694   6.720810   5.646359  -0.000091   0.031258  -0.002915
 227   2   4.520864   6.517488   5.803734  -0.000090   0.031258  -0.002889
 228   7   4.466555   6.324191   6.033207  -0.000101   0.031258  -0.003229
 229   1   7.125036   2.507060   5.224437   0.000358   0.103792   0.003450
 230   2   6.726236   2.261065   5.386292   0.000133   0.103792   0.001282
 231  10   6.819971   1.535039   5.174335   0.000015   0.103792   0.000143
 232   2   6.640448   2.882449   5.783081   0.000272   0.163321   0.001664
 233   1   7.183184   3.370104   5.704144   0.000655   0.163321   0.004009
 234   2   4.423527   6.787639   5.573574  -0.000113   0.101279  -0.001117
 235   1   4.958358   7.186964   5.310686  -0.000194   0.101279  -0.001917
 236   1   4.891318   8.410082   1.166902   0.000000   0.062769   0.000007
 237   4   4.069383   8.339358   1.137574   0.000071   0.062769   0.001124
 238   6   5.010677   8.567392   1.395118  -0.000223   0.062769  -0.003554
 239   1   4.474561   6.871525  -0.617393   0.000352   0.062516   0.005636
 240   4   3.662116   6.928465  -0.751767   0.000150   0.062516   0.002407
 241  11   3.533468   6.748604  -0.961336  -0.000002   0.062516  -0.000029
 242   4   3.686103   7.902728   0.249453   0.001026   0.592082   0.001733
 243   1   4.884623   7.621811   0.013064   0.001464   0.592082   0.002473
 244   1   8.377827   8.227489   1.312147  -0.000043   0.012602  -0.003450
 245   5   8.701895   8.020485   1.120204  -0.000015   0.012602  -0.001154
 246   6   8.239090   8.398740   1.515876  -0.000072   0.012602  -0.005687
 247   1   9.131310   7.788354   2.954108  -0.000036   0.012602  -0.002853
 248   5   9.446694   7.586411   2.743241  -0.000015   0.012602  -0.001177
 249   6   8.925096   7.998931   3.010793  -0.000054   0.012602  -0.004246
 250   1   7.780347   2.458177   4.855048   0.001044   0.128717   0.008113
 251   5   8.120512   2.285371   4.646074   0.001257   0.128717   0.009767
 252  10   7.426310   1.505433   4.772265   0.000389   0.128717   0.003024
 253   1   5.339390   5.719312  -1.176692   0.001030   0.084471   0.012197
 254   5   5.696664   5.521257  -1.311896   0.001501   0.084471   0.017774
 255  11   4.344984   5.606168  -1.283670   0.000460   0.084471   0.005447
 256   5   6.602058   6.058805  -1.416191   0.003190   0.223218   0.014292
 257   5   8.038497   7.417409  -0.172604   0.002745   0.467233   0.005875
 258   1   6.667907   6.886984  -0.700388   0.005577   0.467233   0.011936
 259   1   8.110642   8.060980   0.712384   0.000323   0.223218   0.001446
 260   5   9.828720   7.183953   3.032698   0.000290   0.176580   0.001641
 261   5   9.820529   5.742935   4.257098   0.003572   0.359683   0.009931
 262   5   9.080719   3.634105   4.827344   0.005265   0.359683   0.014638
 263   1   9.370738   6.906465   3.819311   0.001324   0.359683   0.003681
 264   1   9.067200   4.945417   4.994820   0.004715   0.359683   0.013108
 265   1   8.267855   3.236404   5.121611   0.002136   0.176580   0.012096
 266   6   7.838617   8.682176   1.521896  -0.000274   0.068922  -0.003968
 267   6   6.773526   8.802408   1.200012  -0.000496   0.153449  -0.003232
 268   6   5.662835   8.809421   1.337127  -0.000262   0.068922  -0.003794
 269   1   7.529700   8.468194   1.057955  -0.000415   0.150635  -0.002758
 270   1   6.018455   8.556575   0.929619  -0.000336   0.150635  -0.002233
 271   6   5.502808   7.891162   5.028598  -0.000370   0.066654  -0.005545
 272   6   6.562434   7.798635   5.240634  -0.000583   0.147366  -0.003957
 273   6   7.810079   7.853487   4.836061  -0.000473   0.147366  -0.003207
 274   6   8.569612   8.086840   3.791091  -0.000656   0.147366  -0.004452
 275   1   5.812750   7.470509   5.298130  -0.000655   0.146663  -0.004466
 276   1   7.286742   7.416987   5.292772  -0.000289   0.146663  -0.001969
 277   1   8.474477   7.587530   4.435014  -0.000203   0.146663  -0.001386
 278   1   8.965485   7.835462   3.371733  -0.000171   0.081432  -0.002105
 279   7   5.975620   3.830169   6.592374  -0.000372   0.177747  -0.002095
 280   7   5.487768   5.072589   6.673027  -0.001453   0.362857  -0.004003
 281   7   4.663122   6.072077   6.342736  -0.000501   0.177747  -0.002816
 282   1   6.726306   4.657423   6.185620   0.000616   0.488746   0.001261
 283   1   5.787990   6.260183   6.007152  -0.000213   0.488746  -0.000436
 284  10   7.111855   1.073349   5.132047  -0.000028   0.086714  -0.000321
 285   1   7.531776   2.512893   5.236131   0.000596   0.123422   0.004829
 286  11   3.561367   6.347213  -1.350402  -0.000130   0.311736  -0.000417
 287   1   5.040056   6.338101  -1.080746   0.002691   0.442795   0.006078
 288   2   5.489749   2.050548   6.181924  -0.000018   0.029757  -0.000613
 289   3   5.462402   1.578208   6.025891   0.000040   0.029757   0.001334
 290   7   5.328388   2.220341   6.377003  -0.000047   0.029757  -0.001574
 291   2   2.067961   2.168916   5.943495  -0.000031   0.029757  -0.001047
 292   3   2.084111   1.695071   5.790493   0.000017   0.029757   0.000569
 293   7   2.212035   2.328143   6.159857  -0.000063   0.029757  -0.002113
 294   2   1.722196   1.814653   5.549708  -0.000014   0.027019  -0.000508
 295   3   1.688921   1.325271   5.462994  -0.000023   0.027019  -0.000856
 296   8   1.493201   1.127362   5.344719  -0.000050   0.027019  -0.001838
 297   2   5.910207   1.672031   5.807306   0.000007   0.024733   0.000269
 298   3   5.922777   1.181105   5.724291  -0.000009   0.024733  -0.000364
 299  10   6.104669   0.956183   5.636313  -0.000041   0.024733  -0.001657
 300   3   5.748623   1.273978   5.871858   0.000088   0.053504   0.001648
 301   2   5.703620   1.960244   6.074329   0.000062   0.053504   0.001168
 302   3   1.874292   1.396079   5.649553   0.000065   0.042467   0.001523
 303   2   1.844851   2.096603   5.793959   0.000031   0.042467   0.000736
 304   2   1.331386   3.510260   5.800398  -0.000039   0.030779  -0.001256
 305   4   0.958180   3.757337   5.576113   0.000016   0.030779   0.000531
 306   7   1.522120   3.584402   6.026388  -0.000062   0.030779  -0.002011
 307   2   3.163763   6.509838   5.707494  -0.000039   0.030779  -0.001281
 308   4   2.767404   6.719015   5.484383   0.000010   0.030779   0.000335
 309   7   3.191205   6.316673   5.941764  -0.000067   0.030779  -0.002189
 310   2   0.889043   3.386676   5.405280  -0.000021   0.026877  -0.000765
 311   4   0.470125   3.611081   5.248228  -0.000028   0.026877  -0.001050
 312  12   0.205265   3.540308   5.119428  -0.000063   0.026877  -0.002332
 313   2   3.081139   6.966236   5.270744  -0.000027   0.025044  -0.001095
 314   4   2.686423   7.230326   5.112886  -0.000035   0.025044  -0.001389
 315  13   2.609501   7.489077   4.975843  -0.000056   0.025044  -0.002246
 316   4   0.598851   3.697139   5.395898   0.000056   0.035917   0.001552
 317   2   1.179659   3.394173   5.691654   0.000024   0.035917   0.000657
 318   4   2.637128   7.042771   5.303623   0.000047   0.043795   0.001062
 319   2   3.238032   6.735216   5.552257   0.000018   0.043795   0.000402
 320   2   3.969933   7.280873   4.913836  -0.000499   0.173895  -0.002869
 321   6   4.536631   7.738290   4.652003  -0.000830   0.173895  -0.004774
 322  13   3.454874   7.745872   4.584457  -0.000508   0.173895  -0.002923
 323   6   5.070165   7.856109   4.873921  -0.000165   0.027079  -0.006088
 324   2   4.255838   7.147636   5.253800   0.000020   0.038155   0.000534
 325   7   5.535003   2.829849   6.593245  -0.000304   0.105994  -0.002867
 326   2   5.908503   2.856325   6.276915  -0.000199   0.129495  -0.001540
 327   7   3.914659   6.204185   6.241370  -0.000278   0.085306  -0.003264
 328   2   3.750508   6.450250   5.873102  -0.000222   0.104220  -0.002135
 329   7   1.909178   3.140657   6.327249  -0.000309   0.100650  -0.003067
 330   2   1.800834   2.794014   6.005415  -0.000237   0.122966  -0.001926
 331   2   1.003854   2.393206   5.072737  -0.000162   0.167971  -0.000963
 332   8   0.846784   1.689183   4.841773  -0.000344   0.167971  -0.002048
 333  12   0.348837   2.613187   4.752961  -0.000313   0.167971  -0.001861
 334   8   1.202866   1.080181   5.215104  -0.000206   0.112259  -0.001833
 335   2   1.394846   2.153090   5.495232   0.000146   0.158280   0.000920
 336  10   6.568537   0.939801   5.434173  -0.000252   0.148118  -0.001702
 337   2   6.237265   1.969868   5.794072   0.000317   0.208670   0.001519
 338  12   0.005968   3.195090   4.957150  -0.000260   0.116432  -0.002229
 339   2   0.996665   3.011224   5.471493   0.000155   0.164115   0.000942
 340  13   2.707829   7.755764   4.855800  -0.000236   0.107043  -0.002209
 341   2   3.520313   7.080640   5.283602   0.000080   0.150830   0.000533
 342   3   0.360490   0.906941   1.294521   0.000109   0.067015   0.001634
 343   4   0.034015   1.669555   1.254372   0.000167   0.067015   0.002498
 344   8   0.267364   0.758879   1.543310  -0.000086   0.067015  -0.001288
 345   3   1.424651   1.906625  -0.489123   0.000193   0.063992   0.003009
 346   4   0.988931   2.599718  -0.627692   0.000101   0.063992   0.001572
 347  11   1.086566   2.785015  -0.849091  -0.000089   0.063992  -0.001385
 348   4   0.429529   2.260566   0.044165   0.001314   0.566844   0.002319
 349   3   0.761784   1.130055   0.471291   0.001340   0.566844   0.002363
 350   7   2.519861   2.301131   6.448499  -0.000286   0.170299  -0.001678
 351   7   3.731894   2.081979   6.722894  -0.001115   0.346423  -0.003218
 352   7   4.982425   2.215945   6.620089  -0.000270   0.170299  -0.001584
 353   3   2.857863   1.203684   6.113298   0.000477   0.469391   0.001016
 354   3   4.619452   1.142747   6.236045   0.000509   0.469391   0.001085
 355   8   0.351253   0.057857   1.531114  -0.000081   0.071230  -0.001139
 356   8   0.849517  -0.975400   1.522229  -0.000257   0.159290  -0.001616
 357   8   1.564533  -1.941048   2.210555  -0.000363   0.159290  -0.002280
 358   8   2.128039  -2.187048   3.451305  -0.000399   0.159290  -0.002507
 359   8   2.291411  -1.604863   4.697053  -0.000242   0.159290  -0.001519
 360   8   1.982569  -0.451357   5.398164  -0.000405   0.159290  -0.002545
 361   8   1.482754   0.581183   5.401743  -0.000130   0.071230  -0.001823
 362   3   0.736871  -0.213675   1.149656   0.000057   0.155068   0.000369
 363   3   1.490614  -1.538243   1.459549  -0.000016   0.155068  -0.000106
 364   3   2.251769  -2.259585   2.608005  -0.000144   0.155068  -0.000928
 365   3   2.684509  -2.059441   4.088317  -0.000035   0.155068  -0.000227
 366   3   2.597905  -1.026115   5.247359  -0.000048   0.155068  -0.000306
 367   3   2.030167   0.384482   5.573755  -0.000265   0.155068  -0.001709
 368   3   1.734094   1.499294  -0.606728   0.000118   0.088703   0.001331
 369   9   1.955031   1.444837  -0.811791  -0.000067   0.088703  -0.000755
 370  11   1.488238   2.445591  -0.847586   0.000117   0.088703   0.001324
 371   3   6.391438  -0.538105  -0.082817   0.000087   0.082747   0.001056
 372   9   6.248225  -0.436833  -0.333650  -0.000062   0.082747  -0.000749
 373  15   7.188954  -0.063135  -0.230426  -0.000286   0.082747  -0.003459
 374   9   5.686790  -0.890862  -0.448939  -0.000063   0.069048  -0.000906
 375   9   4.686466  -1.375479  -0.454043  -0.000298   0.153198  -0.001948
 376   9   3.350791  -1.264313  -0.554011  -0.000293   0.153198  -0.001913
 377   9   2.364755  -0.367717  -0.727876  -0.000219   0.153198  -0.001429
 378   9   2.049998   0.687723  -0.877879  -0.000099   0.069048  -0.001434
 379   3   5.428741  -1.283008  -0.078636  -0.000073   0.151466  -0.000480
 380   3   3.963568  -1.644152  -0.128947  -0.000111   0.151466  -0.000734
 381   3   2.586588  -1.046460  -0.291354  -0.000018   0.151466  -0.000119
 382   3   1.865405   0.263693  -0.498912   0.000002   0.151466   0.000015
 383   3   7.096355  -0.966900   1.408266   0.000098   0.082840   0.001188
 384  10   7.216262  -1.007256   1.686144  -0.000091   0.082840  -0.001099
 385  15   7.833542  -0.456062   1.126813  -0.000237   0.082840  -0.002855
 386  10   6.054080   0.415077   5.704046  -0.000126   0.071794  -0.001762
 387  10   5.431507  -0.557668   5.664740  -0.000354   0.160836  -0.002202
 388  10   5.073148  -1.701140   4.951786  -0.000249   0.160836  -0.001546
 389  10   5.325270  -2.344458   3.740659  -0.000359   0.160836  -0.002234
 390  10   6.074924  -2.199416   2.573940  -0.000390   0.160836  -0.002424
 391  10   6.831432  -1.568422   1.969857  -0.000120   0.071794  -0.001669
 392   3   5.468066   0.288985   5.810875  -0.000224   0.156033  -0.001434
 393   3   4.772889  -1.066518   5.448388   0.000036   0.156033   0.000233
 394   3   4.709586  -2.131214   4.301884   0.000013   0.156033   0.000082
 395   3   5.306515  -2.428122   2.884994  -0.000148   0.156033  -0.000950
 396   3   6.296255  -1.824229   1.832481  -0.000158   0.156033  -0.001015
 397  11   1.073893   2.845861  -1.066374   0.000007   0.006035   0.001132
 398   3   1.497378   1.487890  -0.636220   0.000073   0.008581   0.008457
 399  15   8.053583  -0.250382   0.351661  -0.002287   0.336915  -0.006788
 400   3   6.784416  -0.850059   0.473238   0.001136   0.475368   0.002391
 401   4   3.583420   8.477145   1.217998   0.000011   0.088925   0.000129
 402   6   4.523186   8.566029   1.552938  -0.000091   0.088925  -0.001027
 403  13   3.452852   8.646924   1.436530  -0.000141   0.088925  -0.001583
 404   4   3.692101   8.550547   1.024724   0.000056   0.006979   0.007982
 405   7   2.964053   6.071192   6.216667  -0.000364   0.174746  -0.002081
 406   7   2.122729   5.106911   6.418935  -0.001184   0.355925  -0.003325
 407   7   1.644174   3.910565   6.283587  -0.000316   0.174746  -0.001806
 408   4   1.898660   6.283502   5.710438   0.000439   0.481099   0.000913
 409   4   0.954729   4.738299   5.758297   0.000444   0.481099   0.000924
 410   4  -0.324474   2.036729   1.350774   0.000058   0.087311   0.000668
 411   8   0.028487   1.192118   1.709065   0.000083   0.087311   0.000949
 412  12  -0.527553   2.072253   1.576944  -0.000163   0.087311  -0.001863
 413   8   0.122027   0.618227   1.641140   0.000021   0.009790   0.002162
 414   4  -0.331093   1.905658   1.148963   0.000093   0.013885   0.006664
 415  11   0.637566   3.259604  -1.120723  -0.000097   0.071419  -0.001357
 416  11  -0.081671   4.151537  -1.167263  -0.000254   0.159590  -0.001594
 417  11  -0.249343   5.524516  -1.224394  -0.000333   0.159590  -0.002088
 418  11   0.479455   6.700970  -1.259873  -0.000376   0.159590  -0.002358
 419  11   1.784237   7.163561  -1.258098  -0.000232   0.159590  -0.001455
 420  11   2.904135   6.918393  -1.231063  -0.000083   0.071419  -0.001169
 421   4   0.146341   3.413656  -0.798352   0.000060   0.155610   0.000387
 422   4  -0.542978   4.805724  -0.864298   0.000010   0.155610   0.000061
 423   4  -0.208982   6.323212  -0.919422  -0.000121   0.155610  -0.000778
 424   4   1.001457   7.298814  -0.939484  -0.000022   0.155610  -0.000143
 425   4   2.556055   7.303513  -0.915661  -0.000029   0.155610  -0.000189
 426  12  -0.257311   3.838912   5.096082  -0.000125   0.071659  -0.001742
 427  12  -0.829613   4.818473   4.896529  -0.000350   0.160352  -0.002180
 428  12  -1.557787   5.596514   4.003715  -0.000304   0.160352  -0.001897
 429  12  -2.036964   5.582642   2.698764  -0.000369   0.160352  -0.002299
 430  12  -2.054177   4.783022   1.561656  -0.000387   0.160352  -0.002413
 431  12  -1.601775   3.553044   1.097775  -0.000236   0.160352  -0.001474
 432  12  -1.025794   2.579511   1.315422  -0.000133   0.071659  -0.001853
 433   4  -0.124811   4.425369   5.188847  -0.000293   0.155914  -0.001878
 434   4  -0.947747   5.617863   4.607141  -0.000052   0.155914  -0.000336
 435   4  -1.666837   6.072997   3.298167  -0.000090   0.155914  -0.000578
 436   4  -1.962483   5.588487   1.843693  -0.000149   0.155914  -0.000953
 437   4  -1.703288   4.379673   0.890155  -0.000103   0.155914  -0.000660
 438   4  -1.004448   2.983806   0.861349  -0.000076   0.155914  -0.000489
 439  13   2.776096   8.846917   1.175225  -0.000103   0.067412  -0.001530
 440  13   1.717485   8.891567   0.926981  -0.000234   0.148921  -0.001568
 441  13   0.457042   8.758600   1.285470  -0.000338   0.148921  -0.002272
 442  13  -0.327169   8.451174   2.298098  -0.000362   0.148921  -0.002433
 443  13  -0.325456   8.090694   3.564969  -0.000286   0.148921  -0.001921
 444  13   0.461505   7.819516   4.585786  -0.000294   0.148921  -0.001974
 445  13   1.722935   7.744731   4.957421  -0.000447   0.148921  -0.003001
 446   4   2.468534   8.619384   0.724297  -0.000013   0.148489  -0.000089
 447   4   0.989519   8.596326   0.677708  -0.000002   0.148489  -0.000016
 448   4  -0.220421   8.335720   1.489077  -0.000149   0.148489  -0.001000
 449   4  -0.683470   7.940481   2.837988  -0.000129   0.148489  -0.000866
 450   4  -0.216767   7.566692   4.191746  -0.000049   0.148489  -0.000333
 451   4   0.995384   7.361966   5.015740  -0.000170   0.148489  -0.001146
 452   4   2.190641   7.357466   5.134686  -0.000091   0.082359  -0.001110
 453   5   9.619326   7.656148   2.113536  -0.000064   0.014296  -0.004449
 454   6   9.051516   7.979184   2.405072  -0.000080   0.014296  -0.005570
 455  14   9.855885   7.597439   1.943060  -0.000097   0.014296  -0.006795
 456   5   9.291944   7.849850   1.394917  -0.000060   0.014296  -0.004164
 457   6   8.762720   8.150056   1.771150  -0.000082   0.014296  -0.005717
 458  14   9.561870   7.771399   1.297682  -0.000088   0.014296  -0.006144
 459   6   8.803152   8.218374   2.903454  -0.000343   0.089082  -0.003850
 460   5   9.595253   7.692554   2.405201   0.000042   0.126028   0.000335
 461   6   8.336739   8.516112   1.840617  -0.000387   0.092502  -0.004187
 462   5   9.017805   8.008316   1.184102   0.000088   0.130864   0.000676
 463   5   5.270204   3.526165  -1.315174   0.002981   0.371598   0.008023
 464   9   4.469893   2.802458  -1.322421  -0.000235   0.371598  -0.000632
 465  11   3.925456   3.780622  -1.350837   0.000265   0.371598   0.000712
 466   5   7.155112   1.740630  -1.488181   0.000068   0.089524   0.000763
 467   9   6.260649   1.181920  -1.350612   0.000012   0.089524   0.000129
 468  15   7.235570   1.469448  -1.384371  -0.000250   0.089524  -0.002793
 469   9   4.915644   2.069227  -1.670905  -0.000460   0.266005  -0.001728
 470   9   5.579569   1.222765  -1.662649  -0.000554   0.266005  -0.002082
 471   5   6.468245   2.602462  -1.763860   0.003642   0.750245   0.004854
 472   5   9.116984   0.633645   2.693975   0.000025   0.087582   0.000282
 473  10   8.325104   0.022270   3.013969  -0.000048   0.087582  -0.000546
 474  15   9.043526   0.449049   2.467608  -0.000268   0.087582  -0.003062
 475  10   8.110987  -0.224882   3.641470  -0.000524   0.223338  -0.002344
 476  10   7.730378   0.482889   4.528275  -0.000934   0.449355  -0.002079
 477   5   9.080329   1.053842   3.598122   0.002756   0.630871   0.004369
 478   5   8.561432   1.891330   4.552629   0.002236   0.318902   0.007011
 479  11   3.785834   5.389493  -1.751465   0.000113   0.252568   0.000447
 480  11   3.672227   4.540606  -1.800424  -0.000086   0.252568  -0.000339
 481   5   5.711967   4.697899  -1.745193   0.006299   0.751692   0.008379
 482  14  10.422307   7.414941   1.953938  -0.000292   0.067894  -0.004307
 483  14  11.064359   6.677372   2.481013  -0.000529   0.151130  -0.003500
 484  14  11.806889   5.559408   2.437004  -0.000353   0.151130  -0.002337
 485  14  12.228568   4.596099   1.601928  -0.000596   0.151130  -0.003947
 486  14  12.153383   4.189542   0.324356  -0.000733   0.151130  -0.004850
 487  14  11.612716   4.509439  -0.862436  -0.000820   0.151130  -0.005425
 488  14  10.832249   5.422262  -1.463066  -0.000553   0.151130  -0.003660
 489  14  10.137759   6.546985  -1.226824  -0.000467   0.151130  -0.003090
 490  14   9.819135   7.414136  -0.252319  -0.000506   0.151130  -0.003351
 491  14   9.901884   7.722860   0.811583  -0.000281   0.067894  -0.004145
 492   5  10.357122   7.116627   2.461833  -0.000463   0.148371  -0.003121
 493   5  11.244966   5.974793   2.889988  -0.000075   0.148371  -0.000507
 494   5  11.935913   4.739577   2.368259  -0.000237   0.148371  -0.001595
 495   5  12.141554   3.926574   1.114422  -0.000533   0.148371  -0.003589
 496   5  11.776051   3.875142  -0.348154  -0.000604   0.148371  -0.004069
 497   5  10.991971   4.606750  -1.408973  -0.000494   0.148371  -0.003328
 498   5  10.116597   5.816014  -1.625233  -0.000275   0.148371  -0.001852
 499   5   9.515323   6.998173  -0.906667  -0.000107   0.148371  -0.000724
 500   5   9.439128   7.659778   0.446789  -0.000421   0.148371  -0.002835
 501  15   7.944351   1.575742  -1.595810  -0.000233   0.070715  -0.003294
 502  15   9.096186   1.585394  -1.513479  -0.000765   0.158918  -0.004816
 503  15  10.219899   1.395365  -0.712419  -0.000891   0.158918  -0.005608
 504  15  10.567908   1.044736   0.590074  -0.000844   0.158918  -0.005312
 505  15   9.982586   0.692318   1.804051  -0.000731   0.158918  -0.004602
 506   5   8.371611   1.971872  -1.755858  -0.000397   0.153131  -0.002591
 507   5   9.870699   1.892341  -1.315906  -0.000615   0.153131  -0.004018
 508   5  10.748226   1.569969  -0.061645  -0.000655   0.153131  -0.004280
 509   5  10.606726   1.150771   1.438821  -0.000456   0.153131  -0.002977
 510   5   9.843033   0.858752   2.416386  -0.000074   0.086394  -0.000852
 511  13   3.237745   8.356494   4.468806  -0.000192   0.258211  -0.000742
 512  13   3.300873   9.038099   3.539710  -0.001115   0.516315  -0.002160
 513  13   3.389795   9.123816   2.139890  -0.000606   0.516315  -0.001173
 514   6   4.801812   8.631941   4.229279  -0.001613   0.516315  -0.003125
 515   6   4.886601   9.195373   2.944714  -0.001622   0.516315  -0.003141
 516   6   4.957201   9.013502   1.807293  -0.000173   0.258211  -0.000671
 517  14   9.858160   7.826469   1.508263  -0.000128   0.240470  -0.000533
 518   6   8.798169   8.385469   2.306618  -0.000246   0.240470  -0.001022
 519  12  -0.867329   1.937991   1.871943   0.000124   0.257108   0.000481
 520  12  -1.044115   1.953748   3.034235  -0.000927   0.514218  -0.001803
 521  12  -0.546479   2.344728   4.317211  -0.000886   0.514218  -0.001722
 522   8  -0.253556   0.613375   2.438210  -0.000553   0.514218  -0.001075
 523   8  -0.190050   0.783250   3.857239  -0.001061   0.514218  -0.002062
 524   8   0.418392   1.198928   4.773446  -0.000130   0.257108  -0.000507
 525  11   3.142716   3.754898  -1.871903  -0.000218   0.238814  -0.000912
 526  11   2.214421   3.256641  -1.822367  -0.000404   0.477396  -0.000846
 527  11   1.359545   2.838554  -1.367577   0.000220   0.238814   0.000920
 528   9   3.539958   2.177820  -1.740823  -0.000452   0.477396  -0.000946
 529   9   2.426792   1.605782  -1.425991   0.000039   0.477396   0.000081
 530  15   7.581035   0.166618  -0.725604  -0.000926   0.292107  -0.003169
 531  15   7.358466   0.972492  -1.348834  -0.000319   0.292107  -0.001091
 532   9   6.082258   0.140927  -1.095960  -0.000882   0.584832  -0.001509
 533  15   8.995419   0.038600   2.132773  -0.000523   0.306546  -0.001705
 534  15   8.507094  -0.384416   1.232417  -0.000956   0.306546  -0.003119
 535  10   7.796733  -0.834276   2.511030  -0.001402   0.614231  -0.002283
 =====================================================

              2237642  WORDS OF DYNAMIC MEMORY USED
 EXECUTION OF GAMESS TERMINATED NORMALLY Wed Nov 23 11:49:34 2016
 DDI: 263640 bytes (0.3 MB / 0 MWords) used by master data server.

 ----------------------------------------
 CPU timing information for all processes
 ========================================
 0: 545.156 + 0.260 = 545.416
 ----------------------------------------
 ddikick.x: exited gracefully.
