----- GAMESS execution script -----

          ******************************************************
          *         GAMESS VERSION =  5 DEC 2014 (R1)          *
          *             FROM IOWA STATE UNIVERSITY             *
          * M.W.SCHMIDT, K.K.BALDRIDGE, J.A.BOATZ, S.T.ELBERT, *
          *   M.S.GORDON, J.H.JENSEN, S.KOSEKI, N.MATSUNAGA,   *
          *          K.A.NGUYEN, S.J.SU, T.L.WINDUS,           *
          *       TOGETHER WITH M.DUPUIS, J.A.MONTGOMERY       *
          *         J.COMPUT.CHEM.  14, 1347-1363(1993)        *
          **************** 64 BIT LINUX VERSION ****************

 EXECUTION OF GAMESS BEGUN Wed Nov 23 12:48:00 2016

            ECHO OF THE FIRST FEW INPUT CARDS -
 INPUT CARD>! SELECT RESTRICTED HARTREE-FOCK AS DEFAULT                                     
 INPUT CARD>$contrl scftyp=rhf $end                                                         
 INPUT CARD>                                                                                
 INPUT CARD>! THEORY: HF OR DFT                                                             
 INPUT CARD> $contrl mplevl=0 $end                                                          
 INPUT CARD>                                                                                
 INPUT CARD> $system timlim=10000 mwords=20 $end                                            
 INPUT CARD> $SCF DIRSCF=.TRUE. $end                                                        
 INPUT CARD>                                                                                
 INPUT CARD>                                                                                
 INPUT CARD>! BASIS SETS                                                                    
 INPUT CARD>! 6-311G(d,p)                                                                   
 INPUT CARD> $BASIS GBASIS=N311 NGAUSS=6 NDFUNC=1 NPFUNC=1 $END                             
 INPUT CARD>                                                                                
 INPUT CARD>! One of the following                                                          
 INPUT CARD> $guess guess=HUCKEL $end                                                       
 INPUT CARD>                                                                                
 INPUT CARD> $statpt projct=.FALSE. $end                                                    
 INPUT CARD> $STATPT IFREEZ(1)=1,2,3 $END                                                   
 INPUT CARD>                                                                                
 INPUT CARD>! Optimize the geometry with COSMO effects                                      
 INPUT CARD> $statpt opttol=0.0005 nstep=50 $end                                            
 INPUT CARD> $contrl nzvar=1 $end                                                           
 INPUT CARD> $zmat dlc=.t. auto=.t. $end                                                    
 INPUT CARD> $contrl runtyp=OPTIMIZE maxit=200 $end                                         
 INPUT CARD>                                                                                
 INPUT CARD>! Run COSMO on perfect conductor                                                
 INPUT CARD> $COSGMS PRFCND=.TRUE. $end                                                     
 INPUT CARD>                                                                                
 INPUT CARD>! Specifying RSOLV                                                              
 INPUT CARD> $COSGMS COSRAD = 1.4 $end                                                      
 INPUT CARD>                                                                                
 INPUT CARD>! available memory                                                              
 INPUT CARD> $SYSTEM MWORDS=40 $END                                                         
 INPUT CARD>                                                                                
 INPUT CARD> $DATA                                                                          
 INPUT CARD>4-Heptanone, ID: C123193                                                        
 INPUT CARD>C1                                                                              
 INPUT CARD>C      6.0      2.1315000000    2.1169000000    2.0906000000                    
 INPUT CARD>C      6.0      3.2656000000    1.1818000000    1.7273000000                    
 INPUT CARD>C      6.0      4.4141000000    1.8063000000    0.9529000000                    
 INPUT CARD>O      8.0      3.2786000000    0.0000000000    2.0121000000                    
 INPUT CARD>C      6.0      0.8647000000    1.4412000000    2.5901000000                    
 INPUT CARD>C      6.0      5.1130000000    2.8974000000    1.7490000000                    
 INPUT CARD>C      6.0      0.9281000000    1.1105000000    4.0649000000                    
 INPUT CARD>C      6.0      6.3000000000    3.4502000000    0.9929000000                    
 INPUT CARD>H      1.0      1.9006000000    2.7297000000    1.1959000000                    
 INPUT CARD>H      1.0      2.5083000000    2.8306000000    2.8525000000                    
 INPUT CARD>H      1.0      5.1539000000    1.0313000000    0.6638000000                    
 INPUT CARD>H      1.0      4.0206000000    2.2133000000    0.0000000000                    
   40000000 WORDS OF MEMORY AVAILABLE

     BASIS OPTIONS
     -------------
     GBASIS=N311         IGAUSS=       6      POLAR=POPN311 
     NDFUNC=       1     NFFUNC=       0     DIFFSP=       F
     NPFUNC=       1      DIFFS=       F     BASNAM=        


     RUN TITLE
     ---------
 4-Heptanone, ID: C123193                                                        

 THE POINT GROUP OF THE MOLECULE IS C1      
 THE ORDER OF THE PRINCIPAL AXIS IS     0

 ATOM      ATOMIC                      COORDINATES (BOHR)
           CHARGE         X                   Y                   Z
 C           6.0     4.0279509428        4.0003609434        3.9506611499
 C           6.0     6.1710891855        2.2332781723        3.2641236986
 C           6.0     8.3414394824        3.4134120516        1.8007198937
 O           8.0     6.1956556233        0.0000000000        3.8023176599
 C           6.0     1.6340460616        2.7234730935        4.8945792808
 C           6.0     9.6621689752        5.4752920768        3.3051307525
 C           6.0     1.7538546892        2.0985407094        7.6815471675
 C           6.0    11.9052737226        6.5199326028        1.8763089332
 H           1.0     3.5916132123        5.1583850287        2.2599233087
 H           1.0     4.7399996950        5.3490583808        5.3904433800
 H           1.0     9.7394587681        1.9488744111        1.2544001106
 H           1.0     7.5978323062        4.1825305286        0.0000000000
 H           1.0     1.2578016174        0.9883266916        3.7858770438
 H           1.0     0.0037794520        3.9888336149        4.5374210691
 H           1.0     8.3178179076        7.0214658800        3.7446810173
 H           1.0    10.2802983458        4.7177009283        5.1559283849
 H           1.0     0.0000000000        1.1929840160        8.3178179076
 H           1.0     3.3119337661        0.7972753942        8.1091921585
 H           1.0     2.0284318752        3.7981602627        8.8403271432
 H           1.0    12.8461682919        8.0215088727        2.9530748010
 H           1.0    11.3410015427        7.3259007366        0.0495108209
 H           1.0    13.3212454052        5.0521824282        1.4921276399

          INTERNUCLEAR DISTANCES (ANGS.)




     $CONTRL OPTIONS
     ---------------
 SCFTYP=RHF          RUNTYP=OPTIMIZE     EXETYP=RUN     
 MPLEVL=       0     CITYP =NONE         CCTYP =NONE         VBTYP =NONE    
 DFTTYP=NONE         TDDFT =NONE    
 MULT  =       1     ICHARG=       0     NZVAR =       1     COORD =UNIQUE  
 PP    =NONE         RELWFN=NONE         LOCAL =NONE         NUMGRD=       F
 ISPHER=      -1     NOSYM =       0     MAXIT =     200     UNITS =ANGS    
 PLTORB=       F     MOLPLT=       F     AIMPAC=       F     FRIEND=        
 NPRINT=       7     IREST =       0     GEOM  =INPUT   
 NORMF =       0     NORMP =       0     ITOL  =      20     ICUT  =       9
 INTTYP=BEST         GRDTYP=BEST         QMTTOL= 1.0E-06

     $SYSTEM OPTIONS
     ---------------
  REPLICATED MEMORY=    40000000 WORDS (ON EVERY NODE).
 DISTRIBUTED MEMDDI=           0 MILLION WORDS IN AGGREGATE,
 MEMDDI DISTRIBUTED OVER   1 PROCESSORS IS           0 WORDS/PROCESSOR.
 TOTAL MEMORY REQUESTED ON EACH PROCESSOR=    40000000 WORDS.
 TIMLIM=       10000.00 MINUTES, OR       6.9 DAYS.
 PARALL= F  BALTYP=  DLB     KDIAG=    0  COREFL= F
 MXSEQ2=     300 MXSEQ3=     150  mem10=         0

     $COSGMS OPTIONS
     ---------------
     EPSI  =   INFTY     NSPA  =      92     COSRAD=    1.40
     DISEX =   10.00     OUTCHG=DBLCAV       COSBUG=       F
     COSWRT=       F     DCOSMO=       F

     SYMMETRY COORDINATES WILL NOT BE USED FOR 
     THE COSMO CALCULATION, EVEN IF SPECIFIED:
         -- SWITCHING TO C1 POINT GROUP --


     DEFINITION OF CAVITY
     ---------------------------
     ATOM         COORDINATES           RADIUS 
     1    4.0280    4.0004    3.9507    2.0000
     2    6.1711    2.2333    3.2641    2.0000
     3    8.3414    3.4134    1.8007    2.0000
     4    6.1957    0.0000    3.8023    1.7200
     5    1.6340    2.7235    4.8946    2.0000
     6    9.6622    5.4753    3.3051    2.0000
     7    1.7539    2.0985    7.6815    2.0000
     8   11.9053    6.5199    1.8763    2.0000
     9    3.5916    5.1584    2.2599    1.3000
    10    4.7400    5.3491    5.3904    1.3000
    11    9.7395    1.9489    1.2544    1.3000
    12    7.5978    4.1825    0.0000    1.3000
    13    1.2578    0.9883    3.7859    1.3000
    14    0.0038    3.9888    4.5374    1.3000
    15    8.3178    7.0215    3.7447    1.3000
    16   10.2803    4.7177    5.1559    1.3000
    17    0.0000    1.1930    8.3178    1.3000
    18    3.3119    0.7973    8.1092    1.3000
    19    2.0284    3.7982    8.8403    1.3000
    20   12.8462    8.0215    2.9531    1.3000
    21   11.3410    7.3259    0.0495    1.3000
    22   13.3212    5.0522    1.4921    1.3000

          ----------------
          PROPERTIES INPUT
          ----------------

     MOMENTS            FIELD           POTENTIAL          DENSITY
 IEMOM =       1   IEFLD =       0   IEPOT =       0   IEDEN =       0
 WHERE =COMASS     WHERE =NUCLEI     WHERE =NUCLEI     WHERE =NUCLEI  
 OUTPUT=BOTH       OUTPUT=BOTH       OUTPUT=BOTH       OUTPUT=BOTH    
 IEMINT=       0   IEFINT=       0                     IEDINT=       0
                                                       MORB  =       0
          EXTRAPOLATION IN EFFECT
          SOSCF IN EFFECT
 ORBITAL PRINTING OPTION: NPREO=     1   236     2     1

     -------------------------------
     INTEGRAL TRANSFORMATION OPTIONS
     -------------------------------
     NWORD  =            0
     CUTOFF = 1.0E-09     MPTRAN =       0
     DIRTRF =       T     AOINTS =DUP     

          ----------------------
          INTEGRAL INPUT OPTIONS
          ----------------------
 NOPK  =       1 NORDER=       0 SCHWRZ=       T


 -----------------------------------------------
  STATISTICS ON AUTOMATIC COORDINATE GENERATION 
 -----------------------------------------------
  NUMBER OF USER SPECIFIED BONDS                             0
  NUMBER OF BONDS                                           21
  NUMBER OF ANGLES                                          39
  NUMBER OF TORSIONS                                        48
  NUMBER OF EXTRA COORD.                                     0
  NUMBER OF EXTRA COORD. FOR CONSTRAINTS                     0
  NUMBER OF CONSTRAINED COORD.                               0

  TOTAL NUMBER OF PRIMITIVES                               108
 -----------------------------------------------

   --- ENCODED Z MATRIX ---
 COORD  TYPE   I   J   K   L   M   N
    1      1    1   5
    2      1    1   9
    3      1    1  10
    4      1    1   2
    5      1    2   4
    6      1    2   3
    7      1    3  12
    8      1    3  11
    9      1    3   6
   10      1    5  13
   11      1    5   7
   12      1    5  14
   13      1    6  16
   14      1    6  15
   15      1    6   8
   16      1    7  19
   17      1    7  18
   18      1    7  17
   19      1    8  22
   20      1    8  21
   21      1    8  20
   22      2    1   5  14
   23      2    1   5   7
   24      2    1   2   4
   25      2    1   2   3
   26      2    1   5  13
   27      2    2   3  11
   28      2    2   3   6
   29      2    2   1   5
   30      2    2   3  12
   31      2    2   1   9
   32      2    2   1  10
   33      2    3   2   4
   34      2    3   6   8
   35      2    3   6  15
   36      2    3   6  16
   37      2    5   7  17
   38      2    5   7  18
   39      2    5   7  19
   40      2    5   1  10
   41      2    5   1   9
   42      2    6   8  22
   43      2    6   3  11
   44      2    6   3  12
   45      2    6   8  20
   46      2    6   8  21
   47      2    7   5  14
   48      2    7   5  13
   49      2    8   6  15
   50      2    8   6  16
   51      2    9   1  10
   52      2   11   3  12
   53      2   13   5  14
   54      2   15   6  16
   55      2   17   7  18
   56      2   17   7  19
   57      2   18   7  19
   58      2   20   8  21
   59      2   20   8  22
   60      2   21   8  22
   61      3    1   5   7  19
   62      3    1   2   3   6
   63      3    1   5   7  17
   64      3    1   2   3  11
   65      3    1   5   7  18
   66      3    1   2   3  12
   67      3    2   1   5  14
   68      3    2   3   6   8
   69      3    2   3   6  15
   70      3    2   3   6  16
   71      3    2   1   5   7
   72      3    2   1   5  13
   73      3    3   2   1  10
   74      3    3   2   1   9
   75      3    3   2   1   5
   76      3    3   6   8  20
   77      3    3   6   8  21
   78      3    3   6   8  22
   79      3    4   2   1  10
   80      3    4   2   3   6
   81      3    4   2   3  11
   82      3    4   2   1   9
   83      3    4   2   1   5
   84      3    4   2   3  12
   85      3    7   5   1  10
   86      3    7   5   1   9
   87      3    8   6   3  11
   88      3    8   6   3  12
   89      3    9   1   5  14
   90      3    9   1   5  13
   91      3   10   1   5  13
   92      3   10   1   5  14
   93      3   11   3   6  16
   94      3   11   3   6  15
   95      3   12   3   6  16
   96      3   12   3   6  15
   97      3   13   5   7  19
   98      3   13   5   7  18
   99      3   13   5   7  17
  100      3   14   5   7  19
  101      3   14   5   7  18
  102      3   14   5   7  17
  103      3   15   6   8  21
  104      3   15   6   8  20
  105      3   15   6   8  22
  106      3   16   6   8  21
  107      3   16   6   8  20
  108      3   16   6   8  22

          INDEP./SYM. INTERNAL COORDINATES
          --------------------------------
 CRD  1=   0.1016 (  1)  0.1243 (  6)  0.2254 ( 23) -0.2043 ( 24)  0.3927 ( 25)
          -0.1858 ( 27)  0.5326 ( 28) -0.1948 ( 29) -0.1432 ( 30) -0.1893 ( 33)
          -0.2434 ( 34)  0.1120 ( 40) -0.1697 ( 43) -0.1423 ( 44) -0.1163 ( 73)
          -0.1723 ( 75)
 CRD  2=  -0.1568 ( 22)  0.3841 ( 23)  0.2113 ( 24) -0.3680 ( 25)  0.1568 ( 28)
           0.4555 ( 29) -0.1187 ( 30) -0.1718 ( 31) -0.1601 ( 32)  0.1558 ( 33)
          -0.1893 ( 41) -0.1205 ( 47) -0.1002 ( 48)  0.1596 ( 68)  0.1076 ( 70)
          -0.1349 ( 74) -0.2013 ( 75) -0.1034 ( 80) -0.1277 ( 83)
 CRD  3=   0.2385 (  1)  0.1900 (  4)  0.2935 (  6)  0.1432 (  9)  0.1250 ( 11)
           0.1568 ( 15)  0.2115 ( 23) -0.1398 ( 24)  0.3079 ( 25)  0.2105 ( 29)
          -0.1678 ( 33)  0.4769 ( 34) -0.1488 ( 35) -0.1495 ( 36) -0.1042 ( 40)
           0.1306 ( 46) -0.1152 ( 47) -0.1142 ( 49) -0.1836 ( 50) -0.1149 ( 68)
 CRD  4=   0.1384 (  6)  0.1238 (  9)  0.1327 ( 22) -0.3882 ( 23)  0.1561 ( 26)
           0.2585 ( 28)  0.2805 ( 29) -0.1301 ( 30) -0.1755 ( 31) -0.1370 ( 34)
           0.1333 ( 35)  0.1041 ( 37) -0.1423 ( 39) -0.2139 ( 40) -0.2317 ( 43)
           0.1608 ( 48)  0.2538 ( 62)  0.1380 ( 64)  0.1244 ( 66)  0.1435 ( 71)
           0.1222 ( 75)  0.1131 ( 79)  0.1996 ( 80)  0.1100 ( 82)  0.1787 ( 83)
           0.1198 ( 86)
 CRD  5=   0.1072 (  6)  0.1110 (  9) -0.2904 ( 23)  0.2143 ( 26) -0.1415 ( 27)
           0.1881 ( 28)  0.3020 ( 29) -0.2423 ( 32) -0.1505 ( 38) -0.1134 ( 41)
          -0.2020 ( 44)  0.1856 ( 47) -0.1124 ( 61) -0.2908 ( 62) -0.1553 ( 64)
          -0.1789 ( 66) -0.2138 ( 67) -0.2562 ( 71) -0.1722 ( 72) -0.1087 ( 79)
          -0.1911 ( 80) -0.1356 ( 82) -0.1004 ( 85)
 CRD  6=  -0.1272 (  1)  0.1895 (  9) -0.1513 ( 11)  0.2101 ( 15) -0.1583 ( 23)
          -0.1248 ( 25)  0.2055 ( 28) -0.2352 ( 29) -0.2389 ( 30)  0.1103 ( 31)
           0.1986 ( 33)  0.4213 ( 34) -0.1446 ( 36)  0.1157 ( 40)  0.2216 ( 42)
          -0.2301 ( 49)  0.1335 ( 64)  0.2265 ( 68)  0.1545 ( 69)  0.1177 ( 70)
          -0.1265 ( 73) -0.1596 ( 75)  0.1241 ( 87)
 CRD  7=   0.1820 (  1)  0.4594 (  4)  0.1251 (  6)  0.1166 (  8) -0.2319 (  9)
          -0.1228 ( 15)  0.1870 ( 25)  0.2291 ( 27) -0.1920 ( 28)  0.1044 ( 31)
          -0.1446 ( 33) -0.1058 ( 34) -0.1488 ( 38)  0.2116 ( 42) -0.2747 ( 46)
           0.1740 ( 50)  0.1010 ( 58)  0.2659 ( 68)  0.1282 ( 69)  0.1245 ( 70)
          -0.1015 ( 76)  0.1336 ( 87)  0.1868 ( 88)
 CRD  8=  -0.1760 (  1) -0.1276 (  2)  0.1864 (  4) -0.2467 (  9) -0.3366 ( 11)
           0.1483 ( 22) -0.1166 ( 23)  0.1267 ( 24) -0.2112 ( 33) -0.1442 ( 35)
           0.1003 ( 38) -0.3094 ( 39) -0.1054 ( 41) -0.1135 ( 44) -0.1172 ( 45)
          -0.1430 ( 47)  0.2072 ( 48)  0.1436 ( 56)  0.1018 ( 57)  0.2263 ( 71)
          -0.1567 ( 73) -0.1801 ( 75) -0.1535 ( 80) -0.1124 ( 83)  0.1202 ( 85)
           0.1756 ( 86)
 CRD  9=   0.1146 (  1)  0.1484 (  6)  0.3427 ( 11)  0.1009 ( 22) -0.1270 ( 24)
          -0.1178 ( 26) -0.1204 ( 29)  0.1777 ( 33)  0.1388 ( 36)  0.1488 ( 37)
           0.2420 ( 38) -0.1158 ( 39)  0.2144 ( 41)  0.1391 ( 42)  0.1473 ( 43)
          -0.2367 ( 44) -0.1670 ( 46) -0.1001 ( 47)  0.1763 ( 48) -0.1584 ( 55)
          -0.2273 ( 62)  0.1139 ( 68)  0.1367 ( 71)  0.1206 ( 75) -0.1783 ( 76)
          -0.1409 ( 77) -0.1258 ( 78) -0.2261 ( 80)  0.1172 ( 83)  0.1438 ( 85)
 CRD 10=   0.2131 (  1) -0.2166 (  6)  0.3424 ( 11) -0.2187 ( 15)  0.2617 ( 24)
           0.1396 ( 28) -0.1107 ( 30) -0.1726 ( 33)  0.1133 ( 34)  0.3638 ( 37)
          -0.1660 ( 38) -0.2802 ( 45)  0.1667 ( 46)  0.1010 ( 48) -0.1352 ( 50)
          -0.1064 ( 55) -0.2038 ( 56)  0.1474 ( 59) -0.1183 ( 74)
 CRD 11=  -0.1717 (  4) -0.5526 ( 15) -0.1007 ( 22) -0.1780 ( 24)  0.1297 ( 35)
           0.1820 ( 38) -0.1206 ( 39) -0.3748 ( 45) -0.1785 ( 46) -0.2216 ( 49)
           0.2513 ( 58)  0.1612 ( 59) -0.1138 ( 63) -0.1073 ( 69)
 CRD 12=  -0.2638 (  1)  0.1653 (  4) -0.3298 (  6)  0.3114 (  9)  0.1037 ( 11)
           0.3039 ( 24) -0.1804 ( 27) -0.3646 ( 33) -0.1673 ( 37)  0.1663 ( 39)
          -0.1208 ( 40)  0.1427 ( 42)  0.1419 ( 43)  0.1186 ( 45) -0.2609 ( 46)
          -0.1164 ( 57) -0.1054 ( 59)  0.1038 ( 87)
 CRD 13=  -0.3476 (  1) -0.3761 (  9)  0.3156 ( 11)  0.2131 ( 15) -0.2400 ( 22)
          -0.1469 ( 36)  0.1766 ( 38) -0.1438 ( 40)  0.2088 ( 42) -0.1247 ( 45)
           0.2102 ( 47)  0.1322 ( 50) -0.1199 ( 55) -0.1203 ( 57) -0.1525 ( 60)
          -0.1231 ( 61) -0.1241 ( 63) -0.1108 ( 65) -0.1173 ( 91)
 CRD 14=  -0.2516 (  1)  0.1539 (  4)  0.1400 (  5)  0.2469 (  6) -0.1006 ( 15)
           0.1319 ( 16)  0.1752 ( 32)  0.1441 ( 33)  0.1548 ( 36) -0.2701 ( 37)
          -0.1711 ( 38)  0.4601 ( 39) -0.1970 ( 40) -0.1184 ( 42) -0.1013 ( 44)
          -0.1357 ( 45)  0.1647 ( 46) -0.1443 ( 50)  0.1850 ( 55) -0.1290 ( 57)
           0.1055 ( 59)  0.1056 ( 63)  0.1061 ( 83) -0.1081 ( 87)
 CRD 15=   0.2370 (  1) -0.1817 (  4) -0.1755 (  6) -0.1333 (  8) -0.2318 (  9)
          -0.1852 ( 11)  0.1446 ( 15)  0.1083 ( 19)  0.1004 ( 24)  0.1101 ( 26)
          -0.1292 ( 27)  0.1042 ( 28) -0.1805 ( 31) -0.1998 ( 37) -0.1105 ( 38)
           0.1432 ( 39)  0.2199 ( 41)  0.4050 ( 42) -0.1526 ( 44) -0.2344 ( 45)
          -0.1471 ( 48)  0.1356 ( 55)  0.1076 ( 58) -0.1699 ( 60) -0.1045 ( 70)
           0.1248 ( 75)  0.1168 ( 83)  0.1165 ( 91)
 CRD 16=   0.1558 (  1)  0.1821 (  2)  0.1753 (  4)  0.1333 ( 17)  0.1516 ( 27)
          -0.1866 ( 30)  0.1608 ( 31) -0.1118 ( 35)  0.1494 ( 36) -0.2472 ( 37)
           0.4362 ( 38) -0.1392 ( 39) -0.1555 ( 43)  0.1032 ( 44) -0.1541 ( 45)
           0.2406 ( 46)  0.1375 ( 49) -0.1165 ( 50)  0.1705 ( 56) -0.1324 ( 57)
          -0.1003 ( 60) -0.1561 ( 67)  0.1358 ( 69)  0.1304 ( 70) -0.1317 ( 71)
          -0.1171 ( 72)
 CRD 17=   0.1077 ( 20)  0.2035 ( 22) -0.1208 ( 26) -0.1021 ( 27)  0.3180 ( 35)
          -0.2787 ( 36) -0.2078 ( 37)  0.1447 ( 38)  0.1164 ( 39) -0.1025 ( 42)
           0.1956 ( 46) -0.1264 ( 47)  0.1508 ( 48) -0.2615 ( 49)  0.2614 ( 50)
          -0.1230 ( 57)  0.1252 ( 61) -0.1252 ( 62)  0.1018 ( 63) -0.1222 ( 64)
           0.1012 ( 65) -0.1099 ( 66)  0.1980 ( 76)  0.2116 ( 77)  0.2020 ( 78)
           0.1269 ( 87)  0.1357 ( 88)
 CRD 18=  -0.1753 (  1) -0.1074 (  3)  0.1530 (  9)  0.1210 ( 14)  0.1198 ( 19)
          -0.2504 ( 26)  0.1879 ( 31) -0.2214 ( 32) -0.1464 ( 34)  0.1281 ( 36)
           0.1714 ( 37) -0.1339 ( 38)  0.1719 ( 40) -0.2308 ( 41)  0.3261 ( 42)
          -0.2692 ( 45) -0.1336 ( 47)  0.1577 ( 48)  0.1140 ( 58) -0.1744 ( 60)
           0.1163 ( 65) -0.1179 ( 72)  0.1301 ( 73)  0.1739 ( 74)  0.1090 ( 80)
 CRD 19=  -0.1462 (  4) -0.1507 (  8) -0.2205 (  9)  0.1122 ( 11)  0.1191 ( 12)
          -0.1685 ( 13) -0.1338 ( 20)  0.1779 ( 22) -0.1470 ( 23) -0.2241 ( 32)
           0.1580 ( 34) -0.1418 ( 35) -0.1909 ( 37)  0.1287 ( 38)  0.1777 ( 39)
           0.1699 ( 40) -0.1153 ( 41) -0.1719 ( 43)  0.2147 ( 45) -0.3306 ( 46)
           0.1873 ( 48) -0.1145 ( 50) -0.1570 ( 57) -0.1222 ( 59)  0.1536 ( 60)
          -0.1089 ( 68) -0.1090 ( 83)
 CRD 20=   0.1251 (  1) -0.1781 (  2)  0.1283 (  3) -0.1831 (  5)  0.1781 (  7)
           0.1218 (  8)  0.2333 (  9)  0.1843 ( 10)  0.1210 ( 13)  0.1536 ( 14)
          -0.1818 ( 23) -0.1169 ( 24)  0.1151 ( 25) -0.2136 ( 28) -0.1146 ( 31)
          -0.1758 ( 34)  0.1154 ( 36) -0.1583 ( 37)  0.1743 ( 39)  0.1470 ( 42)
           0.1423 ( 43)  0.1946 ( 44) -0.1564 ( 45) -0.1476 ( 52) -0.1062 ( 53)
          -0.1046 ( 54) -0.1347 ( 57) -0.1226 ( 60)  0.1115 ( 64)  0.1164 ( 67)
          -0.1416 ( 73) -0.1703 ( 74) -0.2327 ( 75) -0.1567 ( 83) -0.1242 ( 84)
 CRD 21=   0.1608 (  3)  0.2342 (  4)  0.4380 (  5)  0.2168 (  6)  0.1543 (  7)
          -0.1788 ( 13)  0.1916 ( 14)  0.1165 ( 19) -0.1121 ( 20)  0.1761 ( 24)
          -0.2043 ( 25) -0.1325 ( 29)  0.1668 ( 32)  0.1047 ( 38)  0.1134 ( 41)
           0.1868 ( 42) -0.1790 ( 46)  0.1109 ( 47)  0.1175 ( 58) -0.1061 ( 59)
          -0.2001 ( 68) -0.1215 ( 69) -0.1054 ( 70)  0.1133 ( 76) -0.1285 ( 85)
          -0.1489 ( 87)
 CRD 22=  -0.1765 (  3) -0.2082 (  5) -0.1497 ( 10) -0.1120 ( 26)  0.1894 ( 27)
          -0.2609 ( 30) -0.1753 ( 31) -0.2755 ( 40)  0.2401 ( 41) -0.2186 ( 43)
           0.2773 ( 44) -0.1391 ( 47) -0.1997 ( 64) -0.2508 ( 66) -0.1390 ( 73)
          -0.1273 ( 74) -0.1575 ( 79) -0.1825 ( 81) -0.1457 ( 82) -0.2336 ( 84)
 CRD 23=  -0.1637 (  2) -0.1917 (  3) -0.4374 ( 10)  0.4087 ( 12) -0.1417 ( 16)
           0.1539 ( 17) -0.1031 ( 26)  0.1148 ( 29) -0.1712 ( 31)  0.1295 ( 38)
          -0.1385 ( 39)  0.1151 ( 47) -0.1013 ( 55)  0.1101 ( 56)  0.1777 ( 61)
           0.2228 ( 63)  0.1117 ( 64)  0.1795 ( 65)  0.1064 ( 66) -0.1511 ( 71)
          -0.1679 ( 85) -0.2597 ( 86)
 CRD 24=   0.1475 (  5)  0.4279 (  7) -0.3575 (  8)  0.3947 ( 13) -0.4102 ( 14)
          -0.1050 ( 19) -0.1404 ( 43)  0.1164 ( 44) -0.1432 ( 49)  0.1284 ( 50)
          -0.1176 ( 64) -0.1042 ( 66) -0.1601 ( 69) -0.1514 ( 70) -0.1528 ( 76)
          -0.1286 ( 77) -0.1296 ( 78)  0.1166 ( 88)
 CRD 25=   0.1723 ( 11)  0.5008 ( 16)  0.5005 ( 17)  0.4762 ( 18) -0.1925 ( 37)
          -0.1763 ( 38) -0.1762 ( 39)  0.1978 ( 55)  0.1983 ( 56)  0.1881 ( 57)
 CRD 26=   0.1727 ( 15)  0.4973 ( 19)  0.5029 ( 20)  0.4767 ( 21) -0.1773 ( 42)
          -0.1926 ( 45) -0.1741 ( 46)  0.1966 ( 58)  0.1999 ( 59)  0.1868 ( 60)
 CRD 27=   0.3383 (  2) -0.2851 (  3)  0.1120 (  5)  0.1620 (  7) -0.1567 ( 12)
           0.1082 ( 22) -0.1300 ( 27)  0.1288 ( 30) -0.1373 ( 40)  0.1575 ( 43)
          -0.1681 ( 47)  0.1368 ( 48)  0.1268 ( 62)  0.1970 ( 64)  0.1578 ( 66)
          -0.2103 ( 67) -0.1923 ( 72) -0.2093 ( 73) -0.1811 ( 74) -0.1860 ( 79)
           0.1038 ( 80)  0.1739 ( 81) -0.1578 ( 82)  0.1348 ( 84) -0.1330 ( 89)
          -0.1150 ( 90) -0.1321 ( 91) -0.1502 ( 92)  0.1074 ( 94)
 CRD 28=  -0.1781 (  3)  0.2949 (  7)  0.3245 (  8) -0.1047 ( 10) -0.1551 ( 12)
          -0.3512 ( 17)  0.4026 ( 18) -0.1128 ( 19) -0.1283 ( 20)  0.2728 ( 21)
           0.1237 ( 52)  0.1861 ( 56) -0.2083 ( 57) -0.1369 ( 60) -0.1299 ( 61)
           0.1198 ( 98)  0.1021 ( 99) -0.1209 (100)
 CRD 29=  -0.1429 ( 13) -0.1421 ( 14)  0.1552 ( 16)  0.1784 ( 17) -0.3581 ( 18)
          -0.2403 ( 19) -0.2452 ( 20)  0.5252 ( 21)  0.1846 ( 57)  0.1296 ( 58)
           0.1323 ( 59) -0.2706 ( 60) -0.1410 ( 77)  0.1420 ( 78) -0.1044 ( 98)
           0.1041 (100) -0.1543 (103)  0.1288 (105) -0.1278 (106)  0.1552 (108)
 CRD 30=  -0.1218 (  2) -0.2650 (  3)  0.2856 (  7)  0.3196 (  8)  0.4205 ( 16)
          -0.1025 ( 17) -0.3359 ( 18)  0.1231 ( 19) -0.2249 ( 21)  0.1278 ( 52)
          -0.2204 ( 55)  0.1727 ( 57)  0.1200 ( 60)  0.1057 ( 63) -0.1303 ( 65)
          -0.1081 ( 98)  0.1279 ( 99) -0.1020 (101)  0.1340 (102)
 CRD 31=   0.1065 (  7)  0.1139 (  8) -0.1292 ( 16)  0.1402 ( 17)  0.5314 ( 19)
          -0.5121 ( 20) -0.2839 ( 58)  0.2730 ( 59) -0.2229 ( 76) -0.2174 (104)
          -0.2193 (107)
 CRD 32=   0.3434 (  7)  0.4016 (  8) -0.3651 ( 16)  0.4148 ( 17) -0.1398 ( 19)
           0.2001 ( 20)  0.1667 ( 52)  0.1978 ( 55) -0.2210 ( 56) -0.1080 ( 59)
          -0.1581 ( 63) -0.1487 ( 99) -0.1539 (102)
 CRD 33=   0.4965 (  2)  0.5609 (  3)  0.1483 (  7)  0.1457 (  8) -0.1470 ( 10)
           0.1976 ( 16) -0.1635 ( 17)  0.2527 ( 51) -0.1091 ( 55)  0.1140 ( 63)
           0.1369 ( 74) -0.1006 ( 79)  0.1341 ( 82) -0.1339 ( 86) -0.1158 ( 90)
           0.1147 ( 92)
 CRD 34=   0.5902 ( 13)  0.5858 ( 14) -0.1346 ( 19) -0.1357 ( 20)  0.1504 ( 21)
           0.2397 ( 54) -0.1016 ( 69) -0.1064 ( 94) -0.1004 ( 96)  0.1015 (104)
           0.1512 (105) -0.1590 (106) -0.1083 (107)
 CRD 35=   0.5539 ( 10)  0.5912 ( 12) -0.1028 ( 16) -0.1471 ( 17)  0.1421 ( 18)
          -0.1027 ( 26) -0.1038 ( 47)  0.2363 ( 53) -0.1289 ( 67) -0.1406 ( 89)
          -0.1425 ( 92) -0.1856 ( 97) -0.1228 ( 99)  0.1033 (101)
 CRD 36=  -0.4429 (  2)  0.2851 (  3)  0.1381 (  8) -0.1157 ( 12)  0.1267 ( 22)
          -0.1217 ( 26)  0.1247 ( 32) -0.1151 ( 47)  0.1321 ( 48) -0.1159 ( 61)
          -0.1310 ( 65) -0.1042 ( 72)  0.1460 ( 73)  0.1180 ( 79) -0.1800 ( 85)
          -0.1298 ( 86) -0.1798 ( 89) -0.2196 ( 90) -0.2698 ( 91) -0.2300 ( 92)
          -0.1681 ( 97) -0.1832 ( 98) -0.1278 ( 99) -0.2042 (100) -0.2193 (101)
          -0.1639 (102)
 CRD 37=   0.1578 (  2) -0.1328 (  3) -0.2681 (  7)  0.2372 (  8)  0.1239 ( 35)
          -0.1285 ( 36) -0.1258 ( 49)  0.1452 ( 50)  0.1698 ( 64)  0.1259 ( 66)
          -0.1160 ( 69) -0.1292 ( 70) -0.1157 ( 76) -0.1547 ( 77) -0.1523 ( 78)
           0.1347 ( 81) -0.1660 ( 87) -0.1476 ( 88) -0.2577 ( 93) -0.2444 ( 94)
          -0.2393 ( 95) -0.2260 ( 96) -0.2212 (103) -0.1823 (104) -0.2189 (105)
          -0.2221 (106) -0.1831 (107) -0.2197 (108)
 CRD 38=   0.2720 (  7) -0.2646 (  8) -0.1023 ( 10) -0.3606 ( 13)  0.3630 ( 14)
          -0.1459 ( 76) -0.1360 ( 77) -0.1348 ( 78)  0.1115 ( 87)  0.1422 ( 93)
           0.1451 ( 94)  0.1099 ( 95)  0.1128 ( 96) -0.2215 (103) -0.2315 (104)
          -0.2204 (105) -0.2232 (106) -0.2331 (107) -0.2221 (108)
 CRD 39=  -0.1109 (  2)  0.1250 (  3)  0.3432 ( 10) -0.3508 ( 12) -0.1103 ( 31)
           0.1657 ( 61)  0.1930 ( 63)  0.1659 ( 65) -0.1192 ( 67) -0.1119 ( 72)
          -0.1744 ( 86) -0.2069 ( 89) -0.1996 ( 90) -0.1150 ( 91) -0.1223 ( 92)
           0.2068 ( 97)  0.2069 ( 98)  0.2341 ( 99)  0.2332 (100)  0.2334 (101)
           0.2605 (102)
 CRD 40=   0.1585 (  1) -0.1584 (  2)  0.1742 (  4)  0.2361 (  5) -0.3542 (  6)
          -0.3547 ( 24) -0.1805 ( 27) -0.1373 ( 30)  0.1035 ( 32)  0.3495 ( 33)
          -0.1795 ( 40) -0.1738 ( 41)  0.1176 ( 43)  0.1008 ( 52)  0.1039 ( 74)
           0.1157 ( 82) -0.1585 ( 88) -0.1132 ( 92)  0.1010 ( 94) -0.2007 ( 95)
          -0.1272 ( 96)  0.1326 ( 97)  0.1122 ( 98)  0.1198 ( 99)
 CRD 41=  -0.1605 (  4)  0.4013 (  5)  0.1979 (  6)  0.1068 (  8) -0.1345 ( 19)
          -0.2260 ( 21)  0.1092 ( 25) -0.1662 ( 30) -0.1112 ( 31) -0.1149 ( 32)
          -0.1373 ( 33) -0.1792 ( 35) -0.1307 ( 36) -0.1230 ( 42)  0.1809 ( 44)
          -0.1632 ( 45) -0.1248 ( 46)  0.1900 ( 49)  0.1610 ( 50)  0.1583 ( 58)
           0.1950 ( 59) -0.1188 ( 66)  0.1770 ( 69)  0.1034 ( 79) -0.1510 ( 84)
           0.1053 ( 87)  0.2149 ( 94) -0.1128 ( 95)  0.1029 ( 96)  0.1043 (105)
          -0.1230 (106) -0.1173 (107)
 CRD 42=  -0.1536 (  1) -0.1507 (  2) -0.1870 (  4)  0.1896 (  5) -0.1544 ( 11)
           0.2059 ( 16)  0.1798 ( 17)  0.3025 ( 18)  0.1485 ( 22)  0.1672 ( 26)
          -0.1146 ( 33)  0.2370 ( 37)  0.2040 ( 38)  0.2040 ( 39) -0.1802 ( 47)
          -0.1879 ( 48) -0.2485 ( 55) -0.2703 ( 56) -0.1730 ( 57) -0.1356 ( 67)
           0.1131 ( 72) -0.1040 ( 73) -0.1062 ( 79) -0.1095 ( 89)  0.1392 ( 90)
           0.1934 ( 91)  0.1024 ( 97)
 CRD 43=  -0.1512 (  4)  0.5157 (  5) -0.1590 (  6)  0.1235 (  8) -0.1469 (  9)
          -0.1811 ( 15) -0.1020 ( 18)  0.1404 ( 19)  0.1767 ( 20)  0.2148 ( 21)
           0.1501 ( 25)  0.1159 ( 36)  0.1695 ( 42)  0.1801 ( 45)  0.1589 ( 46)
          -0.1207 ( 50) -0.2128 ( 58) -0.1804 ( 59) -0.1521 ( 60)  0.1451 ( 70)
           0.1514 ( 93)  0.1277 ( 95)
 CRD 44=   0.1279 (  2)  0.1731 (  4) -0.1785 (  5)  0.1915 (  6)  0.1798 (  7)
          -0.1075 (  9) -0.1665 ( 11) -0.3172 ( 15)  0.1448 ( 17)  0.1618 ( 19)
           0.1792 ( 20) -0.1138 ( 27) -0.1292 ( 30)  0.1119 ( 40)  0.1290 ( 42)
           0.1771 ( 43)  0.1098 ( 44)  0.1276 ( 45)  0.1485 ( 46) -0.1039 ( 55)
          -0.1055 ( 57) -0.1225 ( 58) -0.1117 ( 59) -0.1997 ( 60)  0.1536 ( 64)
           0.1198 ( 73)  0.2305 ( 79) -0.1187 ( 80)  0.1399 ( 82)  0.1146 ( 83)
          -0.1850 ( 84) -0.1011 ( 95) -0.1202 ( 96) -0.1044 ( 97)  0.1088 (104)
           0.1410 (105)
 CRD 45=   0.1167 (  3)  0.2691 (  4) -0.1623 (  6) -0.1231 (  7) -0.2930 ( 11)
           0.1711 ( 16)  0.1667 ( 17) -0.1604 ( 22) -0.1993 ( 24) -0.1470 ( 26)
          -0.1666 ( 31) -0.1458 ( 32)  0.1122 ( 33)  0.1069 ( 38)  0.1067 ( 40)
           0.1846 ( 41)  0.1055 ( 52)  0.1443 ( 53) -0.2166 ( 57)  0.1017 ( 73)
          -0.1571 ( 74) -0.2421 ( 82)  0.1160 ( 84) -0.2176 ( 97) -0.1559 ( 99)
           0.1893 (101)  0.1141 (102) -0.1035 (105)
 CRD 46=   0.2639 (  3) -0.1315 (  5)  0.1703 (  6) -0.1075 (  7)  0.1021 (  8)
          -0.2065 ( 10)  0.1460 ( 11)  0.1343 ( 12) -0.1609 ( 14) -0.2294 ( 15)
          -0.1691 ( 17)  0.1964 ( 19) -0.1458 ( 27) -0.1211 ( 36)  0.1086 ( 49)
          -0.1357 ( 51)  0.1436 ( 55) -0.1546 ( 60) -0.1356 ( 67) -0.1004 ( 79)
           0.1330 ( 80)  0.1326 ( 81) -0.2147 ( 82)  0.1493 ( 86)  0.1182 ( 93)
           0.1444 ( 94)  0.1030 ( 97)  0.1003 ( 98)  0.1371 (100)  0.1344 (101)
          -0.2187 (106) -0.1171 (108)
 CRD 47=   0.1837 (  1)  0.1311 (  2) -0.2493 (  4) -0.2392 ( 10) -0.2039 ( 11)
           0.2095 ( 12) -0.1255 ( 13)  0.1201 ( 14)  0.2772 ( 16) -0.1290 ( 19)
          -0.1463 ( 22)  0.1024 ( 32)  0.1304 ( 48) -0.1098 ( 51)  0.1192 ( 55)
          -0.1468 ( 56) -0.1326 ( 57) -0.1399 ( 63) -0.1208 ( 72)  0.1076 ( 79)
          -0.2488 ( 91) -0.1922 ( 92) -0.1153 ( 94)  0.1699 ( 98)  0.1693 (100)
           0.2758 (101)  0.1126 (106)
 CRD 48=   0.1505 (  1)  0.1639 (  2) -0.1693 (  3) -0.1187 (  4)  0.1494 (  8)
          -0.2058 ( 11)  0.2211 ( 13) -0.2229 ( 14)  0.1709 ( 19) -0.2216 ( 20)
           0.1392 ( 32) -0.1205 ( 41)  0.1524 ( 58) -0.1419 ( 59) -0.1120 ( 66)
           0.1615 ( 76) -0.1169 ( 80) -0.1501 ( 81)  0.1714 ( 82) -0.1905 ( 84)
          -0.1107 ( 85) -0.1803 ( 91)  0.1511 ( 93)  0.1283 ( 94)  0.1889 ( 95)
           0.1660 ( 96) -0.1698 (103) -0.1962 (105) -0.1482 (106) -0.1746 (108)
 CRD 49=  -0.1859 (  1)  0.1688 (  6) -0.3943 (  9)  0.1566 ( 11)  0.1196 ( 13)
           0.1023 ( 15) -0.1180 ( 17) -0.1086 ( 19) -0.1978 ( 20)  0.2507 ( 21)
          -0.1157 ( 27) -0.1079 ( 30)  0.1473 ( 35)  0.1073 ( 36)  0.1458 ( 43)
           0.1001 ( 44) -0.1492 ( 54) -0.1135 ( 59)  0.2229 ( 60)  0.1327 ( 64)
          -0.1038 ( 67)  0.1450 ( 77) -0.1455 ( 78)  0.1256 ( 79) -0.1080 ( 84)
          -0.2815 (105)  0.2332 (106)  0.1386 (107)
 CRD 50=  -0.1249 (  1)  0.1429 (  2)  0.1223 (  6) -0.1856 (  7) -0.1315 (  8)
           0.1391 (  9) -0.1625 ( 11)  0.1450 ( 12)  0.1177 ( 14) -0.2501 ( 15)
          -0.1140 ( 17)  0.2174 ( 18)  0.2356 ( 52) -0.1823 ( 53) -0.1527 ( 54)
          -0.1367 ( 56)  0.1112 ( 57) -0.1013 ( 58)  0.1128 ( 61) -0.1761 ( 64)
          -0.1005 ( 65)  0.1394 ( 67) -0.1157 ( 70) -0.1238 ( 81)  0.1272 ( 84)
           0.1204 ( 87) -0.1478 ( 90) -0.1543 ( 91)  0.2146 ( 94) -0.2097 ( 95)
           0.2088 ( 97) -0.1490 (101)
 CRD 51=   0.2813 (  1) -0.1050 (  2) -0.1931 (  4)  0.2383 (  6) -0.1104 ( 12)
           0.1116 ( 14) -0.1969 ( 15)  0.1967 ( 17) -0.2034 ( 18)  0.1607 ( 21)
           0.1543 ( 24)  0.1554 ( 31)  0.1126 ( 32) -0.1467 ( 40) -0.1162 ( 41)
           0.1168 ( 52) -0.1551 ( 54)  0.1498 ( 56) -0.1499 ( 57) -0.1059 ( 58)
          -0.1220 ( 61)  0.1055 ( 63)  0.1112 ( 65) -0.1333 ( 73) -0.1733 ( 79)
           0.1145 ( 90)  0.1647 ( 94) -0.1680 ( 95) -0.2201 ( 97) -0.1256 (100)
           0.1076 (101)  0.1019 (102) -0.1070 (105)  0.1359 (106)
 CRD 52=   0.1243 (  3)  0.2048 (  8) -0.1518 (  9) -0.1163 ( 11)  0.1260 ( 15)
          -0.1871 ( 16)  0.1284 ( 17)  0.1041 ( 18) -0.2015 ( 19)  0.1515 ( 20)
          -0.1440 ( 27)  0.1029 ( 39)  0.1555 ( 44) -0.1517 ( 51) -0.1688 ( 55)
          -0.1199 ( 58)  0.1442 ( 59)  0.1776 ( 63) -0.1726 ( 66) -0.1243 ( 68)
          -0.1543 ( 69) -0.1899 ( 76)  0.1553 ( 80) -0.1262 ( 82)  0.1580 ( 86)
           0.2050 ( 89) -0.1249 ( 91)  0.1086 ( 93)  0.1079 ( 95) -0.1168 ( 98)
           0.1338 ( 99) -0.1207 (101)  0.1299 (102) -0.1465 (104) -0.1672 (107)
 CRD 53=   0.1791 (  3) -0.2182 (  4)  0.1354 (  5) -0.1002 (  6)  0.1350 (  7)
          -0.1135 (  8) -0.2029 ( 16)  0.1372 ( 17)  0.1351 ( 19) -0.1470 ( 20)
           0.1578 ( 25)  0.1493 ( 27)  0.1277 ( 29)  0.1119 ( 39) -0.1029 ( 44)
           0.1077 ( 50) -0.2033 ( 51) -0.1481 ( 55)  0.1048 ( 56) -0.1272 ( 59)
           0.1749 ( 63)  0.1143 ( 66)  0.1511 ( 68)  0.1307 ( 69) -0.1336 ( 74)
           0.1396 ( 76)  0.1219 ( 79)  0.2011 ( 86)  0.1183 ( 89)  0.1446 ( 90)
          -0.1247 ( 92) -0.1444 ( 93) -0.1082 ( 98)  0.1590 ( 99)  0.2059 (102)
           0.1607 (104)  0.1442 (107)
 CRD 54=   0.2304 (  6) -0.1548 (  8) -0.1646 (  9)  0.1832 ( 15)  0.1250 ( 19)
          -0.2517 ( 21) -0.1359 ( 28) -0.1071 ( 30)  0.1551 ( 35)  0.1519 ( 36)
          -0.1143 ( 42)  0.1337 ( 45) -0.1655 ( 49) -0.1355 ( 50)  0.1788 ( 52)
           0.1306 ( 58) -0.1514 ( 60) -0.1771 ( 77)  0.1519 ( 78)  0.1450 ( 87)
          -0.1505 ( 88)  0.2031 ( 93) -0.2443 ( 96) -0.2695 (103)  0.1334 (107)
           0.2609 (108)
 CRD 55=   0.2572 (  1) -0.2050 (  2)  0.1256 (  6)  0.1068 (  7) -0.1170 (  9)
          -0.2282 ( 11)  0.1871 ( 18) -0.1404 ( 22) -0.1359 ( 26) -0.1284 ( 30)
           0.1027 ( 38) -0.1437 ( 40)  0.1063 ( 43)  0.1703 ( 47)  0.1236 ( 48)
           0.1237 ( 51) -0.1142 ( 56)  0.1282 ( 61) -0.1032 ( 65)  0.1076 ( 68)
           0.1012 ( 70) -0.1522 ( 72)  0.1077 ( 74)  0.1754 ( 75) -0.1979 ( 79)
           0.1900 ( 81)  0.1043 ( 84)  0.1198 ( 89)  0.2179 ( 92) -0.1355 ( 96)
          -0.1802 ( 98) -0.1114 ( 99)  0.1803 (100)  0.1037 (104)  0.1137 (107)
 CRD 56=   0.1896 (  1) -0.1539 ( 10) -0.1341 ( 12)  0.1438 ( 13)  0.1606 ( 18)
           0.1194 ( 20) -0.1723 ( 23)  0.1231 ( 34) -0.1613 ( 37)  0.2162 ( 53)
          -0.1421 ( 54)  0.1340 ( 57)  0.1257 ( 61) -0.1401 ( 65) -0.1236 ( 67)
          -0.1066 ( 75)  0.1275 ( 78) -0.1427 ( 81)  0.1149 ( 82) -0.1096 ( 84)
          -0.1203 ( 89) -0.1127 ( 92)  0.1561 ( 96) -0.2826 ( 98) -0.1454 ( 99)
           0.2885 (100)  0.1598 (102) -0.1626 (103) -0.1788 (104)  0.1686 (108)
 CRD 57=   0.1179 (  6) -0.1112 (  7) -0.1076 (  8)  0.2039 (  9) -0.1049 ( 10)
          -0.1402 ( 13) -0.1575 ( 14)  0.1379 ( 15)  0.1133 ( 21) -0.1233 ( 23)
          -0.1616 ( 28) -0.2114 ( 34) -0.1378 ( 45)  0.1569 ( 52)  0.1403 ( 53)
           0.2221 ( 54)  0.1040 ( 60) -0.1313 ( 69)  0.1379 ( 70)  0.1218 ( 72)
          -0.1214 ( 75)  0.1066 ( 77) -0.1375 ( 81)  0.1041 ( 87) -0.1199 ( 88)
          -0.1171 ( 89) -0.1273 ( 92)  0.2475 ( 93) -0.2457 ( 96) -0.1406 ( 98)
           0.1451 (100)  0.2379 (103)  0.1263 (104) -0.1493 (107) -0.2418 (108)
 CRD 58=   0.1242 (  2) -0.1305 (  4)  0.1469 ( 10) -0.2207 ( 12)  0.1174 ( 16)
          -0.1402 ( 17)  0.1523 ( 22) -0.1168 ( 26)  0.1450 ( 29)  0.1360 ( 38)
          -0.1221 ( 39) -0.1016 ( 41)  0.1281 ( 47) -0.1488 ( 48) -0.1175 ( 51)
           0.2618 ( 61)  0.2313 ( 65) -0.1314 ( 71)  0.1868 ( 72) -0.1109 ( 77)
          -0.3139 ( 85)  0.1139 ( 88)  0.1434 ( 89)  0.2309 ( 90) -0.2596 ( 99)
          -0.2044 (102)  0.1132 (107)
 CRD 59=   0.1223 (  3) -0.1069 (  4)  0.1002 (  7) -0.1393 (  8)  0.1258 ( 10)
           0.1522 ( 13) -0.1778 ( 14) -0.1093 ( 19)  0.1001 ( 20)  0.1291 ( 35)
          -0.1231 ( 36)  0.1148 ( 42)  0.1064 ( 43) -0.1278 ( 44) -0.1060 ( 46)
           0.1199 ( 49) -0.1213 ( 50)  0.1144 ( 61)  0.1405 ( 65)  0.1427 ( 66)
           0.1710 ( 69)  0.1967 ( 70) -0.1653 ( 71) -0.1016 ( 74)  0.2235 ( 77)
           0.2089 ( 78) -0.1859 ( 80)  0.1536 ( 83) -0.1144 ( 85) -0.2104 ( 87)
          -0.2326 ( 88)  0.1827 ( 89)  0.1037 ( 90) -0.1329 (102) -0.1863 (104)
          -0.2085 (107)
 CRD 60=  -0.1205 (  2)  0.1443 (  3) -0.1392 (  7)  0.1221 ( 30)  0.1151 ( 31)
          -0.1291 ( 32)  0.2819 ( 62)  0.1935 ( 66) -0.1588 ( 69) -0.1349 ( 70)
          -0.1858 ( 71) -0.2196 ( 72) -0.2298 ( 73) -0.2552 ( 74) -0.1011 ( 77)
          -0.1110 ( 78)  0.1509 ( 79) -0.2992 ( 81)  0.1256 ( 82)  0.3489 ( 83)
          -0.1759 ( 84)  0.1431 ( 87)  0.1399 ( 89)  0.1239 ( 92)

 THE DETERMINANT OF THE G MATRIX IS 10**(   -23)


                     --------------------
                     INTERNAL COORDINATES
                     --------------------

                 - - ATOMS - -         COORDINATE      COORDINATE
 NO.   TYPE    I  J  K  L  M  N        (BOHR,RAD)       (ANG,DEG)
 ----------------------------------------------------------------
   1 STRETCH   1  5                     2.8726651       1.5201490
   2 STRETCH   1  9                     2.0952338       1.1087501
   3 STRETCH   1 10                     2.0973724       1.1098818
   4 STRETCH   1  2                     2.8612859       1.5141274
   5 STRETCH   2  4                     2.2973436       1.2157020
   6 STRETCH   2  3                     2.8713563       1.5194564
   7 STRETCH   3 12                     2.0945374       1.1083815
   8 STRETCH   3 11                     2.0970917       1.1097332
   9 STRETCH   3  6                     2.8738350       1.5207681
  10 STRETCH   5 13                     2.0932065       1.1076773
  11 STRETCH   5  7                     2.8586858       1.5127515
  12 STRETCH   5 14                     2.0943898       1.1083034
  13 STRETCH   6 16                     2.0931985       1.1076730
  14 STRETCH   6 15                     2.0955042       1.1088931
  15 STRETCH   6  8                     2.8573282       1.5120331
  16 STRETCH   7 19                     2.0753000       1.0982016
  17 STRETCH   7 18                     2.0745559       1.0978078
  18 STRETCH   7 17                     2.0738562       1.0974375
  19 STRETCH   8 22                     2.0752980       1.0982005
  20 STRETCH   8 21                     2.0748925       1.0979859
  21 STRETCH   8 20                     2.0735088       1.0972537
  22 BEND      1  5 14                  1.9008408     108.9101552
  23 BEND      1  5  7                  1.9633917     112.4940593
  24 BEND      1  2  4                  2.1557494     123.5153421
  25 BEND      1  2  3                  2.0204004     115.7604157
  26 BEND      1  5 13                  1.9221925     110.1335170
  27 BEND      2  3 11                  1.9279780     110.4650042
  28 BEND      2  3  6                  1.9556838     112.0524251
  29 BEND      2  1  5                  2.0136384     115.3729838
  30 BEND      2  3 12                  1.8973021     108.7074047
  31 BEND      2  1  9                  1.8793702     107.6799801
  32 BEND      2  1 10                  1.8834208     107.9120652
  33 BEND      3  2  4                  2.1069743     120.7207329
  34 BEND      3  6  8                  1.9404726     111.1808907
  35 BEND      3  6 15                  1.9223504     110.1425622
  36 BEND      3  6 16                  1.9165481     109.8101161
  37 BEND      5  7 17                  1.9381224     111.0462321
  38 BEND      5  7 18                  1.9493373     111.6887974
  39 BEND      5  7 19                  1.9507415     111.7692534
  40 BEND      5  1 10                  1.9210967     110.0707323
  41 BEND      5  1  9                  1.9148185     109.7110175
  42 BEND      6  8 22                  1.9494059     111.6927314
  43 BEND      6  3 11                  1.9082208     109.3329965
  44 BEND      6  3 12                  1.9281054     110.4722998
  45 BEND      6  8 20                  1.9404641     111.1804033
  46 BEND      6  8 21                  1.9484974     111.6406791
  47 BEND      7  5 14                  1.9081080     109.3265344
  48 BEND      7  5 13                  1.9205841     110.0413628
  49 BEND      8  6 15                  1.9163991     109.8015820
  50 BEND      8  6 16                  1.9205267     110.0380745
  51 BEND      9  1 10                  1.8433984     105.6189472
  52 BEND     11  3 12                  1.8433036     105.6135142
  53 BEND     13  5 14                  1.8447929     105.6988482
  54 BEND     15  6 16                  1.8452619     105.7257203
  55 BEND     17  7 18                  1.8734131     107.3386657
  56 BEND     17  7 19                  1.8735922     107.3489281
  57 BEND     18  7 19                  1.8746853     107.4115547
  58 BEND     20  8 21                  1.8747677     107.4162777
  59 BEND     20  8 22                  1.8741220     107.3792822
  60 BEND     21  8 22                  1.8726481     107.2948352
  61 TORSION   1  5  7 19               1.0422228      59.7149665
  62 TORSION   1  2  3  6               1.0878341      62.3283043
  63 TORSION   1  5  7 17               3.1339694     179.5632224
  64 TORSION   1  2  3 11              -3.0630893    -175.5020884
  65 TORSION   1  5  7 18              -1.0586399     -60.6556003
  66 TORSION   1  2  3 12              -1.0481621     -60.0552628
  67 TORSION   2  1  5 14              -2.7099214    -155.2670611
  68 TORSION   2  3  6  8               3.0849381     176.7539321
  69 TORSION   2  3  6 15              -1.0699075     -61.3011832
  70 TORSION   2  3  6 16               0.9553454      54.7372574
  71 TORSION   2  1  5  7               1.4550343      83.3673256
  72 TORSION   2  1  5 13              -0.6943830     -39.7852172
  73 TORSION   3  2  1 10              -1.2072777     -69.1719142
  74 TORSION   3  2  1  9               0.7750461      44.4068679
  75 TORSION   3  2  1  5               2.9198022     167.2923431
  76 TORSION   3  6  8 20               3.1310760     179.3974402
  77 TORSION   3  6  8 21               1.0377544      59.4589488
  78 TORSION   3  6  8 22              -1.0589942     -60.6758974
  79 TORSION   4  2  1 10               1.9461574     111.5066063
  80 TORSION   4  2  3  6              -2.0652437    -118.3297496
  81 TORSION   4  2  3 11               0.0670182       3.8398577
  82 TORSION   4  2  1  9              -2.3547042    -134.9146116
  83 TORSION   4  2  1  5              -0.2099480     -12.0291364
  84 TORSION   4  2  3 12               2.0819454     119.2866834
  85 TORSION   7  5  1 10              -0.6810744     -39.0226894
  86 TORSION   7  5  1  9              -2.7023399    -154.8326729
  87 TORSION   8  6  3 11               0.9414464      53.9409031
  88 TORSION   8  6  3 12              -1.0798785     -61.8724788
  89 TORSION   9  1  5 14              -0.5841104     -33.4670597
  90 TORSION   9  1  5 13               1.4314280      82.0147842
  91 TORSION  10  1  5 13              -2.8304918    -162.1752322
  92 TORSION  10  1  5 14               1.4371551      82.3429239
  93 TORSION  11  3  6 16              -1.1881464     -68.0757716
  94 TORSION  11  3  6 15               3.0697861     175.8857878
  95 TORSION  12  3  6 16               3.0737141     176.1108465
  96 TORSION  12  3  6 15               1.0484613      60.0724059
  97 TORSION  13  5  7 19              -3.0906456    -177.0809479
  98 TORSION  13  5  7 18               1.0916770      62.5484852
  99 TORSION  13  5  7 17              -0.9988989     -57.2326920
 100 TORSION  14  5  7 19              -1.0718549     -61.4127605
 101 TORSION  14  5  7 18               3.1104677     178.2166726
 102 TORSION  14  5  7 17               1.0198918      58.4354954
 103 TORSION  15  6  8 21              -1.0940406     -62.6839099
 104 TORSION  15  6  8 20               0.9992810      57.2545816
 105 TORSION  15  6  8 22               3.0923961     177.1812439
 106 TORSION  16  6  8 21              -3.1181505    -178.6568643
 107 TORSION  16  6  8 20              -1.0248289     -58.7183729
 108 TORSION  16  6  8 22               1.0682862      61.2082895

     ------------------------------------------
     THE POINT GROUP IS C1 , NAXIS= 1, ORDER= 1
     ------------------------------------------

     DIMENSIONS OF THE SYMMETRY SUBSPACES ARE
 A   =  236

 ..... DONE SETTING UP THE RUN .....
 STEP CPU TIME =     0.02 TOTAL CPU TIME =        0.0 (    0.0 MIN)
 TOTAL WALL CLOCK TIME=        0.0 SECONDS, CPU UTILIZATION IS 100.00%


          -----------------------------
          STATIONARY POINT LOCATION RUN
          -----------------------------

 OBTAINING INITIAL HESSIAN, HESS=GUESS   
 DIAGONAL GUESS HESSIAN IN INTERNAL COORDS IS
     1  0.3743     2  0.3340     3  0.3332     4  0.3787     5  0.5462
     6  0.3748     7  0.3342     8  0.3333     9  0.3738    10  0.3347
    11  0.3797    12  0.3343    13  0.3347    14  0.3339    15  0.3802
    16  0.3409    17  0.3412    18  0.3414    19  0.3409    20  0.3410
    21  0.3415    22  0.2236    23  0.2504    24  0.2593    25  0.2504
    26  0.2236    27  0.2235    28  0.2499    29  0.2503    30  0.2236
    31  0.2239    32  0.2238    33  0.2589    34  0.2504    35  0.2235
    36  0.2236    37  0.2247    38  0.2246    39  0.2246    40  0.2235
    41  0.2235    42  0.2247    43  0.2235    44  0.2235    45  0.2247
    46  0.2247    47  0.2240    48  0.2241    49  0.2240    50  0.2241
    51  0.2015    52  0.2015    53  0.2016    54  0.2016    55  0.2026
    56  0.2026    57  0.2026    58  0.2026    59  0.2026    60  0.2026
    61  0.2500    62  0.2500    63  0.2500    64  0.2500    65  0.2500
    66  0.2500    67  0.2500    68  0.2500    69  0.2500    70  0.2500
    71  0.2500    72  0.2500    73  0.2500    74  0.2500    75  0.2500
    76  0.2500    77  0.2500    78  0.2500    79  0.2500    80  0.2500
    81  0.2500    82  0.2500    83  0.2500    84  0.2500    85  0.2500
    86  0.2500    87  0.2500    88  0.2500    89  0.2500    90  0.2500
    91  0.2500    92  0.2500    93  0.2500    94  0.2500    95  0.2500
    96  0.2500    97  0.2500    98  0.2500    99  0.2500   100  0.2500
   101  0.2500   102  0.2500   103  0.2500   104  0.2500   105  0.2500
   106  0.2500   107  0.2500   108  0.2500
 TRANSFORMING HESSIAN TO SYMMETRY COORDINATES

          PARAMETERS CONTROLLING GEOMETRY SEARCH ARE
          METHOD =QA                  UPHESS =BFGS    
          NNEG   =         0          NFRZ   =         3
          NSTEP  =        50          IFOLOW =         1
          HESS   =GUESS               RESTAR =         F
          IHREP  =         0          HSSEND =         F
          NPRT   =         0          NPUN   =         0
          OPTTOL = 5.000E-04          RMIN   = 1.500E-03
          RMAX   = 1.000E-01          RLIM   = 7.000E-02
          DXMAX  = 3.000E-01          PURIFY =         F
          MOVIE  =         F          TRUPD  =         T
          TRMAX  = 5.000E-01          TRMIN  = 5.000E-02
          ITBMAT =         5          STPT   =         F
          STSTEP = 1.000E-02          PROJCT=          F
          FROZEN COORD(S)=   1   2   3


      ***** EQUILIBRIUM GEOMETRY LOCATED *****
            (SUBJECT TO   3 CONSTRAINT(S))
 COORDINATES OF ALL ATOMS ARE (ANGS)
   ATOM   CHARGE       X              Y              Z
 ------------------------------------------------------------
 C           6.0   2.1064971149   2.1126963163   2.0396321207
 C           6.0   3.2555325745   1.1770420584   1.7246517263
 C           6.0   4.4460285332   1.7729781663   0.9999330146
 O           8.0   3.2279035500   0.0139276120   2.0058691060
 C           6.0   0.8481139358   1.4509952336   2.5996982804
 C           6.0   5.1446499575   2.9080692031   1.7622189604
 C           6.0   0.9544949130   1.0799329310   4.0791328523
 C           6.0   6.3151378839   3.4885687771   0.9715606301
 H           1.0   1.8838324513   2.6548315899   1.1236566399
 H           1.0   2.4767459530   2.8607208927   2.7367826574
 H           1.0   5.1450032441   0.9667816476   0.8062531437
 H           1.0   4.0925913289   2.1457969155   0.0406906475
 H           1.0   0.6102522915   0.5686751663   2.0131758553
 H           1.0   0.0223627941   2.1450833493   2.4685699674
 H           1.0   4.4380559384   3.7019548126   1.9799832083
 H           1.0   5.5000040764   2.5299678779   2.7182497464
 H           1.0   0.0247644903   0.6445220991   4.4343913993
 H           1.0   1.7489106061   0.3615991961   4.2496725101
 H           1.0   1.1599503726   1.9611213534   4.6824186878
 H           1.0   6.7969193321   4.2864306353   1.5285593065
 H           1.0   5.9741802443   3.8989115270   0.0246402173
 H           1.0   7.0618376126   2.7283634491   0.7592642060


                     --------------------
                     INTERNAL COORDINATES
                     --------------------

                 - - ATOMS - -         COORDINATE      COORDINATE
 NO.   TYPE    I  J  K  L  M  N        (BOHR,RAD)       (ANG,DEG)
 ----------------------------------------------------------------
   1 STRETCH   1  5                     2.8876662       1.5280873
   2 STRETCH   1  9                     2.0549424       1.0874288
   3 STRETCH   1 10                     2.0550662       1.0874943
   4 STRETCH   1  2                     2.8627596       1.5149073
   5 STRETCH   2  4                     2.2619016       1.1969469
   6 STRETCH   2  3                     2.8644392       1.5157961
   7 STRETCH   3 12                     2.0562942       1.0881441
   8 STRETCH   3 11                     2.0493121       1.0844493
   9 STRETCH   3  6                     2.9015654       1.5354424
  10 STRETCH   5 13                     2.0519635       1.0858524
  11 STRETCH   5  7                     2.8893229       1.5289640
  12 STRETCH   5 14                     2.0534792       1.0866545
  13 STRETCH   6 16                     2.0555772       1.0877647
  14 STRETCH   6 15                     2.0501138       1.0848736
  15 STRETCH   6  8                     2.8858797       1.5271419
  16 STRETCH   7 19                     2.0550792       1.0875012
  17 STRETCH   7 18                     2.0494454       1.0845199
  18 STRETCH   7 17                     2.0529330       1.0863654
  19 STRETCH   8 22                     2.0532396       1.0865277
  20 STRETCH   8 21                     2.0538910       1.0868724
  21 STRETCH   8 20                     2.0518495       1.0857921
  22 BEND      1  5 14                  1.8806959     107.7559393
  23 BEND      1  5  7                  1.9849717     113.7304983
  24 BEND      1  2  4                  2.1339028     122.2636221
  25 BEND      1  2  3                  2.0401349     116.8911197
  26 BEND      1  5 13                  1.9116367     109.5287131
  27 BEND      2  3 11                  1.8747921     107.4176771
  28 BEND      2  3  6                  1.9939400     114.2443451
  29 BEND      2  1  5                  2.0190254     115.6816352
  30 BEND      2  3 12                  1.8766142     107.5220726
  31 BEND      2  1  9                  1.8630282     106.7436533
  32 BEND      2  1 10                  1.8753720     107.4509018
  33 BEND      3  2  4                  2.1088867     120.8303090
  34 BEND      3  6  8                  1.9527219     111.8827247
  35 BEND      3  6 15                  1.9222689     110.1378932
  36 BEND      3  6 16                  1.9049958     109.1482198
  37 BEND      5  7 17                  1.9327966     110.7410902
  38 BEND      5  7 18                  1.9432113     111.3378080
  39 BEND      5  7 19                  1.9318624     110.6875624
  40 BEND      5  1 10                  1.9211873     110.0759256
  41 BEND      5  1  9                  1.9347678     110.8540316
  42 BEND      6  8 22                  1.9411429     111.2192964
  43 BEND      6  3 11                  1.9230123     110.1804905
  44 BEND      6  3 12                  1.9093797     109.3994005
  45 BEND      6  8 20                  1.9324437     110.7208663
  46 BEND      6  8 21                  1.9327926     110.7408563
  47 BEND      7  5 14                  1.9014370     108.9443127
  48 BEND      7  5 13                  1.9184511     109.9191499
  49 BEND      8  6 15                  1.9017704     108.9634157
  50 BEND      8  6 16                  1.9142878     109.6806130
  51 BEND      9  1 10                  1.8408440     105.4725924
  52 BEND     11  3 12                  1.8824362     107.8556492
  53 BEND     13  5 14                  1.8622784     106.7006925
  54 BEND     15  6 16                  1.8657721     106.9008643
  55 BEND     17  7 18                  1.8859886     108.0591867
  56 BEND     17  7 19                  1.8807708     107.7602264
  57 BEND     18  7 19                  1.8871195     108.1239826
  58 BEND     20  8 21                  1.8846236     107.9809758
  59 BEND     20  8 22                  1.8853842     108.0245595
  60 BEND     21  8 22                  1.8854779     108.0299232
  61 TORSION   1  5  7 19               1.0239962      58.6706624
  62 TORSION   1  2  3  6               1.0559391      60.5008561
  63 TORSION   1  5  7 17               3.1087818     178.1200752
  64 TORSION   1  2  3 11              -3.0886092    -176.9642704
  65 TORSION   1  5  7 18              -1.0756036     -61.6275466
  66 TORSION   1  2  3 12              -1.0666203     -61.1128402
  67 TORSION   2  1  5 14              -2.8175894    -161.4359788
  68 TORSION   2  3  6  8              -3.1198517    -178.7543351
  69 TORSION   2  3  6 15              -1.0018738     -57.4031375
  70 TORSION   2  3  6 16               1.0414158      59.6687292
  71 TORSION   2  1  5  7               1.3559595      77.6907578
  72 TORSION   2  1  5 13              -0.7981546     -45.7308928
  73 TORSION   3  2  1 10              -1.1248594     -64.4496975
  74 TORSION   3  2  1  9               0.8428814      48.2935469
  75 TORSION   3  2  1  5               3.0046464     172.1535584
  76 TORSION   3  6  8 20              -3.1383732    -179.8155393
  77 TORSION   3  6  8 21               1.0548305      60.4373331
  78 TORSION   3  6  8 22              -1.0419470     -59.6991670
  79 TORSION   4  2  1 10               2.0411081     116.9468788
  80 TORSION   4  2  3  6              -2.1096568    -120.8744297
  81 TORSION   4  2  3 11               0.0289802       1.6604437
  82 TORSION   4  2  1  9              -2.2743364    -130.3098768
  83 TORSION   4  2  1  5              -0.1125714      -6.4498653
  84 TORSION   4  2  3 12               2.0509691     117.5118740
  85 TORSION   7  5  1 10              -0.7734753     -44.3168674
  86 TORSION   7  5  1  9              -2.8034050    -160.6232764
  87 TORSION   8  6  3 11               1.0511995      60.2292925
  88 TORSION   8  6  3 12              -1.0154302     -58.1798631
  89 TORSION   9  1  5 14              -0.6937686     -39.7500131
  90 TORSION   9  1  5 13               1.3256661      75.9550729
  91 TORSION  10  1  5 13              -2.9275894    -167.7385180
  92 TORSION  10  1  5 14               1.3361612      76.5563959
  93 TORSION  11  3  6 16              -1.0707184     -61.3476432
  94 TORSION  11  3  6 15              -3.1140079    -178.4195100
  95 TORSION  12  3  6 16              -3.1373480    -179.7567988
  96 TORSION  12  3  6 15               1.1025478      63.1713345
  97 TORSION  13  5  7 19              -3.1087921    -178.1206649
  98 TORSION  13  5  7 18               1.0747934      61.5811262
  99 TORSION  13  5  7 17              -1.0240065     -58.6712521
 100 TORSION  14  5  7 19              -1.0739790     -61.5344612
 101 TORSION  14  5  7 18               3.1096065     178.1673299
 102 TORSION  14  5  7 17               1.0108066      57.9149516
 103 TORSION  15  6  8 21              -1.0749390     -61.5894694
 104 TORSION  15  6  8 20               1.0150426      58.1576583
 105 TORSION  15  6  8 22               3.1114688     178.2740305
 106 TORSION  16  6  8 21              -3.1117972    -178.2928477
 107 TORSION  16  6  8 20              -1.0218156     -58.5457200
 108 TORSION  16  6  8 22               1.0746106      61.5706523

          INTERNUCLEAR DISTANCES (ANGS.)


 =====================================================
   GAMESS/COSab RESULTS
 =====================================================

   Dielectric Constant                  = INFTY
   Basic Grid Size                      =                 1082
   Number of Segments                   =                   92
   Number of Segments located on spheres=                  279
   Number of Segments of the cavity     =                  739
   Solvent Radius (rsolv)               = 1.40
   Outlying Charge Error Method         = double cavity

 =====================================================

  Total solvated Energy (a.u.)          =  -348.1973741029
  Total Energy corrected (a.u.)         =  -348.1970260758

  Outlying charge effect (a.u.)         =     0.0003480270
  Outlying charge effect (kcal/mol)     =     0.2183904516

  Dielectric Energy (a.u.)              =    -0.0122940130
  Dielectric energy corr. (a.u.)        =    -0.0119459859

  Sum of polarization charges           =     0.0270887871
  Sum of polarization charges(cor.)     =    -0.0270887871

  Total surface area of cavity (A**2)   =  173.09
  Total volume of cavity (A**3)         =  168.50

 =====================================================
 NPS=                   739
NR.  ATOM  (X, Y, Z)(a.u.)                  CHARGE(e)  AREA(A**2) SIGMA(e/A**2)
   1   1   2.100409   7.257931   4.146076   0.000179   0.232280   0.000772
   2   1   2.080493   7.177533   3.127399   0.000183   0.325193   0.000562
   3   1   2.973947   2.944823   0.365318  -0.000159   0.185824  -0.000855
   4   1   2.393933   2.572204   0.731932  -0.000146   0.092912  -0.001576
   5   1   3.042436   7.649086   4.034981   0.001071   0.464561   0.002305
   6   1   3.969455   7.750566   3.453835   0.000411   0.232280   0.001769
   7   1   2.384694   7.190460   5.082944  -0.000053   0.325193  -0.000164
   8   1   3.419782   7.644118   3.057683   0.000229   0.139368   0.001647
   9   1   2.403230   3.088113   0.541021  -0.000016   0.046456  -0.000341
  10   2   4.419071   0.401020   0.438349  -0.000276   0.232280  -0.001189
  11   2   4.115150   1.132873   0.268451  -0.001610   0.278737  -0.005776
  12   2   5.420164   0.617044  -0.082348  -0.001131   0.418105  -0.002705
  13   2   4.616493   1.806859  -0.169009  -0.002865   0.325193  -0.008811
  14   2   7.451237   1.934578   6.796414  -0.000883   0.185824  -0.004753
  15   3   7.493782   0.685217  -0.631593   0.000144   0.278737   0.000515
  16   3   9.927255   3.016701  -1.552165   0.000851   0.371649   0.002291
  17   3  10.337500   2.256296  -1.166548   0.000563   0.278737   0.002018
  18   3   8.458635   0.535687  -0.631948   0.000188   0.232280   0.000809
  19   3  10.702025   1.250305   4.030290  -0.000167   0.139368  -0.001199
  20   3   8.025425   1.355120  -1.298082   0.000527   0.325193   0.001620
  21   3   9.122780   2.104040  -1.604806   0.001050   0.325193   0.003228
  22   3   6.970870   1.620817  -1.150990  -0.000107   0.278737  -0.000382
  23   3   8.941226   1.293346  -1.234757   0.000713   0.278737   0.002558
  24   4   5.947119  -3.116140   4.606797   0.005219   0.377948   0.013808
  25   4   7.534738  -0.928905   6.546140   0.002552   0.206154   0.012379
  26   4   8.791342  -1.795890   3.794832   0.004987   0.240512   0.020736
  27   4   6.380612  -2.088062   1.337964   0.003700   0.274871   0.013459
  28   4   4.950638  -3.010612   3.935490   0.005770   0.412307   0.013994
  29   4   4.042904  -2.463486   3.423812   0.005763   0.343589   0.016772
  30   4   5.119618  -2.693230   5.276432   0.006145   0.377948   0.016258
  31   4   6.526419  -2.740958   5.441262   0.004147   0.309230   0.013409
  32   4   7.218473  -1.980998   6.089243   0.005015   0.377948   0.013270
  33   4   7.114308  -3.000227   4.403340   0.005559   0.377948   0.014708
  34   4   8.076896  -2.545202   3.998335   0.005794   0.343589   0.016864
  35   4   6.272763  -3.197384   3.413110   0.006756   0.481025   0.014046
  36   4   6.352606  -2.830628   2.261308   0.005773   0.412307   0.014002
  37   4   6.984847  -1.265320   6.638898   0.002196   0.137436   0.015981
  38   4   8.218352  -1.310798   5.861464   0.004604   0.343589   0.013399
  39   4   8.681306  -1.679527   4.785928   0.004978   0.309230   0.016099
  40   4   8.350117  -2.089027   2.777532   0.005976   0.309230   0.019326
  41   4   7.464037  -2.184558   1.837190   0.007579   0.412307   0.018381
  42   4   5.374183  -2.215535   1.551773   0.005590   0.446666   0.012515
  43   4   4.239374  -2.084254   2.163050   0.005813   0.412307   0.014098
  44   4   7.595688  -0.064056   6.674806   0.002798   0.240512   0.011634
  45   4   8.336855  -0.127666   6.143573   0.003408   0.274871   0.012400
  46   4   9.068536  -0.963247   4.669335   0.003026   0.171795   0.017614
  47   4   6.842518  -1.471049   1.002909   0.003773   0.240512   0.015686
  48   4   5.821006  -1.280704   0.827687   0.003125   0.274871   0.011370
  49   4   4.209434  -2.474292   4.649580   0.005600   0.274871   0.020372
  50   4   6.092146  -2.275450   6.085423   0.004412   0.274871   0.016052
  51   4   7.864333  -2.333204   5.163091   0.006083   0.412307   0.014755
  52   4   7.513789  -2.785510   2.978762   0.007386   0.446666   0.016537
  53   4   5.068472  -2.850132   2.682884   0.005371   0.412307   0.013027
  54   4   8.818299  -0.587497   5.463234   0.004166   0.274871   0.015156
  55   4   4.527581  -1.268269   1.257439   0.004680   0.412307   0.011351
  56   5  -1.862718   1.251223   5.142346   0.000620   0.278737   0.002223
  57   5  -0.955219   2.957384   2.138750   0.001624   0.371649   0.004369
  58   5   0.958271   6.198726   6.298348   0.000100   0.092912   0.001072
  59   5  -0.843835   2.052647   2.115665   0.001218   0.278737   0.004370
  60   5  -1.461571   0.562386   4.533509   0.000593   0.278737   0.002126
  61   5  -2.006178   1.820150   4.272058   0.001451   0.371649   0.003904
  62   5  -1.623895   2.320958   2.990205   0.001446   0.278737   0.005189
  63   5   0.015269   2.797207   1.483249   0.001005   0.371649   0.002704
  64   5   0.774393   2.828084   1.226156   0.000160   0.139368   0.001145
  65   5  -2.144800   2.401755   5.265884   0.000603   0.278737   0.002165
  66   5  -0.157269   3.910414   1.778784   0.000630   0.278737   0.002262
  67   5   0.889134   6.312834   5.924735   0.000049   0.046456   0.001061
  68   5   0.894494   2.051555   1.264981   0.000187   0.185824   0.001008
  69   5  -1.703009   1.575707   3.499810   0.001218   0.278737   0.004368
  70   6   9.827177   7.203565   6.699902   0.001105   0.325193   0.003398
  71   6  12.173217   2.762540   4.228377   0.000010   0.092912   0.000112
  72   6   8.998342   7.570284   6.405112   0.000812   0.278737   0.002912
  73   6   7.831993   8.021342   1.248737  -0.000018   0.139368  -0.000126
  74   6   8.785650   6.548966   6.836901   0.001225   0.325193   0.003767
  75   6  10.178031   8.120533   6.010634   0.000854   0.418105   0.002043
  76   6  11.084917   7.288894   6.364943   0.000607   0.325193   0.001868
  77   6  12.353591   3.029285   4.460111   0.000035   0.046456   0.000750
  78   6   9.867275   8.788999   5.178270   0.000103   0.185824   0.000554
  79   6   7.412254   7.648574   1.253212  -0.000126   0.046456  -0.002702
  80   7   4.478593   2.011283  10.378372   0.001579   0.325193   0.004855
  81   7  -1.181328   4.214402   8.514020   0.001005   0.325193   0.003090
  82   7   1.247069  -1.538652   6.630419   0.000638   0.232280   0.002748
  83   7   1.944063  -0.850151  10.138904   0.001836   0.418105   0.004391
  84   7   0.903615   2.801664  11.299412   0.001413   0.371649   0.003803
  85   7   5.139910   2.922743   9.249974   0.001036   0.232280   0.004460
  86   7  -0.040227   2.335146  10.994379   0.001521   0.371649   0.004092
  87   7   0.987983  -0.852038   9.999832   0.001131   0.278737   0.004057
  88   7   0.483318  -1.484387   7.370753   0.001296   0.371649   0.003488
  89   7  -1.524791   3.447361   8.815983   0.000571   0.185824   0.003071
  90   7   5.172441   2.235796   9.410809   0.000960   0.232280   0.004131
  91   7   4.547256   2.931899  10.150416   0.001306   0.278737   0.004686
  92   7  -0.152172  -0.994872   6.593287   0.000628   0.232280   0.002703
  93   7   1.541575  -1.728979   7.775822   0.001188   0.278737   0.004263
  94   7   1.614412  -1.486278   9.053194   0.001711   0.325193   0.005262
  95   7   1.454834   0.117197  10.943003   0.001469   0.464561   0.003161
  96   7   1.194131   1.595294  11.411708   0.001319   0.464561   0.002839
  97   7  -0.150342   3.473305  10.609073   0.001893   0.371649   0.005093
  98   7  -0.652826   4.265923   9.524546   0.001674   0.371649   0.004503
  99   7  -0.380666   5.027957   8.476127   0.001151   0.371649   0.003097
 100   7   1.960180  -1.677567   7.049829   0.000613   0.185824   0.003300
 101   7   2.755844   0.089722  10.802171   0.001291   0.418105   0.003088
 102   7   3.642738   1.232674  10.909896   0.001488   0.418105   0.003559
 103   7   3.419987   2.351578  11.110703   0.001687   0.464561   0.003632
 104   7   2.065739   2.509424  11.449560   0.000919   0.325193   0.002826
 105   7   4.899321   3.640779   9.171855   0.000432   0.139368   0.003099
 106   7   0.637781   0.844664  11.098741   0.000749   0.278737   0.002687
 107   7   0.930851  -1.559348   8.457770   0.001312   0.278737   0.004708
 108   7  -1.707326   3.422853   7.924161   0.000583   0.232280   0.002510
 109   7  -0.984492   3.374658   9.883474   0.001436   0.325193   0.004417
 110   7   0.343763   5.521358   7.903955   0.000097   0.092912   0.001048
 111   7   2.401292   1.201626  11.344788   0.001116   0.464561   0.002403
 112   8  15.494074   6.168629   3.031650   0.001010   0.232280   0.004349
 113   8  14.506642   8.536767  -0.134967   0.000767   0.371649   0.002063
 114   8  11.289590  10.183210   0.848315   0.001627   0.371649   0.004378
 115   8  12.629328   4.375013  -1.144548   0.000493   0.139368   0.003534
 116   8  10.844915   9.603921   3.843329   0.000050   0.092912   0.000541
 117   8  11.900022  10.360829   1.549058   0.001100   0.278737   0.003945
 118   8  14.573100   9.108953   0.843084   0.001068   0.418105   0.002553
 119   8  15.306727   6.826078   3.525226   0.001601   0.371649   0.004309
 120   8  13.554224   6.789498   5.244788   0.000433   0.232280   0.001863
 121   8  13.471610   5.557677  -1.457771   0.001538   0.325193   0.004728
 122   8  12.812910   5.830010  -1.759873   0.000978   0.232280   0.004211
 123   8  14.184459   5.734862   4.748668   0.000861   0.325193   0.002647
 124   8  14.931432   5.674832   3.947127   0.001263   0.325193   0.003883
 125   8  15.688194   6.969706   2.052739   0.002264   0.511017   0.004431
 126   8  15.307039   7.905626   0.749012   0.001059   0.418105   0.002533
 127   8  13.542086   9.346598  -0.191936   0.001442   0.418105   0.003449
 128   8  12.411911  10.053140   0.394028   0.001586   0.325193   0.004876
 129   8  10.778679  10.186153   2.023055   0.001017   0.325193   0.003129
 130   8  10.280620   9.896540   2.632184   0.000315   0.139368   0.002262
 131   8  13.705905   3.946098   3.870949   0.000100   0.092912   0.001074
 132   8  14.540363   6.369175  -0.891755   0.001184   0.371649   0.003185
 133   8  14.808277   7.434471  -0.469007   0.001045   0.464561   0.002250
 134   8  13.872776   8.224065  -0.968056   0.000791   0.325193   0.002433
 135   8  10.236388   9.861602   0.990196   0.000818   0.278737   0.002936
 136   8   9.284402   9.149526   0.984012   0.000229   0.185824   0.001234
 137   8  12.172716   4.974962  -1.571497   0.001630   0.371649   0.004386
 138   8  10.895983  10.046670   2.965294   0.000300   0.139368   0.002153
 139   8  13.364129   9.877964   0.634358   0.001239   0.325193   0.003811
 140   8  15.453383   7.963168   1.700409   0.000861   0.278737   0.003089
 141   8  14.553940   6.569291   4.559770   0.000722   0.232280   0.003106
 142   8  13.796468   6.976906  -1.430071   0.001469   0.418105   0.003513
 143   8  14.270296   4.702040   4.127667   0.000845   0.325193   0.002597
 144   8  15.463062   6.813162   0.501697   0.000921   0.371649   0.002479
 145   8   9.816530   9.715474   1.617437   0.000508   0.232280   0.002186
 146   9   3.108958   6.407710   0.149216  -0.003238   0.431809  -0.007499
 147   9   1.799120   5.369872   0.447073  -0.001771   0.294415  -0.006015
 148   9   3.058256   4.278411  -0.165273  -0.001728   0.294415  -0.005871
 149   9   3.686303   7.390936   1.504415  -0.001696   0.333671  -0.005084
 150   9   2.070223   6.919014   1.678544  -0.001615   0.333671  -0.004839
 151   9   2.230173   4.698371   0.082476  -0.001768   0.333671  -0.005297
 152   9   3.155484   5.466923  -0.257567  -0.003251   0.412182  -0.007887
 153   9   4.035275   6.870535   0.582874  -0.002706   0.314043  -0.008615
 154   9   2.881013   7.170634   1.156104  -0.001930   0.353299  -0.005464
 155   9   1.867571   6.236404   0.825760  -0.002997   0.471065  -0.006362
 156  10   5.421401   6.940330   6.941434  -0.002555   0.294415  -0.008677
 157  10   3.591389   7.292311   6.307954  -0.001256   0.215905  -0.005819
 158  10   4.276227   7.819256   5.390488  -0.001358   0.274788  -0.004941
 159  10   5.750680   5.987716   7.305100  -0.002702   0.255160  -0.010589
 160  10   4.600424   7.085040   6.963253  -0.001976   0.235532  -0.008391
 161  10   4.175341   7.575171   6.208402  -0.001134   0.196277  -0.005777
 162  10   4.929908   7.636210   6.171207  -0.001553   0.176649  -0.008791
 163  11  11.367537   0.105198   0.919443  -0.002510   0.392554  -0.006393
 164  11  11.363712   0.650526   2.922898  -0.002083   0.392554  -0.005307
 165  11  10.776006   1.052327  -0.556178  -0.001002   0.314043  -0.003190
 166  11   9.618322  -0.202908   0.143779  -0.001452   0.333671  -0.004352
 167  11  11.002769  -0.139601   2.250976  -0.002144   0.372926  -0.005749
 168  11  11.832136   0.595259   1.784532  -0.002508   0.372926  -0.006726
 169  11  11.527710   0.881599   0.151324  -0.002537   0.392554  -0.006462
 170  11  10.419483   0.182923  -0.163615  -0.001638   0.392554  -0.004173
 171  11  10.445784  -0.485707   1.118871  -0.002490   0.392554  -0.006344
 172  12   6.930701   4.262617  -2.235438  -0.002370   0.353299  -0.006709
 173  12   6.078963   3.616777  -1.685022  -0.002794   0.392554  -0.007118
 174  12   7.918752   3.325650  -2.261691  -0.001236   0.314043  -0.003937
 175  12   8.738912   3.976956  -2.163392  -0.001351   0.274788  -0.004915
 176  12   6.784716   6.001639  -1.082717  -0.003105   0.392554  -0.007910
 177  12   6.303945   4.932577  -1.717601  -0.002695   0.353299  -0.007627
 178  12   6.951222   3.027643  -2.012873  -0.001462   0.353299  -0.004137
 179  12   7.973106   4.551742  -2.317071  -0.002448   0.353299  -0.006930
 180  12   7.399065   5.454601  -1.914095  -0.002579   0.333671  -0.007729
 181  13   0.120267  -0.696545   2.451194  -0.002034   0.412182  -0.004936
 182  13   0.806389  -1.341235   4.084250  -0.001219   0.314043  -0.003883
 183  13   1.041680   0.579196   1.400762  -0.001026   0.294415  -0.003484
 184  13  -0.634160   0.498007   2.220716  -0.000644   0.333671  -0.001931
 185  13  -0.751742  -0.472783   3.912515  -0.000614   0.274788  -0.002233
 186  13   0.985067  -1.243373   3.008331  -0.001829   0.353299  -0.005178
 187  13   1.228995  -0.518855   1.936153  -0.002153   0.412182  -0.005223
 188  13   0.183074   0.421474   1.643949  -0.001175   0.392554  -0.002993
 189  13  -0.838607  -0.104475   2.981291  -0.001070   0.392554  -0.002725
 190  13  -0.085966  -1.046255   3.840615  -0.001366   0.392554  -0.003479
 191  14  -1.852487   5.577526   4.314595  -0.002918   0.549575  -0.005309
 192  14  -0.463527   6.412080   4.199197  -0.001198   0.333671  -0.003590
 193  14  -0.728188   6.033684   5.898144  -0.000693   0.353299  -0.001962
 194  14  -2.216487   4.320229   5.593416  -0.001130   0.372926  -0.003031
 195  14  -2.190121   3.853384   3.659192  -0.000639   0.372926  -0.001713
 196  14  -0.986706   5.021722   2.655176  -0.000872   0.333671  -0.002613
 197  14  -0.645618   6.379133   5.057196  -0.001435   0.412182  -0.003482
 198  14  -1.763242   5.402760   5.642204  -0.001797   0.471065  -0.003816
 199  14  -2.408880   4.215746   4.637673  -0.001422   0.431809  -0.003293
 200  14  -1.810563   4.679440   3.178153  -0.001470   0.451437  -0.003257
 201  14  -0.907118   5.912212   3.369014  -0.001862   0.451437  -0.004124
 202  15   7.153310   9.087164   4.115223  -0.002040   0.294415  -0.006930
 203  15   7.430747   8.760146   2.324613  -0.001016   0.294415  -0.003450
 204  15   8.482557   9.387483   4.294108  -0.001329   0.333671  -0.003984
 205  15   7.921192   8.317767   5.759179  -0.000979   0.255160  -0.003838
 206  15   6.909733   8.828103   3.037416  -0.001836   0.314043  -0.005847
 207  15   7.867812   9.366759   3.362315  -0.001263   0.353299  -0.003576
 208  15   8.400414   8.978685   5.191676  -0.000883   0.294415  -0.003000
 209  15   7.431700   8.880587   4.994717  -0.001701   0.294415  -0.005778
 210  16  11.298628   4.020378   7.290200  -0.002835   0.510320  -0.005556
 211  16  12.513518   4.246359   6.256955  -0.001047   0.294415  -0.003556
 212  16  11.530567   2.717938   5.834023  -0.001287   0.353299  -0.003643
 213  16   9.622635   5.064380   7.452016  -0.001208   0.392554  -0.003076
 214  16  11.540185   5.909585   6.993188  -0.000884   0.353299  -0.002502
 215  16  12.137395   3.401401   6.181164  -0.001671   0.431809  -0.003869
 216  16  10.748351   2.962035   6.749424  -0.002393   0.451437  -0.005301
 217  16  10.006783   3.888493   7.392635  -0.002447   0.451437  -0.005420
 218  16  10.688486   5.355768   7.506899  -0.001739   0.490692  -0.003543
 219  16  12.110482   5.012694   6.878404  -0.001667   0.471065  -0.003538
 220  17  -2.041415   0.267331   9.257739  -0.003485   0.608459  -0.005728
 221  17  -2.291140   0.851805   7.720170  -0.001234   0.353299  -0.003493
 222  17  -2.047748   2.214434   9.189145  -0.000669   0.333671  -0.002005
 223  17  -1.067845   1.135608  10.567464  -0.000779   0.353299  -0.002205
 224  17  -0.485903  -0.785980   9.697194  -0.000749   0.372926  -0.002008
 225  17  -1.117072  -0.847875   7.737274  -0.000675   0.353299  -0.001911
 226  17  -2.378362   1.609949   8.370957  -0.001700   0.490692  -0.003464
 227  17  -1.806386   1.569618   9.953696  -0.001689   0.490692  -0.003442
 228  17  -0.967997   0.065215  10.297207  -0.001814   0.510320  -0.003555
 229  17  -1.117080  -0.890830   8.863005  -0.001817   0.490692  -0.003703
 230  17  -1.922414  -0.124305   7.783435  -0.001814   0.490692  -0.003697
 231  18   4.643596  -1.173221   8.923104  -0.002581   0.431809  -0.005977
 232  18   5.511055   0.833330   9.101110  -0.001031   0.314043  -0.003284
 233  18   3.337369  -1.601255   8.933323  -0.000527   0.255160  -0.002066
 234  18   4.206277  -0.358239  10.064886  -0.000710   0.333671  -0.002129
 235  18   5.295119  -0.277454   9.103681  -0.001635   0.314043  -0.005205
 236  18   3.586944  -1.756593   8.079128  -0.001204   0.353299  -0.003408
 237  18   3.720241  -1.156434   9.604848  -0.000821   0.333671  -0.002461
 238  18   4.930106   0.286016   9.829642  -0.000658   0.294415  -0.002234
 239  19   2.473470   5.551792  10.444988  -0.002305   0.451437  -0.005106
 240  19   4.220323   4.740771   9.770538  -0.001066   0.333671  -0.003194
 241  19   3.321199   4.070978  10.999476  -0.000678   0.353299  -0.001919
 242  19   1.203235   4.613249  10.906226  -0.000700   0.372926  -0.001877
 243  19   0.905356   5.765895   9.217785  -0.000715   0.372926  -0.001918
 244  19   3.202727   5.808037   9.619752  -0.002269   0.412182  -0.005506
 245  19   3.723269   4.758582  10.455443  -0.001396   0.392554  -0.003557
 246  19   2.311685   4.446691  11.187738  -0.001512   0.471065  -0.003210
 247  19   1.150972   5.430603  10.254550  -0.001572   0.471065  -0.003337
 248  19   1.941643   6.138427   9.084267  -0.002312   0.510320  -0.004530
 249  20  13.908387   9.956126   4.096168  -0.003523   0.588831  -0.005982
 250  20  15.009384   8.243280   4.040547  -0.000781   0.372926  -0.002094
 251  20  13.507609   8.368446   5.238708  -0.001012   0.353299  -0.002865
 252  20  12.061521   9.941093   4.314538  -0.001163   0.353299  -0.003292
 253  20  12.989644  10.532179   2.573351  -0.000850   0.372926  -0.002280
 254  20  14.775718   9.546027   2.425671  -0.001048   0.412182  -0.002542
 255  20  14.318181   8.674010   4.768331  -0.002032   0.490692  -0.004142
 256  20  12.882230   9.399163   4.973347  -0.001996   0.490692  -0.004068
 257  20  12.588629  10.436315   3.604254  -0.001801   0.471065  -0.003822
 258  20  13.995918  10.258348   2.662290  -0.001860   0.471065  -0.003949
 259  20  15.022732   9.105095   3.417437  -0.001921   0.490692  -0.003916
 260  21  10.750471   8.495775  -2.068232  -0.002567   0.471065  -0.005449
 261  21  11.149178   6.505547  -2.249480  -0.001110   0.353299  -0.003143
 262  21  12.347173   7.694667  -2.146569  -0.000841   0.353299  -0.002381
 263  21  11.677827   9.501010  -1.108482  -0.000841   0.372926  -0.002256
 264  21   9.735592   9.198364  -0.472650  -0.000876   0.372926  -0.002350
 265  21  10.104348   7.533455  -2.098890  -0.002415   0.412182  -0.005860
 266  21  11.507883   7.291919  -2.399191  -0.001515   0.392554  -0.003859
 267  21  12.069586   8.711720  -1.856278  -0.001673   0.471065  -0.003552
 268  21  10.632880   9.443968  -1.090859  -0.001748   0.471065  -0.003711
 269  21   9.461859   8.426451  -1.208034  -0.002450   0.490692  -0.004992
 270  22  15.279543   3.744383   0.886944  -0.002460   0.451437  -0.005450
 271  22  13.780082   3.731755  -0.519086  -0.001021   0.372926  -0.002739
 272  22  14.372497   3.327915   2.714599  -0.001236   0.353299  -0.003498
[...]
 480   5   0.288158   4.922568   2.087581  -0.000041   0.048161  -0.000857
 481   9   0.886445   5.234467   1.745027  -0.000127   0.048161  -0.002635
 482  14   0.080233   5.039069   2.275505  -0.000110   0.048161  -0.002294
 483   9   1.651972   4.225597   0.722549  -0.000843   0.193124  -0.004363
 484   9   1.254479   5.119953   1.173056  -0.000902   0.193124  -0.004670
 485   5   0.683850   4.067823   1.469928  -0.000347   0.529877  -0.000654
 486  13  -0.687825  -0.374982   4.540743  -0.000109   0.069340  -0.001573
 487  13  -1.110844   0.274523   3.735230  -0.000301   0.154102  -0.001956
 488  13  -0.922068   0.979565   2.598069  -0.000172   0.154102  -0.001119
 489  13   0.025405   1.322601   1.697804  -0.000273   0.154102  -0.001770
 490  13   1.088153   1.263184   1.356208  -0.000164   0.069340  -0.002368
 491   5  -1.027443   0.118183   4.556207  -0.000205   0.151852  -0.001353
 492   5  -1.300467   0.995132   3.347717   0.000086   0.151852   0.000569
 493   5  -0.626083   1.617186   2.138468   0.000057   0.151852   0.000378
 494   5   0.713972   1.724468   1.433646  -0.000224   0.151852  -0.001475
 495  14  -0.538389   4.784079   2.396382  -0.000165   0.073992  -0.002224
 496  14  -1.304665   3.928374   2.692492  -0.000249   0.166779  -0.001492
 497  14  -2.021536   3.273673   3.741434  -0.000310   0.166779  -0.001856
 498  14  -2.187622   3.343941   5.159283  -0.000444   0.166779  -0.002660
 499   5  -0.582363   4.181990   2.264761  -0.000207   0.159905  -0.001295
 500   5  -1.566252   3.150747   3.002109   0.000068   0.159905   0.000422
 501   5  -2.094077   2.801377   4.476737  -0.000073   0.159905  -0.000455
 502   5  -2.065188   3.077419   5.755955  -0.000078   0.090397  -0.000859
 503  14   0.013306   6.103923   5.908342  -0.000411   0.126710  -0.003245
 504   5   0.517742   6.176075   5.892080  -0.000291   0.154804  -0.001877
 505  17  -2.073865   1.874518   7.249494  -0.000279   0.203823  -0.001371
 506  17  -1.658148   0.531479   6.845692  -0.001257   0.417581  -0.003011
 507   5  -1.876450   1.739202   6.029131   0.000473   0.557865   0.000847
 508   5  -1.268144   0.239967   5.643097   0.000533   0.287054   0.001858
 509  19   1.500417   5.955462   7.989269  -0.000339   0.166777  -0.002035
 510   5   1.085723   6.025520   6.933327   0.000227   0.234975   0.000965
 511   6   8.283820   8.500381   1.527891  -0.000046   0.028322  -0.001613
 512   8   8.689725   8.660412   1.287922  -0.000009   0.028322  -0.000328
 513  15   8.124909   8.584668   1.770801  -0.000093   0.028322  -0.003283
 514   6   9.872275   9.140264   4.349248  -0.000039   0.028322  -0.001379
 515   8  10.257727   9.292055   4.072952   0.000016   0.028322   0.000558
 516  15   9.571372   9.167352   4.339958  -0.000065   0.028322  -0.002300
 517   6  12.242404   6.542232   5.955907  -0.000030   0.027672  -0.001074
 518   8  12.603189   6.720575   5.662722   0.000003   0.027672   0.000107
 519  16  12.189048   6.293871   6.122186  -0.000068   0.027672  -0.002445
 520   6  12.770663   3.653666   4.617146  -0.000020   0.027672  -0.000725
 521   8  13.124555   3.869693   4.341426   0.000027   0.027672   0.000994
 522  16  12.669972   3.664129   4.903383  -0.000051   0.027672  -0.001833
 523   6  10.484683   9.155407   4.397459   0.000013   0.026180   0.000483
 524   8  10.859316   9.381944   4.160353  -0.000021   0.026180  -0.000799
 525  20  11.145932   9.467868   4.205534  -0.000042   0.026180  -0.001606
 526   6  12.352553   7.133457   5.678137   0.000001   0.026180   0.000048
 527   8  12.752289   7.332821   5.458242  -0.000025   0.026180  -0.000968
 528  20  12.868888   7.602787   5.386854  -0.000057   0.026180  -0.002162
 529   6   8.537967   8.238510   0.842035  -0.000030   0.026236  -0.001148
 530   8   8.891370   8.455078   0.566186  -0.000042   0.026236  -0.001593
 531  21   8.998303   8.456301   0.282545  -0.000077   0.026236  -0.002953
 532   6  12.959938   3.402084   3.834083  -0.000016   0.025553  -0.000614
 533   8  13.366448   3.560419   3.594190  -0.000029   0.025553  -0.001144
 534  22  13.542514   3.494382   3.356678  -0.000055   0.025553  -0.002137
 535   8  12.766489   7.107762   5.544663   0.000046   0.049830   0.000929
 536   6  12.246507   6.783044   5.915052   0.000045   0.049830   0.000905
 537   8  13.366698   3.754410   3.971170   0.000096   0.088684   0.001087
 538   6  12.799620   3.415150   4.261162   0.000052   0.088684   0.000583
 539   8   8.832617   8.599516   0.816198   0.000038   0.074737   0.000513
 540   6   8.302157   8.385801   1.252575   0.000016   0.074737   0.000219
 541   8  10.621496   9.423084   4.069127   0.000061   0.038441   0.001586
 542   6  10.103539   9.138561   4.472025   0.000038   0.038441   0.000981
 543   6   6.833858   6.807352   0.904030  -0.000950   0.243989  -0.003892
 544   9   5.632854   6.504307   0.845035  -0.001471   0.243989  -0.006030
 545  12   6.558916   6.370856   0.342719  -0.001480   0.243989  -0.006066
 546   6   6.808693   7.443537   1.638403  -0.000419   0.113486  -0.003694
 547   9   5.640354   7.053229   1.602441  -0.000519   0.113486  -0.004572
 548  15   6.700394   7.605940   1.875361  -0.000531   0.113486  -0.004679
 549   9   5.040345   6.987334   1.094787  -0.000491   0.133633  -0.003678
 550   6   6.817844   7.386988   1.145806   0.000239   0.196099   0.001220
 551   6   7.715244   7.089822   6.236112  -0.000166   0.082823  -0.002000
 552  10   6.708538   6.901788   6.341151  -0.000666   0.082823  -0.008041
 553  15   7.534304   7.297607   6.105256  -0.000382   0.082823  -0.004609
 554   6   8.130165   5.209848   6.787449  -0.000210   0.041994  -0.004996
 555  10   7.104268   5.213310   6.766894  -0.000650   0.041994  -0.015467
 556  16   8.390034   5.070771   6.856860  -0.000222   0.041994  -0.005294
 557  10   6.448539   5.592680   7.051936  -0.001720   0.235092  -0.007316
 558  10   6.340815   6.536740   6.802905  -0.001509   0.235092  -0.006421
 559   6   7.882719   6.182394   6.729864   0.000124   0.661247   0.000188
 560   6  12.335220   2.662067   3.247855  -0.000317   0.169578  -0.001872
 561  11  12.096395   2.099455   2.795647  -0.000583   0.169578  -0.003437
 562  22  12.906352   2.844324   2.775583  -0.000429   0.169578  -0.002532
 563  11  11.672047   1.503540   3.070111  -0.000617   0.153529  -0.004020
 564   6  11.870957   2.292396   3.859408  -0.000015   0.216353  -0.000069
 565   6   8.069486   7.256407   0.323237  -0.000417   0.168326  -0.002476
 566  12   7.803451   6.744296  -0.167360  -0.000804   0.168326  -0.004774
 567  21   8.598462   7.484367  -0.173953  -0.000461   0.168326  -0.002738
 568  12   7.073448   6.482184  -0.111536  -0.000613   0.099399  -0.006165
 569   6   7.539789   7.224860   0.592613  -0.000135   0.140157  -0.000962
 570  15   8.097614   7.719947   6.070244  -0.000218   0.069861  -0.003123
 571  15   8.792165   8.468951   5.593344  -0.000527   0.155609  -0.003384
 572  15   9.215373   9.078431   4.744656  -0.000211   0.069861  -0.003022
 573   6   8.694299   7.790234   6.086385  -0.000224   0.152656  -0.001468
 574   6   9.470634   8.733764   5.165702  -0.000386   0.152656  -0.002530
 575  15   7.549526   8.372250   1.913878  -0.000382   0.092786  -0.004120
 576   6   7.594011   8.050961   1.565791  -0.000350   0.113358  -0.003091
 577  16  11.710160   2.708036   5.168906  -0.000202   0.070209  -0.002881
 578  16  12.354922   3.303231   5.164646  -0.000184   0.070209  -0.002621
 579   6  12.065454   2.967045   4.756858  -0.000479   0.153567  -0.003121
 580  16  11.800917   6.228789   6.527606  -0.000187   0.075694  -0.002465
 581  16  10.676145   6.286651   6.968566  -0.000485   0.171426  -0.002832
 582  16   9.414511   5.586258   7.160511  -0.000517   0.171426  -0.003016
 583   6  11.332265   6.639572   6.481843  -0.000433   0.162885  -0.002659
 584   6   9.789894   6.364145   6.946209  -0.000140   0.162885  -0.000859
 585   6   8.769540   5.504777   6.985598  -0.000086   0.092476  -0.000928
 586  20  11.480093   9.394835   4.521622  -0.000429   0.203707  -0.002104
 587  20  12.364303   8.451119   5.207104  -0.001553   0.417388  -0.003721
 588   6  10.894792   8.557085   5.228433   0.000049   0.557525   0.000088
 589   6  11.931608   7.422508   5.867130   0.000323   0.286907   0.001126
 590  21   8.918386   8.176818  -0.132723  -0.000387   0.146196  -0.002647
 591   6   8.208538   7.965358   0.725431   0.000052   0.206024   0.000253
 592  22  13.581225   3.274722   3.090036  -0.000331   0.131637  -0.002518
 593   6  12.679636   2.982536   3.715182   0.000104   0.185503   0.000560
 594   7   4.806207   4.273195   8.586844  -0.000025   0.085771  -0.000297
 595  10   5.134975   4.844612   7.873006  -0.000411   0.085771  -0.004787
 596  19   4.645796   4.485561   8.738713  -0.000181   0.085771  -0.002108
 597  10   5.682766   4.952436   7.516061  -0.001169   0.135709  -0.008612
 598   7   5.203164   3.980630   8.460769   0.000182   0.192240   0.000946
 599  13   1.109684  -1.202538   4.776318  -0.000414   0.232325  -0.001784
 600  13  -0.104363  -0.772130   4.872096  -0.000366   0.232325  -0.001575
 601   7   0.578721  -1.015724   5.915897   0.000740   0.631703   0.001172
 602  14  -1.904516   3.915839   6.195909  -0.000408   0.218880  -0.001865
 603  14  -0.983708   5.161141   6.486564  -0.001681   0.451254  -0.003724
 604   7  -1.398009   3.983933   7.338192   0.000584   0.596623   0.000980
 605   7  -0.230802   5.326232   7.550389   0.000578   0.308379   0.001875
 606  16   8.637944   4.274140   7.174373  -0.000524   0.191635  -0.002733
 607   7   5.807743   3.289676   8.347092   0.000176   0.323861   0.000545
 608  17  -1.034835  -0.525015   7.028076  -0.000100   0.068907  -0.001455
 609  17  -0.478885  -1.060973   7.826144  -0.000307   0.152886  -0.002009
 610  17   0.008851  -1.081772   9.077069  -0.000144   0.152886  -0.000943
 611  17   0.095583  -0.350683  10.200063  -0.000275   0.152886  -0.001801
 612  17  -0.254404   0.831241  10.732694  -0.000311   0.152886  -0.002035
 613  17  -0.896990   1.977299  10.455631  -0.000205   0.152886  -0.001338
 614  17  -1.567567   2.615561   9.482965  -0.000226   0.152886  -0.001479
 615  17  -1.989999   2.483198   8.215227  -0.000353   0.152886  -0.002310
 616   7  -0.509623  -0.809467   7.029331  -0.000167   0.151147  -0.001108
 617   7   0.187592  -1.274969   8.283446   0.000081   0.151147   0.000534
 618   7   0.528284  -0.853727   9.691313   0.000079   0.151147   0.000523
 619   7   0.372159   0.280796  10.673191  -0.000069   0.151147  -0.000454
 620   7  -0.216492   1.661420  10.824757  -0.000057   0.151147  -0.000379
 621   7  -0.995271   2.719622  10.083598   0.000070   0.151147   0.000462
 622   7  -1.643487   3.019648   8.754913  -0.000125   0.151147  -0.000830
 623   7  -1.922041   2.680645   7.610451   0.000009   0.084184   0.000105
 624  18   5.437889   1.470397   8.956031  -0.000071   0.071327  -0.000996
 625  18   4.845842   1.024373   9.835245  -0.000242   0.159648  -0.001515
 626  18   3.912146   0.095992  10.274218  -0.000302   0.159648  -0.001889
 627  18   3.094769  -0.920558   9.799981  -0.000272   0.159648  -0.001702
 628  18   2.756604  -1.573957   8.623082  -0.000251   0.159648  -0.001569
 629  18   2.907053  -1.677137   7.487655  -0.000071   0.071327  -0.001002
 630   7   5.108252   1.715684   9.402750   0.000045   0.155140   0.000290
 631   7   4.173720   0.907860  10.353414   0.000000   0.155140   0.000002
 632   7   3.130858  -0.250456  10.332413  -0.000102   0.155140  -0.000659
 633   7   2.442668  -1.245003   9.349069   0.000108   0.155140   0.000694
 634   7   2.414686  -1.634233   7.839959   0.000069   0.155140   0.000447
 635  19   0.858598   5.732165   8.469338  -0.000128   0.071395  -0.001794
 636  19   0.404175   5.211987   9.383896  -0.000305   0.159506  -0.001912
 637  19   0.594530   4.407849  10.493634  -0.000197   0.159506  -0.001232
 638  19   1.584206   3.715203  11.168301  -0.000298   0.159506  -0.001871
 639  19   2.938624   3.438197  11.111642  -0.000331   0.159506  -0.002075
 640  19   4.063045   3.698468  10.348538  -0.000156   0.159506  -0.000980
 641  19   4.520484   4.217398   9.434775  -0.000078   0.071395  -0.001097
 642   7   0.370167   5.379342   8.545506  -0.000196   0.155590  -0.001257
 643   7   0.071271   4.565937   9.835401   0.000102   0.155590   0.000656
 644   7   0.773597   3.675086  10.897436   0.000053   0.155590   0.000342
 645   7   2.168746   3.097972  11.265260  -0.000079   0.155590  -0.000509
 646   7   3.644093   3.088012  10.777357  -0.000030   0.155590  -0.000192
 647   7   4.551796   3.649579   9.647970   0.000005   0.155590   0.000031
 648   8  10.737773   5.293747  -1.580321  -0.000053   0.088045  -0.000599
 649  12   9.845582   4.853021  -1.601305  -0.000190   0.088045  -0.002155
 650  21  10.654031   5.566962  -1.690447  -0.000212   0.088045  -0.002412
 651  12   9.501542   4.388739  -1.811153  -0.000046   0.033868  -0.001349
 652   8  10.814764   5.034191  -1.679456   0.000177   0.048094   0.003684
 653  15   9.220531   9.315346   4.018634  -0.000615   0.217821  -0.002821
 654  15   8.465030   9.098363   2.658252  -0.002196   0.448998  -0.004892
 655   8   9.874440   9.529717   2.976044   0.000130   0.593824   0.000219
 656   8   9.016180   9.104421   1.468470   0.000349   0.306914   0.001138
 657  16  12.727632   3.945280   5.297687  -0.000481   0.213652  -0.002250
 658  16  12.554010   5.315944   5.968902  -0.001766   0.439432  -0.004018
 659   8  13.431526   4.869587   4.839855   0.000308   0.583224   0.000528
 660   8  13.075429   6.433037   5.531717   0.000450   0.300965   0.001496
 661  20  13.375860   7.735046   5.259032  -0.000140   0.068796  -0.002032
 662  20  14.319788   7.551911   4.704900  -0.000316   0.152646  -0.002073
 663  20  15.106102   7.813889   3.649504  -0.000305   0.152646  -0.002000
 664  20  15.177749   8.551590   2.530822  -0.000307   0.152646  -0.002014
 665  20  14.505245   9.461433   1.809222  -0.000381   0.152646  -0.002498
 666  20  13.365340  10.168994   1.781658  -0.000245   0.152646  -0.001605
 667  20  12.227136  10.383095   2.459474  -0.000346   0.152646  -0.002270
 668  20  11.559030  10.015627   3.563732  -0.000430   0.152646  -0.002820
 669   8  13.649896   7.232861   5.089018  -0.000253   0.150895  -0.001680
 670   8  14.814445   7.197529   4.132341  -0.000081   0.150895  -0.000540
 671   8  15.323246   7.790375   2.843035   0.000023   0.150895   0.000150
 672   8  14.966916   8.767427   1.751682  -0.000166   0.150895  -0.001101
 673   8  13.892093   9.726605   1.307401  -0.000092   0.150895  -0.000612
 674   8  12.541093  10.273184   1.693024   0.000010   0.150895   0.000068
 675   8  11.469886  10.182232   2.749857  -0.000147   0.150895  -0.000974
 676   8  11.052335   9.703312   3.797043  -0.000049   0.084050  -0.000578
 677  21   9.302957   8.815380   0.033553  -0.000165   0.066950  -0.002458
 678  21  10.148089   9.487848   0.020667  -0.000369   0.147634  -0.002496
 679  21  11.385857   9.746859  -0.312758  -0.000213   0.147634  -0.001443
 680  21  12.442318   9.254987  -0.906293  -0.000329   0.147634  -0.002229
 681  21  12.907104   8.203294  -1.529387  -0.000354   0.147634  -0.002395
 682  21  12.599677   7.000294  -1.940008  -0.000259   0.147634  -0.001754
 683  21  11.639450   6.113276  -1.978656  -0.000247   0.147634  -0.001673
 684   8   9.557818   9.129137   0.462777  -0.000249   0.147735  -0.001687
 685   8  10.844435   9.819906   0.298863  -0.000071   0.147735  -0.000479
 686   8  12.200927   9.682224  -0.249214  -0.000069   0.147735  -0.000469
 687   8  13.100383   8.769573  -0.968560  -0.000086   0.147735  -0.000581
 688   8  13.193423   7.436458  -1.579757  -0.000073   0.147735  -0.000497
 689   8  12.443907   6.200708  -1.845393   0.000062   0.147735   0.000421
 690   8  11.447167   5.551187  -1.767977   0.000050   0.081794   0.000610
 691  22  13.143098   3.846506  -0.635078  -0.000104   0.067622  -0.001544
 692  22  13.874920   4.625849  -0.851799  -0.000199   0.149442  -0.001332
 693  22  14.825336   5.444424  -0.440157  -0.000322   0.149442  -0.002152
 694  22  15.510698   5.820535   0.623623  -0.000358   0.149442  -0.002393
 695  22  15.659144   5.604991   1.917575  -0.000238   0.149442  -0.001594
 696  22  15.211791   4.883291   2.928431  -0.000294   0.149442  -0.001967
 697  22  14.346090   3.941709   3.255220  -0.000434   0.149442  -0.002905
 698   8  13.096414   4.360719  -0.925116   0.000027   0.148897   0.000185
 699   8  14.155245   5.399440  -0.920463   0.000060   0.148897   0.000404
 700   8  15.123450   6.106566  -0.047172  -0.000130   0.148897  -0.000875
 701   8  15.616974   6.201605   1.348352  -0.000055   0.148897  -0.000369
 702   8  15.440054   5.646857   2.712551   0.000073   0.148897   0.000491
 703   8  14.662867   4.662372   3.504294  -0.000119   0.148897  -0.000802
 704   8  13.815362   3.810109   3.575250  -0.000079   0.082615  -0.000961
 705  12   5.306051   3.895717  -1.043738  -0.000798   0.233242  -0.003423
 706  12   5.536750   4.940363  -1.064240  -0.002174   0.466358  -0.004661
 707  12   6.058538   5.998411  -0.497353  -0.001778   0.466358  -0.003812
 708   9   4.056320   4.601318  -0.424992  -0.002136   0.466358  -0.004581
 709   9   4.443580   5.833706  -0.214427  -0.002387   0.466358  -0.005119
 710   9   4.917167   6.563583   0.408407  -0.000905   0.233242  -0.003878
 711  14   0.086292   5.766331   2.716539  -0.000369   0.425310  -0.000867
 712   9   1.138718   5.873618   1.755474  -0.000946   0.425310  -0.002224
 713  15   6.433369   7.988873   2.115184  -0.000259   0.324761  -0.000799
 714   9   4.802925   7.413280   1.723853  -0.000258   0.324761  -0.000794
 715  15   6.280538   8.476929   4.311951  -0.000996   0.219065  -0.004547
 716  15   6.749824   8.261801   5.289018  -0.002068   0.438251  -0.004720
 717  15   7.295717   7.670092   6.046017  -0.000405   0.219065  -0.001847
 718  10   5.283130   7.918502   5.144600  -0.002205   0.438251  -0.005031
 719  10   5.916415   7.415183   6.226338  -0.002681   0.438251  -0.006118
 720  16   8.469592   4.888253   7.141621  -0.000050   0.110026  -0.000452
 721  10   6.600407   5.039923   7.149648  -0.000800   0.110026  -0.007272
 722  19   4.589630   4.895325   8.924478   0.000086   0.243261   0.000354
 723  19   3.862920   5.729011   8.818115  -0.000797   0.486425  -0.001639
 724  19   2.720534   6.209636   8.267180  -0.000794   0.486425  -0.001632
 725  10   5.118836   5.769547   7.733236  -0.001749   0.486425  -0.003595
 726  10   4.097359   6.608680   7.429896  -0.001832   0.486425  -0.003767
 727  10   3.152211   6.794675   6.876223  -0.000465   0.243261  -0.001911
 728  22  13.398252   2.646975   2.409449  -0.000155   0.249712  -0.000619
 729  22  13.485307   2.523033   1.314281  -0.000887   0.499232  -0.001776
 730  22  13.103829   2.905144   0.077552  -0.000470   0.499232  -0.000941
 731  11  12.295563   1.517465   2.023860  -0.001137   0.499232  -0.002277
 732  11  12.210155   1.574509   0.678317  -0.001212   0.499232  -0.002428
 733  11  11.762602   2.037535  -0.220369  -0.000039   0.249712  -0.000155
 734  21  10.435369   5.836592  -1.988679   0.000062   0.249483   0.000249
 735  21   9.676909   6.651388  -1.906911  -0.000866   0.498815  -0.001735
 736  21   8.927205   7.463326  -1.111108  -0.000893   0.498815  -0.001789
 737  12   9.011941   5.093877  -1.976704  -0.001349   0.498815  -0.002705
 738  12   8.122763   6.051729  -1.593972  -0.001691   0.498815  -0.003390
 739  12   7.616236   6.602962  -0.766076  -0.000479   0.249483  -0.001922
 =====================================================

              4977682  WORDS OF DYNAMIC MEMORY USED
 EXECUTION OF GAMESS TERMINATED NORMALLY Wed Nov 23 13:24:23 2016
 DDI: 263640 bytes (0.3 MB / 0 MWords) used by master data server.

 ----------------------------------------
 CPU timing information for all processes
 ========================================
 0: 2181.616 + 0.796 = 2182.412
 ----------------------------------------
 ddikick.x: exited gracefully.
