----- GAMESS execution script -----

          ******************************************************
          *         GAMESS VERSION =  5 DEC 2014 (R1)          *
          *             FROM IOWA STATE UNIVERSITY             *
          * M.W.SCHMIDT, K.K.BALDRIDGE, J.A.BOATZ, S.T.ELBERT, *
          *   M.S.GORDON, J.H.JENSEN, S.KOSEKI, N.MATSUNAGA,   *
          *          K.A.NGUYEN, S.J.SU, T.L.WINDUS,           *
          *       TOGETHER WITH M.DUPUIS, J.A.MONTGOMERY       *
          *         J.COMPUT.CHEM.  14, 1347-1363(1993)        *
          **************** 64 BIT LINUX VERSION ****************

 EXECUTION OF GAMESS BEGUN Wed Nov 23 13:02:15 2016

            ECHO OF THE FIRST FEW INPUT CARDS -
 INPUT CARD>! SELECT RESTRICTED HARTREE-FOCK AS DEFAULT                                     
 INPUT CARD>$contrl scftyp=rhf $end                                                         
 INPUT CARD>                                                                                
 INPUT CARD>! THEORY: HF OR DFT                                                             
 INPUT CARD> $contrl mplevl=0 $end                                                          
 INPUT CARD>                                                                                
 INPUT CARD> $system timlim=10000 mwords=20 $end                                            
 INPUT CARD> $SCF DIRSCF=.TRUE. $end                                                        
 INPUT CARD>                                                                                
 INPUT CARD>                                                                                
 INPUT CARD>! BASIS SETS                                                                    
 INPUT CARD>! 6-311G(d,p)                                                                   
 INPUT CARD> $BASIS GBASIS=N311 NGAUSS=6 NDFUNC=1 NPFUNC=1 $END                             
 INPUT CARD>                                                                                
 INPUT CARD>! One of the following                                                          
 INPUT CARD> $guess guess=HUCKEL $end                                                       
 INPUT CARD>                                                                                
 INPUT CARD> $statpt projct=.FALSE. $end                                                    
 INPUT CARD> $STATPT IFREEZ(1)=1,2,3 $END                                                   
 INPUT CARD>                                                                                
 INPUT CARD>! Optimize the geometry with COSMO effects                                      
 INPUT CARD> $statpt opttol=0.0005 nstep=50 $end                                            
 INPUT CARD> $contrl nzvar=1 $end                                                           
 INPUT CARD> $zmat dlc=.t. auto=.t. $end                                                    
 INPUT CARD> $contrl runtyp=OPTIMIZE maxit=200 $end                                         
 INPUT CARD>                                                                                
 INPUT CARD>! Run COSMO on perfect conductor                                                
 INPUT CARD> $COSGMS PRFCND=.TRUE. $end                                                     
 INPUT CARD>                                                                                
 INPUT CARD>! Specifying RSOLV                                                              
 INPUT CARD> $COSGMS COSRAD = 1.4 $end                                                      
 INPUT CARD>                                                                                
 INPUT CARD>! available memory                                                              
 INPUT CARD> $SYSTEM MWORDS=40 $END                                                         
 INPUT CARD>                                                                                
 INPUT CARD> $DATA                                                                          
 INPUT CARD>2-Pentanol, 4-methyl-, ID: C108112                                              
 INPUT CARD>C1                                                                              
 INPUT CARD>C      6.0      2.4113000000    2.6671000000    2.7212000000                    
 INPUT CARD>C      6.0      3.8916000000    2.7019000000    3.1418000000                    
 INPUT CARD>C      6.0      1.5485000000    1.5915000000    3.3943000000                    
 INPUT CARD>C      6.0      4.6244000000    3.7980000000    2.3631000000                    
 INPUT CARD>C      6.0      4.0648000000    2.9318000000    4.6432000000                    
 INPUT CARD>C      6.0      2.0355000000    0.1741000000    3.1318000000                    
 INPUT CARD>O      8.0      0.2198000000    1.6892000000    2.8777000000                    
 INPUT CARD>H      1.0      1.9543000000    3.6481000000    2.9125000000                    
 INPUT CARD>H      1.0      2.3479000000    2.5355000000    1.6320000000                    
 INPUT CARD>H      1.0      4.3626000000    1.7467000000    2.8822000000                    
 INPUT CARD>H      1.0      1.4860000000    1.7621000000    4.4738000000                    
 INPUT CARD>H      1.0      5.6894000000    3.8111000000    2.6184000000                    
   40000000 WORDS OF MEMORY AVAILABLE

     BASIS OPTIONS
     -------------
     GBASIS=N311         IGAUSS=       6      POLAR=POPN311 
     NDFUNC=       1     NFFUNC=       0     DIFFSP=       F
     NPFUNC=       1      DIFFS=       F     BASNAM=        


     RUN TITLE
     ---------
 2-Pentanol, 4-methyl-, ID: C108112                                              

 THE POINT GROUP OF THE MOLECULE IS C1      
 THE ORDER OF THE PRINCIPAL AXIS IS     0

 ATOM      ATOMIC                      COORDINATES (BOHR)
           CHARGE         X                   Y                   Z
 C           6.0     4.5566962742        5.0400881819        5.1423223578
 C           6.0     7.3540576538        5.1058506462        5.9371411082
 C           6.0     2.9262406920        3.0074989095        6.4142969201
 C           6.0     8.7388488576        7.1771793014        4.4656114816
 C           6.0     7.6813581949        5.5402986508        8.7743757062
 C           6.0     3.8465372480        0.3290012945        5.9182438483
 O           8.0     0.4153617721        3.1921251385        5.4380644749
 H           1.0     3.6930914978        6.8939093758        5.5038269392
 H           1.0     4.4368876466        4.7914002419        3.0840328120
 H           1.0     8.2441185940        3.3007843828        5.4465682418
 H           1.0     2.8081328178        3.3298861630        8.4542561239
 H           1.0    10.7514070345        7.2019347118        4.9480585263
 H           1.0     8.5854031074        6.8583825272        2.4262191956
 H           1.0     7.9576361343        9.0481970018        4.8832409249
 H           1.0     9.6859795227        5.7035709761        9.2651375452
 H           1.0     6.7325267765        7.2765788883        9.3823005564
 H           1.0     6.9105389645        3.9657789578        9.8711726695
 H           1.0     3.9814636835       -0.0430857525        3.8860325212
 H           1.0     2.5019972077       -1.0472861424        6.6830159556
 H           1.0     5.6901539216       -0.0243774652        6.7822265699
 H           1.0    -0.2059801327        4.8779496921        5.8231906312

          INTERNUCLEAR DISTANCES (ANGS.)




     $CONTRL OPTIONS
     ---------------
 SCFTYP=RHF          RUNTYP=OPTIMIZE     EXETYP=RUN     
 MPLEVL=       0     CITYP =NONE         CCTYP =NONE         VBTYP =NONE    
 DFTTYP=NONE         TDDFT =NONE    
 MULT  =       1     ICHARG=       0     NZVAR =       1     COORD =UNIQUE  
 PP    =NONE         RELWFN=NONE         LOCAL =NONE         NUMGRD=       F
 ISPHER=      -1     NOSYM =       0     MAXIT =     200     UNITS =ANGS    
 PLTORB=       F     MOLPLT=       F     AIMPAC=       F     FRIEND=        
 NPRINT=       7     IREST =       0     GEOM  =INPUT   
 NORMF =       0     NORMP =       0     ITOL  =      20     ICUT  =       9
 INTTYP=BEST         GRDTYP=BEST         QMTTOL= 1.0E-06

     $SYSTEM OPTIONS
     ---------------
  REPLICATED MEMORY=    40000000 WORDS (ON EVERY NODE).
 DISTRIBUTED MEMDDI=           0 MILLION WORDS IN AGGREGATE,
 MEMDDI DISTRIBUTED OVER   1 PROCESSORS IS           0 WORDS/PROCESSOR.
 TOTAL MEMORY REQUESTED ON EACH PROCESSOR=    40000000 WORDS.
 TIMLIM=       10000.00 MINUTES, OR       6.9 DAYS.
 PARALL= F  BALTYP=  DLB     KDIAG=    0  COREFL= F
 MXSEQ2=     300 MXSEQ3=     150  mem10=         0

     $COSGMS OPTIONS
     ---------------
     EPSI  =   INFTY     NSPA  =      92     COSRAD=    1.40
     DISEX =   10.00     OUTCHG=DBLCAV       COSBUG=       F
     COSWRT=       F     DCOSMO=       F

     SYMMETRY COORDINATES WILL NOT BE USED FOR 
     THE COSMO CALCULATION, EVEN IF SPECIFIED:
         -- SWITCHING TO C1 POINT GROUP --


     DEFINITION OF CAVITY
     ---------------------------
     ATOM         COORDINATES           RADIUS 
     1    4.5567    5.0401    5.1423    2.0000
     2    7.3541    5.1059    5.9371    2.0000
     3    2.9262    3.0075    6.4143    2.0000
     4    8.7388    7.1772    4.4656    2.0000
     5    7.6814    5.5403    8.7744    2.0000
     6    3.8465    0.3290    5.9182    2.0000
     7    0.4154    3.1921    5.4381    1.7200
     8    3.6931    6.8939    5.5038    1.3000
     9    4.4369    4.7914    3.0840    1.3000
    10    8.2441    3.3008    5.4466    1.3000
    11    2.8081    3.3299    8.4543    1.3000
    12   10.7514    7.2019    4.9481    1.3000
    13    8.5854    6.8584    2.4262    1.3000
    14    7.9576    9.0482    4.8832    1.3000
    15    9.6860    5.7036    9.2651    1.3000
    16    6.7325    7.2766    9.3823    1.3000
    17    6.9105    3.9658    9.8712    1.3000
    18    3.9815   -0.0431    3.8860    1.3000
    19    2.5020   -1.0473    6.6830    1.3000
    20    5.6902   -0.0244    6.7822    1.3000
    21   -0.2060    4.8779    5.8232    1.3000

          ----------------
          PROPERTIES INPUT
          ----------------

     MOMENTS            FIELD           POTENTIAL          DENSITY
 IEMOM =       1   IEFLD =       0   IEPOT =       0   IEDEN =       0
 WHERE =COMASS     WHERE =NUCLEI     WHERE =NUCLEI     WHERE =NUCLEI  
 OUTPUT=BOTH       OUTPUT=BOTH       OUTPUT=BOTH       OUTPUT=BOTH    
 IEMINT=       0   IEFINT=       0                     IEDINT=       0
                                                       MORB  =       0
          EXTRAPOLATION IN EFFECT
          SOSCF IN EFFECT
 ORBITAL PRINTING OPTION: NPREO=     1   217     2     1

     -------------------------------
     INTEGRAL TRANSFORMATION OPTIONS
     -------------------------------
     NWORD  =            0
     CUTOFF = 1.0E-09     MPTRAN =       0
     DIRTRF =       T     AOINTS =DUP     

          ----------------------
          INTEGRAL INPUT OPTIONS
          ----------------------
 NOPK  =       1 NORDER=       0 SCHWRZ=       T


 -----------------------------------------------
  STATISTICS ON AUTOMATIC COORDINATE GENERATION 
 -----------------------------------------------
  NUMBER OF USER SPECIFIED BONDS                             0
  NUMBER OF BONDS                                           20
  NUMBER OF ANGLES                                          37
  NUMBER OF TORSIONS                                        48
  NUMBER OF EXTRA COORD.                                     0
  NUMBER OF EXTRA COORD. FOR CONSTRAINTS                     0
  NUMBER OF CONSTRAINED COORD.                               0

  TOTAL NUMBER OF PRIMITIVES                               105
 -----------------------------------------------

   --- ENCODED Z MATRIX ---
 COORD  TYPE   I   J   K   L   M   N
    1      1    1   9
    2      1    1   2
    3      1    1   8
    4      1    1   3
    5      1    2   4
    6      1    2  10
    7      1    2   5
    8      1    3   7
    9      1    3   6
   10      1    3  11
   11      1    4  14
   12      1    4  13
   13      1    4  12
   14      1    5  16
   15      1    5  15
   16      1    5  17
   17      1    6  20
   18      1    6  19
   19      1    6  18
   20      1    7  21
   21      2    1   3   6
   22      2    1   3  11
   23      2    1   2   4
   24      2    1   3   7
   25      2    1   2  10
   26      2    1   2   5
   27      2    2   5  16
   28      2    2   4  14
   29      2    2   1   3
   30      2    2   5  15
   31      2    2   1   8
   32      2    2   4  13
   33      2    2   1   9
   34      2    2   4  12
   35      2    2   5  17
   36      2    3   1   9
   37      2    3   6  18
   38      2    3   6  20
   39      2    3   7  21
   40      2    3   1   8
   41      2    3   6  19
   42      2    4   2   5
   43      2    4   2  10
   44      2    5   2  10
   45      2    6   3  11
   46      2    6   3   7
   47      2    7   3  11
   48      2    8   1   9
   49      2   12   4  13
   50      2   12   4  14
   51      2   13   4  14
   52      2   15   5  17
   53      2   15   5  16
   54      2   16   5  17
   55      2   18   6  19
   56      2   18   6  20
   57      2   19   6  20
   58      3    1   2   4  12
   59      3    1   2   4  13
   60      3    1   2   5  17
   61      3    1   2   4  14
   62      3    1   2   5  15
   63      3    1   2   5  16
   64      3    1   3   6  18
   65      3    1   3   6  19
   66      3    1   3   7  21
   67      3    1   3   6  20
   68      3    2   1   3   7
   69      3    2   1   3   6
   70      3    2   1   3  11
   71      3    3   1   2   5
   72      3    3   1   2   4
   73      3    3   1   2  10
   74      3    4   2   5  16
   75      3    4   2   5  17
   76      3    4   2   1   8
   77      3    4   2   1   9
   78      3    4   2   5  15
   79      3    5   2   4  12
   80      3    5   2   4  13
   81      3    5   2   1   8
   82      3    5   2   1   9
   83      3    5   2   4  14
   84      3    6   3   1   8
   85      3    6   3   7  21
   86      3    6   3   1   9
   87      3    7   3   6  18
   88      3    7   3   6  19
   89      3    7   3   1   8
   90      3    7   3   6  20
   91      3    7   3   1   9
   92      3    8   1   2  10
   93      3    8   1   3  11
   94      3    9   1   3  11
   95      3    9   1   2  10
   96      3   10   2   5  16
   97      3   10   2   5  17
   98      3   10   2   4  12
   99      3   10   2   4  13
  100      3   10   2   5  15
  101      3   10   2   4  14
  102      3   11   3   6  19
  103      3   11   3   7  21
  104      3   11   3   6  20
  105      3   11   3   6  18

          INDEP./SYM. INTERNAL COORDINATES
          --------------------------------
 CRD  1=  -0.1024 (  2) -0.1131 (  4) -0.3192 ( 21)  0.2008 ( 23)  0.1685 ( 24)
          -0.2245 ( 26) -0.6242 ( 29)  0.1911 ( 31)  0.1962 ( 33)  0.1729 ( 36)
           0.2112 ( 40)  0.1004 ( 46) -0.1002 ( 48) -0.1061 ( 60) -0.1343 ( 66)
 CRD  2=  -0.1438 (  4) -0.1358 (  5)  0.1284 (  7) -0.4683 ( 21)  0.1717 ( 22)
          -0.2224 ( 23)  0.1375 ( 24)  0.2864 ( 26)  0.1303 ( 29) -0.1162 ( 32)
           0.1162 ( 35) -0.1617 ( 36)  0.1034 ( 41)  0.1493 ( 45)  0.1164 ( 46)
           0.1330 ( 58)  0.1118 ( 59) -0.2160 ( 66)  0.1139 ( 68) -0.2247 ( 71)
          -0.2317 ( 72) -0.1387 ( 73) -0.1062 ( 83)  0.1987 ( 85)
 CRD  3=   0.2146 (  2)  0.2405 (  4)  0.3345 ( 23)  0.1503 ( 24) -0.1247 ( 26)
          -0.1068 ( 27)  0.1317 ( 29) -0.1797 ( 31)  0.1193 ( 33)  0.1027 ( 35)
          -0.1973 ( 36)  0.1208 ( 38) -0.2478 ( 42)  0.1787 ( 44) -0.1730 ( 46)
          -0.1032 ( 68) -0.2397 ( 69) -0.1396 ( 70) -0.2463 ( 71) -0.1376 ( 73)
           0.1427 ( 78) -0.1713 ( 81) -0.1759 ( 82) -0.1705 ( 84) -0.1449 ( 86)
 CRD  4=   0.2462 (  2)  0.1473 (  4)  0.1210 (  8)  0.1769 ( 23)  0.1136 ( 24)
          -0.1998 ( 25)  0.2923 ( 26) -0.1197 ( 29) -0.1514 ( 30)  0.1973 ( 31)
           0.1256 ( 32) -0.1043 ( 34)  0.1180 ( 36)  0.1884 ( 39) -0.3754 ( 42)
           0.1069 ( 59)  0.1616 ( 61) -0.1210 ( 63)  0.2064 ( 68)  0.2030 ( 69)
           0.1289 ( 70)  0.1537 ( 72)  0.1107 ( 75)  0.1378 ( 76)  0.1567 ( 77)
          -0.1409 ( 79) -0.1271 ( 80)
 CRD  5=   0.2266 (  2)  0.2334 (  4)  0.2981 (  5)  0.1776 (  7)  0.1627 (  8)
          -0.1281 (  9)  0.2903 ( 24) -0.1171 ( 26)  0.1212 ( 27)  0.1391 ( 28)
           0.1333 ( 30)  0.1393 ( 34) -0.1241 ( 35)  0.2886 ( 39)  0.3035 ( 42)
          -0.2436 ( 46) -0.1005 ( 50)  0.1433 ( 68)  0.1483 ( 71) -0.1152 ( 77)
           0.1549 ( 81)  0.1251 ( 82)  0.1163 ( 89)  0.1049 ( 91)
 CRD  6=  -0.2735 (  5)  0.1748 (  7)  0.2048 ( 21) -0.2410 ( 22) -0.2058 ( 23)
           0.1882 ( 24)  0.1907 ( 26) -0.1340 ( 28) -0.2764 ( 29)  0.1347 ( 33)
           0.1117 ( 35)  0.1819 ( 38)  0.1584 ( 40) -0.1862 ( 41)  0.1052 ( 43)
          -0.3338 ( 46) -0.1658 ( 64) -0.1078 ( 67) -0.2056 ( 69) -0.1126 ( 70)
          -0.1074 ( 74) -0.1512 ( 86)
 CRD  7=   0.1434 (  5)  0.3505 (  7)  0.3870 (  9)  0.1882 ( 21) -0.1889 ( 24)
          -0.1173 ( 25)  0.2034 ( 27)  0.2631 ( 28) -0.1702 ( 29) -0.1076 ( 32)
           0.1745 ( 37)  0.1187 ( 40) -0.1010 ( 53) -0.1247 ( 54) -0.1083 ( 55)
          -0.1181 ( 56)  0.1807 ( 58)  0.1000 ( 59)  0.1186 ( 61) -0.1048 ( 62)
           0.1060 ( 66) -0.2390 ( 72) -0.1070 ( 73) -0.1426 ( 76) -0.1297 ( 77)
 CRD  8=   0.1196 (  1)  0.3486 (  2) -0.1399 (  4)  0.2376 (  5)  0.3985 (  7)
           0.1000 ( 27) -0.1410 ( 28)  0.2473 ( 32)  0.1537 ( 33)  0.1413 ( 35)
          -0.1538 ( 38) -0.2317 ( 39)  0.1460 ( 46) -0.1295 ( 49) -0.1275 ( 52)
          -0.1163 ( 54) -0.2270 ( 68) -0.1028 ( 69) -0.1080 ( 70)  0.1162 ( 71)
           0.1726 ( 72)  0.1159 ( 77) -0.1580 ( 89)
 CRD  9=   0.2698 (  4)  0.2824 (  8)  0.4790 (  9)  0.1797 ( 20) -0.1137 ( 23)
          -0.1160 ( 27) -0.2260 ( 28) -0.1150 ( 31)  0.1511 ( 34)  0.2272 ( 37)
           0.2308 ( 39)  0.2217 ( 41)  0.1267 ( 46) -0.1869 ( 55) -0.1100 ( 56)
          -0.1137 ( 57) -0.1134 ( 65) -0.1365 ( 68)  0.1114 ( 84) -0.1128 ( 91)
 CRD 10=  -0.2162 (  2)  0.2791 (  5)  0.1550 (  7) -0.1182 ( 25) -0.3727 ( 27)
          -0.1985 ( 28)  0.1557 ( 30)  0.2273 ( 32)  0.2103 ( 34)  0.3509 ( 35)
           0.1001 ( 39)  0.1210 ( 44) -0.1758 ( 49) -0.1823 ( 52)  0.1103 ( 59)
          -0.1100 ( 60)  0.1629 ( 68)  0.1002 ( 69) -0.1056 ( 71) -0.1164 ( 74)
          -0.1616 ( 75)  0.1094 ( 79)  0.1743 ( 80)  0.1293 ( 83)  0.1006 ( 89)
 CRD 11=   0.1895 (  4) -0.1625 (  5) -0.1719 (  8) -0.2171 (  9) -0.1672 ( 27)
           0.1623 ( 30) -0.1722 ( 32)  0.4225 ( 37) -0.4162 ( 38) -0.2638 ( 39)
          -0.1846 ( 41) -0.1373 ( 45)  0.2372 ( 57) -0.1739 ( 85)  0.1126 ( 87)
           0.1531 ( 90)
 CRD 12=  -0.2293 (  2)  0.3458 (  4)  0.2381 (  5) -0.1456 (  7) -0.2402 (  8)
          -0.1042 ( 20)  0.1922 ( 27) -0.3530 ( 30)  0.1818 ( 34) -0.1224 ( 37)
          -0.3285 ( 39)  0.1531 ( 40)  0.1433 ( 41)  0.1216 ( 43)  0.1278 ( 52)
          -0.1109 ( 74) -0.1079 ( 78) -0.1054 ( 86)
 CRD 13=  -0.2509 (  4)  0.2290 (  5) -0.1996 (  7)  0.1289 (  8)  0.1028 ( 16)
           0.1965 ( 28) -0.4108 ( 30) -0.2041 ( 32)  0.2120 ( 34)  0.3029 ( 35)
           0.2784 ( 37)  0.1405 ( 39) -0.2665 ( 41) -0.1893 ( 50)  0.2191 ( 53)
          -0.1255 ( 56)  0.1103 ( 57)
 CRD 14=   0.3366 (  2) -0.1655 (  7) -0.1132 (  8) -0.1216 ( 12)  0.1405 ( 13)
          -0.1484 ( 27) -0.1157 ( 28)  0.1386 ( 30)  0.1535 ( 31) -0.3916 ( 32)
           0.4989 ( 34) -0.1353 ( 35) -0.1689 ( 37) -0.1369 ( 39)  0.1354 ( 41)
          -0.1644 ( 50)  0.2122 ( 51)  0.1345 ( 54)
 CRD 15=   0.1021 ( 11) -0.1049 ( 14)  0.1087 ( 18) -0.1278 ( 22) -0.3373 ( 27)
           0.3738 ( 28) -0.1666 ( 32) -0.2005 ( 34)  0.3281 ( 35)  0.1493 ( 36)
          -0.2094 ( 37) -0.1657 ( 38)  0.3879 ( 41)  0.1504 ( 49) -0.1452 ( 52)
           0.1376 ( 53)  0.1636 ( 56)  0.1015 ( 62) -0.1059 ( 67)  0.1153 ( 73)
 CRD 16=   0.1155 (  1)  0.1295 (  4) -0.1040 ( 14)  0.1315 ( 17) -0.1014 ( 18)
          -0.1293 ( 21)  0.1330 ( 22)  0.1113 ( 26) -0.2261 ( 27)  0.2136 ( 28)
           0.2049 ( 30) -0.1311 ( 34)  0.1022 ( 36)  0.4381 ( 38) -0.1838 ( 39)
          -0.3339 ( 41)  0.1209 ( 46) -0.1813 ( 47)  0.1240 ( 54)  0.1589 ( 55)
          -0.1795 ( 56) -0.1316 ( 66)  0.1172 ( 88) -0.1199 ( 89)  0.1145 ( 90)
          -0.1087 ( 91)
 CRD 17=  -0.1200 (  1) -0.1600 (  2) -0.1080 (  3) -0.2285 (  4)  0.2300 (  5)
          -0.1483 (  7)  0.1177 ( 11)  0.1008 ( 19) -0.1453 ( 22) -0.1301 ( 25)
           0.1140 ( 26)  0.2131 ( 28)  0.2522 ( 30) -0.3220 ( 35) -0.1305 ( 36)
           0.2030 ( 37) -0.1675 ( 38)  0.1901 ( 43)  0.1625 ( 45) -0.1566 ( 51)
           0.1902 ( 54) -0.1240 ( 55) -0.1032 ( 60) -0.1071 ( 62) -0.1080 ( 73)
          -0.1212 ( 75)  0.1217 ( 77) -0.1252 ( 78)
 CRD 18=   0.1271 (  1) -0.2400 (  2) -0.2760 (  3)  0.1894 (  7)  0.1807 (  8)
          -0.1665 (  9) -0.1269 ( 12)  0.1572 ( 20)  0.1068 ( 23) -0.1781 ( 25)
           0.1900 ( 27)  0.1570 ( 28) -0.1090 ( 31) -0.3177 ( 32)  0.1499 ( 34)
          -0.1323 ( 37)  0.1321 ( 39) -0.1525 ( 42)  0.1672 ( 44)  0.1144 ( 46)
          -0.1545 ( 50) -0.1366 ( 53)  0.1059 ( 58)  0.1130 ( 59) -0.1367 ( 68)
          -0.1250 ( 70)  0.1367 ( 72)  0.1215 ( 73)  0.1231 ( 79)  0.1302 ( 80)
           0.1126 ( 83) -0.1041 ( 91)
 CRD 19=  -0.1162 (  1) -0.1287 (  4) -0.1208 (  8)  0.1831 (  9) -0.1081 ( 21)
          -0.1542 ( 22)  0.1838 ( 24)  0.1538 ( 29)  0.1893 ( 31) -0.3117 ( 33)
           0.1770 ( 36)  0.1392 ( 37) -0.1972 ( 39) -0.2909 ( 40) -0.1038 ( 43)
           0.1318 ( 44)  0.2704 ( 45) -0.1249 ( 47) -0.1218 ( 56)  0.1833 ( 70)
           0.1383 ( 73)  0.1152 ( 79)  0.1040 ( 83) -0.1021 ( 84) -0.1341 ( 86)
          -0.1061 ( 91) -0.1602 (103)
 CRD 20=   0.1147 (  1) -0.1385 (  8)  0.2899 ( 10) -0.1766 ( 20) -0.2007 ( 31)
           0.1941 ( 33) -0.1929 ( 36)  0.1129 ( 37)  0.1954 ( 40) -0.1025 ( 56)
           0.1006 ( 60)  0.1020 ( 62)  0.1158 ( 63)  0.1078 ( 74)  0.2089 ( 76)
           0.1868 ( 77)  0.1024 ( 80)  0.1768 ( 81)  0.1547 ( 82)  0.1139 ( 83)
           0.1717 ( 89)  0.1887 ( 91)  0.1996 ( 92)  0.1499 ( 93)  0.1669 ( 94)
           0.1775 ( 95)  0.1024 ( 96)
 CRD 21=  -0.1988 (  1) -0.1203 (  4) -0.2250 (  6) -0.6205 ( 10) -0.1317 ( 19)
           0.1112 ( 24) -0.1512 ( 31) -0.1720 ( 36) -0.1237 ( 37) -0.1344 ( 39)
           0.1369 ( 40) -0.1048 ( 57)  0.1066 ( 58)  0.1007 ( 61) -0.1255 ( 65)
           0.1064 ( 69)  0.1529 ( 84) -0.1308 ( 85)  0.1239 ( 86)
 CRD 22=  -0.1408 (  1)  0.2341 (  3)  0.7348 (  6) -0.2065 ( 10) -0.1305 ( 12)
          -0.1490 ( 13)  0.1004 ( 14) -0.1157 ( 16) -0.1062 ( 19)  0.1205 ( 27)
           0.1447 ( 28) -0.1009 ( 51)  0.1011 ( 62) -0.1238 ( 71) -0.1004 ( 81)
          -0.1102 ( 82)
 CRD 23=  -0.1570 ( 10)  0.3530 ( 11)  0.2727 ( 12)  0.2502 ( 13) -0.2912 ( 14)
          -0.2252 ( 15) -0.2133 ( 16) -0.1321 ( 17) -0.1182 ( 18) -0.1748 ( 19)
          -0.1082 ( 28) -0.1596 ( 32) -0.1313 ( 34)  0.1498 ( 35)  0.1020 ( 41)
           0.1639 ( 49)  0.1213 ( 50)  0.1355 ( 51) -0.1363 ( 52) -0.1284 ( 54)
          -0.1004 ( 58) -0.1098 ( 60) -0.1244 ( 62) -0.1131 ( 63) -0.1051 ( 78)
 CRD 24=  -0.1805 (  6) -0.1222 (  7) -0.3329 ( 11) -0.2991 ( 12) -0.2620 ( 13)
          -0.4178 ( 14) -0.3391 ( 15) -0.3746 ( 16)  0.1196 ( 27)  0.1726 ( 30)
           0.1007 ( 32)  0.1441 ( 34)  0.1351 ( 35) -0.1348 ( 49) -0.1272 ( 50)
          -0.1700 ( 52) -0.1546 ( 53) -0.1279 ( 54)
 CRD 25=   0.1137 (  1) -0.1079 (  3) -0.1153 (  6) -0.1619 (  9) -0.1657 ( 11)
          -0.1306 ( 12) -0.1392 ( 13)  0.1186 ( 15)  0.1025 ( 16) -0.4658 ( 17)
          -0.4228 ( 18) -0.4534 ( 19)  0.1596 ( 37)  0.1388 ( 38)  0.1849 ( 41)
          -0.1825 ( 55) -0.1558 ( 56) -0.1724 ( 57)
 CRD 26=  -0.1693 (  1)  0.1328 (  3)  0.1353 (  4)  0.1137 (  5)  0.1353 (  8)
          -0.1066 (  9)  0.1005 ( 10)  0.1121 ( 11)  0.1561 ( 12)  0.1905 ( 13)
          -0.1058 ( 15) -0.1158 ( 16) -0.1127 ( 17) -0.1989 ( 18) -0.1269 ( 19)
           0.1057 ( 38) -0.2002 ( 39) -0.1968 ( 64) -0.2192 ( 65)  0.1154 ( 66)
          -0.2178 ( 67)  0.1651 ( 85) -0.2409 ( 87) -0.2632 ( 88) -0.2619 ( 90)
          -0.1245 ( 94) -0.1645 (102)  0.1477 (103) -0.1631 (104) -0.1422 (105)
 CRD 27=   0.2378 (  1)  0.1977 (  3)  0.1365 (  5) -0.1514 (  7)  0.1187 ( 12)
           0.1877 ( 13) -0.2086 ( 15) -0.1435 ( 16) -0.1137 ( 17)  0.1464 ( 20)
           0.1201 ( 31)  0.2050 ( 39)  0.1698 ( 58)  0.1634 ( 59)  0.1434 ( 60)
           0.1441 ( 61)  0.1524 ( 62)  0.1313 ( 63)  0.1212 ( 65)  0.1180 ( 67)
           0.1033 ( 78)  0.1306 ( 79)  0.1242 ( 80)  0.1049 ( 83) -0.1535 ( 84)
          -0.1195 ( 85) -0.1302 ( 86) -0.1304 ( 89) -0.1071 ( 91) -0.1315 ( 93)
          -0.1083 ( 94)  0.1261 ( 96)  0.1382 ( 97)  0.1679 ( 98)  0.1615 ( 99)
           0.1472 (100)  0.1422 (101)
 CRD 28=  -0.1657 (  2)  0.1440 (  3) -0.2474 ( 11)  0.3485 ( 12) -0.1952 ( 14)
           0.2699 ( 16) -0.1158 ( 42)  0.1049 ( 49) -0.2287 ( 50) -0.1912 ( 53)
          -0.2319 ( 58)  0.2003 ( 62)  0.1138 ( 75)  0.2177 ( 78) -0.2486 ( 79)
          -0.1156 ( 80)  0.1041 ( 97) -0.2473 ( 98) -0.1142 ( 99)  0.2079 (100)
 CRD 29=   0.1371 ( 17) -0.6240 ( 18)  0.4639 ( 19)  0.3122 ( 56) -0.2402 ( 57)
          -0.1400 ( 64)  0.1955 ( 67) -0.1282 ( 87)  0.2073 ( 90)  0.1865 (104)
          -0.1490 (105)
 CRD 30=  -0.1974 ( 11)  0.3261 ( 12)  0.1151 ( 14)  0.4019 ( 15) -0.5522 ( 16)
           0.1014 ( 49) -0.1562 ( 50)  0.2683 ( 53) -0.2001 ( 54) -0.1009 ( 62)
           0.1897 ( 63)  0.1841 ( 74) -0.1065 ( 78)  0.2012 ( 96)
 CRD 31=   0.3355 ( 11) -0.4278 ( 13) -0.2918 ( 14)  0.2623 ( 15) -0.3187 ( 17)
           0.1375 ( 18)  0.1617 ( 19) -0.1783 ( 49)  0.2245 ( 51)  0.1541 ( 52)
          -0.1423 ( 54)  0.1516 ( 55) -0.1225 ( 59)  0.1165 ( 61) -0.1183 ( 80)
           0.1208 ( 83) -0.1226 ( 99)  0.1165 (101)
 CRD 32=   0.3669 ( 12) -0.4572 ( 13)  0.3269 ( 14) -0.4255 ( 15) -0.1717 ( 50)
           0.2112 ( 51) -0.1708 ( 52)  0.1938 ( 54)  0.1134 ( 60)  0.1708 ( 61)
           0.1226 ( 75)  0.1576 ( 83) -0.1115 ( 96)  0.1008 ( 97)  0.1912 (101)
 CRD 33=  -0.2559 ( 11)  0.1607 ( 13)  0.1799 ( 14) -0.1161 ( 15) -0.5200 ( 17)
           0.1354 ( 18)  0.3922 ( 19)  0.1435 ( 49) -0.1011 ( 52)  0.2846 ( 55)
          -0.2129 ( 57)  0.1259 ( 64) -0.1782 ( 65)  0.1359 ( 87) -0.1682 ( 88)
          -0.1711 (102)  0.1329 (105)
 CRD 34=   0.1529 (  2) -0.1139 (  3) -0.3100 ( 11)  0.2453 ( 12) -0.3292 ( 14)
           0.2167 ( 16)  0.2048 ( 49)  0.2209 ( 52)  0.2017 ( 59) -0.1969 ( 60)
           0.1381 ( 61) -0.1140 ( 63) -0.1587 ( 74) -0.2416 ( 75)  0.2448 ( 80)
           0.1811 ( 83) -0.1330 ( 96) -0.2160 ( 97)  0.2294 ( 99)  0.1658 (101)
 CRD 35=   0.6188 (  1)  0.4962 (  3) -0.1168 ( 31)  0.2577 ( 48) -0.1262 ( 76)
          -0.1198 ( 81)  0.1823 ( 84)  0.1591 ( 89) -0.1166 ( 92)  0.1682 ( 93)
 CRD 36=   0.3502 (  1) -0.5009 (  3) -0.1785 ( 20)  0.1134 ( 36) -0.1117 ( 49)
           0.1416 ( 62) -0.1450 ( 76) -0.2138 ( 77)  0.1031 ( 78) -0.1662 ( 81)
          -0.2351 ( 82)  0.1683 ( 84)  0.1783 ( 86)  0.1496 ( 89)  0.1596 ( 91)
          -0.1372 ( 92)  0.1344 ( 93)  0.1444 ( 94) -0.2060 ( 95)
 CRD 37=   0.6348 (  8)  0.2415 ( 10) -0.1588 ( 22) -0.4602 ( 39)  0.1268 ( 47)
           0.1168 ( 87)  0.1041 ( 88)  0.1099 ( 90)  0.2312 (102)  0.2370 (104)
           0.2439 (105)
 CRD 38=  -0.1857 (  4)  0.1069 (  8)  0.1690 ( 10)  0.1004 ( 17)  0.1771 ( 18)
          -0.5628 ( 20)  0.1425 ( 22)  0.1199 ( 41) -0.1894 ( 45) -0.1642 ( 57)
          -0.1007 ( 65) -0.3404 ( 66) -0.1023 ( 70) -0.3646 ( 85) -0.1261 ( 93)
          -0.1355 ( 94) -0.1531 (102) -0.1696 (103) -0.1352 (105)
 CRD 39=  -0.1094 (  4) -0.1098 (  8)  0.3375 ( 10) -0.1356 ( 19)  0.6180 ( 20)
          -0.1270 ( 39) -0.1029 ( 64) -0.1189 ( 65) -0.2288 ( 66)  0.1007 ( 68)
          -0.2962 ( 85)  0.1161 ( 89)  0.1059 ( 93) -0.1367 (102) -0.2337 (103)
          -0.1206 (105)
 CRD 40=  -0.1081 (  1)  0.1494 (  3) -0.1024 (  4) -0.1990 (  5) -0.2524 (  6)
           0.1607 ( 10)  0.2538 ( 11)  0.1634 ( 12)  0.1723 ( 13)  0.1280 ( 14)
          -0.1429 ( 19) -0.1332 ( 20)  0.1057 ( 25)  0.2186 ( 28)  0.1732 ( 32)
           0.1839 ( 34)  0.1246 ( 39) -0.1594 ( 49) -0.2262 ( 50) -0.2212 ( 51)
          -0.1169 ( 53)  0.1344 ( 55) -0.1391 ( 82)  0.1102 ( 92) -0.1886 ( 96)
          -0.1792 ( 97) -0.1487 (103)
 CRD 41=  -0.1195 (  5)  0.1098 (  6)  0.3002 (  7)  0.1556 ( 12) -0.2570 ( 14)
          -0.2138 ( 15) -0.2330 ( 16) -0.2371 ( 27) -0.2242 ( 30)  0.1106 ( 32)
          -0.2322 ( 35) -0.1149 ( 43)  0.1298 ( 44) -0.1349 ( 49) -0.1047 ( 51)
           0.2246 ( 52)  0.2476 ( 53)  0.2622 ( 54)  0.1582 ( 73)  0.2066 ( 92)
           0.1791 ( 95) -0.1371 ( 99) -0.1447 (101)
 CRD 42=   0.1281 (  5)  0.1221 (  7)  0.3075 (  9) -0.1227 ( 11) -0.1009 ( 13)
          -0.1117 ( 14) -0.1008 ( 15) -0.2196 ( 17) -0.2286 ( 18) -0.2251 ( 19)
          -0.2385 ( 20) -0.2211 ( 37) -0.2246 ( 38)  0.1263 ( 39) -0.2215 ( 41)
           0.1278 ( 50)  0.1198 ( 53)  0.2342 ( 55)  0.2352 ( 56)  0.2363 ( 57)
          -0.1031 ( 89)  0.1077 ( 94) -0.1650 (103)
 CRD 43=  -0.1460 (  1)  0.1712 (  2)  0.1839 (  3)  0.2656 (  5) -0.3583 (  6)
           0.2061 (  7) -0.1235 (  8) -0.1555 (  9)  0.1477 ( 10) -0.1439 ( 12)
          -0.2213 ( 13)  0.1027 ( 14) -0.1815 ( 15) -0.1741 ( 16)  0.1500 ( 17)
          -0.1025 ( 30) -0.1227 ( 32) -0.1273 ( 34)  0.2312 ( 49)  0.2337 ( 52)
          -0.1269 ( 57)  0.1271 ( 62) -0.1388 ( 75)  0.1293 ( 80) -0.1306 ( 82)
           0.1400 (100)
 CRD 44=  -0.1319 (  2)  0.1881 (  4) -0.2121 (  5) -0.1593 (  6)  0.1897 (  8)
           0.1805 ( 11)  0.1193 ( 14)  0.2300 ( 31)  0.2127 ( 33) -0.1649 ( 36)
          -0.2073 ( 40)  0.1068 ( 43) -0.1089 ( 47) -0.1758 ( 51) -0.1033 ( 54)
           0.1050 ( 62)  0.1049 ( 63) -0.1138 ( 81) -0.1289 ( 84)  0.1383 ( 86)
           0.1796 ( 91) -0.1099 ( 92)  0.2253 ( 94)  0.1859 ( 96) -0.1439 ( 98)
           0.1860 (100) -0.1558 (101) -0.1146 (102) -0.1390 (104) -0.1779 (105)
 CRD 45=   0.2164 (  1)  0.1337 (  2)  0.1459 (  5) -0.1679 (  7)  0.1176 (  8)
          -0.2554 ( 10) -0.1243 ( 13)  0.1287 ( 14) -0.1272 ( 17)  0.1822 ( 19)
          -0.1350 ( 24) -0.1002 ( 33)  0.1488 ( 40)  0.1086 ( 44)  0.1200 ( 47)
          -0.1513 ( 48)  0.1422 ( 57)  0.1311 ( 65) -0.2326 ( 66)  0.1422 ( 68)
           0.1798 ( 76)  0.1600 ( 81) -0.1350 ( 85) -0.1820 ( 87) -0.2336 ( 90)
           0.2534 ( 92) -0.1174 ( 98) -0.1348 (101)  0.1090 (102) -0.2645 (103)
 CRD 46=  -0.2001 (  2)  0.1783 (  5)  0.1962 (  7)  0.1867 (  8) -0.2214 ( 12)
           0.1160 ( 13)  0.1224 ( 15) -0.2179 ( 16) -0.2152 ( 17)  0.1305 ( 18)
           0.1376 ( 22)  0.1782 ( 25) -0.1050 ( 50)  0.1507 ( 51)  0.1622 ( 54)
          -0.1365 ( 55)  0.1242 ( 56) -0.1036 ( 58)  0.1215 ( 65) -0.1254 ( 74)
           0.1240 ( 83) -0.1095 ( 87)  0.1003 ( 88)  0.1058 ( 94) -0.2543 ( 96)
           0.1015 ( 99)  0.2561 (101) -0.2469 (105)
 CRD 47=   0.2354 (  2) -0.1577 (  3) -0.2810 (  4)  0.3772 (  9) -0.1291 ( 17)
           0.1036 ( 18) -0.1607 ( 19)  0.1452 ( 22)  0.1141 ( 24) -0.1483 ( 33)
          -0.1207 ( 39) -0.1054 ( 41) -0.1687 ( 45)  0.2013 ( 56)  0.1117 ( 67)
           0.1059 ( 85) -0.1236 ( 86)  0.1780 ( 90) -0.2484 ( 94)  0.3391 (103)
          -0.1193 (105)
 CRD 48=  -0.2065 (  5)  0.2683 (  7)  0.1260 (  9) -0.1173 ( 10)  0.2002 ( 11)
          -0.2317 ( 12)  0.1294 ( 13) -0.1615 ( 15)  0.1157 ( 16) -0.1491 ( 18)
           0.1033 ( 32) -0.1108 ( 44)  0.1437 ( 47) -0.2394 ( 50)  0.1727 ( 53)
          -0.2080 ( 58)  0.1159 ( 63) -0.1401 ( 66)  0.1333 ( 68) -0.1586 ( 73)
           0.1154 ( 74) -0.1610 ( 79)  0.1367 ( 83)  0.1243 ( 89) -0.1445 ( 90)
          -0.1687 ( 92) -0.1076 ( 94) -0.1347 ( 95)  0.1649 ( 96)  0.1020 ( 99)
           0.2129 (101)  0.1215 (105)
 CRD 49=   0.1236 (  2)  0.1036 (  3) -0.1332 (  4) -0.1009 (  5)  0.1228 (  8)
          -0.2041 (  9) -0.1738 ( 15)  0.2262 ( 16) -0.1884 ( 17)  0.2381 ( 18)
          -0.1370 ( 31)  0.1174 ( 36)  0.1091 ( 38)  0.1035 ( 40)  0.1074 ( 46)
          -0.1370 ( 47)  0.1808 ( 53) -0.1225 ( 54) -0.1972 ( 55)  0.1223 ( 56)
          -0.1008 ( 60) -0.1709 ( 62)  0.1045 ( 63) -0.1397 ( 64)  0.1170 ( 65)
           0.1085 ( 67)  0.1122 ( 70)  0.1470 ( 74) -0.1195 ( 77) -0.1284 ( 78)
          -0.1308 ( 82) -0.1534 ( 87)  0.1033 ( 88)  0.2073 ( 93)  0.1402 ( 94)
          -0.1815 ( 95)  0.1904 ( 96) -0.2124 (105)
 CRD 50=  -0.2138 ( 11)  0.2858 ( 13)  0.2314 ( 14) -0.2239 ( 15)  0.1230 ( 30)
          -0.1499 ( 34) -0.1464 ( 49)  0.2302 ( 51)  0.1596 ( 52) -0.1836 ( 54)
          -0.2241 ( 59) -0.2019 ( 60)  0.1495 ( 61) -0.2623 ( 75) -0.2684 ( 80)
           0.1052 ( 83) -0.2397 ( 97) -0.2611 ( 99)  0.1125 (101)
 CRD 51=   0.2131 (  1) -0.1094 (  2)  0.1389 ( 11) -0.1487 ( 12) -0.1547 ( 14)
           0.1564 ( 17) -0.2389 ( 19)  0.1268 ( 37)  0.1063 ( 45) -0.2166 ( 48)
           0.1152 ( 49) -0.1010 ( 50) -0.1275 ( 52)  0.1088 ( 55) -0.1865 ( 57)
          -0.1187 ( 58) -0.1154 ( 62) -0.1978 ( 65)  0.1133 ( 67)  0.1084 ( 75)
          -0.1387 ( 77) -0.1250 ( 82)  0.1003 ( 83) -0.2120 ( 84) -0.1935 ( 88)
          -0.1706 ( 89)  0.1176 ( 90)  0.1649 ( 92) -0.1422 ( 93) -0.1559 ( 98)
          -0.1287 (100) -0.1791 (102)  0.1320 (104)
 CRD 52=  -0.1852 (  3)  0.2685 (  4) -0.1532 (  9)  0.1226 ( 14) -0.1444 ( 16)
           0.2054 ( 18) -0.1060 ( 19) -0.1484 ( 22) -0.1151 ( 24)  0.1017 ( 35)
          -0.1272 ( 41)  0.1149 ( 42)  0.1419 ( 45)  0.1226 ( 46)  0.1365 ( 48)
          -0.1128 ( 53)  0.1271 ( 56) -0.1109 ( 57)  0.1255 ( 62) -0.1247 ( 64)
           0.1592 ( 67) -0.1110 ( 72)  0.1519 ( 78) -0.1125 ( 79)  0.1874 ( 82)
          -0.1161 ( 86) -0.2135 ( 87) -0.1067 ( 88) -0.1625 ( 91)  0.1029 ( 95)
          -0.1143 ( 98)  0.1864 (100)  0.1013 (102) -0.1769 (103)  0.2784 (104)
 CRD 53=   0.1149 (  2) -0.2004 (  7) -0.1189 (  9)  0.1884 ( 10)  0.1302 ( 11)
          -0.1881 ( 12) -0.1159 ( 18)  0.1470 ( 19)  0.1713 ( 21)  0.1397 ( 32)
          -0.1048 ( 37)  0.1215 ( 41)  0.1188 ( 42) -0.1097 ( 43) -0.1581 ( 47)
           0.1052 ( 49) -0.1319 ( 50) -0.1069 ( 56)  0.1822 ( 61)  0.1696 ( 66)
          -0.1722 ( 67) -0.1071 ( 68) -0.1868 ( 72) -0.1395 ( 76) -0.1596 ( 79)
           0.1101 ( 83)  0.1810 ( 87)  0.1943 ( 88) -0.1804 ( 91)  0.1427 ( 95)
          -0.2757 ( 98) -0.2198 (104)
 CRD 54=  -0.1262 (  7) -0.2071 (  8)  0.1047 (  9)  0.1217 ( 13) -0.1140 ( 14)
           0.1058 ( 15) -0.1421 ( 17) -0.1297 ( 21) -0.1208 ( 23)  0.1071 ( 27)
          -0.1174 ( 34)  0.1151 ( 38) -0.1079 ( 40)  0.1580 ( 44)  0.1427 ( 47)
          -0.1015 ( 52)  0.1322 ( 60)  0.1367 ( 61) -0.1921 ( 64) -0.2087 ( 70)
           0.1280 ( 73) -0.1477 ( 74) -0.1798 ( 78)  0.1115 ( 79)  0.2139 ( 83)
           0.1953 ( 86) -0.1269 ( 87)  0.1233 ( 91) -0.1650 ( 93)  0.1622 ( 97)
          -0.1266 ( 98) -0.2177 ( 99)  0.2408 (102)  0.1551 (104)
 CRD 55=  -0.2234 (  2)  0.1821 (  4)  0.2504 (  5) -0.1019 ( 13) -0.1359 ( 15)
           0.1466 ( 16)  0.1451 ( 25)  0.1677 ( 26)  0.1439 ( 30) -0.1359 ( 35)
          -0.1340 ( 42) -0.1951 ( 43)  0.1037 ( 53) -0.1080 ( 54)  0.1017 ( 59)
           0.2627 ( 63) -0.1063 ( 71)  0.1429 ( 73)  0.2410 ( 74) -0.1177 ( 76)
          -0.1168 ( 79) -0.1972 ( 81) -0.1286 ( 83)  0.2223 ( 95) -0.2755 ( 97)
           0.1450 ( 99) -0.2776 (100)  0.1068 (102)
 CRD 56=  -0.1538 (  1)  0.1819 (  2)  0.1008 (  5) -0.1160 (  6)  0.1559 (  8)
          -0.1382 ( 10)  0.1047 ( 22) -0.1451 ( 23) -0.1291 ( 24) -0.1893 ( 29)
           0.1396 ( 44)  0.1143 ( 45)  0.1651 ( 48)  0.1726 ( 60)  0.1195 ( 63)
           0.2120 ( 64)  0.2017 ( 67) -0.1717 ( 69)  0.1354 ( 73)  0.1019 ( 77)
          -0.1669 ( 78)  0.1130 ( 79) -0.2198 ( 81)  0.1318 ( 83) -0.2353 ( 86)
          -0.1501 ( 88)  0.1805 ( 89)  0.2308 ( 93)  0.1702 ( 95) -0.1301 ( 99)
          -0.1721 (102)
 CRD 57=  -0.1537 (  1)  0.1708 (  3)  0.1839 (  6) -0.1194 (  7) -0.1053 ( 10)
           0.1105 ( 22) -0.1403 ( 25)  0.1262 ( 26) -0.1522 ( 31)  0.1138 ( 33)
           0.1283 ( 36)  0.2205 ( 59) -0.1713 ( 60)  0.1818 ( 61) -0.1235 ( 63)
          -0.1432 ( 66)  0.1037 ( 67) -0.1027 ( 68) -0.2472 ( 69) -0.2139 ( 70)
           0.2723 ( 71)  0.2102 ( 73) -0.2033 ( 76) -0.2381 ( 77)  0.1512 ( 78)
          -0.1664 ( 79)  0.1641 ( 89)  0.1615 ( 91) -0.1192 ( 98)

 THE DETERMINANT OF THE G MATRIX IS 10**(   -20)


                     --------------------
                     INTERNAL COORDINATES
                     --------------------

                 - - ATOMS - -         COORDINATE      COORDINATE
 NO.   TYPE    I  J  K  L  M  N        (BOHR,RAD)       (ANG,DEG)
 ----------------------------------------------------------------
   1 STRETCH   1  9                     2.0767175       1.0989517
   2 STRETCH   1  2                     2.9088300       1.5392867
   3 STRETCH   1  8                     2.0768129       1.0990021
   4 STRETCH   1  3                     2.8996075       1.5344063
   5 STRETCH   2  4                     2.8936912       1.5312755
   6 STRETCH   2 10                     2.0715054       1.0961935
   7 STRETCH   2  5                     2.8889048       1.5287427
   8 STRETCH   3  7                     2.7003018       1.4289383
   9 STRETCH   3  6                     2.8753024       1.5215446
  10 STRETCH   3 11                     2.0686509       1.0946830
  11 STRETCH   4 14                     2.0701244       1.0954627
  12 STRETCH   4 13                     2.0698546       1.0953199
  13 STRETCH   4 12                     2.0697242       1.0952510
  14 STRETCH   5 16                     2.0699089       1.0953487
  15 STRETCH   5 15                     2.0702685       1.0955390
  16 STRETCH   5 17                     2.0679067       1.0942892
  17 STRETCH   6 20                     2.0664620       1.0935247
  18 STRETCH   6 19                     2.0704665       1.0956438
  19 STRETCH   6 18                     2.0703953       1.0956061
  20 STRETCH   7 21                     1.8374962       0.9723612
  21 BEND      1  3  6                  1.9794249     113.4126954
  22 BEND      1  3 11                  1.9341878     110.8208002
  23 BEND      1  2  4                  1.9149998     109.7214081
  24 BEND      1  3  7                  1.8926626     108.4415780
  25 BEND      1  2 10                  1.9058226     109.1955936
  26 BEND      1  2  5                  1.9613607     112.3776878
  27 BEND      2  5 16                  1.9419120     111.2633642
  28 BEND      2  4 14                  1.9431138     111.3322174
  29 BEND      2  1  3                  2.0227658     115.8959427
  30 BEND      2  5 15                  1.9330427     110.7551895
  31 BEND      2  1  8                  1.9093823     109.3995473
  32 BEND      2  4 13                  1.9340539     110.8131270
  33 BEND      2  1  9                  1.9060478     109.2084952
  34 BEND      2  4 12                  1.9340978     110.8156383
  35 BEND      2  5 17                  1.9435355     111.3563830
  36 BEND      3  1  9                  1.8948323     108.5658949
  37 BEND      3  6 18                  1.9365099     110.9538451
  38 BEND      3  6 20                  1.9527394     111.8837286
  39 BEND      3  7 21                  1.8769367     107.5405506
  40 BEND      3  1  8                  1.8918219     108.3934115
  41 BEND      3  6 19                  1.9258606     110.3436821
  42 BEND      4  2  5                  1.9151302     109.7288774
  43 BEND      4  2 10                  1.8730687     107.3189341
  44 BEND      5  2 10                  1.8911967     108.3575865
  45 BEND      6  3 11                  1.9108954     109.4862421
  46 BEND      6  3  7                  1.8743761     107.3938386
  47 BEND      7  3 11                  1.8679171     107.0237661
  48 BEND      8  1  9                  1.8290837     104.7987777
  49 BEND     12  4 13                  1.8792597     107.6736516
  50 BEND     12  4 14                  1.8850597     108.0059631
  51 BEND     13  4 14                  1.8859907     108.0593069
  52 BEND     15  5 17                  1.8705156     107.1726517
  53 BEND     15  5 16                  1.8839729     107.9436976
  54 BEND     16  5 17                  1.8881384     108.1823615
  55 BEND     18  6 19                  1.8602381     106.5837943
  56 BEND     18  6 20                  1.8981223     108.7543949
  57 BEND     19  6 20                  1.8873094     108.1348614
  58 TORSION   1  2  4 12              -3.1006488    -177.6540882
  59 TORSION   1  2  4 13              -1.0154849     -58.1830005
  60 TORSION   1  2  5 17               1.1274807      64.5998881
  61 TORSION   1  2  4 14               1.0840996      62.1143340
  62 TORSION   1  2  5 15              -3.0760205    -176.2429939
  63 TORSION   1  2  5 16              -0.9804638     -56.1764385
  64 TORSION   1  3  6 18              -0.9715632     -55.6664708
  65 TORSION   1  3  6 19              -3.0293256    -173.5675734
  66 TORSION   1  3  7 21              -1.0419395     -59.6987334
  67 TORSION   1  3  6 20               1.1517471      65.9902499
  68 TORSION   2  1  3  7              -3.1270101    -179.1644793
  69 TORSION   2  1  3  6              -1.0466654     -59.9695118
  70 TORSION   2  1  3 11               1.1107736      63.6426385
  71 TORSION   3  1  2  5              -1.0303894     -59.0369648
  72 TORSION   3  1  2  4               3.1170222     178.5922150
  73 TORSION   3  1  2 10               1.0686138      61.2270582
  74 TORSION   4  2  5 16               1.1552362      66.1901565
  75 TORSION   4  2  5 17              -3.0200046    -173.0335168
  76 TORSION   4  2  1  8              -1.0215570     -58.5309021
  77 TORSION   4  2  1  9               0.9710944      55.6396125
  78 TORSION   4  2  5 15              -0.9403205     -53.8763988
  79 TORSION   5  2  4 12               1.0195148      58.4138951
  80 TORSION   5  2  4 13               3.1046786     177.8849828
  81 TORSION   5  2  1  8               1.1142168      63.8399180
  82 TORSION   5  2  1  9               3.1068682     178.0104327
  83 TORSION   5  2  4 14              -1.0789221     -61.8176827
  84 TORSION   6  3  1  8               3.0827069     176.6260927
  85 TORSION   6  3  7 21               3.0959751     177.3863058
  86 TORSION   6  3  1  9               1.1051437      63.3200725
  87 TORSION   7  3  6 18               1.1192345      64.1274147
  88 TORSION   7  3  6 19              -0.9385279     -53.7736879
  89 TORSION   7  3  1  8               1.0023622      57.4311252
  90 TORSION   7  3  6 20              -3.0406404    -174.2158647
  91 TORSION   7  3  1  9              -0.9752009     -55.8748950
  92 TORSION   8  1  2 10              -3.0699654    -175.8960589
  93 TORSION   8  1  3 11              -1.0430394     -59.7617570
  94 TORSION   9  1  3 11              -3.0206025    -173.0677772
  95 TORSION   9  1  2 10              -1.0773140     -61.7255443
  96 TORSION  10  2  5 16              -3.0879066    -176.9240177
  97 TORSION  10  2  5 17              -0.9799621     -56.1476910
  98 TORSION  10  2  4 12              -1.0318735     -59.1219992
  99 TORSION  10  2  4 13               1.0532903      60.3490885
 100 TORSION  10  2  5 15               1.0997220      63.0094270
 101 TORSION  10  2  4 14              -3.1303104    -179.3535770
 102 TORSION  11  3  6 19               1.0837349      62.0934369
 103 TORSION  11  3  7 21               1.0454934      59.9023582
 104 TORSION  11  3  6 20              -1.0183776     -58.3487398
 105 TORSION  11  3  6 18               3.1414974     179.9945395

     ------------------------------------------
     THE POINT GROUP IS C1 , NAXIS= 1, ORDER= 1
     ------------------------------------------

     DIMENSIONS OF THE SYMMETRY SUBSPACES ARE
 A   =  217

 ..... DONE SETTING UP THE RUN .....
 STEP CPU TIME =     0.02 TOTAL CPU TIME =        0.0 (    0.0 MIN)
 TOTAL WALL CLOCK TIME=        0.0 SECONDS, CPU UTILIZATION IS 100.00%


          -----------------------------
          STATIONARY POINT LOCATION RUN
          -----------------------------

 OBTAINING INITIAL HESSIAN, HESS=GUESS   
 DIAGONAL GUESS HESSIAN IN INTERNAL COORDS IS
     1  0.3404     2  0.3606     3  0.3404     4  0.3640     5  0.3663
     6  0.3422     7  0.3681     8  0.3608     9  0.3733    10  0.3432
    11  0.3427    12  0.3428    13  0.3429    14  0.3428    15  0.3427
    16  0.3435    17  0.3440    18  0.3426    19  0.3426    20  0.3515
    21  0.2488    22  0.2235    23  0.2477    24  0.2427    25  0.2232
    26  0.2479    27  0.2238    28  0.2237    29  0.2475    30  0.2238
    31  0.2230    32  0.2237    33  0.2230    34  0.2237    35  0.2239
    36  0.2233    37  0.2242    38  0.2244    39  0.2140    40  0.2233
    41  0.2242    42  0.2485    43  0.2236    44  0.2238    45  0.2243
    46  0.2436    47  0.2192    48  0.2025    49  0.2029    50  0.2029
    51  0.2029    52  0.2029    53  0.2029    54  0.2029    55  0.2028
    56  0.2029    57  0.2029    58  0.2500    59  0.2500    60  0.2500
    61  0.2500    62  0.2500    63  0.2500    64  0.2500    65  0.2500
    66  0.2500    67  0.2500    68  0.2500    69  0.2500    70  0.2500
    71  0.2500    72  0.2500    73  0.2500    74  0.2500    75  0.2500
    76  0.2500    77  0.2500    78  0.2500    79  0.2500    80  0.2500
    81  0.2500    82  0.2500    83  0.2500    84  0.2500    85  0.2500
    86  0.2500    87  0.2500    88  0.2500    89  0.2500    90  0.2500
    91  0.2500    92  0.2500    93  0.2500    94  0.2500    95  0.2500
    96  0.2500    97  0.2500    98  0.2500    99  0.2500   100  0.2500
   101  0.2500   102  0.2500   103  0.2500   104  0.2500   105  0.2500
 TRANSFORMING HESSIAN TO SYMMETRY COORDINATES

          PARAMETERS CONTROLLING GEOMETRY SEARCH ARE
          METHOD =QA                  UPHESS =BFGS    
          NNEG   =         0          NFRZ   =         3
          NSTEP  =        50          IFOLOW =         1
          HESS   =GUESS               RESTAR =         F
          IHREP  =         0          HSSEND =         F
          NPRT   =         0          NPUN   =         0
          OPTTOL = 5.000E-04          RMIN   = 1.500E-03
          RMAX   = 1.000E-01          RLIM   = 7.000E-02
          DXMAX  = 3.000E-01          PURIFY =         F
          MOVIE  =         F          TRUPD  =         T
          TRMAX  = 5.000E-01          TRMIN  = 5.000E-02
          ITBMAT =         5          STPT   =         F
          STSTEP = 1.000E-02          PROJCT=          F
          FROZEN COORD(S)=   1   2   3


      ***** EQUILIBRIUM GEOMETRY LOCATED *****
            (SUBJECT TO   3 CONSTRAINT(S))
 COORDINATES OF ALL ATOMS ARE (ANGS)
   ATOM   CHARGE       X              Y              Z
 ------------------------------------------------------------
 C           6.0   2.4135632169   2.6695764496   2.7249549120
 C           6.0   3.8915534222   2.7123244366   3.1426306810
 C           6.0   1.5453813262   1.5975794743   3.3869243428
 C           6.0   4.6295798098   3.7997576790   2.3559390977
 C           6.0   4.0690580682   2.9257117215   4.6503655869
 C           6.0   2.0224000187   0.1775068203   3.1326691797
 O           8.0   0.2238708777   1.6763098677   2.8775768664
 H           1.0   1.9645753174   3.6415240873   2.9340512428
 H           1.0   2.3482978577   2.5232620586   1.6480745926
 H           1.0   4.3475052940   1.7598490160   2.8814824048
 H           1.0   1.5081905075   1.7686131207   4.4593965229
 H           1.0   5.6869295127   3.8080068354   2.6068224928
 H           1.0   4.5416329728   3.6376114901   1.2848602597
 H           1.0   4.2258404673   4.7851942991   2.5793981144
 H           1.0   5.1223176095   3.0080658800   4.9036414674
 H           1.0   3.5751792061   3.8409724883   4.9713649843
 H           1.0   3.6572922546   2.1057733825   5.2301348927
 H           1.0   2.0982728815  -0.0134093056   2.0651776039
 H           1.0   1.3193461852  -0.5303219624   3.5598707109
 H           1.0   2.9935150366   0.0017853260   3.5816887160
 H           1.0  -0.1265584566   2.5323523591   3.0605060793


                     --------------------
                     INTERNAL COORDINATES
                     --------------------

                 - - ATOMS - -         COORDINATE      COORDINATE
 NO.   TYPE    I  J  K  L  M  N        (BOHR,RAD)       (ANG,DEG)
 ----------------------------------------------------------------
   1 STRETCH   1  9                     2.0574063       1.0887326
   2 STRETCH   1  2                     2.9035045       1.5364685
   3 STRETCH   1  8                     2.0614422       1.0908683
   4 STRETCH   1  3                     2.8914171       1.5300722
   5 STRETCH   2  4                     2.8944765       1.5316911
   6 STRETCH   2 10                     2.0556362       1.0877959
   7 STRETCH   2  5                     2.8970840       1.5330710
   8 STRETCH   3  7                     2.6804970       1.4184580
   9 STRETCH   3  6                     2.8713880       1.5194732
  10 STRETCH   3 11                     2.0534916       1.0866611
  11 STRETCH   4 14                     2.0562656       1.0881290
  12 STRETCH   4 13                     2.0538426       1.0868468
  13 STRETCH   4 12                     2.0536366       1.0867377
  14 STRETCH   5 16                     2.0568165       1.0884205
  15 STRETCH   5 15                     2.0530171       1.0864099
  16 STRETCH   5 17                     2.0510122       1.0853490
  17 STRETCH   6 20                     2.0489031       1.0842329
  18 STRETCH   6 19                     2.0508598       1.0852684
  19 STRETCH   6 18                     2.0542842       1.0870805
  20 STRETCH   7 21                     1.7818348       0.9429064
  21 BEND      1  3  6                  1.9869659     113.8447603
  22 BEND      1  3 11                  1.9136084     109.6416856
  23 BEND      1  2  4                  1.9215769     110.0982444
  24 BEND      1  3  7                  1.9117538     109.5354257
  25 BEND      1  2 10                  1.8897536     108.2749055
  26 BEND      1  2  5                  1.9634034     112.4947259
  27 BEND      2  5 16                  1.9332354     110.7662312
  28 BEND      2  4 14                  1.9376684     111.0202216
  29 BEND      2  1  3                  2.0349879     116.5962158
  30 BEND      2  5 15                  1.9305889     110.6145943
  31 BEND      2  1  8                  1.8954991     108.6040974
  32 BEND      2  4 13                  1.9404048     111.1770084
  33 BEND      2  1  9                  1.9074026     109.2861169
  34 BEND      2  4 12                  1.9343791     110.8317603
  35 BEND      2  5 17                  1.9565645     112.1028880
  36 BEND      3  1  9                  1.8752368     107.4431537
  37 BEND      3  6 18                  1.9287529     110.5094014
  38 BEND      3  6 20                  1.9426615     111.3063035
  39 BEND      3  7 21                  1.9038954     109.0851708
  40 BEND      3  1  8                  1.8836480     107.9250814
  41 BEND      3  6 19                  1.9180408     109.8956426
  42 BEND      4  2  5                  1.9289166     110.5187814
  43 BEND      4  2 10                  1.8716883     107.2398421
  44 BEND      5  2 10                  1.8854077     108.0259065
  45 BEND      6  3 11                  1.8996814     108.8437270
  46 BEND      6  3  7                  1.8590384     106.5150558
  47 BEND      7  3 11                  1.8899625     108.2868742
  48 BEND      8  1  9                  1.8594462     106.5384203
  49 BEND     12  4 13                  1.8832279     107.9010081
  50 BEND     12  4 14                  1.8825438     107.8618141
  51 BEND     13  4 14                  1.8833262     107.9066399
  52 BEND     15  5 17                  1.8760579     107.4901984
  53 BEND     15  5 16                  1.8832684     107.9033324
  54 BEND     16  5 17                  1.8813463     107.7932037
  55 BEND     18  6 19                  1.8935866     108.4945215
  56 BEND     18  6 20                  1.8919870     108.4028689
  57 BEND     19  6 20                  1.8875734     108.1499895
  58 TORSION   1  2  4 12              -3.0933028    -177.2331967
  59 TORSION   1  2  4 13              -0.9987924     -57.2265910
  60 TORSION   1  2  5 17               1.1046763      63.2932916
  61 TORSION   1  2  4 14               1.0980429      62.9132240
  62 TORSION   1  2  5 15              -3.0848759    -176.7503701
  63 TORSION   1  2  5 16              -0.9975098     -57.1531036
  64 TORSION   1  3  6 18              -0.9717486     -55.6770955
  65 TORSION   1  3  6 19              -3.0610232    -175.3837092
  66 TORSION   1  3  7 21              -1.0403345     -59.6067753
  67 TORSION   1  3  6 20               1.1315386      64.8323888
  68 TORSION   2  1  3  7              -3.1225779    -178.9105368
  69 TORSION   2  1  3  6              -1.0435852     -59.7930285
  70 TORSION   2  1  3 11               1.0889909      62.3945846
  71 TORSION   3  1  2  5              -1.0183168     -58.3452537
  72 TORSION   3  1  2  4               3.1050998     177.9091151
  73 TORSION   3  1  2 10               1.0639633      60.9606051
  74 TORSION   4  2  5 16               1.1581749      66.3585350
  75 TORSION   4  2  5 17              -3.0228242    -173.1950697
  76 TORSION   4  2  1  8              -1.0466718     -59.9698761
  77 TORSION   4  2  1  9               0.9752744      55.8791059
  78 TORSION   4  2  5 15              -0.9291912     -53.2387315
  79 TORSION   5  2  4 12               1.0102031      57.8803765
  80 TORSION   5  2  4 13               3.1047135     177.8869822
  81 TORSION   5  2  1  8               1.1130969      63.7757550
  82 TORSION   5  2  1  9               3.1350431     179.6247371
  83 TORSION   5  2  4 14              -1.0816364     -61.9732028
  84 TORSION   6  3  1  8               3.1019990     177.7314486
  85 TORSION   6  3  7 21               3.0865585     176.8467760
  86 TORSION   6  3  1  9               1.1029960      63.1970181
  87 TORSION   7  3  6 18               1.1369964      65.1450968
  88 TORSION   7  3  6 19              -0.9522781     -54.5615169
  89 TORSION   7  3  1  8               1.0230062      58.6139403
  90 TORSION   7  3  6 20              -3.0429016    -174.3454189
  91 TORSION   7  3  1  9              -0.9759967     -55.9204901
  92 TORSION   8  1  2 10              -3.0878083    -176.9183862
  93 TORSION   8  1  3 11              -1.0486102     -60.0809383
  94 TORSION   9  1  3 11              -3.0476131    -174.6153687
  95 TORSION   9  1  2 10              -1.0658622     -61.0694042
  96 TORSION  10  2  5 16              -3.0823205    -176.6039569
  97 TORSION  10  2  5 17              -0.9801343     -56.1575616
  98 TORSION  10  2  4 12              -1.0409429     -59.6416333
  99 TORSION  10  2  4 13               1.0535675      60.3649724
 100 TORSION  10  2  5 15               1.1134987      63.7987766
 101 TORSION  10  2  4 14              -3.1327825    -179.4952126
 102 TORSION  11  3  6 19               1.0819274      61.9898738
 103 TORSION  11  3  7 21               1.0458732      59.9241210
 104 TORSION  11  3  6 20              -1.0086961     -57.7940282
 105 TORSION  11  3  6 18              -3.1119834    -178.3035125

          INTERNUCLEAR DISTANCES (ANGS.)


 =====================================================
   GAMESS/COSab RESULTS
 =====================================================

   Dielectric Constant                  = INFTY
   Basic Grid Size                      =                 1082
   Number of Segments                   =                   92
   Number of Segments located on spheres=                  254
   Number of Segments of the cavity     =                  652
   Solvent Radius (rsolv)               = 1.40
   Outlying Charge Error Method         = double cavity

 =====================================================

  Total solvated Energy (a.u.)          =  -310.3132051033
  Total Energy corrected (a.u.)         =  -310.3130810865

  Outlying charge effect (a.u.)         =     0.0001240168
  Outlying charge effect (kcal/mol)     =     0.0778218114

  Dielectric Energy (a.u.)              =    -0.0103700595
  Dielectric energy corr. (a.u.)        =    -0.0102460426

  Sum of polarization charges           =     0.0255107255
  Sum of polarization charges(cor.)     =    -0.0255107255

  Total surface area of cavity (A**2)   =  158.01
  Total volume of cavity (A**3)         =  157.24

 =====================================================
 NPS=                   652
NR.  ATOM  (X, Y, Z)(a.u.)                  CHARGE(e)  AREA(A**2) SIGMA(e/A**2)
   1   1   2.305705   6.689528   2.601324   0.001505   0.325193   0.004628
   2   1   2.401417   7.368446   3.094893   0.001002   0.232280   0.004314
   3   1   4.150982   7.692836   2.484102   0.000707   0.185824   0.003803
   4   1   3.287720   7.412462   2.492896   0.001765   0.325193   0.005429
   5   1   3.771566   8.064126   3.017620   0.000519   0.139368   0.003723
   6   2  10.873116   3.772774   6.203090   0.000104   0.092912   0.001121
   7   2   7.763870   3.236467   2.690993   0.000038   0.092912   0.000411
   8   2  10.742133   3.550231   6.507049   0.000037   0.046456   0.000789
   9   3   0.509948   2.113640   9.167063   0.000173   0.092912   0.001864
  10   3   1.564015   5.728341   8.659566  -0.000566   0.139368  -0.004058
  11   3   0.557918   1.325378   8.815924   0.000401   0.139368   0.002877
  12   3   1.041515   1.446551   9.278165   0.000036   0.139368   0.000257
  13   4   7.866771   9.753262   1.827686   0.002278   0.418105   0.005448
  14   4  10.935027   4.443440   3.033497   0.000718   0.232280   0.003089
  15   4  11.278815   7.784287   1.710219   0.001813   0.418105   0.004336
  16   4  10.418632  10.570652   4.404903   0.001436   0.371649   0.003863
  17   4   6.219796   8.927284   2.252539   0.001453   0.325193   0.004469
  18   4  11.235208   9.997516   4.859041   0.001552   0.371649   0.004176
  19   4  11.907427   7.590596   2.417866   0.001145   0.278737   0.004109
  20   4  11.595081   5.047700   3.174156   0.001178   0.325193   0.003623
  21   4   6.919081   8.995826   1.687742   0.001004   0.232280   0.004323
  22   4   6.762691   9.658857   2.403170   0.001351   0.278737   0.004846
  23   4  11.420698   4.517764   4.219449   0.000561   0.232280   0.002413
  24   4  11.039510   5.242887   2.153881   0.001377   0.325193   0.004235
  25   4  11.435294   6.504314   1.881321   0.001735   0.325193   0.005336
  26   4  11.405531   8.930372   2.411728   0.001439   0.464561   0.003097
  27   4  10.942176  10.069696   3.391353   0.001327   0.464561   0.002857
  28   4  10.510481  10.244060   5.791769   0.001960   0.371649   0.005273
  29   4   9.974352   9.792351   6.893421   0.001132   0.278737   0.004063
  30   4  10.271520   4.429569   2.355087   0.000776   0.278737   0.002783
  31   4  10.433141   8.896417   1.536218   0.001198   0.418105   0.002865
  32   4   9.192637   9.643819   1.620274   0.001439   0.418105   0.003441
  33   4   8.797505  10.372698   2.429281   0.001627   0.464561   0.003503
  34   4   9.814306  10.638718   3.361525   0.000906   0.325193   0.002787
  35   4  11.639807   9.373846   3.396352   0.000760   0.278737   0.002728
  36   4  11.724039   5.905107   2.501564   0.001303   0.278737   0.004676
  37   4  10.868632   9.508833   6.542236   0.001562   0.325193   0.004803
  38   4   9.464458   4.250964   2.174009   0.000285   0.139368   0.002046
  39   4  10.275120   9.903648   2.321702   0.001101   0.464561   0.002370
  40   5   5.442289   5.965642  11.795228   0.002157   0.418105   0.005159
  41   5   9.805380   2.407056   9.036109   0.001093   0.371649   0.002941
  42   5   8.757948   8.056591  11.386526   0.001864   0.418105   0.004459
  43   5   8.673313   4.165634  12.172878   0.001346   0.371649   0.003621
  44   5   4.834264   5.936226  11.230549   0.000502   0.139368   0.003602
  45   5   9.679028   4.339390  11.773040   0.001483   0.371649   0.003990
  46   5   9.641973   7.771282  11.120946   0.001151   0.278737   0.004129
  47   5  10.478657   3.041555   9.351763   0.000554   0.185824   0.002980
  48   5   4.761133   6.415810  11.006635   0.000179   0.046456   0.003852
  49   5   9.256119   8.915177   9.389695   0.001175   0.232280   0.005059
  50   5   9.210981   8.656346  10.266951   0.002012   0.371649   0.005414
  51   5   8.989559   6.908607  12.057475   0.001457   0.464561   0.003137
  52   5   8.804455   5.384339  12.396249   0.001325   0.464561   0.002852
  53   5   9.371244   3.269362  11.307957   0.001783   0.371649   0.004798
  54   5   9.542767   2.565508  10.226036   0.001224   0.278737   0.004390
  55   5   9.118227   2.134367   9.636754   0.000487   0.185824   0.002619
  56   5   7.760935   7.358439  12.094212   0.001262   0.418105   0.003018
  57   5   6.567716   6.548224  12.250123   0.001448   0.418105   0.003463
  58   5   6.434933   5.401877  12.350846   0.001562   0.464561   0.003363
  59   5   7.692466   4.792300  12.494914   0.000844   0.325193   0.002594
  60   5   9.537563   5.949060  12.057773   0.000736   0.278737   0.002640
  61   5   9.947108   8.439623   9.632997   0.000587   0.139368   0.004211
  62   5  10.562409   3.097003   8.446679   0.000580   0.232280   0.002496
  63   5  10.109194   3.172831  10.484463   0.001371   0.325193   0.004217
  64   5   7.790956   6.142772  12.515785   0.001103   0.464561   0.002375
  65   6   7.060705  -0.909351   4.421817   0.000650   0.185824   0.003496
  66   6   4.415976  -3.287452   5.022193   0.000750   0.371649   0.002018
  67   6   0.908009  -1.522714   4.389719   0.000979   0.325193   0.003011
  68   6   4.416537  -0.376033   9.583801   0.000580   0.278737   0.002082
  69   6   4.883964  -1.123212   9.240777   0.000570   0.185824   0.003067
  70   6   3.374133  -0.180641   9.637069   0.000401   0.232280   0.001727
  71   6   3.394295  -0.873145   9.475270   0.000654   0.232280   0.002816
  72   6   1.659077  -1.821987   3.694473   0.001314   0.278737   0.004713
  73   6   4.370069  -2.857159   3.972841   0.001063   0.418105   0.002541
  74   6   6.694968  -0.840671   3.764449   0.001072   0.278737   0.003846
  75   6   4.915770  -2.400257   8.287031   0.001374   0.325193   0.004224
  76   6   4.168389  -2.415439   8.488296   0.000904   0.232280   0.003891
  77   6   6.631192  -1.758670   4.503467   0.001187   0.325193   0.003651
  78   6   5.600133  -2.752124   4.659443   0.000977   0.418105   0.002336
  79   6   3.352045  -3.205867   4.685890   0.001320   0.371649   0.003551
  80   6   1.941005  -2.407805   4.125024   0.001158   0.232280   0.004984
  81   6   1.235780  -0.965436   3.489956   0.000982   0.278737   0.003522
  82   6   5.461237  -2.885046   7.026642   0.001021   0.371649   0.002749
  83   6   5.188860  -3.188103   5.922415   0.000928   0.464561   0.001997
  84   6   3.892495  -3.443036   5.968432   0.000783   0.325193   0.002407
  85   6   4.157426  -1.569388   9.166911   0.001513   0.371649   0.004072
  86   6   2.399000  -0.272084   9.368186   0.000177   0.139368   0.001269
  87   6   2.833223  -2.712085   3.914991   0.001082   0.278737   0.003880
  88   6   5.893820  -2.149437   3.966334   0.000862   0.278737   0.003091
  89   6   4.410651  -3.183086   7.167859   0.001378   0.418105   0.003296
  90   6   6.268612  -2.520127   5.541655   0.000779   0.371649   0.002096
  91   6   2.416977  -2.973872   4.754031   0.000763   0.232280   0.003284
  92   7   0.119053   2.149394   2.366159   0.006003   0.309230   0.019413
  93   7  -1.822347   0.881573   4.893626   0.005093   0.274871   0.018529
  94   7  -2.219380   3.932423   3.706516   0.001628   0.274871   0.005923
  95   7  -2.288928   3.272039   7.226374   0.003197   0.343589   0.009305
  96   7  -0.027906   1.394006   2.751739   0.002799   0.137436   0.020367
  97   7  -1.111295   0.447233   4.538301   0.005364   0.274871   0.019516
  98   7  -0.798673   1.669977   2.824657   0.005159   0.274871   0.018770
  99   7  -1.395074   1.069445   3.747822   0.005146   0.274871   0.018720
 100   7  -1.492617   0.570518   5.824064   0.007002   0.343589   0.020380
 101   7  -1.279770   0.943722   7.086672   0.003601   0.171795   0.020962
 102   7   0.751085   2.664875   2.243436   0.003253   0.137436   0.023670
 103   7  -2.696655   3.732772   4.721739   0.000877   0.274871   0.003192
 104   7  -2.763418   3.424654   6.025206   0.001624   0.309230   0.005250
 105   7  -1.630324   3.350732   7.950751   0.002362   0.240512   0.009819
 106   7  -0.955008   3.735692   8.326258   0.001147   0.171795   0.006676
 107   7  -0.313007   5.074563   2.910590   0.002883   0.309230   0.009324
 108   7  -1.374527   4.558486   3.114211   0.002050   0.309230   0.006628
 109   7  -0.941519   2.681058   2.528243   0.006136   0.343589   0.017859
 110   7  -1.652189   3.405296   2.947535   0.004862   0.377948   0.012864
 111   7  -2.456377   2.844348   3.965110   0.005483   0.481025   0.011398
 112   7  -2.253415   1.698388   4.323339   0.006227   0.377948   0.016475
 113   7  -2.374176   1.518412   5.578481   0.007236   0.412307   0.017551
 114   7  -2.512541   2.296263   6.527506   0.006782   0.446666   0.015183
 115   7  -1.780188   2.266700   7.651071   0.006288   0.377948   0.016638
 116   7  -1.004773   1.615563   7.911011   0.005542   0.309230   0.017921
 117   7   0.177971   4.507360   2.486553   0.003124   0.171795   0.018187
 118   7   0.126614   3.343502   2.205821   0.006287   0.309230   0.020330
 119   7  -0.598227   0.870040   3.378190   0.004906   0.240512   0.020397
 120   7  -1.706326   2.026920   3.263236   0.006398   0.377948   0.016928
 121   7  -1.881965   1.342882   6.823952   0.006753   0.343589   0.019654
 122   7  -2.780765   2.658195   5.236581   0.004604   0.412307   0.011165
 123   7  -1.014307   2.684322   8.312704   0.002948   0.206154   0.014299
 124   7  -0.699841   3.914874   2.480541   0.005799   0.377948   0.015342
 125   8   2.575332   9.054462   5.686336  -0.001339   0.294415  -0.004548
 126   8   2.506751   8.015857   7.359628  -0.001224   0.255160  -0.004797
 127   8   2.478471   8.494498   4.162373  -0.000533   0.333671  -0.001597
 128   8   3.115817   8.869147   6.859191  -0.001546   0.314043  -0.004923
 129   8   2.183136   8.550605   6.498590  -0.001562   0.294415  -0.005306
 130   8   2.014161   8.603218   5.112859  -0.001661   0.353299  -0.004703
 131   8   3.273077   9.040027   4.457051  -0.001326   0.372926  -0.003555
 132   8   3.446579   9.299968   5.884123  -0.002085   0.353299  -0.005902
 133   9   4.314347   4.673289   0.662701  -0.001822   0.372926  -0.004886
 134   9   5.609666   3.466039   1.392315  -0.000980   0.235532  -0.004160
 135   9   3.739032   6.286994   1.314252  -0.000319   0.274788  -0.001162
 136   9   2.762003   5.113922   1.351491  -0.000760   0.255160  -0.002980
 137   9   4.588917   3.581426   0.968813  -0.001452   0.294415  -0.004931
 138   9   5.261211   4.228614   0.863724  -0.001183   0.235532  -0.005022
 139   9   4.410729   5.700341   0.841604  -0.001435   0.314043  -0.004569
 140   9   3.295161   5.537647   1.080221  -0.000910   0.333671  -0.002728
 141   9   3.378141   4.026904   1.025649  -0.002270   0.451437  -0.005028
 142  10   9.546925   1.365767   4.795880  -0.001963   0.392554  -0.005001
 143  10  10.328417   2.259529   6.104405  -0.000556   0.255160  -0.002179
 144  10  10.271888   2.365836   4.504145  -0.000699   0.255160  -0.002740
 145  10   8.611820   2.260224   3.267355  -0.000751   0.255160  -0.002942
 146  10   9.752096   1.517288   6.080962  -0.001424   0.314043  -0.004536
 147  10  10.390624   2.193588   5.293993  -0.000864   0.314043  -0.002751
 148  10   9.647625   2.228323   3.777770  -0.000834   0.314043  -0.002654
 149  10   8.959081   1.600799   3.861758  -0.001100   0.235532  -0.004671
 150  11   2.452974   3.621174  10.835276  -0.002514   0.412182  -0.006098
 151  11   2.136677   1.980567  10.343336  -0.000997   0.294415  -0.003385
 152  11   1.029621   3.348429  10.076606  -0.000991   0.294415  -0.003367
 153  11   1.782616   5.148714   9.704585  -0.001136   0.274788  -0.004134
 154  11   2.913844   2.393167  10.692081  -0.001887   0.333671  -0.005654
 155  11   1.591910   2.713608  10.441254  -0.001383   0.372926  -0.003709
 156  11   1.332425   4.225997  10.144820  -0.001615   0.412182  -0.003918
 157  11   2.263616   4.706847  10.383796  -0.001560   0.274788  -0.005676
 158  12  13.187691   7.306574   5.180383  -0.002374   0.451437  -0.005259
 159  12  12.111038   8.574204   6.434360  -0.000973   0.353299  -0.002754
 160  12  12.479589   8.937397   4.939715  -0.000722   0.353299  -0.002045
 161  12  12.802119   7.251996   3.581803  -0.000724   0.372926  -0.001943
 162  12  12.503945   5.503243   4.640628  -0.000726   0.372926  -0.001946
 163  12  12.828999   7.316672   6.224155  -0.002188   0.392554  -0.005575
 164  12  12.672374   8.474814   5.757982  -0.001220   0.333671  -0.003655
 165  12  12.877221   8.203843   4.232956  -0.001571   0.471065  -0.003335
 166  12  12.961354   6.421181   4.198139  -0.001624   0.471065  -0.003447
 167  12  12.734319   5.950144   5.655704  -0.002362   0.490692  -0.004814
 168  13   8.802020   6.746683  -0.015469  -0.002258   0.431809  -0.005228
 169  13   7.291977   8.012037   0.674499  -0.000830   0.392554  -0.002114
 170  13   8.677196   4.922612   0.938777  -0.001294   0.372926  -0.003471
 171  13  10.134722   6.294778   0.614201  -0.000914   0.392554  -0.002329
 172  13   9.443855   8.162843   0.522191  -0.000526   0.274788  -0.001916
 173  13   7.534172   6.999698   0.209820  -0.002215   0.431809  -0.005130
 174  13   8.088127   5.829181   0.260328  -0.002151   0.392554  -0.005479
 175  13   9.451829   5.501460   0.585426  -0.001478   0.451437  -0.003274
 176  13   9.898771   7.275850   0.393081  -0.001159   0.392554  -0.002954
 177  13   8.464237   8.112850   0.309865  -0.001607   0.510320  -0.003150
 178  14   7.314577  11.404376   4.959183  -0.001993   0.412182  -0.004834
 179  14   6.296765  10.416455   3.736177  -0.000687   0.274788  -0.002499
 180  14   7.844597  11.166661   3.647995  -0.000802   0.372926  -0.002149
 181  14   8.992717  11.180026   5.547261  -0.000623   0.333671  -0.001867
 182  14   8.464684  10.804644   6.517892  -0.001019   0.353299  -0.002883
 183  14   6.304725  10.820688   5.094017  -0.002354   0.431809  -0.005451
 184  14   6.902903  10.988076   3.835996  -0.001032   0.353299  -0.002920
 185  14   8.595137  11.393315   4.502537  -0.001191   0.431809  -0.002758
 186  14   7.932081  11.292210   5.860221  -0.001438   0.333671  -0.004309
 187  14   6.926330  10.839701   6.171920  -0.002064   0.353299  -0.005841
 188  15  11.961945   5.383094  10.124432  -0.002564   0.490692  -0.005225
 189  15  11.516044   4.065935   9.475529  -0.000828   0.372926  -0.002219
 190  15  11.095360   5.253508  11.227540  -0.001109   0.412182  -0.002691
 191  15  11.015234   7.207550  10.656413  -0.000786   0.353299  -0.002226
 192  15  11.139304   7.626913   9.629338  -0.000746   0.294415  -0.002535
 193  15  11.887673   4.733688   8.760224  -0.001923   0.431809  -0.004453
 194  15  11.287531   4.345085  10.553540  -0.001033   0.412182  -0.002507
 195  15  11.187013   6.309214  11.103106  -0.001598   0.471065  -0.003393
 196  15  11.793999   6.836871   9.753386  -0.001949   0.392554  -0.004965
 197  15  12.109488   6.044813   9.225326  -0.001922   0.333671  -0.005761
 198  16   5.789284   9.262409  10.435763  -0.002142   0.431809  -0.004960
 199  16   4.837455   7.710949  10.860460  -0.000867   0.372926  -0.002325
 200  16   7.577708   9.426587  10.206286  -0.000718   0.372926  -0.001925
 201  16   6.546400   8.309422  11.605036  -0.000684   0.372926  -0.001834
 202  16   4.722994   8.499473   9.995507  -0.002199   0.451437  -0.004872
 203  16   5.517266   9.376182   9.270932  -0.002184   0.372926  -0.005855
 204  16   6.700344   9.711012   9.523355  -0.002005   0.431809  -0.004642
 205  16   6.973070   9.139920  10.959069  -0.001358   0.431809  -0.003146
 206  16   5.555209   8.319872  11.256270  -0.001452   0.431809  -0.003362
 207  17   6.178872   2.224292  11.438694  -0.002578   0.392554  -0.006567
 208  17   5.868612   3.885200  12.105938  -0.000993   0.372926  -0.002664
 209  17   7.653725   2.584477  11.764555  -0.000938   0.353299  -0.002655
 210  17   7.977920   2.007875  10.888885  -0.000683   0.274788  -0.002486
 211  17   5.739995   3.081862  11.847648  -0.001436   0.274788  -0.005225
 212  17   6.944466   3.177472  12.205388  -0.001265   0.412182  -0.003070
 213  17   7.079868   1.849129  11.095523  -0.001694   0.294415  -0.005753
 214  18   4.062289  -0.898476   1.608433  -0.002672   0.471065  -0.005672
 215  18   5.853414  -0.380195   2.371714  -0.001104   0.372926  -0.002960
 216  18   2.990820   0.402969   1.688499  -0.001739   0.314043  -0.005538
 217  18   2.796873  -1.468395   2.293964  -0.001015   0.372926  -0.002722
 218  18   4.710231  -1.953941   2.575806  -0.000974   0.372926  -0.002612
 219  18   5.138566   0.201685   1.756299  -0.002413   0.431809  -0.005589
 220  18   3.949999   0.147616   1.452116  -0.002004   0.353299  -0.005673
 221  18   2.516698  -0.500709   1.976203  -0.001737   0.431809  -0.004022
 222  18   3.693451  -1.907302   2.347158  -0.001248   0.392554  -0.003180
 223  18   5.322881  -1.231245   2.248089  -0.001531   0.431809  -0.003546
 224  19   1.099797  -2.700396   7.826961  -0.002908   0.490692  -0.005926
 225  19   0.692028  -1.093030   8.395284  -0.001401   0.314043  -0.004461
 226  19   2.241299  -1.929199   8.988206  -0.000862   0.333671  -0.002584
 227  19   2.696334  -3.293417   7.589747  -0.000909   0.353299  -0.002573
 228  19   1.385100  -3.015904   5.859956  -0.000981   0.372926  -0.002631
 229  19   0.400091  -2.024278   5.946631  -0.001162   0.353299  -0.003289
 230  19   1.325546  -1.550256   8.817932  -0.001665   0.431809  -0.003857
 231  19   2.308435  -2.774669   8.418094  -0.001812   0.471065  -0.003847
 232  19   1.921698  -3.390216   6.802780  -0.002051   0.510320  -0.004020
 233  19   0.654015  -2.626594   6.610088  -0.001688   0.353299  -0.004777
 234  19   0.264881  -1.750408   7.441171  -0.002717   0.471065  -0.005768
 235  20   7.764829  -0.737666   7.789520  -0.002897   0.392554  -0.007381
 236  20   6.306199  -1.298879   8.747727  -0.001031   0.353299  -0.002917
 237  20   7.658578  -1.127801   5.903043  -0.000983   0.274788  -0.003578
 238  20   7.126242  -1.965118   6.733683  -0.000977   0.333671  -0.002927
 239  20   7.014876  -0.721497   8.682994  -0.002176   0.314043  -0.006928
 240  20   7.870128  -1.061529   6.820941  -0.002037   0.353299  -0.005765
 241  20   6.969531  -1.791552   7.812627  -0.001789   0.451437  -0.003964
 242  21  -1.371567   6.877136   6.398011  -0.006347   0.353299  -0.017966
 243  21  -2.441480   5.129244   6.816303  -0.006095   0.451437  -0.013501
 244  21  -2.205607   5.708680   4.636418  -0.006149   0.431809  -0.014240
 245  21  -0.612983   6.745627   4.350650  -0.005673   0.333671  -0.017002
 246  21  -0.858576   5.673600   7.988642  -0.004906   0.314043  -0.015622
 247  21  -2.243261   6.196612   5.948707  -0.007099   0.412182  -0.017222
 248  21  -1.519849   6.740852   5.027634  -0.007064   0.412182  -0.017137
 249  21  -0.652922   7.206239   5.844371  -0.007047   0.353299  -0.019948
 250  21  -0.486080   6.644041   7.370893  -0.009062   0.451437  -0.020074
 251  21  -1.717675   6.153846   7.189418  -0.006908   0.412182  -0.016759
 252  21  -2.658089   5.169385   5.592601  -0.004575   0.353299  -0.012949
 253  21  -1.241833   6.088534   3.958209  -0.003945   0.333671  -0.011824
 254  21  -1.635783   5.075282   7.783639  -0.004020   0.353299  -0.011379
 255   1   4.465840   8.490457   3.505108   0.000110   0.067386   0.001630
 256   4   5.230639   8.800929   3.424223   0.000202   0.067386   0.002995
 257   8   4.315922   8.617683   3.740572  -0.000069   0.067386  -0.001020
 258   1   4.887185   7.184907   2.001624   0.000167   0.068130   0.002446
 259   4   5.644723   7.517767   1.944121   0.000202   0.068130   0.002958
 260   9   4.865714   6.945296   1.812792  -0.000072   0.068130  -0.001055
 261   4   5.770494   8.365317   2.355970   0.001148   0.496633   0.002311
 262   1   4.654123   8.063401   2.794430   0.001141   0.496633   0.002297
 263   1   1.913794   5.507763   2.440521   0.000271   0.064000   0.004229
 264   7   1.227930   5.096777   2.637476   0.000956   0.064000   0.014932
 265   9   2.093041   5.381413   2.227881   0.000147   0.064000   0.002294
 266   1   1.182241   6.108051   3.318865   0.000223   0.075518   0.002959
 267   7   0.441401   5.752400   3.381938   0.000094   0.075518   0.001238
 268  21   0.314685   5.969724   3.585687  -0.000438   0.075518  -0.005798
 269   7   0.572458   5.454925   2.982488   0.001728   0.235335   0.007343
 270   1   1.647029   5.885480   2.682639   0.001075   0.259951   0.004135
 271   1   1.575529   7.146345   3.962676  -0.000125   0.081069  -0.001546
 272   8   1.603670   7.372215   4.169884  -0.000292   0.081069  -0.003604
 273  21   0.758490   6.860423   4.267046  -0.000852   0.081069  -0.010513
 274   8   3.604487   8.535679   3.736091  -0.000052   0.074487  -0.000694
 275   8   2.535035   8.026687   3.805600  -0.000383   0.167647  -0.002284
 276   1   3.317075   8.093049   3.410835   0.000086   0.161249   0.000533
 277   1   2.157427   7.516198   3.602089   0.000073   0.091002   0.000803
 278   9   2.597548   5.820252   1.893382  -0.000034   0.082996  -0.000414
 279   9   3.685874   6.538458   1.729843  -0.000428   0.192601  -0.002224
 280   1   2.850735   6.370551   2.143805  -0.000000   0.174801  -0.000002
 281   1   4.126604   7.037951   1.975801   0.000181   0.101398   0.001785
 282  21   0.216050   6.512748   3.963335  -0.002052   0.220769  -0.009295
 283   1   1.443183   6.706805   3.396123   0.000485   0.311295   0.001557
 284   2  10.854849   3.767987   5.434244   0.000002   0.030506   0.000058
 285   4  11.060067   4.143209   5.176151   0.000059   0.030506   0.001926
 286  10  10.751921   3.493759   5.353836  -0.000023   0.030506  -0.000751
 287   2   8.580104   3.402632   2.795178   0.000010   0.030506   0.000336
 288   4   8.813946   3.782451   2.570295   0.000062   0.030506   0.002035
 289  10   8.679774   3.160944   2.949818  -0.000025   0.030506  -0.000813
 290   2  11.132094   4.291092   5.549821   0.000015   0.026139   0.000557
 291   4  11.408369   4.620873   5.296247   0.000000   0.026139   0.000008
 292  12  11.615710   4.837189   5.341641  -0.000034   0.026139  -0.001297
 293   2   8.377228   3.882790   2.398488   0.000021   0.025670   0.000809
 294   4   8.623169   4.207905   2.110073   0.000003   0.025670   0.000130
 295  13   8.584542   4.387704   1.869143  -0.000032   0.025670  -0.001256
 296   4  11.329286   4.443479   5.210582   0.000080   0.035440   0.002250
 297   2  10.974133   3.915847   5.541883   0.000054   0.035440   0.001524
 298   4   8.792252   4.031631   2.261185   0.000102   0.047997   0.002120
 299   2   8.397644   3.539827   2.604998   0.000075   0.047997   0.001558
 300   2  10.502816   3.219547   6.834438   0.000011   0.029679   0.000365
 301   5  10.524546   3.309813   7.325688   0.000057   0.029679   0.001912
 302  10  10.421917   2.980721   6.665161  -0.000027   0.029679  -0.000911
 303   2  10.843026   3.910825   7.152020   0.000007   0.026419   0.000260
 304   5  10.939498   3.960857   7.639912  -0.000003   0.026419  -0.000113
 305  15  11.101053   4.134021   7.828771  -0.000046   0.026419  -0.001733
 306   5  10.766468   3.585646   7.592084   0.000155   0.086103   0.001804
 307   2  10.731181   3.575381   6.869118   0.000102   0.086103   0.001184
 308   2   7.403780   3.884427   2.280577   0.000005   0.168673   0.000031
 309   9   6.723576   3.959299   1.955442  -0.000151   0.168673  -0.000895
[...]
 393   9   4.812731   6.856566   1.608266   0.000019   0.020826   0.000900
 394   4   5.927101   7.764754   1.681992   0.000140   0.029517   0.004728
 395  10   9.034629   2.978519   3.112838  -0.000193   0.173575  -0.001114
 396  10  10.056823   3.039400   3.897787  -0.000887   0.353500  -0.002510
 397  10  10.672767   3.241626   5.013337  -0.000193   0.173575  -0.001112
 398   4   9.766810   3.881579   2.833618   0.000702   0.477976   0.001469
 399   4  10.938388   4.069751   4.192833   0.000735   0.477976   0.001538
 400   4  11.021837   8.394399   7.306821   0.000072   0.086636   0.000832
 401  12  11.281011   8.268329   7.203532  -0.000112   0.086636  -0.001297
 402  15  10.997662   7.872860   8.132629   0.000127   0.086636   0.001466
 403  12  11.964036   5.065246   4.983111  -0.000124   0.071662  -0.001729
 404  12  12.201521   5.550198   3.966262  -0.000340   0.160320  -0.002120
 405  12  12.367845   6.714968   3.226963  -0.000199   0.160320  -0.001240
 406  12  12.324842   8.097225   3.362731  -0.000310   0.160320  -0.001935
 407  12  12.091595   9.083580   4.313318  -0.000357   0.160320  -0.002225
 408  12  11.771609   9.236329   5.656893  -0.000197   0.160320  -0.001226
 409  12  11.535862   8.736475   6.666907  -0.000077   0.071662  -0.001080
 410   4  11.753840   4.975117   4.419354  -0.000191   0.155964  -0.001222
 411   4  12.032652   5.925107   3.213032   0.000076   0.155964   0.000488
 412   4  12.106095   7.441962   2.853606   0.000037   0.155964   0.000235
 413   4  11.941577   8.852563   3.500573  -0.000083   0.155964  -0.000530
 414   4  11.612105   9.530944   4.866837   0.000010   0.155964   0.000062
 415   4  11.263885   9.176067   6.346105   0.000043   0.155964   0.000278
 416  13   6.752469   7.977279   1.212804  -0.000071   0.066779  -0.001060
 417  13   7.618818   8.596435   1.047946  -0.000161   0.147184  -0.001096
 418  13   8.911251   8.724692   0.922422  -0.000239   0.147184  -0.001622
 419  13  10.039654   8.069519   0.928963  -0.000297   0.147184  -0.002016
 420  13  10.567862   6.884163   1.065041  -0.000158   0.147184  -0.001074
 421  13  10.291702   5.626806   1.278059  -0.000197   0.147184  -0.001338
 422  13   9.317922   4.783458   1.485676  -0.000324   0.147184  -0.002204
 423   4   6.922130   8.482849   1.462708   0.000046   0.147427   0.000315
 424   4   8.251744   9.068272   1.264922   0.000006   0.147427   0.000044
 425   4   9.682741   8.756803   1.194589  -0.000060   0.147427  -0.000410
 426   4  10.661992   7.668836   1.278894  -0.000037   0.147427  -0.000254
 427   4  10.810982   6.224906   1.485251   0.000007   0.147427   0.000046
 428   4  10.072121   4.983143   1.733895   0.000009   0.147427   0.000060
 429   4   9.050601   4.398818   1.906220  -0.000006   0.081585  -0.000070
 430  14   8.980174  10.334596   6.710746  -0.000061   0.070632  -0.000867
 431  14   9.437577  10.738630   5.755405  -0.000203   0.157362  -0.001287
 432  14   9.310713  10.990524   4.415353  -0.000292   0.157362  -0.001857
 433  14   8.428097  10.864614   3.375921  -0.000326   0.157362  -0.002069
 434  14   7.168264  10.414899   3.082900  -0.000139   0.157362  -0.000881
 435  14   6.204029   9.938563   3.441360  -0.000057   0.070632  -0.000800
 436   4   9.512816  10.242665   6.440544   0.000100   0.154339   0.000646
 437   4   9.843550  10.702453   5.010465   0.000039   0.154339   0.000251
 438   4   9.243536  10.777336   3.596148  -0.000077   0.154339  -0.000497
 439   4   7.970107  10.435196   2.804165   0.000002   0.154339   0.000012
 440   4   6.569412   9.822772   2.974181  -0.000027   0.154339  -0.000173
 441  15  10.938514   7.898182   8.741298   0.000042   0.064798   0.000642
 442   4  10.871092   8.641011   7.506173   0.000357   0.091851   0.003883
 443   5   8.873415   1.813822   7.902837   0.000142   0.221127   0.000642
 444  10   8.892213   1.551217   7.197724  -0.000578   0.221127  -0.002615
 445  20   8.253185   0.857535   7.460017  -0.000801   0.221127  -0.003622
 446  10  10.249192   2.586871   6.692356  -0.000219   0.175652  -0.001249
 447  10   9.566428   1.931850   7.016600  -0.000350   0.175652  -0.001995
 448   5  10.015794   2.649698   7.870401   0.000621   0.483554   0.001285
 449   5   4.267848   6.305583  10.299701   0.000194   0.056714   0.003417
 450  11   3.531838   5.674050   9.994127  -0.000020   0.056714  -0.000360
 451  16   4.349954   6.596951  10.272025   0.000042   0.056714   0.000740
 452   5   4.773783   4.687354  11.188675   0.000040   0.085410   0.000471
 453  11   3.936659   4.230512  10.827894  -0.000304   0.085410  -0.003555
 454  17   4.799119   4.385969  11.231607  -0.000234   0.085410  -0.002744
 455  11   3.284099   4.431452  10.735034  -0.000848   0.217280  -0.003904
 456  11   2.989349   5.161633  10.263322  -0.000747   0.217280  -0.003439
 457   5   4.365848   5.546825  10.892547   0.001580   0.611256   0.002584
 458   5   8.304063   9.313834   8.534290   0.000102   0.087971   0.001164
 459  14   8.275569   9.710596   7.609227   0.000199   0.087971   0.002259
 460  16   8.031420   9.389985   8.652690  -0.000093   0.087971  -0.001060
 461  14   8.567021  10.106870   7.185311   0.000067   0.064127   0.001046
 462   5   8.637068   9.412538   8.498280   0.000361   0.091172   0.003960
 463  15  10.702239   7.918217   9.358875  -0.000078   0.066335  -0.001174
 464  15  10.477119   7.668472  10.376249  -0.000176   0.146055  -0.001204
 465  15  10.321257   6.783090  11.312289  -0.000242   0.146055  -0.001657
 466  15  10.358275   5.511977  11.571652  -0.000284   0.146055  -0.001942
 467  15  10.574023   4.341043  11.055191  -0.000199   0.146055  -0.001364
 468  15  10.886027   3.717900   9.960334  -0.000239   0.146055  -0.001638
 469  15  11.175016   3.880756   8.705611  -0.000373   0.146055  -0.002556
 470   5  10.259763   8.082302   9.708206   0.000123   0.146590   0.000842
 471   5   9.996847   7.463991  11.002593   0.000073   0.146590   0.000495
 472   5   9.926635   6.189953  11.708827  -0.000052   0.146590  -0.000355
 473   5  10.075968   4.747212  11.556936   0.000007   0.146590   0.000049
 474   5  10.387759   3.687286  10.604983   0.000066   0.146590   0.000449
 475   5  10.742821   3.415352   9.216871  -0.000140   0.146590  -0.000958
 476   5  10.978313   3.783529   8.117856  -0.000018   0.081043  -0.000218
 477  16   4.716560   7.082719  10.749722  -0.000088   0.071561  -0.001232
 478  16   5.575351   7.289482  11.481492  -0.000213   0.159859  -0.001333
 479  16   6.809192   7.874623  11.711427  -0.000348   0.159859  -0.002178
 480  16   7.784968   8.624034  11.075922  -0.000222   0.159859  -0.001388
 481  16   8.073939   9.208438   9.854205  -0.000327   0.159859  -0.002045
 482   5   5.039684   6.726375  11.121630   0.000048   0.155976   0.000306
 483   5   6.339368   7.172125  11.850320  -0.000052   0.155976  -0.000333
 484   5   7.654527   7.966447  11.608925  -0.000104   0.155976  -0.000665
 485   5   8.407301   8.760330  10.503511   0.000098   0.155976   0.000629
 486   5   8.441859   9.195696   9.315313   0.000131   0.087427   0.001498
 487   5   8.158206   1.711664   9.419775  -0.000106   0.107135  -0.000986
 488  17   7.919113   1.634814   9.595920  -0.000278   0.107135  -0.002591
 489  20   7.552242   0.832509   8.837121  -0.000312   0.107135  -0.002913
 490  17   8.276023   1.962490  10.218085  -0.000175   0.066607  -0.002630
 491  17   8.394743   2.540267  11.119528  -0.000227   0.146864  -0.001542
 492  17   7.923059   3.391414  11.988267  -0.000313   0.146864  -0.002129
 493  17   6.885763   4.123726  12.287229  -0.000335   0.146864  -0.002278
 494  17   5.684378   4.453733  11.900691  -0.000362   0.146864  -0.002466
 495   5   8.710514   2.314973  10.399327  -0.000007   0.146979  -0.000046
 496   5   8.595137   3.196783  11.564487   0.000040   0.146979   0.000272
 497   5   7.703090   4.132859  12.254784  -0.000132   0.146979  -0.000900
 498   5   6.379672   4.760859  12.203013  -0.000153   0.146979  -0.001038
 499   5   5.324982   4.918577  11.677000   0.000105   0.081375   0.001294
 500  20   7.927836   0.248791   8.042666  -0.001628   0.370264  -0.004397
 501   5   8.681600   1.611713   8.960980   0.000860   0.541341   0.001589
 502   6   1.377401   0.037816   3.015191   0.000367   0.053937   0.006810
 503   7   0.834581   0.627832   3.070539   0.001010   0.053937   0.018718
 504  18   1.610935   0.012546   2.822286   0.000049   0.053937   0.000904
 505   6   0.285338  -0.872419   5.159194   0.000448   0.061512   0.007276
 506   7  -0.212842  -0.243004   5.113124   0.001192   0.061512   0.019382
 507  19   0.276415  -1.039954   5.412347   0.000079   0.061512   0.001276
 508   7   0.133391   0.594847   3.338371   0.004746   0.298610   0.015893
 509   7  -0.446945   0.093818   4.486255   0.004606   0.298610   0.015426
 510   6   0.672286  -0.447747   3.985735   0.004033   0.654675   0.006160
 511   6   6.671376   0.548845   3.383885   0.000179   0.056297   0.003172
 512  10   7.360901   1.268668   3.598564   0.000055   0.056297   0.000978
 513  18   6.458190   0.484828   3.177850   0.000008   0.056297   0.000141
 514   6   7.532920  -0.210873   4.972127  -0.000009   0.086123  -0.000109
 515  10   8.181954   0.579048   4.987220  -0.000210   0.086123  -0.002443
 516  20   7.675919  -0.212438   5.241516  -0.000275   0.086123  -0.003189
 517  10   8.517002   0.938851   4.490995  -0.000647   0.224134  -0.002889
 518  10   8.139002   1.375868   3.745019  -0.000509   0.224134  -0.002270
 519   6   7.265998   0.106031   4.040241   0.001564   0.630401   0.002482
 520   6   4.289256   1.158993   9.804134  -0.000392   0.218688  -0.001792
 521  11   4.055426   1.802839  10.113480  -0.001043   0.218688  -0.004768
 522  17   4.971647   1.997291  10.367699  -0.001017   0.218688  -0.004649
 523  11   2.293542   1.426725   9.926073  -0.000493   0.180397  -0.002732
 524  11   3.288728   1.575415  10.133469  -0.000707   0.180397  -0.003918
 525   6   3.021004   0.508353   9.638466  -0.000107   0.496035  -0.000215
 526   6   5.589112   0.215494   9.390051  -0.000226   0.106968  -0.002112
 527  17   6.157851   1.153990   9.906157  -0.000364   0.106968  -0.003404
 528  20   5.885864   0.185902   9.320529  -0.000422   0.106968  -0.003949
 529  17   5.776147   1.757299  10.671131  -0.001443   0.362900  -0.003978
 530   6   5.035768   0.378302   9.777967   0.000427   0.530272   0.000805
 531  18   6.196576  -0.172490   2.885308  -0.000109   0.068838  -0.001576
 532  18   5.869299  -1.218677   3.049151  -0.000207   0.152635  -0.001354
 533  18   4.876304  -2.114495   3.138788  -0.000365   0.152635  -0.002390
 534  18   3.543727  -2.239228   3.066388  -0.000312   0.152635  -0.002045
 535  18   2.417592  -1.541766   2.861617  -0.000293   0.152635  -0.001921
 536  18   1.921906  -0.572610   2.653061  -0.000065   0.068838  -0.000947
 537   6   6.330523  -0.572267   3.308077   0.000003   0.151099   0.000020
 538   6   5.595609  -1.874070   3.488664  -0.000117   0.151099  -0.000775
 539   6   4.216780  -2.479153   3.498884  -0.000178   0.151099  -0.001179
 540   6   2.759012  -2.139583   3.334549   0.000026   0.151099   0.000174
 541   6   1.819628  -0.994498   3.062996  -0.000027   0.151099  -0.000180
 542  19   0.534776  -1.672550   5.403257  -0.000072   0.067910  -0.001061
 543  19   1.268521  -2.478289   5.275760  -0.000225   0.150328  -0.001495
 544  19   2.279255  -3.192294   5.756104  -0.000336   0.150328  -0.002238
 545  19   3.067369  -3.336289   6.814527  -0.000380   0.150328  -0.002527
 546  19   3.315917  -2.852365   8.025378  -0.000264   0.150328  -0.001754
 547  19   2.924943  -1.935136   8.901705  -0.000288   0.150328  -0.001917
 548  19   2.051680  -0.953472   9.091086  -0.000454   0.150328  -0.003018
 549   6   0.910872  -1.799688   4.962418   0.000046   0.149285   0.000310
 550   6   1.999318  -2.813065   5.074623  -0.000063   0.149285  -0.000422
 551   6   3.064802  -3.321271   5.986056  -0.000105   0.149285  -0.000704
 552   6   3.678831  -3.119926   7.330180  -0.000085   0.149285  -0.000570
 553   6   3.594470  -2.290003   8.566445  -0.000001   0.149285  -0.000008
 554   6   2.845645  -1.165261   9.197679  -0.000175   0.149285  -0.001172
 555   6   1.973491  -0.326276   9.152480  -0.000102   0.082967  -0.001235
 556  20   5.774394  -0.578875   9.153233  -0.000265   0.066941  -0.003956
 557  20   5.849815  -1.520682   8.621558  -0.000403   0.147850  -0.002729
 558  20   6.217691  -2.199462   7.560331  -0.000417   0.147850  -0.002820
 559  20   6.782994  -2.088531   6.381176  -0.000483   0.147850  -0.003268
 560  20   7.323667  -1.231464   5.547277  -0.000444   0.147850  -0.003005
 561   6   5.376325  -0.999569   9.044303  -0.000177   0.147467  -0.001199
 562   6   5.609307  -2.112149   8.105042  -0.000051   0.147467  -0.000345
 563   6   6.161373  -2.448086   6.779639  -0.000230   0.147467  -0.001558
 564   6   6.815665  -1.875422   5.588723  -0.000221   0.147467  -0.001502
 565   6   7.260770  -0.937889   4.992998   0.000019   0.081784   0.000237
 566   7   1.936165   2.444701   2.401609   0.003806   0.286372   0.013290
 567   9   2.800451   2.841694   2.063629   0.000269   0.286372   0.000939
 568  18   2.696022   1.764208   2.245015   0.000140   0.286372   0.000488
 569   9   2.633926   3.555277   1.655621   0.000071   0.227826   0.000310
 570   9   2.258514   4.676457   1.779298   0.000516   0.458097   0.001125
 571   7   1.210338   3.479004   2.150075   0.008148   0.561860   0.014502
 572   7   0.852067   4.704384   2.375151   0.003255   0.282922   0.011505
 573   7  -0.288569   4.262114   8.451974  -0.000103   0.063369  -0.001622
 574  11   0.340428   4.226348   8.893352  -0.000208   0.063369  -0.003277
 575  21  -0.368349   4.556318   8.345871  -0.000415   0.063369  -0.006544
 576  11   0.530029   3.826587   9.352208  -0.000277   0.181540  -0.001526
 577   7  -0.355190   3.664426   8.675722   0.000970   0.221456   0.004382
 578  18   1.801308   0.192820   2.444812   0.000316   0.260898   0.001210
 579  18   2.355853   0.975608   2.096158  -0.000010   0.260898  -0.000038
 580   7   0.960600   1.498515   2.545068   0.008275   0.644255   0.012845
 581  19   0.276654  -0.387892   7.965344  -0.000019   0.225335  -0.000085
 582  19  -0.046967  -0.870664   6.923592   0.000095   0.453246   0.000210
 583  19   0.066770  -1.169550   5.774340   0.000361   0.225335   0.001603
 584   7  -0.660865   0.568058   7.320318   0.007413   0.554667   0.013366
 585   7  -0.804362   0.033641   5.822333   0.007601   0.554667   0.013704
 586  21  -0.383452   5.870531   3.585120  -0.000632   0.079830  -0.007913
 587  21  -1.447394   5.387498   3.807430  -0.001706   0.172157  -0.009911
 588  21  -2.389720   4.803804   4.733791  -0.001988   0.172157  -0.011546
 589  21  -2.582277   4.429678   6.115736  -0.001674   0.172157  -0.009723
 590  21  -1.949988   4.410989   7.414459  -0.001377   0.172157  -0.007998
 591  21  -1.013900   4.645609   8.109735  -0.000576   0.079830  -0.007214
 592   7  -0.675277   5.339808   3.373378  -0.000550   0.171605  -0.003203
 593   7  -1.966369   4.685223   3.963367  -0.000994   0.171605  -0.005792
 594   7  -2.612697   4.139734   5.277972  -0.001047   0.171605  -0.006103
 595   7  -2.362265   3.916021   6.804643  -0.000598   0.171605  -0.003487
 596   7  -1.312713   4.101309   7.948145  -0.000405   0.171605  -0.002358
 597   8   4.933359   9.015539   6.779863  -0.000478   0.328761  -0.001455
 598  14   5.898066   9.498511   6.627095  -0.000377   0.328761  -0.001146
 599  16   5.622750   9.091933   7.646627  -0.000330   0.328761  -0.001003
 600  14   5.576672   9.845934   3.995109   0.000278   0.231555   0.001202
 601  14   5.586557  10.137944   4.999784  -0.000355   0.462933  -0.000766
 602  14   5.783474  10.066489   6.024897  -0.000186   0.231555  -0.000802
 603   8   4.208368   9.290591   4.584679  -0.000204   0.462933  -0.000440
 604   8   4.337462   9.428269   5.851751  -0.000633   0.462933  -0.001366
 605  16   5.110684   9.116403   8.370293  -0.000234   0.287208  -0.000814
 606  16   4.393232   8.314517   9.015986  -0.000631   0.574417  -0.001098
 607   8   3.844530   8.716773   7.403649  -0.000789   0.574417  -0.001373
 608   8   3.195438   7.826285   8.003973   0.000082   0.287208   0.000284
 609  21   0.502665   6.832137   7.299057  -0.002740   0.237072  -0.011558
 610  21   0.198540   7.291478   6.298808  -0.006341   0.474231  -0.013372
 611  21   0.165240   7.195908   4.909759  -0.005569   0.474231  -0.011742
 612   8   1.625005   7.694069   6.855789  -0.002145   0.474231  -0.004523
 613   8   1.375948   8.011659   5.522820  -0.002007   0.474231  -0.004231
 614   8   1.462038   7.723762   4.421145  -0.000314   0.237072  -0.001324
 615  13   7.671404   4.687292   1.197475  -0.000045   0.257253  -0.000173
 616  13   7.123489   5.597838   0.682352  -0.000853   0.514530  -0.001658
 617  13   6.500570   6.880598   0.856246  -0.000345   0.514530  -0.000670
 618   9   6.148464   4.352410   1.189601  -0.000549   0.514530  -0.001067
 619   9   5.472127   5.576237   0.860123  -0.000727   0.514530  -0.001412
 620   9   5.020843   6.593392   1.255593   0.000179   0.257253   0.000696
 621  18   3.214235   1.387114   1.745166  -0.000190   0.263071  -0.000722
 622  18   4.370184   1.256946   1.646444  -0.000894   0.526030  -0.001699
 623  18   5.464253   1.215744   2.051689  -0.000098   0.263071  -0.000371
 624   9   3.803639   2.859799   1.424935  -0.000676   0.526030  -0.001284
 625   9   5.207054   2.752909   1.616124  -0.000227   0.526030  -0.000432
 626  18   6.324116   0.726329   2.701323   0.000424   0.280495   0.001510
 627  10   7.765874   1.709453   3.263807   0.000295   0.280495   0.001053
 628  20   7.996082  -0.285406   5.568823  -0.000223   0.237276  -0.000940
 629  20   8.240521  -0.032790   6.675744  -0.001898   0.474715  -0.003998
 630  10   8.922082   0.841774   5.572760  -0.001410   0.474715  -0.002970
 631  10   9.087512   1.154906   6.678844  -0.000304   0.237276  -0.001280
 632  16   4.090612   7.042525  10.026542   0.000480   0.297523   0.001613
 633  11   2.860550   5.702414   9.834242   0.000043   0.297523   0.000145
 634  17   4.761564   3.961319  11.417881  -0.000198   0.237404  -0.000832
 635  17   5.012997   2.837722  11.208315  -0.001895   0.475009  -0.003988
 636  11   3.566015   3.323160  10.906725  -0.001901   0.475009  -0.004003
 637  11   3.846221   2.227808  10.604574  -0.000553   0.237404  -0.002331
 638  21  -0.273644   5.066205   8.386780  -0.001928   0.308038  -0.006260
 639  11   0.799608   4.777370   9.197056  -0.000558   0.308038  -0.001811
 640  15  11.753819   4.926151   7.762272  -0.000041   0.254044  -0.000162
 641  15  12.046871   5.965243   8.196208  -0.000911   0.508073  -0.001793
 642  15  11.627034   7.271735   8.548030  -0.000496   0.508073  -0.000975
 643  12  12.234271   5.793614   6.553422  -0.000621   0.508073  -0.001222
 644  12  12.292502   7.125830   7.031724  -0.000708   0.508073  -0.001393
 645  12  11.721033   8.118403   7.236938   0.000211   0.254044   0.000830
 646  16   7.666331   9.701532   8.715110   0.000362   0.284286   0.001273
 647  16   6.487995   9.669288   8.381854  -0.000509   0.568442  -0.000895
 648  14   7.602971  10.292475   7.155020  -0.000290   0.568442  -0.000511
 649  14   6.443722  10.152873   6.784577  -0.000156   0.284286  -0.000549
 650  20   7.254689   0.100816   8.952776  -0.000674   0.307105  -0.002194
 651  20   6.374344   0.044269   9.379438  -0.000287   0.307105  -0.000934
 652  17   7.204058   1.371503  10.142017  -0.001312   0.613986  -0.002137
 =====================================================

              4278229  WORDS OF DYNAMIC MEMORY USED
 EXECUTION OF GAMESS TERMINATED NORMALLY Wed Nov 23 13:15:51 2016
 DDI: 263640 bytes (0.3 MB / 0 MWords) used by master data server.

 ----------------------------------------
 CPU timing information for all processes
 ========================================
 0: 815.428 + 0.316 = 815.744
 ----------------------------------------
 ddikick.x: exited gracefully.
