----- GAMESS execution script -----

          ******************************************************
          *         GAMESS VERSION =  5 DEC 2014 (R1)          *
          *             FROM IOWA STATE UNIVERSITY             *
          * M.W.SCHMIDT, K.K.BALDRIDGE, J.A.BOATZ, S.T.ELBERT, *
          *   M.S.GORDON, J.H.JENSEN, S.KOSEKI, N.MATSUNAGA,   *
          *          K.A.NGUYEN, S.J.SU, T.L.WINDUS,           *
          *       TOGETHER WITH M.DUPUIS, J.A.MONTGOMERY       *
          *         J.COMPUT.CHEM.  14, 1347-1363(1993)        *
          **************** 64 BIT LINUX VERSION ****************

 EXECUTION OF GAMESS BEGUN Wed Nov 23 13:15:54 2016

            ECHO OF THE FIRST FEW INPUT CARDS -
 INPUT CARD>! SELECT RESTRICTED HARTREE-FOCK AS DEFAULT                                     
 INPUT CARD>$contrl scftyp=rhf $end                                                         
 INPUT CARD>                                                                                
 INPUT CARD>! THEORY: HF OR DFT                                                             
 INPUT CARD> $contrl mplevl=0 $end                                                          
 INPUT CARD>                                                                                
 INPUT CARD> $system timlim=10000 mwords=20 $end                                            
 INPUT CARD> $SCF DIRSCF=.TRUE. $end                                                        
 INPUT CARD>                                                                                
 INPUT CARD>                                                                                
 INPUT CARD>! BASIS SETS                                                                    
 INPUT CARD>! 6-311G(d,p)                                                                   
 INPUT CARD> $BASIS GBASIS=N311 NGAUSS=6 NDFUNC=1 NPFUNC=1 $END                             
 INPUT CARD>                                                                                
 INPUT CARD>! One of the following                                                          
 INPUT CARD> $guess guess=HUCKEL $end                                                       
 INPUT CARD>                                                                                
 INPUT CARD> $statpt projct=.FALSE. $end                                                    
 INPUT CARD> $STATPT IFREEZ(1)=1,2,3 $END                                                   
 INPUT CARD>                                                                                
 INPUT CARD>! Optimize the geometry with COSMO effects                                      
 INPUT CARD> $statpt opttol=0.0005 nstep=50 $end                                            
 INPUT CARD> $contrl nzvar=1 $end                                                           
 INPUT CARD> $zmat dlc=.t. auto=.t. $end                                                    
 INPUT CARD> $contrl runtyp=OPTIMIZE maxit=200 $end                                         
 INPUT CARD>                                                                                
 INPUT CARD>! Run COSMO on perfect conductor                                                
 INPUT CARD> $COSGMS PRFCND=.TRUE. $end                                                     
 INPUT CARD>                                                                                
 INPUT CARD>! Specifying RSOLV                                                              
 INPUT CARD> $COSGMS COSRAD = 1.4 $end                                                      
 INPUT CARD>                                                                                
 INPUT CARD>! available memory                                                              
 INPUT CARD> $SYSTEM MWORDS=40 $END                                                         
 INPUT CARD>                                                                                
 INPUT CARD> $DATA                                                                          
 INPUT CARD>Cyclohexene, 4-ethenyl-, ID: C100403                                            
 INPUT CARD>C1                                                                              
 INPUT CARD>C      6.0      1.0730000000    2.3931000000    1.3874000000                    
 INPUT CARD>C      6.0      1.9325000000    2.1132000000    2.3590000000                    
 INPUT CARD>C      6.0      3.4206000000    2.2346000000    2.2833000000                    
 INPUT CARD>C      6.0      3.9511000000    2.7766000000    0.9594000000                    
 INPUT CARD>C      6.0      4.0475000000    0.8657000000    2.5705000000                    
 INPUT CARD>C      6.0      5.4613000000    2.9504000000    1.0183000000                    
 INPUT CARD>C      6.0      5.5140000000    0.8470000000    2.3294000000                    
 INPUT CARD>C      6.0      6.1509000000    1.7808000000    1.6218000000                    
 INPUT CARD>H      1.0      0.0000000000    2.2865000000    1.5163000000                    
 INPUT CARD>H      1.0      1.3631000000    2.7462000000    0.4013000000                    
 INPUT CARD>H      1.0      1.5637000000    1.7525000000    3.3286000000                    
 INPUT CARD>H      1.0      3.7246000000    2.9472000000    3.0910000000                    
   40000000 WORDS OF MEMORY AVAILABLE

     BASIS OPTIONS
     -------------
     GBASIS=N311         IGAUSS=       6      POLAR=POPN311 
     NDFUNC=       1     NFFUNC=       0     DIFFSP=       F
     NPFUNC=       1      DIFFS=       F     BASNAM=        


     RUN TITLE
     ---------
 Cyclohexene, 4-ethenyl-, ID: C100403                                            

 THE POINT GROUP OF THE MOLECULE IS C1      
 THE ORDER OF THE PRINCIPAL AXIS IS     0

 ATOM      ATOMIC                      COORDINATES (BOHR)
           CHARGE         X                   Y                   Z
 C           6.0     2.0276759848        4.5223032612        2.6218058354
 C           6.0     3.6518954713        3.9933689573        4.4578636050
 C           6.0     6.4639967136        4.2227816922        4.3148113478
 C           6.0     7.4664963501        5.2470131775        1.8130031126
 C           6.0     7.6486659353        1.6359357876        4.8575406514
 C           6.0    10.3203605367        5.5754475542        1.9243079733
 C           6.0    10.4199490963        1.6005979116        4.4019277158
 C           6.0    11.6235155779        3.3652240389        3.0647576069
 H           1.0     0.0000000000        4.3208584709        2.8653915152
 H           1.0     2.5758854939        5.1895655075        0.7583470389
 H           1.0     2.9549645270        3.3117447935        6.2901419227
 H           1.0     7.0384734139        5.5694004310        5.8411430280
 H           1.0     6.9524908814        3.9485824513        0.2522784194
 H           1.0     6.5592389034        7.0777797144        1.3596578482
 H           1.0     7.2520124505        1.0743092240        6.8351388976
 H           1.0     6.7629513649        0.1662958869        3.6537851973
 H           1.0    11.0705817539        5.9150313142        0.0000000000
 H           1.0    10.8184923071        7.2771458061        3.0415139772
 H           1.0    11.4528733212        0.0000000000        5.2137540001
 H           1.0    13.6710336856        3.2622339726        2.7735508322

          INTERNUCLEAR DISTANCES (ANGS.)




     $CONTRL OPTIONS
     ---------------
 SCFTYP=RHF          RUNTYP=OPTIMIZE     EXETYP=RUN     
 MPLEVL=       0     CITYP =NONE         CCTYP =NONE         VBTYP =NONE    
 DFTTYP=NONE         TDDFT =NONE    
 MULT  =       1     ICHARG=       0     NZVAR =       1     COORD =UNIQUE  
 PP    =NONE         RELWFN=NONE         LOCAL =NONE         NUMGRD=       F
 ISPHER=      -1     NOSYM =       0     MAXIT =     200     UNITS =ANGS    
 PLTORB=       F     MOLPLT=       F     AIMPAC=       F     FRIEND=        
 NPRINT=       7     IREST =       0     GEOM  =INPUT   
 NORMF =       0     NORMP =       0     ITOL  =      20     ICUT  =       9
 INTTYP=BEST         GRDTYP=BEST         QMTTOL= 1.0E-06

     $SYSTEM OPTIONS
     ---------------
  REPLICATED MEMORY=    40000000 WORDS (ON EVERY NODE).
 DISTRIBUTED MEMDDI=           0 MILLION WORDS IN AGGREGATE,
 MEMDDI DISTRIBUTED OVER   1 PROCESSORS IS           0 WORDS/PROCESSOR.
 TOTAL MEMORY REQUESTED ON EACH PROCESSOR=    40000000 WORDS.
 TIMLIM=       10000.00 MINUTES, OR       6.9 DAYS.
 PARALL= F  BALTYP=  DLB     KDIAG=    0  COREFL= F
 MXSEQ2=     300 MXSEQ3=     150  mem10=         0

     $COSGMS OPTIONS
     ---------------
     EPSI  =   INFTY     NSPA  =      92     COSRAD=    1.40
     DISEX =   10.00     OUTCHG=DBLCAV       COSBUG=       F
     COSWRT=       F     DCOSMO=       F

     SYMMETRY COORDINATES WILL NOT BE USED FOR 
     THE COSMO CALCULATION, EVEN IF SPECIFIED:
         -- SWITCHING TO C1 POINT GROUP --


     DEFINITION OF CAVITY
     ---------------------------
     ATOM         COORDINATES           RADIUS 
     1    2.0277    4.5223    2.6218    2.0000
     2    3.6519    3.9934    4.4579    2.0000
     3    6.4640    4.2228    4.3148    2.0000
     4    7.4665    5.2470    1.8130    2.0000
     5    7.6487    1.6359    4.8575    2.0000
     6   10.3204    5.5754    1.9243    2.0000
     7   10.4199    1.6006    4.4019    2.0000
     8   11.6235    3.3652    3.0648    2.0000
     9    0.0000    4.3209    2.8654    1.3000
    10    2.5759    5.1896    0.7583    1.3000
    11    2.9550    3.3117    6.2901    1.3000
    12    7.0385    5.5694    5.8411    1.3000
    13    6.9525    3.9486    0.2523    1.3000
    14    6.5592    7.0778    1.3597    1.3000
    15    7.2520    1.0743    6.8351    1.3000
    16    6.7630    0.1663    3.6538    1.3000
    17   11.0706    5.9150    0.0000    1.3000
    18   10.8185    7.2771    3.0415    1.3000
    19   11.4529    0.0000    5.2138    1.3000
    20   13.6710    3.2622    2.7736    1.3000

          ----------------
          PROPERTIES INPUT
          ----------------

     MOMENTS            FIELD           POTENTIAL          DENSITY
 IEMOM =       1   IEFLD =       0   IEPOT =       0   IEDEN =       0
 WHERE =COMASS     WHERE =NUCLEI     WHERE =NUCLEI     WHERE =NUCLEI  
 OUTPUT=BOTH       OUTPUT=BOTH       OUTPUT=BOTH       OUTPUT=BOTH    
 IEMINT=       0   IEFINT=       0                     IEDINT=       0
                                                       MORB  =       0
          EXTRAPOLATION IN EFFECT
          SOSCF IN EFFECT
 ORBITAL PRINTING OPTION: NPREO=     1   224     2     1

     -------------------------------
     INTEGRAL TRANSFORMATION OPTIONS
     -------------------------------
     NWORD  =            0
     CUTOFF = 1.0E-09     MPTRAN =       0
     DIRTRF =       T     AOINTS =DUP     

          ----------------------
          INTEGRAL INPUT OPTIONS
          ----------------------
 NOPK  =       1 NORDER=       0 SCHWRZ=       T


 -----------------------------------------------
  STATISTICS ON AUTOMATIC COORDINATE GENERATION 
 -----------------------------------------------
  NUMBER OF USER SPECIFIED BONDS                             0
  NUMBER OF BONDS                                           20
  NUMBER OF ANGLES                                          36
  NUMBER OF TORSIONS                                        53
  NUMBER OF EXTRA COORD.                                     0
  NUMBER OF EXTRA COORD. FOR CONSTRAINTS                     0
  NUMBER OF CONSTRAINED COORD.                               0

  TOTAL NUMBER OF PRIMITIVES                               109
 -----------------------------------------------

   --- ENCODED Z MATRIX ---
 COORD  TYPE   I   J   K   L   M   N
    1      1    1   2
    2      1    1   9
    3      1    1  10
    4      1    2  11
    5      1    2   3
    6      1    3  12
    7      1    3   4
    8      1    3   5
    9      1    4  14
   10      1    4  13
   11      1    4   6
   12      1    5  15
   13      1    5   7
   14      1    5  16
   15      1    6   8
   16      1    6  18
   17      1    6  17
   18      1    7  19
   19      1    7   8
   20      1    8  20
   21      2    1   2   3
   22      2    1   2  11
   23      2    2   1  10
   24      2    2   3   5
   25      2    2   1   9
   26      2    2   3  12
   27      2    2   3   4
   28      2    3   4  13
   29      2    3   4  14
   30      2    3   5  16
   31      2    3   5   7
   32      2    3   5  15
   33      2    3   2  11
   34      2    3   4   6
   35      2    4   3   5
   36      2    4   6  17
   37      2    4   6   8
   38      2    4   3  12
   39      2    4   6  18
   40      2    5   7   8
   41      2    5   7  19
   42      2    5   3  12
   43      2    6   4  13
   44      2    6   4  14
   45      2    6   8  20
   46      2    6   8   7
   47      2    7   5  16
   48      2    7   5  15
   49      2    7   8  20
   50      2    8   6  17
   51      2    8   6  18
   52      2    8   7  19
   53      2    9   1  10
   54      2   13   4  14
   55      2   15   5  16
   56      2   17   6  18
   57      3    1   2   3  12
   58      3    1   2   3   5
   59      3    1   2   3   4
   60      3    2   3   5  16
   61      3    2   3   4  13
   62      3    2   3   5   7
   63      3    2   3   4   6
   64      3    2   3   5  15
   65      3    2   3   4  14
   66      3    3   2   1  10
   67      3    3   2   1   9
   68      3    3   4   6  17
   69      3    3   4   6  18
   70      3    3   4   6   8
   71      3    3   5   7   8
   72      3    3   5   7  19
   73      3    4   6   8  20
   74      3    4   6   8   7
   75      3    4   3   5  15
   76      3    4   3   2  11
   77      3    4   3   5   7
   78      3    4   3   5  16
   79      3    5   3   4  14
   80      3    5   3   4  13
   81      3    5   3   4   6
   82      3    5   3   2  11
   83      3    5   7   8  20
   84      3    5   7   8   6
   85      3    6   8   7  19
   86      3    6   4   3  12
   87      3    7   8   6  17
   88      3    7   8   6  18
   89      3    7   5   3  12
   90      3    8   6   4  13
   91      3    8   6   4  14
   92      3    8   7   5  16
   93      3    8   7   5  15
   94      3    9   1   2  11
   95      3   10   1   2  11
   96      3   11   2   3  12
   97      3   12   3   5  16
   98      3   12   3   4  14
   99      3   12   3   4  13
  100      3   12   3   5  15
  101      3   13   4   6  17
  102      3   13   4   6  18
  103      3   14   4   6  17
  104      3   14   4   6  18
  105      3   15   5   7  19
  106      3   16   5   7  19
  107      3   17   6   8  20
  108      3   18   6   8  20
  109      3   19   7   8  20

          INDEP./SYM. INTERNAL COORDINATES
          --------------------------------
 CRD  1=  -0.1481 (  5) -0.1361 (  7) -0.1176 ( 11) -0.5468 ( 21)  0.2502 ( 22)
          -0.1609 ( 23)  0.2620 ( 24)  0.1496 ( 25) -0.3663 ( 27)  0.2966 ( 33)
          -0.1652 ( 60) -0.2313 ( 62) -0.1164 ( 63) -0.1828 ( 64) -0.1002 ( 65)
 CRD  2=  -0.1783 (  1) -0.2604 (  5) -0.2788 (  8) -0.1495 ( 13) -0.2446 ( 21)
           0.1776 ( 22) -0.1183 ( 23) -0.3852 ( 24)  0.1521 ( 26)  0.1253 ( 27)
           0.1337 ( 35) -0.1223 ( 37) -0.1263 ( 38)  0.1087 ( 42)  0.1679 ( 57)
           0.1805 ( 58)  0.1453 ( 59)  0.2001 ( 61)  0.2757 ( 63)  0.2059 ( 65)
          -0.1618 ( 67) -0.1066 ( 79) -0.1125 ( 80)  0.1343 ( 95)
 CRD  3=   0.2513 (  1)  0.4175 (  5)  0.1842 ( 11)  0.1636 ( 13) -0.1368 ( 22)
          -0.1341 ( 29)  0.1117 ( 31)  0.1266 ( 33)  0.2590 ( 34) -0.1322 ( 35)
           0.1414 ( 39) -0.1632 ( 43) -0.1522 ( 47) -0.1050 ( 53)  0.1871 ( 58)
          -0.1158 ( 60) -0.2506 ( 62)  0.1757 ( 63) -0.1105 ( 64) -0.1083 ( 67)
          -0.1991 ( 77)  0.1452 ( 81)  0.1052 ( 82)  0.1426 ( 83)  0.1026 ( 84)
          -0.1162 ( 89)
 CRD  4=   0.2198 (  1) -0.1348 (  4) -0.1120 (  5) -0.3957 (  7)  0.1554 (  8)
          -0.1750 ( 11)  0.2363 ( 21)  0.2430 ( 23) -0.1488 ( 25)  0.1512 ( 26)
          -0.2273 ( 27) -0.1952 ( 33) -0.1510 ( 34)  0.2063 ( 35) -0.1448 ( 36)
           0.1264 ( 37) -0.1540 ( 40)  0.1119 ( 44)  0.2019 ( 59) -0.1002 ( 60)
          -0.1316 ( 62) -0.1178 ( 64) -0.1013 ( 74)  0.1615 ( 76)  0.1035 ( 95)
 CRD  5=  -0.1239 (  5) -0.1669 (  8)  0.1176 ( 15)  0.2185 ( 19)  0.1512 ( 21)
           0.1496 ( 23) -0.1289 ( 25) -0.1341 ( 28)  0.1462 ( 30) -0.1161 ( 31)
          -0.1151 ( 32) -0.1179 ( 33)  0.1407 ( 34)  0.1522 ( 35) -0.1560 ( 37)
          -0.1117 ( 41) -0.1582 ( 42)  0.1772 ( 48)  0.1748 ( 50) -0.2524 ( 58)
          -0.1828 ( 59) -0.1750 ( 66) -0.1129 ( 69) -0.1757 ( 70) -0.1158 ( 71)
          -0.2016 ( 76) -0.2712 ( 82)  0.1280 ( 83)  0.1499 ( 84) -0.1150 ( 89)
          -0.1551 ( 95)
 CRD  6=   0.1332 (  5)  0.4294 (  7)  0.3750 (  8)  0.1554 ( 12)  0.1602 ( 19)
           0.1154 ( 29)  0.1565 ( 30) -0.2749 ( 31)  0.1547 ( 32)  0.2015 ( 35)
          -0.1330 ( 38) -0.1430 ( 45)  0.2071 ( 46) -0.1379 ( 55)  0.1654 ( 59)
           0.1698 ( 76) -0.1393 ( 90)  0.1121 ( 92)
 CRD  7=  -0.1333 (  5) -0.1208 (  7) -0.1049 (  8) -0.1664 (  9) -0.2381 ( 11)
           0.1984 ( 13) -0.3091 ( 15)  0.1756 ( 19)  0.1028 ( 23) -0.1300 ( 25)
          -0.1047 ( 28) -0.2012 ( 31)  0.2535 ( 34) -0.1435 ( 37)  0.1154 ( 42)
          -0.2012 ( 44) -0.2199 ( 45)  0.1021 ( 47)  0.1588 ( 48)  0.2119 ( 49)
           0.1206 ( 51)  0.1147 ( 54)  0.1415 ( 58) -0.1502 ( 63)  0.1212 ( 66)
           0.1116 ( 76) -0.1030 ( 80) -0.1810 ( 81)  0.1633 ( 82)
 CRD  8=   0.1204 (  8)  0.1612 ( 11) -0.3181 ( 13)  0.3645 ( 15)  0.1150 ( 16)
           0.1181 ( 17) -0.1101 ( 28)  0.1523 ( 32)  0.1253 ( 34) -0.2566 ( 37)
           0.1085 ( 40) -0.2641 ( 41)  0.2254 ( 45) -0.1156 ( 48) -0.2434 ( 49)
           0.1194 ( 50)  0.2001 ( 51)  0.1553 ( 52) -0.1104 ( 56) -0.1437 ( 63)
          -0.1276 ( 65)  0.1111 ( 66)  0.1118 ( 76) -0.1035 ( 81)  0.1406 ( 82)
          -0.1044 ( 93)
 CRD  9=   0.1104 (  1) -0.2668 ( 13) -0.3285 ( 15) -0.2415 ( 18) -0.4992 ( 19)
          -0.2713 ( 20) -0.1291 ( 31)  0.1143 ( 32)  0.1189 ( 36) -0.1314 ( 37)
           0.1014 ( 39)  0.1290 ( 40)  0.1525 ( 41)  0.1740 ( 46) -0.2498 ( 49)
          -0.2819 ( 52) -0.1115 ( 68)
 CRD 10=  -0.5148 (  1) -0.1818 (  2) -0.1000 (  4)  0.1225 ( 11) -0.3807 ( 22)
           0.1665 ( 23) -0.4155 ( 25)  0.3593 ( 33)  0.1167 ( 41) -0.1223 ( 52)
           0.2490 ( 53)
 CRD 11=   0.1342 (  5)  0.1085 (  7) -0.5395 ( 11) -0.3086 ( 13) -0.1363 ( 20)
          -0.1506 ( 22)  0.1114 ( 28)  0.1099 ( 29)  0.1118 ( 31)  0.1515 ( 33)
          -0.1088 ( 35) -0.1584 ( 36) -0.1210 ( 40) -0.1174 ( 41) -0.1748 ( 43)
          -0.1197 ( 44) -0.1515 ( 47)  0.2378 ( 52)  0.1035 ( 65)  0.1107 ( 87)
           0.1225 ( 91) -0.1008 ( 99)
 CRD 12=   0.2278 ( 11) -0.3083 ( 13) -0.3356 ( 15) -0.1434 ( 18)  0.1122 ( 19)
           0.1163 ( 30)  0.1854 ( 39) -0.3666 ( 41)  0.1113 ( 44) -0.2810 ( 45)
           0.3195 ( 49) -0.2044 ( 51)  0.2819 ( 52)  0.1010 ( 69) -0.1120 ( 87)
 CRD 13=  -0.1437 (  6) -0.1942 (  8) -0.1477 ( 11) -0.1510 ( 18) -0.1315 ( 19)
          -0.1236 ( 23)  0.1057 ( 25)  0.1810 ( 28) -0.1598 ( 29)  0.1501 ( 30)
          -0.1675 ( 32) -0.2358 ( 36)  0.1224 ( 39)  0.1215 ( 40) -0.1832 ( 43)
           0.2219 ( 45) -0.1179 ( 46) -0.1063 ( 47)  0.1330 ( 48) -0.1049 ( 49)
           0.2418 ( 50) -0.1490 ( 51) -0.1119 ( 52)  0.1030 ( 60) -0.1356 ( 61)
           0.1400 ( 66)  0.1837 ( 67)  0.1583 ( 68)  0.1233 ( 69) -0.1127 ( 74)
           0.1435 ( 76)  0.1483 ( 84)  0.1529 ( 85) -0.1403 ( 90) -0.1058 ( 91)
 CRD 14=   0.3495 (  5) -0.3637 (  8) -0.1064 (  9) -0.1689 ( 18) -0.2341 ( 22)
           0.1934 ( 26) -0.1458 ( 30) -0.1076 ( 31)  0.2642 ( 33)  0.1323 ( 35)
          -0.1057 ( 39)  0.1288 ( 40) -0.1260 ( 42)  0.1357 ( 43)  0.1410 ( 45)
          -0.1032 ( 46)  0.2212 ( 47) -0.1359 ( 60) -0.1137 ( 64) -0.1205 ( 83)
          -0.2222 ( 86) -0.1153 ( 88)  0.1100 ( 89)  0.1005 ( 93) -0.1035 ( 99)
 CRD 15=   0.1216 (  9) -0.1444 ( 10) -0.1092 ( 12)  0.1441 ( 14) -0.1456 ( 16)
          -0.1143 ( 18)  0.1429 ( 20) -0.2149 ( 28)  0.2047 ( 29)  0.2069 ( 30)
           0.1629 ( 37) -0.1607 ( 39)  0.1185 ( 40) -0.1048 ( 41)  0.1599 ( 43)
          -0.1596 ( 44)  0.1146 ( 45) -0.1553 ( 46)  0.2118 ( 57)  0.1360 ( 58)
           0.1254 ( 59)  0.1527 ( 61)  0.1538 ( 65) -0.1314 ( 68) -0.1424 ( 69)
          -0.1809 ( 70) -0.1817 ( 71) -0.1699 ( 72)  0.1430 ( 73)  0.1505 ( 74)
           0.1180 ( 77)  0.1354 ( 79)  0.1343 ( 80)  0.1054 ( 89)  0.1596 ( 95)
           0.1497 ( 96)
 CRD 16=   0.1108 (  3) -0.1767 (  5)  0.1217 (  7)  0.1548 (  8)  0.1753 ( 12)
          -0.2837 ( 18)  0.3373 ( 20)  0.1026 ( 22)  0.1442 ( 23) -0.1196 ( 25)
           0.1411 ( 28) -0.1153 ( 31)  0.2061 ( 32) -0.1156 ( 36)  0.1744 ( 37)
           0.2871 ( 40) -0.1974 ( 41) -0.1184 ( 43)  0.1903 ( 45) -0.2908 ( 46)
           0.1008 ( 49) -0.1220 ( 66) -0.1225 ( 67) -0.1095 ( 93)
 CRD 17=   0.2126 (  1) -0.1824 (  2)  0.2351 (  3)  0.2536 (  4) -0.1032 (  5)
           0.3570 (  7) -0.2277 (  8)  0.1062 ( 10) -0.1342 ( 14)  0.1323 ( 22)
           0.3341 ( 23) -0.2044 ( 25)  0.1139 ( 31)  0.1709 ( 38) -0.1297 ( 53)
           0.1583 ( 57)  0.1831 ( 66)  0.1475 ( 67) -0.1074 ( 89)  0.1194 ( 94)
           0.1551 ( 95)  0.1851 ( 96)
 CRD 18=   0.1253 (  4)  0.2724 ( 30) -0.2613 ( 32)  0.2681 ( 36) -0.2671 ( 39)
          -0.2329 ( 47)  0.2287 ( 48) -0.2277 ( 50)  0.2383 ( 51) -0.2410 ( 87)
          -0.2477 ( 88)  0.2521 ( 92)  0.2418 ( 93)  0.1668 (105)  0.1770 (106)
          -0.1659 (107) -0.1726 (108)
 CRD 19=   0.1158 (  1) -0.1865 (  2)  0.1942 (  3)  0.4382 (  4) -0.1746 (  7)
           0.1233 (  8) -0.2012 ( 12)  0.2725 ( 14) -0.2196 ( 21)  0.2458 ( 23)
          -0.1602 ( 25)  0.1417 ( 27)  0.1437 ( 33) -0.1455 ( 38)  0.1271 ( 42)
          -0.1057 ( 57)  0.1695 ( 62) -0.1155 ( 72)  0.1802 ( 89) -0.1067 ( 96)
 CRD 20=   0.1011 (  4) -0.2574 (  6)  0.4350 ( 16) -0.3531 ( 17) -0.1756 ( 28)
           0.2413 ( 29) -0.1563 ( 36)  0.1548 ( 39)  0.1863 ( 43) -0.2026 ( 44)
           0.1034 ( 70) -0.1856 ( 73) -0.1294 ( 74)  0.1009 ( 79)  0.1150 ( 83)
           0.2173 ( 90)  0.2533 ( 91)  0.1010 (103)
 CRD 21=   0.5095 (  6) -0.1971 (  9)  0.4420 ( 10)  0.1633 ( 14)  0.1499 ( 16)
           0.1280 ( 30) -0.1233 ( 32) -0.1158 ( 36)  0.1149 ( 39)  0.1021 ( 43)
           0.1096 ( 48)  0.1116 ( 50)  0.1078 ( 58) -0.2001 ( 67)  0.1450 ( 68)
           0.1217 ( 69)  0.1539 ( 75)  0.1226 ( 77)  0.1371 ( 78) -0.1509 ( 81)
          -0.1019 ( 86) -0.1461 ( 94)
 CRD 22=  -0.5073 (  2) -0.5706 (  3)  0.2298 ( 23)  0.2684 ( 25) -0.4982 ( 53)
 CRD 23=   0.1256 (  2)  0.3742 (  6)  0.2943 (  9) -0.1697 ( 10)  0.2677 ( 14)
           0.1363 ( 16) -0.2671 ( 17) -0.1179 ( 43)  0.1657 ( 44) -0.1107 ( 65)
           0.1503 ( 66)  0.3033 ( 67) -0.1363 ( 68) -0.1206 ( 69) -0.2040 ( 79)
          -0.1924 ( 80)  0.2408 ( 94) -0.1434 ( 98) -0.1318 ( 99)
 CRD 24=  -0.2056 (  4) -0.1179 (  5)  0.1113 (  7) -0.4844 ( 12)  0.2936 ( 14)
           0.2089 ( 16)  0.1259 ( 47) -0.1678 ( 48)  0.1168 ( 57) -0.1958 ( 60)
          -0.1926 ( 64) -0.1516 ( 67) -0.1072 ( 72) -0.1998 ( 75) -0.2030 ( 78)
           0.1318 ( 85) -0.1005 ( 88) -0.1058 ( 94) -0.2200 ( 97) -0.2168 (100)
           0.1065 (109)
 CRD 25=   0.2593 (  6) -0.1626 (  9) -0.1265 ( 10) -0.4128 ( 12) -0.4543 ( 14)
           0.1869 ( 16)  0.3403 ( 17) -0.1874 ( 55)  0.1103 ( 56) -0.1095 ( 57)
           0.2086 ( 67)  0.1213 ( 92)  0.1875 ( 94)  0.1199 (104)  0.1149 (106)
 CRD 26=   0.1115 ( 10) -0.3773 ( 12) -0.3114 ( 14) -0.4749 ( 16) -0.5171 ( 17)
          -0.1503 ( 55) -0.2167 ( 56) -0.1023 ( 87)  0.1028 ( 88) -0.1072 (104)
           0.1055 (108)
 CRD 27=  -0.2456 (  6)  0.4523 (  9)  0.2110 ( 10) -0.1736 ( 12) -0.2727 ( 14)
           0.3058 ( 16)  0.1205 ( 17) -0.1002 ( 43) -0.1125 ( 55)  0.1068 ( 56)
          -0.1483 ( 61)  0.1307 ( 64) -0.2139 ( 67) -0.1022 ( 68)  0.1390 ( 75)
          -0.1417 ( 80)  0.1166 ( 87) -0.2032 ( 94) -0.1563 ( 99)  0.1234 (100)
          -0.1663 (103)
 CRD 28=   0.1133 (  6)  0.4415 (  9)  0.5155 ( 10)  0.1263 ( 14) -0.1198 ( 16)
           0.1676 ( 17) -0.1109 ( 28) -0.1468 ( 44)  0.2253 ( 54) -0.1033 ( 57)
           0.1848 ( 65)  0.1706 ( 67) -0.1327 ( 75)  0.1833 ( 79)  0.1145 ( 90)
           0.1598 ( 94)  0.1965 ( 98)  0.1592 (101)  0.1637 (102)
 CRD 29=   0.3140 (  9) -0.3351 ( 10) -0.1326 ( 12)  0.1088 ( 14) -0.1781 ( 16)
           0.1759 ( 17)  0.1027 ( 29) -0.1080 ( 32)  0.1215 ( 50) -0.1014 ( 61)
          -0.1012 ( 65)  0.1273 ( 68)  0.1133 ( 69)  0.1106 ( 71)  0.1006 ( 72)
          -0.1478 ( 83) -0.1282 ( 84) -0.1178 ( 85)  0.1191 ( 90)  0.1481 ( 91)
           0.1551 ( 92)  0.2029 ( 93) -0.1031 ( 94)  0.1992 (101)  0.1853 (102)
           0.2283 (103)  0.2143 (104)  0.1930 (105)  0.1451 (106) -0.1374 (109)
 CRD 30=   0.1476 (  9) -0.1479 ( 10)  0.1304 ( 68)  0.1056 ( 69) -0.1062 ( 71)
          -0.1405 ( 72) -0.1934 ( 73) -0.1587 ( 74)  0.2133 ( 83)  0.1774 ( 84)
           0.2134 ( 85) -0.2165 ( 87) -0.1907 ( 88)  0.1193 ( 90)  0.1410 ( 91)
          -0.1751 ( 92) -0.1761 ( 93)  0.1729 (101)  0.1481 (102)  0.1946 (103)
           0.1698 (104) -0.2105 (105) -0.2095 (106) -0.2511 (107) -0.2254 (108)
           0.2493 (109)
 CRD 31=   0.1144 ( 12)  0.2479 ( 13) -0.2491 ( 15) -0.1081 ( 17)  0.4168 ( 18)
          -0.4090 ( 20) -0.3377 ( 41)  0.3389 ( 45) -0.2541 ( 49)  0.2531 ( 52)
          -0.1108 ( 55)  0.1116 ( 56)
 CRD 32=   0.2586 (  2) -0.1685 (  5) -0.1202 (  6)  0.1894 ( 13)  0.1671 ( 15)
          -0.4434 ( 18) -0.4773 ( 20) -0.1791 ( 22)  0.1802 ( 33) -0.1317 ( 41)
           0.1458 ( 52) -0.1515 ( 53)  0.1319 ( 86) -0.1272 ( 97)  0.1005 ( 98)
           0.1693 ( 99)
 CRD 33=  -0.1471 (  1) -0.4197 (  2)  0.2983 (  5)  0.1768 (  6)  0.1265 ( 13)
           0.1546 ( 15) -0.3348 ( 18) -0.2976 ( 20)  0.2805 ( 22) -0.1349 ( 23)
          -0.1197 ( 25) -0.2901 ( 33) -0.1106 ( 45)  0.1232 ( 49)  0.2547 ( 53)
 CRD 34=   0.2012 (  2) -0.5019 (  3)  0.6528 (  4) -0.1149 (  5)  0.1191 ( 21)
          -0.1242 ( 25)  0.1121 ( 38)  0.1854 ( 53) -0.1299 ( 89)  0.1362 ( 95)
          -0.1434 ( 97) -0.1384 (100)
 CRD 35=  -0.1531 (  2)  0.1532 (  5) -0.2923 (  6) -0.1376 (  9)  0.2258 ( 10)
          -0.1848 ( 12)  0.2806 ( 14) -0.2933 ( 16)  0.2349 ( 17)  0.1922 ( 72)
          -0.2267 ( 73)  0.1166 ( 75) -0.1084 ( 79)  0.2150 ( 83) -0.1902 ( 85)
           0.1045 ( 91) -0.1070 ( 93)  0.1562 ( 95) -0.1344 ( 98)  0.1168 (100)
           0.1790 (106) -0.1202 (107) -0.1760 (108)
 CRD 36=   0.1494 (  3)  0.1483 ( 12)  0.1075 ( 30)  0.1095 ( 49) -0.1156 ( 53)
           0.3172 ( 66) -0.2558 ( 67) -0.1188 ( 72) -0.2809 ( 76) -0.2449 ( 82)
           0.5581 ( 95) -0.1771 ( 96) -0.1091 ( 98) -0.1050 ( 99)  0.1156 (101)
          -0.1058 (105)
 CRD 37=   0.1004 (  2) -0.1020 (  5) -0.2207 (  8)  0.1099 (  9)  0.2118 ( 11)
           0.2734 ( 18) -0.2835 ( 20)  0.1438 ( 30)  0.1583 ( 32) -0.1627 ( 36)
          -0.1568 ( 39)  0.1639 ( 40)  0.1271 ( 41) -0.1183 ( 45) -0.1628 ( 46)
          -0.1565 ( 47) -0.1566 ( 48)  0.2815 ( 49)  0.1596 ( 50)  0.1541 ( 51)
          -0.2914 ( 52) -0.1086 ( 75) -0.1349 ( 95)  0.1450 ( 97) -0.1393 (102)
          -0.1012 (104)  0.1154 (106) -0.1254 (108)
 CRD 38=   0.1805 (  2) -0.1076 (  3) -0.1660 (  5) -0.1713 (  7)  0.2452 ( 13)
           0.1736 ( 15)  0.2178 ( 17) -0.3730 ( 19)  0.1133 ( 26)  0.1476 ( 28)
           0.1587 ( 29)  0.1142 ( 36)  0.1367 ( 39) -0.1414 ( 41) -0.1753 ( 43)
          -0.1773 ( 44)  0.1380 ( 52) -0.1803 ( 56) -0.1345 ( 61)  0.1008 ( 65)
           0.1270 ( 79) -0.1083 ( 80) -0.1063 ( 86)  0.1772 ( 88)  0.1252 ( 89)
          -0.2264 ( 99)  0.1120 (100) -0.1495 (102) -0.1077 (107)  0.1554 (108)
 CRD 39=  -0.1402 (  2)  0.2155 (  3) -0.1753 ( 11)  0.1339 ( 12)  0.1585 ( 15)
           0.1549 ( 18) -0.4319 ( 19)  0.1755 ( 20) -0.1011 ( 23)  0.1513 ( 25)
          -0.1270 ( 28) -0.1148 ( 29)  0.1344 ( 38)  0.1357 ( 44) -0.1889 ( 45)
           0.1268 ( 49) -0.1641 ( 55)  0.1382 ( 57)  0.1319 ( 67) -0.1555 ( 89)
           0.1010 ( 92) -0.1567 ( 95)  0.1948 ( 96) -0.2206 ( 97) -0.1139 (100)
           0.1179 (101)  0.1095 (102)  0.1081 (106)
 CRD 40=   0.5130 (  1) -0.1785 (  2) -0.3123 (  3) -0.1909 (  4) -0.1306 (  6)
           0.1061 (  7)  0.1796 ( 18) -0.2556 ( 19) -0.1038 ( 23) -0.2267 ( 25)
           0.1395 ( 42) -0.1047 ( 45)  0.3305 ( 53) -0.1036 ( 57) -0.1327 ( 96)
           0.1351 ( 99)
 CRD 41=  -0.1514 (  1)  0.1670 (  3)  0.1305 (  4)  0.1738 (  6) -0.1172 (  7)
           0.1696 (  9)  0.1358 ( 11) -0.1390 ( 13) -0.2094 ( 15)  0.1250 ( 17)
           0.1635 ( 18) -0.1764 ( 19)  0.1624 ( 20)  0.1379 ( 25) -0.1224 ( 30)
          -0.1088 ( 32) -0.1175 ( 36) -0.1186 ( 41)  0.1602 ( 47)  0.1118 ( 48)
           0.1165 ( 50)  0.1498 ( 51) -0.1026 ( 57) -0.1635 ( 67) -0.1391 ( 69)
          -0.1050 ( 73)  0.1134 ( 80)  0.1280 ( 83) -0.1143 ( 90)  0.1192 ( 93)
          -0.1632 ( 94) -0.1029 ( 96)  0.1162 ( 98)  0.1704 ( 99) -0.2433 (102)
          -0.1281 (104)  0.1778 (105)
 CRD 42=  -0.2720 (  1)  0.4099 (  2) -0.2085 (  3) -0.1707 (  4)  0.2570 (  5)
           0.1603 (  7) -0.1739 ( 19)  0.1444 ( 20) -0.1895 ( 21)  0.3430 ( 22)
           0.3618 ( 23) -0.2246 ( 25) -0.1535 ( 33) -0.1373 ( 53)
 CRD 43=   0.1018 (  3)  0.1169 (  4)  0.1637 (  7) -0.2153 (  8)  0.1464 (  9)
          -0.1857 ( 10) -0.1593 ( 11) -0.2028 ( 12)  0.1887 ( 13)  0.1888 ( 14)
           0.2348 ( 16) -0.1188 ( 17)  0.1257 ( 21)  0.1397 ( 32)  0.1235 ( 36)
          -0.1296 ( 47) -0.1289 ( 51) -0.1310 ( 57)  0.1028 ( 60)  0.1632 ( 72)
           0.1441 ( 78) -0.1904 ( 85) -0.1799 ( 87) -0.1060 ( 90) -0.1517 ( 91)
          -0.1582 ( 93) -0.1629 ( 96)  0.1691 ( 97)  0.1259 ( 98)  0.1236 ( 99)
          -0.1669 (107) -0.2038 (109)
 CRD 44=   0.2291 (  1) -0.1019 (  3) -0.1516 (  4) -0.1121 (  5)  0.2311 (  6)
          -0.1503 (  8)  0.1006 ( 12)  0.2371 ( 13) -0.1009 ( 14) -0.1117 ( 16)
          -0.1785 ( 18)  0.1137 ( 20) -0.1270 ( 21)  0.1319 ( 27) -0.1127 ( 28)
           0.1448 ( 33) -0.1706 ( 40)  0.1113 ( 43)  0.1397 ( 46) -0.1818 ( 48)
          -0.1210 ( 49)  0.1322 ( 52)  0.1199 ( 60)  0.1714 ( 62) -0.1072 ( 67)
          -0.1708 ( 73) -0.1413 ( 75)  0.1710 ( 83)  0.1084 ( 87) -0.1195 ( 91)
           0.1000 ( 92) -0.1737 ( 94) -0.1803 (103) -0.1178 (104)  0.1874 (106)
          -0.1530 (108)
 CRD 45=  -0.1136 (  6)  0.1647 ( 11)  0.2296 ( 13) -0.3788 ( 15) -0.1976 ( 18)
           0.2356 ( 20) -0.1387 ( 39) -0.2143 ( 40)  0.2339 ( 46) -0.1075 ( 47)
          -0.2242 ( 49)  0.1636 ( 50)  0.1602 ( 51)  0.2107 ( 52) -0.1002 ( 54)
           0.1002 ( 61)  0.1388 ( 68)  0.1048 ( 73) -0.1081 ( 83)  0.1617 ( 94)
          -0.1049 ( 98) -0.1336 (102)  0.1675 (103) -0.1388 (105)  0.1360 (107)
 CRD 46=   0.1267 (  4) -0.2131 (  5)  0.2525 (  7)  0.1039 (  8) -0.1292 (  9)
          -0.1735 ( 12)  0.1800 ( 13) -0.1526 ( 14)  0.1413 ( 15) -0.1384 ( 16)
          -0.1802 ( 19)  0.1331 ( 21)  0.1375 ( 26) -0.1183 ( 28) -0.1599 ( 38)
          -0.1449 ( 41) -0.1010 ( 45)  0.2403 ( 55)  0.1583 ( 56) -0.1788 ( 64)
          -0.1234 ( 68) -0.1535 ( 75)  0.1088 ( 87)  0.1064 ( 89) -0.1240 ( 92)
           0.1527 ( 93)  0.2460 ( 97) -0.1186 ( 98)  0.1491 (102) -0.1967 (106)
           0.1232 (107)
 CRD 47=   0.1557 (  5) -0.2913 (  8)  0.1107 (  9)  0.1727 ( 10) -0.2602 ( 11)
           0.1482 ( 13) -0.1056 ( 16)  0.1468 ( 17)  0.1434 ( 30)  0.1038 ( 39)
           0.1633 ( 42) -0.1119 ( 48) -0.1452 ( 50) -0.2184 ( 54) -0.1424 ( 57)
          -0.1437 ( 64) -0.1796 ( 65) -0.1163 ( 68) -0.1327 ( 72) -0.1078 ( 75)
          -0.1932 ( 79)  0.1453 ( 85)  0.1031 ( 86)  0.1063 ( 88)  0.1654 ( 91)
           0.1264 ( 92) -0.1175 ( 94)  0.2266 ( 99) -0.1265 (100) -0.1664 (101)
          -0.1096 (102) -0.1332 (105)  0.1701 (108)
 CRD 48=  -0.2299 (  8)  0.2950 ( 11)  0.1593 ( 14)  0.1188 ( 15) -0.1269 ( 16)
          -0.2074 ( 17)  0.1385 ( 29)  0.1121 ( 31) -0.1581 ( 37) -0.1055 ( 43)
          -0.1245 ( 44) -0.1242 ( 45)  0.1079 ( 46) -0.1810 ( 55)  0.2431 ( 56)
          -0.1340 ( 57) -0.1044 ( 60) -0.1330 ( 61)  0.1072 ( 66) -0.1463 ( 68)
           0.1007 ( 69)  0.1268 ( 75)  0.1023 ( 87) -0.1986 ( 88) -0.1249 ( 93)
          -0.1583 ( 94)  0.1453 ( 98)  0.1299 (100) -0.1255 (101)  0.1216 (102)
           0.1950 (104) -0.1546 (105)  0.1940 (107) -0.1069 (108)
 CRD 49=   0.1769 (  5) -0.3180 (  7) -0.1991 ( 12)  0.1778 ( 13) -0.1115 ( 21)
          -0.1644 ( 24) -0.1299 ( 26)  0.1082 ( 29) -0.1773 ( 31)  0.1302 ( 32)
           0.1713 ( 35)  0.1145 ( 38)  0.1717 ( 55) -0.1680 ( 58)  0.2714 ( 60)
           0.1118 ( 72)  0.1090 ( 73)  0.2029 ( 78) -0.2333 ( 89) -0.1551 ( 92)
          -0.1106 ( 94)  0.1469 ( 96) -0.2731 (100)  0.1012 (103)  0.1414 (104)
          -0.1261 (109)
 CRD 50=   0.1417 (  7) -0.2171 (  9)  0.1147 ( 14) -0.1846 ( 15)  0.1810 ( 17)
          -0.1156 ( 28) -0.1585 ( 34) -0.1300 ( 36)  0.1523 ( 37)  0.1179 ( 44)
           0.1312 ( 51)  0.1662 ( 54) -0.1430 ( 56) -0.1257 ( 57) -0.1415 ( 58)
          -0.1295 ( 61)  0.1790 ( 66) -0.2584 ( 69) -0.1173 ( 74)  0.1315 ( 76)
           0.1186 ( 81) -0.1258 ( 83)  0.1305 ( 86)  0.2633 ( 90) -0.2196 ( 94)
           0.2716 (101) -0.2514 (104) -0.1306 (105)  0.1744 (108)
 CRD 51=   0.1990 (  5) -0.1049 (  6) -0.1926 ( 10)  0.1631 ( 11)  0.1053 ( 13)
          -0.1047 ( 26) -0.1517 ( 27)  0.1014 ( 30) -0.1707 ( 34)  0.1154 ( 38)
           0.1359 ( 42)  0.1700 ( 54)  0.1456 ( 58) -0.1132 ( 61) -0.1130 ( 64)
           0.1501 ( 65) -0.1835 ( 66) -0.1200 ( 73) -0.1141 ( 76)  0.1657 ( 77)
           0.2127 ( 78) -0.2302 ( 80) -0.1936 ( 81)  0.2062 ( 94) -0.1333 ( 96)
           0.2950 ( 98) -0.1843 (100) -0.1553 (103) -0.1479 (104)  0.1651 (109)
 CRD 52=   0.1436 (  9) -0.1247 ( 10) -0.1247 ( 12)  0.1573 ( 14) -0.1890 ( 16)
          -0.1026 ( 29) -0.1132 ( 30)  0.1411 ( 39) -0.1416 ( 42)  0.1475 ( 43)
           0.1112 ( 48) -0.1206 ( 50)  0.1022 ( 57)  0.1227 ( 60) -0.1315 ( 63)
           0.1692 ( 64)  0.2231 ( 70)  0.1844 ( 71) -0.1810 ( 74) -0.1622 ( 77)
           0.1161 ( 79)  0.1694 ( 80) -0.1388 ( 82) -0.1537 ( 83)  0.1602 ( 85)
          -0.2087 ( 86) -0.1294 ( 89) -0.2021 (101) -0.2160 (103) -0.1782 (105)
          -0.1619 (106)  0.1910 (107)  0.1335 (108)
 CRD 53=  -0.1433 (  6)  0.1181 (  8) -0.1099 ( 24)  0.1186 ( 26) -0.1564 ( 57)
          -0.1578 ( 58) -0.3485 ( 59)  0.1973 ( 61) -0.1075 ( 62)  0.1055 ( 63)
           0.2122 ( 65)  0.3421 ( 66)  0.1184 ( 69)  0.1004 ( 71)  0.1314 ( 74)
          -0.1050 ( 81)  0.2105 ( 82) -0.1988 ( 84) -0.1027 ( 86)  0.1018 ( 87)
           0.1068 ( 88)  0.1041 ( 92)  0.1107 ( 93) -0.2927 ( 94)  0.2119 ( 96)
          -0.1099 (107) -0.1049 (108)  0.2303 (109)
 CRD 54=   0.1023 (  6)  0.1619 ( 59)  0.1159 ( 64) -0.1330 ( 65) -0.1277 ( 66)
          -0.1803 ( 70)  0.2874 ( 71)  0.2737 ( 74) -0.1782 ( 77)  0.1410 ( 81)
          -0.1350 ( 82) -0.3413 ( 84)  0.1301 ( 87)  0.1614 ( 88) -0.1197 ( 89)
           0.1632 ( 92)  0.1281 ( 93)  0.1018 (103) -0.1935 (105) -0.1584 (106)
          -0.1851 (107) -0.1538 (108)  0.3243 (109)

 THE DETERMINANT OF THE G MATRIX IS 10**(   -17)


                     --------------------
                     INTERNAL COORDINATES
                     --------------------

                 - - ATOMS - -         COORDINATE      COORDINATE
 NO.   TYPE    I  J  K  L  M  N        (BOHR,RAD)       (ANG,DEG)
 ----------------------------------------------------------------
   1 STRETCH   1  2                     2.5077816       1.3270610
   2 STRETCH   1  9                     2.0521657       1.0859594
   3 STRETCH   1 10                     2.0538382       1.0868444
   4 STRETCH   2 11                     2.0754682       1.0982905
   5 STRETCH   2  3                     2.8250677       1.4949616
   6 STRETCH   3 12                     2.1149690       1.1191935
   7 STRETCH   3  4                     2.8832447       1.5257475
   8 STRETCH   3  5                     2.8965096       1.5327670
   9 STRETCH   4 14                     2.0929272       1.1075294
  10 STRETCH   4 13                     2.0942745       1.1082424
  11 STRETCH   4  6                     2.8748563       1.5213085
  12 STRETCH   5 15                     2.0937176       1.1079477
  13 STRETCH   5  7                     2.8087083       1.4863045
  14 STRETCH   5 16                     2.0960341       1.1091736
  15 STRETCH   6  8                     2.8078330       1.4858414
  16 STRETCH   6 18                     2.0957246       1.1090098
  17 STRETCH   6 17                     2.0931102       1.1076263
  18 STRETCH   7 19                     2.0707265       1.0957813
  19 STRETCH   7  8                     2.5200201       1.3335373
  20 STRETCH   8 20                     2.0706856       1.0957597
  21 BEND      1  2  3                  2.2024721     126.1923541
  22 BEND      1  2 11                  2.0922498     119.8770824
  23 BEND      2  1 10                  2.1650930     124.0506939
  24 BEND      2  3  5                  1.9019236     108.9721950
  25 BEND      2  1  9                  2.1321534     122.1633899
  26 BEND      2  3 12                  1.8603646     106.5910420
  27 BEND      2  3  4                  2.0030163     114.7643815
  28 BEND      3  4 13                  1.9188451     109.9417244
  29 BEND      3  4 14                  1.9261993     110.3630884
  30 BEND      3  5 16                  1.9238393     110.2278700
  31 BEND      3  5  7                  1.9653442     112.6059306
  32 BEND      3  5 15                  1.9167171     109.8198002
  33 BEND      3  2 11                  1.9884605     113.9303916
  34 BEND      3  4  6                  1.9306618     110.6187724
  35 BEND      4  3  5                  1.9151991     109.7328251
  36 BEND      4  6 17                  1.9163816     109.8005781
  37 BEND      4  6  8                  1.9676540     112.7382688
  38 BEND      4  3 12                  1.8813453     107.7931455
  39 BEND      4  6 18                  1.9276818     110.4480286
  40 BEND      5  7  8                  2.1513679     123.2642988
  41 BEND      5  7 19                  2.0245079     115.9957574
  42 BEND      5  3 12                  1.8989763     108.8033264
  43 BEND      6  4 13                  1.9212507     110.0795548
  44 BEND      6  4 14                  1.9164108     109.8022481
  45 BEND      6  8 20                  2.0274557     116.1646554
  46 BEND      6  8  7                  2.1472614     123.0290180
  47 BEND      7  5 16                  1.8912053     108.3580824
  48 BEND      7  5 15                  1.9142786     109.6800827
  49 BEND      7  8 20                  2.1083693     120.8006623
  50 BEND      8  6 17                  1.9121574     109.5585493
  51 BEND      8  6 18                  1.8884383     108.1995473
  52 BEND      8  7 19                  2.1072057     120.7339951
  53 BEND      9  1 10                  1.9859385     113.7858921
  54 BEND     13  4 14                  1.8488809     105.9330705
  55 BEND     15  5 16                  1.8486741     105.9212211
  56 BEND     17  6 18                  1.8474802     105.8528193
  57 TORSION   1  2  3 12               2.1164459     121.2634171
  58 TORSION   1  2  3  5              -2.1201196    -121.4739025
  59 TORSION   1  2  3  4               0.0351734       2.0152892
  60 TORSION   2  3  5 16               0.8865397      50.7949850
  61 TORSION   2  3  4 13              -1.0833664     -62.0723218
  62 TORSION   2  3  5  7               3.0007012     171.9275143
  63 TORSION   2  3  4  6               3.0742742     176.1429345
  64 TORSION   2  3  5 15              -1.1438222     -65.5361868
  65 TORSION   2  3  4 14               0.9498947      54.4249568
  66 TORSION   3  2  1 10               0.0056834       0.3256350
  67 TORSION   3  2  1  9              -3.1348634    -179.6144429
  68 TORSION   3  4  6 17               2.9285259     167.7921719
  69 TORSION   3  4  6 18              -1.3236986     -75.8423414
  70 TORSION   3  4  6  8               0.7912349      45.3344181
  71 TORSION   3  5  7  8              -0.2871393     -16.4518697
  72 TORSION   3  5  7 19               2.8698639     164.4310890
  73 TORSION   4  6  8 20               2.8819384     165.1229077
  74 TORSION   4  6  8  7              -0.2746774     -15.7378532
  75 TORSION   4  3  5 15               2.9326698     168.0296037
  76 TORSION   4  3  2 11              -3.1090744    -178.1368399
  77 TORSION   4  3  5  7               0.7940080      45.4933048
  78 TORSION   4  3  5 16              -1.3201535     -75.6392245
  79 TORSION   5  3  4 14               3.0980855     177.5072238
  80 TORSION   5  3  4 13               1.0648244      61.0099452
  81 TORSION   5  3  4  6              -1.0607203     -60.7747985
  82 TORSION   5  3  2 11               1.0188179      58.3739684
  83 TORSION   5  7  8 20              -3.1398150    -179.8981480
  84 TORSION   5  7  8  6               0.0174755       1.0012737
  85 TORSION   6  8  7 19              -3.1402319    -179.9220354
  86 TORSION   6  4  3 12               1.0047557      57.5682595
  87 TORSION   7  8  6 17              -2.4143375    -138.3313475
  88 TORSION   7  8  6 18               1.8624418     106.7100541
  89 TORSION   7  5  3 12              -1.2605162     -72.2222594
  90 TORSION   8  6  4 13              -1.3328939     -76.3691927
  91 TORSION   8  6  4 14               2.9213677     167.3820384
  92 TORSION   8  7  5 16               1.8455465     105.7420262
  93 TORSION   8  7  5 15              -2.4271715    -139.0666809
  94 TORSION   9  1  2 11               0.0095281       0.5459222
  95 TORSION  10  1  2 11              -3.1331104    -179.5139999
  96 TORSION  11  2  3 12              -1.0278019     -58.8887120
  97 TORSION  12  3  5 16               2.9085076     166.6452113
  98 TORSION  12  3  4 14              -1.1196238     -64.1497183
  99 TORSION  12  3  4 13               3.1303004     179.3530031
 100 TORSION  12  3  5 15               0.8781456      50.3140394
 101 TORSION  13  4  6 17               0.8043971      46.0885611
 102 TORSION  13  4  6 18               2.8353580     162.4540478
 103 TORSION  14  4  6 17              -1.2245266     -70.1602078
 104 TORSION  14  4  6 18               0.8064342      46.2052789
 105 TORSION  15  5  7 19               0.7298317      41.8162778
 106 TORSION  16  5  7 19              -1.2806356     -73.3750150
 107 TORSION  17  6  8 20               0.7422783      42.5294134
 108 TORSION  18  6  8 20              -1.2641278     -72.4291849
 109 TORSION  19  7  8 20              -0.0143371      -0.8214572

     ------------------------------------------
     THE POINT GROUP IS C1 , NAXIS= 1, ORDER= 1
     ------------------------------------------

     DIMENSIONS OF THE SYMMETRY SUBSPACES ARE
 A   =  224

 ..... DONE SETTING UP THE RUN .....
 STEP CPU TIME =     0.01 TOTAL CPU TIME =        0.0 (    0.0 MIN)
 TOTAL WALL CLOCK TIME=        0.0 SECONDS, CPU UTILIZATION IS  50.00%


          -----------------------------
          STATIONARY POINT LOCATION RUN
          -----------------------------

 OBTAINING INITIAL HESSIAN, HESS=GUESS   
 DIAGONAL GUESS HESSIAN IN INTERNAL COORDS IS
     1  0.5448     2  0.3491     3  0.3485     4  0.3408     5  0.3930
     6  0.3273     7  0.3702     8  0.3652     9  0.3348    10  0.3343
    11  0.3734    12  0.3345    13  0.3997    14  0.3337    15  0.4001
    16  0.3338    17  0.3347    18  0.3425    19  0.5379    20  0.3425
    21  0.2661    22  0.2362    23  0.2369    24  0.2508    25  0.2370
    26  0.2244    27  0.2513    28  0.2232    29  0.2233    30  0.2228
    31  0.2514    32  0.2229    33  0.2257    34  0.2494    35  0.2486
    36  0.2235    37  0.2522    38  0.2226    39  0.2235    40  0.2663
    41  0.2263    42  0.2222    43  0.2235    44  0.2236    45  0.2264
    46  0.2663    47  0.2255    48  0.2256    49  0.2359    50  0.2257
    51  0.2256    52  0.2359    53  0.2038    54  0.2016    55  0.2015
    56  0.2016    57  0.2500    58  0.2500    59  0.2500    60  0.2500
    61  0.2500    62  0.2500    63  0.2500    64  0.2500    65  0.2500
    66  0.2500    67  0.2500    68  0.2500    69  0.2500    70  0.2500
    71  0.2500    72  0.2500    73  0.2500    74  0.2500    75  0.2500
    76  0.2500    77  0.2500    78  0.2500    79  0.2500    80  0.2500
    81  0.2500    82  0.2500    83  0.2500    84  0.2500    85  0.2500
    86  0.2500    87  0.2500    88  0.2500    89  0.2500    90  0.2500
    91  0.2500    92  0.2500    93  0.2500    94  0.2500    95  0.2500
    96  0.2500    97  0.2500    98  0.2500    99  0.2500   100  0.2500
   101  0.2500   102  0.2500   103  0.2500   104  0.2500   105  0.2500
   106  0.2500   107  0.2500   108  0.2500   109  0.2500
 TRANSFORMING HESSIAN TO SYMMETRY COORDINATES

          PARAMETERS CONTROLLING GEOMETRY SEARCH ARE
          METHOD =QA                  UPHESS =BFGS    
          NNEG   =         0          NFRZ   =         3
          NSTEP  =        50          IFOLOW =         1
          HESS   =GUESS               RESTAR =         F
          IHREP  =         0          HSSEND =         F
          NPRT   =         0          NPUN   =         0
          OPTTOL = 5.000E-04          RMIN   = 1.500E-03
          RMAX   = 1.000E-01          RLIM   = 7.000E-02
          DXMAX  = 3.000E-01          PURIFY =         F
          MOVIE  =         F          TRUPD  =         T
          TRMAX  = 5.000E-01          TRMIN  = 5.000E-02
          ITBMAT =         5          STPT   =         F
          STSTEP = 1.000E-02          PROJCT=          F
          FROZEN COORD(S)=   1   2   3


      ***** EQUILIBRIUM GEOMETRY LOCATED *****
            (SUBJECT TO   3 CONSTRAINT(S))
 COORDINATES OF ALL ATOMS ARE (ANGS)
   ATOM   CHARGE       X              Y              Z
 ------------------------------------------------------------
 C           6.0   1.0626160334   2.3853238529   1.3887490130
 C           6.0   1.9179499231   2.1354820654   2.3621554690
 C           6.0   3.4190017262   2.2297218872   2.2795075977
 C           6.0   3.9513918228   2.7762696161   0.9543787864
 C           6.0   4.0426985625   0.8555957291   2.5758473669
 C           6.0   5.4666109415   2.9664452130   1.0159633187
 C           6.0   5.5272981878   0.8381150422   2.3145705061
 C           6.0   6.1600190119   1.7785891304   1.6355563492
 H           1.0   0.0030476317   2.2710107725   1.5354314913
 H           1.0   1.3859587567   2.7102911135   0.4154392527
 H           1.0   1.5379098908   1.8037508999   3.3181469357
 H           1.0   3.7447662357   2.9072384637   3.0700568428
 H           1.0   3.7062223772   2.0828632473   0.1518777565
 H           1.0   3.4742176079   3.7212256856   0.7128848780
 H           1.0   3.8535582345   0.5814854644   3.6112829380
 H           1.0   3.5554676546   0.0927591876   1.9686399658
 H           1.0   5.8587933813   3.1336275087   0.0159532179
 H           1.0   5.7058996217   3.8636251709   1.5862561528
 H           1.0   6.0812767095   0.0030473201   2.7137822976
 H           1.0   7.2284386389   1.7108506952   1.5053864245


                     --------------------
                     INTERNAL COORDINATES
                     --------------------

                 - - ATOMS - -         COORDINATE      COORDINATE
 NO.   TYPE    I  J  K  L  M  N        (BOHR,RAD)       (ANG,DEG)
 ----------------------------------------------------------------
   1 STRETCH   1  2                     2.4938206       1.3196731
   2 STRETCH   1  9                     2.0328994       1.0757641
   3 STRETCH   1 10                     2.0330906       1.0758653
   4 STRETCH   2 11                     2.0426493       1.0809235
   5 STRETCH   2  3                     2.8464495       1.5062763
   6 STRETCH   3 12                     2.0615510       1.0909259
   7 STRETCH   3  4                     2.8895634       1.5290912
   8 STRETCH   3  5                     2.9061490       1.5378679
   9 STRETCH   4 14                     2.0518600       1.0857976
  10 STRETCH   4 13                     2.0570502       1.0885441
  11 STRETCH   4  6                     2.8881594       1.5283483
  12 STRETCH   5 15                     2.0554081       1.0876752
  13 STRETCH   5  7                     2.8487939       1.5075169
  14 STRETCH   5 16                     2.0597271       1.0899607
  15 STRETCH   6  8                     2.8507394       1.5085464
  16 STRETCH   6 18                     2.0592160       1.0896903
  17 STRETCH   6 17                     2.0543131       1.0870958
  18 STRETCH   7 19                     2.0384533       1.0787031
  19 STRETCH   7  8                     2.4969333       1.3213203
  20 STRETCH   8 20                     2.0379739       1.0784494
  21 BEND      1  2  3                  2.2062912     126.4111717
  22 BEND      1  2 11                  2.0743973     118.8542084
  23 BEND      2  1 10                  2.1290327     121.9845874
  24 BEND      2  3  5                  1.9152436     109.7353750
  25 BEND      2  1  9                  2.1149457     121.1774610
  26 BEND      2  3 12                  1.8720017     107.2577945
  27 BEND      2  3  4                  2.0008058     114.6377266
  28 BEND      3  4 13                  1.9100496     109.4377805
  29 BEND      3  4 14                  1.9292240     110.5363945
  30 BEND      3  5 16                  1.9142240     109.6769554
  31 BEND      3  5  7                  1.9566584     112.1082704
  32 BEND      3  5 15                  1.9156914     109.7610295
  33 BEND      3  2 11                  2.0021457     114.7144988
  34 BEND      3  4  6                  1.9334316     110.7774732
  35 BEND      4  3  5                  1.9232084     110.1917244
  36 BEND      4  6 17                  1.9174281     109.8605371
  37 BEND      4  6  8                  1.9544105     111.9794758
  38 BEND      4  3 12                  1.8776345     107.5805350
  39 BEND      4  6 18                  1.9190370     109.9527212
  40 BEND      5  7  8                  2.1560220     123.5309590
  41 BEND      5  7 19                  2.0382198     116.7813944
  42 BEND      5  3 12                  1.8693925     107.1083019
  43 BEND      6  4 13                  1.9094973     109.4061354
  44 BEND      6  4 14                  1.9138495     109.6554998
  45 BEND      6  8 20                  2.0434630     117.0818028
  46 BEND      6  8  7                  2.1548593     123.4643461
  47 BEND      7  5 16                  1.9129886     109.6061712
  48 BEND      7  5 15                  1.9106193     109.4704226
  49 BEND      7  8 20                  2.0848623     119.4538130
  50 BEND      8  6 17                  1.9103749     109.4564176
  51 BEND      8  6 18                  1.9096637     109.4156676
  52 BEND      8  7 19                  2.0889434     119.6876411
  53 BEND      9  1 10                  2.0392066     116.8379321
  54 BEND     13  4 14                  1.8665164     106.9435127
  55 BEND     15  5 16                  1.8506574     106.0348608
  56 BEND     17  6 18                  1.8499979     105.9970718
  57 TORSION   1  2  3 12               2.1714772     124.4164799
  58 TORSION   1  2  3  5              -2.0867399    -119.5613911
  59 TORSION   1  2  3  4               0.0880853       5.0469174
  60 TORSION   2  3  5 16               0.8687008      49.7728910
  61 TORSION   2  3  4 13              -1.1340387     -64.9756330
  62 TORSION   2  3  5  7               2.9979908     171.7722185
  63 TORSION   2  3  4  6               3.0422964     174.3107438
  64 TORSION   2  3  5 15              -1.1578912     -66.3422801
  65 TORSION   2  3  4 14               0.9172480      52.5544401
  66 TORSION   3  2  1 10              -0.0214682      -1.2300354
  67 TORSION   3  2  1  9               3.1192084     178.7174782
  68 TORSION   3  4  6 17               2.9168924     167.1256266
  69 TORSION   3  4  6 18              -1.3367080     -76.5877284
  70 TORSION   3  4  6  8               0.7902027      45.2752787
  71 TORSION   3  5  7  8              -0.2478388     -14.2001193
  72 TORSION   3  5  7 19               2.8932817     165.7728287
  73 TORSION   4  6  8 20               2.8874155     165.4367233
  74 TORSION   4  6  8  7              -0.2529283     -14.4917236
  75 TORSION   4  3  5 15               2.9062002     166.5130049
  76 TORSION   4  3  2 11              -3.0825150    -176.6150982
  77 TORSION   4  3  5  7               0.7788969      44.6275035
  78 TORSION   4  3  5 16              -1.3503931     -77.3718240
  79 TORSION   5  3  4 14               3.0878617     176.9214412
  80 TORSION   5  3  4 13               1.0365749      59.3913680
  81 TORSION   5  3  4  6              -1.0702753     -61.3222552
  82 TORSION   5  3  2 11               1.0258451      58.7765932
  83 TORSION   5  7  8 20               3.1191793     178.7158071
  84 TORSION   5  7  8  6              -0.0236904      -1.3573571
  85 TORSION   6  8  7 19               3.1183875     178.6704420
  86 TORSION   6  4  3 12               0.9620565      55.1217767
  87 TORSION   7  8  6 17              -2.3836557    -136.5734103
  88 TORSION   7  8  6 18               1.8793453     107.6785521
  89 TORSION   7  5  3 12              -1.2585772     -72.1111632
  90 TORSION   8  6  4 13              -1.3169752     -75.4571189
  91 TORSION   8  6  4 14               2.9242482     167.5470811
  92 TORSION   8  7  5 16               1.8821562     107.8396068
  93 TORSION   8  7  5 15              -2.3780385    -136.2515712
  94 TORSION   9  1  2 11               0.0077018       0.4412828
  95 TORSION  10  1  2 11              -3.1329748    -179.5062308
  96 TORSION  11  2  3 12              -0.9991231     -57.2455357
  97 TORSION  12  3  5 16               2.8953181     165.8895093
  98 TORSION  12  3  4 14              -1.1629919     -66.6345269
  99 TORSION  12  3  4 13               3.0689067     175.8353999
 100 TORSION  12  3  5 15               0.8687261      49.7743382
 101 TORSION  13  4  6 17               0.8097146      46.3932290
 102 TORSION  13  4  6 18               2.8392994     162.6798740
 103 TORSION  14  4  6 17              -1.2322473     -70.6025710
 104 TORSION  14  4  6 18               0.7973375      45.6840740
 105 TORSION  15  5  7 19               0.7630820      43.7213768
 106 TORSION  16  5  7 19              -1.2599086     -72.1874452
 107 TORSION  17  6  8 20               0.7566881      43.3550365
 108 TORSION  18  6  8 20              -1.2634962     -72.3930011
 109 TORSION  19  7  8 20              -0.0219282      -1.2563938

          INTERNUCLEAR DISTANCES (ANGS.)


 =====================================================
   GAMESS/COSab RESULTS
 =====================================================

   Dielectric Constant                  = INFTY
   Basic Grid Size                      =                 1082
   Number of Segments                   =                   92
   Number of Segments located on spheres=                  269
   Number of Segments of the cavity     =                  691
   Solvent Radius (rsolv)               = 1.40
   Outlying Charge Error Method         = double cavity

 =====================================================

  Total solvated Energy (a.u.)          =  -309.9739355515
  Total Energy corrected (a.u.)         =  -309.9739139893

  Outlying charge effect (a.u.)         =     0.0000215622
  Outlying charge effect (kcal/mol)     =     0.0135304901

  Dielectric Energy (a.u.)              =    -0.0047994854
  Dielectric energy corr. (a.u.)        =    -0.0047779232

  Sum of polarization charges           =     0.0272360515
  Sum of polarization charges(cor.)     =    -0.0272360515

  Total surface area of cavity (A**2)   =  159.16
  Total volume of cavity (A**3)         =  158.11

 =====================================================
 NPS=                   691
NR.  ATOM  (X, Y, Z)(a.u.)                  CHARGE(e)  AREA(A**2) SIGMA(e/A**2)
   1   1   2.594644   8.181319   3.290663   0.002574   0.232280   0.011080
   2   1   2.757847   2.204432  -0.276944   0.001167   0.232280   0.005023
   3   1   0.311924   6.637624   5.245489   0.001974   0.325193   0.006069
   4   1  -0.022276   7.516750   1.572193   0.001050   0.418105   0.002511
   5   1   0.045569   3.883347  -0.544754   0.000397   0.278737   0.001423
   6   1   0.617975   1.063439   1.924589   0.002321   0.371649   0.006244
   7   1  -0.312249   1.544775   2.274944   0.001595   0.371649   0.004291
   8   1  -0.840123   4.166135   0.163551   0.000255   0.371649   0.000687
   9   1  -0.895617   6.799820   1.850615   0.000822   0.418105   0.001965
  10   1  -0.439625   6.318875   4.863183   0.001424   0.278737   0.005109
  11   1  -0.279899   2.693340   5.023920  -0.000070   0.092912  -0.000757
  12   1   2.900048   1.479185   0.546534   0.002216   0.232280   0.009541
  13   1  -0.253940   5.484067   5.490377   0.000792   0.185824   0.004260
  14   1   0.045829   7.230727   4.361730   0.002112   0.325193   0.006496
  15   1  -0.159644   7.595816   2.844011   0.001903   0.464561   0.004095
  16   1  -0.411144   6.591488   0.602185   0.000637   0.371649   0.001714
  17   1  -0.377936   5.343624  -0.184987   0.000476   0.371649   0.001280
  18   1  -0.177180   2.894100  -0.003504   0.001330   0.603929   0.002202
  19   1   0.141167   1.678873   0.951844   0.001831   0.464561   0.003942
  20   1   0.509053   1.100851   3.281067   0.003095   0.371649   0.008328
  21   1  -0.060775   1.897255   4.410479   0.000430   0.185824   0.002312
  22   1   1.035427   7.586891   4.588073   0.003664   0.325193   0.011266
  23   1   1.969958   8.036945   3.975843   0.002665   0.325193   0.008195
  24   1   2.067000   8.284129   2.487863   0.003103   0.464561   0.006679
  25   1   0.906436   8.065629   1.983150   0.001776   0.464561   0.003822
  26   1   0.492685   7.283920   0.555540   0.000734   0.371649   0.001974
  27   1   1.452691   7.737891   0.742576   0.000776   0.278737   0.002783
  28   1   0.158787   4.786360  -0.659972   0.000144   0.278737   0.000518
  29   1   1.005821   3.400635  -0.847599   0.000706   0.418105   0.001689
  30   1   2.075948   2.667040  -0.675954   0.001206   0.325193   0.003708
  31   1   2.112653   1.625954   0.181106   0.001445   0.278737   0.005184
  32   1   1.380688   1.136078   1.035797   0.002464   0.418105   0.005894
  33   1   1.583350   0.755987   2.453282   0.004316   0.418105   0.010322
  34   1  -0.606873   2.318806   0.994759   0.000576   0.278737   0.002068
  35   1  -0.899402   5.779253   0.571584   0.000216   0.325193   0.000664
  36   1  -0.636534   7.036723   3.569825   0.001398   0.325193   0.004300
  37   1  -0.332731   4.704111   5.585147   0.000041   0.092912   0.000445
  38   1  -0.122528   1.542061   3.599239   0.001059   0.232280   0.004559
  39   1   2.025292   8.070775   1.364282   0.001347   0.325193   0.004143
  40   1   2.214878   0.967808   1.316164   0.002258   0.232280   0.009720
  41   1   0.887932   8.010681   3.494984   0.003004   0.464561   0.006466
  42   1   0.330205   6.370116  -0.204099   0.000090   0.232280   0.000387
  43   1   1.058322   2.082961  -0.114882   0.001814   0.557473   0.003254
  44   2   3.762617   7.807756   4.650869   0.001097   0.139368   0.007875
  45   2   3.659575   5.819520   7.795514   0.000502   0.278737   0.001799
  46   2   1.259426   6.063833   6.603186   0.002011   0.278737   0.007215
  47   2   2.708035   0.399995   4.941191   0.000952   0.185824   0.005121
  48   2   2.383873   0.725658   5.801923   0.000647   0.185824   0.003484
  49   2   0.715933   1.961695   5.698546   0.000020   0.046456   0.000433
  50   2   0.923555   5.214843   6.829991   0.000562   0.232280   0.002420
  51   2   4.229707   5.159360   8.021170  -0.000005   0.185824  -0.000028
  52   2   3.258720   6.505060   7.301363   0.000874   0.325193   0.002689
  53   2   1.968372   6.564174   6.732624   0.001756   0.278737   0.006300
  54   2   1.080183   1.382476   5.342942   0.000913   0.185824   0.004915
  55   2   1.921782   0.678373   4.803334   0.001174   0.232280   0.005054
  56   2   3.661396   7.186481   6.550445   0.000901   0.278737   0.003233
  57   2   3.804754   7.673283   5.472792   0.001443   0.232280   0.006212
  58   2   3.002952   7.627883   5.460116   0.002452   0.232280   0.010555
  59   2   2.196914   7.191791   5.975164   0.000982   0.185824   0.005287
  60   2   2.358484   0.485730   4.179070   0.001155   0.139368   0.008287
  61   2   1.651082   0.960323   5.430136   0.000824   0.185824   0.004433
  62   2   2.328588   6.003613   7.418738   0.001167   0.325193   0.003588
  63   2   2.812646   7.158801   6.431077   0.001540   0.278737   0.005525
  64   3   5.659959   7.840978   5.003666   0.000158   0.139368   0.001132
  65   3   5.859727   7.918507   4.750480   0.000017   0.046456   0.000356
  66   3   5.867247   4.243029   8.040059  -0.000101   0.046456  -0.002171
  67   4   6.789541   6.749840  -1.597195   0.000822   0.232280   0.003540
  68   4   7.376220   8.577480   3.586738   0.000086   0.092912   0.000929
  69   4   6.511544   5.792715  -1.812111   0.001099   0.278737   0.003941
  70   4   5.945060   6.397183  -1.458916   0.000912   0.232280   0.003928
  71   4   7.602220   6.452124  -1.775887   0.000728   0.278737   0.002610
  72   4   7.566240   7.497533  -1.230742   0.000473   0.185824   0.002548
  73   4   7.487743   8.740961   3.242901   0.000037   0.046456   0.000804
  74   4   7.739812   5.524778  -1.955778   0.000730   0.278737   0.002619
  75   4   8.008385   7.217322  -1.375568   0.000259   0.139368   0.001861
  76   5   6.784856  -1.981790   5.644479   0.001306   0.371649   0.003515
  77   5   6.513392  -1.571295   6.556332   0.001034   0.278737   0.003711
  78   5   8.870648   2.923501   8.193520   0.000194   0.185824   0.001044
  79   5   4.824610  -0.702275   5.858501   0.000581   0.185824   0.003127
  80   5   5.572091  -1.364741   5.925858   0.001610   0.371649   0.004331
  81   5   7.669604  -1.888005   6.281627   0.000689   0.325193   0.002119
  82   5   8.495738  -1.757213   6.339707   0.000080   0.139368   0.000574
  83   5   7.862776  -2.153505   4.730308   0.000335   0.185824   0.001804
  84   5   8.381905  -1.393993   7.028214   0.000024   0.185824   0.000128
  85   5   5.129057  -0.656266   6.545269   0.000418   0.139368   0.002998
  86   5   8.335117   3.223102   8.217343   0.000025   0.046456   0.000534
  87   5   8.139915  -2.088931   5.416383   0.000160   0.232280   0.000687
  88   6   9.602607   8.985381   0.392529   0.000360   0.185824   0.001939
  89   6  13.087424   8.152458   1.475474   0.001326   0.371649   0.003569
  90   6  12.839422   8.035766   0.476198   0.001024   0.278737   0.003675
  91   6  10.353408   8.718948  -0.222980   0.000817   0.325193   0.002513
  92   6  10.690018   3.435156  -1.153123   0.000236   0.185824   0.001269
  93   6   9.546858   8.313582  -0.597671   0.000401   0.232280   0.001725
  94   6  10.685999   9.180889   0.746704   0.000861   0.278737   0.003088
  95   6  12.092340   8.782151   0.875631   0.001439   0.325193   0.004426
  96   6  13.609389   7.281178   1.068096   0.000744   0.325193   0.002289
  97   6  13.926629   6.515762   1.196448   0.000111   0.139368   0.000794
  98   6   9.857185   9.289002   1.216938   0.000510   0.232280   0.002194
  99   6  13.538090   7.469953   2.640889   0.000328   0.185824   0.001765
 100   6  13.740513   6.323134   0.456729   0.000086   0.185824   0.000465
 101   6  11.356010   8.817561   0.212017   0.001085   0.278737   0.003892
 102   6  10.180551   3.716032  -1.349779   0.000047   0.046456   0.001007
 103   6  13.794025   7.113339   2.041724   0.000231   0.232280   0.000993
 104   7   9.775052  -1.864743   2.980029   0.000550   0.232280   0.002368
 105   7  12.404460  -0.848083   2.245275   0.002419   0.278737   0.008677
 106   7  11.733610   2.006976   7.901630   0.001858   0.371649   0.004999
 107   7  12.042836   1.009971   7.750610   0.001302   0.325193   0.004004
 108   7  13.876209   1.137195   5.894485   0.000186   0.092912   0.002002
 109   7  13.032148  -0.788925   2.973354   0.000822   0.278737   0.002949
 110   7  10.084946  -2.161679   4.018992   0.000350   0.278737   0.001256
 111   7  10.521309  -1.759801   2.613562   0.001226   0.325193   0.003769
 112   7  11.573512  -1.194983   2.074058   0.001616   0.232280   0.006959
 113   7  13.588834   1.474221   6.468913   0.000826   0.185824   0.004445
 114   7  12.817412   2.157074   7.259670   0.003811   0.418105   0.009114
 115   7  10.967852   0.953902   8.063644   0.001136   0.371649   0.003055
 116   7   9.799720  -1.163880   1.860332   0.001147   0.278737   0.004116
 117   7   9.429469  -0.141341   1.168174   0.002312   0.278737   0.008294
 118   7  10.196149  -0.172975   1.036831   0.002320   0.232280   0.009990
 119   7  11.338980  -0.551446   1.386270   0.002470   0.278737   0.008862
 120   7  11.847463   3.167255   7.506033   0.003801   0.511017   0.007438
 121   7  10.744629   2.544300   8.016972   0.001470   0.371649   0.003956
 122   7  13.039562   1.342607   7.111556   0.001152   0.232280   0.004958
 123   7  11.405713  -1.733907   2.839536   0.001721   0.371649   0.004631
 124   7  10.672017  -0.164983   7.716732   0.000064   0.185824   0.000343
 125   7  10.859485   3.618691   7.531707   0.002251   0.232280   0.009692
 126   7  10.607469  -1.001937   1.622199   0.001702   0.278737   0.006107
 127   8  13.832944   5.962578   4.737126   0.000568   0.232280   0.002444
 128   8  14.108337   3.329656   5.953320   0.001717   0.278737   0.006161
 129   8  12.802263   1.574846  -0.030873   0.001800   0.371649   0.004842
 130   8  13.747902   1.873638   0.328202   0.001351   0.325193   0.004155
 131   8  14.090756   0.535471   2.545047   0.000279   0.092912   0.003007
 132   8  14.550881   2.675061   5.402636   0.001335   0.278737   0.004791
 133   8  14.491376   5.720793   3.858685   0.000383   0.278737   0.001376
 134   8  14.024739   5.335686   5.259077   0.001215   0.325193   0.003735
 135   8  13.942582   4.231109   5.959344   0.001447   0.232280   0.006229
 136   8  13.810226   0.514456   1.876466   0.001136   0.185824   0.006114
 137   8  13.055521   0.680777   0.832707   0.002806   0.418105   0.006711
 138   8  13.339189   2.755249  -0.230763   0.001147   0.371649   0.003086
 139   8  12.984203   5.720169   5.720191   0.001188   0.278737   0.004263
 140   8  11.978321   5.617289   6.104009   0.001495   0.185824   0.008048
 141   8  12.151853   4.971766   6.471383   0.002172   0.232280   0.009351
 142   8  13.120142   4.175633   6.471897   0.003038   0.278737   0.010900
 143   8  11.794967   0.959885   0.176161   0.004756   0.464561   0.010237
 144   8  11.893309   2.093534  -0.460840   0.001410   0.371649   0.003794
 145   8  13.806787   0.953629   1.142214   0.001177   0.232280   0.005068
 146   8  14.497738   4.554549   5.258101   0.001749   0.371649   0.004706
 147   8  14.037682   3.650079   0.182950   0.000087   0.185824   0.000471
 148   8  10.845036   1.484080  -0.091708   0.002236   0.278737   0.008022
 149   8  13.190873   4.993793   6.126462   0.001883   0.278737   0.006755
 150   9  -2.401167   3.962740   3.267141  -0.004935   0.608459  -0.008110
 151   9  -1.625304   5.071223   4.564951  -0.001856   0.412182  -0.004504
 152   9  -1.329096   2.999835   4.509217  -0.001814   0.353299  -0.005134
 153   9  -1.580794   2.459797   2.498488  -0.001403   0.353299  -0.003972
 154   9  -1.917806   4.245117   1.374182  -0.001631   0.333671  -0.004888
 155   9  -1.870849   5.826112   2.503159  -0.001302   0.333671  -0.003903
 156   9  -1.711053   3.965099   4.628118  -0.003077   0.490692  -0.006271
 157   9  -1.721749   2.659451   3.523567  -0.002775   0.490692  -0.005656
 158   9  -2.011227   3.296832   1.912955  -0.003023   0.510320  -0.005924
 159   9  -2.237852   4.907113   2.112589  -0.003096   0.490692  -0.006310
 160   9  -2.038691   5.461743   3.598742  -0.003203   0.549575  -0.005829
 161  10   3.007116   5.824688  -1.536656  -0.004076   0.451437  -0.009028
 162  10   2.475299   7.241377  -0.448399  -0.001259   0.274788  -0.004583
 163  10   1.460509   6.127689  -1.133480  -0.001373   0.294415  -0.004664
 164  10   2.092580   4.202701  -1.431543  -0.000848   0.255160  -0.003323
 165  10   2.242143   6.737786  -1.026377  -0.002647   0.412182  -0.006421
 166  10   1.815111   5.260144  -1.532172  -0.002484   0.431809  -0.005752
 167  10   2.901544   4.438591  -1.557735  -0.002483   0.372926  -0.006658
 168  11   1.816481   2.760361   8.374525  -0.003653   0.490692  -0.007444
 169  11   3.318190   4.099896   8.591488  -0.002027   0.412182  -0.004917
 170  11   2.325880   1.231314   7.249058  -0.001874   0.372926  -0.005026
 171  11   0.713093   2.629162   7.056381  -0.002090   0.353299  -0.005917
 172  11   1.350234   4.453557   7.858486  -0.001242   0.372926  -0.003330
 173  11   3.151996   3.025780   8.684552  -0.003057   0.412182  -0.007418
 174  11   2.647924   1.932803   8.217301  -0.003130   0.412182  -0.007594
 175  11   1.382497   1.773254   7.289728  -0.002644   0.490692  -0.005388
 176  11   0.912845   3.434116   7.705974  -0.002764   0.451437  -0.006122
 177  11   2.149718   4.159903   8.483610  -0.002688   0.471065  -0.005705
 178  12   7.703524   7.075219   7.573982  -0.001928   0.392554  -0.004912
 179  12   7.578956   5.421464   8.205207  -0.000887   0.235532  -0.003764
 180  12   6.271304   6.403446   7.936834  -0.000727   0.215905  -0.003366
 181  12   6.538696   7.845831   6.264353  -0.000890   0.353299  -0.002520
 182  12   8.589307   6.828464   7.203592  -0.002053   0.333671  -0.006153
 183  12   8.429496   5.874125   7.816547  -0.001811   0.392554  -0.004614
 184  12   7.197636   6.363407   8.095996  -0.001282   0.294415  -0.004353
 185  12   6.454094   7.306407   7.338583  -0.001721   0.451437  -0.003812
 186  12   7.532515   7.806768   6.492819  -0.002046   0.412182  -0.004965
 187  12   6.621311   5.521881   8.215499  -0.000793   0.235532  -0.003368
 188  13   6.690854   2.522313  -1.697584  -0.001500   0.333671  -0.004494
 189  13   7.697888   1.901119  -0.901433  -0.000972   0.215905  -0.004504
 190  13   7.882845   3.408396  -1.945465  -0.001018   0.294415  -0.003459
 191  13   6.223989   4.166284  -2.031203  -0.000815   0.294415  -0.002769
 192  13   6.860165   1.803439  -0.923989  -0.001192   0.255160  -0.004672
 193  13   7.861315   2.521074  -1.528920  -0.001285   0.333671  -0.003850
 194  13   6.801525   3.364376  -2.093633  -0.000970   0.255160  -0.003800
 195  13   5.767242   3.155470  -1.687045  -0.001542   0.294415  -0.005238
 196  13   5.966075   2.069015  -0.926482  -0.001874   0.333671  -0.005618
 197  13   7.251195   4.178108  -2.145137  -0.000269   0.235532  -0.001143
 198  14   5.822057   9.317759   0.838857  -0.001878   0.372926  -0.005035
 199  14   7.037372   9.437962   1.192148  -0.001127   0.314043  -0.003590
 200  14   5.973311   9.011721   2.675953  -0.000896   0.314043  -0.002855
 201  14   6.850385   8.575915  -0.542397  -0.000748   0.333671  -0.002241
 202  14   6.749485   9.365507   2.093042  -0.001123   0.333671  -0.003366
 203  14   5.441917   9.165091   1.819788  -0.001852   0.372926  -0.004966
 204  14   5.168271   8.798299   0.365398  -0.002174   0.353299  -0.006152
 205  14   5.728063   8.228408  -0.628420  -0.001693   0.510320  -0.003317
 206  14   6.867257   9.188262   0.209250  -0.001673   0.431809  -0.003874
 207  15   6.920794   0.086195   9.033190  -0.002350   0.412182  -0.005700
 208  15   6.989977   2.235188   8.982690  -0.002001   0.412182  -0.004855
 209  15   8.258564   1.769991   8.976389  -0.001048   0.392554  -0.002668
 210  15   8.222872  -0.496876   8.437969  -0.001431   0.372926  -0.003836
 211  15   6.280581  -0.829177   7.970906  -0.000975   0.372926  -0.002614
 212  15   7.257277   1.222753   9.277730  -0.001906   0.372926  -0.005110
 213  15   8.220880   0.505848   9.015742  -0.001753   0.412182  -0.004252
 214  15   7.281931  -0.889564   8.267003  -0.001427   0.412182  -0.003462
 215  15   5.694071  -0.100986   8.264283  -0.002074   0.431809  -0.004802
 216  15   6.121235   1.026451   8.988155  -0.002406   0.392554  -0.006128
 217  16   5.998439  -1.804196   2.456170  -0.002156   0.412182  -0.005230
 218  16   7.225461  -1.298386   1.821036  -0.001010   0.294415  -0.003429
 219  16   5.012379  -1.546409   4.118612  -0.001029   0.392554  -0.002622
 220  16   7.023795  -2.250829   3.483372  -0.001113   0.372926  -0.002985
 221  16   6.518907  -0.766446   1.460036  -0.001987   0.392554  -0.005062
 222  16   5.415733  -0.858081   1.912120  -0.002527   0.431809  -0.005853
 223  16   4.989276  -1.424366   3.023967  -0.002379   0.431809  -0.005510
 224  16   6.001783  -2.163174   3.949272  -0.001322   0.471065  -0.002806
 225  16   7.156183  -1.944352   2.557863  -0.001061   0.353299  -0.003004
 226  17  11.972083   6.371364  -2.210794  -0.003181   0.549575  -0.005789
 227  17  10.430190   5.764967  -2.336117  -0.001294   0.333671  -0.003880
 228  17  11.593538   4.444036  -1.861700  -0.000849   0.353299  -0.002404
 229  17  13.268508   5.784293  -1.060445  -0.001369   0.372926  -0.003671
 230  17  12.540293   7.632588  -0.944831  -0.000850   0.372926  -0.002280
 231  17  10.593876   7.680003  -1.617662  -0.000885   0.353299  -0.002505
 232  17  11.024442   5.063107  -2.271087  -0.001816   0.431809  -0.004205
 233  17  12.549810   5.229740  -1.805851  -0.001977   0.471065  -0.004198
 234  17  13.036427   6.725770  -1.205825  -0.001627   0.431809  -0.003769
 235  17  11.710204   7.662150  -1.581666  -0.001808   0.471065  -0.003837
 236  17  10.588709   6.779622  -2.220613  -0.002093   0.490692  -0.004266
 237  18  11.538263   9.269571   4.258372  -0.002271   0.431809  -0.005258
 238  18  11.556441   7.932633   5.242034  -0.001433   0.392554  -0.003650
 239  18   9.791133   9.530101   3.287643  -0.001176   0.314043  -0.003744
 240  18  11.725862   9.508704   2.475796  -0.000946   0.372926  -0.002536
 241  18  12.927591   8.334173   3.603414  -0.000867   0.333671  -0.002599
 242  18  10.812983   8.603608   5.080353  -0.002018   0.412182  -0.004897
 243  18  10.009767   9.204922   4.344324  -0.002322   0.471065  -0.004929
 244  18  10.918475   9.709473   3.463279  -0.001634   0.353299  -0.004626
 245  18  12.420973   9.130096   3.074635  -0.001458   0.451437  -0.003229
 246  18  12.422197   8.403486   4.457637  -0.001553   0.431809  -0.003596
 247  18  10.564024   9.691647   2.474991  -0.000748   0.314043  -0.002383
 248  19  12.719251  -1.885566   6.103884  -0.004635   0.608459  -0.007617
 249  19  11.232924  -2.435371   5.033816  -0.001642   0.392554  -0.004183
 250  19  11.076223  -1.574934   6.962340  -0.001666   0.333671  -0.004994
 251  19  12.737142  -0.370979   7.212210  -0.001176   0.353299  -0.003327
 252  19  13.884695  -0.479435   5.401221  -0.001917   0.353299  -0.005427
 253  19  12.882210  -1.737571   4.097224  -0.001302   0.412182  -0.003159
 254  19  11.263483  -2.223734   6.134431  -0.002888   0.471065  -0.006132
 255  19  12.041076  -1.162162   7.218645  -0.002607   0.490692  -0.005312
 256  19  13.494474  -0.572916   6.428361  -0.002739   0.510320  -0.005367
 257  19  13.532114  -1.346215   4.916083  -0.003053   0.510320  -0.005982
 258  19  12.200686  -2.312188   4.728357  -0.002658   0.471065  -0.005642
 259  20  16.084286   3.092541   2.474608  -0.004617   0.608459  -0.007587
 260  20  15.539545   4.772373   3.208041  -0.001622   0.392554  -0.004131
 261  20  15.223990   4.174798   1.201192  -0.001423   0.333671  -0.004264
 262  20  15.107476   2.111553   1.207256  -0.001157   0.353299  -0.003275
 263  20  15.317624   1.464493   3.243300  -0.001900   0.353299  -0.005378
 264  20  15.544288   3.154226   4.418764  -0.001284   0.412182  -0.003116
 265  20  15.651498   4.481499   2.131037  -0.002822   0.471065  -0.005990
 266  20  15.422415   3.114793   1.137687  -0.002618   0.490692  -0.005334
 267  20  15.456660   1.697786   2.174529  -0.002721   0.510320  -0.005332
 268  20  15.743884   2.290253   3.740695  -0.003037   0.510320  -0.005951
 269  20  15.841116   3.942920   3.723895  -0.002631   0.471065  -0.005585
 270   1   0.072234   4.192635   5.961951  -0.000025   0.011495  -0.002206
 271   2   0.320903   4.111999   6.302616  -0.000043   0.011495  -0.003761
 272  11   0.438893   3.965475   6.536293  -0.000056   0.011495  -0.004850
 273   1   0.185601   2.590938   5.451230  -0.000021   0.011495  -0.001818
 274   2   0.435599   2.491528   5.785909  -0.000046   0.011495  -0.004044
 275  11   0.543309   2.490239   6.065896  -0.000070   0.011495  -0.006091
 276   1   3.714144   7.897776   3.435418   0.001301   0.125522   0.010364
 277   2   3.995996   7.820761   3.756972   0.001115   0.125522   0.008880
 278  14   4.646644   8.114437   3.055873   0.000444   0.125522   0.003538
 279   1   2.836091   0.636681   2.847218   0.001582   0.087723   0.018036
 280   2   3.100030   0.492201   3.155163   0.001207   0.087723   0.013763
 281  16   3.922046   0.019951   3.116528   0.000487   0.087723   0.005548
 282   2   3.322273   7.799869   4.422932   0.002170   0.176468   0.012294
 283   2   1.914408   7.115531   5.484370   0.004725   0.359471   0.013144
 284   2   0.630955   5.318291   6.150841   0.001181   0.359471   0.003286
 285   1   2.376683   7.699876   4.392368   0.005188   0.359471   0.014433
 286   1   0.772834   6.448883   5.480574   0.003238   0.359471   0.009007
 287   1  -0.054010   4.773955   5.777218   0.000209   0.176468   0.001187
 288   2   0.555901   2.056267   5.379531   0.000191   0.198090   0.000965
 289   2   1.752005   0.956539   4.046253   0.004304   0.407789   0.010555
 290   1   0.584784   1.699490   4.426793   0.001949   0.407789   0.004780
 291   1   1.876172   0.769969   3.053475   0.002416   0.198090   0.012194
 292   1  -0.186939   3.091440   5.372865  -0.000062   0.013537  -0.004566
 293   9  -0.418185   3.171261   5.204455  -0.000089   0.013537  -0.006570
 294  11   0.254779   2.991154   5.928433  -0.000084   0.013537  -0.006191
 295   1  -0.233722   3.822804   5.604842  -0.000067   0.013537  -0.004920
 296   9  -0.460197   3.828042   5.412776  -0.000100   0.013537  -0.007356
 297  11   0.213517   3.636203   6.133033  -0.000083   0.013537  -0.006141
 298   9  -0.890699   4.168692   5.184417  -0.000302   0.067982  -0.004436
 299   9  -1.050330   5.218777   4.849619  -0.000549   0.151459  -0.003625
 300   9  -1.282716   6.085297   3.846242  -0.000360   0.151459  -0.002377
 301   9  -1.473367   6.144398   2.515157  -0.000595   0.151459  -0.003932
 302   9  -1.542191   5.371251   1.415551  -0.000724   0.151459  -0.004779
 303   9  -1.460275   4.090653   1.009365  -0.000822   0.151459  -0.005427
 304   9  -1.262032   2.840581   1.467239  -0.000564   0.151459  -0.003723
 305   9  -1.030743   2.146188   2.596819  -0.000512   0.151459  -0.003378
 306   9  -0.863572   2.299187   3.923572  -0.000520   0.151459  -0.003435
 307   9  -0.814435   2.976459   4.806259  -0.000289   0.067982  -0.004247
 308   1  -0.598406   4.673630   5.290116  -0.000500   0.148430  -0.003367
 309   1  -0.841159   5.965778   4.543522  -0.000095   0.148430  -0.000638
 310   1  -1.092316   6.515318   3.157556  -0.000240   0.148430  -0.001616
 311   1  -1.246366   6.091389   1.714458  -0.000529   0.148430  -0.003564
 312   1  -1.238593   4.872084   0.820472  -0.000601   0.148430  -0.004046
 313   1  -1.072263   3.369629   0.851159  -0.000501   0.148430  -0.003375
 314   1  -0.817250   2.215204   1.793628  -0.000303   0.148430  -0.002040
 315   1  -0.580685   1.893779   3.251949  -0.000136   0.148430  -0.000919
 316   1  -0.461949   2.540385   4.613485  -0.000438   0.148430  -0.002949
 317   1   3.498623   3.162527  -0.690647   0.000045   0.089083   0.000502
 318  10   3.557379   3.411617  -0.849382  -0.000229   0.089083  -0.002571
[...]
 432   4   5.216477   6.767913  -0.919660   0.000085   0.082860   0.001031
 433  10   4.296962   6.584621  -0.845900  -0.000304   0.082860  -0.003673
 434  14   5.162188   7.039076  -0.789672  -0.000139   0.082860  -0.001679
 435  10   3.867278   6.005702  -1.219421  -0.002226   0.324911  -0.006850
 436   4   5.264475   5.917962  -1.370732   0.001027   0.458498   0.002240
 437   4   7.912520   8.196077   4.235450  -0.000118   0.164520  -0.000718
 438  12   7.820547   7.950647   4.934153  -0.000322   0.164520  -0.001958
 439  18   8.650381   8.353578   4.306038  -0.000297   0.164520  -0.001806
 440  12   7.202590   7.957424   5.302019  -0.000265   0.108224  -0.002453
 441   4   7.202627   8.279266   4.239512   0.000162   0.152716   0.001060
 442   4   8.606123   4.754783  -1.787448   0.000063   0.039999   0.001576
 443  13   8.429339   4.507918  -1.801256  -0.000066   0.039999  -0.001653
 444  17   9.330232   4.953739  -1.813270   0.000037   0.039999   0.000926
 445  13   6.101564   4.831250  -1.807543  -0.000108   0.078238  -0.001381
 446  13   7.313594   4.601317  -1.979133  -0.000567   0.178595  -0.003174
 447   4   6.631987   5.181041  -1.815116  -0.000147   0.167172  -0.000881
 448   4   7.956934   4.831008  -1.917429  -0.000032   0.095585  -0.000333
 449   4   7.896023   8.855848   2.909145   0.000018   0.039656   0.000461
 450  14   7.685051   8.934029   2.706768  -0.000081   0.039656  -0.002040
 451  18   8.627655   8.951408   3.057559  -0.000011   0.039656  -0.000271
 452  14   6.578398   8.810218   2.957504  -0.000385   0.125794  -0.003060
 453   4   7.041784   8.706149   3.139248  -0.000262   0.153685  -0.001707
 454  14   7.373737   8.308909  -0.575574  -0.000148   0.083005  -0.001789
 455  14   6.272800   7.665947  -0.916084  -0.000500   0.193145  -0.002589
 456   4   7.216935   7.761901  -0.901579  -0.000365   0.174352  -0.002093
 457   4   5.959591   7.066996  -1.136295   0.000088   0.101409   0.000865
 458  17   9.701942   5.593059  -1.996456  -0.000633   0.248865  -0.002542
 459  17   9.606657   6.930375  -1.680877  -0.000577   0.248865  -0.002318
 460   4   8.589366   6.137884  -1.635449   0.000114   0.674450   0.000169
 461  18   9.044528   8.982791   3.606632  -0.000545   0.193827  -0.002809
 462   4   7.957656   8.654317   3.591699   0.000260   0.273062   0.000954
 463   5   9.106891   3.766423   7.657923   0.000062   0.098143   0.000631
 464   7   9.583669   3.742520   7.531799   0.000276   0.098143   0.002809
 465  12   8.845290   4.456513   7.568316  -0.000071   0.098143  -0.000720
 466   5   9.214461   2.293901   8.244652  -0.000016   0.027716  -0.000563
 467   7   9.689681   2.277903   8.120333   0.000034   0.027716   0.001241
 468  15   9.015218   2.114423   8.386962  -0.000069   0.027716  -0.002484
 469   5   9.024175  -0.861181   7.374648  -0.000070   0.027716  -0.002510
 470   7   9.501810  -0.837135   7.261371  -0.000058   0.027716  -0.002108
 471  15   8.841942  -0.758624   7.594729  -0.000083   0.027716  -0.002983
 472   5   8.376062  -1.931332   3.767472  -0.000033   0.027724  -0.001185
 473   7   8.860231  -1.896353   3.690669  -0.000014   0.027724  -0.000517
 474  16   8.122664  -1.944521   3.598828  -0.000074   0.027724  -0.002676
 475   5   9.457336  -0.969419   7.137040  -0.000039   0.014434  -0.002672
 476   7   9.944366  -1.006677   7.085334  -0.000066   0.014434  -0.004580
 477  19  10.206126  -1.133418   7.016438  -0.000071   0.014434  -0.004925
 478   5   9.180912  -1.874690   5.626990  -0.000068   0.014434  -0.004725
 479   7   9.663970  -1.924956   5.553586  -0.000085   0.014434  -0.005917
 480  19   9.951216  -1.968235   5.623910  -0.000083   0.014434  -0.005762
 481   7   9.984604   3.040855   7.845841   0.000525   0.194335   0.002700
 482   5   9.303266   2.829873   8.053583   0.000124   0.194335   0.000639
 483   7   9.818849  -0.965755   7.172229  -0.000007   0.006277  -0.001137
 484   5   9.124037  -0.963067   7.289108   0.000002   0.006277   0.000345
 485   7   9.390608  -1.966173   4.805916  -0.000509   0.306962  -0.001659
 486   5   8.632627  -1.963995   4.563897  -0.000316   0.306962  -0.001029
 487   5   4.703930   0.278023   6.955872  -0.000111   0.087860  -0.001265
 488  11   3.916868   0.891349   7.063151  -0.000174   0.087860  -0.001976
 489  15   4.848299   0.308521   7.224531  -0.000236   0.087860  -0.002682
 490  11   3.224538   0.906278   6.919768  -0.000140   0.104170  -0.001341
 491   5   4.454912   0.094795   6.756235   0.000318   0.148038   0.002146
 492   5   7.800636   3.413511   8.209665  -0.000014   0.036973  -0.000378
 493  12   7.640446   4.124293   8.071599  -0.000040   0.036973  -0.001086
 494  15   7.694061   3.161107   8.340012  -0.000110   0.036973  -0.002968
 495  12   8.001181   4.732384   7.974084  -0.000684   0.212978  -0.003209
 496   5   8.485788   3.719306   8.001663   0.000251   0.300198   0.000837
 497  15   8.356848   2.338698   8.587509  -0.000445   0.118862  -0.003742
 498   5   8.351880   2.781149   8.350735  -0.000322   0.145216  -0.002218
 499  15   5.346882  -0.312694   7.335777  -0.000157   0.078834  -0.001989
 500  15   6.370072  -1.040670   7.329966  -0.000525   0.180449  -0.002908
 501  15   7.854589  -1.080683   7.590550  -0.000710   0.180449  -0.003933
 502   5   5.615565  -0.719380   6.924199  -0.000160   0.168016  -0.000953
 503   5   7.177990  -1.357951   7.040558  -0.000346   0.168016  -0.002058
 504   5   8.501254  -1.091565   7.352798  -0.000165   0.096313  -0.001712
 505  16   7.603542  -2.108879   3.772950  -0.000171   0.078446  -0.002177
 506  16   6.606449  -2.065954   4.519085  -0.000497   0.178992  -0.002778
 507  16   5.281387  -1.412939   4.761925  -0.000490   0.178992  -0.002737
 508   5   7.509221  -2.065711   4.400669  -0.000458   0.167704  -0.002731
 509   5   6.043979  -1.725487   5.148947  -0.000146   0.167704  -0.000872
 510   5   4.897538  -0.967315   5.116355   0.000050   0.095839   0.000518
 511  19  10.291413  -1.442313   6.788813  -0.000735   0.177520  -0.004142
 512  19  10.140901  -1.935231   5.966595  -0.000728   0.177520  -0.004103
 513   5   9.093331  -1.533490   6.490153  -0.000609   0.489275  -0.001245
 514   6   9.929611   2.843704  -0.679920   0.000114   0.097719   0.001167
 515   8  10.157480   2.479696  -0.435808   0.000313   0.097719   0.003201
 516  13   9.193211   2.723426  -0.766583   0.000030   0.097719   0.000303
 517   6  11.408749   3.482029  -1.024559  -0.000002   0.027700  -0.000086
 518   8  11.629082   3.112861  -0.785715   0.000045   0.027700   0.001610
 519  17  11.493096   3.725501  -1.184549  -0.000053   0.027700  -0.001915
 520   6  13.705619   5.465627   0.207825  -0.000059   0.027700  -0.002116
 521   8  13.896777   5.071263   0.431015  -0.000041   0.027700  -0.001489
 522  17  13.584657   5.531792  -0.062323  -0.000069   0.027700  -0.002489
 523   6  13.373618   7.062385   3.640445  -0.000020   0.027941  -0.000728
 524   8  13.568115   6.651881   3.828961  -0.000004   0.027941  -0.000139
 525  18  13.216057   7.301853   3.743312  -0.000062   0.027941  -0.002209
 526   6  13.964175   5.214781   0.582277  -0.000027   0.013558  -0.001992
 527   8  14.226647   4.838018   0.757601  -0.000047   0.013558  -0.003438
 528  20  14.443926   4.693670   0.903196  -0.000061   0.013558  -0.004488
 529   6  14.191765   6.085645   1.997138  -0.000048   0.013558  -0.003524
 530   8  14.457525   5.721464   2.192903  -0.000078   0.013558  -0.005770
 531  20  14.653803   5.496757   2.207943  -0.000112   0.013558  -0.008296
 532   8  14.144987   4.898340   0.623358  -0.000002   0.012247  -0.000149
 533   6  13.826208   5.462230   0.344639   0.000006   0.012247   0.000464
 534   8  14.169257   6.082468   2.866322  -0.000475   0.316860  -0.001499
 535   6  13.727395   6.748827   2.921794  -0.000259   0.316860  -0.000817
 536   8  11.043447   2.478449  -0.544951   0.000591   0.204736   0.002885
 537   6  10.939592   3.134854  -0.886825   0.000170   0.204736   0.000831
 538   6   9.741166   4.074544  -1.506337   0.000032   0.038834   0.000823
 539  13   9.023330   3.859799  -1.524147   0.000027   0.038834   0.000690
 540  17   9.930765   4.281163  -1.621621  -0.000082   0.038834  -0.002113
 541  13   8.656903   3.241341  -1.426706  -0.000511   0.221786  -0.002305
 542   6   9.757197   3.348732  -1.168239   0.000411   0.312404   0.001316
 543   6   8.957275   9.143685   2.091099   0.000041   0.039366   0.001031
 544  14   8.222139   9.095249   1.950949   0.000031   0.039366   0.000793
 545  18   9.153082   9.199779   2.317397  -0.000083   0.039366  -0.002105
 546  14   7.790310   9.174522   1.330405  -0.000578   0.247478  -0.002338
 547  14   7.811815   8.712340   0.037999  -0.000485   0.247478  -0.001959
 548   6   8.883042   8.831474   0.742243   0.000024   0.670767   0.000036
 549  17  11.022037   4.127537  -1.572528  -0.000410   0.120518  -0.003404
 550   6  10.589830   3.926544  -1.410805  -0.000270   0.147239  -0.001831
 551  17   9.979832   7.591319  -1.402188  -0.000157   0.070211  -0.002235
 552  17  10.886319   8.100098  -0.961631  -0.000430   0.156330  -0.002752
 553  17  12.158408   8.000737  -0.479362  -0.000310   0.156330  -0.001982
 554  17  13.149033   7.093405  -0.242551  -0.000418   0.156330  -0.002672
 555  17  13.505327   6.022807  -0.281801  -0.000179   0.070211  -0.002545
 556   6  10.048990   7.978310  -0.945545  -0.000333   0.153498  -0.002172
 557   6  11.405995   8.365426  -0.348647  -0.000044   0.153498  -0.000286
 558   6  12.750366   7.767308   0.078588  -0.000082   0.153498  -0.000534
 559   6  13.509659   6.438640   0.154240  -0.000330   0.153498  -0.002151
 560  18  13.139989   7.775267   3.506704  -0.000136   0.067796  -0.002008
 561  18  12.899487   8.389694   2.641004  -0.000333   0.149614  -0.002229
 562  18  12.019843   9.072174   1.936413  -0.000254   0.149614  -0.001699
 563  18  10.755017   9.438431   1.890913  -0.000381   0.149614  -0.002546
 564  18   9.756030   9.430167   2.323066  -0.000190   0.067796  -0.002798
 565   6  13.253923   7.701995   2.929205  -0.000311   0.149510  -0.002079
 566   6  12.645637   8.537835   1.869493  -0.000035   0.149510  -0.000232
 567   6  11.376895   9.158304   1.425714  -0.000017   0.149510  -0.000111
 568   6   9.946688   9.319373   1.772403  -0.000239   0.149510  -0.001596
 569  20  14.693904   4.929906   1.442307  -0.001774   0.333893  -0.005312
 570   6  14.089636   5.943628   1.281963  -0.000396   0.468894  -0.000845
 571   7  10.516411   4.598071   6.790529   0.001346   0.131660   0.010220
 572   8  10.722121   4.900007   6.553914   0.001515   0.131660   0.011507
 573  12   9.695067   5.214472   6.823342   0.000374   0.131660   0.002840
 574   7   9.520317   1.082284   0.614244   0.001520   0.134882   0.011271
 575   8   9.726506   1.383269   0.376520   0.001264   0.134882   0.009368
 576  13   8.801937   1.749402   0.046427   0.000489   0.134882   0.003628
 577   7  13.867558   0.051510   3.888027  -0.000013   0.008831  -0.001468
 578   8  14.041158   0.378546   3.669532  -0.000005   0.008831  -0.000605
 579  19  13.810318  -0.157637   4.093726  -0.000059   0.008831  -0.006655
 580   7  14.261802   1.151338   4.860001  -0.000009   0.009549  -0.000947
 581   8  14.500513   1.442662   4.652676  -0.000018   0.009549  -0.001899
 582  20  14.696558   1.570504   4.466968  -0.000050   0.009549  -0.005201
 583   8  13.965482   0.406727   2.993927   0.000252   0.205010   0.001230
 584   8  12.483734   0.268046   1.421118   0.004999   0.423674   0.011799
 585   8  10.618616   0.848067   0.486534   0.002916   0.205010   0.014224
 586   7  13.135652  -0.131728   2.676022   0.001907   0.423674   0.004501
 587   7  11.051878   0.143052   1.114907   0.006168   0.423674   0.014558
 588   8  11.707853   4.568136   6.654093   0.002823   0.201292   0.014024
 589   8  13.321325   3.224363   6.296332   0.004686   0.415059   0.011290
 590   8  14.325872   1.728470   5.160463   0.000239   0.201292   0.001186
 591   7  12.060618   3.631663   6.886870   0.006011   0.415059   0.014483
 592   7  13.690847   1.863416   5.956793   0.002079   0.415059   0.005009
 593  12   8.972741   5.120126   7.500477  -0.000414   0.281424  -0.001472
 594   7  10.213745   4.254049   7.313690   0.002266   0.400582   0.005657
 595   7   8.435089   0.514795   1.152178   0.000984   0.246110   0.003997
 596  13   7.769589   1.206665   0.540197   0.000258   0.246110   0.001050
 597  16   7.715202   0.314412   1.258038  -0.000057   0.246110  -0.000230
 598  13   8.123536   1.620392  -0.248611  -0.000058   0.214863  -0.000272
 599   7   9.024670   0.596954   0.720974   0.001793   0.310190   0.005780
 600  15   8.861747  -0.433916   7.967507  -0.000654   0.215028  -0.003041
 601  15   9.006397   1.043681   8.446631  -0.002052   0.443107  -0.004631
 602   7   9.973162   0.096744   7.800645  -0.000190   0.586414  -0.000323
 603   7  10.026600   1.821343   8.210918   0.000501   0.303066   0.001654
 604  16   7.762499  -0.552109   1.584920  -0.000366   0.204595  -0.001790
 605  16   7.956738  -1.565083   2.660320  -0.001573   0.420059  -0.003745
 606   7   8.935603  -0.806057   1.864920   0.001373   0.559371   0.002454
 607   7   9.096548  -1.847533   3.191501   0.000383   0.288371   0.001329
 608   7  14.115088   0.813258   4.944560  -0.000053   0.022477  -0.002344
 609  19  14.027733   0.545099   5.042698  -0.000102   0.022477  -0.004542
 610  20  14.471952   1.273790   4.522872  -0.000045   0.022477  -0.002024
 611  19  13.887625   0.263269   5.585899  -0.000293   0.072819  -0.004020
 612  19  13.324344   0.383152   6.618329  -0.000449   0.164477  -0.002732
 613  19  12.200228   0.017174   7.412701  -0.000575   0.164477  -0.003495
 614  19  11.032580  -0.794694   7.334776  -0.000818   0.164477  -0.004972
 615   7  13.720837   0.742481   5.929873  -0.000386   0.156969  -0.002457
 616   7  12.721212   0.675165   7.176231  -0.000189   0.156969  -0.001202
 617   7  11.350920  -0.029093   7.604609  -0.000384   0.156969  -0.002446
 618   7  10.376061  -0.832023   7.277848  -0.000272   0.088965  -0.003061
 619  19  10.378584  -2.164988   5.375945  -0.000347   0.073332  -0.004736
 620  19  11.023370  -2.214725   4.377143  -0.000657   0.165920  -0.003958
 621  19  12.196501  -1.766409   3.686986  -0.000445   0.165920  -0.002684
 622  19  13.327294  -0.913038   3.902871  -0.000713   0.165920  -0.004297
 623   7  10.250596  -2.110957   4.776686  -0.000680   0.157819  -0.004311
 624   7  11.342671  -1.945698   3.606914  -0.000200   0.157819  -0.001267
 625   7  12.721420  -1.166723   3.323093  -0.000120   0.157819  -0.000759
 626   7  13.638852  -0.342623   3.773830  -0.000152   0.089591  -0.001700
 627  20  14.850016   1.604645   4.359556  -0.000063   0.016449  -0.003856
 628   7  14.250117   0.938311   4.953478   0.000058   0.023269   0.002511
 629   8  10.787852   6.055716   5.837675   0.000992   0.238162   0.004166
 630  12   9.756047   6.317284   6.161803   0.000009   0.238162   0.000038
 631  18  10.615915   6.745542   5.587897  -0.000068   0.238162  -0.000285
 632  12   9.402025   5.887726   6.938222  -0.000263   0.218677  -0.001202
 633   8  10.906586   5.567860   6.381463   0.002017   0.314538   0.006411
 634  13   8.681460   2.286644  -0.777362  -0.000159   0.277221  -0.000573
 635   8   9.989957   1.728176  -0.152877   0.002010   0.395559   0.005082
 636  17  13.419298   5.289857  -0.460398  -0.000563   0.214851  -0.002619
 637  17  12.389347   4.305379  -1.092501  -0.001878   0.442705  -0.004241
 638   8  13.495507   4.102566  -0.101256  -0.000053   0.585960  -0.000090
 639   8  12.198369   3.068864  -0.724849   0.000549   0.302815   0.001812
 640  18  11.419347   7.126037   5.394728  -0.000334   0.201667  -0.001659
 641  18  12.598991   7.362897   4.546327  -0.001475   0.413717  -0.003566
 642   8  12.281120   6.251742   5.445038   0.001445   0.551720   0.002618
 643   8  13.527747   6.497481   4.355209   0.000415   0.284270   0.001460
 644   8  14.241673   0.636564   3.540434  -0.000037   0.023195  -0.001611
 645  19  13.933070   0.149806   3.972453  -0.000041   0.023195  -0.001779
 646  20  14.446122   0.840085   3.463691  -0.000104   0.023195  -0.004474
 647  20  14.744732   1.036135   2.943742  -0.000290   0.073189  -0.003960
 648  20  14.622301   1.313003   1.794773  -0.000449   0.165550  -0.002715
 649  20  14.569061   2.355171   0.815478  -0.000578   0.165550  -0.003489
 650  20  14.650226   3.781905   0.739246  -0.000827   0.165550  -0.004996
 651   8  14.348542   0.876276   2.501974  -0.000386   0.157551  -0.002447
 652   8  14.219679   1.594466   1.070562  -0.000196   0.157551  -0.001247
 653   8  14.236388   3.071693   0.439004  -0.000389   0.157551  -0.002470
 654   8  14.343679   4.361531   0.648448  -0.000251   0.089416  -0.002802
 655  20  14.969889   5.288681   2.578919  -0.000364   0.073342  -0.004963
 656  20  15.086117   4.943741   3.712395  -0.000661   0.165984  -0.003982
 657  20  15.128078   3.842746   4.629729  -0.000441   0.165984  -0.002657
 658  20  15.035994   2.412066   4.618397  -0.000694   0.165984  -0.004183
 659   8  14.713387   5.460785   3.110951  -0.000668   0.157805  -0.004234
 660   8  14.831754   4.657308   4.500590  -0.000204   0.157805  -0.001294
 661   8  14.801756   3.142129   5.042822  -0.000121   0.157805  -0.000766
 662   8  14.685600   1.865997   4.753489  -0.000158   0.089604  -0.001758
 663  11   0.255661   3.260713   6.430170  -0.000178   0.227568  -0.000780
 664   9  -0.654253   3.409284   5.322037  -0.000118   0.227568  -0.000519
 665  13   5.037592   3.386942  -1.394586  -0.000214   0.308396  -0.000693
 666  13   5.287348   4.424192  -1.665100   0.000060   0.308396   0.000196
 667  10   3.780439   4.290050  -1.331575  -0.002387   0.617801  -0.003864
 668  14   4.937547   7.491154  -0.671997  -0.000073   0.291925  -0.000250
 669  14   4.522182   8.123850   0.093753  -0.000394   0.291925  -0.001349
 670  10   3.491842   7.176665  -0.439438  -0.002508   0.584842  -0.004288
 671  15   5.812156   2.406725   8.657840  -0.000316   0.291887  -0.001082
 672  15   5.249535   1.294582   8.465124  -0.001342   0.583739  -0.002300
 673  15   4.852928   0.362882   7.713339  -0.000015   0.291887  -0.000050
 674  11   4.192516   2.713690   8.444017  -0.002014   0.583739  -0.003450
 675  11   3.594646   1.439797   7.855326  -0.001763   0.583739  -0.003020
 676  15   7.363868   3.095616   8.570577   0.000105   0.247983   0.000423
 677  12   7.148639   4.481310   8.253622   0.000056   0.247983   0.000224
 678  18   9.108054   8.620884   4.652792   0.000001   0.244847   0.000004
 679  18   9.826247   8.169403   5.311021  -0.000355   0.489452  -0.000726
 680  18  10.479041   7.399826   5.677784   0.000170   0.244847   0.000695
 681  12   8.198661   7.894123   5.813872  -0.000527   0.489452  -0.001076
 682  12   9.054427   7.131942   6.453669  -0.000739   0.489452  -0.001509
 683  16   6.002603   0.209820   1.123147  -0.000152   0.324965  -0.000467
 684  16   7.040650   0.062252   1.047636   0.000153   0.324965   0.000469
 685  13   6.618820   1.366856   0.016161  -0.000829   0.650041  -0.001275
 686  17   9.874686   4.583923  -1.920600   0.000226   0.268622   0.000841
 687  13   8.516170   4.094092  -1.884424   0.000259   0.268622   0.000964
 688  18   9.089983   9.322216   2.732061   0.000162   0.275994   0.000587
 689  14   7.697308   9.202105   2.361819   0.000225   0.275994   0.000814
 690  20  14.764504   1.166657   4.015662  -0.000419   0.374157  -0.001121
 691  19  14.045745   0.031241   4.546170  -0.000445   0.374157  -0.001189
 =====================================================

              4434833  WORDS OF DYNAMIC MEMORY USED
 EXECUTION OF GAMESS TERMINATED NORMALLY Wed Nov 23 13:44:35 2016
 DDI: 263640 bytes (0.3 MB / 0 MWords) used by master data server.

 ----------------------------------------
 CPU timing information for all processes
 ========================================
 0: 1720.120 + 0.584 = 1720.704
 ----------------------------------------
 ddikick.x: exited gracefully.
