----- GAMESS execution script -----

          ******************************************************
          *         GAMESS VERSION =  5 DEC 2014 (R1)          *
          *             FROM IOWA STATE UNIVERSITY             *
          * M.W.SCHMIDT, K.K.BALDRIDGE, J.A.BOATZ, S.T.ELBERT, *
          *   M.S.GORDON, J.H.JENSEN, S.KOSEKI, N.MATSUNAGA,   *
          *          K.A.NGUYEN, S.J.SU, T.L.WINDUS,           *
          *       TOGETHER WITH M.DUPUIS, J.A.MONTGOMERY       *
          *         J.COMPUT.CHEM.  14, 1347-1363(1993)        *
          **************** 64 BIT LINUX VERSION ****************

 EXECUTION OF GAMESS BEGUN Wed Nov 23 13:24:26 2016

            ECHO OF THE FIRST FEW INPUT CARDS -
 INPUT CARD>! SELECT RESTRICTED HARTREE-FOCK AS DEFAULT                                     
 INPUT CARD>$contrl scftyp=rhf $end                                                         
 INPUT CARD>                                                                                
 INPUT CARD>! THEORY: HF OR DFT                                                             
 INPUT CARD> $contrl mplevl=0 $end                                                          
 INPUT CARD>                                                                                
 INPUT CARD> $system timlim=10000 mwords=20 $end                                            
 INPUT CARD> $SCF DIRSCF=.TRUE. $end                                                        
 INPUT CARD>                                                                                
 INPUT CARD>                                                                                
 INPUT CARD>! BASIS SETS                                                                    
 INPUT CARD>! 6-311G(d,p)                                                                   
 INPUT CARD> $BASIS GBASIS=N311 NGAUSS=6 NDFUNC=1 NPFUNC=1 $END                             
 INPUT CARD>                                                                                
 INPUT CARD>! One of the following                                                          
 INPUT CARD> $guess guess=HUCKEL $end                                                       
 INPUT CARD>                                                                                
 INPUT CARD> $statpt projct=.FALSE. $end                                                    
 INPUT CARD> $STATPT IFREEZ(1)=1,2,3 $END                                                   
 INPUT CARD>                                                                                
 INPUT CARD>! Optimize the geometry with COSMO effects                                      
 INPUT CARD> $statpt opttol=0.0005 nstep=50 $end                                            
 INPUT CARD> $contrl nzvar=1 $end                                                           
 INPUT CARD> $zmat dlc=.t. auto=.t. $end                                                    
 INPUT CARD> $contrl runtyp=OPTIMIZE maxit=200 $end                                         
 INPUT CARD>                                                                                
 INPUT CARD>! Run COSMO on perfect conductor                                                
 INPUT CARD> $COSGMS PRFCND=.TRUE. $end                                                     
 INPUT CARD>                                                                                
 INPUT CARD>! Specifying RSOLV                                                              
 INPUT CARD> $COSGMS COSRAD = 1.4 $end                                                      
 INPUT CARD>                                                                                
 INPUT CARD>! available memory                                                              
 INPUT CARD> $SYSTEM MWORDS=40 $END                                                         
 INPUT CARD>                                                                                
 INPUT CARD> $DATA                                                                          
 INPUT CARD>2-Hexanone, 5-methyl-, ID: C110123                                              
 INPUT CARD>C1                                                                              
 INPUT CARD>C      6.0      1.9431000000    1.9840000000    1.8491000000                    
 INPUT CARD>C      6.0      3.0919000000    2.7388000000    1.1924000000                    
 INPUT CARD>C      6.0      2.0731000000    1.9380000000    3.3737000000                    
 INPUT CARD>C      6.0      4.3124000000    1.8549000000    1.0173000000                    
 INPUT CARD>C      6.0      1.9685000000    3.3355000000    3.9620000000                    
 INPUT CARD>C      6.0      1.0138000000    1.0270000000    3.9684000000                    
 INPUT CARD>C      6.0      5.2768000000    1.8237000000    2.1709000000                    
 INPUT CARD>O      8.0      4.4978000000    1.2144000000    0.0000000000                    
 INPUT CARD>H      1.0      0.9842000000    2.4705000000    1.5795000000                    
 INPUT CARD>H      1.0      1.8793000000    0.9546000000    1.4437000000                    
 INPUT CARD>H      1.0      2.7659000000    3.1325000000    0.2101000000                    
 INPUT CARD>H      1.0      3.3505000000    3.6283000000    1.8114000000                    
   40000000 WORDS OF MEMORY AVAILABLE

     BASIS OPTIONS
     -------------
     GBASIS=N311         IGAUSS=       6      POLAR=POPN311 
     NDFUNC=       1     NFFUNC=       0     DIFFSP=       F
     NPFUNC=       1      DIFFS=       F     BASNAM=        


     RUN TITLE
     ---------
 2-Hexanone, 5-methyl-, ID: C110123                                              

 THE POINT GROUP OF THE MOLECULE IS C1      
 THE ORDER OF THE PRINCIPAL AXIS IS     0

 ATOM      ATOMIC                      COORDINATES (BOHR)
           CHARGE         X                   Y                   Z
 C           6.0     3.6719265667        3.7492163596        3.4942923239
 C           6.0     5.8428437814        5.1755815352        2.2533092678
 C           6.0     3.9175909451        3.6622889642        6.3753685648
 C           6.0     8.1492543495        3.5052527346        1.9224182473
 C           6.0     3.7199256068        6.3031810320        7.4870943634
 C           6.0     1.9158042064        1.9407485894        7.4991886097
 C           6.0     9.9717060920        3.4462932838        4.1024061467
 O           8.0     8.4996095476        2.2948832395        0.0000000000
 H           1.0     1.8598683171        4.6685680527        2.9848221976
 H           1.0     3.5513620487        1.8039324279        2.7281974085
 H           1.0     5.2267931094        5.9195666565        0.3970314300
 H           1.0     6.3315269219        6.8564928013        3.4230496542
 H           1.0     5.8356628227        2.8797534327        6.8472331439
 H           1.0     4.1437911459        6.3107399360        9.5157152112
 H           1.0     1.8205620166        7.1015902619        7.2408630672
 H           1.0     5.0650325649        7.5851711421        6.5416644517
 H           1.0     2.0658484498        1.8691279745        9.5669267854
 H           1.0     2.1017532435        0.0000000000        6.7895965013
 H           1.0     0.0000000000        2.5904363840        7.0346939619
 H           1.0    11.5464147576        2.1300991334        3.8091206735
 H           1.0    10.7714381300        5.3320508470        4.4281949070
 H           1.0     8.9661828939        2.8788085697        5.8396312473

          INTERNUCLEAR DISTANCES (ANGS.)




     $CONTRL OPTIONS
     ---------------
 SCFTYP=RHF          RUNTYP=OPTIMIZE     EXETYP=RUN     
 MPLEVL=       0     CITYP =NONE         CCTYP =NONE         VBTYP =NONE    
 DFTTYP=NONE         TDDFT =NONE    
 MULT  =       1     ICHARG=       0     NZVAR =       1     COORD =UNIQUE  
 PP    =NONE         RELWFN=NONE         LOCAL =NONE         NUMGRD=       F
 ISPHER=      -1     NOSYM =       0     MAXIT =     200     UNITS =ANGS    
 PLTORB=       F     MOLPLT=       F     AIMPAC=       F     FRIEND=        
 NPRINT=       7     IREST =       0     GEOM  =INPUT   
 NORMF =       0     NORMP =       0     ITOL  =      20     ICUT  =       9
 INTTYP=BEST         GRDTYP=BEST         QMTTOL= 1.0E-06

     $SYSTEM OPTIONS
     ---------------
  REPLICATED MEMORY=    40000000 WORDS (ON EVERY NODE).
 DISTRIBUTED MEMDDI=           0 MILLION WORDS IN AGGREGATE,
 MEMDDI DISTRIBUTED OVER   1 PROCESSORS IS           0 WORDS/PROCESSOR.
 TOTAL MEMORY REQUESTED ON EACH PROCESSOR=    40000000 WORDS.
 TIMLIM=       10000.00 MINUTES, OR       6.9 DAYS.
 PARALL= F  BALTYP=  DLB     KDIAG=    0  COREFL= F
 MXSEQ2=     300 MXSEQ3=     150  mem10=         0

     $COSGMS OPTIONS
     ---------------
     EPSI  =   INFTY     NSPA  =      92     COSRAD=    1.40
     DISEX =   10.00     OUTCHG=DBLCAV       COSBUG=       F
     COSWRT=       F     DCOSMO=       F

     SYMMETRY COORDINATES WILL NOT BE USED FOR 
     THE COSMO CALCULATION, EVEN IF SPECIFIED:
         -- SWITCHING TO C1 POINT GROUP --


     DEFINITION OF CAVITY
     ---------------------------
     ATOM         COORDINATES           RADIUS 
     1    3.6719    3.7492    3.4943    2.0000
     2    5.8428    5.1756    2.2533    2.0000
     3    3.9176    3.6623    6.3754    2.0000
     4    8.1493    3.5053    1.9224    2.0000
     5    3.7199    6.3032    7.4871    2.0000
     6    1.9158    1.9407    7.4992    2.0000
     7    9.9717    3.4463    4.1024    2.0000
     8    8.4996    2.2949    0.0000    1.7200
     9    1.8599    4.6686    2.9848    1.3000
    10    3.5514    1.8039    2.7282    1.3000
    11    5.2268    5.9196    0.3970    1.3000
    12    6.3315    6.8565    3.4230    1.3000
    13    5.8357    2.8798    6.8472    1.3000
    14    4.1438    6.3107    9.5157    1.3000
    15    1.8206    7.1016    7.2409    1.3000
    16    5.0650    7.5852    6.5417    1.3000
    17    2.0658    1.8691    9.5669    1.3000
    18    2.1018    0.0000    6.7896    1.3000
    19    0.0000    2.5904    7.0347    1.3000
    20   11.5464    2.1301    3.8091    1.3000
    21   10.7714    5.3321    4.4282    1.3000
    22    8.9662    2.8788    5.8396    1.3000

          ----------------
          PROPERTIES INPUT
          ----------------

     MOMENTS            FIELD           POTENTIAL          DENSITY
 IEMOM =       1   IEFLD =       0   IEPOT =       0   IEDEN =       0
 WHERE =COMASS     WHERE =NUCLEI     WHERE =NUCLEI     WHERE =NUCLEI  
 OUTPUT=BOTH       OUTPUT=BOTH       OUTPUT=BOTH       OUTPUT=BOTH    
 IEMINT=       0   IEFINT=       0                     IEDINT=       0
                                                       MORB  =       0
          EXTRAPOLATION IN EFFECT
          SOSCF IN EFFECT
 ORBITAL PRINTING OPTION: NPREO=     1   236     2     1

     -------------------------------
     INTEGRAL TRANSFORMATION OPTIONS
     -------------------------------
     NWORD  =            0
     CUTOFF = 1.0E-09     MPTRAN =       0
     DIRTRF =       T     AOINTS =DUP     

          ----------------------
          INTEGRAL INPUT OPTIONS
          ----------------------
 NOPK  =       1 NORDER=       0 SCHWRZ=       T


 -----------------------------------------------
  STATISTICS ON AUTOMATIC COORDINATE GENERATION 
 -----------------------------------------------
  NUMBER OF USER SPECIFIED BONDS                             0
  NUMBER OF BONDS                                           21
  NUMBER OF ANGLES                                          39
  NUMBER OF TORSIONS                                        48
  NUMBER OF EXTRA COORD.                                     0
  NUMBER OF EXTRA COORD. FOR CONSTRAINTS                     0
  NUMBER OF CONSTRAINED COORD.                               0

  TOTAL NUMBER OF PRIMITIVES                               108
 -----------------------------------------------

   --- ENCODED Z MATRIX ---
 COORD  TYPE   I   J   K   L   M   N
    1      1    1  10
    2      1    1   9
    3      1    1   3
    4      1    1   2
    5      1    2   4
    6      1    2  12
    7      1    2  11
    8      1    3  13
    9      1    3   6
   10      1    3   5
   11      1    4   8
   12      1    4   7
   13      1    5  16
   14      1    5  15
   15      1    5  14
   16      1    6  19
   17      1    6  18
   18      1    6  17
   19      1    7  22
   20      1    7  21
   21      1    7  20
   22      2    1   2  12
   23      2    1   2   4
   24      2    1   3  13
   25      2    1   3   5
   26      2    1   3   6
   27      2    1   2  11
   28      2    2   1   9
   29      2    2   1   3
   30      2    2   4   8
   31      2    2   1  10
   32      2    2   4   7
   33      2    3   6  17
   34      2    3   5  14
   35      2    3   5  16
   36      2    3   5  15
   37      2    3   6  18
   38      2    3   6  19
   39      2    3   1   9
   40      2    3   1  10
   41      2    4   7  20
   42      2    4   7  22
   43      2    4   2  11
   44      2    4   2  12
   45      2    4   7  21
   46      2    5   3   6
   47      2    5   3  13
   48      2    6   3  13
   49      2    7   4   8
   50      2    9   1  10
   51      2   11   2  12
   52      2   14   5  15
   53      2   14   5  16
   54      2   15   5  16
   55      2   17   6  18
   56      2   17   6  19
   57      2   18   6  19
   58      2   20   7  21
   59      2   20   7  22
   60      2   21   7  22
   61      3    1   3   5  16
   62      3    1   2   4   8
   63      3    1   3   6  17
   64      3    1   3   6  18
   65      3    1   3   6  19
   66      3    1   3   5  14
   67      3    1   3   5  15
   68      3    1   2   4   7
   69      3    2   1   3   5
   70      3    2   4   7  20
   71      3    2   4   7  21
   72      3    2   4   7  22
   73      3    2   1   3  13
   74      3    2   1   3   6
   75      3    3   1   2  12
   76      3    3   1   2  11
   77      3    3   1   2   4
   78      3    4   2   1   9
   79      3    4   2   1  10
   80      3    5   3   6  18
   81      3    5   3   1   9
   82      3    5   3   6  17
   83      3    5   3   1  10
   84      3    5   3   6  19
   85      3    6   3   5  15
   86      3    6   3   5  16
   87      3    6   3   5  14
   88      3    6   3   1   9
   89      3    6   3   1  10
   90      3    7   4   2  11
   91      3    7   4   2  12
   92      3    8   4   7  21
   93      3    8   4   2  11
   94      3    8   4   7  22
   95      3    8   4   2  12
   96      3    8   4   7  20
   97      3    9   1   2  11
   98      3    9   1   3  13
   99      3    9   1   2  12
  100      3   10   1   2  11
  101      3   10   1   3  13
  102      3   10   1   2  12
  103      3   13   3   6  18
  104      3   13   3   5  15
  105      3   13   3   5  16
  106      3   13   3   5  14
  107      3   13   3   6  17
  108      3   13   3   6  19

          INDEP./SYM. INTERNAL COORDINATES
          --------------------------------
 CRD  1=  -0.1602 (  4) -0.1110 (  5) -0.4119 ( 23)  0.1976 ( 27)  0.1751 ( 28)
          -0.5378 ( 29)  0.1214 ( 30)  0.1435 ( 31) -0.2468 ( 32)  0.1982 ( 39)
           0.1403 ( 40)  0.1662 ( 43)  0.1256 ( 49)  0.1189 ( 62)  0.1891 ( 68)
          -0.1356 ( 77) -0.1179 ( 78)  0.1010 ( 90)
 CRD  2=  -0.1353 (  5)  0.1734 ( 23)  0.1987 ( 25) -0.1617 ( 26) -0.1091 ( 27)
          -0.1542 ( 28)  0.2695 ( 30)  0.1056 ( 31) -0.4862 ( 32)  0.1178 ( 39)
          -0.1780 ( 40)  0.1040 ( 41) -0.1963 ( 44) -0.1093 ( 47)  0.2166 ( 49)
          -0.1546 ( 69) -0.1215 ( 73) -0.1208 ( 74) -0.1375 ( 75) -0.1191 ( 76)
          -0.2617 ( 77) -0.1591 ( 78) -0.1736 ( 79) -0.1015 ( 81)
 CRD  3=  -0.2130 ( 22)  0.5198 ( 23) -0.2457 ( 25)  0.2284 ( 26) -0.1144 ( 27)
          -0.3562 ( 29)  0.2202 ( 31)  0.1027 ( 39)  0.1139 ( 40) -0.1510 ( 43)
          -0.1477 ( 44)  0.1063 ( 66) -0.2018 ( 69) -0.1163 ( 73) -0.1929 ( 74)
           0.1110 ( 76)
 CRD  4=  -0.2923 (  3) -0.1723 (  4)  0.2102 ( 24) -0.2052 ( 25) -0.3297 ( 26)
           0.1602 ( 33)  0.1219 ( 34) -0.1449 ( 35) -0.1409 ( 37)  0.5086 ( 46)
          -0.1297 ( 47)  0.1184 ( 65) -0.1479 ( 67) -0.1963 ( 69) -0.1036 ( 80)
          -0.1658 ( 81) -0.1398 ( 83)  0.1182 ( 86)  0.1529 ( 87)  0.1126 ( 88)
           0.1386 ( 89)
 CRD  5=  -0.1230 (  3) -0.1500 (  4)  0.1745 (  5) -0.2410 (  9)  0.1108 ( 10)
           0.2008 ( 12)  0.1153 ( 23)  0.3742 ( 25) -0.2406 ( 26) -0.2941 ( 29)
          -0.1256 ( 30)  0.1240 ( 31)  0.3014 ( 32) -0.1165 ( 34)  0.1108 ( 35)
           0.1460 ( 39)  0.1214 ( 42)  0.1488 ( 48) -0.1758 ( 49) -0.1453 ( 63)
          -0.1655 ( 64) -0.1376 ( 65) -0.1011 ( 75)  0.1039 ( 82)  0.1116 ( 84)
           0.1112 ( 85)
 CRD  6=   0.1637 (  3)  0.2221 ( 10) -0.2470 ( 12) -0.2636 ( 22)  0.1782 ( 23)
           0.1090 ( 25) -0.1874 ( 26)  0.1435 ( 27) -0.1846 ( 32) -0.1181 ( 39)
          -0.2387 ( 42) -0.2025 ( 43) -0.1031 ( 61)  0.2635 ( 62) -0.1059 ( 66)
           0.2883 ( 68)  0.1031 ( 71)  0.1475 ( 75)  0.1578 ( 76)  0.1958 ( 77)
           0.1260 ( 90)  0.1343 ( 91)  0.1280 ( 92)  0.1013 ( 93)  0.1096 ( 95)
 CRD  7=  -0.2867 (  3) -0.2317 (  4) -0.2018 (  5) -0.3708 (  9) -0.3828 ( 10)
          -0.2325 ( 36) -0.2928 ( 38) -0.1632 ( 46)  0.1234 ( 52)  0.1109 ( 54)
           0.1322 ( 56)  0.1046 ( 57)  0.1468 ( 63) -0.1111 ( 66) -0.2183 ( 74)
          -0.1454 ( 88) -0.1411 ( 89)
 CRD  8=   0.2574 (  3) -0.1949 (  5)  0.2250 (  9) -0.2065 ( 23)  0.1256 ( 27)
          -0.2009 ( 28) -0.1979 ( 30)  0.2279 ( 32) -0.1137 ( 35)  0.1334 ( 36)
           0.1759 ( 37)  0.1184 ( 39) -0.1030 ( 40) -0.2000 ( 41)  0.1634 ( 44)
           0.2508 ( 45) -0.1337 ( 47)  0.1373 ( 68) -0.2497 ( 69) -0.1022 ( 70)
          -0.1343 ( 73) -0.2324 ( 74) -0.1226 ( 81)  0.1122 ( 82) -0.1495 ( 83)
          -0.1052 ( 88) -0.1321 ( 89)  0.1073 ( 90)
 CRD  9=  -0.3137 (  4) -0.3255 (  5) -0.1173 (  7)  0.1241 (  9)  0.3138 ( 10)
          -0.2332 ( 12) -0.1067 ( 33)  0.1692 ( 35)  0.1078 ( 36)  0.1603 ( 37)
           0.1380 ( 40) -0.1650 ( 41)  0.2897 ( 42) -0.3111 ( 45) -0.1269 ( 54)
           0.1746 ( 58) -0.1828 ( 68)  0.1254 ( 70)  0.1077 ( 78) -0.1033 ( 90)
          -0.1305 ( 91)
 CRD 10=  -0.2603 (  9) -0.2622 ( 10) -0.2413 ( 12) -0.2288 ( 33) -0.2492 ( 34)
          -0.2456 ( 35)  0.2753 ( 36) -0.3176 ( 37)  0.3319 ( 38) -0.1747 ( 41)
          -0.1193 ( 49)  0.1956 ( 53)  0.2101 ( 55)  0.1460 ( 80) -0.1071 ( 85)
          -0.1575 ( 86)
 CRD 11=  -0.1250 (  4) -0.1315 (  5) -0.1110 (  9)  0.4292 ( 12) -0.4146 ( 30)
          -0.1578 ( 33)  0.1253 ( 36)  0.1302 ( 38)  0.3835 ( 41)  0.4546 ( 49)
          -0.1615 ( 58) -0.1670 ( 59)
 CRD 12=  -0.4389 (  3)  0.1056 (  4)  0.2522 (  9) -0.1340 ( 15)  0.1202 ( 28)
          -0.4779 ( 34)  0.2761 ( 35)  0.1775 ( 36)  0.1727 ( 37)  0.1232 ( 38)
          -0.1434 ( 39) -0.2111 ( 42)  0.1356 ( 52) -0.1830 ( 54) -0.1494 ( 57)
           0.1033 ( 79)
 CRD 13=  -0.2115 (  4)  0.3460 (  5) -0.1066 (  9)  0.1653 ( 10) -0.1627 ( 27)
           0.2092 ( 30) -0.3234 ( 33) -0.1582 ( 35)  0.2635 ( 36)  0.3311 ( 37)
          -0.1012 ( 38)  0.1551 ( 41) -0.1526 ( 42)  0.1992 ( 43)  0.1030 ( 44)
          -0.1914 ( 49) -0.1346 ( 52)  0.1807 ( 56)  0.1221 ( 76)  0.1026 ( 90)
          -0.1046 ( 95)
 CRD 14=  -0.1665 (  3) -0.2248 (  5) -0.1329 (  9)  0.2217 ( 10) -0.1057 ( 18)
           0.1052 ( 20) -0.3934 ( 33)  0.2547 ( 34) -0.1382 ( 36)  0.1816 ( 38)
          -0.1370 ( 40) -0.2552 ( 41) -0.1352 ( 42) -0.1230 ( 44)  0.4030 ( 45)
          -0.1386 ( 53)  0.1221 ( 55)  0.1095 ( 56) -0.1061 ( 57)  0.1423 ( 59)
          -0.1014 ( 60)
 CRD 15=   0.4259 (  4) -0.1465 (  5) -0.1777 (  9)  0.1310 ( 10) -0.1059 ( 13)
           0.1040 ( 14)  0.1208 ( 22)  0.1503 ( 27)  0.1691 ( 28) -0.3325 ( 35)
           0.3505 ( 36)  0.1522 ( 37) -0.3053 ( 38) -0.1287 ( 43)  0.1026 ( 49)
          -0.2010 ( 52)  0.1425 ( 56) -0.1316 ( 90) -0.1136 ( 93)
 CRD 16=  -0.1983 (  4) -0.1105 (  7)  0.1100 ( 18)  0.1196 ( 20)  0.1115 ( 22)
          -0.2457 ( 27) -0.1547 ( 31)  0.3115 ( 33) -0.1709 ( 34)  0.2205 ( 36)
          -0.1534 ( 37) -0.2128 ( 38)  0.1790 ( 40) -0.1653 ( 41) -0.1933 ( 42)
           0.1107 ( 43) -0.1570 ( 44)  0.3798 ( 45) -0.1049 ( 54)  0.1705 ( 57)
           0.1495 ( 59) -0.1506 ( 62) -0.1174 ( 68)
 CRD 17=   0.1473 (  7)  0.1465 ( 11)  0.2174 ( 12)  0.1310 ( 19) -0.1011 ( 21)
           0.1497 ( 24)  0.1315 ( 30) -0.1055 ( 32) -0.2206 ( 34)  0.1550 ( 35)
           0.1575 ( 37) -0.1338 ( 38) -0.1442 ( 39) -0.2674 ( 41)  0.4354 ( 42)
          -0.1253 ( 44)  0.1012 ( 56) -0.1026 ( 59) -0.2125 ( 60) -0.1020 ( 61)
           0.1452 ( 62)  0.1114 ( 63)  0.1153 ( 64)  0.1113 ( 68)  0.1071 ( 70)
           0.1086 ( 72) -0.1405 ( 78) -0.1087 ( 79)  0.1117 ( 95)
 CRD 18=  -0.2062 (  1) -0.1282 (  2) -0.2524 (  3) -0.2680 (  4)  0.1942 (  9)
          -0.1822 ( 24)  0.1489 ( 29) -0.1537 ( 31)  0.1253 ( 34) -0.3431 ( 35)
           0.1210 ( 36)  0.1247 ( 42)  0.1273 ( 48)  0.1179 ( 50) -0.1091 ( 52)
           0.1163 ( 53)  0.1385 ( 61)  0.1310 ( 62) -0.1067 ( 64)  0.1401 ( 66)
           0.1085 ( 67)  0.1126 ( 68)  0.1224 ( 70)  0.1360 ( 71)  0.1476 ( 72)
           0.1286 ( 73)  0.1002 ( 87)  0.1038 ( 90)  0.1174 ( 92)  0.1223 ( 93)
           0.1290 ( 94)  0.1038 ( 96)
 CRD 19=  -0.1509 (  1) -0.1025 (  3) -0.1210 (  9) -0.1122 ( 15) -0.1418 ( 16)
          -0.1057 ( 22) -0.1300 ( 25)  0.1323 ( 26) -0.2307 ( 28)  0.1366 ( 29)
           0.1537 ( 31)  0.1185 ( 33) -0.1480 ( 34)  0.1255 ( 35)  0.1291 ( 36)
          -0.2439 ( 38)  0.1832 ( 39) -0.3179 ( 40) -0.1134 ( 45)  0.1841 ( 47)
          -0.1828 ( 48) -0.1422 ( 54)  0.1315 ( 57) -0.1110 ( 73) -0.1794 ( 75)
          -0.1623 ( 76) -0.1251 ( 77) -0.1173 ( 80) -0.1388 ( 82) -0.1188 ( 84)
          -0.1076 ( 87)  0.1321 ( 88)  0.1197 ( 89)
 CRD 20=   0.1760 (  1) -0.2591 (  2) -0.1438 (  3)  0.1967 ( 10)  0.1860 ( 11)
          -0.1353 ( 17) -0.1043 ( 23) -0.1029 ( 24) -0.1017 ( 32)  0.1082 ( 33)
           0.1472 ( 36) -0.3138 ( 37)  0.1437 ( 38) -0.1249 ( 39)  0.1993 ( 42)
           0.1256 ( 44) -0.1236 ( 46)  0.1342 ( 47) -0.1161 ( 54)  0.1167 ( 55)
          -0.1370 ( 56) -0.1076 ( 69) -0.1067 ( 71) -0.1063 ( 72) -0.2010 ( 73)
          -0.2149 ( 74)  0.1541 ( 76)  0.1024 ( 77) -0.1110 ( 80) -0.1010 ( 82)
          -0.1042 ( 84) -0.1239 ( 88) -0.1099 ( 98)
 CRD 21=   0.1346 (  1)  0.1214 (  7) -0.3561 ( 11)  0.3419 ( 22) -0.1566 ( 27)
           0.1567 ( 32) -0.1034 ( 37)  0.1486 ( 41) -0.1042 ( 42)  0.2317 ( 43)
          -0.2611 ( 44) -0.1536 ( 45) -0.1276 ( 49)  0.1411 ( 60)  0.1346 ( 70)
           0.1581 ( 71)  0.1741 ( 72) -0.1140 ( 78) -0.1168 ( 79)  0.1117 ( 90)
           0.2197 ( 91)  0.1454 ( 92)  0.1245 ( 93)  0.1615 ( 94)  0.2326 ( 95)
           0.1219 ( 96)
 CRD 22=  -0.1355 (  1) -0.1240 (  5) -0.4042 (  6)  0.1663 (  7) -0.2977 ( 11)
          -0.1927 ( 22)  0.1672 ( 27)  0.2129 ( 28) -0.2047 ( 31)  0.1001 ( 32)
          -0.2224 ( 39)  0.1289 ( 40) -0.1067 ( 77) -0.2073 ( 78) -0.1594 ( 79)
          -0.1019 ( 81) -0.1169 ( 88) -0.1032 ( 89) -0.1150 ( 90) -0.1379 ( 91)
          -0.1118 ( 93) -0.1347 ( 95) -0.1478 ( 97) -0.1240 ( 98) -0.1102 (101)
 CRD 23=  -0.1003 (  2)  0.1793 (  6) -0.6410 (  8)  0.1220 ( 11)  0.1305 ( 13)
           0.1356 ( 18) -0.1366 ( 31) -0.1309 ( 36) -0.1373 ( 38) -0.1632 ( 63)
          -0.1356 ( 64) -0.1556 ( 65) -0.1122 ( 69) -0.1823 ( 81) -0.1988 ( 83)
          -0.1295 ( 85) -0.1400 ( 86) -0.1030 ( 87) -0.1000 ( 98) -0.1165 (101)
 CRD 24=  -0.2330 (  2) -0.2352 (  6)  0.1232 (  7) -0.3320 (  8) -0.1433 ( 11)
          -0.1027 ( 13) -0.2077 ( 14)  0.2016 ( 16)  0.2243 ( 17)  0.1734 ( 18)
          -0.1056 ( 37) -0.1179 ( 38) -0.1088 ( 53)  0.1080 ( 56)  0.1169 ( 57)
           0.1610 ( 61)  0.1805 ( 66)  0.1737 ( 67) -0.1376 ( 70) -0.1263 ( 71)
          -0.1214 ( 72)  0.1343 ( 80)  0.1336 ( 82)  0.1381 ( 84) -0.1008 ( 96)
           0.1084 (103)  0.1090 (104)  0.1158 (106)  0.1077 (107)  0.1122 (108)
 CRD 25=  -0.1023 (  2) -0.1337 (  6) -0.1792 (  8)  0.2040 ( 13)  0.2277 ( 14)
           0.2400 ( 15) -0.2390 ( 16) -0.1538 ( 17) -0.1745 ( 18)  0.3346 ( 19)
           0.2541 ( 20)  0.3028 ( 21) -0.1033 ( 27) -0.1012 ( 35) -0.1342 ( 41)
          -0.1815 ( 45)  0.1100 ( 54) -0.1063 ( 55)  0.1929 ( 58)  0.1085 ( 60)
          -0.1435 ( 70) -0.1184 ( 71) -0.1242 ( 72)  0.1139 ( 90) -0.1007 ( 96)
 CRD 26=   0.1052 (  2)  0.1471 (  8)  0.1217 ( 11)  0.1096 ( 12) -0.1810 ( 13)
          -0.1975 ( 14) -0.2100 ( 15)  0.1908 ( 16)  0.1251 ( 17)  0.1433 ( 18)
           0.3650 ( 19)  0.4042 ( 20)  0.3759 ( 21) -0.1843 ( 41) -0.1653 ( 42)
          -0.1039 ( 45)  0.1524 ( 58)  0.1986 ( 59)  0.1277 ( 60)
 CRD 27=  -0.2156 (  8) -0.1117 (  9) -0.1152 ( 10) -0.3435 ( 13) -0.3793 ( 14)
          -0.3041 ( 15) -0.3731 ( 16) -0.3302 ( 17) -0.2972 ( 18)  0.1561 ( 33)
           0.1620 ( 34)  0.1150 ( 35)  0.1077 ( 36)  0.1187 ( 37)  0.1009 ( 38)
          -0.1480 ( 52) -0.1535 ( 53) -0.1068 ( 54) -0.1543 ( 55) -0.1376 ( 56)
          -0.1095 ( 57)
 CRD 28=  -0.2493 (  2)  0.3099 (  7) -0.1117 (  9)  0.1051 ( 10)  0.1175 ( 13)
           0.1711 ( 15) -0.1262 ( 17) -0.1724 ( 18)  0.1164 ( 20)  0.1942 ( 27)
          -0.1153 ( 42)  0.1010 ( 45) -0.1157 ( 58)  0.1128 ( 59)  0.1146 ( 61)
           0.1089 ( 63)  0.1000 ( 64)  0.1183 ( 66)  0.1092 ( 67) -0.1112 ( 68)
           0.2496 ( 70)  0.1741 ( 71)  0.1864 ( 72) -0.2562 ( 90) -0.1896 ( 91)
          -0.1772 ( 93)  0.1073 ( 94) -0.1107 ( 95)  0.1704 ( 96)  0.1001 (103)
           0.1027 (104)  0.1081 (105)  0.1118 (106)  0.1091 (107)  0.1000 (108)
 CRD 29=  -0.1428 ( 19) -0.4579 ( 20)  0.5438 ( 21)  0.2994 ( 59) -0.3901 ( 60)
           0.1838 ( 71) -0.2549 ( 72)  0.1776 ( 92) -0.2612 ( 94)
 CRD 30=  -0.5986 ( 19)  0.4016 ( 20)  0.1703 ( 21)  0.3839 ( 58) -0.2614 ( 59)
          -0.1228 ( 60) -0.2388 ( 70)  0.2025 ( 71)  0.2138 ( 92) -0.2275 ( 96)
 CRD 31=   0.3274 (  1) -0.1229 (  2)  0.2782 (  7)  0.1697 (  9) -0.1088 ( 13)
          -0.1749 ( 15) -0.1148 ( 16)  0.2143 ( 17)  0.2774 ( 18)  0.1522 ( 31)
           0.1212 ( 54) -0.1899 ( 61) -0.1495 ( 66) -0.1018 ( 67)  0.1143 ( 75)
           0.1463 ( 81)  0.1750 ( 83) -0.1629 ( 86) -0.1225 ( 87)  0.1152 ( 88)
           0.1439 ( 89) -0.1134 ( 90) -0.1421 ( 91) -0.1064 ( 95)  0.1555 ( 98)
           0.1842 (101)  0.1023 (102) -0.1816 (105) -0.1412 (106)
 CRD 32=   0.1933 (  1) -0.1636 (  2)  0.1491 (  3) -0.1026 ( 10) -0.2602 ( 13)
           0.2746 ( 14) -0.2378 ( 15)  0.1914 ( 16) -0.2954 ( 17) -0.1033 ( 33)
           0.1060 ( 37)  0.1075 ( 46)  0.1728 ( 52) -0.1184 ( 53)  0.2202 ( 56)
          -0.1181 ( 57) -0.2284 ( 63) -0.1303 ( 64)  0.1798 ( 66) -0.1396 ( 80)
          -0.2376 ( 82)  0.2120 ( 87) -0.1459 (103)  0.1936 (106) -0.2439 (107)
 CRD 33=   0.4190 ( 13) -0.3095 ( 14) -0.4525 ( 17)  0.3664 ( 18) -0.2150 ( 52)
           0.1678 ( 53)  0.2300 ( 56) -0.1858 ( 57)  0.1582 ( 65) -0.1392 ( 66)
           0.1548 ( 84) -0.1302 ( 87) -0.1307 (106)  0.1712 (108)
 CRD 34=  -0.3862 ( 13) -0.1451 ( 14)  0.5201 ( 15) -0.2234 ( 16)  0.3488 ( 18)
           0.1878 ( 52) -0.2739 ( 54)  0.1199 ( 55) -0.1755 ( 57)  0.1170 ( 61)
          -0.1122 ( 64) -0.1829 ( 67) -0.1298 ( 80) -0.1647 ( 85)  0.1352 ( 86)
          -0.1023 (103) -0.1965 (104)  0.1034 (105)
 CRD 35=   0.1848 (  1)  0.1566 (  7) -0.3118 ( 14)  0.2712 ( 15)  0.4384 ( 16)
          -0.3377 ( 18)  0.1898 ( 53) -0.1580 ( 54) -0.2546 ( 55)  0.1857 ( 57)
          -0.1544 ( 63)  0.1077 ( 64) -0.1077 ( 65) -0.1160 ( 66) -0.1092 ( 67)
           0.1147 ( 80) -0.1475 ( 82) -0.1007 ( 84) -0.1085 ( 85) -0.1153 ( 87)
           0.1082 (103) -0.1047 (104) -0.1115 (106) -0.1539 (107) -0.1071 (108)
 CRD 36=   0.1853 (  1) -0.5529 (  6) -0.5535 (  7)  0.1335 ( 27) -0.2833 ( 51)
           0.1229 ( 76) -0.1866 ( 90) -0.1612 ( 93)  0.1111 ( 95) -0.1307 ( 99)
           0.1128 (100) -0.1016 (102)
 CRD 37=   0.2328 (  1)  0.1373 (  3)  0.2086 ( 13) -0.2905 ( 14) -0.2913 ( 16)
           0.3170 ( 17) -0.1286 ( 18)  0.1930 ( 53)  0.1908 ( 55) -0.1117 ( 56)
           0.1695 ( 61) -0.1916 ( 64) -0.1653 ( 65) -0.2295 ( 80) -0.2032 ( 84)
           0.1484 ( 85)  0.2185 ( 86) -0.2223 (103)  0.1236 (104)  0.1937 (105)
          -0.1960 (108)
 CRD 38=  -0.5154 (  1) -0.6153 (  2)  0.1080 ( 31) -0.2577 ( 50)  0.1326 ( 78)
           0.1406 ( 83)  0.1333 ( 89)  0.1413 ( 97)  0.1310 ( 99)  0.1417 (101)
 CRD 39=  -0.2873 (  1)  0.3191 (  2) -0.3244 (  6)  0.3111 (  7)  0.1232 ( 11)
           0.1104 ( 39)  0.1243 ( 43)  0.1377 ( 75)  0.1805 ( 76)  0.1668 ( 78)
           0.1544 ( 79) -0.1085 ( 83) -0.1050 ( 89) -0.1157 ( 90)  0.2873 ( 97)
           0.2446 ( 99)  0.2750 (100)  0.2322 (102)
 CRD 40=  -0.3344 (  5)  0.1241 (  6) -0.1156 (  7)  0.1787 ( 12)  0.1017 ( 19)
           0.1614 ( 20)  0.3362 ( 21)  0.1320 ( 27)  0.3739 ( 30)  0.2356 ( 41)
           0.1126 ( 42) -0.1455 ( 43)  0.1298 ( 45) -0.3739 ( 49) -0.2294 ( 58)
          -0.1911 ( 59)  0.1510 ( 75)  0.1028 ( 78)  0.1075 ( 79)  0.1757 ( 99)
           0.1805 (102)
 CRD 41=  -0.1234 (  1)  0.1371 (  2)  0.1012 (  5)  0.1700 (  6) -0.1640 (  7)
          -0.1649 (  8) -0.6396 ( 11)  0.1724 ( 19)  0.1789 ( 20) -0.1491 ( 22)
          -0.1423 ( 32)  0.1419 ( 42)  0.1086 ( 43)  0.1542 ( 44)  0.1221 ( 45)
           0.1254 ( 49) -0.1940 ( 60)  0.1414 ( 76)  0.1023 ( 83) -0.1117 ( 91)
          -0.1230 ( 95)  0.1374 (100)
 CRD 42=   0.1602 (  5)  0.1752 (  8)  0.2111 (  9) -0.2285 ( 11)  0.1464 ( 13)
          -0.2474 ( 16) -0.2085 ( 17) -0.1999 ( 18) -0.1009 ( 28) -0.1050 ( 31)
          -0.2028 ( 33) -0.2025 ( 37) -0.2221 ( 38) -0.1060 ( 47)  0.1428 ( 48)
          -0.1226 ( 53)  0.2034 ( 55)  0.2303 ( 56)  0.2363 ( 57)  0.1597 ( 73)
          -0.1116 ( 83)  0.2176 ( 98) -0.1946 (104) -0.1925 (105) -0.1196 (106)
 CRD 43=  -0.1784 (  8) -0.3181 ( 10)  0.1241 ( 11)  0.2126 ( 13)  0.3050 ( 14)
           0.2368 ( 15)  0.1040 ( 24)  0.2423 ( 34)  0.2358 ( 35)  0.2578 ( 36)
          -0.1045 ( 47) -0.2882 ( 52) -0.2222 ( 53) -0.2704 ( 54)  0.1002 ( 73)
           0.1283 ( 98)  0.1562 (101) -0.1550 (103) -0.1676 (108)
 CRD 44=  -0.1403 (  3)  0.2751 (  5)  0.1051 (  7) -0.2944 (  9) -0.1774 ( 11)
           0.1243 ( 16)  0.1520 ( 17)  0.1448 ( 18)  0.1557 ( 20) -0.1052 ( 21)
           0.1509 ( 22)  0.1738 ( 27) -0.1272 ( 28) -0.1371 ( 31)  0.1435 ( 33)
           0.1455 ( 37)  0.1336 ( 38)  0.1206 ( 39) -0.1386 ( 43) -0.1335 ( 51)
          -0.1626 ( 55) -0.1420 ( 56) -0.1467 ( 57)  0.1262 ( 62) -0.1183 ( 72)
          -0.1125 ( 83) -0.1081 ( 89) -0.1273 ( 90)  0.1672 ( 91) -0.1400 ( 92)
          -0.2291 ( 94)  0.2772 ( 95) -0.1098 ( 96) -0.1206 (101)
 CRD 45=   0.1451 (  2)  0.1480 (  4) -0.1359 (  6)  0.1725 (  7) -0.2774 (  8)
          -0.2134 ( 12)  0.1435 ( 14) -0.1608 ( 15)  0.1626 ( 16) -0.1272 ( 18)
           0.1748 ( 19) -0.1179 ( 28)  0.1592 ( 39)  0.1711 ( 40)  0.1059 ( 48)
          -0.1290 ( 50)  0.1259 ( 53) -0.1062 ( 54) -0.1226 ( 57) -0.1635 ( 59)
          -0.1180 ( 66) -0.1094 ( 67)  0.1108 ( 78) -0.1474 ( 79) -0.1280 ( 80)
           0.1320 ( 86) -0.2110 (100) -0.2549 (102) -0.1789 (104) -0.1875 (106)
           0.1630 (107)  0.1588 (108)
 CRD 46=  -0.1196 (  1)  0.1453 (  3) -0.1482 (  4)  0.1953 (  6) -0.2798 (  8)
           0.1508 (  9)  0.1706 ( 10)  0.3436 ( 12) -0.1021 ( 13) -0.1688 ( 15)
          -0.1041 ( 17) -0.1469 ( 18) -0.2474 ( 19) -0.1283 ( 21)  0.1261 ( 27)
          -0.1360 ( 41) -0.1141 ( 42) -0.1396 ( 45)  0.1802 ( 53)  0.1655 ( 55)
           0.2240 ( 59)  0.1366 ( 60)  0.1354 ( 62) -0.1073 ( 66) -0.1054 ( 80)
           0.1128 ( 86) -0.1066 ( 90) -0.1617 ( 92) -0.1489 ( 94)  0.1391 ( 95)
          -0.1052 (106)
 CRD 47=  -0.1664 (  4)  0.1766 (  9)  0.1994 ( 11) -0.4705 ( 12)  0.3188 ( 20)
           0.1355 ( 21) -0.1381 ( 30)  0.1448 ( 41)  0.1616 ( 42) -0.2820 ( 58)
          -0.1324 ( 60)  0.1227 ( 62)  0.1480 ( 70) -0.1175 ( 78) -0.1875 ( 92)
           0.1264 ( 93) -0.1951 ( 94)  0.1939 ( 95) -0.1343 ( 99)  0.1020 (104)
 CRD 48=  -0.2011 (  1)  0.1229 (  2) -0.2359 (  3)  0.3224 ( 10) -0.1537 ( 13)
          -0.1714 ( 17)  0.1884 ( 18) -0.1400 ( 20)  0.1329 ( 24) -0.1341 ( 28)
          -0.1514 ( 47) -0.1258 ( 51)  0.1657 ( 54) -0.1342 ( 56)  0.1335 ( 57)
          -0.1027 ( 59) -0.1352 ( 65) -0.1195 ( 70)  0.1415 ( 81) -0.1274 ( 84)
           0.1314 ( 88) -0.1174 ( 93)  0.2346 ( 98) -0.1280 ( 99) -0.1387 (102)
          -0.1215 (103)  0.1496 (104) -0.1366 (107) -0.3058 (108)
 CRD 49=   0.1232 (  1) -0.2735 (  4)  0.2932 (  5) -0.1038 (  8)  0.1957 (  9)
          -0.1180 ( 13) -0.1327 ( 17)  0.2922 ( 19) -0.1547 ( 21)  0.1371 ( 22)
           0.1031 ( 24)  0.1140 ( 27) -0.1794 ( 43) -0.1661 ( 44)  0.1005 ( 55)
           0.1814 ( 58) -0.1307 ( 60)  0.1155 ( 63) -0.1009 ( 66) -0.1903 ( 70)
           0.1251 ( 71) -0.1618 ( 76)  0.1835 ( 92) -0.1365 ( 93) -0.1319 ( 96)
          -0.1015 ( 97) -0.1390 ( 98)  0.1273 ( 99)  0.1634 (102)  0.1332 (104)
           0.1044 (105)
 CRD 50=   0.1062 (  2) -0.2272 (  3) -0.1463 (  5)  0.1532 (  7)  0.2632 (  9)
          -0.1749 ( 10)  0.1765 ( 12) -0.2141 ( 13)  0.1084 ( 14)  0.1888 ( 15)
          -0.1746 ( 16)  0.1207 ( 30)  0.1483 ( 40)  0.1287 ( 44) -0.1098 ( 48)
          -0.1360 ( 50) -0.2138 ( 52)  0.1527 ( 56) -0.1312 ( 63) -0.1261 ( 66)
           0.1418 ( 67) -0.1348 ( 73)  0.1019 ( 77)  0.1698 ( 78) -0.1060 ( 82)
           0.1610 ( 85) -0.1069 ( 87)  0.1282 ( 97) -0.1554 ( 98) -0.1153 (101)
          -0.1933 (102)  0.2521 (104)
 CRD 51=   0.1018 (  3) -0.1278 (  4)  0.1914 (  6) -0.1319 ( 10) -0.1100 ( 12)
           0.1595 ( 17) -0.1142 ( 18) -0.2778 ( 20)  0.3149 ( 21) -0.1478 ( 41)
           0.1640 ( 45)  0.1679 ( 49) -0.1329 ( 51)  0.1385 ( 56) -0.2205 ( 59)
           0.1921 ( 60) -0.1124 ( 63) -0.1502 ( 70) -0.1627 ( 71)  0.1990 ( 72)
           0.1200 ( 76) -0.1016 ( 78)  0.1086 ( 84) -0.1843 ( 90) -0.1570 ( 92)
          -0.1906 ( 93)  0.2047 ( 94) -0.1445 ( 96)  0.1294 (100)  0.1504 (108)
 CRD 52=   0.1848 (  1) -0.1207 (  3)  0.2058 (  5) -0.1490 (  6) -0.1755 ( 11)
          -0.1864 ( 17) -0.2450 ( 19)  0.2707 ( 21) -0.1913 ( 32)  0.1181 ( 39)
          -0.1904 ( 41)  0.1333 ( 42)  0.1661 ( 49)  0.1318 ( 51) -0.1290 ( 56)
          -0.1555 ( 58)  0.2049 ( 60)  0.1524 ( 63)  0.1002 ( 70) -0.2015 ( 71)
           0.1568 ( 72) -0.1451 ( 76)  0.1642 ( 78)  0.1110 ( 82) -0.1086 ( 84)
           0.1149 ( 90) -0.2013 ( 92)  0.1143 ( 93)  0.1571 ( 94)  0.1004 ( 96)
           0.1635 ( 99) -0.1052 (100)  0.1041 (107) -0.1154 (108)
 CRD 53=   0.1787 (  4) -0.1286 (  7) -0.1815 ( 13)  0.2610 ( 15)  0.2115 ( 16)
          -0.2410 ( 18)  0.1211 ( 33) -0.1346 ( 34)  0.1119 ( 50) -0.1250 ( 52)
           0.2063 ( 54)  0.1494 ( 55) -0.1891 ( 57) -0.1893 ( 61) -0.1824 ( 64)
           0.1305 ( 65)  0.1482 ( 67) -0.2398 ( 80)  0.1273 ( 85) -0.2101 ( 86)
          -0.1011 ( 87) -0.1012 ( 95)  0.1002 (102) -0.2240 (103)  0.1443 (104)
          -0.1931 (105)
 CRD 54=   0.1365 (  2) -0.2611 (  4)  0.1821 (  7)  0.1435 ( 13) -0.2679 ( 14)
           0.1191 ( 15)  0.1288 ( 16) -0.1264 ( 18)  0.1055 ( 26)  0.1034 ( 28)
           0.1118 ( 31)  0.1229 ( 36) -0.1622 ( 50) -0.1082 ( 51)  0.1108 ( 52)
          -0.1970 ( 53) -0.1209 ( 61) -0.1372 ( 64)  0.2125 ( 66) -0.1649 ( 80)
           0.2078 ( 83) -0.1826 ( 86)  0.1508 ( 87)  0.1748 ( 89)  0.1432 ( 95)
          -0.1187 ( 96)  0.1707 (101) -0.1417 (102) -0.1290 (103) -0.1540 (105)
           0.1794 (106)
 CRD 55=   0.1259 (  2)  0.2183 (  5) -0.1739 (  6)  0.1791 ( 10) -0.1521 ( 16)
           0.2250 ( 17)  0.1165 ( 22) -0.1008 ( 23)  0.1399 ( 31) -0.1525 ( 37)
           0.1030 ( 38) -0.1428 ( 43) -0.1297 ( 46)  0.1105 ( 48)  0.1467 ( 51)
          -0.1200 ( 55)  0.1593 ( 56) -0.1383 ( 63)  0.1763 ( 65) -0.1132 ( 69)
          -0.2307 ( 74)  0.1336 ( 75) -0.1298 ( 76) -0.1828 ( 82)  0.1318 ( 84)
          -0.1037 ( 88)  0.1165 ( 90)  0.1230 ( 96) -0.2319 ( 97) -0.2330 (100)
           0.1504 (101) -0.2915 (107)
 CRD 56=  -0.1492 (  2)  0.1498 (  3) -0.1473 (  6)  0.2232 (  7) -0.1337 (  9)
          -0.1064 ( 13)  0.1348 ( 14)  0.1014 ( 22) -0.1766 ( 27)  0.1323 ( 28)
          -0.1051 ( 29)  0.1269 ( 30) -0.1138 ( 32) -0.1080 ( 36) -0.1300 ( 40)
           0.1583 ( 44) -0.1266 ( 47)  0.1355 ( 50)  0.1113 ( 53)  0.1218 ( 61)
          -0.1435 ( 62) -0.1986 ( 68)  0.1295 ( 73) -0.1897 ( 75)  0.1127 ( 77)
           0.3196 ( 79) -0.1473 ( 83)  0.1024 ( 84) -0.1764 ( 87)  0.1045 ( 93)
           0.1276 ( 95) -0.1414 ( 97) -0.2498 ( 99)  0.1256 (100) -0.1706 (106)
 CRD 57=   0.1971 (  3) -0.1213 (  4) -0.2278 (  9) -0.1599 ( 13)  0.1435 ( 15)
           0.1341 ( 18) -0.1687 ( 24) -0.1654 ( 25)  0.1123 ( 29) -0.1413 ( 34)
           0.1507 ( 35)  0.1490 ( 46)  0.1833 ( 48) -0.1154 ( 52)  0.1094 ( 54)
           0.1090 ( 64)  0.2668 ( 67) -0.1027 ( 69) -0.1827 ( 81) -0.1394 ( 82)
          -0.1817 ( 84)  0.2773 ( 85) -0.1064 ( 88)  0.1974 (101)  0.2030 (103)
          -0.2642 (105) -0.2886 (106)
 CRD 58=  -0.1685 (  1)  0.2130 (  3) -0.1654 ( 10)  0.1306 ( 22) -0.1467 ( 26)
          -0.1341 ( 29) -0.1001 ( 33) -0.1100 ( 43)  0.1497 ( 47)  0.1213 ( 50)
          -0.1142 ( 61) -0.2417 ( 62) -0.1567 ( 65) -0.1578 ( 71) -0.1509 ( 72)
          -0.1702 ( 73)  0.1539 ( 77)  0.1232 ( 79)  0.1614 ( 81) -0.1695 ( 84)
           0.1182 ( 87)  0.1616 ( 88)  0.1113 ( 90)  0.2082 ( 91)  0.1071 ( 92)
          -0.1522 ( 93)  0.1141 ( 94)  0.2402 ( 96) -0.1889 ( 97) -0.1597 ( 99)
          -0.1243 (101)  0.1838 (103)  0.1616 (107)
 CRD 59=   0.1080 (  1) -0.1845 (  4)  0.1375 (  6)  0.1038 ( 20)  0.1565 ( 23)
           0.1088 ( 26)  0.1015 ( 29)  0.1007 ( 42) -0.1129 ( 45) -0.1013 ( 47)
          -0.1277 ( 51)  0.1295 ( 61) -0.1457 ( 62)  0.2292 ( 68) -0.2225 ( 71)
          -0.2374 ( 72)  0.1211 ( 73) -0.1629 ( 81) -0.1204 ( 87)  0.2558 ( 91)
           0.1543 ( 92) -0.3322 ( 93)  0.1394 ( 94) -0.1191 ( 95)  0.3107 ( 96)
           0.1627 ( 97)  0.1143 (101)
 CRD 60=  -0.1077 (  1)  0.1797 (  2)  0.2076 (  8) -0.1204 ( 10)  0.1024 ( 16)
          -0.1118 ( 23) -0.1320 ( 24)  0.1302 ( 25)  0.1083 ( 31) -0.1158 ( 38)
          -0.1445 ( 39)  0.1083 ( 40)  0.1044 ( 46) -0.1159 ( 48)  0.1976 ( 61)
          -0.2428 ( 64) -0.1875 ( 65)  0.1129 ( 67) -0.2527 ( 69) -0.1795 ( 73)
           0.2328 ( 75)  0.1601 ( 77) -0.1002 ( 79)  0.2049 ( 82) -0.1208 ( 85)
          -0.1786 ( 87)  0.1841 ( 88)  0.2676 ( 89) -0.1131 ( 97) -0.1662 (100)
           0.1267 (107)

 THE DETERMINANT OF THE G MATRIX IS 10**(   -24)


                     --------------------
                     INTERNAL COORDINATES
                     --------------------

                 - - ATOMS - -         COORDINATE      COORDINATE
 NO.   TYPE    I  J  K  L  M  N        (BOHR,RAD)       (ANG,DEG)
 ----------------------------------------------------------------
   1 STRETCH   1 10                     2.0941745       1.1081895
   2 STRETCH   1  9                     2.0948323       1.1085376
   3 STRETCH   1  3                     2.8928373       1.5308237
   4 STRETCH   1  2                     2.8787911       1.5233907
   5 STRETCH   2  4                     2.8668828       1.5170891
   6 STRETCH   2 12                     2.1053661       1.1141118
   7 STRETCH   2 11                     2.0925582       1.1073342
   8 STRETCH   3 13                     2.1246218       1.1243015
   9 STRETCH   3  6                     2.8694639       1.5184550
  10 STRETCH   3  5                     2.8721624       1.5198830
  11 STRETCH   4  8                     2.2985724       1.2163522
  12 STRETCH   4  7                     2.8420334       1.5039394
  13 STRETCH   5 16                     2.0848619       1.1032615
  14 STRETCH   5 15                     2.0750106       1.0980484
  15 STRETCH   5 14                     2.0724434       1.0966899
  16 STRETCH   6 19                     2.0756096       1.0983654
  17 STRETCH   6 18                     2.0747537       1.0979125
  18 STRETCH   6 17                     2.0744117       1.0977315
  19 STRETCH   7 22                     2.0859211       1.1038220
  20 STRETCH   7 21                     2.0740760       1.0975538
  21 STRETCH   7 20                     2.0731837       1.0970817
  22 BEND      1  2 12                  1.9082810     109.3364453
  23 BEND      1  2  4                  1.9473924     111.5773641
  24 BEND      1  3 13                  1.8848577     107.9943921
  25 BEND      1  3  5                  1.9305264     110.6110170
  26 BEND      1  3  6                  1.9271306     110.4164496
  27 BEND      1  2 11                  1.9140504     109.6670109
  28 BEND      2  1  9                  1.9071281     109.2703908
  29 BEND      2  1  3                  1.9607806     112.3444515
  30 BEND      2  4  8                  2.1246310     121.7323866
  31 BEND      2  1 10                  1.9240624     110.2406533
  32 BEND      2  4  7                  2.0257723     116.0682054
  33 BEND      3  6 17                  1.9397531     111.1396652
  34 BEND      3  5 14                  1.9478284     111.6023447
  35 BEND      3  5 16                  1.9235291     110.2101008
  36 BEND      3  5 15                  1.9507258     111.7683537
  37 BEND      3  6 18                  1.9441388     111.3909472
  38 BEND      3  6 19                  1.9481579     111.6212238
  39 BEND      3  1  9                  1.9058930     109.1996238
  40 BEND      3  1 10                  1.9191075     109.9567629
  41 BEND      4  7 20                  1.9733034     113.0619576
  42 BEND      4  7 22                  1.9127784     109.5941268
  43 BEND      4  2 11                  1.9194223     109.9747998
  44 BEND      4  2 12                  1.9204351     110.0328242
  45 BEND      4  7 21                  1.9271720     110.4188229
  46 BEND      5  3  6                  1.9305432     110.6119764
  47 BEND      5  3 13                  1.8910687     108.3502550
  48 BEND      6  3 13                  1.8984699     108.7743133
  49 BEND      7  4  8                  2.1327747     122.1989886
  50 BEND      9  1 10                  1.8430420     105.5985270
  51 BEND     11  2 12                  1.8518194     106.1014352
  52 BEND     14  5 15                  1.8775487     107.5756191
  53 BEND     14  5 16                  1.8856605     108.0403859
  54 BEND     15  5 16                  1.8756506     107.4668614
  55 BEND     17  6 18                  1.8777268     107.5858207
  56 BEND     17  6 19                  1.8761559     107.4958162
  57 BEND     18  6 19                  1.8744198     107.3963463
  58 BEND     20  7 21                  1.8823824     107.8525657
  59 BEND     20  7 22                  1.8873017     108.1344242
  60 BEND     21  7 22                  1.8780127     107.6022040
  61 TORSION   1  3  5 16              -0.9131170     -52.3177520
  62 TORSION   1  2  4  8               1.5975408      91.5323447
  63 TORSION   1  3  6 17              -3.1368143    -179.7262224
  64 TORSION   1  3  6 18               1.0527145      60.3160961
  65 TORSION   1  3  6 19              -1.0424429     -59.7275800
  66 TORSION   1  3  5 14              -3.0083263    -172.3644021
  67 TORSION   1  3  5 15               1.1713882      67.1155992
  68 TORSION   1  2  4  7              -1.5480788     -88.6983789
  69 TORSION   2  1  3  5               1.1283562      64.6500507
  70 TORSION   2  4  7 20               3.0846990     176.7402311
  71 TORSION   2  4  7 21              -1.0878120     -62.3270387
  72 TORSION   2  4  7 22               0.9779853      56.0344313
  73 TORSION   2  1  3 13              -0.9383279     -53.7622286
  74 TORSION   2  1  3  6              -3.0120347    -172.5768780
  75 TORSION   3  1  2 12              -0.6866738     -39.3435113
  76 TORSION   3  1  2 11              -2.7103339    -155.2906921
  77 TORSION   3  1  2  4               1.4417444      82.6058686
  78 TORSION   4  2  1  9              -2.7233655    -156.0373470
  79 TORSION   4  2  1 10              -0.7052853     -40.4098709
  80 TORSION   5  3  6 18              -3.0876863    -176.9113932
  81 TORSION   5  3  1  9              -0.9904259     -56.7472224
  82 TORSION   5  3  6 17              -0.9940298     -56.9537117
  83 TORSION   5  3  1 10              -3.0050176    -172.1748273
  84 TORSION   5  3  6 19               1.1003416      63.0449308
  85 TORSION   6  3  5 15              -0.9694184     -55.5435844
  86 TORSION   6  3  5 16              -3.0539236    -174.9769357
  87 TORSION   6  3  5 14               1.1340524      64.9764142
  88 TORSION   6  3  1  9               1.1523685      66.0258489
  89 TORSION   6  3  1 10              -0.8622233     -49.4017560
  90 TORSION   7  4  2 11               2.6070964     149.3756181
  91 TORSION   7  4  2 12               0.5733124      32.8483793
  92 TORSION   8  4  7 21               2.0497332     117.4410622
  93 TORSION   8  4  2 11              -0.5304694     -30.3936584
  94 TORSION   8  4  7 22              -2.1676547    -124.1974678
  95 TORSION   8  4  2 12              -2.5642534    -146.9208971
  96 TORSION   8  4  7 20              -0.0609411      -3.4916680
  97 TORSION   9  1  2 11              -0.5922584     -33.9339078
  98 TORSION   9  1  3 13              -3.0571100    -175.1595017
  99 TORSION   9  1  2 12               1.4314016      82.0132730
 100 TORSION  10  1  2 11               1.4258217      81.6935684
 101 TORSION  10  1  3 13               1.2114835      69.4128934
 102 TORSION  10  1  2 12              -2.8337035    -162.3592508
 103 TORSION  13  3  6 18              -1.0126866     -58.0226661
 104 TORSION  13  3  5 15              -3.0488987    -174.6890294
 105 TORSION  13  3  5 16               1.1497814      65.8776194
 106 TORSION  13  3  5 14              -0.9454279     -54.1690307
 107 TORSION  13  3  6 17               1.0809699      61.9350154
 108 TORSION  13  3  6 19              -3.1078440    -178.0663421

     ------------------------------------------
     THE POINT GROUP IS C1 , NAXIS= 1, ORDER= 1
     ------------------------------------------

     DIMENSIONS OF THE SYMMETRY SUBSPACES ARE
 A   =  236

 ..... DONE SETTING UP THE RUN .....
 STEP CPU TIME =     0.02 TOTAL CPU TIME =        0.0 (    0.0 MIN)
 TOTAL WALL CLOCK TIME=        0.0 SECONDS, CPU UTILIZATION IS 100.00%


          -----------------------------
          STATIONARY POINT LOCATION RUN
          -----------------------------

 OBTAINING INITIAL HESSIAN, HESS=GUESS   
 DIAGONAL GUESS HESSIAN IN INTERNAL COORDS IS
     1  0.3343     2  0.3341     3  0.3666     4  0.3719     5  0.3765
     6  0.3305     7  0.3349     8  0.3240     9  0.3755    10  0.3745
    11  0.5455    12  0.3862    13  0.3376    14  0.3410    15  0.3419
    16  0.3408    17  0.3411    18  0.3412    19  0.3372    20  0.3413
    21  0.3416    22  0.2230    23  0.2499    24  0.2220    25  0.2491
    26  0.2492    27  0.2234    28  0.2234    29  0.2489    30  0.2591
    31  0.2234    32  0.2512    33  0.2243    34  0.2243    35  0.2239
    36  0.2242    37  0.2243    38  0.2243    39  0.2229    40  0.2230
    41  0.2252    42  0.2248    43  0.2238    44  0.2234    45  0.2252
    46  0.2500    47  0.2226    48  0.2227    49  0.2600    50  0.2016
    51  0.2013    52  0.2027    53  0.2024    54  0.2023    55  0.2026
    56  0.2026    57  0.2026    58  0.2027    59  0.2024    60  0.2023
    61  0.2500    62  0.2500    63  0.2500    64  0.2500    65  0.2500
    66  0.2500    67  0.2500    68  0.2500    69  0.2500    70  0.2500
    71  0.2500    72  0.2500    73  0.2500    74  0.2500    75  0.2500
    76  0.2500    77  0.2500    78  0.2500    79  0.2500    80  0.2500
    81  0.2500    82  0.2500    83  0.2500    84  0.2500    85  0.2500
    86  0.2500    87  0.2500    88  0.2500    89  0.2500    90  0.2500
    91  0.2500    92  0.2500    93  0.2500    94  0.2500    95  0.2500
    96  0.2500    97  0.2500    98  0.2500    99  0.2500   100  0.2500
   101  0.2500   102  0.2500   103  0.2500   104  0.2500   105  0.2500
   106  0.2500   107  0.2500   108  0.2500
 TRANSFORMING HESSIAN TO SYMMETRY COORDINATES

          PARAMETERS CONTROLLING GEOMETRY SEARCH ARE
          METHOD =QA                  UPHESS =BFGS    
          NNEG   =         0          NFRZ   =         3
          NSTEP  =        50          IFOLOW =         1
          HESS   =GUESS               RESTAR =         F
          IHREP  =         0          HSSEND =         F
          NPRT   =         0          NPUN   =         0
          OPTTOL = 5.000E-04          RMIN   = 1.500E-03
          RMAX   = 1.000E-01          RLIM   = 7.000E-02
          DXMAX  = 3.000E-01          PURIFY =         F
          MOVIE  =         F          TRUPD  =         T
          TRMAX  = 5.000E-01          TRMIN  = 5.000E-02
          ITBMAT =         5          STPT   =         F
          STSTEP = 1.000E-02          PROJCT=          F
          FROZEN COORD(S)=   1   2   3


      ***** EQUILIBRIUM GEOMETRY LOCATED *****
            (SUBJECT TO   3 CONSTRAINT(S))
 COORDINATES OF ALL ATOMS ARE (ANGS)
   ATOM   CHARGE       X              Y              Z
 ------------------------------------------------------------
 C           6.0   1.9289394814   2.0276642387   1.8712572274
 C           6.0   3.0667997916   2.6919092654   1.0690856628
 C           6.0   2.0658049421   1.9823851510   3.4027285519
 C           6.0   4.3244861779   1.8491703093   0.9866323251
 C           6.0   1.9434074062   3.3666778041   4.0475810969
 C           6.0   1.0336701970   1.0140380017   3.9848806415
 C           6.0   5.2367795438   1.7688326431   2.1866316696
 O           8.0   4.5799714560   1.2375682452  -0.0114187308
 H           1.0   1.0083491884   2.5501632978   1.6225396122
 H           1.0   1.8113389911   1.0130661727   1.4974171209
 H           1.0   2.7295129746   2.8406722967   0.0498777877
 H           1.0   3.3163811315   3.6641341265   1.4819142190
 H           1.0   3.0409161892   1.5882433837   3.6615033893
 H           1.0   2.0908265267   3.2983242993   5.1220914426
 H           1.0   0.9571726007   3.7910171590   3.8721073532
 H           1.0   2.6799142847   4.0656777621   3.6627167459
 H           1.0   1.1336300623   0.9449521373   5.0643838810
 H           1.0   1.1672589345   0.0173434450   3.5728256831
 H           1.0   0.0198686360   1.3373709119   3.7596654532
 H           1.0   6.2145615810   1.4242976137   1.8780698670
 H           1.0   5.3117953555   2.7203318513   2.6984332476
 H           1.0   4.8281758774   1.0445659053   2.8834088925


                     --------------------
                     INTERNAL COORDINATES
                     --------------------

                 - - ATOMS - -         COORDINATE      COORDINATE
 NO.   TYPE    I  J  K  L  M  N        (BOHR,RAD)       (ANG,DEG)
 ----------------------------------------------------------------
   1 STRETCH   1 10                     2.0553718       1.0876560
   2 STRETCH   1  9                     2.0548128       1.0873602
   3 STRETCH   1  3                     2.9068548       1.5382415
   4 STRETCH   1  2                     2.9149762       1.5425391
   5 STRETCH   2  4                     2.8651528       1.5161737
   6 STRETCH   2 12                     2.0509748       1.0853292
   7 STRETCH   2 11                     2.0481331       1.0838254
   8 STRETCH   3 13                     2.0468045       1.0831224
   9 STRETCH   3  6                     2.8918979       1.5303266
  10 STRETCH   3  5                     2.8950961       1.5320190
  11 STRETCH   4  8                     2.2640745       1.1980967
  12 STRETCH   4  7                     2.8526300       1.5095469
  13 STRETCH   5 16                     2.0520405       1.0858931
  14 STRETCH   5 15                     2.0558221       1.0878943
  15 STRETCH   5 14                     2.0536176       1.0867277
  16 STRETCH   6 19                     2.0554275       1.0876855
  17 STRETCH   6 18                     2.0536682       1.0867545
  18 STRETCH   6 17                     2.0528479       1.0863204
  19 STRETCH   7 22                     2.0501722       1.0849045
  20 STRETCH   7 21                     2.0465994       1.0830138
  21 STRETCH   7 20                     2.0440271       1.0816527
  22 BEND      1  2 12                  1.9364574     110.9508367
  23 BEND      1  2  4                  1.9832115     113.6296477
  24 BEND      1  3 13                  1.9056998     109.1885560
  25 BEND      1  3  5                  1.9663926     112.6659988
  26 BEND      1  3  6                  1.9148993     109.7156497
  27 BEND      1  2 11                  1.8950234     108.5768411
  28 BEND      2  1  9                  1.8740724     107.3764379
  29 BEND      2  1  3                  2.0541903     117.6964362
  30 BEND      2  4  8                  2.1012565     120.3931282
  31 BEND      2  1 10                  1.8783302     107.6203907
  32 BEND      2  4  7                  2.0802108     119.1872994
  33 BEND      3  6 17                  1.9349984     110.8672409
  34 BEND      3  5 14                  1.9267810     110.3964207
  35 BEND      3  5 16                  1.9587229     112.2265560
  36 BEND      3  5 15                  1.9358281     110.9147816
  37 BEND      3  6 18                  1.9317748     110.6825402
  38 BEND      3  6 19                  1.9409625     111.2089602
  39 BEND      3  1  9                  1.8935740     108.4937970
  40 BEND      3  1 10                  1.9011322     108.9268542
  41 BEND      4  7 20                  1.9139876     109.6634140
  42 BEND      4  7 22                  1.8949042     108.5700110
  43 BEND      4  2 11                  1.8580263     106.4570638
  44 BEND      4  2 12                  1.9048123     109.1377064
  45 BEND      4  7 21                  1.9506341     111.7631003
  46 BEND      5  3  6                  1.9366545     110.9621267
  47 BEND      5  3 13                  1.8756646     107.4676639
  48 BEND      6  3 13                  1.8608965     106.6215178
  49 BEND      7  4  8                  2.1015330     120.4089725
  50 BEND      9  1 10                  1.8525964     106.1459545
  51 BEND     11  2 12                  1.8821042     107.8366250
  52 BEND     14  5 15                  1.8828303     107.8782302
  53 BEND     14  5 16                  1.8743553     107.3926488
  54 BEND     15  5 16                  1.8824366     107.8556741
  55 BEND     17  6 18                  1.8829874     107.8872305
  56 BEND     17  6 19                  1.8864429     108.0852186
  57 BEND     18  6 19                  1.8846202     107.9807851
  58 BEND     20  7 21                  1.9305485     110.6122818
  59 BEND     20  7 22                  1.8870714     108.1212296
  60 BEND     21  7 22                  1.8850403     108.0048526
  61 TORSION   1  3  5 16              -1.0059636     -57.6374675
  62 TORSION   1  2  4  8               1.7848832     102.2662745
  63 TORSION   1  3  6 17               3.1118947     178.2984308
  64 TORSION   1  3  6 18               1.0229615      58.6113771
  65 TORSION   1  3  6 19              -1.0719361     -61.4174154
  66 TORSION   1  3  5 14              -3.0962667    -177.4030169
  67 TORSION   1  3  5 15               1.1008997      63.0769041
  68 TORSION   1  2  4  7              -1.3361245     -76.5542929
  69 TORSION   2  1  3  5               1.2074475      69.1816474
  70 TORSION   2  4  7 20              -2.8136999    -161.2131309
  71 TORSION   2  4  7 21              -0.6662892     -38.1755568
  72 TORSION   2  4  7 22               1.4111225      80.8513662
  73 TORSION   2  1  3 13              -0.8751640     -50.1432052
  74 TORSION   2  1  3  6              -2.9087544    -166.6593502
  75 TORSION   3  1  2 12              -0.8608107     -49.3208212
  76 TORSION   3  1  2 11              -2.9262272    -167.6604702
  77 TORSION   3  1  2  4               1.2931734      74.0933785
  78 TORSION   4  2  1  9              -2.8491975    -163.2469938
  79 TORSION   4  2  1 10              -0.8612951     -49.3485738
  80 TORSION   5  3  6 18              -3.0760190    -176.2429083
  81 TORSION   5  3  1  9              -0.9234106     -52.9075288
  82 TORSION   5  3  6 17              -0.9870859     -56.5558546
  83 TORSION   5  3  1 10              -2.9328148    -168.0379119
  84 TORSION   5  3  6 19               1.1122686      63.7282992
  85 TORSION   6  3  5 15              -1.0540436     -60.3922472
  86 TORSION   6  3  5 16               3.1222785     178.8933812
  87 TORSION   6  3  5 14               1.0319753      59.1278317
  88 TORSION   6  3  1  9               1.2435728      71.2514735
  89 TORSION   6  3  1 10              -0.7658314     -43.8789096
  90 TORSION   7  4  2 11               2.8620806     163.9851403
  91 TORSION   7  4  2 12               0.8350382      47.8441643
  92 TORSION   8  4  7 21               2.4958918     143.0040672
  93 TORSION   8  4  2 11              -0.3000970     -17.1942923
  94 TORSION   8  4  7 22              -1.7098818     -97.9690098
  95 TORSION   8  4  2 12              -2.3271394    -133.3352683
  96 TORSION   8  4  7 20               0.3484810      19.9664932
  97 TORSION   9  1  2 11              -0.7854129     -45.0008425
  98 TORSION   9  1  3 13              -3.0060221    -172.2323815
  99 TORSION   9  1  2 12               1.2800036      73.3388065
 100 TORSION  10  1  2 11               1.2024896      68.8975776
 101 TORSION  10  1  3 13               1.2677589      72.6372354
 102 TORSION  10  1  2 12              -3.0152792    -172.7627734
 103 TORSION  13  3  6 18              -1.0386545     -59.5105178
 104 TORSION  13  3  5 15              -3.0823159    -176.6036904
 105 TORSION  13  3  5 16               1.0940062      62.6819380
 106 TORSION  13  3  5 14              -0.9962970     -57.0836115
 107 TORSION  13  3  6 17               1.0502787      60.1765359
 108 TORSION  13  3  6 19              -3.1335521    -179.5393103

          INTERNUCLEAR DISTANCES (ANGS.)


 =====================================================
   GAMESS/COSab RESULTS
 =====================================================

   Dielectric Constant                  = INFTY
   Basic Grid Size                      =                 1082
   Number of Segments                   =                   92
   Number of Segments located on spheres=                  274
   Number of Segments of the cavity     =                  690
   Solvent Radius (rsolv)               = 1.40
   Outlying Charge Error Method         = double cavity

 =====================================================

  Total solvated Energy (a.u.)          =  -348.1916609279
  Total Energy corrected (a.u.)         =  -348.1912845967

  Outlying charge effect (a.u.)         =     0.0003763312
  Outlying charge effect (kcal/mol)     =     0.2361515641

  Dielectric Energy (a.u.)              =    -0.0137133328
  Dielectric energy corr. (a.u.)        =    -0.0133370017

  Sum of polarization charges           =     0.0249100268
  Sum of polarization charges(cor.)     =    -0.0249100268

  Total surface area of cavity (A**2)   =  169.75
  Total volume of cavity (A**3)         =  172.53

 =====================================================
 NPS=                   690
NR.  ATOM  (X, Y, Z)(a.u.)                  CHARGE(e)  AREA(A**2) SIGMA(e/A**2)
   1   1   2.008660   3.215823   0.185521   0.000491   0.232280   0.002116
   2   1   0.517314   1.965547   2.527124   0.000879   0.232280   0.003786
   3   1   0.242959   2.637168   2.403797   0.000775   0.232280   0.003337
   4   1   1.389458   3.782279   0.504066   0.000568   0.232280   0.002443
   5   1   1.599234   2.510590   0.645999   0.000754   0.232280   0.003247
   6   1   0.807792   2.255025   1.600297   0.001276   0.278737   0.004579
   7   1   2.531504   2.450328   0.199128   0.000246   0.232280   0.001058
   8   1   0.945416   2.954656   1.040895   0.001051   0.278737   0.003771
   9   2   3.345902   7.888530   1.360449   0.000144   0.232280   0.000619
  10   2   6.608204   8.332227   0.261900   0.000869   0.371649   0.002339
  11   2   6.109318   7.939238  -0.439448   0.000571   0.278737   0.002050
  12   2   3.320556   7.461350   0.432313   0.000227   0.325193   0.000697
  13   2   4.177931   8.355336   1.027432   0.000674   0.371649   0.001814
  14   2   5.430153   8.527931   0.500218   0.000932   0.325193   0.002866
  15   2   7.488231   7.626463  -0.208976   0.000939   0.418105   0.002246
  16   2   3.751164   8.265265   2.080998  -0.000236   0.325193  -0.000725
  17   2   7.915496   7.932611   0.719589   0.000040   0.325193   0.000122
  18   2   7.300603   6.958476  -0.897960  -0.000161   0.278737  -0.000576
  19   2   4.600518   8.224285   0.284278   0.000623   0.278737   0.002235
  20   2   4.346865   2.849103  -0.658896  -0.000087   0.046456  -0.001882
  21   3   5.870526   3.184210   9.608351  -0.000015   0.046456  -0.000324
  22   3   5.619487   2.793089   9.660142   0.000011   0.046456   0.000233
  23   4   8.135410  -0.235689   2.472052   0.000050   0.092912   0.000539
  24   4  10.212671   5.830860  -0.294539  -0.000205   0.139368  -0.001472
  25   4   7.318895  -0.156079   2.344197  -0.000138   0.092912  -0.001484
  26   4   9.433729   5.964990  -0.702396  -0.000699   0.232280  -0.003010
  27   4  11.239626   5.012940   0.261802   0.000031   0.139368   0.000220
  28   4   7.317511  -0.026634   2.939693  -0.001150   0.185824  -0.006188
  29   4   9.710398   6.427762   0.044203  -0.001943   0.325193  -0.005974
  30   4  10.798800   5.774529   0.386045  -0.001323   0.371649  -0.003560
  31   4   9.975096   6.741741   1.165652  -0.003899   0.464561  -0.008394
  32   4   8.814520   5.963380  -0.924038   0.000185   0.139368   0.001325
  33   5   6.661835   8.032653   9.248025   0.000975   0.232280   0.004197
  34   5   2.886595   9.541054   9.535858   0.000884   0.371649   0.002378
  35   5   0.671943   6.547798   9.939322   0.001738   0.371649   0.004676
  36   5   3.251503   9.310477   5.321992   0.000779   0.185824   0.004191
  37   5   1.331783   6.478701  10.613898   0.001269   0.278737   0.004554
  38   5   3.170607   8.885183  10.417656   0.001249   0.418105   0.002988
  39   5   6.312950   7.791982   9.943985   0.001045   0.232280   0.004500
  40   5   6.398718   5.003294   9.886152   0.000298   0.185824   0.001601
  41   5   3.184740   9.837229   6.245297   0.001307   0.278737   0.004688
  42   5   2.507837   9.543349   5.973258   0.001068   0.232280   0.004599
  43   5   6.913296   5.823172   9.517266   0.000508   0.185824   0.002734
  44   5   7.043796   7.104218   9.187631   0.001014   0.278737   0.003638
  45   5   5.742469   8.849989   9.600734   0.002324   0.511017   0.004548
  46   5   4.225081   9.489563   9.697710   0.001188   0.418105   0.002841
  47   5   1.835916   8.887645   9.777872   0.001603   0.418105   0.003835
  48   5   1.125530   7.663479  10.119368   0.001739   0.325193   0.005348
  49   5   3.701356  10.137387   7.473609   0.001238   0.371649   0.003330
  50   5   3.494255  10.008934   8.625112   0.001178   0.464561   0.002536
  51   5   2.212964   9.689678   8.688663   0.000934   0.325193   0.002873
  52   5   2.506691   8.956449   5.159940   0.000810   0.185824   0.004358
  53   5   1.913853   8.167635  10.465107   0.001375   0.325193   0.004229
  54   5   4.833481   8.917515  10.179887   0.000952   0.278737   0.003416
  55   5   6.745550   6.590847   9.837048   0.000989   0.278737   0.003549
  56   5   2.611152   9.984129   7.451961   0.001602   0.418105   0.003833
  57   5   4.790084   9.775230   8.826056   0.000874   0.325193   0.002687
  58   6  -0.838898   3.145620   9.761064   0.001146   0.232280   0.004934
  59   6  -0.122716  -0.814510   9.116848   0.000876   0.371649   0.002356
  60   6   3.684238  -1.094092   9.022346   0.001878   0.418105   0.004491
  61   6  -0.540873   1.019570   4.836071   0.000511   0.139368   0.003665
  62   6   4.770892   1.553029  10.023084   0.000084   0.092912   0.000903
  63   6   3.398742  -0.691541   9.852935   0.001184   0.278737   0.004248
  64   6   0.382689  -0.418926  10.053051   0.001208   0.418105   0.002890
  65   6  -0.376799   2.840437  10.358837   0.001091   0.232280   0.004698
  66   6  -0.888410   0.036902   5.894289   0.001656   0.325193   0.005093
  67   6  -0.321342  -0.375913   5.566670   0.001055   0.232280   0.004544
  68   6  -0.328745   3.889587   9.806770   0.001088   0.232280   0.004686
  69   6  -1.014486   1.882713   9.870196   0.002492   0.511017   0.004877
  70   6  -0.756907   0.277271   9.592462   0.001198   0.418105   0.002865
  71   6   1.003647  -1.380852   9.115053   0.001564   0.418105   0.003740
  72   6   2.447642  -1.385774   9.301350   0.001666   0.325193   0.005123
  73   6   4.651478  -0.221581   9.090478   0.001190   0.371649   0.003201
  74   6   4.916339   0.547315   9.435849   0.000217   0.092912   0.002332
  75   6  -1.279181  -0.027944   7.295798   0.001313   0.371649   0.003534
  76   6  -0.935520  -0.372340   8.367544   0.001192   0.464561   0.002567
  77   6   0.007918  -1.267795   8.131417   0.000942   0.325193   0.002898
  78   6   4.600201  -0.710397   8.146111   0.001025   0.371649   0.002758
  79   6  -0.097058   0.271678   4.814556   0.001532   0.325193   0.004710
  80   6   4.546604   0.373901   9.806394   0.000629   0.232280   0.002709
  81   6   1.649004  -1.079345   9.814616   0.001327   0.325193   0.004081
  82   6  -0.535259   0.978782  10.215869   0.000964   0.278737   0.003458
  83   6   0.242048   3.634378  10.429239   0.000493   0.139368   0.003536
  84   6  -0.585098  -0.836765   7.019107   0.001640   0.418105   0.003922
  85   6  -1.412477   0.778898   8.819427   0.001090   0.371649   0.002933
  86   7   9.931416   3.944695   7.863149   0.000261   0.278737   0.000937
  87   7  10.266331  -0.378478   3.583721  -0.000080   0.278737  -0.000288
  88   7  11.950627   5.926431   2.291775  -0.000080   0.371649  -0.000216
  89   7  12.862164   4.787980   5.975359   0.000645   0.464561   0.001389
  90   7  11.703030   1.117104   6.595131   0.000389   0.371649   0.001048
  91   7  12.380030   0.992634   5.742076   0.000573   0.371649   0.001541
  92   7  13.421533   4.270489   5.129362   0.000370   0.278737   0.001328
  93   7  12.787046   5.171808   2.525713   0.000276   0.278737   0.000991
  94   7  11.175421  -0.086032   3.187657   0.000221   0.325193   0.000679
  95   7  12.426209   4.762400   1.709968  -0.000190   0.232280  -0.000817
  96   7  12.690358   5.735843   3.266877   0.000595   0.325193   0.001830
  97   7  12.958959   5.441558   4.837406   0.000845   0.371649   0.002272
  98   7  12.968639   3.597251   6.318179   0.000447   0.511017   0.000875
  99   7  12.398628   2.145551   6.698957   0.000306   0.464561   0.000659
 100   7  11.492014   0.207969   5.514648   0.000739   0.371649   0.001987
 101   7  10.760167  -0.317648   4.506564   0.000555   0.325193   0.001707
 102   7   9.363192  -0.392123   3.903808  -0.000332   0.371649  -0.000894
 103   7  11.675034   6.532599   3.160799   0.000221   0.325193   0.000681
 104   7  12.028752   4.413957   7.062689   0.000015   0.371649   0.000041
 105   7  11.031649   4.034333   7.669963   0.000189   0.418105   0.000453
 106   7  10.573178   2.975055   7.832227   0.000151   0.418105   0.000362
 107   7  11.329983   1.980399   7.352783  -0.000042   0.325193  -0.000129
 108   7  13.045663   2.464830   6.027894   0.000078   0.278737   0.000281
 109   7  13.204511   5.156909   3.915716   0.000609   0.278737   0.002185
 110   7  11.652160   0.009567   4.434360   0.000497   0.325193   0.001530
 111   7  10.921289   6.799889   3.000602  -0.000417   0.139368  -0.002996
 112   7  12.379730   6.185040   3.941655   0.000301   0.232280   0.001296
 113   7  11.958275   3.178664   7.295159   0.000043   0.464561   0.000093
 114   8   9.434128   0.660166  -2.693658   0.005154   0.377948   0.013635
 115   8   9.355084  -0.828001   0.194295   0.004569   0.309230   0.014775
 116   8  11.743514   1.479634  -0.557343   0.005263   0.274871   0.019149
 117   8  10.350975   3.858689  -2.340496   0.004199   0.343589   0.012221
 118   8   7.211120   3.010513  -2.855084   0.004594   0.240512   0.019099
 119   8   6.438889   0.221861  -1.104696   0.003685   0.240512   0.015320
 120   8   9.406671  -0.224182  -1.873939   0.005713   0.412307   0.013856
 121   8   9.549738  -0.682765  -0.818340   0.005055   0.343589   0.014712
 122   8  10.484129   0.677150  -2.132934   0.006118   0.412307   0.014838
 123   8  11.274946   0.925694  -1.326719   0.005880   0.343589   0.017113
 124   8   9.921282   1.738142  -2.954185   0.005518   0.412307   0.013382
 125   8  10.039630   2.904324  -2.907246   0.004851   0.377948   0.012834
 126   8   8.632404   1.419137  -3.139036   0.005540   0.377948   0.014657
 127   8   7.770429   2.163869  -3.144360   0.005730   0.343589   0.016678
 128   8   8.253786   0.315572  -2.533712   0.006730   0.481025   0.013990
 129   8   7.240011   0.100350  -1.906438   0.005828   0.412307   0.014136
 130   8  10.387319  -0.411293   0.010728   0.004637   0.274871   0.016868
 131   8  11.248419   0.409474  -0.362788   0.005382   0.274871   0.019580
 132   8  11.642584   2.163145  -1.289427   0.006021   0.377948   0.015931
 133   8  11.127781   3.174584  -1.958225   0.005316   0.412307   0.012893
 134   8   9.258549   3.812157  -2.855124   0.004577   0.343589   0.013322
 135   8   8.032052   3.517461  -2.985882   0.006633   0.377948   0.017549
 136   8   6.593902   2.102329  -2.523797   0.006380   0.309230   0.020632
 137   8   6.484797   0.973999  -2.019834   0.005653   0.343589   0.016452
 138   8   7.234974  -0.486566  -0.774286   0.004677   0.377948   0.012374
 139   8   8.350518  -0.891558  -0.215672   0.005213   0.412307   0.012644
 140   8   9.812418  -0.554975   0.901257   0.003390   0.206154   0.016442
 141   8  11.201127   4.067766  -1.066302   0.002013   0.206154   0.009766
 142   8  10.663365   4.393037  -1.541495   0.002316   0.240512   0.009629
 143   8   9.603654   4.711360  -2.030243   0.004581   0.377948   0.012121
 144   8   5.967212   0.980126  -1.244454   0.002377   0.137436   0.017298
 145   8   6.707995  -0.263678  -0.067308   0.002685   0.206154   0.013023
 146   8   8.529664  -0.746632   0.993278   0.004011   0.343589   0.011675
 147   8  10.515828  -0.083159  -1.133456   0.006814   0.412307   0.016528
 148   8  10.935384   1.936507  -2.302405   0.006794   0.481025   0.014124
 149   8   8.864967   2.651322  -3.249996   0.006004   0.412307   0.014563
 150   8   7.303146   1.229736  -2.761592   0.006206   0.377948   0.016420
 151   8   8.288172  -0.583792  -1.396130   0.005339   0.412307   0.012949
 152   8  10.800187  -0.043065   0.516642   0.003757   0.206154   0.018223
 153   8  11.664910   3.188993  -0.905480   0.004981   0.309230   0.016108
 154   8   8.547234   4.455221  -2.485961   0.004442   0.309230   0.014366
 155   8   5.981936   1.660536  -1.742076   0.003419   0.171795   0.019901
 156   8   7.476044  -0.623001   0.613671   0.004013   0.343589   0.011679
 157   9  -0.085913   5.886898   2.102199  -0.001986   0.372926  -0.005326
 158   9   1.203430   7.032165   2.263272  -0.001601   0.372926  -0.004293
 159   9  -0.253508   4.068588   2.165892  -0.000895   0.333671  -0.002682
 160   9   0.688829   5.104703   0.951150  -0.001000   0.294415  -0.003395
 161   9   0.404783   6.741909   2.773203  -0.001938   0.353299  -0.005485
 162   9  -0.327387   5.816964   3.297687  -0.002331   0.353299  -0.006599
 163   9  -0.529751   4.926336   2.760964  -0.001886   0.353299  -0.005337
 164   9   0.001838   4.750861   1.514866  -0.001367   0.392554  -0.003483
 165   9   0.743950   6.179073   1.381987  -0.001969   0.431809  -0.004559
 166  10   3.322628  -0.467603   2.237225  -0.001763   0.294415  -0.005988
 167  10   2.935810   0.892886   0.649268  -0.001443   0.353299  -0.004085
 168  10   1.862347   0.894086   1.230147  -0.000607   0.294415  -0.002062
 169  10   4.231311  -0.404287   2.757152  -0.001957   0.314043  -0.006233
 170  10   3.650322  -0.109548   1.456027  -0.002014   0.314043  -0.006412
 171  10   2.625109   0.198854   1.262724  -0.001383   0.294415  -0.004697
 172  10   1.583052   0.439404   2.141048  -0.001401   0.392554  -0.003569
 173  10   2.420532  -0.248986   2.238122  -0.001572   0.274788  -0.005722
 174  11   4.187017   5.771871  -2.125918  -0.002774   0.412182  -0.006731
 175  11   3.453285   4.708631  -1.547102  -0.002115   0.392554  -0.005388
 176  11   6.085543   6.389365  -1.938421  -0.001939   0.392554  -0.004938
 177  11   5.164629   7.301488  -1.421326  -0.001275   0.372926  -0.003419
 178  11   3.275311   6.624968  -0.860056  -0.001420   0.314043  -0.004520
 179  11   4.165172   4.065514  -1.736763  -0.002090   0.412182  -0.005071
 180  11   5.088584   5.109467  -2.347745  -0.002931   0.451437  -0.006493
 181  11   5.087934   6.413480  -2.127749  -0.002287   0.372926  -0.006131
 182  11   4.081091   7.076847  -1.304108  -0.001882   0.431809  -0.004358
 183  11   3.248364   5.760639  -1.400458  -0.002378   0.412182  -0.005769
 184  12   6.641591   9.334649   3.091340  -0.002901   0.372926  -0.007778
 185  12   6.047559   9.227064   1.973480  -0.001274   0.314043  -0.004057
 186  12   7.949559   8.624621   2.241062  -0.002046   0.372926  -0.005487
 187  12   5.390199   9.218454   2.748275  -0.002143   0.372926  -0.005745
 188  12   7.033350   9.094701   1.942000  -0.001516   0.353299  -0.004292
 189  12   7.673137   8.871325   3.316922  -0.003166   0.392554  -0.008066
 190  13   6.773449   2.753251   9.137096  -0.000388   0.157022  -0.002472
 191  13   6.866285   2.080180   8.902320  -0.000712   0.235532  -0.003024
 192  13   7.232522   3.053748   8.874762  -0.000636   0.137394  -0.004628
 193  13   6.714775   1.367170   8.477120  -0.000703   0.117766  -0.005969
 194  14   4.444038   6.564411  12.063094  -0.002632   0.490692  -0.005364
 195  14   5.779263   6.896568  11.180167  -0.000800   0.372926  -0.002145
 196  14   5.578508   5.025316  11.067983  -0.001083   0.333671  -0.003244
 197  14   2.487972   6.315747  11.651039  -0.001093   0.392554  -0.002783
 198  14   4.044082   7.895801  11.485256  -0.000868   0.372926  -0.002327
 199  14   5.661321   5.952597  11.420508  -0.001411   0.412182  -0.003423
 200  14   4.591491   5.251996  11.838699  -0.002525   0.451437  -0.005594
 201  14   3.393596   5.820517  12.036096  -0.002308   0.431809  -0.005346
 202  14   3.104928   7.317393  11.714800  -0.001333   0.471065  -0.002831
 203  14   5.013692   7.550266  11.459963  -0.001086   0.372926  -0.002911
 204  15  -0.200265   8.553846   7.058166  -0.002047   0.412182  -0.004965
 205  15   0.978556   8.726611   5.613102  -0.000736   0.274788  -0.002679
 206  15   0.914878   9.447856   7.175831  -0.000831   0.372926  -0.002229
 207  15   0.097036   8.148634   8.778555  -0.000652   0.333671  -0.001955
 208  15  -0.348942   7.142390   8.491462  -0.000991   0.333671  -0.002970
 209  15  -0.134568   7.963993   6.045037  -0.002280   0.431809  -0.005280
 210  15   0.665447   9.087329   6.303003  -0.001069   0.353299  -0.003027
 211  15   0.449122   9.031610   8.152936  -0.001226   0.431809  -0.002838
 212  15  -0.478759   7.868809   7.869909  -0.001476   0.333671  -0.004424
 213  15  -0.615879   7.230743   6.927824  -0.002065   0.353299  -0.005845
 214  16   6.714252   9.444113   6.461810  -0.002532   0.353299  -0.007166
 215  16   4.830350   9.955704   6.018613  -0.000912   0.333671  -0.002734
 216  16   6.980455   8.787598   7.990820  -0.000877   0.294415  -0.002978
 217  16   5.444761  10.080500   7.298916  -0.000885   0.372926  -0.002373
 218  16   7.087833   9.047742   7.200787  -0.001291   0.215905  -0.005978
 219  16   6.319539   9.632769   7.732673  -0.001070   0.372926  -0.002870
 220  16   5.776880   9.936796   6.252329  -0.001766   0.353299  -0.005000
 221  17   2.149234   1.196032  11.955123  -0.002427   0.451437  -0.005377
 222  17   0.951290   2.851389  11.436056  -0.000921   0.353299  -0.002608
 223  17   4.033080   1.640513  11.131959  -0.001259   0.353299  -0.003563
 224  17   2.789298   0.028563  11.160561  -0.000918   0.372926  -0.002463
 225  17   0.901805   0.670212  11.373667  -0.001127   0.431809  -0.002610
 226  17   1.881645   2.419442  11.929448  -0.002188   0.412182  -0.005308
 227  17   3.091801   2.004500  11.825426  -0.002354   0.412182  -0.005711
 228  17   3.529357   0.741479  11.308302  -0.001482   0.451437  -0.003282
 229  17   1.811008   0.119535  11.344932  -0.001178   0.392554  -0.003000
 230  17   0.674942   1.752335  11.540335  -0.001257   0.451437  -0.002785
 231  18   2.624604  -2.353051   6.342403  -0.002357   0.451437  -0.005221
 232  18   0.987018  -1.389138   5.161751  -0.001150   0.412182  -0.002790
 233  18   0.707554  -1.862477   6.306300  -0.000891   0.392554  -0.002269
 234  18   2.434574  -2.214316   7.717733  -0.000811   0.353299  -0.002297
 235  18   4.085223  -1.549244   6.744591  -0.001212   0.353299  -0.003429
 236  18   2.361600  -1.825183   5.152040  -0.002340   0.412182  -0.005676
 237  18   1.600026  -2.166056   5.838840  -0.001458   0.314043  -0.004644
 238  18   1.422662  -2.251058   7.205376  -0.001262   0.431809  -0.002922
 239  18   3.360159  -2.057023   7.330674  -0.001077   0.392554  -0.002745
 240  18   3.654769  -1.683251   5.756267  -0.002276   0.431809  -0.005271
 241  19  -2.386287   2.777871   6.792826  -0.002330   0.471065  -0.004947
 242  19  -1.565340   1.918153   5.345522  -0.000945   0.372926  -0.002533
 243  19  -1.792743   3.427265   8.474074  -0.000805   0.392554  -0.002052
 244  19  -2.160103   1.552170   7.609323  -0.000769   0.392554  -0.001960
 245  19  -1.920556   2.882566   5.664365  -0.001780   0.372926  -0.004774
 246  19  -1.801724   3.915745   6.253700  -0.002495   0.431809  -0.005778
 247  19  -1.895106   3.996125   7.482030  -0.001985   0.431809  -0.004597
 248  19  -2.235554   2.590961   8.034260  -0.001368   0.431809  -0.003167
 249  19  -2.075661   1.511975   6.370823  -0.001218   0.471065  -0.002585
 250  20  13.999459   1.898858   2.984417  -0.004110   0.529948  -0.007755
 251  20  13.951573   3.768563   3.578796  -0.001222   0.294415  -0.004152
 252  20  13.341914   3.312040   1.789464  -0.001968   0.353299  -0.005570
 253  20  12.963140   0.579779   3.847071  -0.001684   0.372926  -0.004516
 254  20  13.814886   2.192929   4.772619  -0.001832   0.412182  -0.004445
 255  20  13.868565   3.473636   2.595725  -0.002353   0.431809  -0.005450
 256  20  13.498038   2.026988   1.962807  -0.003444   0.451437  -0.007628
 257  20  12.964808   0.768832   2.628463  -0.003744   0.569203  -0.006578
 258  20  13.647258   1.285059   4.207685  -0.002730   0.471065  -0.005796
 259  20  14.156129   2.883083   3.972270  -0.002810   0.471065  -0.005965
 260  21  10.509439   7.419276   5.887153  -0.004626   0.490692  -0.009428
 261  21  11.490140   7.093510   4.764000  -0.001427   0.333671  -0.004277
 262  21  11.797392   6.206763   6.441890  -0.001494   0.294415  -0.005075
 263  21  10.370602   5.736746   7.459181  -0.001735   0.255160  -0.006799
 264  21  10.521606   7.501530   4.622330  -0.003238   0.392554  -0.008249
 265  21  11.698989   6.828163   5.753602  -0.002453   0.431809  -0.005682
 266  21  11.161925   6.081430   7.070722  -0.001741   0.314043  -0.005543
 267  21  10.370705   6.769758   6.907722  -0.003447   0.372926  -0.009243
 268  22   8.716476   0.088895   6.970604  -0.004419   0.431809  -0.010233
 269  22   9.482583   1.442578   7.820382  -0.002348   0.333671  -0.007037
 270  22  10.102946   0.120048   6.729376  -0.001570   0.294415  -0.005332
 271  22   8.791865  -0.439969   5.135966  -0.001266   0.255160  -0.004961
 272  22   9.751154   0.673670   7.436571  -0.002316   0.372926  -0.006211
 273  22   9.468793  -0.380291   6.060243  -0.002654   0.431809  -0.006147
 274  22   8.241263  -0.309750   5.650826  -0.003242   0.294415  -0.011012
[...]
 431  22   6.935121   0.426688   4.841492  -0.003780   0.459734  -0.008222
 432   4   6.489267   0.065431   3.744840   0.000037   0.005498   0.006692
 433  22   7.837311   0.008586   4.567961  -0.001421   0.134085  -0.010598
 434   4   7.528812   0.024128   3.504243  -0.001161   0.189224  -0.006138
 435   5   0.148297   5.863049   9.026731   0.000133   0.064925   0.002050
 436   6  -0.080541   5.065556   8.963650   0.000219   0.064925   0.003380
 437  15   0.028569   6.054272   8.821309  -0.000047   0.064925  -0.000730
 438   5   1.351708   4.790246  10.516472   0.000211   0.066482   0.003172
 439   6   1.008992   4.033446  10.564666   0.000124   0.066482   0.001862
 440  17   1.154641   3.848529  10.757872  -0.000064   0.066482  -0.000962
 441   6   0.398423   4.371532  10.003144   0.001324   0.533694   0.002480
 442   5   0.586127   5.579596   9.751913   0.001341   0.533694   0.002514
 443   5   7.269328   4.707257   8.574864  -0.000158   0.201119  -0.000785
 444   7   8.378274   4.159019   7.905208  -0.000533   0.201119  -0.002649
 445  13   7.545922   4.049926   8.360021  -0.000991   0.201119  -0.004927
 446   5   7.897527   5.490302   8.077668  -0.000069   0.133706  -0.000518
 447   7   9.108147   4.963523   7.611677  -0.000393   0.133706  -0.002939
 448  21   9.156851   5.261662   7.555470  -0.000603   0.133706  -0.004508
 449   7   9.098760   4.599904   7.949477   0.000281   0.273717   0.001027
 450   5   7.421337   5.282902   8.901917   0.000500   0.273717   0.001826
 451   5   1.762758   8.023689   4.758604   0.000057   0.086109   0.000663
 452   9   1.540533   7.441870   4.000174  -0.000007   0.086109  -0.000077
 453  15   1.493309   8.032697   4.904540  -0.000114   0.086109  -0.001328
 454   9   1.631001   7.384239   3.342262  -0.000185   0.125772  -0.001473
 455   5   2.108811   8.179879   4.458183   0.000480   0.178331   0.002694
 456   5   4.200509   9.100687   4.948606  -0.000153   0.084087  -0.001816
 457  12   4.793884   8.924963   4.083108  -0.000485   0.084087  -0.005772
 458  16   4.494939   9.180847   4.963328  -0.000312   0.084087  -0.003709
 459  12   4.598085   8.850290   3.370953  -0.000614   0.182370  -0.003367
 460   5   3.799654   9.092223   4.704070   0.000525   0.260889   0.002011
 461  13   6.962966   3.735916   8.931848  -0.000769   0.245332  -0.003135
 462   5   6.473136   4.531787   9.558985   0.000407   0.345701   0.001179
 463   5   1.715756   5.197310  10.748973   0.000061   0.087973   0.000693
 464  14   1.946546   5.225320  10.948263  -0.000130   0.087973  -0.001477
 465  17   1.598210   4.219083  10.858822   0.000138   0.087973   0.001568
 466  14   5.871437   4.962452  10.529860  -0.000127   0.071772  -0.001776
 467  14   6.175230   6.074321  10.558921  -0.000336   0.160622  -0.002093
 468  14   5.779738   7.401175  10.697599  -0.000274   0.160622  -0.001707
 469  14   4.641638   8.174957  10.902971  -0.000341   0.160622  -0.002122
 470  14   3.267502   8.051256  11.083626  -0.000357   0.160622  -0.002220
 471  14   2.268961   7.085130  11.159153  -0.000192   0.160622  -0.001194
 472  14   1.986466   5.967751  11.126819  -0.000123   0.071772  -0.001707
 473   5   6.212928   5.311306  10.166055  -0.000226   0.156151  -0.001448
 474   5   6.288967   6.869627  10.254768  -0.000037   0.156151  -0.000237
 475   5   5.375491   8.120859  10.459699   0.000049   0.156151   0.000311
 476   5   3.879092   8.508076  10.689633  -0.000137   0.156151  -0.000880
 477   5   2.465821   7.858927  10.842227   0.000037   0.156151   0.000238
 478   5   1.764727   6.462349  10.849559   0.000025   0.156151   0.000157
 479  15   0.035034   6.743725   8.962952  -0.000079   0.070324  -0.001118
 480  15   0.437695   7.773935   9.191128  -0.000237   0.156553  -0.001514
 481  15   1.013562   8.926069   8.740651  -0.000285   0.156553  -0.001818
 482  15   1.473110   9.523842   7.603353  -0.000337   0.156553  -0.002154
 483  15   1.620726   9.312805   6.263339  -0.000176   0.156553  -0.001127
 484  15   1.485294   8.630202   5.373820  -0.000077   0.070324  -0.001097
 485   5   0.419904   6.948570   9.379583  -0.000025   0.153781  -0.000166
 486   5   1.027656   8.355592   9.366285   0.000016   0.153781   0.000101
 487   5   1.642827   9.395264   8.422940  -0.000090   0.153781  -0.000585
 488   5   2.003562   9.625036   6.951095   0.000052   0.153781   0.000335
 489   5   1.956309   8.947102   5.577259   0.000053   0.153781   0.000343
 490   5   7.477084   7.276559   7.940306  -0.000052   0.127300  -0.000408
 491  16   7.524320   7.486406   7.719655  -0.000422   0.127300  -0.003314
 492  21   8.541189   6.825103   7.180811  -0.000470   0.127300  -0.003690
 493  16   4.301952   9.554763   5.523339  -0.000163   0.067482  -0.002417
 494  16   4.430212   9.969875   6.522706  -0.000263   0.149131  -0.001766
 495  16   5.045655   9.963646   7.689143  -0.000355   0.149131  -0.002383
 496  16   5.986448   9.355680   8.385328  -0.000307   0.149131  -0.002061
 497  16   6.879884   8.386829   8.335459  -0.000384   0.149131  -0.002576
 498   5   3.911868   9.680688   5.949931   0.000040   0.148588   0.000271
 499   5   4.303511  10.030915   7.335480  -0.000108   0.148588  -0.000728
 500   5   5.224576   9.667401   8.437880  -0.000130   0.148588  -0.000872
 501   5   6.310171   8.734155   8.820405  -0.000005   0.148588  -0.000035
 502   5   7.043235   7.817336   8.558133   0.000051   0.082444   0.000615
 503  17   1.222712   3.761558  11.000061   0.000039   0.036048   0.001073
 504   5   1.423476   5.188529  10.745534   0.000219   0.051170   0.004287
 505  21   9.392627   6.473600   7.348922  -0.001009   0.249039  -0.004053
 506  21   9.362490   5.694105   7.647119  -0.000565   0.249039  -0.002267
 507   5   7.666614   6.544188   8.528437   0.001090   0.745680   0.001462
 508   6   0.967651  -0.064031   4.389433   0.000059   0.082305   0.000711
 509  10   1.449841   0.144840   3.617438  -0.000061   0.082305  -0.000743
 510  18   1.132239  -0.315049   4.448560  -0.000150   0.082305  -0.001818
 511  10   1.310875   0.476027   3.026106  -0.000295   0.198015  -0.001491
 512   6   0.530284   0.387407   4.169142   0.000697   0.279558   0.002492
 513   6   5.793693   0.436843   7.671993  -0.000200   0.093022  -0.002155
 514  13   6.457117   0.718570   7.541898  -0.000738   0.093022  -0.007929
 515  22   7.185082   0.630709   7.136553  -0.001050   0.093022  -0.011290
 516  13   6.076765   1.802570   9.054185  -0.000587   0.227044  -0.002585
 517  13   6.187924   0.897528   8.137127  -0.000859   0.227044  -0.003782
 518   6   5.249410   0.870428   8.961970   0.000258   0.617070   0.000418
 519   6  -0.482265   4.648807   8.703507   0.000098   0.088125   0.001118
 520  15  -0.230640   5.595945   8.485040   0.000186   0.088125   0.002107
 521  19  -0.693357   4.589273   8.489339  -0.000089   0.088125  -0.001005
 522  15  -0.186782   6.195624   8.692469   0.000056   0.048898   0.001150
 523   6  -0.449743   4.768912   8.996668   0.000295   0.069500   0.004242
 524  17   0.808382   3.294110  10.980122  -0.000064   0.066824  -0.000956
 525  17   0.268962   2.359612  10.970257  -0.000152   0.147350  -0.001028
 526  17   0.263161   1.055696  10.887341  -0.000258   0.147350  -0.001752
 527  17   1.028508   0.005797  10.749282  -0.000291   0.147350  -0.001975
 528  17   2.268104  -0.382802  10.609638  -0.000176   0.147350  -0.001194
 529  17   3.501074   0.040650  10.522580  -0.000249   0.147350  -0.001691
 530  17   4.249115   1.111882  10.521881  -0.000360   0.147350  -0.002446
 531   6   0.334533   3.121380  10.675787   0.000042   0.147458   0.000282
 532   6  -0.126916   1.728443  10.629362   0.000100   0.147458   0.000678
 533   6   0.322146   0.336812  10.498717  -0.000094   0.147458  -0.000640
 534   6   1.507515  -0.513662  10.334532   0.000009   0.147458   0.000061
 535   6   2.969354  -0.493056  10.200501   0.000059   0.147458   0.000401
 536   6   4.140575   0.390637  10.148616  -0.000093   0.147458  -0.000629
 537   6   4.623934   1.478914  10.173514  -0.000029   0.081640  -0.000352
 538   6   5.102621  -0.235403   6.828016  -0.000069   0.113599  -0.000605
 539  18   4.901224  -0.415108   6.685920  -0.000138   0.113599  -0.001215
 540  22   6.425366   0.265504   6.348344  -0.000743   0.113599  -0.006542
 541  18   4.353101  -1.107057   7.089270  -0.000166   0.072073  -0.002304
 542  18   3.625052  -1.532439   7.882178  -0.000315   0.161447  -0.001951
 543  18   2.310228  -1.851701   8.228171  -0.000314   0.161447  -0.001945
 544  18   1.013701  -1.811525   7.710671  -0.000352   0.161447  -0.002181
 545  18   0.317227  -1.429939   6.561880  -0.000329   0.161447  -0.002040
 546  18   0.533317  -0.878161   5.297266  -0.000277   0.161447  -0.001718
 547   6   4.271126  -0.998226   7.683906  -0.000231   0.156668  -0.001474
 548   6   3.044721  -1.507569   8.518341   0.000038   0.156668   0.000245
 549   6   1.488549  -1.673884   8.416135  -0.000004   0.156668  -0.000027
 550   6   0.300867  -1.422545   7.423149  -0.000127   0.156668  -0.000814
 551   6   0.014594  -0.866329   5.984937   0.000106   0.156668   0.000675
 552   6   0.466554  -0.358646   4.903449   0.000088   0.088053   0.000998
 553  19  -1.044089   1.683715   5.068058  -0.000073   0.070757  -0.001037
 554  19  -1.437010   1.047680   5.923681  -0.000170   0.157748  -0.001075
 555  19  -1.763819   0.948815   7.252886  -0.000316   0.157748  -0.002000
 556  19  -1.787800   1.681656   8.412943  -0.000315   0.157748  -0.001998
 557  19  -1.498614   2.930224   8.903670  -0.000202   0.157748  -0.001280
 558  19  -1.119339   3.983296   8.708199  -0.000103   0.070757  -0.001461
 559   6  -0.904231   1.129621   5.265971   0.000093   0.154509   0.000599
 560   6  -1.389113   0.542907   6.606368   0.000079   0.154509   0.000508
 561   6  -1.597678   0.919843   8.086378  -0.000108   0.154509  -0.000700
 562   6  -1.439998   2.097905   9.067864   0.000059   0.154509   0.000380
 563   6  -0.984061   3.569148   9.127640   0.000123   0.154509   0.000797
 564  22   7.623056   0.138984   6.741912  -0.002046   0.340720  -0.006004
 565   6   5.487032  -0.283943   7.333147   0.000792   0.525229   0.001508
 566   7  12.227621   3.823026   1.149082  -0.000154   0.063835  -0.002418
 567   8  11.864028   3.587283   0.471719   0.000425   0.063835   0.006653
 568  20  12.425985   3.618774   1.250342  -0.000238   0.063835  -0.003733
 569   7  11.354459   0.362180   2.246475   0.000097   0.063835   0.001519
 570   8  11.039710   0.320034   1.507725   0.000944   0.063835   0.014791
 571  20  11.633577   0.477999   2.246244  -0.000157   0.063835  -0.002455
 572   8  10.481313  -0.118916   1.300045   0.003681   0.293481   0.012543
 573   8   9.236917  -0.428408   1.746696   0.002716   0.293481   0.009256
 574   7  10.205680  -0.105007   2.605784   0.000633   0.643420   0.000984
 575   8  11.717178   3.769277  -0.009019   0.000522   0.056685   0.009210
 576   7  12.181094   4.039470   1.013787   0.000080   0.062553   0.001271
 577   7   9.882858   7.102857   3.294965  -0.000780   0.089568  -0.008709
 578  12   8.993653   7.532496   3.093894  -0.000888   0.089568  -0.009917
 579  21   9.877231   7.209163   3.580371  -0.000720   0.089568  -0.008036
 580  12   8.684568   7.903955   2.706216  -0.000309   0.059940  -0.005153
 581   7   9.956095   7.178263   2.968956  -0.000005   0.085223  -0.000053
 582   7   9.076779   2.800970   7.872918  -0.000459   0.071436  -0.006420
 583  13   8.164572   2.759152   8.144025  -0.000671   0.071436  -0.009388
 584  22   8.934398   2.532673   7.891906  -0.000578   0.071436  -0.008087
 585  13   7.788809   3.210569   8.444844  -0.001144   0.239475  -0.004776
 586   7   9.096713   3.523681   8.001240  -0.000184   0.338479  -0.000542
 587  20  12.883028   3.837224   1.696521  -0.000295   0.065749  -0.004483
 588  20  13.309327   4.249361   2.587224  -0.000683   0.144931  -0.004711
 589  20  13.658083   4.126726   3.829322  -0.000651   0.144931  -0.004491
 590  20  13.686370   3.307817   4.833346  -0.000660   0.144931  -0.004556
 591  20  13.383340   2.106733   5.214195  -0.000673   0.144931  -0.004641
 592  20  12.865222   0.984159   4.825792  -0.000572   0.144931  -0.003948
 593  20  12.330744   0.370667   3.817111  -0.000705   0.144931  -0.004866
 594  20  12.007280   0.366123   2.797165  -0.000316   0.065749  -0.004810
 595   7  12.781716   4.340489   1.975733  -0.000612   0.145099  -0.004221
 596   7  13.304188   4.634777   3.302784  -0.000414   0.145099  -0.002851
 597   7  13.526979   4.078428   4.629995  -0.000410   0.145099  -0.002824
 598   7  13.364636   2.884835   5.448302  -0.000538   0.145099  -0.003707
 599   7  12.879428   1.511809   5.443839  -0.000526   0.145099  -0.003622
 600   7  12.257459   0.485985   4.618316  -0.000425   0.145099  -0.002930
 601   7  11.737291   0.200826   3.288370  -0.000534   0.145099  -0.003679
 602  21  10.035179   5.173844   7.556420  -0.000483   0.067138  -0.007196
 603  21  11.081783   5.248262   7.264659  -0.000901   0.148483  -0.006068
 604  21  11.998276   5.639873   6.402259  -0.000898   0.148483  -0.006046
 605  21  12.168933   6.248485   5.245747  -0.000725   0.148483  -0.004884
 606  21  11.525980   6.832390   4.254425  -0.000856   0.148483  -0.005763
 607  21  10.589672   7.151318   3.798734  -0.000494   0.067138  -0.007355
 608   7  10.466997   4.772322   7.535872  -0.000715   0.147698  -0.004842
 609   7  11.778026   5.015426   6.891740  -0.000706   0.147698  -0.004782
 610   7  12.421542   5.607487   5.696686  -0.000558   0.147698  -0.003779
 611   7  12.141977   6.313373   4.425321  -0.000531   0.147698  -0.003597
 612   7  11.050357   6.852745   3.582559  -0.000834   0.147698  -0.005649
 613  22   8.542818  -0.265354   4.626556  -0.000532   0.070513  -0.007541
 614  22   9.561291  -0.362522   5.122808  -0.001044   0.157379  -0.006632
 615  22  10.437903   0.070564   6.087040  -0.000927   0.157379  -0.005888
 616  22  10.551466   0.985550   7.104713  -0.001000   0.157379  -0.006352
 617  22   9.852761   1.985861   7.734747  -0.001111   0.157379  -0.007057
 618   7   9.105352  -0.291611   4.409135  -0.001012   0.153786  -0.006579
 619   7  10.375897  -0.174707   5.275722  -0.000668   0.153786  -0.004342
 620   7  10.964786   0.627036   6.454426  -0.000716   0.153786  -0.004653
 621   7  10.616783   1.766126   7.434371  -0.000828   0.153786  -0.005386
 622   7   9.794474   2.622072   7.841862  -0.000392   0.086147  -0.004548
 623  10   3.908682   1.171084   0.286528  -0.000321   0.262466  -0.001222
 624  10   4.332987   0.318017   0.938178  -0.001541   0.525814  -0.002931
 625  10   4.868682  -0.138064   1.853290  -0.000544   0.262466  -0.002074
 626   8   5.544310   0.821646  -0.503386   0.005151   0.666495   0.007729
 627   8   6.206303  -0.081111   0.577015   0.003850   0.666495   0.005777
 628  11   6.809420   5.721790  -1.875911  -0.000268   0.227609  -0.001176
 629  11   6.015551   4.818537  -2.218733  -0.000815   0.458616  -0.001777
 630  11   5.065741   3.706459  -1.807785  -0.000458   0.458616  -0.000999
 631   8   7.571372   4.579012  -2.281440   0.006433   0.557254   0.011545
 632   8   6.479253   3.322446  -2.387785   0.008345   0.557254   0.014975
 633   8   5.701261   2.400315  -1.757539   0.003654   0.280991   0.013003
 634  20  12.012530   0.573599   2.054108  -0.000146   0.217215  -0.000673
 635  20  12.566946   1.439890   1.488872  -0.000922   0.436968  -0.002110
 636  20  12.734342   2.831977   1.206483  -0.000944   0.436968  -0.002160
 637   8  11.471760   0.612750   0.704080   0.007284   0.533564   0.013652
 638   8  12.013654   1.959873   0.102157   0.006649   0.533564   0.012461
 639   8  11.975178   3.234361   0.009490   0.002617   0.268748   0.009738
 640  11   2.616177   5.791024  -0.341507  -0.000573   0.369110  -0.001553
 641   9   1.620337   5.828661   0.672563  -0.000389   0.369110  -0.001055
 642   9  -0.121713   5.409033   4.848062  -0.000684   0.332127  -0.002059
 643  15  -0.145392   5.938131   5.806106  -0.000477   0.332127  -0.001435
 644  19  -0.538299   4.888977   5.760755  -0.000418   0.332127  -0.001258
 645  15   0.989957   8.039625   4.925429   0.000204   0.300939   0.000677
 646  15   0.083884   7.187379   5.374910  -0.001018   0.602124  -0.001691
 647   9   0.641425   6.989159   3.730584  -0.001226   0.602124  -0.002035
 648   9  -0.161823   6.061458   4.224026  -0.000458   0.300939  -0.001521
 649  19  -1.131813   4.333427   5.478087  -0.000191   0.264634  -0.000722
 650  19  -1.164691   3.340676   4.899501  -0.000485   0.529056  -0.000917
 651   9  -0.576459   4.692691   3.957206  -0.000824   0.529056  -0.001558
 652   9  -0.516144   3.682562   3.411863   0.000124   0.264634   0.000468
 653  18   1.339619  -0.704791   4.351115   0.000082   0.235423   0.000347
 654  18   2.363182  -1.164973   4.447988  -0.000909   0.470889  -0.001930
 655  18   3.659133  -1.068380   4.896517  -0.001119   0.470889  -0.002376
 656  10   2.106276  -0.308417   3.132506  -0.001065   0.470889  -0.002262
 657  10   3.419267  -0.626286   3.387478  -0.001302   0.470889  -0.002764
 658  10   4.412020  -0.337115   3.834305  -0.000263   0.235423  -0.001116
 659  12   7.779970   8.093867   4.639722  -0.002627   0.321732  -0.008165
 660  16   7.470658   8.215399   5.558678  -0.001818   0.321732  -0.005651
 661  21   8.596502   7.617546   5.142544  -0.002154   0.321732  -0.006694
 662  16   6.980420   8.994056   5.661577  -0.001076   0.234964  -0.004580
 663  16   5.985578   9.456747   5.286042  -0.002198   0.470108  -0.004675
 664  16   4.871840   9.445224   4.963123  -0.000364   0.234964  -0.001548
 665  12   6.993358   8.958811   4.215529  -0.002994   0.470108  -0.006369
 666  12   5.678396   9.240171   3.779956  -0.002514   0.470108  -0.005348
 667  21   9.834164   7.534829   3.925308  -0.000898   0.264003  -0.003401
 668  21   9.432118   7.718765   4.727480  -0.001448   0.264003  -0.005485
 669  12   8.422065   8.167255   3.595481  -0.002784   0.528013  -0.005272
 670  22   8.787259   2.080175   8.013742  -0.001308   0.238433  -0.005488
 671  22   8.254017   0.957672   7.573235  -0.004548   0.477937  -0.009517
 672  13   7.531723   1.953468   8.339603  -0.003170   0.477937  -0.006633
 673  13   6.970765   0.893468   7.791757  -0.001090   0.238433  -0.004571
 674  17   4.181008   2.687975  11.058081  -0.000041   0.252492  -0.000160
 675  17   3.240468   3.057592  11.585534  -0.000817   0.504889  -0.001618
 676  17   1.958609   3.581694  11.474414  -0.000398   0.504889  -0.000789
 677  14   4.409886   4.238057  11.320996  -0.000645   0.504889  -0.001278
 678  14   3.164938   4.735484  11.685500  -0.000698   0.504889  -0.001382
 679  14   2.157691   5.153310  11.353368   0.000206   0.252492   0.000817
 680  19  -1.077448   4.715255   8.194133   0.000332   0.300768   0.001105
 681  19  -1.197839   4.820254   6.906500  -0.000667   0.601598  -0.001109
 682  15  -0.595691   6.249717   7.770993  -0.000471   0.601598  -0.000783
 683  15  -0.594583   6.308694   6.474830  -0.000214   0.300768  -0.000711
 684  21   9.242666   7.733194   5.680169  -0.000950   0.279364  -0.003402
 685  21   9.365198   7.284942   6.639993  -0.002257   0.557890  -0.004046
 686  16   7.674180   8.417706   6.651564  -0.001244   0.557890  -0.002230
 687  16   7.749453   7.899221   7.580388   0.000033   0.279364   0.000116
 688  22   7.343159  -0.204319   5.962784  -0.000734   0.260059  -0.002823
 689  22   7.201716  -0.139238   5.308668  -0.000361   0.260059  -0.001388
 690  18   4.815294  -0.834161   6.101141   0.000334   0.518348   0.000644
 =====================================================

              4977682  WORDS OF DYNAMIC MEMORY USED
 EXECUTION OF GAMESS TERMINATED NORMALLY Wed Nov 23 14:44:44 2016
 DDI: 263640 bytes (0.3 MB / 0 MWords) used by master data server.

 ----------------------------------------
 CPU timing information for all processes
 ========================================
 0: 4813.204 + 1.728 = 4814.932
 ----------------------------------------
 ddikick.x: exited gracefully.
