----- GAMESS execution script -----

          ******************************************************
          *         GAMESS VERSION =  5 DEC 2014 (R1)          *
          *             FROM IOWA STATE UNIVERSITY             *
          * M.W.SCHMIDT, K.K.BALDRIDGE, J.A.BOATZ, S.T.ELBERT, *
          *   M.S.GORDON, J.H.JENSEN, S.KOSEKI, N.MATSUNAGA,   *
          *          K.A.NGUYEN, S.J.SU, T.L.WINDUS,           *
          *       TOGETHER WITH M.DUPUIS, J.A.MONTGOMERY       *
          *         J.COMPUT.CHEM.  14, 1347-1363(1993)        *
          **************** 64 BIT LINUX VERSION ****************

 EXECUTION OF GAMESS BEGUN Wed Nov 23 14:44:47 2016

            ECHO OF THE FIRST FEW INPUT CARDS -
 INPUT CARD>! SELECT RESTRICTED HARTREE-FOCK AS DEFAULT                                     
 INPUT CARD>$contrl scftyp=rhf $end                                                         
 INPUT CARD>                                                                                
 INPUT CARD>! THEORY: HF OR DFT                                                             
 INPUT CARD> $contrl mplevl=0 $end                                                          
 INPUT CARD>                                                                                
 INPUT CARD> $system timlim=10000 mwords=20 $end                                            
 INPUT CARD> $SCF DIRSCF=.TRUE. $end                                                        
 INPUT CARD>                                                                                
 INPUT CARD>                                                                                
 INPUT CARD>! BASIS SETS                                                                    
 INPUT CARD>! 6-311G(d,p)                                                                   
 INPUT CARD> $BASIS GBASIS=N311 NGAUSS=6 NDFUNC=1 NPFUNC=1 $END                             
 INPUT CARD>                                                                                
 INPUT CARD>! One of the following                                                          
 INPUT CARD> $guess guess=HUCKEL $end                                                       
 INPUT CARD>                                                                                
 INPUT CARD> $statpt projct=.FALSE. $end                                                    
 INPUT CARD> $STATPT IFREEZ(1)=1,2,3 $END                                                   
 INPUT CARD>                                                                                
 INPUT CARD>! Optimize the geometry with COSMO effects                                      
 INPUT CARD> $statpt opttol=0.0005 nstep=50 $end                                            
 INPUT CARD> $contrl nzvar=1 $end                                                           
 INPUT CARD> $zmat dlc=.t. auto=.t. $end                                                    
 INPUT CARD> $contrl runtyp=OPTIMIZE maxit=200 $end                                         
 INPUT CARD>                                                                                
 INPUT CARD>! Run COSMO on perfect conductor                                                
 INPUT CARD> $COSGMS PRFCND=.TRUE. $end                                                     
 INPUT CARD>                                                                                
 INPUT CARD>! Specifying RSOLV                                                              
 INPUT CARD> $COSGMS COSRAD = 1.4 $end                                                      
 INPUT CARD>                                                                                
 INPUT CARD>! available memory                                                              
 INPUT CARD> $SYSTEM MWORDS=40 $END                                                         
 INPUT CARD>                                                                                
 INPUT CARD> $DATA                                                                          
 INPUT CARD>                                                                                
 INPUT CARD>C1                                                                              
 INPUT CARD>C      6.0     -3.3055000000    2.6185000000    0.8853000000                    
 INPUT CARD>C      6.0     -2.2138000000    2.0778000000   -0.0807000000                    
 INPUT CARD>C      6.0     -2.9039000000    0.6944000000    0.1022000000                    
 INPUT CARD>C      6.0     -2.0998000000    2.6878000000   -1.5013000000                    
 INPUT CARD>H      1.0     -3.0548000000    2.7253000000   -2.0573000000                    
 INPUT CARD>H      1.0     -1.3882000000    2.0918000000   -2.1112000000                    
 INPUT CARD>H      1.0     -1.7242000000    3.7309000000   -1.4335000000                    
 INPUT CARD>C      6.0     -0.7930000000    2.1155000000    0.5521000000                    
 INPUT CARD>H      1.0     -0.0882000000    1.5289000000   -0.0752000000                    
 INPUT CARD>H      1.0     -0.7216000000    1.7087000000    1.5779000000                    
 INPUT CARD>H      1.0     -0.4306000000    3.1648000000    0.5973000000                    
 INPUT CARD>C      6.0     -4.6201000000    2.8256000000    0.1235000000                    
   40000000 WORDS OF MEMORY AVAILABLE

     BASIS OPTIONS
     -------------
     GBASIS=N311         IGAUSS=       6      POLAR=POPN311 
     NDFUNC=       1     NFFUNC=       0     DIFFSP=       F
     NPFUNC=       1      DIFFS=       F     BASNAM=        


     RUN TITLE
     ---------
                                                                                 

 THE POINT GROUP OF THE MOLECULE IS C1      
 THE ORDER OF THE PRINCIPAL AXIS IS     0

 ATOM      ATOMIC                      COORDINATES (BOHR)
           CHARGE         X                   Y                   Z
 C           6.0    -6.2464892524        4.9482474988        1.6729744169
 C           6.0    -4.1834753916        3.9264726573       -0.1525008872
 C           6.0    -5.4875752957        1.3122257259        0.1931299959
 C           6.0    -3.9680466290        5.0792055098       -2.8370456254
 H           1.0    -5.7727349473        5.1500702343       -3.8877332745
 H           1.0    -2.6233176162        3.9529288211       -3.9895895053
 H           1.0    -3.2582655480        7.0503786876       -2.7089222034
 C           6.0    -1.4985527083        3.9977153270        1.0433177178
 H           1.0    -0.1666738321        2.8892020626       -0.1421073943
 H           1.0    -1.3636262727        3.2289747952        2.9817986360
 H           1.0    -0.8137160103        5.9806048059        1.1287333325
 C           6.0    -8.7307230359        5.3396097509        0.2333811595
 C           6.0    -7.8909288069        1.0882931963       -1.5191507215
 C           6.0    -9.5208174713        3.4532852700       -1.3005094248
 H           1.0    -9.0198511120       -0.5761774537       -0.9184068300
 H           1.0    -7.3147513533        0.8114483391       -3.5175359535
 C           6.0    -6.4005019204        2.2555769389        2.8132350779
 H           1.0    -4.3184018271       -0.4287788266        0.0861715050
 H           1.0    -4.9172559927        1.9762754380        4.2675681981
 H           1.0    -8.2327802381        1.5607246933        3.5772512948
 H           1.0    -5.7776482349        6.5654749991        2.9273745276
 H           1.0   -11.2676801744        3.6116443077       -2.3655589914
 C           6.0   -10.2517634834        7.7168850435        0.5158951946
 H           1.0    -9.3263646672        9.0483859744        1.8462622900
 H           1.0   -12.1605757036        7.2535242313        1.2536442203
 H           1.0   -10.4413030000        8.6604252291       -1.3485084648

          INTERNUCLEAR DISTANCES (ANGS.)




     $CONTRL OPTIONS
     ---------------
 SCFTYP=RHF          RUNTYP=OPTIMIZE     EXETYP=RUN     
 MPLEVL=       0     CITYP =NONE         CCTYP =NONE         VBTYP =NONE    
 DFTTYP=NONE         TDDFT =NONE    
 MULT  =       1     ICHARG=       0     NZVAR =       1     COORD =UNIQUE  
 PP    =NONE         RELWFN=NONE         LOCAL =NONE         NUMGRD=       F
 ISPHER=      -1     NOSYM =       0     MAXIT =     200     UNITS =ANGS    
 PLTORB=       F     MOLPLT=       F     AIMPAC=       F     FRIEND=        
 NPRINT=       7     IREST =       0     GEOM  =INPUT   
 NORMF =       0     NORMP =       0     ITOL  =      20     ICUT  =       9
 INTTYP=BEST         GRDTYP=BEST         QMTTOL= 1.0E-06

     $SYSTEM OPTIONS
     ---------------
  REPLICATED MEMORY=    40000000 WORDS (ON EVERY NODE).
 DISTRIBUTED MEMDDI=           0 MILLION WORDS IN AGGREGATE,
 MEMDDI DISTRIBUTED OVER   1 PROCESSORS IS           0 WORDS/PROCESSOR.
 TOTAL MEMORY REQUESTED ON EACH PROCESSOR=    40000000 WORDS.
 TIMLIM=       10000.00 MINUTES, OR       6.9 DAYS.
 PARALL= F  BALTYP=  DLB     KDIAG=    0  COREFL= F
 MXSEQ2=     300 MXSEQ3=     150  mem10=         0

     $COSGMS OPTIONS
     ---------------
     EPSI  =   INFTY     NSPA  =      92     COSRAD=    1.40
     DISEX =   10.00     OUTCHG=DBLCAV       COSBUG=       F
     COSWRT=       F     DCOSMO=       F

     SYMMETRY COORDINATES WILL NOT BE USED FOR 
     THE COSMO CALCULATION, EVEN IF SPECIFIED:
         -- SWITCHING TO C1 POINT GROUP --


     DEFINITION OF CAVITY
     ---------------------------
     ATOM         COORDINATES           RADIUS 
     1   -6.2465    4.9482    1.6730    2.0000
     2   -4.1835    3.9265   -0.1525    2.0000
     3   -5.4876    1.3122    0.1931    2.0000
     4   -3.9680    5.0792   -2.8370    2.0000
     5   -5.7727    5.1501   -3.8877    1.3000
     6   -2.6233    3.9529   -3.9896    1.3000
     7   -3.2583    7.0504   -2.7089    1.3000
     8   -1.4986    3.9977    1.0433    2.0000
     9   -0.1667    2.8892   -0.1421    1.3000
    10   -1.3636    3.2290    2.9818    1.3000
    11   -0.8137    5.9806    1.1287    1.3000
    12   -8.7307    5.3396    0.2334    2.0000
    13   -7.8909    1.0883   -1.5192    2.0000
    14   -9.5208    3.4533   -1.3005    2.0000
    15   -9.0199   -0.5762   -0.9184    1.3000
    16   -7.3148    0.8114   -3.5175    1.3000
    17   -6.4005    2.2556    2.8132    2.0000
    18   -4.3184   -0.4288    0.0862    1.3000
    19   -4.9173    1.9763    4.2676    1.3000
    20   -8.2328    1.5607    3.5773    1.3000
    21   -5.7776    6.5655    2.9274    1.3000
    22  -11.2677    3.6116   -2.3656    1.3000
    23  -10.2518    7.7169    0.5159    2.0000
    24   -9.3264    9.0484    1.8463    1.3000
    25  -12.1606    7.2535    1.2536    1.3000
    26  -10.4413    8.6604   -1.3485    1.3000

          ----------------
          PROPERTIES INPUT
          ----------------

     MOMENTS            FIELD           POTENTIAL          DENSITY
 IEMOM =       1   IEFLD =       0   IEPOT =       0   IEDEN =       0
 WHERE =COMASS     WHERE =NUCLEI     WHERE =NUCLEI     WHERE =NUCLEI  
 OUTPUT=BOTH       OUTPUT=BOTH       OUTPUT=BOTH       OUTPUT=BOTH    
 IEMINT=       0   IEFINT=       0                     IEDINT=       0
                                                       MORB  =       0
          EXTRAPOLATION IN EFFECT
          SOSCF IN EFFECT
 ORBITAL PRINTING OPTION: NPREO=     1   286     2     1

     -------------------------------
     INTEGRAL TRANSFORMATION OPTIONS
     -------------------------------
     NWORD  =            0
     CUTOFF = 1.0E-09     MPTRAN =       0
     DIRTRF =       T     AOINTS =DUP     

          ----------------------
          INTEGRAL INPUT OPTIONS
          ----------------------
 NOPK  =       1 NORDER=       0 SCHWRZ=       T


 -----------------------------------------------
  STATISTICS ON AUTOMATIC COORDINATE GENERATION 
 -----------------------------------------------
  NUMBER OF USER SPECIFIED BONDS                             0
  NUMBER OF BONDS                                           27
  NUMBER OF ANGLES                                          54
  NUMBER OF TORSIONS                                        85
  NUMBER OF EXTRA COORD.                                     0
  NUMBER OF EXTRA COORD. FOR CONSTRAINTS                     0
  NUMBER OF CONSTRAINED COORD.                               0

  TOTAL NUMBER OF PRIMITIVES                               166
 -----------------------------------------------

   --- ENCODED Z MATRIX ---
 COORD  TYPE   I   J   K   L   M   N
    1      1    1   2
    2      1    1  21
    3      1    1  12
    4      1    1  17
    5      1    2   4
    6      1    2   8
    7      1    2   3
    8      1    3  18
    9      1    3  13
   10      1    3  17
   11      1    4   7
   12      1    4   6
   13      1    4   5
   14      1    8  11
   15      1    8  10
   16      1    8   9
   17      1   12  14
   18      1   12  23
   19      1   13  15
   20      1   13  14
   21      1   13  16
   22      1   14  22
   23      1   17  20
   24      1   17  19
   25      1   23  26
   26      1   23  25
   27      1   23  24
   28      2    1  12  14
   29      2    1   2   8
   30      2    1  17   3
   31      2    1   2   3
   32      2    1  17  20
   33      2    1  17  19
   34      2    1  12  23
   35      2    1   2   4
   36      2    2   8  10
   37      2    2   1  17
   38      2    2   3  13
   39      2    2   3  17
   40      2    2   1  12
   41      2    2   8  11
   42      2    2   4   5
   43      2    2   8   9
   44      2    2   4   7
   45      2    2   1  21
   46      2    2   4   6
   47      2    2   3  18
   48      2    3  13  14
   49      2    3  13  15
   50      2    3   2   8
   51      2    3  17  20
   52      2    3  17  19
   53      2    3  13  16
   54      2    3   2   4
   55      2    4   2   8
   56      2    5   4   7
   57      2    5   4   6
   58      2    6   4   7
   59      2    9   8  10
   60      2    9   8  11
   61      2   10   8  11
   62      2   12   1  21
   63      2   12  23  24
   64      2   12  23  25
   65      2   12  23  26
   66      2   12  14  22
   67      2   12  14  13
   68      2   12   1  17
   69      2   13   3  17
   70      2   13   3  18
   71      2   13  14  22
   72      2   14  13  16
   73      2   14  13  15
   74      2   14  12  23
   75      2   15  13  16
   76      2   17   3  18
   77      2   17   1  21
   78      2   19  17  20
   79      2   24  23  25
   80      2   24  23  26
   81      2   25  23  26
   82      3    1  17   3   2
   83      3    1   2   3  17
   84      3    1   2   8   9
   85      3    1   2   3  13
   86      3    1  12  14  22
   87      3    1   2   8  10
   88      3    1   2   3  18
   89      3    1   2   4   5
   90      3    1   2   4   6
   91      3    1   2   4   7
   92      3    1  12  23  24
   93      3    1  17   3  13
   94      3    1   2   8  11
   95      3    1  12  23  25
   96      3    1  12  23  26
   97      3    1  17   3  18
   98      3    1  12  14  13
   99      3    2   3  17  19
  100      3    2   3  17  20
  101      3    2   1  12  23
  102      3    2   3  13  16
  103      3    2   1  17  19
  104      3    2   3  13  14
  105      3    2   3  13  15
  106      3    2   1  17   3
  107      3    2   1  17  20
  108      3    2   1  12  14
  109      3    3  17   1  12
  110      3    3  17   1  21
  111      3    3  13  14  22
  112      3    3  13  14  12
  113      3    3   2   8  10
  114      3    3   2   4   6
  115      3    3   2   1  17
  116      3    3   2   4   7
  117      3    3   2   1  12
  118      3    3   2   8   9
  119      3    3   2   4   5
  120      3    3   2   1  21
  121      3    3   2   8  11
  122      3    4   2   3  17
  123      3    4   2   3  13
  124      3    4   2   3  18
  125      3    4   2   8  10
  126      3    4   2   1  17
  127      3    4   2   8   9
  128      3    4   2   1  12
  129      3    4   2   1  21
  130      3    4   2   8  11
  131      3    5   4   2   8
  132      3    6   4   2   8
  133      3    7   4   2   8
  134      3    8   2   1  12
  135      3    8   2   3  17
  136      3    8   2   3  13
  137      3    8   2   1  21
  138      3    8   2   3  18
  139      3    8   2   1  17
  140      3   12   1  17  19
  141      3   12   1  17  20
  142      3   12  14  13  16
  143      3   12  14  13  15
  144      3   13   3  17  19
  145      3   13   3  17  20
  146      3   13  14  12  23
  147      3   14  12  23  24
  148      3   14  12   1  17
  149      3   14  13   3  17
  150      3   14  13   3  18
  151      3   14  12  23  26
  152      3   14  12  23  25
  153      3   14  12   1  21
  154      3   15  13   3  17
  155      3   15  13   3  18
  156      3   15  13  14  22
  157      3   16  13   3  17
  158      3   16  13   3  18
  159      3   16  13  14  22
  160      3   17   1  12  23
  161      3   18   3  17  19
  162      3   18   3  17  20
  163      3   19  17   1  21
  164      3   20  17   1  21
  165      3   21   1  12  23
  166      3   22  14  12  23

          INDEP./SYM. INTERNAL COORDINATES
          --------------------------------
 CRD  1=   0.1386 (  1)  0.2917 (  3) -0.1067 ( 20)  0.1427 ( 29)  0.5599 ( 34)
           0.1033 ( 54)  0.1813 ( 63) -0.4810 ( 74)  0.1093 (126)  0.1585 (128)
           0.1525 (134)  0.1149 (135)  0.1033 (139)
 CRD  2=  -0.2685 (  1)  0.1008 ( 31) -0.2374 ( 35) -0.1901 ( 40) -0.1483 ( 42)
           0.1407 ( 46) -0.1257 ( 50)  0.1684 ( 55) -0.1323 ( 65)  0.1124 ( 68)
           0.1797 (101)  0.1452 (104)  0.1029 (108) -0.1494 (109) -0.1321 (117)
           0.2247 (122)  0.2848 (123)  0.1939 (124)  0.1376 (136) -0.1262 (140)
          -0.1171 (141) -0.1359 (146)  0.1542 (150)  0.1615 (160)
 CRD  3=  -0.2888 (  7)  0.1016 ( 18) -0.1642 ( 29)  0.1096 ( 31)  0.2064 ( 34)
          -0.1111 ( 37) -0.1258 ( 38) -0.1700 ( 42)  0.1917 ( 44) -0.2652 ( 54)
           0.2367 ( 55)  0.1183 ( 63) -0.1543 ( 74)  0.1231 ( 93) -0.1427 (101)
          -0.1719 (108) -0.2393 (126) -0.2668 (128) -0.2328 (129)  0.1081 (130)
          -0.1394 (135) -0.1061 (138)  0.1001 (145) -0.1277 (153)
 CRD  4=   0.1820 (  5) -0.1357 (  7) -0.1095 (  9)  0.1785 ( 17)  0.1296 ( 18)
           0.1143 ( 20) -0.1127 ( 28) -0.1017 ( 29) -0.1084 ( 35) -0.2713 ( 36)
           0.1882 ( 41)  0.1020 ( 46) -0.2711 ( 50)  0.2797 ( 55)  0.1634 ( 74)
           0.1066 (128)  0.3164 (134) -0.1171 (135) -0.1500 (136)  0.2090 (137)
           0.2881 (139)
 CRD  5=   0.2239 (  1)  0.1510 (  3) -0.1145 (  5) -0.1218 (  7) -0.1765 (  9)
           0.1832 ( 17)  0.3595 ( 18) -0.1552 ( 28)  0.1832 ( 29) -0.1131 ( 34)
           0.1376 ( 36) -0.1965 ( 43)  0.1004 ( 48) -0.1295 ( 53) -0.1089 ( 55)
           0.1118 ( 64)  0.1840 ( 65)  0.1077 ( 66) -0.1017 ( 71)  0.2683 ( 74)
          -0.1090 ( 81)  0.2129 (135)  0.2566 (136)  0.1647 (138)
 CRD  6=  -0.2352 (  3) -0.1643 (  4) -0.1849 (  6) -0.1160 (  7) -0.1436 (  9)
          -0.1335 ( 17) -0.4187 ( 18) -0.1582 ( 20)  0.1211 ( 28) -0.1792 ( 43)
          -0.1077 ( 63) -0.2618 ( 64)  0.1228 ( 79)  0.1016 ( 80)  0.1168 ( 81)
          -0.1572 (101)  0.1032 (103) -0.1126 (108)  0.1354 (134)  0.1183 (135)
           0.1441 (136)  0.1317 (146) -0.1235 (148) -0.1680 (160)
 CRD  7=   0.6301 (  6)  0.1414 (  9) -0.1208 ( 34) -0.1146 ( 35)  0.1507 ( 36)
           0.1984 ( 41) -0.1973 ( 42)  0.1280 ( 43)  0.1304 ( 46) -0.1653 ( 59)
          -0.1662 ( 60) -0.1810 ( 61) -0.1087 ( 63)  0.1253 ( 90) -0.1187 (116)
           0.1725 (122)  0.1086 (123)  0.1064 (124) -0.1146 (126)
 CRD  8=   0.1856 (  1)  0.1524 (  4)  0.6573 (  5)  0.1685 (  7) -0.1343 (  9)
           0.1473 ( 42)  0.1881 ( 44)  0.1771 ( 46) -0.1827 ( 56) -0.1836 ( 57)
          -0.1792 ( 58) -0.1150 (117)
 CRD  9=  -0.2148 (  7) -0.1058 ( 17) -0.1507 ( 18)  0.2225 ( 41) -0.1641 ( 43)
           0.1977 ( 44) -0.2403 ( 46) -0.1145 ( 47) -0.1137 ( 49) -0.1238 ( 63)
           0.3160 ( 64) -0.3208 ( 65) -0.1013 ( 69) -0.1054 ( 72)  0.1258 ( 80)
          -0.1248 ( 98) -0.1182 (123)  0.1234 (125) -0.1353 (131) -0.1757 (146)
           0.1281 (147)  0.1452 (160)  0.1247 (165) -0.1296 (166)
 CRD 10=   0.2427 (  3)  0.1072 (  5)  0.4356 (  9)  0.1586 ( 10)  0.1252 ( 17)
           0.1355 ( 22)  0.1780 ( 24)  0.1018 ( 28)  0.1249 ( 41)  0.1673 ( 42)
          -0.1036 ( 46)  0.1630 ( 49) -0.1622 ( 63)  0.1053 ( 64)  0.1395 ( 68)
           0.1759 ( 69) -0.1251 ( 77)  0.1355 ( 93) -0.1635 (109)  0.1191 (115)
          -0.1446 (122)  0.1471 (126) -0.1097 (135)  0.1614 (139) -0.1549 (141)
           0.1336 (144)  0.1074 (145)
 CRD 11=   0.2145 (  3) -0.1781 (  7) -0.1247 (  9) -0.1353 ( 10) -0.1842 ( 17)
          -0.1181 ( 19) -0.1141 ( 20) -0.1250 ( 21) -0.1003 ( 27)  0.1134 ( 39)
          -0.1807 ( 41)  0.2433 ( 43) -0.2276 ( 44)  0.2174 ( 46)  0.2729 ( 48)
          -0.1002 ( 53)  0.1036 ( 61) -0.3435 ( 63)  0.1977 ( 65)  0.1102 ( 66)
          -0.1825 ( 67)  0.1247 ( 70) -0.1101 ( 72) -0.1016 ( 73)  0.1359 ( 75)
           0.1044 ( 79)  0.1044 ( 93)
 CRD 12=   0.1387 (  1) -0.2370 (  4) -0.1276 (  7)  0.1841 ( 10) -0.1295 ( 25)
          -0.1863 ( 41)  0.2336 ( 43) -0.2310 ( 44)  0.1852 ( 46)  0.1032 ( 63)
           0.3403 ( 64) -0.4540 ( 65) -0.1634 ( 79)  0.1296 ( 80) -0.1004 (104)
          -0.1085 (108) -0.1093 (148) -0.1263 (149)
 CRD 13=   0.1217 (  1) -0.1835 (  3)  0.1542 (  9) -0.2440 ( 17)  0.4188 ( 20)
          -0.2624 ( 44)  0.2016 ( 46) -0.1254 ( 48) -0.1063 ( 57) -0.1195 ( 62)
          -0.4235 ( 66)  0.3921 ( 71)
 CRD 14=  -0.2900 (  6)  0.1039 (  7)  0.1680 (  9) -0.1907 ( 13) -0.1011 ( 36)
          -0.5980 ( 42) -0.1136 ( 43)  0.3028 ( 44)  0.3132 ( 46)  0.1183 ( 56)
           0.1153 ( 57) -0.2598 ( 58)  0.1144 ( 59) -0.1242 ( 63)  0.1581 ( 64)
 CRD 15=  -0.1151 (  1)  0.1889 (  5) -0.1621 (  7) -0.1238 ( 14)  0.2129 ( 15)
           0.6164 ( 36) -0.3850 ( 41) -0.2686 ( 43) -0.1455 ( 59)  0.2839 ( 60)
 CRD 16=   0.1620 (  4)  0.1692 (  9)  0.1100 ( 12)  0.1260 ( 17) -0.1238 ( 20)
           0.1118 ( 27)  0.2060 ( 41) -0.2285 ( 43) -0.2873 ( 44)  0.3444 ( 46)
           0.1482 ( 56) -0.1415 ( 57)  0.1063 ( 59)  0.3440 ( 63) -0.2584 ( 64)
          -0.1028 ( 65)  0.2033 ( 66) -0.1336 ( 71) -0.1313 ( 72)  0.1461 ( 81)
 CRD 17=   0.1494 (  4) -0.1179 (  7)  0.1052 (  9)  0.4518 ( 10)  0.1125 ( 21)
           0.1844 ( 23) -0.1738 ( 30) -0.1719 ( 41)  0.2361 ( 43) -0.1269 ( 49)
           0.1303 ( 51)  0.1118 ( 52)  0.1736 ( 53)  0.1312 ( 61) -0.1709 ( 64)
           0.1825 ( 65) -0.1081 ( 72)  0.1466 ( 73) -0.1359 ( 78) -0.1041 ( 86)
          -0.1567 ( 98) -0.1127 (102)  0.1095 (103) -0.1307 (105)  0.1184 (112)
           0.1099 (140) -0.1365 (146)
 CRD 18=   0.1034 (  1) -0.1613 ( 10)  0.1504 ( 17)  0.2151 ( 20)  0.2772 ( 22)
           0.1034 ( 27) -0.2215 ( 41) -0.1073 ( 42)  0.2461 ( 43)  0.1938 ( 44)
           0.1051 ( 48) -0.1128 ( 53) -0.1175 ( 59)  0.1178 ( 61)  0.3140 ( 63)
          -0.2381 ( 64) -0.1758 ( 65) -0.2174 ( 67)  0.1546 ( 71)  0.1720 ( 81)
          -0.1130 (152)
 CRD 19=  -0.1931 (  1)  0.1857 (  3)  0.1006 (  7) -0.1546 (  9)  0.1215 ( 17)
           0.2622 ( 20)  0.2806 ( 22)  0.1277 ( 41) -0.1061 ( 43) -0.1210 ( 45)
           0.1154 ( 48) -0.1244 ( 49)  0.1106 ( 51) -0.2087 ( 53) -0.1085 ( 65)
          -0.2270 ( 67)  0.2310 ( 71)  0.1479 ( 72)  0.1226 ( 92)  0.1165 ( 95)
           0.1338 ( 96)  0.1801 (142)  0.1556 (147) -0.1158 (148)  0.1668 (151)
           0.1495 (152)  0.1134 (159)
 CRD 20=  -0.1238 (  3)  0.2013 (  4)  0.1748 (  9) -0.1362 ( 10) -0.1258 ( 41)
           0.1105 ( 43) -0.1053 ( 46)  0.2475 ( 49)  0.1075 ( 70) -0.1876 ( 73)
           0.1311 ( 86)  0.2216 ( 92)  0.2298 ( 95)  0.2303 ( 96)  0.1002 (142)
           0.2000 (143)  0.1124 (145)  0.2433 (147)  0.2520 (151)  0.2515 (152)
           0.1150 (156)  0.1103 (166)
 CRD 21=   0.1483 (  1)  0.4142 (  2)  0.2394 (  4) -0.2120 (  8)  0.1769 ( 17)
          -0.1382 ( 18)  0.1082 ( 19) -0.1150 ( 37) -0.1271 ( 48) -0.1293 ( 51)
          -0.1603 ( 63)  0.1049 ( 69) -0.1062 ( 70)  0.1057 ( 73)  0.1109 ( 85)
          -0.1095 ( 93)  0.1158 (100) -0.1033 (105)  0.1083 (107) -0.1077 (109)
          -0.1103 (113)  0.1211 (114)  0.1236 (116)  0.1224 (119) -0.1031 (121)
           0.1020 (131)  0.1007 (132)  0.1032 (133) -0.1158 (140) -0.1299 (144)
           0.1105 (148)  0.1133 (160)
 CRD 22=  -0.2852 (  4) -0.1171 (  7) -0.2843 (  8) -0.1345 (  9)  0.1148 ( 12)
          -0.1051 ( 21)  0.1051 ( 35)  0.1056 ( 46)  0.1456 ( 49) -0.1877 ( 53)
          -0.1095 ( 64)  0.1327 ( 65)  0.1097 ( 72) -0.1171 ( 77)  0.1444 ( 92)
           0.1107 ( 95)  0.1117 ( 96)  0.1436 ( 99)  0.1221 (101) -0.1174 (111)
           0.1064 (118)  0.1015 (121)  0.1320 (125)  0.1486 (127)  0.1438 (130)
           0.1397 (142)  0.1818 (147)  0.1491 (151)  0.1480 (152)  0.1360 (153)
           0.1722 (165)
 CRD 23=  -0.1757 (  1) -0.3820 (  2) -0.1250 (  3)  0.1049 (  6) -0.4330 (  8)
          -0.1741 ( 22)  0.1368 ( 23) -0.1423 ( 30)  0.1130 ( 32) -0.1261 ( 42)
          -0.1155 ( 45)  0.1022 ( 69) -0.1021 ( 76)  0.1154 (100) -0.1343 (103)
          -0.1069 (107)  0.1014 (126) -0.1040 (153)
 CRD 24=  -0.1510 (  1)  0.1117 (  3) -0.1459 (  4) -0.1450 (  7)  0.2393 (  9)
          -0.1419 ( 10)  0.1003 ( 19)  0.1156 ( 22)  0.1243 ( 23) -0.2865 ( 24)
           0.1357 ( 32) -0.1349 ( 33) -0.1299 ( 47)  0.1417 ( 62)  0.1112 ( 64)
          -0.1071 ( 68)  0.1338 ( 70) -0.1037 ( 81) -0.1245 ( 82)  0.1232 ( 83)
           0.1575 ( 88) -0.1572 ( 93) -0.2326 ( 97)  0.1236 (106)  0.1014 (109)
           0.1675 (110) -0.1226 (115) -0.1327 (120)  0.1018 (122)  0.1361 (124)
          -0.1130 (126) -0.1231 (129)  0.1044 (138)  0.1016 (163)  0.1242 (164)
 CRD 25=  -0.2036 (  2)  0.1318 ( 14) -0.1294 ( 19) -0.1933 ( 23)  0.1624 ( 24)
          -0.1312 ( 25) -0.1011 ( 27) -0.1306 ( 49) -0.1063 ( 51)  0.1250 ( 52)
           0.1198 ( 53)  0.1060 ( 63) -0.1195 ( 79)  0.2126 ( 89)  0.2426 ( 90)
           0.2381 ( 91)  0.1071 (103) -0.1328 (110)  0.2133 (114)  0.2087 (116)
           0.1833 (119)  0.2252 (131)  0.2552 (132)  0.2506 (133) -0.1123 (142)
          -0.1159 (143)
 CRD 26=  -0.1629 (  4) -0.1821 (  8) -0.1217 ( 10) -0.1634 ( 12) -0.1130 ( 19)
           0.1780 ( 21) -0.2295 ( 23) -0.1091 ( 26) -0.1311 ( 49)  0.1379 ( 53)
          -0.1864 ( 84) -0.1568 ( 87) -0.1197 ( 90) -0.1282 ( 91)  0.1010 ( 92)
          -0.2025 ( 94) -0.1328 (113) -0.1409 (114) -0.1493 (116) -0.1624 (118)
          -0.1116 (119) -0.1786 (121) -0.1367 (125) -0.1663 (127) -0.1003 (129)
          -0.1825 (130) -0.1042 (131) -0.1334 (132) -0.1419 (133) -0.1079 (137)
          -0.1034 (142) -0.1015 (143)  0.1146 (153)  0.1021 (165)
 CRD 27=  -0.2630 (  8) -0.1283 ( 10) -0.1309 ( 11) -0.2512 ( 19)  0.3634 ( 21)
           0.1213 ( 53) -0.1360 ( 76)  0.1797 ( 84)  0.1666 ( 87)  0.1211 ( 88)
           0.1731 ( 94)  0.1218 (111)  0.1901 (113)  0.2031 (118)  0.1966 (121)
           0.1208 (124)  0.1910 (125)  0.2040 (127)  0.1975 (130)  0.1354 (138)
          -0.1095 (142) -0.1544 (150)  0.1092 (154)  0.1150 (157)
 CRD 28=   0.1708 (  2) -0.1847 (  8)  0.1214 ( 11)  0.1852 ( 12)  0.1625 ( 13)
           0.1620 ( 15)  0.1539 ( 16)  0.1316 ( 24) -0.3737 ( 25) -0.2991 ( 26)
          -0.3387 ( 27)  0.1574 ( 63)  0.1862 ( 64)  0.1130 ( 65) -0.2010 ( 79)
          -0.1200 ( 80) -0.1468 ( 81)
 CRD 29=   0.1128 ( 11)  0.1765 ( 12)  0.1695 ( 13)  0.1940 ( 19) -0.1729 ( 21)
           0.2493 ( 26)  0.1645 ( 27) -0.1540 ( 49)  0.1544 ( 53) -0.1502 ( 65)
          -0.2102 ( 72)  0.2209 ( 73)  0.1743 ( 80)  0.1154 ( 86)  0.1640 ( 95)
           0.1685 ( 96)  0.1173 ( 98) -0.1399 (111) -0.1418 (112) -0.1917 (142)
          -0.1954 (143)  0.1714 (146)  0.1046 (149)  0.1120 (151)  0.1076 (152)
          -0.1935 (156) -0.1897 (159)  0.1695 (166)
 CRD 30=   0.1150 (  6) -0.2444 ( 11) -0.2266 ( 12) -0.2243 ( 13)  0.3747 ( 14)
           0.3967 ( 15)  0.3833 ( 16)  0.1472 ( 19) -0.1249 ( 21)  0.1281 ( 26)
           0.1045 ( 27) -0.1702 ( 36) -0.1499 ( 41)  0.1154 ( 42) -0.1439 ( 43)
          -0.1076 ( 56) -0.1141 ( 57)  0.1768 ( 59)  0.1405 ( 60)  0.1802 ( 61)
 CRD 31=  -0.1260 (  2)  0.1236 (  5)  0.3620 ( 11)  0.3063 ( 12)  0.3857 ( 13)
           0.2592 ( 14)  0.2556 ( 15)  0.2112 ( 16) -0.1234 ( 19)  0.1440 ( 21)
           0.1672 ( 25)  0.1275 ( 27) -0.1297 ( 42) -0.1037 ( 43) -0.1227 ( 44)
          -0.1473 ( 46)  0.1335 ( 56)  0.1543 ( 57)  0.1376 ( 58)  0.1060 ( 59)
 CRD 32=   0.1101 (  6)  0.2082 (  8)  0.1287 ( 14)  0.1246 ( 16) -0.1514 ( 18)
           0.2748 ( 23) -0.3546 ( 24) -0.1545 ( 25) -0.1655 ( 26) -0.1604 ( 27)
           0.1311 ( 51) -0.2182 ( 52) -0.2250 (103) -0.1886 (107) -0.2345 (140)
          -0.1981 (141)  0.1207 (144) -0.1787 (163) -0.1422 (164)
 CRD 33=   0.1033 ( 19) -0.1143 ( 23)  0.1984 ( 25)  0.3686 ( 26) -0.5417 ( 27)
          -0.1189 ( 79) -0.2715 ( 80)  0.3920 ( 81)  0.1774 ( 95) -0.2553 ( 96)
          -0.2398 (151)  0.1928 (152)
 CRD 34=   0.2581 ( 19) -0.2758 ( 23) -0.4208 ( 25)  0.2043 ( 26)  0.1867 ( 27)
          -0.1224 ( 32)  0.1415 ( 33)  0.3229 ( 79) -0.1884 ( 80) -0.1339 ( 81)
           0.1542 ( 92) -0.1983 ( 95) -0.1515 ( 99) -0.1222 (100) -0.1092 (102)
          -0.1394 (144) -0.1102 (145)  0.1933 (147) -0.1592 (152) -0.1024 (158)
          -0.1445 (161) -0.1152 (162)
 CRD 35=  -0.2654 ( 19)  0.2564 ( 23) -0.3678 ( 25)  0.4387 ( 26)  0.1307 ( 32)
          -0.1459 ( 33)  0.2191 ( 79) -0.2421 ( 80)  0.2093 ( 92)  0.1537 ( 99)
           0.1244 (100)  0.1063 (102)  0.1403 (144)  0.1110 (145)  0.1844 (147)
          -0.1017 (151)  0.1498 (161)  0.1205 (162)
 CRD 36=   0.1950 ( 11)  0.1006 ( 12) -0.2325 ( 13) -0.3079 ( 14)  0.4397 ( 15)
          -0.1770 ( 16) -0.2802 ( 19) -0.2612 ( 21) -0.1615 ( 23) -0.2017 ( 24)
           0.1210 ( 58)  0.1565 ( 59) -0.2586 ( 60)  0.1008 ( 61) -0.1060 ( 75)
           0.1625 ( 84) -0.1132 ( 94)  0.1475 (118) -0.1281 (121)  0.1563 (127)
          -0.1193 (130)
 CRD 37=   0.1040 ( 14) -0.3439 ( 15)  0.3003 ( 16) -0.4266 ( 19) -0.4690 ( 21)
          -0.1976 ( 23) -0.1550 ( 24)  0.1823 ( 60) -0.1371 ( 61) -0.1810 ( 75)
           0.1274 ( 94) -0.1208 (105)  0.1270 (121)  0.1289 (130)  0.1211 (143)
          -0.1117 (154) -0.1174 (155)  0.1090 (156)
 CRD 38=  -0.3125 ( 11) -0.3024 ( 12)  0.5544 ( 13) -0.1453 ( 14)  0.2212 ( 15)
          -0.1146 ( 16) -0.1099 ( 21)  0.1556 ( 56)  0.1604 ( 57) -0.3121 ( 58)
          -0.1295 ( 60) -0.1777 ( 90)  0.1633 ( 91) -0.1644 (114)  0.1767 (116)
          -0.1711 (132)  0.1700 (133)
 CRD 39=  -0.3856 ( 11)  0.4087 ( 12)  0.3572 ( 14) -0.3487 ( 16) -0.1281 ( 19)
          -0.1246 ( 21) -0.2161 ( 56)  0.2063 ( 57) -0.1924 ( 59)  0.1912 ( 61)
           0.1356 ( 87)  0.1443 ( 89)  0.1337 (113)  0.1449 (119)  0.1265 (125)
           0.1349 (131) -0.1000 (133)
 CRD 40=  -0.3539 ( 11)  0.3624 ( 12) -0.3848 ( 14)  0.3980 ( 16) -0.2027 ( 56)
           0.2018 ( 57)  0.2130 ( 59) -0.2180 ( 61) -0.1765 ( 87)  0.1567 ( 89)
          -0.1775 (113)  0.1577 (119) -0.2055 (125)  0.1893 (131)
 CRD 41=  -0.1612 ( 19) -0.2858 ( 21)  0.4169 ( 23)  0.5611 ( 24) -0.1657 ( 32)
          -0.1568 ( 52) -0.1261 ( 75)  0.2053 ( 78) -0.1800 (100) -0.1258 (103)
          -0.1333 (140) -0.1955 (145) -0.1895 (162) -0.1387 (163)
 CRD 42=  -0.1419 (  1)  0.1114 (  7) -0.1724 ( 10)  0.1033 ( 19)  0.1184 ( 23)
           0.1415 ( 24) -0.1970 ( 33) -0.1684 ( 51) -0.1059 ( 72)  0.1665 ( 78)
           0.1713 ( 99) -0.2064 (102) -0.1560 (105)  0.1248 (107)  0.1294 (112)
           0.1359 (141)  0.1629 (142)  0.1122 (143)  0.2418 (144) -0.1396 (149)
          -0.1281 (150) -0.1972 (154) -0.1858 (155) -0.2476 (157) -0.2362 (158)
           0.1278 (159)  0.2070 (161)  0.1695 (164)
 CRD 43=   0.3855 (  2) -0.1230 (  8) -0.1049 ( 17)  0.2517 ( 18) -0.2743 ( 20)
           0.1033 ( 23)  0.1443 ( 25)  0.1372 ( 26)  0.2789 ( 27)  0.1575 ( 28)
          -0.1826 ( 34)  0.1860 ( 63) -0.2086 ( 66) -0.1024 ( 67)  0.3110 ( 71)
           0.1224 ( 75) -0.1362 ( 79) -0.1402 ( 80) -0.1357 (140) -0.1375 (141)
          -0.1070 (163) -0.1088 (164)
 CRD 44=  -0.2468 (  2) -0.3683 (  3) -0.1365 (  8)  0.1363 ( 17)  0.5554 ( 22)
           0.1461 ( 23) -0.1838 ( 24)  0.1592 ( 25)  0.1535 ( 26)  0.1210 ( 34)
          -0.1274 ( 62)  0.1231 ( 64)  0.1258 ( 65)  0.1046 ( 66) -0.1908 ( 74)
          -0.1470 ( 81) -0.1193 (110)  0.1229 (120) -0.1240 (163) -0.1083 (164)
 CRD 45=  -0.3007 (  3)  0.1929 (  8) -0.1178 (  9) -0.1104 ( 11) -0.2477 ( 13)
           0.2452 ( 15)  0.1001 ( 16)  0.2130 ( 22) -0.1207 ( 23)  0.1920 ( 24)
           0.1008 ( 26)  0.1015 ( 35)  0.1659 ( 36) -0.1713 ( 42) -0.1095 ( 44)
           0.1748 ( 56)  0.1570 ( 57) -0.1709 ( 59) -0.1466 ( 61) -0.1270 ( 76)
          -0.1126 ( 77)  0.1632 ( 88) -0.1390 (120)
 CRD 46=   0.1214 (  1)  0.1580 (  3)  0.1461 (  7) -0.2140 (  8) -0.1392 ( 11)
          -0.1693 ( 12) -0.1125 ( 14) -0.1494 ( 16)  0.1936 ( 19) -0.1982 ( 21)
           0.2138 ( 23) -0.1674 ( 24) -0.1013 ( 25) -0.1063 ( 43) -0.1011 ( 44)
           0.1221 ( 45) -0.1162 ( 46)  0.1137 ( 47)  0.1817 ( 58)  0.1491 ( 60)
          -0.1157 ( 77) -0.1698 ( 86)  0.1302 ( 97) -0.1337 (110)  0.1785 (111)
           0.1017 (124) -0.1182 (129) -0.1514 (150)  0.1825 (153) -0.1076 (155)
           0.1642 (156) -0.1296 (158)  0.1224 (159)  0.1097 (162) -0.1432 (164)
           0.1100 (165)
 CRD 47=  -0.3363 (  2)  0.3983 (  8)  0.1322 (  9) -0.1377 ( 11)  0.1124 ( 12)
          -0.1673 ( 14)  0.1545 ( 17) -0.1821 ( 20) -0.2513 ( 22)  0.1402 ( 28)
          -0.1101 ( 57)  0.1282 ( 61) -0.1119 ( 70)  0.1069 ( 71)  0.1416 (125)
          -0.1461 (131)  0.1111 (134) -0.1316 (140) -0.1261 (144)  0.1111 (162)
 CRD 48=   0.1699 (  2)  0.1303 (  9) -0.2063 ( 17) -0.1610 ( 18)  0.2292 ( 20)
          -0.2725 ( 22)  0.1291 ( 25)  0.2015 ( 26)  0.1438 ( 28) -0.1164 ( 49)
          -0.1005 ( 53)  0.1370 ( 63)  0.1422 ( 64)  0.1290 ( 65)  0.3916 ( 66)
          -0.1285 ( 67) -0.2628 ( 71)  0.1426 ( 72)  0.1297 ( 73) -0.1707 ( 74)
          -0.1439 ( 79) -0.1802 ( 81)  0.1030 (102) -0.1028 (155)  0.1103 (157)
 CRD 49=  -0.1600 (  1) -0.2178 (  5) -0.1143 (  6) -0.1256 (  7)  0.1774 ( 11)
           0.1999 ( 12)  0.1517 ( 13)  0.1316 ( 14)  0.1388 ( 16)  0.1545 ( 19)
          -0.1402 ( 21)  0.1075 ( 22) -0.1836 ( 25)  0.1527 ( 42)  0.1750 ( 44)
           0.1778 ( 46) -0.1575 ( 56) -0.1763 ( 57) -0.2056 ( 58) -0.1636 ( 60)
           0.1337 ( 80) -0.2268 ( 86)  0.1184 ( 95)  0.1094 ( 96)  0.2072 (111)
          -0.1040 (137) -0.1178 (147)  0.1118 (153)  0.1695 (156)  0.1393 (159)
          -0.1052 (166)
 CRD 50=   0.2044 (  3) -0.1728 (  9) -0.5151 ( 17) -0.1860 ( 18)  0.1401 ( 20)
           0.1055 ( 21)  0.3277 ( 22)  0.2680 ( 27) -0.1026 ( 34)  0.1339 ( 49)
           0.1314 ( 53)  0.1307 ( 63)  0.1250 ( 67) -0.1513 ( 71)  0.1382 ( 74)
          -0.1527 ( 75) -0.1509 ( 79) -0.1596 ( 80) -0.1076 (142)  0.1107 (143)
           0.1082 (156) -0.1101 (159)
 CRD 51=  -0.1309 (  2)  0.1513 (  3) -0.4762 (  6) -0.1269 (  8)  0.1769 ( 14)
           0.2707 ( 15)  0.1912 ( 16) -0.1483 ( 22)  0.1636 ( 23) -0.1940 ( 24)
           0.2005 ( 36)  0.2145 ( 41)  0.2152 ( 43) -0.2477 ( 59) -0.1904 ( 60)
          -0.2369 ( 61)
 CRD 52=   0.1871 (  1) -0.1555 (  2)  0.1136 (  4) -0.2407 (  5)  0.1250 (  7)
          -0.1523 (  8)  0.1203 ( 10)  0.1148 ( 13)  0.2696 ( 17) -0.5015 ( 18)
           0.1890 ( 25)  0.1068 ( 26)  0.1166 ( 27) -0.1062 ( 56)  0.1429 ( 63)
           0.1583 ( 64)  0.1442 ( 65) -0.1266 ( 66)  0.1075 ( 71) -0.1121 ( 73)
          -0.1158 ( 79) -0.1728 ( 80) -0.1681 ( 81)
 CRD 53=  -0.3943 (  5)  0.1001 ( 11)  0.1734 ( 13)  0.1473 ( 15) -0.1199 ( 17)
           0.1826 ( 18)  0.1700 ( 25) -0.2825 ( 26)  0.1154 ( 42)  0.1160 ( 44)
           0.1218 ( 46) -0.1561 ( 56) -0.1329 ( 57)  0.1084 ( 60)  0.1003 ( 72)
          -0.1014 ( 76)  0.2033 ( 79) -0.1108 ( 80) -0.1220 ( 84)  0.1207 ( 86)
          -0.1259 ( 95) -0.1435 ( 96)  0.1920 (147) -0.1379 (150) -0.1178 (155)
          -0.1349 (156)
 CRD 54=   0.1538 (  1) -0.1624 (  4)  0.1727 (  5) -0.3098 (  7)  0.1438 (  8)
           0.1012 ( 10)  0.1401 ( 11) -0.2054 ( 12)  0.1846 ( 14) -0.1067 ( 18)
           0.1784 ( 19) -0.1526 ( 20) -0.1196 ( 21)  0.1776 ( 57)  0.1282 ( 59)
           0.1545 ( 84) -0.1274 ( 90) -0.1203 ( 91)  0.1268 (100)  0.1178 (107)
          -0.1221 (114) -0.1150 (116)  0.1176 (118)  0.1300 (131) -0.1086 (150)
          -0.1145 (153)  0.1549 (162)  0.1397 (164)
 CRD 55=   0.1666 (  1) -0.1574 (  5) -0.1003 (  6)  0.1111 (  9)  0.1260 ( 13)
           0.1590 ( 15) -0.1341 ( 16) -0.2086 ( 19) -0.1715 ( 20)  0.1776 ( 21)
           0.1313 ( 22) -0.2555 ( 25)  0.1195 ( 26)  0.1277 ( 27) -0.1650 ( 53)
          -0.1264 ( 56) -0.1338 ( 61)  0.1010 ( 67)  0.1731 ( 73) -0.1726 ( 79)
          -0.1439 ( 92)  0.1099 ( 94)  0.1281 ( 95) -0.1695 (105) -0.1024 (111)
          -0.1352 (116)  0.1630 (121)  0.1050 (130)  0.1961 (142) -0.1808 (147)
          -0.1341 (154) -0.1059 (155)  0.1069 (159)
 CRD 56=   0.1402 (  5) -0.1958 (  6)  0.1216 (  7)  0.1615 (  9) -0.1732 ( 11)
           0.1581 ( 13)  0.1587 ( 16) -0.1399 ( 20) -0.1701 ( 21)  0.1599 ( 22)
          -0.1350 ( 26)  0.1420 ( 27) -0.1779 ( 49)  0.1717 ( 58) -0.1423 ( 60)
           0.1628 ( 67) -0.1114 ( 71)  0.1399 ( 72)  0.1380 ( 75) -0.1132 ( 80)
           0.1590 ( 90) -0.1006 ( 94)  0.1228 ( 99) -0.1319 (107)  0.1200 (114)
          -0.1364 (121) -0.1001 (130)  0.1267 (132) -0.2008 (143)  0.1202 (144)
          -0.1490 (156)  0.1504 (159)
 CRD 57=  -0.1755 (  6) -0.1664 (  9) -0.1359 ( 11) -0.1656 ( 12)  0.2843 ( 13)
          -0.1250 ( 23)  0.1316 ( 24)  0.1362 ( 26) -0.2386 ( 27) -0.1098 ( 56)
           0.2250 ( 58)  0.1000 ( 63)  0.1155 ( 80) -0.1470 ( 81)  0.2029 ( 90)
          -0.1240 ( 91) -0.1203 ( 95)  0.1464 ( 96)  0.1472 (100) -0.1447 (103)
           0.1155 (114) -0.2114 (116)  0.1583 (132) -0.1686 (133)  0.1470 (151)
          -0.1196 (152)  0.1120 (162)
 CRD 58=  -0.1688 (  1)  0.1296 (  2)  0.1162 (  3)  0.1121 (  8) -0.2516 ( 10)
          -0.2452 ( 18) -0.2378 ( 20)  0.1475 ( 21)  0.1209 ( 22)  0.2214 ( 23)
           0.1456 ( 25) -0.1129 ( 27) -0.1957 ( 28)  0.1050 ( 40)  0.1614 ( 52)
          -0.1120 ( 62)  0.1178 ( 63) -0.1766 ( 66)  0.1281 ( 67)  0.1702 ( 74)
          -0.1565 ( 78) -0.1459 ( 81) -0.1426 ( 95)  0.1257 (103) -0.1085 (105)
           0.2295 (140) -0.1462 (152)  0.1063 (153) -0.1050 (155) -0.1312 (164)
           0.1040 (165)  0.1017 (166)
 CRD 59=  -0.1617 (  3) -0.1656 (  9) -0.1184 ( 10)  0.1934 ( 17)  0.1087 ( 20)
           0.1156 ( 21) -0.1447 ( 22) -0.1210 ( 25) -0.1803 ( 26)  0.2930 ( 27)
           0.1794 ( 34)  0.1230 ( 49) -0.1919 ( 63)  0.1060 ( 64) -0.1496 ( 67)
          -0.1075 ( 72) -0.2134 ( 74) -0.1295 ( 78) -0.1204 ( 80)  0.2120 ( 81)
           0.1508 ( 95) -0.2232 ( 96)  0.1282 (143) -0.2286 (151)  0.1455 (152)
          -0.1145 (164)
 CRD 60=  -0.1044 ( 10)  0.1963 ( 15) -0.1323 ( 16)  0.1659 ( 17) -0.1023 ( 18)
           0.1874 ( 19) -0.1858 ( 20) -0.1500 ( 23) -0.1349 ( 33)  0.1022 ( 39)
           0.1456 ( 60)  0.1125 ( 71) -0.1863 ( 75)  0.1375 ( 78) -0.1222 ( 84)
           0.1178 ( 94)  0.1664 ( 99) -0.1149 (100) -0.1083 (105)  0.1142 (111)
           0.1482 (121) -0.1123 (127)  0.1277 (130) -0.1035 (134) -0.1533 (142)
           0.1875 (144)  0.1397 (156)  0.1951 (157)  0.2045 (158)  0.1918 (161)
 CRD 61=   0.1091 (  2) -0.1983 (  4) -0.1090 (  7) -0.1719 ( 14)  0.1208 ( 16)
          -0.2182 ( 25)  0.1960 ( 26) -0.1220 ( 59)  0.1444 ( 65) -0.1667 ( 79)
           0.1204 ( 80) -0.1317 ( 84) -0.2106 ( 92)  0.1023 ( 97)  0.1846 (101)
          -0.1018 (111)  0.1016 (113) -0.1173 (118)  0.1255 (120)  0.1037 (125)
          -0.1152 (127)  0.1048 (129) -0.1093 (134) -0.1825 (146) -0.1144 (147)
          -0.1614 (150)  0.1153 (151)  0.1683 (152) -0.1502 (156) -0.1008 (158)
          -0.1293 (159)  0.1300 (160)  0.1263 (163)
 CRD 62=   0.2565 ( 11) -0.2582 ( 12) -0.2243 ( 14)  0.2131 ( 16) -0.1186 ( 44)
           0.1170 ( 46) -0.1875 ( 56)  0.1886 ( 57) -0.1638 ( 59)  0.1552 ( 61)
           0.2299 ( 87)  0.2426 ( 89)  0.2283 (113)  0.2402 (119)  0.2740 (125)
           0.2767 (131)
 CRD 63=  -0.1431 (  1)  0.1472 (  2) -0.2193 (  4)  0.1134 (  5) -0.1058 ( 14)
           0.1743 ( 15) -0.1493 ( 19)  0.1641 ( 20)  0.1176 ( 33) -0.1211 ( 36)
          -0.1244 ( 48) -0.1126 ( 55)  0.1332 ( 60) -0.1018 ( 70)  0.1895 ( 75)
          -0.1015 ( 84)  0.1335 ( 94) -0.1028 ( 99) -0.1670 (102) -0.1410 (118)
          -0.1356 (127) -0.1356 (134)  0.1325 (136)  0.1407 (141) -0.1407 (144)
           0.1752 (155) -0.1736 (157)  0.1723 (159) -0.1222 (160) -0.1317 (161)
 CRD 64=   0.1667 (  2) -0.1059 (  8)  0.1230 (  9)  0.2227 ( 10)  0.1525 ( 16)
          -0.1263 ( 20)  0.1049 ( 37) -0.1005 ( 43) -0.1540 ( 52)  0.1080 ( 61)
          -0.1407 ( 77)  0.1342 ( 78) -0.1376 ( 94)  0.1066 ( 97) -0.1800 (103)
           0.1561 (107)  0.1252 (109)  0.1490 (113) -0.1017 (117) -0.1674 (130)
           0.1106 (133) -0.1458 (136) -0.1492 (138)  0.2663 (141) -0.1159 (148)
          -0.1069 (154) -0.1150 (155) -0.1474 (160)  0.1072 (162) -0.1764 (163)
           0.1597 (164)
 CRD 65=   0.1253 (  1) -0.2019 (  3) -0.1355 (  8)  0.1693 (  9) -0.1288 ( 10)
           0.1549 ( 24)  0.1191 ( 30) -0.1123 ( 37) -0.1218 ( 45)  0.1611 ( 62)
          -0.1106 ( 69)  0.1415 ( 76) -0.1620 ( 78) -0.1223 ( 85) -0.1546 ( 88)
           0.1004 ( 94)  0.1137 ( 97)  0.1166 (100) -0.1753 (107)  0.2350 (110)
          -0.1618 (120) -0.1765 (129)  0.1184 (135) -0.2004 (137) -0.1695 (141)
           0.1996 (145) -0.1345 (154)  0.2204 (162)  0.2370 (163)
 CRD 66=   0.1852 (  3) -0.1646 (  4) -0.1328 (  6) -0.1321 (  9)  0.1158 ( 12)
          -0.1169 ( 13)  0.1964 ( 24)  0.1894 ( 32) -0.1204 ( 62)  0.1216 ( 70)
           0.1314 ( 88)  0.1151 ( 91) -0.1583 ( 97)  0.2152 (100) -0.1370 (110)
          -0.1341 (114) -0.1419 (119)  0.1562 (120)  0.1519 (122)  0.2220 (124)
          -0.1214 (126)  0.1380 (133)  0.1264 (138) -0.1177 (139)  0.1891 (145)
          -0.1133 (154) -0.2132 (163) -0.2499 (164)
 CRD 67=   0.1205 (  4) -0.1048 (  6)  0.1686 (  9)  0.1051 ( 11) -0.1044 ( 13)
          -0.1098 ( 21) -0.1705 ( 23)  0.1085 ( 24) -0.1226 ( 33)  0.1182 ( 39)
          -0.1090 ( 48)  0.1585 ( 51) -0.1787 ( 70)  0.1131 ( 75)  0.1009 ( 86)
          -0.1036 ( 88)  0.1273 ( 89)  0.1259 ( 91) -0.1337 ( 93)  0.1322 ( 97)
           0.1301 ( 99) -0.1096 (102)  0.1304 (109) -0.1286 (114)  0.1036 (123)
          -0.1373 (126) -0.1422 (129) -0.1363 (132)  0.1910 (154) -0.1567 (156)
          -0.1095 (158)  0.3062 (161)  0.1836 (162) -0.1348 (163) -0.1380 (164)
           0.1115 (165)
 CRD 68=  -0.1693 (  1)  0.1742 ( 19) -0.1141 ( 21) -0.1182 ( 49)  0.1257 ( 72)
          -0.1002 ( 73) -0.1393 ( 77)  0.1850 ( 86) -0.1544 ( 92)  0.1069 ( 93)
           0.1132 ( 94)  0.1180 (102) -0.1265 (104)  0.2131 (112) -0.1146 (120)
          -0.1090 (129) -0.1624 (137)  0.1343 (141)  0.1383 (145) -0.1528 (146)
          -0.2193 (149)  0.1324 (153)  0.1263 (155) -0.2072 (156)  0.2030 (158)
          -0.2475 (159) -0.1478 (161) -0.1103 (163)  0.2270 (165)
 CRD 69=   0.1738 (  4)  0.1613 (  5) -0.1843 (  7)  0.1754 ( 10) -0.1037 ( 35)
           0.1303 ( 38)  0.1256 ( 50) -0.1834 ( 76) -0.1110 ( 83) -0.1302 ( 85)
           0.1324 ( 87)  0.1067 ( 88)  0.1527 ( 94)  0.1125 ( 99) -0.1224 (101)
           0.1030 (104) -0.1200 (111)  0.1125 (115)  0.1103 (117) -0.1599 (118)
           0.1922 (124) -0.1049 (127) -0.2192 (137)  0.2317 (138) -0.1829 (145)
           0.1139 (149) -0.1116 (150) -0.1035 (151) -0.1028 (152) -0.1657 (155)
          -0.1746 (158)  0.1475 (166)
 CRD 70=  -0.1031 (  1) -0.1039 (  2)  0.1290 (  3)  0.1974 (  6) -0.1907 (  7)
           0.1294 (  9)  0.1045 ( 13)  0.1185 ( 31) -0.1023 ( 40) -0.1197 ( 42)
           0.1499 ( 45)  0.1431 ( 47)  0.1126 ( 54) -0.1238 ( 55) -0.1483 ( 82)
           0.1285 ( 83) -0.1865 ( 89) -0.2359 ( 91)  0.1628 (106)  0.2181 (114)
          -0.1314 (115) -0.1558 (123) -0.1599 (124)  0.1962 (128)  0.2009 (129)
           0.1227 (132) -0.1185 (139)  0.1494 (161)  0.1683 (162) -0.1122 (163)
          -0.1657 (164)
 CRD 71=   0.1848 (  1) -0.1095 (  7)  0.1017 (  8) -0.1506 ( 10) -0.1023 ( 29)
          -0.1235 ( 35) -0.1042 ( 43) -0.1081 ( 46) -0.1160 ( 47)  0.1238 ( 54)
           0.1011 ( 85)  0.1955 ( 87) -0.1970 ( 89) -0.1456 (102) -0.1661 (104)
           0.2397 (113) -0.1067 (114)  0.1005 (118) -0.2464 (119)  0.1130 (122)
           0.2374 (123) -0.1681 (127)  0.1457 (128) -0.1865 (130)  0.1658 (132)
           0.1887 (133) -0.1407 (135) -0.1357 (137) -0.2052 (138)  0.1248 (155)
 CRD 72=   0.2303 ( 92)  0.1277 ( 95)  0.1272 ( 96) -0.3132 ( 98) -0.1121 (104)
           0.2504 (108)  0.2369 (112) -0.1107 (128)  0.1464 (142)  0.1471 (143)
          -0.1231 (147)  0.2311 (148) -0.1067 (149) -0.2263 (151) -0.2258 (152)
          -0.1641 (156) -0.1648 (159) -0.1114 (160) -0.2547 (165)  0.3404 (166)

 THE DETERMINANT OF THE G MATRIX IS 10**(   -23)


                     --------------------
                     INTERNAL COORDINATES
                     --------------------

                 - - ATOMS - -         COORDINATE      COORDINATE
 NO.   TYPE    I  J  K  L  M  N        (BOHR,RAD)       (ANG,DEG)
 ----------------------------------------------------------------
   1 STRETCH   1  2                     2.9380963       1.5547737
   2 STRETCH   1 21                     2.0997039       1.1111155
   3 STRETCH   1 12                     2.8977596       1.5334284
   4 STRETCH   1 17                     2.9282058       1.5495399
   5 STRETCH   2  4                     2.9295022       1.5502259
   6 STRETCH   2  8                     2.9400455       1.5558052
   7 STRETCH   2  3                     2.9418403       1.5567550
   8 STRETCH   3 18                     2.0998818       1.1112097
   9 STRETCH   3 13                     2.9594187       1.5660571
  10 STRETCH   3 17                     2.9305797       1.5507961
  11 STRETCH   4  7                     2.0989827       1.1107339
  12 STRETCH   4  6                     2.0988456       1.1106613
  13 STRETCH   4  5                     2.0894655       1.1056976
  14 STRETCH   8 11                     2.0995590       1.1110388
  15 STRETCH   8 10                     2.0897070       1.1058254
  16 STRETCH   8  9                     2.0995084       1.1110121
  17 STRETCH  12 14                     2.5564212       1.3528000
  18 STRETCH  12 23                     2.8363385       1.5009258
  19 STRETCH  13 15                     2.0990048       1.1107456
  20 STRETCH  13 14                     2.8805431       1.5243179
  21 STRETCH  13 16                     2.0981342       1.1102849
  22 STRETCH  14 22                     2.0520569       1.0859018
  23 STRETCH  17 20                     2.1032794       1.1130076
  24 STRETCH  17 19                     2.0959753       1.1091425
  25 STRETCH  23 26                     2.0981407       1.1102883
  26 STRETCH  23 25                     2.0982233       1.1103320
  27 STRETCH  23 24                     2.0974113       1.1099024
  28 BEND      1 12 14                  2.0526098     117.6058793
  29 BEND      1  2  8                  1.9606939     112.3394868
  30 BEND      1 17  3                  1.5022135      86.0704957
  31 BEND      1  2  3                  1.4955066      85.6862183
  32 BEND      1 17 20                  2.0841067     119.4105157
  33 BEND      1 17 19                  1.9342600     110.8249370
  34 BEND      1 12 23                  2.1216971     121.5642908
  35 BEND      1  2  4                  2.0761895     118.9568957
  36 BEND      2  8 10                  2.0123567     115.2995444
  37 BEND      2  1 17                  1.5298642      87.6547620
  38 BEND      2  3 13                  1.9382766     111.0550678
  39 BEND      2  3 17                  1.5278643      87.5401749
  40 BEND      2  1 12                  1.9179913     109.8928038
  41 BEND      2  8 11                  1.9148534     109.7130173
  42 BEND      2  4  5                  1.9939447     114.2446172
  43 BEND      2  8  9                  1.9144014     109.6871224
  44 BEND      2  4  7                  1.9160776     109.7831597
  45 BEND      2  1 21                  2.0740230     118.8327666
  46 BEND      2  4  6                  1.9168379     109.8267240
  47 BEND      2  3 18                  2.0759813     118.9449671
  48 BEND      3 13 14                  1.9320727     110.6996119
  49 BEND      3 13 15                  1.9083589     109.3409116
  50 BEND      3  2  8                  1.9590515     112.2453835
  51 BEND      3 17 20                  2.0826578     119.3274993
  52 BEND      3 17 19                  1.9358657     110.9169342
  53 BEND      3 13 16                  1.9156393     109.7580496
  54 BEND      3  2  4                  2.0828126     119.3363719
  55 BEND      4  2  8                  1.8713333     107.2195018
  56 BEND      5  4  7                  1.8659755     106.9125198
  57 BEND      5  4  6                  1.8707182     107.1842584
  58 BEND      6  4  7                  1.8973765     108.7116655
  59 BEND      9  8 10                  1.8635292     106.7723559
  60 BEND      9  8 11                  1.8909328     108.3424689
  61 BEND     10  8 11                  1.8635907     106.7758847
  62 BEND     12  1 21                  1.9651329     112.5938205
  63 BEND     12 23 24                  1.9376221     111.0175696
  64 BEND     12 23 25                  1.9153622     109.7421719
  65 BEND     12 23 26                  1.9143702     109.6853301
  66 BEND     12 14 22                  2.1148066     121.1694911
  67 BEND     12 14 13                  2.0674439     118.4558096
  68 BEND     12  1 17                  1.8468469     105.8165302
  69 BEND     13  3 17                  1.8636261     106.7779080
  70 BEND     13  3 18                  1.9390180     111.0975478
  71 BEND     13 14 22                  2.1009177     120.3737154
  72 BEND     14 13 16                  1.9134745     109.6340148
  73 BEND     14 13 15                  1.9018178     108.9661339
  74 BEND     14 12 23                  2.1088609     120.8288288
  75 BEND     15 13 16                  1.8919514     108.4008330
  76 BEND     17  3 18                  2.0781564     119.0695902
  77 BEND     17  1 21                  2.0798710     119.1678291
  78 BEND     19 17 20                  1.8969609     108.6878531
  79 BEND     24 23 25                  1.8949991     108.5754523
  80 BEND     24 23 26                  1.8944168     108.5420868
  81 BEND     25 23 26                  1.9066391     109.2423735
  82 TORSION   1 17  3  2               0.4688502      26.8631388
  83 TORSION   1  2  3 17              -0.4673897     -26.7794565
  84 TORSION   1  2  8  9               2.9319232     167.9868258
  85 TORSION   1  2  3 13               1.4008340      80.2618764
  86 TORSION   1 12 14 22               3.1373597     179.7574677
  87 TORSION   1  2  8 10               0.8281183      47.4476809
  88 TORSION   1  2  3 18              -2.5991251    -148.9188982
  89 TORSION   1  2  4  5              -0.8859837     -50.7631287
  90 TORSION   1  2  4  6              -2.9882682    -171.2151531
  91 TORSION   1  2  4  7               1.2096251      69.3064123
  92 TORSION   1 12 23 24               0.0039783       0.2279374
  93 TORSION   1 17  3 13              -1.4730376     -84.3988394
  94 TORSION   1  2  8 11              -1.2761107     -73.1157594
  95 TORSION   1 12 23 25              -2.0909437    -119.8022472
  96 TORSION   1 12 23 26               2.0975296     120.1795921
  97 TORSION   1 17  3 18               2.5986619     148.8923580
  98 TORSION   1 12 14 13              -0.0105091      -0.6021269
  99 TORSION   2  3 17 19              -1.4651154     -83.9449316
 100 TORSION   2  3 17 20               2.5935253     148.5980517
 101 TORSION   2  1 12 23              -2.3305038    -133.5280340
 102 TORSION   2  3 13 16               1.2965849      74.2888429
 103 TORSION   2  1 17 19               1.4661195      84.0024616
 104 TORSION   2  3 13 14              -0.8180136     -46.8687293
 105 TORSION   2  3 13 15              -2.9133859    -166.9247151
 106 TORSION   2  1 17  3              -0.4694532     -26.8976872
 107 TORSION   2  1 17 20              -2.5928079    -148.5569484
 108 TORSION   2  1 12 14               0.8173930      46.8331714
 109 TORSION   3 17  1 12               1.4507552      83.1221515
 110 TORSION   3 17  1 21              -2.5987218    -148.8957910
 111 TORSION   3 13 14 22              -3.1401120    -179.9151626
 112 TORSION   3 13 14 12               0.0077051       0.4414702
 113 TORSION   3  2  8 10              -0.8229823     -47.1534149
 114 TORSION   3  2  4  6              -1.2034800     -68.9543265
 115 TORSION   3  2  1 17               0.4677565      26.8004728
 116 TORSION   3  2  4  7               2.9944132     171.5672389
 117 TORSION   3  2  1 12              -1.3819171     -79.1780152
 118 TORSION   3  2  8  9               1.2808226      73.3857300
 119 TORSION   3  2  4  5               0.8988044      51.4976979
 120 TORSION   3  2  1 21               2.6021835     149.0941304
 121 TORSION   3  2  8 11              -2.9272113    -167.7168552
 122 TORSION   4  2  3 17              -2.5786777    -147.7473492
 123 TORSION   4  2  3 13              -0.7104540     -40.7060163
 124 TORSION   4  2  3 18               1.5727722      90.1132091
 125 TORSION   4  2  8 10               3.1403647     179.9296415
 126 TORSION   4  2  1 17               2.5851568     148.1185751
 127 TORSION   4  2  8  9              -1.0390157     -59.5312135
 128 TORSION   4  2  1 12               0.7354833      42.1400872
 129 TORSION   4  2  1 21              -1.5636015     -89.5877672
 130 TORSION   4  2  8 11               1.0361357      59.3662012
 131 TORSION   5  4  2  8              -3.1335455    -179.5389297
 132 TORSION   6  4  2  8               1.0473554      60.0090459
 133 TORSION   7  4  2  8              -1.0379366     -59.4693887
 134 TORSION   8  2  1 12               2.9412623     168.5219166
 135 TORSION   8  2  3 17               1.4942542      85.6144602
 136 TORSION   8  2  3 13              -2.9207074    -167.3442068
 137 TORSION   8  2  1 21               0.6421775      36.7940622
 138 TORSION   8  2  3 18              -0.6374812     -36.5249814
 139 TORSION   8  2  1 17              -1.4922494     -85.4995954
 140 TORSION  12  1 17 19              -2.8968573    -165.9776996
 141 TORSION  12  1 17 20              -0.6725994     -38.5371096
 142 TORSION  12 14 13 16              -2.1081733    -120.7894337
 143 TORSION  12 14 13 15               2.1069859     120.7214000
 144 TORSION  13  3 17 19               2.8761820     164.7930902
 145 TORSION  13  3 17 20               0.6516374      37.3360736
 146 TORSION  13 14 12 23               3.1373390     179.7562818
 147 TORSION  14 12 23 24               3.1390651     179.8551835
 148 TORSION  14 12  1 17              -0.8107117     -46.4503589
 149 TORSION  14 13  3 17               0.8208677      47.0322543
 150 TORSION  14 13  3 18               3.1128263     178.3518109
 151 TORSION  14 12 23 26              -1.0505689     -60.1931618
 152 TORSION  14 12 23 25               1.0441432      59.8249990
 153 TORSION  14 12  1 21              -3.1110652    -178.2509086
 154 TORSION  15 13  3 17              -1.2745045     -73.0237315
 155 TORSION  15 13  3 18               1.0174541      58.2958251
 156 TORSION  15 13 14 22              -1.0408312     -59.6352328
 157 TORSION  16 13  3 17               2.9354662     168.1898265
 158 TORSION  16 13  3 18              -1.0557604     -60.4906170
 159 TORSION  16 13 14 22               1.0271949      58.8539335
 160 TORSION  17  1 12 23               2.3245767     133.1884356
 161 TORSION  18  3 17 19               0.6646962      38.0842876
 162 TORSION  18  3 17 20              -1.5598484     -89.3727291
 163 TORSION  19 17  1 21              -0.6631491     -37.9956422
 164 TORSION  20 17  1 21               1.5611088      89.4449479
 165 TORSION  21  1 12 23               0.0242232       1.3878859
 166 TORSION  22 14 12 23               0.0020224       0.1158764

     ------------------------------------------
     THE POINT GROUP IS C1 , NAXIS= 1, ORDER= 1
     ------------------------------------------

     DIMENSIONS OF THE SYMMETRY SUBSPACES ARE
 A   =  286

 ..... DONE SETTING UP THE RUN .....
 STEP CPU TIME =     0.03 TOTAL CPU TIME =        0.0 (    0.0 MIN)
 TOTAL WALL CLOCK TIME=        0.0 SECONDS, CPU UTILIZATION IS  75.00%


          -----------------------------
          STATIONARY POINT LOCATION RUN
          -----------------------------

 OBTAINING INITIAL HESSIAN, HESS=GUESS   
 DIAGONAL GUESS HESSIAN IN INTERNAL COORDS IS
     1  0.3499     2  0.3324     3  0.3647     4  0.3535     5  0.3530
     6  0.3492     7  0.3486     8  0.3324     9  0.3423    10  0.3526
    11  0.3327    12  0.3327    13  0.3360    14  0.3325    15  0.3359
    16  0.3325    17  0.5182    18  0.3885    19  0.3327    20  0.3712
    21  0.3330    22  0.3491    23  0.3312    24  0.3337    25  0.3330
    26  0.3329    27  0.3332    28  0.2612    29  0.2450    30  0.2457
    31  0.2449    32  0.2216    33  0.2218    34  0.2503    35  0.2454
    36  0.2216    37  0.2454    38  0.2441    39  0.2452    40  0.2465
    41  0.2213    42  0.2220    43  0.2213    44  0.2217    45  0.2214
    46  0.2217    47  0.2213    48  0.2464    49  0.2207    50  0.2448
    51  0.2215    52  0.2217    53  0.2208    54  0.2452    55  0.2453
    56  0.2016    57  0.2016    58  0.2013    59  0.2016    60  0.2013
    61  0.2016    62  0.2226    63  0.2246    64  0.2246    65  0.2246
    66  0.2353    67  0.2619    68  0.2469    69  0.2445    70  0.2207
    71  0.2247    72  0.2232    73  0.2232    74  0.2636    75  0.2014
    76  0.2216    77  0.2217    78  0.2013    79  0.2014    80  0.2014
    81  0.2014    82  0.2500    83  0.2500    84  0.2500    85  0.2500
    86  0.2500    87  0.2500    88  0.2500    89  0.2500    90  0.2500
    91  0.2500    92  0.2500    93  0.2500    94  0.2500    95  0.2500
    96  0.2500    97  0.2500    98  0.2500    99  0.2500   100  0.2500
   101  0.2500   102  0.2500   103  0.2500   104  0.2500   105  0.2500
   106  0.2500   107  0.2500   108  0.2500   109  0.2500   110  0.2500
   111  0.2500   112  0.2500   113  0.2500   114  0.2500   115  0.2500
   116  0.2500   117  0.2500   118  0.2500   119  0.2500   120  0.2500
   121  0.2500   122  0.2500   123  0.2500   124  0.2500   125  0.2500
   126  0.2500   127  0.2500   128  0.2500   129  0.2500   130  0.2500
   131  0.2500   132  0.2500   133  0.2500   134  0.2500   135  0.2500
   136  0.2500   137  0.2500   138  0.2500   139  0.2500   140  0.2500
   141  0.2500   142  0.2500   143  0.2500   144  0.2500   145  0.2500
   146  0.2500   147  0.2500   148  0.2500   149  0.2500   150  0.2500
   151  0.2500   152  0.2500   153  0.2500   154  0.2500   155  0.2500
   156  0.2500   157  0.2500   158  0.2500   159  0.2500   160  0.2500
   161  0.2500   162  0.2500   163  0.2500   164  0.2500   165  0.2500
   166  0.2500
 TRANSFORMING HESSIAN TO SYMMETRY COORDINATES

          PARAMETERS CONTROLLING GEOMETRY SEARCH ARE
          METHOD =QA                  UPHESS =BFGS    
          NNEG   =         0          NFRZ   =         3
          NSTEP  =        50          IFOLOW =         1
          HESS   =GUESS               RESTAR =         F
          IHREP  =         0          HSSEND =         F
          NPRT   =         0          NPUN   =         0
          OPTTOL = 5.000E-04          RMIN   = 1.500E-03
          RMAX   = 1.000E-01          RLIM   = 7.000E-02
          DXMAX  = 3.000E-01          PURIFY =         F
          MOVIE  =         F          TRUPD  =         T
          TRMAX  = 5.000E-01          TRMIN  = 5.000E-02
          ITBMAT =         5          STPT   =         F
          STSTEP = 1.000E-02          PROJCT=          F
          FROZEN COORD(S)=   1   2   3

