----- GAMESS execution script -----

          ******************************************************
          *         GAMESS VERSION =  5 DEC 2014 (R1)          *
          *             FROM IOWA STATE UNIVERSITY             *
          * M.W.SCHMIDT, K.K.BALDRIDGE, J.A.BOATZ, S.T.ELBERT, *
          *   M.S.GORDON, J.H.JENSEN, S.KOSEKI, N.MATSUNAGA,   *
          *          K.A.NGUYEN, S.J.SU, T.L.WINDUS,           *
          *       TOGETHER WITH M.DUPUIS, J.A.MONTGOMERY       *
          *         J.COMPUT.CHEM.  14, 1347-1363(1993)        *
          **************** 64 BIT LINUX VERSION ****************

 EXECUTION OF GAMESS BEGUN Wed Nov 23 14:54:04 2016

            ECHO OF THE FIRST FEW INPUT CARDS -
 INPUT CARD>! SELECT RESTRICTED HARTREE-FOCK AS DEFAULT                                     
 INPUT CARD>$contrl scftyp=rhf $end                                                         
 INPUT CARD>                                                                                
 INPUT CARD>! THEORY: HF OR DFT                                                             
 INPUT CARD> $contrl mplevl=0 $end                                                          
 INPUT CARD>                                                                                
 INPUT CARD> $system timlim=10000 mwords=20 $end                                            
 INPUT CARD> $SCF DIRSCF=.TRUE. $end                                                        
 INPUT CARD>                                                                                
 INPUT CARD>                                                                                
 INPUT CARD>! BASIS SETS                                                                    
 INPUT CARD>! 6-311G(d,p)                                                                   
 INPUT CARD> $BASIS GBASIS=N311 NGAUSS=6 NDFUNC=1 NPFUNC=1 $END                             
 INPUT CARD>                                                                                
 INPUT CARD>! One of the following                                                          
 INPUT CARD> $guess guess=HUCKEL $end                                                       
 INPUT CARD>                                                                                
 INPUT CARD> $statpt projct=.FALSE. $end                                                    
 INPUT CARD> $STATPT IFREEZ(1)=1,2,3 $END                                                   
 INPUT CARD>                                                                                
 INPUT CARD>! Optimize the geometry with COSMO effects                                      
 INPUT CARD> $statpt opttol=0.0005 nstep=50 $end                                            
 INPUT CARD> $contrl nzvar=1 $end                                                           
 INPUT CARD> $zmat dlc=.t. auto=.t. $end                                                    
 INPUT CARD> $contrl runtyp=OPTIMIZE maxit=200 $end                                         
 INPUT CARD>                                                                                
 INPUT CARD>! Run COSMO on perfect conductor                                                
 INPUT CARD> $COSGMS PRFCND=.TRUE. $end                                                     
 INPUT CARD>                                                                                
 INPUT CARD>! Specifying RSOLV                                                              
 INPUT CARD> $COSGMS COSRAD = 1.4 $end                                                      
 INPUT CARD>                                                                                
 INPUT CARD>! available memory                                                              
 INPUT CARD> $SYSTEM MWORDS=40 $END                                                         
 INPUT CARD>                                                                                
 INPUT CARD> $DATA                                                                          
 INPUT CARD>Acenaphthene, ID: C83329                                                        
 INPUT CARD>C1                                                                              
 INPUT CARD>C      6.0      3.3032000000    3.0003000000    1.7328000000                    
 INPUT CARD>C      6.0      4.0818000000    3.9812000000    2.4013000000                    
 INPUT CARD>C      6.0      1.9337000000    3.3643000000    1.6470000000                    
 INPUT CARD>C      6.0      3.8240000000    1.8151000000    1.2199000000                    
 INPUT CARD>C      6.0      3.1768000000    5.1052000000    2.8046000000                    
 INPUT CARD>C      6.0      5.4217000000    3.7622000000    2.5572000000                    
 INPUT CARD>C      6.0      1.7596000000    4.6981000000    2.3070000000                    
 INPUT CARD>C      6.0      1.0650000000    2.5106000000    1.0270000000                    
 INPUT CARD>C      6.0      2.8992000000    0.9444000000    0.5798000000                    
 INPUT CARD>C      6.0      5.2206000000    1.6112000000    1.3954000000                    
 INPUT CARD>C      6.0      5.9770000000    2.5584000000    2.0418000000                    
 INPUT CARD>C      6.0      1.5734000000    1.2934000000    0.4948000000                    
   40000000 WORDS OF MEMORY AVAILABLE

     BASIS OPTIONS
     -------------
     GBASIS=N311         IGAUSS=       6      POLAR=POPN311 
     NDFUNC=       1     NFFUNC=       0     DIFFSP=       F
     NPFUNC=       1      DIFFS=       F     BASNAM=        


     RUN TITLE
     ---------
 Acenaphthene, ID: C83329                                                        

 THE POINT GROUP OF THE MOLECULE IS C1      
 THE ORDER OF THE PRINCIPAL AXIS IS     0

 ATOM      ATOMIC                      COORDINATES (BOHR)
           CHARGE         X                   Y                   Z
 C           6.0     6.2421428826        5.6697448810        3.2745171915
 C           6.0     7.7134835367        7.5233771023        4.5377990143
 C           6.0     3.6541631425        6.3576051405        3.1123787018
 C           6.0     7.2263121770        3.4300416403        2.3052767324
 C           6.0     6.0032815178        9.6474291125        5.2999255052
 C           6.0    10.2455273876        7.1095271110        4.8324072958
 C           6.0     3.3251618480        8.8781216629        4.3595978537
 C           6.0     2.0125581769        4.7443460648        1.9407485894
 C           6.0     5.4786935836        1.7846572228        1.0956631277
 C           6.0     9.8655034915        3.0447265114        2.6369236433
 C           6.0    11.2948922286        4.8346749670        3.8584425217
 C           6.0     2.9732948691        2.4441715925        0.9350364187
 H           1.0     6.0376745308        9.9291872573        7.3684195713
 H           1.0     6.6255682856       11.4492828418        4.4484149751
 H           1.0    11.4661014031        8.4750431097        5.7908763168
 H           1.0     2.5522639190       10.2791645102        3.0186482928
 H           1.0     1.9636142738        8.7583130353        5.9380859712
 H           1.0     0.0000000000        5.1804948227        1.7633033191
 H           1.0     6.1629633638        0.0000000000        0.3031120484
 H           1.0    10.7274075145        1.3110918903        1.9065445490
 H           1.0    13.3265366380        4.5221142886        4.1052407357
 H           1.0     1.6404711299        1.1655829892        0.0000000000

          INTERNUCLEAR DISTANCES (ANGS.)




     $CONTRL OPTIONS
     ---------------
 SCFTYP=RHF          RUNTYP=OPTIMIZE     EXETYP=RUN     
 MPLEVL=       0     CITYP =NONE         CCTYP =NONE         VBTYP =NONE    
 DFTTYP=NONE         TDDFT =NONE    
 MULT  =       1     ICHARG=       0     NZVAR =       1     COORD =UNIQUE  
 PP    =NONE         RELWFN=NONE         LOCAL =NONE         NUMGRD=       F
 ISPHER=      -1     NOSYM =       0     MAXIT =     200     UNITS =ANGS    
 PLTORB=       F     MOLPLT=       F     AIMPAC=       F     FRIEND=        
 NPRINT=       7     IREST =       0     GEOM  =INPUT   
 NORMF =       0     NORMP =       0     ITOL  =      20     ICUT  =       9
 INTTYP=BEST         GRDTYP=BEST         QMTTOL= 1.0E-06

     $SYSTEM OPTIONS
     ---------------
  REPLICATED MEMORY=    40000000 WORDS (ON EVERY NODE).
 DISTRIBUTED MEMDDI=           0 MILLION WORDS IN AGGREGATE,
 MEMDDI DISTRIBUTED OVER   1 PROCESSORS IS           0 WORDS/PROCESSOR.
 TOTAL MEMORY REQUESTED ON EACH PROCESSOR=    40000000 WORDS.
 TIMLIM=       10000.00 MINUTES, OR       6.9 DAYS.
 PARALL= F  BALTYP=  DLB     KDIAG=    0  COREFL= F
 MXSEQ2=     300 MXSEQ3=     150  mem10=         0

     $COSGMS OPTIONS
     ---------------
     EPSI  =   INFTY     NSPA  =      92     COSRAD=    1.40
     DISEX =   10.00     OUTCHG=DBLCAV       COSBUG=       F
     COSWRT=       F     DCOSMO=       F

     SYMMETRY COORDINATES WILL NOT BE USED FOR 
     THE COSMO CALCULATION, EVEN IF SPECIFIED:
         -- SWITCHING TO C1 POINT GROUP --


     DEFINITION OF CAVITY
     ---------------------------
     ATOM         COORDINATES           RADIUS 
     1    6.2421    5.6697    3.2745    2.0000
     2    7.7135    7.5234    4.5378    2.0000
     3    3.6542    6.3576    3.1124    2.0000
     4    7.2263    3.4300    2.3053    2.0000
     5    6.0033    9.6474    5.2999    2.0000
     6   10.2455    7.1095    4.8324    2.0000
     7    3.3252    8.8781    4.3596    2.0000
     8    2.0126    4.7443    1.9407    2.0000
     9    5.4787    1.7847    1.0957    2.0000
    10    9.8655    3.0447    2.6369    2.0000
    11   11.2949    4.8347    3.8584    2.0000
    12    2.9733    2.4442    0.9350    2.0000
    13    6.0377    9.9292    7.3684    1.3000
    14    6.6256   11.4493    4.4484    1.3000
    15   11.4661    8.4750    5.7909    1.3000
    16    2.5523   10.2792    3.0186    1.3000
    17    1.9636    8.7583    5.9381    1.3000
    18    0.0000    5.1805    1.7633    1.3000
    19    6.1630    0.0000    0.3031    1.3000
    20   10.7274    1.3111    1.9065    1.3000
    21   13.3265    4.5221    4.1052    1.3000
    22    1.6405    1.1656    0.0000    1.3000

          ----------------
          PROPERTIES INPUT
          ----------------

     MOMENTS            FIELD           POTENTIAL          DENSITY
 IEMOM =       1   IEFLD =       0   IEPOT =       0   IEDEN =       0
 WHERE =COMASS     WHERE =NUCLEI     WHERE =NUCLEI     WHERE =NUCLEI  
 OUTPUT=BOTH       OUTPUT=BOTH       OUTPUT=BOTH       OUTPUT=BOTH    
 IEMINT=       0   IEFINT=       0                     IEDINT=       0
                                                       MORB  =       0
          EXTRAPOLATION IN EFFECT
          SOSCF IN EFFECT
 ORBITAL PRINTING OPTION: NPREO=     1   288     2     1

     -------------------------------
     INTEGRAL TRANSFORMATION OPTIONS
     -------------------------------
     NWORD  =            0
     CUTOFF = 1.0E-09     MPTRAN =       0
     DIRTRF =       T     AOINTS =DUP     

          ----------------------
          INTEGRAL INPUT OPTIONS
          ----------------------
 NOPK  =       1 NORDER=       0 SCHWRZ=       T


 -----------------------------------------------
  STATISTICS ON AUTOMATIC COORDINATE GENERATION 
 -----------------------------------------------
  NUMBER OF USER SPECIFIED BONDS                             0
  NUMBER OF BONDS                                           24
  NUMBER OF ANGLES                                          42
  NUMBER OF TORSIONS                                        65
  NUMBER OF EXTRA COORD.                                     0
  NUMBER OF EXTRA COORD. FOR CONSTRAINTS                     0
  NUMBER OF CONSTRAINED COORD.                               0

  TOTAL NUMBER OF PRIMITIVES                               131
 -----------------------------------------------

   --- ENCODED Z MATRIX ---
 COORD  TYPE   I   J   K   L   M   N
    1      1    1   3
    2      1    1   4
    3      1    1   2
    4      1    2   5
    5      1    2   6
    6      1    3   7
    7      1    3   8
    8      1    4  10
    9      1    4   9
   10      1    5  13
   11      1    5   7
   12      1    5  14
   13      1    6  11
   14      1    6  15
   15      1    7  17
   16      1    7  16
   17      1    8  12
   18      1    8  18
   19      1    9  12
   20      1    9  19
   21      1   10  11
   22      1   10  20
   23      1   11  21
   24      1   12  22
   25      2    1   2   5
   26      2    1   3   7
   27      2    1   2   6
   28      2    1   3   8
   29      2    1   4   9
   30      2    1   4  10
   31      2    2   6  11
   32      2    2   5  13
   33      2    2   5  14
   34      2    2   1   3
   35      2    2   1   4
   36      2    2   5   7
   37      2    2   6  15
   38      2    3   7  17
   39      2    3   8  18
   40      2    3   7  16
   41      2    3   7   5
   42      2    3   1   4
   43      2    3   8  12
   44      2    4   9  19
   45      2    4   9  12
   46      2    4  10  20
   47      2    4  10  11
   48      2    5   7  17
   49      2    5   7  16
   50      2    5   2   6
   51      2    6  11  21
   52      2    6  11  10
   53      2    7   5  14
   54      2    7   5  13
   55      2    7   3   8
   56      2    8  12  22
   57      2    8  12   9
   58      2    9   4  10
   59      2    9  12  22
   60      2   10  11  21
   61      2   11  10  20
   62      2   11   6  15
   63      2   12   9  19
   64      2   12   8  18
   65      2   13   5  14
   66      2   16   7  17
   67      3    1   2   6  15
   68      3    1   2   6  11
   69      3    1   4  10  20
   70      3    1   4  10  11
   71      3    1   2   5  14
   72      3    1   4   9  19
   73      3    1   4   9  12
   74      3    1   3   7  16
   75      3    1   3   8  18
   76      3    1   3   7  17
   77      3    1   3   8  12
   78      3    1   3   7   5
   79      3    1   2   5  13
   80      3    1   2   5   7
   81      3    2   6  11  21
   82      3    2   1   3   7
   83      3    2   6  11  10
   84      3    2   1   4  10
   85      3    2   5   7  16
   86      3    2   5   7  17
   87      3    2   5   7   3
   88      3    2   1   4   9
   89      3    2   1   3   8
   90      3    3   7   5  14
   91      3    3   7   5  13
   92      3    3   1   2   5
   93      3    3   1   4  10
   94      3    3   1   2   6
   95      3    3   1   4   9
   96      3    3   8  12  22
   97      3    3   8  12   9
   98      3    4   1   3   8
   99      3    4   1   3   7
  100      3    4   1   2   6
  101      3    4   1   2   5
  102      3    4  10  11  21
  103      3    4  10  11   6
  104      3    4   9  12  22
  105      3    4   9  12   8
  106      3    5   7   3   8
  107      3    5   2   6  11
  108      3    5   2   6  15
  109      3    6  11  10  20
  110      3    6   2   5   7
  111      3    6   2   5  14
  112      3    6   2   5  13
  113      3    7   3   8  18
  114      3    7   3   8  12
  115      3    8  12   9  19
  116      3    8   3   7  16
  117      3    8   3   7  17
  118      3    9  12   8  18
  119      3    9   4  10  11
  120      3    9   4  10  20
  121      3   10  11   6  15
  122      3   10   4   9  12
  123      3   10   4   9  19
  124      3   13   5   7  16
  125      3   13   5   7  17
  126      3   14   5   7  16
  127      3   14   5   7  17
  128      3   15   6  11  21
  129      3   18   8  12  22
  130      3   19   9  12  22
  131      3   20  10  11  21

          INDEP./SYM. INTERNAL COORDINATES
          --------------------------------
 CRD  1=  -0.1666 (  4) -0.2097 (  5) -0.1664 (  6) -0.2095 (  7)  0.3331 (  8)
           0.3331 (  9) -0.1403 ( 11)  0.1942 ( 19)  0.1942 ( 21)  0.1400 ( 27)
           0.1398 ( 28) -0.1936 ( 29) -0.1936 ( 30) -0.1250 ( 34)  0.1131 ( 44)
           0.1131 ( 46) -0.1952 ( 50) -0.1222 ( 51) -0.1949 ( 55) -0.1222 ( 56)
           0.3872 ( 58)  0.1112 ( 59)  0.1113 ( 60) -0.1221 ( 61) -0.1221 ( 63)
 CRD  2=  -0.3473 (  4) -0.3020 (  5)  0.3475 (  6)  0.3021 (  7) -0.1838 ( 13)
           0.1839 ( 17)  0.1749 ( 25) -0.1749 ( 26)  0.1543 ( 27) -0.1544 ( 28)
          -0.1074 ( 35)  0.1073 ( 42) -0.3292 ( 50)  0.3292 ( 55)  0.1028 ( 62)
          -0.1028 ( 64)
 CRD  3=  -0.2288 (  1) -0.2749 (  2) -0.2289 (  3) -0.2910 (  4) -0.3016 (  5)
          -0.2911 (  6) -0.3017 (  7) -0.3071 (  8) -0.3072 (  9) -0.1298 ( 11)
          -0.1085 ( 44) -0.1084 ( 46)  0.1423 ( 61)  0.1450 ( 62)  0.1423 ( 63)
           0.1450 ( 64)
 CRD  4=  -0.2665 (  1)  0.2664 (  3) -0.1076 (  5)  0.1074 (  7) -0.2314 (  8)
           0.2312 (  9)  0.2105 ( 29) -0.2105 ( 30) -0.1478 ( 31)  0.1176 ( 32)
           0.1176 ( 33)  0.2092 ( 35) -0.2712 ( 36) -0.1177 ( 38) -0.1176 ( 40)
           0.2712 ( 41) -0.2092 ( 42)  0.1477 ( 43)  0.1365 ( 44) -0.1366 ( 46)
           0.1505 ( 52) -0.1505 ( 57)
 CRD  5=  -0.1103 (  1)  0.3226 (  2) -0.1103 (  3)  0.2094 (  4) -0.2120 (  5)
           0.2093 (  6) -0.2119 (  7) -0.1197 ( 11) -0.1274 ( 14) -0.1274 ( 18)
           0.1249 ( 20)  0.1249 ( 22)  0.2126 ( 25)  0.2127 ( 26) -0.1990 ( 27)
          -0.1990 ( 28)  0.1583 ( 31) -0.2333 ( 34)  0.1167 ( 35) -0.1805 ( 37)
          -0.1804 ( 39)  0.1166 ( 42)  0.1584 ( 43)  0.1361 ( 44) -0.1978 ( 45)
           0.1360 ( 46) -0.1978 ( 47)  0.1041 ( 52)  0.1040 ( 57)
 CRD  6=  -0.1073 ( 32)  0.1072 ( 33) -0.1073 ( 38)  0.1073 ( 40)  0.1105 ( 48)
          -0.1104 ( 49) -0.1104 ( 53)  0.1105 ( 54) -0.1596 ( 67) -0.1855 ( 68)
          -0.1728 ( 70)  0.1729 ( 73)  0.1596 ( 75)  0.1856 ( 77)  0.1200 ( 78)
          -0.1200 ( 80) -0.2077 ( 82) -0.1972 ( 89)  0.2078 ( 92)  0.1972 ( 94)
          -0.1726 ( 98) -0.1832 ( 99)  0.1726 (100)  0.1832 (101)  0.1516 (102)
           0.1612 (103) -0.1516 (104) -0.1612 (105)  0.1074 (106) -0.1992 (107)
          -0.1733 (108) -0.1074 (110)  0.1733 (113)  0.1992 (114) -0.1810 (119)
           0.1811 (122)
 CRD  7=   0.1434 ( 68)  0.1747 ( 69)  0.1571 ( 70) -0.1070 ( 71)  0.1747 ( 72)
           0.1571 ( 73) -0.1070 ( 74) -0.1070 ( 76)  0.1433 ( 77) -0.1537 ( 78)
          -0.1069 ( 79) -0.1536 ( 80) -0.1821 ( 81) -0.1993 ( 83) -0.2145 ( 84)
           0.1855 ( 87) -0.2145 ( 88) -0.2145 ( 93) -0.2145 ( 95) -0.1821 ( 96)
          -0.1992 ( 97) -0.1556 (106)  0.1455 (107) -0.1556 (110) -0.1089 (111)
          -0.1089 (112)  0.1454 (114) -0.1089 (116) -0.1089 (117)  0.1571 (119)
           0.1747 (120)  0.1571 (122)  0.1747 (123)
 CRD  8=   0.3134 ( 13) -0.3131 ( 17) -0.3256 ( 19)  0.3260 ( 21)  0.1445 ( 23)
          -0.1442 ( 24) -0.2219 ( 37)  0.2217 ( 39)  0.2205 ( 44) -0.2208 ( 46)
          -0.1140 ( 52)  0.1139 ( 57)  0.2464 ( 61)  0.2424 ( 62) -0.2461 ( 63)
          -0.2422 ( 64)
 CRD  9=   0.1167 ( 11) -0.3352 ( 13) -0.3347 ( 17) -0.1012 ( 18) -0.2951 ( 19)
          -0.2944 ( 21) -0.1774 ( 23) -0.1773 ( 24)  0.2163 ( 37)  0.2147 ( 39)
           0.2142 ( 44)  0.2124 ( 46) -0.1034 ( 51)  0.1351 ( 52) -0.1036 ( 56)
           0.1351 ( 57)  0.1086 ( 58) -0.1929 ( 61) -0.2319 ( 62) -0.1929 ( 63)
          -0.2323 ( 64)
 CRD 10=  -0.1205 (  4)  0.1257 (  5)  0.1208 (  6) -0.1252 (  7) -0.1542 (  8)
           0.1545 (  9)  0.1591 ( 14) -0.1582 ( 18)  0.1690 ( 20) -0.1682 ( 22)
          -0.1429 ( 25)  0.1427 ( 26)  0.1338 ( 27) -0.1332 ( 28)  0.1637 ( 29)
          -0.1632 ( 30) -0.2016 ( 31) -0.1324 ( 32) -0.1324 ( 33)  0.2910 ( 36)
           0.1987 ( 37)  0.1327 ( 38) -0.2007 ( 39)  0.1326 ( 40) -0.2907 ( 41)
           0.2014 ( 43)  0.1748 ( 44) -0.1934 ( 45) -0.1768 ( 46)  0.1936 ( 47)
           0.1148 ( 65) -0.1145 ( 66)
 CRD 11=  -0.6043 ( 11) -0.1374 ( 19) -0.1391 ( 21)  0.1033 ( 36)  0.1034 ( 41)
          -0.1822 ( 48) -0.1822 ( 49)  0.1382 ( 51) -0.1821 ( 53) -0.1821 ( 54)
           0.1355 ( 56) -0.1703 ( 59) -0.1729 ( 60) -0.1371 ( 61) -0.1356 ( 63)
           0.1114 ( 65)  0.1116 ( 66)  0.1160 ( 71) -0.1161 ( 74)  0.1158 ( 76)
          -0.1158 ( 79)  0.1158 (111) -0.1160 (112) -0.1159 (116)  0.1160 (117)
          -0.1021 (124)  0.1021 (127)
 CRD 12=  -0.2185 ( 13)  0.2174 ( 17) -0.2304 ( 19)  0.2306 ( 21)  0.1460 ( 37)
          -0.1447 ( 39)  0.1205 ( 44) -0.1208 ( 46) -0.3507 ( 51)  0.3495 ( 56)
          -0.3444 ( 59)  0.3453 ( 60)  0.2086 ( 61) -0.2249 ( 62) -0.2081 ( 63)
           0.2236 ( 64)
 CRD 13=   0.2878 ( 11)  0.1868 ( 13)  0.1884 ( 17) -0.1917 ( 19) -0.1899 ( 21)
          -0.1445 ( 37) -0.1455 ( 39)  0.1485 ( 44)  0.1475 ( 46)  0.2978 ( 51)
           0.3003 ( 56) -0.2991 ( 59) -0.2966 ( 60) -0.2115 ( 61)  0.2047 ( 62)
          -0.2131 ( 63)  0.2063 ( 64)
 CRD 14=   0.1568 ( 32) -0.1570 ( 33)  0.1568 ( 38) -0.1570 ( 40) -0.1254 ( 67)
           0.1143 ( 69)  0.1118 ( 71) -0.1143 ( 72) -0.1118 ( 74)  0.1254 ( 75)
          -0.1121 ( 76)  0.1121 ( 79) -0.1752 ( 81)  0.2049 ( 85)  0.2048 ( 86)
           0.1701 ( 88) -0.1513 ( 89) -0.2050 ( 90) -0.2049 ( 91) -0.1701 ( 93)
           0.1513 ( 94)  0.1752 ( 96)  0.1474 ( 99) -0.1474 (101)  0.1774 (102)
          -0.1774 (104)  0.1734 (106)  0.2151 (107) -0.1733 (110) -0.2152 (114)
          -0.2185 (119)  0.2184 (122)
 CRD 15=  -0.1683 (  1) -0.1507 (  2) -0.1683 (  3)  0.1109 (  8)  0.1110 (  9)
          -0.2873 ( 14) -0.2873 ( 18) -0.1893 ( 20) -0.1895 ( 22)  0.2514 ( 23)
           0.2513 ( 24)  0.2258 ( 31) -0.1438 ( 37) -0.1437 ( 39)  0.2258 ( 43)
           0.1388 ( 45)  0.1389 ( 47)  0.1425 ( 51) -0.2846 ( 52)  0.1424 ( 56)
          -0.2845 ( 57)  0.1420 ( 59)  0.1421 ( 60)
 CRD 16=  -0.1784 ( 14)  0.1785 ( 18)  0.3027 ( 20) -0.3026 ( 22)  0.2475 ( 23)
          -0.2476 ( 24)  0.1439 ( 31) -0.1109 ( 36)  0.1110 ( 41) -0.1440 ( 43)
           0.2135 ( 44) -0.2517 ( 45) -0.2135 ( 46)  0.2516 ( 47)  0.1430 ( 51)
          -0.2639 ( 52) -0.1431 ( 56)  0.2640 ( 57) -0.1209 ( 59)  0.1209 ( 60)
 CRD 17=   0.1537 ( 10) -0.1537 ( 12) -0.1538 ( 15)  0.1536 ( 16)  0.1019 ( 32)
          -0.1017 ( 33) -0.1021 ( 38)  0.1020 ( 40) -0.1547 ( 67) -0.1415 ( 68)
          -0.1402 ( 69) -0.1544 ( 70) -0.1485 ( 71) -0.1403 ( 72) -0.1544 ( 73)
          -0.1487 ( 74) -0.1547 ( 75) -0.1487 ( 76) -0.1416 ( 77) -0.1594 ( 78)
          -0.1485 ( 79) -0.1594 ( 80)  0.1923 ( 87) -0.1639 (106) -0.1367 (107)
          -0.1498 (108) -0.1639 (110) -0.1530 (111) -0.1530 (112) -0.1499 (113)
          -0.1367 (114) -0.1532 (116) -0.1532 (117) -0.1544 (119) -0.1402 (120)
          -0.1544 (122) -0.1402 (123)
 CRD 18=   0.2273 ( 32) -0.2273 ( 33)  0.2273 ( 38) -0.2273 ( 40) -0.2755 ( 48)
           0.2755 ( 49)  0.2755 ( 53) -0.2754 ( 54) -0.2022 ( 71)  0.2020 ( 74)
           0.2020 ( 76) -0.2021 ( 79)  0.1220 ( 85)  0.1220 ( 86) -0.1219 ( 90)
          -0.1219 ( 91) -0.1020 ( 99)  0.1020 (101) -0.1725 (111) -0.1724 (112)
           0.1723 (116)  0.1723 (117)
 CRD 19=  -0.2766 ( 10)  0.2766 ( 12)  0.2767 ( 15) -0.2767 ( 16)  0.1384 ( 32)
          -0.1383 ( 33) -0.1383 ( 38)  0.1383 ( 40)  0.2581 ( 48) -0.2581 ( 49)
           0.2581 ( 53) -0.2582 ( 54) -0.1794 ( 71) -0.1793 ( 74) -0.1793 ( 76)
          -0.1793 ( 79) -0.1523 (111) -0.1522 (112) -0.1522 (116) -0.1522 (117)
          -0.1145 (124) -0.1145 (125) -0.1145 (126) -0.1145 (127)
 CRD 20=  -0.1897 (  1)  0.1896 (  3)  0.2683 (  5) -0.2683 (  7)  0.2518 (  8)
          -0.2517 (  9)  0.2871 ( 14) -0.2871 ( 18) -0.1529 ( 19)  0.1529 ( 21)
           0.1882 ( 23) -0.1881 ( 24)  0.1223 ( 27) -0.1223 ( 28) -0.1246 ( 36)
           0.1399 ( 37) -0.1399 ( 39)  0.1247 ( 41) -0.1119 ( 44)  0.1119 ( 46)
          -0.1686 ( 50)  0.1687 ( 55) -0.1816 ( 61)  0.1816 ( 63)
 CRD 21=   0.2957 ( 10) -0.2961 ( 12)  0.2954 ( 15) -0.2960 ( 16) -0.1197 ( 68)
           0.1100 ( 71) -0.1099 ( 74) -0.1100 ( 76)  0.1196 ( 77)  0.1100 ( 79)
           0.2307 ( 81)  0.1815 ( 83)  0.1332 ( 85)  0.1331 ( 86) -0.1331 ( 90)
          -0.1330 ( 91) -0.2306 ( 96) -0.1814 ( 97) -0.1645 (102) -0.1146 (103)
           0.1644 (104)  0.1144 (105) -0.1099 (107)  0.1010 (111)  0.1010 (112)
           0.1098 (114) -0.1009 (116) -0.1010 (117)  0.1094 (119) -0.1093 (122)
           0.1478 (128) -0.1478 (129)
 CRD 22=   0.1157 (  1) -0.2129 (  2)  0.1159 (  3)  0.3170 (  4)  0.3170 (  6)
          -0.1689 (  8) -0.1690 (  9)  0.2091 ( 10)  0.2082 ( 12) -0.1084 ( 13)
           0.2091 ( 15)  0.2082 ( 16) -0.1084 ( 17) -0.2710 ( 20) -0.2710 ( 22)
          -0.1007 ( 29) -0.1007 ( 30) -0.1123 ( 31) -0.1168 ( 34) -0.1123 ( 43)
          -0.1159 ( 44)  0.1102 ( 45) -0.1157 ( 46)  0.1102 ( 47) -0.1198 ( 50)
          -0.1198 ( 55)  0.2015 ( 58)  0.1202 ( 62)  0.1203 ( 64)
 CRD 23=   0.4303 ( 10)  0.4304 ( 12) -0.4304 ( 15) -0.4305 ( 16)  0.1899 ( 65)
          -0.1899 ( 66)  0.1192 (125) -0.1191 (126)
 CRD 24=  -0.1511 ( 10)  0.1509 ( 12)  0.1519 ( 15) -0.1513 ( 16) -0.1487 ( 69)
          -0.1302 ( 70) -0.1483 ( 72) -0.1300 ( 73) -0.1852 ( 81) -0.1767 ( 83)
          -0.1852 ( 96) -0.1764 ( 97)  0.2266 (102)  0.2180 (103)  0.2266 (104)
           0.2176 (105)  0.1005 (107)  0.2369 (109)  0.1005 (114)  0.2363 (115)
          -0.1569 (118) -0.1301 (119) -0.1486 (120) -0.1575 (121) -0.1302 (122)
          -0.1484 (123) -0.1660 (128) -0.1657 (129)  0.2452 (130)  0.2455 (131)
 CRD 25=   0.1413 (  4)  0.1412 (  6) -0.3891 ( 10) -0.3891 ( 12) -0.3887 ( 15)
          -0.3891 ( 16) -0.1282 ( 20) -0.1282 ( 22) -0.1989 ( 65) -0.1989 ( 66)
          -0.1603 (124)  0.1605 (127)
 CRD 26=  -0.1728 ( 10)  0.1728 ( 12) -0.1724 ( 15)  0.1723 ( 16) -0.1719 ( 67)
           0.1519 ( 69) -0.1521 ( 72)  0.1719 ( 75)  0.1600 ( 83) -0.1604 ( 97)
          -0.1723 (103)  0.1728 (105) -0.1411 (108) -0.2559 (109) -0.1161 (111)
          -0.1161 (112)  0.1412 (113)  0.2564 (115)  0.1161 (116)  0.1160 (117)
          -0.2828 (118)  0.2825 (121)  0.1851 (128) -0.1855 (129)  0.1575 (130)
          -0.1570 (131)
 CRD 27=  -0.2042 (  4)  0.1660 (  5)  0.2043 (  6) -0.1660 (  7) -0.1310 (  8)
           0.1310 (  9)  0.1505 ( 19) -0.1505 ( 21)  0.1389 ( 25) -0.1388 ( 26)
          -0.2029 ( 29)  0.2029 ( 30)  0.1743 ( 37) -0.1743 ( 39)  0.1966 ( 44)
          -0.1967 ( 46)  0.1487 ( 51) -0.1486 ( 56)  0.1492 ( 59) -0.1492 ( 60)
           0.2669 ( 61) -0.2145 ( 62) -0.2669 ( 63)  0.2144 ( 64)
 CRD 28=  -0.2614 ( 10)  0.2615 ( 12)  0.2616 ( 15) -0.2615 ( 16) -0.1215 ( 32)
           0.1215 ( 33)  0.1215 ( 38) -0.1215 ( 40)  0.1841 ( 85)  0.1840 ( 86)
           0.1840 ( 90)  0.1840 ( 91)  0.2941 (124)  0.2940 (125)  0.2941 (126)
           0.2941 (127)
 CRD 29=  -0.1016 (  1)  0.1014 (  3) -0.2319 (  4) -0.1231 (  5)  0.2317 (  6)
           0.1231 (  7)  0.1099 ( 13) -0.2500 ( 14) -0.1097 ( 17)  0.2502 ( 18)
          -0.1355 ( 19) -0.1151 ( 20)  0.1355 ( 21)  0.1150 ( 22)  0.3593 ( 23)
          -0.3591 ( 24) -0.1308 ( 27)  0.1307 ( 28)  0.1160 ( 29) -0.1160 ( 30)
           0.2054 ( 35)  0.1277 ( 37) -0.1276 ( 39) -0.2053 ( 42) -0.1592 ( 62)
           0.1591 ( 64)
 CRD 30=   0.1567 (  2) -0.1381 (  4) -0.1383 (  6) -0.1545 (  8) -0.1545 (  9)
          -0.1636 ( 11)  0.1566 ( 13)  0.2055 ( 14)  0.1566 ( 17)  0.2053 ( 18)
          -0.2007 ( 20) -0.2009 ( 22)  0.3256 ( 23)  0.3258 ( 24)  0.1684 ( 25)
           0.1684 ( 26) -0.2388 ( 34)  0.1193 ( 35)  0.2068 ( 37)  0.2070 ( 39)
           0.1194 ( 42) -0.2059 ( 62) -0.2060 ( 64)  0.1067 (124) -0.1066 (127)
 CRD 31=   0.1618 (  1)  0.1619 (  3) -0.3580 ( 14) -0.3577 ( 18)  0.1502 ( 19)
           0.1858 ( 20)  0.1504 ( 21)  0.1860 ( 22) -0.1317 ( 34)  0.1889 ( 37)
           0.1889 ( 39) -0.1623 ( 44) -0.1623 ( 46)  0.2357 ( 51)  0.2356 ( 56)
           0.1779 ( 58) -0.2653 ( 59) -0.2655 ( 60)  0.1258 ( 61) -0.1377 ( 62)
           0.1258 ( 63) -0.1378 ( 64)
 CRD 32=  -0.2840 (  1) -0.3840 (  2) -0.2809 (  3)  0.1338 (  4)  0.1307 (  6)
           0.1037 (  8)  0.1011 (  9) -0.1214 ( 11) -0.1266 ( 13)  0.2369 ( 14)
          -0.1201 ( 17)  0.2455 ( 18)  0.3418 ( 20)  0.3527 ( 22)  0.1146 ( 25)
           0.1168 ( 26) -0.1662 ( 50)  0.1032 ( 51) -0.1640 ( 55)
 CRD 33=   0.1063 (  3)  0.1004 (  4) -0.1044 (  6) -0.2193 ( 13) -0.2959 ( 14)
           0.2231 ( 17)  0.2891 ( 18) -0.1399 ( 19) -0.3733 ( 20)  0.1417 ( 21)
           0.3627 ( 22) -0.1341 ( 23)  0.1340 ( 24)  0.1447 ( 27) -0.1463 ( 28)
           0.1418 ( 44) -0.1422 ( 46)  0.1995 ( 51) -0.2026 ( 56)  0.1774 ( 59)
          -0.1765 ( 60)
 CRD 34=  -0.2950 ( 67)  0.1759 ( 69)  0.1759 ( 72) -0.2950 ( 75) -0.2287 ( 81)
          -0.1107 ( 87) -0.2286 ( 96)  0.2922 (102)  0.2922 (104) -0.1755 (108)
          -0.1884 (109) -0.1755 (113) -0.1884 (115)  0.2435 (118)  0.1759 (120)
           0.2435 (121)  0.1759 (123)
 CRD 35=   0.1209 (  1) -0.1482 (  2)  0.1210 (  3) -0.1839 (  5) -0.1839 (  7)
          -0.2555 (  8) -0.2555 (  9)  0.1218 ( 11)  0.1962 ( 20)  0.1964 ( 22)
           0.4053 ( 23)  0.4054 ( 24)  0.2236 ( 44)  0.2236 ( 46) -0.2004 ( 61)
          -0.2004 ( 63)
 CRD 36=  -0.2464 (  1)  0.2463 (  3) -0.1577 (  4)  0.2254 (  5)  0.1577 (  6)
          -0.2253 (  7)  0.1981 (  8) -0.1981 (  9)  0.1655 ( 13) -0.2664 ( 14)
          -0.1655 ( 17)  0.2664 ( 18) -0.1126 ( 19)  0.2178 ( 20)  0.1126 ( 21)
          -0.2179 ( 22) -0.3384 ( 23)  0.3383 ( 24)
 CRD 37=   0.2920 ( 10) -0.2921 ( 12)  0.2920 ( 15) -0.2921 ( 16)  0.2761 ( 69)
           0.1204 ( 70) -0.1203 ( 71) -0.2761 ( 72) -0.1204 ( 73)  0.1204 ( 74)
           0.1204 ( 76) -0.1204 ( 79) -0.1737 ( 81)  0.1737 ( 96) -0.2083 (109)
           0.2084 (115)  0.1063 (120) -0.1064 (123) -0.1481 (128)  0.1482 (129)
 CRD 38=  -0.3207 (  1)  0.3206 (  3) -0.1315 (  4) -0.1731 (  5)  0.1316 (  6)
           0.1737 (  7)  0.1266 (  8) -0.1269 (  9) -0.1050 ( 10) -0.1048 ( 12)
           0.1050 ( 15)  0.1050 ( 16)  0.1420 ( 19) -0.1417 ( 21)  0.1056 ( 32)
           0.1055 ( 33) -0.1461 ( 35) -0.1057 ( 38) -0.1057 ( 40)  0.1462 ( 42)
           0.1805 ( 48)  0.1806 ( 49) -0.1805 ( 53) -0.1804 ( 54)  0.1570 ( 65)
          -0.1570 ( 66)  0.1654 ( 71)  0.1654 ( 74) -0.1654 ( 76) -0.1654 ( 79)
           0.1654 (111) -0.1654 (112)  0.1654 (116) -0.1654 (117)
 CRD 39=  -0.3656 (  5) -0.3652 (  7)  0.2071 (  8)  0.2067 (  9)  0.2122 ( 11)
           0.2268 ( 14)  0.2268 ( 18) -0.2357 ( 19) -0.2359 ( 21)  0.1246 ( 23)
           0.1246 ( 24)  0.1045 ( 34) -0.1496 ( 44) -0.1497 ( 46)  0.2003 ( 61)
          -0.1373 ( 62)  0.2001 ( 63) -0.1371 ( 64) -0.1320 (124)  0.1320 (127)
 CRD 40=  -0.1421 (  1)  0.1422 (  3) -0.1204 (  4)  0.1746 (  5)  0.1204 (  6)
          -0.1749 (  7) -0.1535 (  8)  0.1537 (  9)  0.2289 ( 19) -0.3394 ( 20)
          -0.2291 ( 21)  0.3394 ( 22) -0.1602 ( 27)  0.1602 ( 28) -0.2290 ( 37)
           0.2291 ( 39) -0.1592 ( 45)  0.1592 ( 47)  0.1428 ( 50) -0.1087 ( 51)
          -0.1428 ( 55)  0.1086 ( 56) -0.1608 ( 59)  0.1609 ( 60)  0.1477 ( 62)
          -0.1478 ( 64)
 CRD 41=  -0.2268 (  1)  0.5001 (  2) -0.2267 (  3) -0.1107 (  8) -0.1107 (  9)
          -0.3456 ( 13)  0.1310 ( 14) -0.3455 ( 17)  0.1308 ( 18)  0.1787 ( 19)
           0.1785 ( 21)  0.1949 ( 34)  0.1353 ( 51)  0.1353 ( 56)  0.1133 ( 58)
          -0.1693 ( 59) -0.1692 ( 60)
 CRD 42=   0.1778 (  1)  0.1779 (  3) -0.1907 ( 13)  0.1436 ( 14) -0.1907 ( 17)
           0.1440 ( 18) -0.2167 ( 19)  0.2065 ( 20) -0.2169 ( 21)  0.2064 ( 22)
           0.1168 ( 23)  0.1164 ( 24) -0.1677 ( 27) -0.1679 ( 28) -0.1071 ( 29)
          -0.1067 ( 30) -0.1087 ( 32) -0.1087 ( 33) -0.1119 ( 34) -0.1951 ( 37)
          -0.1087 ( 38) -0.1952 ( 39) -0.1087 ( 40) -0.1668 ( 44)  0.1129 ( 45)
          -0.1667 ( 46)  0.1127 ( 47)  0.1452 ( 50)  0.1453 ( 55)  0.2138 ( 58)
           0.1053 ( 62)  0.1050 ( 64)  0.1150 ( 65)  0.1150 ( 66)  0.1870 (124)
          -0.1870 (127)
 CRD 43=  -0.1324 (  1)  0.1322 (  3)  0.1481 (  5) -0.1481 (  7) -0.2165 (  8)
           0.2165 (  9) -0.2625 ( 14)  0.2624 ( 18)  0.2365 ( 23) -0.2367 ( 24)
           0.1107 ( 27) -0.1104 ( 28) -0.2169 ( 29)  0.2170 ( 30) -0.2035 ( 31)
          -0.2061 ( 35)  0.2060 ( 42)  0.2033 ( 43)  0.1150 ( 45) -0.1152 ( 47)
          -0.1790 ( 51)  0.1970 ( 52)  0.1791 ( 56) -0.1970 ( 57)  0.1880 ( 62)
          -0.1882 ( 64)
 CRD 44=  -0.2403 ( 67) -0.1122 ( 69)  0.1119 ( 72)  0.2401 ( 75) -0.1856 ( 81)
           0.1600 ( 82) -0.1229 ( 88)  0.1166 ( 89) -0.1601 ( 92)  0.1227 ( 93)
          -0.1166 ( 94)  0.1856 ( 96)  0.1869 (102) -0.1872 (104) -0.1839 (108)
           0.1838 (113) -0.2612 (118)  0.1712 (119)  0.2614 (121) -0.1710 (122)
          -0.2895 (130)  0.2897 (131)
 CRD 45=   0.1460 (  1) -0.1460 (  3) -0.1574 (  4)  0.1975 (  5)  0.1575 (  6)
          -0.1976 (  7) -0.2847 (  8)  0.2847 (  9) -0.1236 ( 13)  0.1236 ( 17)
          -0.2753 ( 19)  0.2753 ( 21)  0.1549 ( 25) -0.1549 ( 26)  0.1024 ( 32)
           0.1023 ( 33) -0.1024 ( 38) -0.1023 ( 40) -0.1633 ( 44)  0.1633 ( 46)
           0.1092 ( 48)  0.1092 ( 49) -0.1092 ( 53) -0.1092 ( 54) -0.1306 ( 61)
           0.1306 ( 63)  0.1219 ( 71)  0.1219 ( 74) -0.1218 ( 76) -0.1218 ( 79)
           0.1219 (111) -0.1219 (112)  0.1219 (116) -0.1218 (117)
 CRD 46=  -0.1182 (  1) -0.1173 (  3)  0.1172 (  4)  0.1391 (  5)  0.1173 (  6)
           0.1385 (  7)  0.1792 (  8)  0.1780 (  9) -0.1508 ( 11) -0.1911 ( 14)
          -0.1923 ( 18) -0.1994 ( 19) -0.1103 ( 20) -0.1983 ( 21) -0.1118 ( 22)
           0.2587 ( 23)  0.2574 ( 24)  0.1035 ( 27)  0.1045 ( 28) -0.2010 ( 31)
          -0.2018 ( 43) -0.1360 ( 45) -0.1373 ( 47) -0.1562 ( 51)  0.2438 ( 52)
          -0.1570 ( 56)  0.2427 ( 57)  0.1853 ( 61)  0.1718 ( 62)  0.1841 ( 63)
           0.1710 ( 64)
 CRD 47=   0.1142 (  1) -0.1153 (  3) -0.1438 (  8)  0.1453 (  9)  0.3845 ( 13)
          -0.1457 ( 14) -0.3848 ( 17)  0.1440 ( 18)  0.1208 ( 19) -0.1771 ( 20)
          -0.1226 ( 21)  0.1763 ( 22) -0.1471 ( 23)  0.1492 ( 24)  0.1107 ( 27)
          -0.1098 ( 28) -0.1041 ( 31)  0.1885 ( 37) -0.1882 ( 39)  0.1024 ( 43)
          -0.1531 ( 45)  0.1520 ( 47) -0.1358 ( 50) -0.1004 ( 51) -0.1221 ( 52)
           0.1352 ( 55)  0.1241 ( 57) -0.2232 ( 59)  0.2224 ( 60) -0.1534 ( 61)
           0.1550 ( 63)
 CRD 48=   0.1929 ( 67)  0.1356 ( 69) -0.1113 ( 71)  0.1357 ( 72) -0.1112 ( 74)
           0.1931 ( 75) -0.1114 ( 76) -0.1113 ( 79) -0.1196 ( 81)  0.1461 ( 84)
           0.1461 ( 88)  0.1462 ( 93)  0.1461 ( 95) -0.1194 ( 96)  0.1724 (102)
           0.1723 (104)  0.1063 (106) -0.1488 (107) -0.2378 (109)  0.1063 (110)
          -0.1490 (114) -0.2380 (115) -0.1373 (118)  0.1357 (120) -0.1370 (121)
           0.1356 (123)  0.1081 (124)  0.1081 (125)  0.1081 (126)  0.1082 (127)
          -0.3145 (128) -0.3146 (129)
 CRD 49=  -0.1762 (  2)  0.2707 (  4) -0.1844 (  5)  0.2707 (  6) -0.1843 (  7)
          -0.1201 ( 11) -0.1159 ( 13)  0.1110 ( 14) -0.1161 ( 17)  0.1110 ( 18)
           0.2145 ( 19) -0.1813 ( 20)  0.2144 ( 21) -0.1812 ( 22)  0.1022 ( 29)
           0.1022 ( 30) -0.1232 ( 32) -0.1233 ( 33) -0.1232 ( 38) -0.1233 ( 40)
           0.1279 ( 44) -0.1584 ( 45)  0.1280 ( 46) -0.1583 ( 47)  0.1247 ( 51)
           0.1247 ( 56) -0.2044 ( 58) -0.1245 ( 59) -0.1244 ( 60)  0.1200 ( 65)
           0.1199 ( 66)  0.1056 ( 85) -0.1054 ( 86) -0.1055 ( 90)  0.1054 ( 91)
           0.2110 (124) -0.2109 (127)
 CRD 50=  -0.2627 (  1)  0.2627 (  3) -0.2341 (  5)  0.2340 (  7) -0.2709 (  8)
           0.2709 (  9)  0.1084 ( 14) -0.1084 ( 18) -0.1832 ( 19)  0.1832 ( 21)
          -0.1129 ( 23)  0.1129 ( 24) -0.1455 ( 25)  0.1455 ( 26) -0.1846 ( 29)
           0.1846 ( 30)  0.1137 ( 31) -0.2070 ( 35)  0.2069 ( 42) -0.1138 ( 43)
          -0.1205 ( 44)  0.1205 ( 46)  0.1112 ( 50) -0.1259 ( 52) -0.1113 ( 55)
           0.1259 ( 57) -0.1208 ( 61) -0.1116 ( 62)  0.1208 ( 63)  0.1116 ( 64)
 CRD 51=   0.1352 (  1) -0.3175 (  2)  0.1352 (  3) -0.2641 (  4)  0.1831 (  5)
          -0.2641 (  6)  0.1832 (  7)  0.1181 (  8)  0.1182 (  9)  0.1570 ( 11)
          -0.2028 ( 13) -0.2028 ( 17) -0.1305 ( 20) -0.1305 ( 22)  0.1292 ( 25)
           0.1292 ( 26) -0.1819 ( 27) -0.1819 ( 28) -0.2165 ( 34)  0.1082 ( 35)
          -0.1341 ( 37) -0.1341 ( 39)  0.1083 ( 42) -0.1510 ( 45) -0.1510 ( 47)
          -0.1653 ( 58) -0.1131 ( 59) -0.1131 ( 60) -0.1050 (124)  0.1050 (127)
 CRD 52=   0.1590 ( 10) -0.1589 ( 12)  0.1590 ( 15) -0.1590 ( 16)  0.1384 ( 68)
          -0.1280 ( 69)  0.1281 ( 72) -0.1386 ( 77)  0.1018 ( 81) -0.1063 ( 83)
          -0.1356 ( 85) -0.1356 ( 86)  0.1350 ( 88)  0.1356 ( 90)  0.1355 ( 91)
          -0.1351 ( 93) -0.1015 ( 96)  0.1063 ( 97)  0.1093 ( 98)  0.1433 ( 99)
          -0.1091 (100) -0.1433 (101) -0.1787 (102)  0.1786 (104)  0.1827 (107)
           0.1667 (109) -0.1402 (111) -0.1402 (112) -0.1827 (114) -0.1667 (115)
           0.1402 (116)  0.1401 (117) -0.1095 (119) -0.2410 (120)  0.1094 (122)
           0.2410 (123)  0.2218 (128) -0.2217 (129)
 CRD 53=  -0.1657 ( 10)  0.4640 ( 11) -0.1657 ( 12) -0.1656 ( 15) -0.1658 ( 16)
           0.1158 ( 25)  0.1158 ( 26) -0.1170 ( 36) -0.1170 ( 41) -0.1179 ( 48)
          -0.1178 ( 49) -0.1571 ( 50) -0.1179 ( 53) -0.1178 ( 54) -0.1570 ( 55)
           0.2398 ( 65)  0.2398 ( 66)  0.1839 ( 71) -0.1838 ( 74)  0.1839 ( 76)
          -0.1840 ( 79)  0.1839 (111) -0.1840 (112) -0.1838 (116)  0.1839 (117)
           0.1460 (124) -0.1461 (127)
 CRD 54=  -0.1726 ( 10)  0.1725 ( 12)  0.1726 ( 15) -0.1723 ( 16) -0.1416 ( 48)
           0.1415 ( 49) -0.1415 ( 53)  0.1416 ( 54) -0.1273 ( 68) -0.1273 ( 70)
          -0.1272 ( 73) -0.1271 ( 77) -0.1262 ( 78) -0.1262 ( 80)  0.1224 ( 81)
           0.1523 ( 87)  0.1101 ( 89)  0.1100 ( 94)  0.1225 ( 96)  0.1100 ( 98)
           0.1101 (100)  0.1117 (103)  0.1117 (105) -0.1971 (106)  0.1350 (108)
          -0.1141 (109) -0.1970 (110)  0.1352 (113) -0.1140 (115) -0.1610 (118)
          -0.1272 (119) -0.1609 (121) -0.1273 (122) -0.1857 (124) -0.1854 (125)
          -0.1859 (126) -0.1855 (127) -0.2172 (130) -0.2172 (131)
 CRD 55=   0.2674 (  4) -0.2674 (  6) -0.1473 ( 10) -0.1474 ( 12)  0.1473 ( 15)
           0.1474 ( 16) -0.2066 ( 36)  0.2066 ( 41)  0.2207 ( 65) -0.2207 ( 66)
          -0.1937 ( 85)  0.1937 ( 86) -0.1936 ( 90)  0.1936 ( 91)  0.3874 (125)
          -0.3872 (126)
 CRD 56=   0.1735 ( 67) -0.1563 ( 69)  0.1561 ( 72) -0.1733 ( 75) -0.1324 ( 82)
           0.2407 ( 83)  0.1861 ( 84)  0.1128 ( 88) -0.1128 ( 89)  0.1326 ( 92)
          -0.1129 ( 93)  0.1128 ( 94) -0.1862 ( 95) -0.2400 ( 97)  0.1559 ( 98)
           0.1362 ( 99) -0.1558 (100) -0.1360 (101) -0.2089 (103)  0.2082 (105)
           0.1478 (108) -0.1478 (113) -0.2751 (128)  0.2744 (129) -0.2394 (130)
           0.2401 (131)
 CRD 57=  -0.1673 ( 70) -0.1671 ( 73)  0.1217 ( 78)  0.1216 ( 80) -0.2171 ( 83)
          -0.1468 ( 87) -0.2179 ( 97)  0.2657 (103)  0.2662 (105)  0.1524 (107)
           0.1526 (114) -0.1670 (119) -0.1674 (122)  0.1025 (124)  0.1026 (125)
           0.1024 (126)  0.1024 (127)  0.2199 (128)  0.2206 (129) -0.3107 (130)
          -0.3100 (131)
 CRD 58=   0.1004 ( 68)  0.2511 ( 70) -0.2512 ( 73) -0.1000 ( 77) -0.1015 ( 82)
          -0.1638 ( 84)  0.1326 ( 88)  0.1015 ( 92) -0.1325 ( 93)  0.1639 ( 95)
          -0.1296 ( 99)  0.1296 (101) -0.1752 (103)  0.1754 (105) -0.1106 (106)
          -0.1996 (108)  0.1107 (110)  0.1555 (111)  0.1555 (112)  0.1993 (113)
          -0.1553 (116) -0.1553 (117) -0.1060 (118) -0.3424 (120)  0.1060 (121)
           0.3424 (123) -0.1663 (130)  0.1660 (131)
 CRD 59=   0.2094 ( 68)  0.2091 ( 77) -0.1512 ( 78) -0.1513 ( 80) -0.1877 ( 83)
           0.1825 ( 87) -0.1601 ( 89) -0.1601 ( 94) -0.1875 ( 97) -0.1599 ( 98)
          -0.1604 (100)  0.1140 (106) -0.3057 (108)  0.1140 (110)  0.2303 (111)
           0.2303 (112) -0.3058 (113)  0.2304 (116)  0.2304 (117)  0.1448 (128)
           0.1446 (129)
 CRD 60=  -0.2035 ( 68)  0.1781 ( 70) -0.1782 ( 73)  0.2037 ( 77) -0.1176 ( 78)
           0.1174 ( 80)  0.2035 ( 82)  0.1458 ( 83) -0.2528 ( 84) -0.2034 ( 92)
           0.2529 ( 95) -0.1460 ( 97) -0.2732 ( 98)  0.2730 (100) -0.1330 (103)
           0.1332 (105)  0.1185 (106)  0.2038 (108) -0.1183 (110) -0.1514 (111)
          -0.1514 (112) -0.2043 (113)  0.1518 (116)  0.1518 (117) -0.1572 (120)
           0.1572 (123)

 THE DETERMINANT OF THE G MATRIX IS 10**(   -25)


                     --------------------
                     INTERNAL COORDINATES
                     --------------------

                 - - ATOMS - -         COORDINATE      COORDINATE
 NO.   TYPE    I  J  K  L  M  N        (BOHR,RAD)       (ANG,DEG)
 ----------------------------------------------------------------
   1 STRETCH   1  3                     2.6827374       1.4196436
   2 STRETCH   1  4                     2.6314040       1.3924791
   3 STRETCH   1  2                     2.6826622       1.4196038
   4 STRETCH   2  5                     2.8314704       1.4983497
   5 STRETCH   2  6                     2.5825011       1.3666008
   6 STRETCH   3  7                     2.8313956       1.4983101
   7 STRETCH   3  8                     2.5826709       1.3666907
   8 STRETCH   4 10                     2.6877106       1.4222753
   9 STRETCH   4  9                     2.6878664       1.4223577
  10 STRETCH   5 13                     2.0878789       1.1048580
  11 STRETCH   5  7                     2.9408120       1.5562108
  12 STRETCH   5 14                     2.0878189       1.1048263
  13 STRETCH   6 11                     2.6878851       1.4223676
  14 STRETCH   6 15                     2.0671472       1.0938873
  15 STRETCH   7 17                     2.0880112       1.1049280
  16 STRETCH   7 16                     2.0876872       1.1047566
  17 STRETCH   8 12                     2.6879871       1.4224216
  18 STRETCH   8 18                     2.0669066       1.0937600
  19 STRETCH   9 12                     2.5957240       1.3735981
  20 STRETCH   9 19                     2.0691457       1.0949448
  21 STRETCH  10 11                     2.5959923       1.3737401
  22 STRETCH  10 20                     2.0692562       1.0950033
  23 STRETCH  11 21                     2.0703098       1.0955608
  24 STRETCH  12 22                     2.0701452       1.0954737
  25 BEND      1  2  5                  1.8900049     108.2893019
  26 BEND      1  3  7                  1.8899056     108.2836123
  27 BEND      1  2  6                  2.0722932     118.7336535
  28 BEND      1  3  8                  2.0719395     118.7133893
  29 BEND      1  4  9                  2.0304244     116.3347509
  30 BEND      1  4 10                  2.0306630     116.3484207
  31 BEND      2  6 11                  2.0681112     118.4940440
  32 BEND      2  5 13                  1.9368655     110.9742166
  33 BEND      2  5 14                  1.9365019     110.9533848
  34 BEND      2  1  3                  1.9610092     112.3575492
  35 BEND      2  1  4                  2.1608842     123.8095471
  36 BEND      2  5  7                  1.8418435     105.5298613
  37 BEND      2  6 15                  2.1246422     121.7330303
  38 BEND      3  7 17                  1.9365955     110.9587490
  39 BEND      3  8 18                  2.1247404     121.7386588
  40 BEND      3  7 16                  1.9363807     110.9464419
  41 BEND      3  7  5                  1.8420147     105.5396661
  42 BEND      3  1  4                  2.1612918     123.8328983
  43 BEND      3  8 12                  2.0681209     118.4946005
  44 BEND      4  9 19                  2.0775534     119.0350394
  45 BEND      4  9 12                  2.0942533     119.9918774
  46 BEND      4 10 20                  2.0778052     119.0494674
  47 BEND      4 10 11                  2.0942645     119.9925197
  48 BEND      5  7 17                  1.9467037     111.5379052
  49 BEND      5  7 16                  1.9465463     111.5288873
  50 BEND      5  2  6                  2.3208872     132.9770423
  51 BEND      6 11 21                  2.0574744     117.8846007
  52 BEND      6 11 10                  2.1401544     122.6218125
  53 BEND      7  5 14                  1.9463510     111.5176976
  54 BEND      7  5 13                  1.9466706     111.5360116
  55 BEND      7  3  8                  2.3213402     133.0029954
  56 BEND      8 12 22                  2.0571445     117.8656967
  57 BEND      8 12  9                  2.1403406     122.6324824
  58 BEND      9  4 10                  2.2220978     127.3168248
  59 BEND      9 12 22                  2.0857002     119.5018209
  60 BEND     10 11 21                  2.0855565     119.4935861
  61 BEND     11 10 20                  2.1111156     120.9580112
  62 BEND     11  6 15                  2.0904318     119.7729206
  63 BEND     12  9 19                  2.1113786     120.9730833
  64 BEND     12  8 18                  2.0903239     119.7667394
  65 BEND     13  5 14                  1.8573883     106.4205102
  66 BEND     16  7 17                  1.8573733     106.4196487
  67 TORSION   1  2  6 15              -3.1414470    -179.9916569
  68 TORSION   1  2  6 11              -0.0003096      -0.0177384
  69 TORSION   1  4 10 20              -3.1414271    -179.9905132
  70 TORSION   1  4 10 11              -0.0000923      -0.0052899
  71 TORSION   1  2  5 14              -2.1103183    -120.9123299
  72 TORSION   1  4  9 19               3.1415416     179.9970769
  73 TORSION   1  4  9 12              -0.0000661      -0.0037862
  74 TORSION   1  3  7 16               2.1107432     120.9366758
  75 TORSION   1  3  8 18               3.1415193     179.9957989
  76 TORSION   1  3  7 17              -2.1115158    -120.9809425
  77 TORSION   1  3  8 12               0.0001465       0.0083920
  78 TORSION   1  3  7  5              -0.0002319      -0.0132884
  79 TORSION   1  2  5 13               2.1116722     120.9899038
  80 TORSION   1  2  5  7               0.0003836       0.0219790
  81 TORSION   2  6 11 21              -3.1414734    -179.9931651
  82 TORSION   2  1  3  7               0.0005021       0.0287678
  83 TORSION   2  6 11 10               0.0002841       0.0162773
  84 TORSION   2  1  4 10               0.0000574       0.0032880
  85 TORSION   2  5  7 16              -2.1044287    -120.5748833
  86 TORSION   2  5  7 17               2.1045932     120.5843078
  87 TORSION   2  5  7  3              -0.0000915      -0.0052435
  88 TORSION   2  1  4  9               3.1412952     179.9829596
  89 TORSION   2  1  3  8              -3.1413915    -179.9884764
  90 TORSION   3  7  5 14               2.1041773     120.5604783
  91 TORSION   3  7  5 13              -2.1049780    -120.6063575
  92 TORSION   3  1  2  5              -0.0005634      -0.0322798
  93 TORSION   3  1  4 10              -3.1410364    -179.9681280
  94 TORSION   3  1  2  6               3.1412941     179.9828959
  95 TORSION   3  1  4  9               0.0002015       0.0115435
  96 TORSION   3  8 12 22              -3.1415624    -179.9982669
  97 TORSION   3  8 12  9              -0.0000220      -0.0012596
  98 TORSION   4  1  3  8              -0.0002471      -0.0141570
  99 TORSION   4  1  3  7              -3.1415388    -179.9969128
 100 TORSION   4  1  2  6               0.0001496       0.0085695
 101 TORSION   4  1  2  5               3.1414774     179.9933938
 102 TORSION   4 10 11 21              -3.1415005    -179.9947185
 103 TORSION   4 10 11  6              -0.0000752      -0.0043071
 104 TORSION   4  9 12 22               3.1415198     179.9958277
 105 TORSION   4  9 12  8              -0.0000198      -0.0011325
 106 TORSION   5  7  3  8              -3.1414636    -179.9926083
 107 TORSION   5  2  6 11              -3.1415585    -179.9980438
 108 TORSION   5  2  6 15               0.0004894       0.0280377
 109 TORSION   6 11 10 20               3.1412546     179.9806292
 110 TORSION   6  2  5  7              -3.1415265    -179.9962093
 111 TORSION   6  2  5 14               1.0309569      59.0694819
 112 TORSION   6  2  5 13              -1.0302379     -59.0282845
 113 TORSION   7  3  8 18              -0.0004641      -0.0265903
 114 TORSION   7  3  8 12               3.1413484     179.9860028
 115 TORSION   8 12  9 19               3.1415575     179.9979875
 116 TORSION   8  3  7 16              -1.0304885     -59.0426441
 117 TORSION   8  3  7 17               1.0304378      59.0397376
 118 TORSION   9 12  8 18              -3.1413993    -179.9889218
 119 TORSION   9  4 10 11              -3.1412852    -179.9823818
 120 TORSION   9  4 10 20               0.0005654       0.0323949
 121 TORSION  10 11  6 15               3.1414307     179.9907213
 122 TORSION  10  4  9 12               3.1411268     179.9733084
 123 TORSION  10  4  9 19              -0.0004508      -0.0258285
 124 TORSION  13  5  7 16               2.0738701     118.8240028
 125 TORSION  13  5  7 17              -0.0002933      -0.0168062
 126 TORSION  14  5  7 16              -0.0001599      -0.0091615
 127 TORSION  14  5  7 17              -2.0743233    -118.8499704
 128 TORSION  15  6 11 21              -0.0003267      -0.0187210
 129 TORSION  18  8 12 22               0.0002456       0.0140709
 130 TORSION  19  9 12 22              -0.0000882      -0.0050524
 131 TORSION  20 10 11 21              -0.0001707      -0.0097822

     ------------------------------------------
     THE POINT GROUP IS C1 , NAXIS= 1, ORDER= 1
     ------------------------------------------

     DIMENSIONS OF THE SYMMETRY SUBSPACES ARE
 A   =  288

 ..... DONE SETTING UP THE RUN .....
 STEP CPU TIME =     0.02 TOTAL CPU TIME =        0.0 (    0.0 MIN)
 TOTAL WALL CLOCK TIME=        0.0 SECONDS, CPU UTILIZATION IS 100.00%


          -----------------------------
          STATIONARY POINT LOCATION RUN
          -----------------------------

 OBTAINING INITIAL HESSIAN, HESS=GUESS   
 DIAGONAL GUESS HESSIAN IN INTERNAL COORDS IS
     1  0.4550     2  0.4797     3  0.4551     4  0.3905     5  0.5045
     6  0.3905     7  0.5044     8  0.4527     9  0.4526    10  0.3365
    11  0.3489    12  0.3365    13  0.4526    14  0.3438    15  0.3365
    16  0.3366    17  0.4526    18  0.3438    19  0.4976    20  0.3431
    21  0.4975    22  0.3430    23  0.3426    24  0.3427    25  0.2588
    26  0.2588    27  0.2689    28  0.2689    29  0.2667    30  0.2667
    31  0.2687    32  0.2251    33  0.2251    34  0.2648    35  0.2669
    36  0.2489    37  0.2339    38  0.2251    39  0.2339    40  0.2251
    41  0.2489    42  0.2669    43  0.2687    44  0.2303    45  0.2681
    46  0.2303    47  0.2681    48  0.2217    49  0.2217    50  0.2628
    51  0.2303    52  0.2681    53  0.2217    54  0.2217    55  0.2628
    56  0.2303    57  0.2681    58  0.2643    59  0.2334    60  0.2333
    61  0.2334    62  0.2304    63  0.2334    64  0.2304    65  0.2019
    66  0.2019    67  0.2500    68  0.2500    69  0.2500    70  0.2500
    71  0.2500    72  0.2500    73  0.2500    74  0.2500    75  0.2500
    76  0.2500    77  0.2500    78  0.2500    79  0.2500    80  0.2500
    81  0.2500    82  0.2500    83  0.2500    84  0.2500    85  0.2500
    86  0.2500    87  0.2500    88  0.2500    89  0.2500    90  0.2500
    91  0.2500    92  0.2500    93  0.2500    94  0.2500    95  0.2500
    96  0.2500    97  0.2500    98  0.2500    99  0.2500   100  0.2500
   101  0.2500   102  0.2500   103  0.2500   104  0.2500   105  0.2500
   106  0.2500   107  0.2500   108  0.2500   109  0.2500   110  0.2500
   111  0.2500   112  0.2500   113  0.2500   114  0.2500   115  0.2500
   116  0.2500   117  0.2500   118  0.2500   119  0.2500   120  0.2500
   121  0.2500   122  0.2500   123  0.2500   124  0.2500   125  0.2500
   126  0.2500   127  0.2500   128  0.2500   129  0.2500   130  0.2500
   131  0.2500
 TRANSFORMING HESSIAN TO SYMMETRY COORDINATES

          PARAMETERS CONTROLLING GEOMETRY SEARCH ARE
          METHOD =QA                  UPHESS =BFGS    
          NNEG   =         0          NFRZ   =         3
          NSTEP  =        50          IFOLOW =         1
          HESS   =GUESS               RESTAR =         F
          IHREP  =         0          HSSEND =         F
          NPRT   =         0          NPUN   =         0
          OPTTOL = 5.000E-04          RMIN   = 1.500E-03
          RMAX   = 1.000E-01          RLIM   = 7.000E-02
          DXMAX  = 3.000E-01          PURIFY =         F
          MOVIE  =         F          TRUPD  =         T
          TRMAX  = 5.000E-01          TRMIN  = 5.000E-02
          ITBMAT =         5          STPT   =         F
          STSTEP = 1.000E-02          PROJCT=          F
          FROZEN COORD(S)=   1   2   3


      ***** EQUILIBRIUM GEOMETRY LOCATED *****
            (SUBJECT TO   3 CONSTRAINT(S))
 COORDINATES OF ALL ATOMS ARE (ANGS)
   ATOM   CHARGE       X              Y              Z
 ------------------------------------------------------------
 C           6.0   3.3036987312   2.9993454305   1.7324821691
 C           6.0   4.0776426348   3.9738495307   2.3965848003
 C           6.0   1.9428675193   3.3606075214   1.6468350369
 C           6.0   3.8253111835   1.8119221098   1.2186334739
 C           6.0   3.1722870939   5.1210285878   2.8119354824
 C           6.0   5.4121470124   3.7575265006   2.5528749198
 C           6.0   1.7506386298   4.7126122619   2.3127965873
 C           6.0   1.0761225648   2.5119116310   1.0298622938
 C           6.0   2.8978705781   0.9403397191   0.5774997007
 C           6.0   5.2247827308   1.6087744476   1.3949263685
 C           6.0   5.9739167763   2.5533663604   2.0384738452
 C           6.0   1.5796307898   1.2910716752   0.4948028067
 H           1.0   3.1874611143   5.2627660170   3.8875084882
 H           1.0   3.4940550135   6.0558088285   2.3649017154
 H           1.0   6.0516843924   4.4658349998   3.0512095243
 H           1.0   1.3535724244   5.4410551585   1.6135944850
 H           1.0   1.0468591564   4.6476505174   3.1359955006
 H           1.0   0.0271871258   2.7350839573   0.9350921371
 H           1.0   3.2306388109   0.0063598775   0.1576268802
 H           1.0   5.6952368432   0.7143514947   1.0234177226
 H           1.0   7.0307124939   2.3884491741   2.1656343700
 H           1.0   0.8882830573   0.6239802020   0.0077462059


                     --------------------
                     INTERNAL COORDINATES
                     --------------------

                 - - ATOMS - -         COORDINATE      COORDINATE
 NO.   TYPE    I  J  K  L  M  N        (BOHR,RAD)       (ANG,DEG)
 ----------------------------------------------------------------
   1 STRETCH   1  3                     2.6655905       1.4105699
   2 STRETCH   1  4                     2.6362146       1.3950248
   3 STRETCH   1  2                     2.6655720       1.4105601
   4 STRETCH   2  5                     2.8710185       1.5192777
   5 STRETCH   2  6                     2.5717804       1.3609277
   6 STRETCH   3  7                     2.8711235       1.5193333
   7 STRETCH   3  8                     2.5718240       1.3609507
   8 STRETCH   4 10                     2.6930212       1.4250855
   9 STRETCH   4  9                     2.6930117       1.4250805
  10 STRETCH   5 13                     2.0503109       1.0849779
  11 STRETCH   5  7                     2.9500480       1.5610983
  12 STRETCH   5 14                     2.0503204       1.0849829
  13 STRETCH   6 11                     2.6925747       1.4248492
  14 STRETCH   6 15                     2.0344604       1.0765902
  15 STRETCH   7 17                     2.0503153       1.0849802
  16 STRETCH   7 16                     2.0503085       1.0849766
  17 STRETCH   8 12                     2.6926171       1.4248717
  18 STRETCH   8 18                     2.0344661       1.0765932
  19 STRETCH   9 12                     2.5825080       1.3666045
  20 STRETCH   9 19                     2.0347236       1.0767294
  21 STRETCH  10 11                     2.5825089       1.3666049
  22 STRETCH  10 20                     2.0347165       1.0767257
  23 STRETCH  11 21                     2.0354592       1.0771187
  24 STRETCH  12 22                     2.0354699       1.0771243
  25 BEND      1  2  5                  1.9001241     108.8690940
  26 BEND      1  3  7                  1.9000647     108.8656894
  27 BEND      1  2  6                  2.0740507     118.8343488
  28 BEND      1  3  8                  2.0739884     118.8307803
  29 BEND      1  4  9                  2.0296961     116.2930202
  30 BEND      1  4 10                  2.0296931     116.2928479
  31 BEND      2  6 11                  2.0708632     118.6517233
  32 BEND      2  5 13                  1.9404838     111.1815327
  33 BEND      2  5 14                  1.9403323     111.1728517
  34 BEND      2  1  3                  1.9616527     112.3944206
  35 BEND      2  1  4                  2.1607412     123.8013539
  36 BEND      2  5  7                  1.8314614     104.9350101
  37 BEND      2  6 15                  2.1306781     122.0788646
  38 BEND      3  7 17                  1.9405187     111.1835315
  39 BEND      3  8 18                  2.1307446     122.0826749
  40 BEND      3  7 16                  1.9404336     111.1786530
  41 BEND      3  7  5                  1.8314749     104.9357819
  42 BEND      3  1  4                  2.1607913     123.8042233
  43 BEND      3  8 12                  2.0708746     118.6523761
  44 BEND      4  9 19                  2.0999722     120.3195460
  45 BEND      4  9 12                  2.0921177     119.8695134
  46 BEND      4 10 20                  2.0999575     120.3187002
  47 BEND      4 10 11                  2.0921367     119.8706049
  48 BEND      5  7 17                  1.9431264     111.3329412
  49 BEND      5  7 16                  1.9430083     111.3261776
  50 BEND      5  2  6                  2.3090105     132.2965568
  51 BEND      6 11 21                  2.0641717     118.2683249
  52 BEND      6 11 10                  2.1388857     122.5491209
  53 BEND      7  5 14                  1.9430751     111.3300018
  54 BEND      7  5 13                  1.9432239     111.3385260
  55 BEND      7  3  8                  2.3091322     132.3035298
  56 BEND      8 12 22                  2.0642091     118.2704681
  57 BEND      8 12  9                  2.1389025     122.5500860
  58 BEND      9  4 10                  2.2237961     127.4141310
  59 BEND      9 12 22                  2.0800737     119.1794459
  60 BEND     10 11 21                  2.0801280     119.1825541
  61 BEND     11 10 20                  2.0910911     119.8106949
  62 BEND     11  6 15                  2.0816439     119.2694112
  63 BEND     12  9 19                  2.0910954     119.8109406
  64 BEND     12  8 18                  2.0815660     119.2649488
  65 BEND     13  5 14                  1.8668510     106.9626842
  66 BEND     16  7 17                  1.8668652     106.9634966
  67 TORSION   1  2  6 15              -3.1414852    -179.9938413
  68 TORSION   1  2  6 11              -0.0000829      -0.0047500
  69 TORSION   1  4 10 20              -3.1415066    -179.9950711
  70 TORSION   1  4 10 11               0.0000374       0.0021450
  71 TORSION   1  2  5 14              -2.1022098    -120.4477510
  72 TORSION   1  4  9 19               3.1415126     179.9954145
  73 TORSION   1  4  9 12              -0.0000363      -0.0020805
  74 TORSION   1  3  7 16               2.1024492     120.4614674
  75 TORSION   1  3  8 18               3.1415234     179.9960330
  76 TORSION   1  3  7 17              -2.1027492    -120.4786540
  77 TORSION   1  3  8 12               0.0000296       0.0016946
  78 TORSION   1  3  7  5              -0.0000563      -0.0032255
  79 TORSION   1  2  5 13               2.1030961     120.4985293
  80 TORSION   1  2  5  7               0.0003132       0.0179437
  81 TORSION   2  6 11 21              -3.1415339    -179.9966357
  82 TORSION   2  1  3  7               0.0002691       0.0154175
  83 TORSION   2  6 11 10               0.0001179       0.0067531
  84 TORSION   2  1  4 10              -0.0000069      -0.0003961
  85 TORSION   2  5  7 16              -2.1009519    -120.3756797
  86 TORSION   2  5  7 17               2.1008133     120.3677355
  87 TORSION   2  5  7  3              -0.0001522      -0.0087206
  88 TORSION   2  1  4  9               3.1414107     179.9895726
  89 TORSION   2  1  3  8              -3.1414420    -179.9913708
  90 TORSION   3  7  5 14               2.1005537     120.3528597
  91 TORSION   3  7  5 13              -2.1011201    -120.3853116
  92 TORSION   3  1  2  5              -0.0003726      -0.0213479
  93 TORSION   3  1  4 10              -3.1412757    -179.9818420
  94 TORSION   3  1  2  6               3.1413334     179.9851435
  95 TORSION   3  1  4  9               0.0001418       0.0081266
  96 TORSION   3  8 12 22              -3.1415223    -179.9959706
  97 TORSION   3  8 12  9               0.0000718       0.0041115
  98 TORSION   4  1  3  8              -0.0001404      -0.0080464
  99 TORSION   4  1  3  7               3.1415707     179.9987420
 100 TORSION   4  1  2  6               0.0000317       0.0018185
 101 TORSION   4  1  2  5               3.1415111     179.9953271
 102 TORSION   4 10 11 21               3.1415582     179.9980266
 103 TORSION   4 10 11  6              -0.0000941      -0.0053919
 104 TORSION   4  9 12 22               3.1415264     179.9962020
 105 TORSION   4  9 12  8              -0.0000677      -0.0038808
 106 TORSION   5  7  3  8              -3.1415086    -179.9951846
 107 TORSION   5  2  6 11              -3.1415306    -179.9964455
 108 TORSION   5  2  6 15               0.0002524       0.0144631
 109 TORSION   6 11 10 20               3.1414502     179.9918384
 110 TORSION   6  2  5  7              -3.1414137    -179.9897443
 111 TORSION   6  2  5 14               1.0392486      59.5445610
 112 TORSION   6  2  5 13              -1.0386308     -59.5091587
 113 TORSION   7  3  8 18              -0.0002208      -0.0126524
 114 TORSION   7  3  8 12               3.1414706     179.9930091
 115 TORSION   8 12  9 19               3.1415684     179.9986113
 116 TORSION   8  3  7 16              -1.0390031     -59.5304917
 117 TORSION   8  3  7 17               1.0389838      59.5293869
 118 TORSION   9 12  8 18              -3.1414249    -179.9903898
 119 TORSION   9  4 10 11              -3.1413576    -179.9865319
 120 TORSION   9  4 10 20               0.0002837       0.0162520
 121 TORSION  10 11  6 15               3.1415256     179.9961573
 122 TORSION  10  4  9 12               3.1413587     179.9865964
 123 TORSION  10  4  9 19              -0.0002777      -0.0159086
 124 TORSION  13  5  7 16               2.0812655     119.2477293
 125 TORSION  13  5  7 17              -0.0001546      -0.0088555
 126 TORSION  14  5  7 16              -0.0002461      -0.0140993
 127 TORSION  14  5  7 17              -2.0816661    -119.2706841
 128 TORSION  15  6 11 21              -0.0001262      -0.0072315
 129 TORSION  18  8 12 22               0.0001663       0.0095282
 130 TORSION  19  9 12 22              -0.0000228      -0.0013060
 131 TORSION  20 10 11 21              -0.0000828      -0.0047431

          INTERNUCLEAR DISTANCES (ANGS.)


 =====================================================
   GAMESS/COSab RESULTS
 =====================================================

   Dielectric Constant                  = INFTY
   Basic Grid Size                      =                 1082
   Number of Segments                   =                   92
   Number of Segments located on spheres=                  328
   Number of Segments of the cavity     =                  870
   Solvent Radius (rsolv)               = 1.40
   Outlying Charge Error Method         = double cavity

 =====================================================

  Total solvated Energy (a.u.)          =  -460.3625652786
  Total Energy corrected (a.u.)         =  -460.3626780748

  Outlying charge effect (a.u.)         =    -0.0001127962
  Outlying charge effect (kcal/mol)     =    -0.0707807382

  Dielectric Energy (a.u.)              =    -0.0097997121
  Dielectric energy corr. (a.u.)        =    -0.0099125083

  Sum of polarization charges           =     0.0276272006
  Sum of polarization charges(cor.)     =    -0.0276272006

  Total surface area of cavity (A**2)   =  188.29
  Total volume of cavity (A**3)         =  194.07

 =====================================================
 NPS=                   870
NR.  ATOM  (X, Y, Z)(a.u.)                  CHARGE(e)  AREA(A**2) SIGMA(e/A**2)
   1   1   6.260332   6.704097  -0.360694   0.000731   0.092912   0.007866
   2   1   7.914378   7.156129   0.228200   0.000809   0.092912   0.008703
   3   1   7.035187   6.977691  -0.181723   0.001058   0.232280   0.004554
   4   1   6.229469   7.325762  -0.122514   0.000583   0.139368   0.004183
   5   1   5.369426   4.490169   6.757273   0.001469   0.325193   0.004518
   6   1   6.484276   3.871112   6.590158   0.001353   0.185824   0.007282
   7   1   5.336580   3.552576   6.271865   0.001968   0.371649   0.005296
   8   1   6.902077   7.814443   0.233760   0.001553   0.325193   0.004774
   9   2   6.088220   5.917529   7.551126   0.000139   0.092912   0.001499
  10   2   7.439679   6.449155   8.146790   0.001130   0.232280   0.004865
  11   2   6.703925   6.114722   7.895708   0.000586   0.185824   0.003155
  12   2   6.808417   5.459616   7.574756   0.000756   0.139368   0.005427
  13   2   8.683683   8.622873   1.052101   0.002314   0.371649   0.006226
  14   2   8.832216   9.854759   1.787587   0.001224   0.232280   0.005271
  15   2   7.832370   9.352796   1.231860   0.001038   0.371649   0.002792
  16   2   7.509367   5.381637   7.646260   0.001190   0.232280   0.005122
  17   3   5.016516   8.560776   0.357014   0.000140   0.092912   0.001502
  18   3   3.540398   8.312572  -0.115593   0.001130   0.232280   0.004864
  19   3   4.352480   8.473398   0.060136   0.000587   0.185824   0.003158
  20   3   4.782642   7.911542  -0.145703   0.000759   0.139368   0.005446
  21   3   3.216907   4.047643   6.074152   0.002313   0.371649   0.006224
  22   3   2.123091   4.967272   6.270092   0.001224   0.232280   0.005271
  23   3   3.316032   5.029990   6.635401   0.001037   0.371649   0.002789
  24   3   4.307625   7.475134  -0.439695   0.001190   0.232280   0.005124
  25   4   8.273229   4.195918  -1.246414   0.000830   0.139368   0.005955
  26   4   8.374629   5.604544  -0.563581   0.001179   0.185824   0.006342
  27   4   8.290312   4.887326  -1.016172   0.000644   0.185824   0.003467
  28   4   7.593744   4.590179  -1.273582   0.000417   0.139368   0.002989
  29   4   5.988073   1.891397   5.527163   0.001788   0.325193   0.005497
  30   4   6.990004   2.021349   5.804280   0.001305   0.232280   0.005618
  31   4   6.903487   1.038771   5.216473   0.001670   0.371649   0.004495
  32   4   7.389053   5.379161  -0.927596   0.001667   0.278737   0.005981
  33   5   5.806418  13.202887   6.662633   0.000885   0.371649   0.002381
  34   5   6.408143  10.588666   1.669222  -0.000043   0.139368  -0.000306
  35   5   3.843816  11.399261   7.900825  -0.000084   0.092912  -0.000906
  36   5   6.231395  12.756539   7.492517   0.000556   0.232280   0.002394
  37   5   8.366750  11.471460   7.645968   0.000167   0.232280   0.000718
  38   5   4.847039   7.593178   8.250324   0.000019   0.185824   0.000104
  39   5   5.138918   6.986974   7.826493  -0.000114   0.046456  -0.002460
  40   5   8.395313  12.205858   6.772629   0.000645   0.325193   0.001985
  41   5   7.054211  12.901613   6.976900   0.001023   0.325193   0.003145
  42   5   4.960248  12.934561   6.927678   0.000401   0.278737   0.001438
  43   5   4.084596  12.195297   7.386350   0.000334   0.278737   0.001199
  44   5   8.790296  12.083370   6.138572   0.000024   0.139368   0.000171
  45   5   4.700641  13.215029   5.620975   0.000127   0.232280   0.000547
  46   5   4.383092  13.069310   4.887856  -0.000015   0.092912  -0.000165
  47   5   6.238525  11.065175   1.806828   0.000004   0.046456   0.000076
  48   5   4.941006  12.488933   7.609194   0.000241   0.185824   0.001297
  49   5   7.729152  12.309701   7.398699   0.000719   0.278737   0.002581
  50   5   5.437637   7.433587   8.303673   0.000006   0.046456   0.000128
  51   5   4.211211  12.847277   6.340826   0.000082   0.325193   0.000251
  52   6  13.063512   8.654735   2.868163   0.000947   0.325193   0.002912
  53   6  10.676999   6.573094   8.539575   0.001702   0.371649   0.004580
  54   6  11.345663   7.380490   8.423621   0.001017   0.325193   0.003128
  55   6  11.192547  10.657640   3.986919   0.000483   0.232280   0.002081
  56   6  13.183070   9.101089   3.580358   0.000387   0.232280   0.001667
  57   6  13.388331   6.972579   6.892289  -0.000190   0.092912  -0.002041
  58   6  13.680502   8.391769   3.991122   0.000092   0.185824   0.000494
  59   6  12.344431   9.479464   2.788476   0.001310   0.325193   0.004029
  60   6  11.373649  10.287905   3.147241   0.001633   0.371649   0.004395
  61   6  10.258059   7.621327   8.567521   0.001191   0.278737   0.004273
  62   6  11.910672   6.213764   8.089877   0.001324   0.371649   0.003561
  63   6  12.901360   6.558381   7.439667   0.000357   0.185824   0.001922
  64   6  12.035876   8.827607   1.990188   0.001983   0.325193   0.006098
  65   6  10.821149   8.311632   1.293579   0.002452   0.325193   0.007539
  66   6  10.467261   9.025237   1.580320   0.001741   0.185824   0.009368
  67   6  10.586297   9.996419   2.422077   0.001917   0.278737   0.006878
  68   6   9.573240   6.098292   8.409110   0.003032   0.418105   0.007252
  69   6  10.723333   5.481887   8.203254   0.002139   0.418105   0.005117
  70   6  10.317790   8.388610   8.376321   0.000462   0.232280   0.001990
  71   6  12.308846   9.988240   3.553676   0.000704   0.232280   0.003030
  72   6  13.893182   8.003337   4.644888  -0.000164   0.092912  -0.001768
  73   6  12.393533   6.942019   7.917332   0.000212   0.185824   0.001142
  74   6   9.351034   4.995558   7.838271   0.003585   0.418105   0.008575
  75   6  11.304267   9.439607   2.057584   0.002169   0.371649   0.005836
  76   6   9.327618   6.986314   8.493204   0.001435   0.232280   0.006178
  77   7   0.829115  11.455520   5.649543   0.000885   0.371649   0.002380
  78   7   3.433083   6.766819   7.484157  -0.000042   0.139368  -0.000302
  79   7   3.050581  12.670142   4.156969  -0.000075   0.092912  -0.000805
  80   7   0.578615  11.504873   4.647868   0.000556   0.232280   0.002394
  81   7  -0.184502   9.664841   3.142326   0.000168   0.232280   0.000724
  82   7   4.653767  10.540464   1.239926   0.000019   0.185824   0.000100
  83   7   4.945845   9.816559   1.088398  -0.000115   0.046456  -0.002467
  84   7  -0.432191   9.429105   4.231341   0.000646   0.325193   0.001987
  85   7   0.035221  10.723207   4.887986   0.001023   0.325193   0.003145
  86   7   1.536717  12.039541   5.521205   0.000401   0.278737   0.001438
  87   7   2.512007  12.552088   4.964641   0.000333   0.278737   0.001194
  88   7  -0.464416   8.725163   4.507873   0.000024   0.139368   0.000174
  89   7   1.904807  11.511440   6.720852   0.000126   0.232280   0.000544
  90   7   2.428075  11.188328   7.251251  -0.000011   0.092912  -0.000115
  91   7   3.214191   7.175174   7.729307   0.000004   0.046456   0.000080
  92   7   1.646686  12.278843   4.750452   0.000241   0.185824   0.001295
  93   7  -0.190489  10.292211   4.023627   0.000720   0.278737   0.002582
  94   7   4.315067  10.126396   0.938343   0.000006   0.046456   0.000125
  95   7   2.293486  12.108958   6.100474   0.000082   0.325193   0.000251
  96   8  -0.458704   2.411912   3.565128   0.000947   0.325193   0.002911
  97   8   1.020714   6.553689  -1.215101   0.001702   0.371649   0.004580
  98   8   0.057187   6.417568  -0.808245   0.001018   0.325193   0.003130
  99   8  -0.694469   5.203522   4.521726   0.000484   0.232280   0.002085
 100   8  -1.025370   2.982701   3.293400   0.000387   0.232280   0.001665
 101   8  -0.732080   3.973684  -0.511007  -0.000190   0.092912  -0.002041
 102   8  -1.045513   2.605259   2.412246   0.000092   0.185824   0.000494
 103   8  -0.443693   3.189882   4.338525   0.001310   0.325193   0.004029
 104   8  -0.357965   4.395745   4.851606   0.001634   0.371649   0.004397
 105   8   0.647592   7.308355  -0.462542   0.001191   0.278737   0.004272
 106   8   0.484866   5.324965  -1.452587   0.001324   0.371649   0.003562
 107   8  -0.268692   4.441113  -1.035511   0.000357   0.185824   0.001923
 108   8   0.413650   2.593215   4.596092   0.001983   0.325193   0.006097
 109   8   1.809164   2.698245   5.114326   0.002450   0.325193   0.007534
 110   8   1.530779   3.423611   5.450532   0.001741   0.185824   0.009370
 111   8   0.594714   4.311501   5.413797   0.001917   0.278737   0.006878
 112   8   2.153922   6.961562  -1.114012   0.003031   0.418105   0.007250
 113   8   1.774634   5.823598  -1.667386   0.002141   0.418105   0.005120
 114   8   0.168959   7.494751   0.141622   0.000463   0.232280   0.001992
 115   8  -0.952962   3.920701   4.110058   0.000704   0.232280   0.003029
 116   8  -1.131819   2.705500   1.633770  -0.000164   0.092912  -0.001767
 117   8  -0.278848   5.236141  -1.002996   0.000212   0.185824   0.001143
 118   8   3.173297   6.250213  -1.328751   0.003587   0.418105   0.008579
 119   8   0.532508   3.375931   5.132346   0.002169   0.371649   0.005837
 120   8   1.742444   7.569192  -0.550578   0.001436   0.232280   0.006183
 121   9   4.435361   0.952047   4.629736   0.000571   0.092912   0.006149
 122   9   6.559313  -0.856481   3.576449   0.000880   0.232280   0.003789
 123   9   4.200909  -1.601272   2.207227   0.001477   0.278737   0.005299
 124   9   6.670264   1.922822  -2.491582   0.001635   0.371649   0.004400
 125   9   6.892070   0.908948  -2.303681   0.000970   0.325193   0.002983
 126   9   4.573617  -0.247004  -1.970230   0.000122   0.092912   0.001313
 127   9   4.243431  -1.791583   1.264060   0.000389   0.278737   0.001397
 128   9   6.834114  -1.384236   2.655572   0.000326   0.232280   0.001403
 129   9   5.925864  -1.253846   3.304018   0.001093   0.278737   0.003920
 130   9   4.770475  -1.459395   2.911212   0.001123   0.232280   0.004835
 131   9   4.932883   0.269264  -2.331524   0.000406   0.185824   0.002184
 132   9   5.543874   1.365672  -2.665077   0.002173   0.418105   0.005198
 133   9   7.734383   1.670581  -1.937455   0.000817   0.278737   0.002933
 134   9   5.759361  -0.392563   4.173050   0.001664   0.325193   0.005118
 135   9   5.059672   0.390540   4.582523   0.001812   0.232280   0.007802
 136   9   4.444467  -0.010633   4.257420   0.002239   0.232280   0.009641
 137   9   4.162233  -0.896824   3.416933   0.001573   0.278737   0.005644
 138   9   5.772818   2.763924  -2.544923   0.003943   0.511017   0.007716
 139   9   7.137547   2.894980  -2.114027   0.002154   0.418105   0.005151
 140   9   5.728119   0.550528  -2.474713   0.000657   0.232280   0.002827
 141   9   5.498826  -1.710926   2.546705   0.001086   0.325193   0.003340
 142   9   7.838142   0.860642  -1.713268   0.000103   0.139368   0.000743
 143   9   6.019826   3.961290  -1.944728   0.003371   0.464561   0.007257
 144   9   4.976031  -0.837256   3.774561   0.001590   0.278737   0.005704
 145  10  10.174025   5.551541  -0.172319   0.000571   0.092912   0.006142
 146  10  10.085285   2.727209  -1.124492   0.000774   0.232280   0.003334
 147  10  12.635366   3.035081   0.056122   0.001477   0.278737   0.005299
 148  10   9.906965   0.098419   5.008656   0.001629   0.371649   0.004384
 149  10  10.340855  -0.380060   4.174845   0.000971   0.325193   0.002985
 150  10  12.655057   0.785726   3.846124   0.000122   0.092912   0.001312
 151  10  12.985589   2.331022   0.612212   0.000390   0.278737   0.001399
 152  10  10.476852   1.737806  -0.860272   0.000349   0.232280   0.001503
 153  10  10.869577   2.781110  -1.000576   0.001096   0.278737   0.003931
 154  10  11.940902   3.177815  -0.524805   0.001123   0.232280   0.004833
 155  10  12.167086   0.562234   4.334053   0.000406   0.185824   0.002183
 156  10  11.120834   0.456374   5.096173   0.002173   0.418105   0.005196
 157  10   9.148389  -0.344532   4.153444   0.000768   0.278737   0.002756
 158  10  10.201952   3.818801  -1.047731   0.001641   0.325193   0.005045
 159  10  10.094732   4.872504  -0.662120   0.001812   0.232280   0.007803
 160  10  10.882809   4.880048  -0.507248   0.002240   0.232280   0.009642
 161  10  11.881691   4.134679  -0.372815   0.001573   0.278737   0.005642
 162  10  10.032721   1.013745   5.822334   0.003947   0.511017   0.007724
 163  10   8.847525   0.474252   5.214394   0.002076   0.418105   0.004964
 164  10  11.454597   0.092562   4.395539   0.000656   0.232280   0.002825
 165  10  11.676704   2.372711  -0.617741   0.001085   0.325193   0.003336
 166  10   9.527505  -0.633568   3.453617   0.000116   0.139368   0.000830
 167  10   8.927294   1.770517   6.067806   0.003378   0.464561   0.007272
 168  10  11.159055   3.867783  -0.820338   0.001590   0.278737   0.005705
 169  11   9.704010   3.407194   6.976464   0.001398   0.185824   0.007521
 170  11  12.649438   4.430069   7.356095   0.000739   0.278737   0.002651
 171  11  12.745511   1.903646   5.756842   0.001318   0.278737   0.004730
 172  11  13.504630   6.206524   1.119522   0.001338   0.371649   0.003601
 173  11  14.264302   5.856955   1.762286   0.000754   0.325193   0.002319
 174  11  14.017937   3.256581   1.760018   0.000101   0.092912   0.001089
 175  11  13.390243   1.917443   5.041495   0.000373   0.278737   0.001337
 176  11  13.552629   4.791887   6.878615   0.000151   0.278737   0.000542
 177  11  14.396772   6.962231   4.095670  -0.000228   0.092912  -0.002452
 178  11  12.710766   3.540944   7.110048   0.000996   0.325193   0.003062
 179  11  12.510267   2.405909   6.486583   0.000965   0.232280   0.004155
 180  11  13.960399   3.858527   1.359406   0.000357   0.185824   0.001922
 181  11  13.553629   4.972439   0.829864   0.001874   0.418105   0.004482
 182  11  13.814186   6.999662   2.069043   0.000935   0.325193   0.002876
 183  11  14.247664   7.065492   3.136753   0.000288   0.185824   0.001550
 184  11  11.606479   3.779959   7.470321   0.001685   0.325193   0.005183
 185  11  10.598475   3.421626   7.292724   0.001215   0.232280   0.005232
 186  11  10.592969   2.767890   6.945281   0.002063   0.232280   0.008883
 187  11  11.577557   2.137203   6.493364   0.001365   0.278737   0.004897
 188  11  12.530122   5.880031   0.441700   0.003491   0.511017   0.006831
 189  11  12.768217   7.076587   1.201237   0.001697   0.418105   0.004059
 190  11  14.146665   4.693272   1.382150   0.000543   0.232280   0.002340
 191  11  13.225329   3.029167   6.555781   0.000928   0.371649   0.002496
 192  11  14.384808   6.591132   2.594413   0.000099   0.139368   0.000711
 193  11  11.419465   6.660695   0.550945   0.003354   0.464561   0.007220
 194  11  11.681928   2.833028   7.039850   0.001320   0.278737   0.004736
 195  12   4.168080   4.771349  -1.794151   0.001398   0.185824   0.007523
 196  12   1.290674   3.593431  -2.240232   0.000739   0.278737   0.002652
 197  12   3.270379   1.395314  -2.685995   0.001319   0.278737   0.004731
 198  12   1.263182  -0.064039   3.182327   0.001338   0.371649   0.003601
 199  12   0.761269  -0.301568   2.285606   0.000754   0.325193   0.002320
 200  12   2.594474  -1.313518   0.724209   0.000101   0.092912   0.001087
 201  12   2.994372   0.542506  -2.333673   0.000372   0.278737   0.001336
 202  12   0.541405   2.881465  -1.914112   0.000151   0.278737   0.000543
 203  12  -0.680894   1.573387   1.242257  -0.000227   0.092912  -0.002446
 204  12   1.880245   3.000959  -2.635487   0.000996   0.325193   0.003062
 205  12   2.918981   2.228125  -2.837896   0.000965   0.232280   0.004156
 206  12   2.363224  -1.257856   1.409456   0.000357   0.185824   0.001923
 207  12   2.093220  -0.830870   2.605891   0.001874   0.418105   0.004482
 208  12   0.273618   0.690326   2.902719   0.000935   0.325193   0.002876
 209  12  -0.374867   1.113400   2.046731   0.000288   0.185824   0.001549
[...]
 611   6  14.115389   7.484849   5.036378  -0.000060   0.045448  -0.001325
 612  21  14.444711   6.011734   5.772266  -0.000225   0.032079  -0.007009
 613   6  13.868376   6.853690   6.235374  -0.000074   0.045248  -0.001632
 614   7   4.744168  11.273801   1.759865  -0.000090   0.052274  -0.001726
 615  14   5.354627  11.627955   2.068242  -0.000106   0.052274  -0.002026
 616  16   4.468953  11.390882   1.711558  -0.000184   0.052274  -0.003526
 617   7   0.166808   9.044564   2.189984  -0.000168   0.061432  -0.002734
 618  16   0.289166   9.298108   2.079492  -0.000272   0.061432  -0.004421
 619  18  -0.189462   8.093767   1.832977  -0.000256   0.061432  -0.004173
 620  16   0.228130  10.071622   2.313428  -0.000295   0.074569  -0.003952
 621  16   0.254809  10.908274   3.169920  -0.000601   0.168609  -0.003562
 622  16   1.022040  11.945294   3.814616  -0.000740   0.168609  -0.004387
 623  16   2.321576  12.563394   3.720588  -0.000840   0.168609  -0.004984
 624   7   0.089527  10.078813   2.917954  -0.000567   0.160664  -0.003526
 625   7   0.467600  11.271319   3.945633  -0.000341   0.160664  -0.002123
 626   7   1.704838  12.262130   4.275282  -0.000551   0.160664  -0.003429
 627   7   2.933878  12.643959   3.975136  -0.000234   0.091102  -0.002568
 628  16   4.013436  11.129758   1.266229  -0.000275   0.073831  -0.003729
 629  16   3.564088  10.455603   0.819055  -0.000253   0.073831  -0.003430
 630   7   4.097665  10.536421   1.118571  -0.000692   0.159433  -0.004339
 631   7  -0.330744   7.757824   4.659323  -0.000147   0.061447  -0.002400
 632  17  -0.290463   7.799040   4.956217  -0.000270   0.061447  -0.004396
 633  18  -0.622456   6.973992   3.981895  -0.000258   0.061447  -0.004202
 634  17   2.209479   6.951851   7.541812  -0.000256   0.073899  -0.003466
 635  17   2.660802   7.630877   7.981246  -0.000311   0.073899  -0.004212
 636   7   2.789229   7.152133   7.613003  -0.000699   0.159547  -0.004380
 637  17   1.946378  10.572251   7.602568  -0.000299   0.074573  -0.004013
 638  17   1.041791  10.779901   6.845593  -0.000737   0.168621  -0.004370
 639  17   0.058860  10.205990   5.959966  -0.000618   0.168621  -0.003666
 640  17  -0.368319   8.910278   5.492511  -0.000789   0.168621  -0.004680
 641   7   1.862281  10.953385   7.120487  -0.000655   0.160673  -0.004078
 642   7   0.636998  10.864319   6.065924  -0.000395   0.160673  -0.002461
 643   7  -0.207147   9.745093   5.255918  -0.000385   0.160673  -0.002395
 644   7  -0.390721   8.462043   4.997727  -0.000266   0.091108  -0.002916
 645  18  -1.182704   6.796126   3.380148  -0.001124   0.246053  -0.004569
 646  18  -1.004763   7.413091   2.271977  -0.002730   0.495341  -0.005512
 647   7  -0.541226   8.266286   3.785942  -0.000526   0.696927  -0.000755
 648   7  -0.238584   8.901432   2.495677  -0.000022   0.352597  -0.000061
 649   8  -0.888675   2.379343   0.981439  -0.000117   0.011192  -0.010464
 650  12  -0.765366   1.968921   0.803683  -0.000117   0.011192  -0.010495
 651  22  -0.734218   1.741909   0.612991  -0.000120   0.011192  -0.010746
 652   8  -0.625228   3.061197  -0.326416  -0.000115   0.011192  -0.010294
 653  12  -0.498426   2.659817  -0.521514  -0.000116   0.011192  -0.010376
 654  22  -0.491410   2.370346  -0.592405  -0.000131   0.011192  -0.011703
 655  12  -0.288363   3.056802  -0.854455  -0.000570   0.195862  -0.002910
 656  12   1.107130   4.037376  -1.778599   0.000567   0.398657   0.001422
 657  12   3.296163   4.924587  -1.742970   0.002869   0.398657   0.007197
 658   8  -0.020679   4.007797  -0.999462  -0.000790   0.398657  -0.001982
 659   8   1.940264   5.123443  -1.699689   0.001954   0.398657   0.004900
 660   8   3.749579   5.689570  -1.288780   0.001457   0.195862   0.007437
 661  12   2.735330   1.883975   4.666935   0.001516   0.195881   0.007738
 662  12   1.002141   1.515299   3.877145   0.001794   0.398699   0.004499
 663  12  -0.444277   1.731890   2.021834  -0.000807   0.398699  -0.002023
 664   8   1.822341   2.288385   4.658004   0.002964   0.398699   0.007434
 665   8  -0.100549   2.090570   3.299851   0.000611   0.398699   0.001532
 666   8  -0.969280   2.473745   1.608071  -0.000441   0.195881  -0.002253
 667   8   0.033133   7.924614   1.188869  -0.000116   0.067313  -0.001727
 668  16   0.438772   8.854464   1.591615  -0.000147   0.067313  -0.002186
 669  18  -0.207440   7.757195   1.247112  -0.000337   0.067313  -0.004999
 670  16   1.803297   9.655781   0.652563  -0.000559   0.311700  -0.001795
 671  16   0.767224   9.625362   1.297682  -0.000788   0.311700  -0.002527
 672   8   0.980599   8.177060   0.416822   0.002018   0.880649   0.002291
 673   8  -0.583918   6.326579   4.254163  -0.000116   0.067339  -0.001725
 674  17  -0.228582   7.126622   4.906161  -0.000144   0.067339  -0.002141
 675  18  -0.765004   6.313268   4.016827  -0.000348   0.067339  -0.005164
 676  17  -0.133989   7.292438   5.773281  -0.000739   0.311501  -0.002373
 677  17   0.634800   6.632538   6.453138  -0.000516   0.311501  -0.001655
 678   8   0.027356   5.710049   5.149761   0.001982   0.880103   0.002253
 679   8  -0.853382   3.283629  -0.034665  -0.000181   0.020735  -0.008710
 680  18  -1.024309   3.485433   0.101538  -0.000193   0.020735  -0.009322
 681  22  -0.624094   2.606683  -0.264485  -0.000212   0.020735  -0.010226
 682   8  -1.048747   2.777597   0.935917  -0.000182   0.020735  -0.008787
 683  18  -1.199614   3.031362   0.972460  -0.000229   0.020735  -0.011023
 684  22  -0.795849   2.161806   0.588802  -0.000192   0.020735  -0.009272
 685  18  -1.542321   3.338921   1.404921  -0.000514   0.071375  -0.007203
 686  18  -1.588447   3.603136   2.537585  -0.000968   0.160693  -0.006025
 687  18  -1.467363   4.592033   3.526139  -0.000731   0.160693  -0.004548
 688  18  -1.252146   5.708783   3.773961  -0.000351   0.071375  -0.004911
 689   8  -1.303685   3.092027   1.905436  -0.000960   0.154298  -0.006219
 690   8  -1.286989   3.773850   3.326200  -0.000492   0.154298  -0.003187
 691   8  -1.047875   5.181229   3.993913  -0.000551   0.154298  -0.003569
 692  18  -0.642425   7.288055   0.744787  -0.000403   0.071374  -0.005644
 693  18  -0.741771   6.471434  -0.078679  -0.000842   0.160691  -0.005237
 694  18  -1.000468   5.126104  -0.383546  -0.000907   0.160691  -0.005644
 695  18  -1.262385   4.064008   0.014180  -0.000484   0.071374  -0.006780
 696   8  -0.298923   7.121135   0.273026  -0.000565   0.154296  -0.003664
 697   8  -0.503013   5.804479  -0.568667  -0.000521   0.154296  -0.003374
 698   8  -0.845461   4.278909  -0.371056  -0.000928   0.154296  -0.006012
 699  22  -0.774726   1.623426   0.453545  -0.000179   0.031843  -0.005632
 700   8  -1.070114   2.576976   0.962529  -0.000059   0.044914  -0.001316
 701  22  -0.572648   2.167498  -0.588535  -0.000224   0.031979  -0.007013
 702   8  -0.821064   3.202771  -0.239132  -0.000073   0.045107  -0.001629
 703   9   7.806105  -1.057616   2.136107  -0.000228   0.061628  -0.003701
 704  10   8.551474  -0.751861   2.383723  -0.000270   0.061628  -0.004374
 705  19   7.773995  -1.188576   1.868666  -0.000417   0.061628  -0.006760
 706   9   8.436618   0.573536  -0.992585  -0.000226   0.061628  -0.003662
 707  10   9.162946   0.830032  -0.650486  -0.000265   0.061628  -0.004303
 708  19   8.345332   0.289483  -0.966381  -0.000411   0.061628  -0.006670
 709  10   8.234904  -0.119222   4.217369   0.000777   0.320115   0.002429
 710  10   8.787302  -0.671378   3.096394  -0.000026   0.320115  -0.000080
 711   9   7.411851  -0.676024   3.253463   0.000420   0.641820   0.000654
 712  10   9.590219   1.405328  -0.887414  -0.000014   0.319898  -0.000045
 713  10   9.328144   2.706929  -1.205731   0.000805   0.319898   0.002515
 714   9   8.349034   1.747173  -1.395891   0.000378   0.641379   0.000589
 715   9   3.625251  -0.643361  -1.305410  -0.000096   0.009388  -0.010244
 716  12   3.191668  -0.559621  -1.358608  -0.000098   0.009388  -0.010455
 717  22   2.894589  -0.584201  -1.361793  -0.000108   0.009388  -0.011497
 718   9   3.391320  -1.248797  -0.144118  -0.000094   0.009388  -0.010006
 719  12   2.954816  -1.172616  -0.182815  -0.000090   0.009388  -0.009577
 720  22   2.679064  -1.142000  -0.291874  -0.000112   0.009388  -0.011951
 721  12   3.035920  -1.291473   0.362620  -0.000433   0.191574  -0.002259
 722  12   3.005166  -0.948516   2.307449   0.001925   0.391130   0.004922
 723  12   3.312784   0.628861   4.093783   0.003757   0.391130   0.009605
 724   9   3.625825  -1.375240   1.154914  -0.000098   0.391130  -0.000251
 725   9   3.726183  -0.473444   3.379870   0.003474   0.391130   0.008881
 726   9   4.071580   1.095606   4.528657   0.001771   0.191574   0.009246
 727  12   4.706746   4.497095  -1.721238   0.001732   0.191556   0.009042
 728  12   4.281169   2.720598  -2.471701   0.003323   0.391090   0.008497
 729  12   3.648368   0.440874  -2.053110  -0.000166   0.391090  -0.000423
 730   9   5.167820   3.671916  -2.019771   0.003866   0.391090   0.009886
 731   9   4.583323   1.378040  -2.431228   0.002037   0.391090   0.005207
 732   9   4.070080  -0.372774  -1.675263  -0.000417   0.191556  -0.002177
 733   9   3.759305  -1.318817  -0.271817  -0.000162   0.018885  -0.008592
 734  19   4.032017  -1.421738  -0.331537  -0.000180   0.018885  -0.009523
 735  22   3.060751  -1.122928  -0.381600  -0.000174   0.018885  -0.009235
 736   9   3.942471  -0.844797  -1.181081  -0.000163   0.018885  -0.008627
 737  19   4.196456  -0.996181  -1.147837  -0.000210   0.018885  -0.011124
 738  22   3.222063  -0.705463  -1.182379  -0.000164   0.018885  -0.008662
 739  19   4.742244  -1.090309  -1.420266  -0.000506   0.069863  -0.007236
 740  19   5.576581  -0.544025  -1.974189  -0.000867   0.156490  -0.005543
 741  19   6.874133  -0.082915  -1.971525  -0.000816   0.156490  -0.005216
 742  19   7.864070   0.019091  -1.413857  -0.000392   0.069863  -0.005609
 743   9   4.767595  -0.569343  -1.718257  -0.000897   0.151761  -0.005908
 744   9   6.075966   0.108158  -2.188369  -0.000522   0.151761  -0.003442
 745   9   7.516740   0.407617  -1.712613  -0.000581   0.151761  -0.003829
 746  19   7.228408  -1.625423   1.740477  -0.000419   0.069858  -0.005997
 747  19   6.144880  -1.969731   1.647621  -0.000697   0.156477  -0.004454
 748  19   5.000668  -2.034255   0.884304  -0.000877   0.156477  -0.005602
 749  19   4.475475  -1.780664  -0.096036  -0.000451   0.069858  -0.006459
 750   9   6.748653  -1.579568   2.099022  -0.000568   0.151753  -0.003740
 751   9   5.298965  -1.902303   1.667976  -0.000480   0.151753  -0.003162
 752   9   4.324372  -1.716277   0.481756  -0.000948   0.151753  -0.006246
 753  22   2.717045  -0.662343  -1.369313  -0.000136   0.022073  -0.006153
 754   9   3.800340  -0.816584  -1.302879  -0.000037   0.031178  -0.001191
 755  22   2.527893  -1.159496  -0.426091  -0.000162   0.022053  -0.007336
 756   9   3.579329  -1.381624  -0.209588  -0.000045   0.031150  -0.001448
 757  10  13.407731   1.628624   3.374005  -0.000096   0.009376  -0.010253
 758  11  13.681417   1.908809   3.584783  -0.000098   0.009376  -0.010459
 759  21  13.911924   2.084851   3.653662  -0.000108   0.009376  -0.011506
 760  10  13.641635   2.233306   2.214201  -0.000094   0.009376  -0.010015
 761  11  13.918241   2.521042   2.410497  -0.000090   0.009376  -0.009577
 762  21  14.127424   2.641955   2.585114  -0.000112   0.009376  -0.011961
 763  11  13.785392   2.758107   1.916168  -0.000433   0.191592  -0.002261
 764  11  13.053980   4.151497   0.722394   0.001925   0.391168   0.004920
 765  11  11.336411   5.784476   0.324888   0.003756   0.391168   0.009603
 766  10  13.195719   2.841995   1.123650  -0.000099   0.391168  -0.000254
 767  10  11.936922   4.578606   0.040006   0.003474   0.391168   0.008880
 768  10  10.372896   5.783916   0.091486   0.001770   0.191592   0.009239
 769  11   9.470328   2.987168   6.602880   0.001732   0.191592   0.009041
 770  11  11.114718   1.989609   6.152922   0.003323   0.391169   0.008495
 771  11  12.906768   1.631538   4.592463  -0.000167   0.391169  -0.000426
 772  10   9.745792   2.135936   6.175840   0.003866   0.391169   0.009884
 773  10  11.740713   1.219953   5.198114   0.002036   0.391169   0.005205
 774  10  13.016916   1.234935   3.690570  -0.000418   0.191592  -0.002180
 775  10   9.661428   0.812148  -0.489884  -0.000326   0.088059  -0.003704
 776  19   8.768762   0.328445  -0.656187  -0.000468   0.088059  -0.005311
 777  20   9.842791   0.600415  -0.375797  -0.000533   0.088059  -0.006054
 778  10   9.071281  -0.714551   2.438474  -0.000332   0.088059  -0.003767
 779  19   8.260236  -0.987101   1.867159  -0.000451   0.088059  -0.005124
 780  20   9.310358  -0.776981   2.266183  -0.000542   0.088059  -0.006152
 781  10  13.456291   1.887861   2.161569  -0.000162   0.018868  -0.008597
 782  20  13.341791   1.630665   2.065323  -0.000180   0.018868  -0.009528
 783  21  13.865035   2.351594   2.556917  -0.000174   0.018868  -0.009234
 784  10  13.273116   1.414226   3.069933  -0.000163   0.018868  -0.008630
 785  20  13.177344   1.205454   2.880815  -0.000210   0.018868  -0.011128
 786  21  13.703715   1.934469   3.356902  -0.000163   0.018868  -0.008665
 787  20  10.598082   0.804449  -0.453412  -0.000420   0.069867  -0.006015
 788  20  11.623546   1.281366  -0.303052  -0.000697   0.156506  -0.004455
 789  20  12.699216   1.501894   0.528167  -0.000877   0.156506  -0.005603
 790  20  13.186018   1.335015   1.546405  -0.000451   0.069867  -0.006460
 791  10  10.815820   1.355275  -0.553663  -0.000570   0.151767  -0.003757
 792  10  12.184499   1.862798  -0.042364  -0.000480   0.151767  -0.003164
 793  10  13.094823   1.822505   1.207427  -0.000948   0.151767  -0.006247
 794  20  12.919163   0.644971   2.869825  -0.000506   0.069860  -0.007236
 795  20  12.123027   0.011769   3.386145  -0.000867   0.156485  -0.005543
 796  20  10.894068  -0.605468   3.315926  -0.000816   0.156485  -0.005217
 797  20   9.962374  -0.840059   2.700885  -0.000396   0.069860  -0.005668
 798  10  12.651408   0.675828   3.406654  -0.000897   0.151754  -0.005909
 799  10  11.407177  -0.147639   3.813614  -0.000522   0.151754  -0.003443
 800  10  10.047598  -0.631921   3.257882  -0.000584   0.151754  -0.003848
 801  21  14.091602   2.158038   3.659196  -0.000136   0.022026  -0.006158
 802  10  13.391135   1.440989   3.215402  -0.000037   0.031110  -0.001192
 803  21  14.284425   2.646304   2.713422  -0.000161   0.021979  -0.007341
 804  10  13.608787   2.013053   2.126676  -0.000045   0.031044  -0.001449
 805  21  14.458696   2.985949   2.565555  -0.000424   0.065515  -0.006469
 806  21  14.657781   3.971384   2.188964  -0.000764   0.144716  -0.005282
 807  21  14.831324   5.242917   2.395705  -0.000762   0.144716  -0.005267
 808  21  14.863505   6.159428   3.316915  -0.000821   0.144716  -0.005673
 809  21  14.783925   6.445022   4.348729  -0.000401   0.065515  -0.006128
 810  11  14.224232   3.286688   2.124519  -0.000770   0.144253  -0.005334
 811  11  14.473170   4.708133   1.899059  -0.000508   0.144253  -0.003519
 812  11  14.594808   6.001858   2.565982  -0.000524   0.144253  -0.003632
 813  11  14.541886   6.665206   3.866165  -0.000800   0.144253  -0.005549
 814  21  14.460450   5.608882   5.952800  -0.000460   0.065519  -0.007020
 815  21  14.263742   4.609080   6.291008  -0.000851   0.144727  -0.005879
 816  21  14.097270   3.345380   6.035649  -0.000672   0.144727  -0.004646
 817  21  14.074660   2.463967   5.080420  -0.000777   0.144727  -0.005368
 818  21  14.161537   2.217746   4.039022  -0.000385   0.065519  -0.005882
 819  11  14.049833   5.393298   6.306169  -0.000864   0.144261  -0.005990
 820  11  13.806160   3.963224   6.476679  -0.000509   0.144261  -0.003529
 821  11  13.694361   2.694875   5.760890  -0.000476   0.144261  -0.003302
 822  11  13.757880   2.081114   4.436947  -0.000835   0.144261  -0.005787
 823  22   2.226827  -1.210648  -0.153115  -0.000424   0.065515  -0.006468
 824  22   1.559848  -1.130842   0.684315  -0.000764   0.144715  -0.005281
 825  22   0.568498  -0.540584   1.283023  -0.000762   0.144715  -0.005266
 826  22  -0.291805   0.428102   1.177400  -0.000821   0.144715  -0.005673
 827  22  -0.700456   1.253891   0.626404  -0.000402   0.065515  -0.006132
 828  12   2.325763  -1.202798   0.421413  -0.000769   0.144254  -0.005333
 829  12   1.303706  -0.864145   1.408321  -0.000508   0.144254  -0.003519
 830  12   0.208880   0.057611   1.699867  -0.000524   0.144254  -0.003632
 831  12  -0.533345   1.204343   1.182777  -0.000800   0.144254  -0.005548
 832  22  -0.377514   2.089730  -0.976806  -0.000460   0.065515  -0.007020
 833  22   0.307175   1.978370  -1.796155  -0.000851   0.144716  -0.005879
 834  22   1.301741   1.357161  -2.357036  -0.000672   0.144716  -0.004645
 835  22   2.142468   0.377054  -2.207984  -0.000777   0.144716  -0.005367
 836  22   2.523901  -0.441789  -1.627867  -0.000385   0.065515  -0.005882
 837  12  -0.042013   2.476006  -1.256384  -0.000864   0.144255  -0.005989
 838  12   0.996583   2.096316  -2.210561  -0.000509   0.144255  -0.003529
 839  12   2.081736   1.149507  -2.454063  -0.000476   0.144255  -0.003301
 840  12   2.791832   0.003443  -1.892282  -0.000835   0.144255  -0.005785
 841  15  10.329806   9.807089   7.924206   0.000023   0.157428   0.000144
 842  13   8.551302  10.235398   8.477035   0.000186   0.157428   0.001179
 843  17   2.917846   8.351750   8.353313  -0.000205   0.284092  -0.000722
 844  17   2.578210   9.658509   8.251139  -0.001394   0.568946  -0.002450
 845  13   4.051802   9.222529   8.803257  -0.001315   0.568946  -0.002311
 846  13   3.759474  10.524008   8.570650  -0.000254   0.284092  -0.000894
 847  15  10.856588  11.124212   5.308725   0.000119   0.155614   0.000767
 848  14   9.261001  12.115458   4.955736   0.000201   0.155614   0.001289
 849  16   3.483495  12.750625   3.143124  -0.000274   0.284180  -0.000963
 850  16   4.037367  12.125242   2.076867  -0.001316   0.569124  -0.002312
 851  14   4.973350  12.913045   3.158388  -0.001389   0.569124  -0.002440
 852  14   5.532398  12.173327   2.170935  -0.000205   0.284180  -0.000722
 853  21  14.574768   6.498716   5.273523  -0.001081   0.339251  -0.003187
 854  15  13.952807   7.653520   5.978101  -0.001022   0.339251  -0.003011
 855  18  -0.616316   7.840531   1.355986   0.000025   0.155689   0.000160
 856  16   0.240016   9.511994   1.711867   0.000186   0.155689   0.001195
 857  18  -1.113971   6.456980   3.943263   0.000119   0.156248   0.000759
 858  17  -0.498191   7.697197   5.260956   0.000201   0.156248   0.001284
 859  22  -0.838734   1.990329   0.044974  -0.001083   0.339648  -0.003189
 860  18  -1.319942   3.346574   0.427000  -0.001024   0.339648  -0.003014
 861  20   9.528542  -1.061341   1.984289  -0.000473   0.256484  -0.001845
 862  20   9.860473  -0.945510   0.944693  -0.002261   0.512659  -0.004410
 863  20  10.008042  -0.152048  -0.124224  -0.001958   0.512659  -0.003820
 864  19   8.171566  -1.472832   1.063336  -0.001984   0.512659  -0.003870
 865  19   8.488447  -1.064769  -0.172389  -0.002253   0.512659  -0.004396
 866  19   8.514876  -0.253531  -0.911001  -0.000539   0.256484  -0.002103
 867  22   2.793707  -0.994176  -1.000621  -0.000827   0.313333  -0.002638
 868  19   4.163547  -1.448945  -0.747970  -0.000880   0.313333  -0.002809
 869  21  14.145987   2.191336   3.161818  -0.000825   0.313045  -0.002636
 870  20  13.379086   1.273704   2.315099  -0.000879   0.313045  -0.002806
 =====================================================

              6937096  WORDS OF DYNAMIC MEMORY USED
 EXECUTION OF GAMESS TERMINATED NORMALLY Wed Nov 23 15:23:52 2016
 DDI: 263640 bytes (0.3 MB / 0 MWords) used by master data server.

 ----------------------------------------
 CPU timing information for all processes
 ========================================
 0: 1776.40 + 1.52 = 1777.92
 ----------------------------------------
 ddikick.x: exited gracefully.
