----- GAMESS execution script -----

          ******************************************************
          *         GAMESS VERSION =  5 DEC 2014 (R1)          *
          *             FROM IOWA STATE UNIVERSITY             *
          * M.W.SCHMIDT, K.K.BALDRIDGE, J.A.BOATZ, S.T.ELBERT, *
          *   M.S.GORDON, J.H.JENSEN, S.KOSEKI, N.MATSUNAGA,   *
          *          K.A.NGUYEN, S.J.SU, T.L.WINDUS,           *
          *       TOGETHER WITH M.DUPUIS, J.A.MONTGOMERY       *
          *         J.COMPUT.CHEM.  14, 1347-1363(1993)        *
          **************** 64 BIT LINUX VERSION ****************

 EXECUTION OF GAMESS BEGUN Wed Nov 23 15:22:30 2016

            ECHO OF THE FIRST FEW INPUT CARDS -
 INPUT CARD>! SELECT RESTRICTED HARTREE-FOCK AS DEFAULT                                     
 INPUT CARD>$contrl scftyp=rhf $end                                                         
 INPUT CARD>                                                                                
 INPUT CARD>! THEORY: HF OR DFT                                                             
 INPUT CARD> $contrl mplevl=0 $end                                                          
 INPUT CARD>                                                                                
 INPUT CARD> $system timlim=10000 mwords=20 $end                                            
 INPUT CARD> $SCF DIRSCF=.TRUE. $end                                                        
 INPUT CARD>                                                                                
 INPUT CARD>                                                                                
 INPUT CARD>! BASIS SETS                                                                    
 INPUT CARD>! 6-311G(d,p)                                                                   
 INPUT CARD> $BASIS GBASIS=N311 NGAUSS=6 NDFUNC=1 NPFUNC=1 $END                             
 INPUT CARD>                                                                                
 INPUT CARD>! One of the following                                                          
 INPUT CARD> $guess guess=HUCKEL $end                                                       
 INPUT CARD>                                                                                
 INPUT CARD> $statpt projct=.FALSE. $end                                                    
 INPUT CARD> $STATPT IFREEZ(1)=1,2,3 $END                                                   
 INPUT CARD>                                                                                
 INPUT CARD>! Optimize the geometry with COSMO effects                                      
 INPUT CARD> $statpt opttol=0.0005 nstep=50 $end                                            
 INPUT CARD> $contrl nzvar=1 $end                                                           
 INPUT CARD> $zmat dlc=.t. auto=.t. $end                                                    
 INPUT CARD> $contrl runtyp=OPTIMIZE maxit=200 $end                                         
 INPUT CARD>                                                                                
 INPUT CARD>! Run COSMO on perfect conductor                                                
 INPUT CARD> $COSGMS PRFCND=.TRUE. $end                                                     
 INPUT CARD>                                                                                
 INPUT CARD>! Specifying RSOLV                                                              
 INPUT CARD> $COSGMS COSRAD = 1.4 $end                                                      
 INPUT CARD>                                                                                
 INPUT CARD>! available memory                                                              
 INPUT CARD> $SYSTEM MWORDS=40 $END                                                         
 INPUT CARD>                                                                                
 INPUT CARD> $DATA                                                                          
 INPUT CARD>7410 acetophenone (http://www.chemspider.com/)                                  
 INPUT CARD>C1                                                                              
 INPUT CARD>O      8.0     -2.2599000000   -1.3939000000   -0.0000000000                    
 INPUT CARD>C      6.0     -0.3544000000   -0.1435000000   -0.0000000000                    
 INPUT CARD>C      6.0      1.0618000000   -0.0409000000   -0.0000000000                    
 INPUT CARD>C      6.0     -1.0651000000    1.0907000000   -0.0000000000                    
 INPUT CARD>C      6.0     -1.0340000000   -1.3765000000   -0.0000000000                    
 INPUT CARD>C      6.0      1.7296000000    1.1974000000   -0.0000000000                    
 INPUT CARD>C      6.0     -0.4118000000    2.3383000000   -0.0000000000                    
 INPUT CARD>C      6.0      0.9906000000    2.3911000000   -0.0000000000                    
 INPUT CARD>C      6.0     -0.4794000000   -2.7235000000    0.0000000000                    
 INPUT CARD>H      1.0      1.6653000000   -0.8624000000    0.0000000000                    
 INPUT CARD>H      1.0     -2.0881000000    1.1147000000    0.0000000000                    
 INPUT CARD>H      1.0      2.7516000000    1.2317000000   -0.0000000000                    
   40000000 WORDS OF MEMORY AVAILABLE

     BASIS OPTIONS
     -------------
     GBASIS=N311         IGAUSS=       6      POLAR=POPN311 
     NDFUNC=       1     NFFUNC=       0     DIFFSP=       F
     NPFUNC=       1      DIFFS=       F     BASNAM=        


     RUN TITLE
     ---------
 7410 acetophenone (http://www.chemspider.com/)                                  

 THE POINT GROUP OF THE MOLECULE IS C1      
 THE ORDER OF THE PRINCIPAL AXIS IS     0

 ATOM      ATOMIC                      COORDINATES (BOHR)
           CHARGE         X                   Y                   Z
 O           8.0    -4.2705917597       -2.6340890543       -0.0000000000
 C           6.0    -0.6697188900       -0.2711756792       -0.0000000000
 C           6.0     2.0065110538       -0.0772897929       -0.0000000000
 C           6.0    -2.0127471495        2.0611241348       -0.0000000000
 C           6.0    -1.9539766713       -2.6012078221       -0.0000000000
 C           6.0     3.2684700684        2.2627578977       -0.0000000000
 C           6.0    -0.7781891617        4.4187462771       -0.0000000000
 C           6.0     1.8719625634        4.5185238092       -0.0000000000
 C           6.0    -0.9059346385       -5.1466687276        0.0000000000
 H           1.0     3.1469606874       -1.6296996918        0.0000000000
 H           1.0    -3.9459368350        2.1064775585        0.0000000000
 H           1.0     5.1997700278        2.3275754991       -0.0000000000
 H           1.0    -1.7990191403        6.0609181604        0.0000000000
 H           1.0     2.7835663799        6.2221117872       -0.0000000000
 H           1.0    -1.5431502416       -6.1765693909        1.6716516087
 H           1.0    -1.5431502416       -6.1765693909       -1.6716516087
 H           1.0     1.1449849760       -5.2649655744        0.0000000000

          INTERNUCLEAR DISTANCES (ANGS.)




     $CONTRL OPTIONS
     ---------------
 SCFTYP=RHF          RUNTYP=OPTIMIZE     EXETYP=RUN     
 MPLEVL=       0     CITYP =NONE         CCTYP =NONE         VBTYP =NONE    
 DFTTYP=NONE         TDDFT =NONE    
 MULT  =       1     ICHARG=       0     NZVAR =       1     COORD =UNIQUE  
 PP    =NONE         RELWFN=NONE         LOCAL =NONE         NUMGRD=       F
 ISPHER=      -1     NOSYM =       0     MAXIT =     200     UNITS =ANGS    
 PLTORB=       F     MOLPLT=       F     AIMPAC=       F     FRIEND=        
 NPRINT=       7     IREST =       0     GEOM  =INPUT   
 NORMF =       0     NORMP =       0     ITOL  =      20     ICUT  =       9
 INTTYP=BEST         GRDTYP=BEST         QMTTOL= 1.0E-06

     $SYSTEM OPTIONS
     ---------------
  REPLICATED MEMORY=    40000000 WORDS (ON EVERY NODE).
 DISTRIBUTED MEMDDI=           0 MILLION WORDS IN AGGREGATE,
 MEMDDI DISTRIBUTED OVER   1 PROCESSORS IS           0 WORDS/PROCESSOR.
 TOTAL MEMORY REQUESTED ON EACH PROCESSOR=    40000000 WORDS.
 TIMLIM=       10000.00 MINUTES, OR       6.9 DAYS.
 PARALL= F  BALTYP=  DLB     KDIAG=    0  COREFL= F
 MXSEQ2=     300 MXSEQ3=     150  mem10=         0

     $COSGMS OPTIONS
     ---------------
     EPSI  =   INFTY     NSPA  =      92     COSRAD=    1.40
     DISEX =   10.00     OUTCHG=DBLCAV       COSBUG=       F
     COSWRT=       F     DCOSMO=       F

     SYMMETRY COORDINATES WILL NOT BE USED FOR 
     THE COSMO CALCULATION, EVEN IF SPECIFIED:
         -- SWITCHING TO C1 POINT GROUP --


     DEFINITION OF CAVITY
     ---------------------------
     ATOM         COORDINATES           RADIUS 
     1   -4.2706   -2.6341   -0.0000    1.7200
     2   -0.6697   -0.2712   -0.0000    2.0000
     3    2.0065   -0.0773   -0.0000    2.0000
     4   -2.0127    2.0611   -0.0000    2.0000
     5   -1.9540   -2.6012   -0.0000    2.0000
     6    3.2685    2.2628   -0.0000    2.0000
     7   -0.7782    4.4187   -0.0000    2.0000
     8    1.8720    4.5185   -0.0000    2.0000
     9   -0.9059   -5.1467    0.0000    2.0000
    10    3.1470   -1.6297    0.0000    1.3000
    11   -3.9459    2.1065    0.0000    1.3000
    12    5.1998    2.3276   -0.0000    1.3000
    13   -1.7990    6.0609    0.0000    1.3000
    14    2.7836    6.2221   -0.0000    1.3000
    15   -1.5432   -6.1766    1.6717    1.3000
    16   -1.5432   -6.1766   -1.6717    1.3000
    17    1.1450   -5.2650    0.0000    1.3000

          ----------------
          PROPERTIES INPUT
          ----------------

     MOMENTS            FIELD           POTENTIAL          DENSITY
 IEMOM =       1   IEFLD =       0   IEPOT =       0   IEDEN =       0
 WHERE =COMASS     WHERE =NUCLEI     WHERE =NUCLEI     WHERE =NUCLEI  
 OUTPUT=BOTH       OUTPUT=BOTH       OUTPUT=BOTH       OUTPUT=BOTH    
 IEMINT=       0   IEFINT=       0                     IEDINT=       0
                                                       MORB  =       0
          EXTRAPOLATION IN EFFECT
          SOSCF IN EFFECT
 ORBITAL PRINTING OPTION: NPREO=     1   219     2     1

     -------------------------------
     INTEGRAL TRANSFORMATION OPTIONS
     -------------------------------
     NWORD  =            0
     CUTOFF = 1.0E-09     MPTRAN =       0
     DIRTRF =       T     AOINTS =DUP     

          ----------------------
          INTEGRAL INPUT OPTIONS
          ----------------------
 NOPK  =       1 NORDER=       0 SCHWRZ=       T


 -----------------------------------------------
  STATISTICS ON AUTOMATIC COORDINATE GENERATION 
 -----------------------------------------------
  NUMBER OF USER SPECIFIED BONDS                             0
  NUMBER OF BONDS                                           17
  NUMBER OF ANGLES                                          27
  NUMBER OF TORSIONS                                        34
  NUMBER OF EXTRA COORD.                                     0
  NUMBER OF EXTRA COORD. FOR CONSTRAINTS                     0
  NUMBER OF CONSTRAINED COORD.                               0

  TOTAL NUMBER OF PRIMITIVES                                78
 -----------------------------------------------

   --- ENCODED Z MATRIX ---
 COORD  TYPE   I   J   K   L   M   N
    1      1    1   5
    2      1    2   4
    3      1    2   3
    4      1    2   5
    5      1    3   6
    6      1    3  10
    7      1    4   7
    8      1    4  11
    9      1    5   9
   10      1    6   8
   11      1    6  12
   12      1    7  13
   13      1    7   8
   14      1    8  14
   15      1    9  15
   16      1    9  17
   17      1    9  16
   18      2    1   5   9
   19      2    1   5   2
   20      2    2   4   7
   21      2    2   5   9
   22      2    2   3  10
   23      2    2   4  11
   24      2    2   3   6
   25      2    3   2   5
   26      2    3   2   4
   27      2    3   6  12
   28      2    3   6   8
   29      2    4   7  13
   30      2    4   7   8
   31      2    4   2   5
   32      2    5   9  17
   33      2    5   9  15
   34      2    5   9  16
   35      2    6   3  10
   36      2    6   8  14
   37      2    6   8   7
   38      2    7   4  11
   39      2    7   8  14
   40      2    8   7  13
   41      2    8   6  12
   42      2   15   9  16
   43      2   15   9  17
   44      2   16   9  17
   45      3    1   5   9  16
   46      3    1   5   2   3
   47      3    1   5   9  17
   48      3    1   5   9  15
   49      3    1   5   2   4
   50      3    2   5   9  16
   51      3    2   5   9  17
   52      3    2   5   9  15
   53      3    2   3   6  12
   54      3    2   3   6   8
   55      3    2   4   7   8
   56      3    2   4   7  13
   57      3    3   2   4   7
   58      3    3   2   5   9
   59      3    3   6   8  14
   60      3    3   6   8   7
   61      3    3   2   4  11
   62      3    4   2   3  10
   63      3    4   7   8  14
   64      3    4   7   8   6
   65      3    4   2   5   9
   66      3    4   2   3   6
   67      3    5   2   4   7
   68      3    5   2   3   6
   69      3    5   2   4  11
   70      3    5   2   3  10
   71      3    6   8   7  13
   72      3    7   8   6  12
   73      3    8   7   4  11
   74      3    8   6   3  10
   75      3   10   3   6  12
   76      3   11   4   7  13
   77      3   12   6   8  14
   78      3   13   7   8  14

          INDEP./SYM. INTERNAL COORDINATES
          --------------------------------
 CRD  1=  -0.1414 (  3) -0.1286 (  4) -0.1385 (  5)  0.2226 ( 18)  0.2823 ( 19)
          -0.1157 ( 20) -0.5049 ( 21) -0.5149 ( 25)  0.4570 ( 31) -0.1244 ( 32)
 CRD  2=   0.3476 (  2)  0.4671 (  4)  0.2329 (  7)  0.3705 (  9) -0.2247 ( 18)
           0.2242 ( 21)  0.1408 ( 24) -0.1313 ( 25) -0.2353 ( 26)  0.3666 ( 31)
           0.1316 ( 32) -0.1228 ( 38) -0.1002 ( 42)
 CRD  3=   0.2648 ( 33) -0.2648 ( 34) -0.2152 ( 46) -0.2235 ( 47) -0.3266 ( 49)
          -0.1029 ( 55) -0.1435 ( 56)  0.1396 ( 57) -0.3901 ( 58)  0.1009 ( 59)
           0.1003 ( 60) -0.5014 ( 65)  0.2433 ( 67) -0.1643 ( 68) -0.1754 ( 70)
 CRD  4=   0.1845 (  1)  0.3838 (  3)  0.3151 (  4)  0.2311 (  5) -0.1447 (  9)
           0.3205 ( 19) -0.3198 ( 21)  0.2471 ( 25) -0.1880 ( 26)  0.1256 ( 27)
           0.1437 ( 30) -0.3716 ( 32)  0.1352 ( 33)  0.1352 ( 34) -0.1290 ( 35)
 CRD  5=  -0.1119 ( 45) -0.3945 ( 46) -0.1119 ( 48) -0.2120 ( 49) -0.2604 ( 50)
          -0.2353 ( 51) -0.2604 ( 52) -0.1716 ( 53) -0.1435 ( 57) -0.2356 ( 58)
           0.1404 ( 63)  0.1395 ( 64)  0.2009 ( 66) -0.3135 ( 67)  0.3743 ( 68)
          -0.2432 ( 69)  0.1858 ( 70)
 CRD  6=  -0.4690 (  9) -0.4974 ( 18)  0.3861 ( 19)  0.1113 ( 21)  0.2104 ( 32)
          -0.2945 ( 33) -0.2945 ( 34)  0.2171 ( 42)
 CRD  7=   0.2789 (  2)  0.2452 (  3) -0.1833 (  5)  0.1098 (  6) -0.2031 (  7)
          -0.2998 ( 10) -0.3380 ( 13) -0.2960 ( 14) -0.1388 ( 20)  0.2825 ( 22)
           0.2964 ( 23) -0.1659 ( 24)  0.1481 ( 27)  0.1598 ( 29) -0.1166 ( 35)
          -0.1217 ( 36)  0.2728 ( 37) -0.1577 ( 38) -0.1511 ( 39) -0.1447 ( 40)
          -0.1507 ( 41)
 CRD  8=   0.3292 (  5)  0.1628 (  6) -0.2952 (  7) -0.1698 (  8)  0.3206 ( 10)
          -0.2866 ( 13)  0.1092 ( 19)  0.1738 ( 20) -0.1579 ( 22)  0.1284 ( 23)
          -0.1576 ( 24) -0.1035 ( 25)  0.1090 ( 31)  0.3155 ( 35)  0.3198 ( 36)
          -0.3022 ( 38) -0.3052 ( 39)
 CRD  9=   0.2896 (  2)  0.3474 (  3)  0.1762 (  6)  0.2235 (  8)  0.3751 ( 10)
           0.2730 ( 11)  0.1923 ( 12)  0.4192 ( 13) -0.1085 ( 20)  0.1628 ( 23)
           0.1826 ( 26) -0.1530 ( 28) -0.1429 ( 29)  0.1646 ( 37)  0.1943 ( 40)
           0.2090 ( 41)
 CRD 10=  -0.1878 (  2)  0.1154 (  5) -0.2216 (  6) -0.2334 (  7)  0.1315 (  8)
           0.1395 (  9) -0.1812 ( 10)  0.2129 ( 11) -0.2993 ( 12) -0.2338 ( 20)
          -0.2389 ( 22)  0.2383 ( 23)  0.2529 ( 24)  0.2523 ( 27) -0.3106 ( 28)
          -0.2755 ( 29)  0.3260 ( 30)  0.1568 ( 32)
 CRD 11=  -0.1733 ( 15)  0.1733 ( 17) -0.5326 ( 33)  0.5326 ( 34)  0.2268 ( 43)
          -0.2268 ( 44) -0.1354 ( 46) -0.1278 ( 49) -0.1362 ( 50) -0.1362 ( 52)
           0.1555 ( 57)  0.1143 ( 60) -0.1101 ( 62) -0.1213 ( 66)  0.1484 ( 67)
          -0.1141 ( 68) -0.1029 ( 70)
 CRD 12=   0.3641 (  5)  0.1289 (  6)  0.3414 (  7)  0.1697 (  8)  0.1232 ( 11)
          -0.1254 ( 20) -0.2161 ( 22) -0.1705 ( 23)  0.1567 ( 26)  0.3268 ( 27)
           0.2846 ( 29)  0.2961 ( 35)  0.1493 ( 37)  0.2959 ( 38) -0.2600 ( 40)
          -0.2508 ( 41)
 CRD 13=  -0.1662 (  5)  0.1639 (  7)  0.2260 ( 10) -0.2245 ( 13) -0.1324 ( 20)
           0.1301 ( 24) -0.2441 ( 27) -0.1184 ( 28)  0.2453 ( 29)  0.1162 ( 30)
          -0.1934 ( 35)  0.3715 ( 36)  0.1947 ( 38) -0.3735 ( 39) -0.3614 ( 40)
           0.3625 ( 41)
 CRD 14=   0.4089 (  1)  0.1759 (  3)  0.1536 (  6)  0.1641 (  9)  0.1552 ( 14)
           0.1946 ( 16)  0.2207 ( 18) -0.2686 ( 21)  0.1580 ( 22)  0.1261 ( 28)
           0.5159 ( 32) -0.1832 ( 33) -0.1832 ( 34) -0.1173 ( 37)  0.1829 ( 42)
          -0.1685 ( 43) -0.1685 ( 44)
 CRD 15=  -0.2225 (  1)  0.1796 (  2) -0.1893 (  4)  0.1022 (  5)  0.2102 (  6)
           0.1092 (  7)  0.3057 (  8) -0.1274 (  9) -0.2368 ( 11) -0.2497 ( 12)
           0.3729 ( 14) -0.1380 ( 19) -0.1570 ( 20)  0.1956 ( 23) -0.1146 ( 27)
           0.2296 ( 28) -0.1267 ( 29)  0.2563 ( 30) -0.1684 ( 32)  0.1332 ( 36)
          -0.2728 ( 37)  0.1397 ( 39) -0.1296 ( 40) -0.1151 ( 41)
 CRD 16=  -0.1882 ( 45) -0.1488 ( 47) -0.1882 ( 48) -0.1869 ( 50) -0.1474 ( 51)
          -0.1869 ( 52)  0.2067 ( 53)  0.2777 ( 54)  0.2818 ( 55)  0.2425 ( 56)
          -0.2226 ( 62) -0.1916 ( 63) -0.2558 ( 64) -0.2501 ( 66) -0.1373 ( 67)
          -0.1408 ( 68) -0.1132 ( 70) -0.2168 ( 71)  0.1972 ( 73)  0.2519 ( 74)
           0.1809 ( 75)  0.1579 ( 76) -0.1527 ( 78)
 CRD 17=  -0.4279 ( 15) -0.4977 ( 16) -0.4279 ( 17) -0.1485 ( 18)  0.1342 ( 19)
           0.1785 ( 32)  0.2282 ( 33)  0.2282 ( 34) -0.2397 ( 42) -0.2256 ( 43)
          -0.2256 ( 44)
 CRD 18=  -0.1269 ( 33)  0.1269 ( 34)  0.1384 ( 43) -0.1384 ( 44)  0.1821 ( 45)
           0.1821 ( 48) -0.2144 ( 49)  0.2010 ( 50)  0.1170 ( 51)  0.2010 ( 52)
           0.1938 ( 53)  0.2040 ( 54)  0.1816 ( 55)  0.1034 ( 56) -0.2350 ( 57)
          -0.1671 ( 59) -0.2618 ( 60) -0.2824 ( 61) -0.2346 ( 65) -0.1086 ( 68)
          -0.1349 ( 69)  0.1525 ( 71) -0.2517 ( 72)  0.2267 ( 73)  0.1501 ( 74)
           0.1399 ( 75)  0.1486 ( 76) -0.1570 ( 77)
 CRD 19=   0.2973 ( 15) -0.5864 ( 16)  0.2973 ( 17)  0.4090 ( 42) -0.1975 ( 43)
          -0.1975 ( 44)  0.2287 ( 45) -0.2287 ( 48)  0.2287 ( 50) -0.2287 ( 52)
 CRD 20=   0.5317 ( 15) -0.5317 ( 17)  0.3282 ( 43) -0.3282 ( 44) -0.2895 ( 47)
           0.1092 ( 50) -0.2753 ( 51)  0.1092 ( 52)
 CRD 21=   0.1238 (  1) -0.1805 (  2)  0.2158 (  4) -0.1633 (  5)  0.2712 (  6)
          -0.1957 (  7)  0.2681 (  9) -0.2265 ( 11) -0.2734 ( 12)  0.2559 ( 15)
           0.2559 ( 17) -0.2760 ( 18)  0.2356 ( 19) -0.1210 ( 20) -0.1538 ( 23)
          -0.1684 ( 24) -0.1398 ( 25)  0.2256 ( 26)  0.1811 ( 35)  0.2747 ( 38)
 CRD 22=  -0.2733 ( 45)  0.2087 ( 46) -0.2489 ( 47) -0.2733 ( 48) -0.1787 ( 50)
          -0.1543 ( 51) -0.1787 ( 52)  0.2363 ( 53)  0.1159 ( 54) -0.1293 ( 55)
          -0.2352 ( 56)  0.1074 ( 58) -0.2074 ( 60)  0.2137 ( 64)  0.1418 ( 67)
          -0.1372 ( 68)  0.3189 ( 71) -0.3273 ( 72)  0.1223 ( 75) -0.1677 ( 76)
          -0.2002 ( 77)  0.1915 ( 78)
 CRD 23=  -0.3880 (  1) -0.1839 (  2)  0.1782 (  3) -0.1896 (  4)  0.3147 (  6)
          -0.4534 (  8)  0.1157 (  9)  0.3377 ( 11) -0.1503 ( 12)  0.1136 ( 14)
           0.2609 ( 22) -0.1364 ( 23) -0.1443 ( 25)  0.1694 ( 31) -0.2400 ( 35)
 CRD 24=   0.1020 ( 50)  0.1020 ( 52) -0.1003 ( 53)  0.1061 ( 54) -0.1023 ( 55)
           0.1035 ( 56) -0.3605 ( 59) -0.1262 ( 60)  0.3070 ( 61) -0.3206 ( 62)
           0.3592 ( 63)  0.1243 ( 64)  0.2100 ( 69) -0.2217 ( 70) -0.3219 ( 73)
           0.3330 ( 74)  0.1265 ( 75) -0.1161 ( 76) -0.1549 ( 77)  0.1549 ( 78)
 CRD 25=  -0.1172 (  2) -0.1170 (  4) -0.1527 (  5) -0.3027 (  6) -0.1171 (  7)
           0.1035 (  9) -0.2190 ( 11)  0.3685 ( 12)  0.1321 ( 13)  0.5025 ( 14)
          -0.1370 ( 18)  0.1476 ( 19)  0.1040 ( 22)  0.1025 ( 23)  0.1103 ( 26)
           0.2837 ( 27)  0.1699 ( 36) -0.2058 ( 39) -0.2352 ( 41)
 CRD 26=   0.2837 (  1)  0.1878 (  2) -0.1611 (  3) -0.1536 (  5) -0.1888 (  6)
          -0.1657 (  7) -0.1350 (  8)  0.1817 ( 10)  0.3233 ( 11) -0.3711 ( 12)
           0.3965 ( 14)  0.1054 ( 26)  0.2794 ( 29) -0.1110 ( 31) -0.2730 ( 36)
           0.2158 ( 39) -0.1955 ( 40)
 CRD 27=  -0.1361 (  2)  0.1629 (  3)  0.3191 (  6) -0.3716 (  8) -0.1754 ( 10)
          -0.2619 ( 11)  0.2148 ( 12)  0.2029 ( 13) -0.1066 ( 20) -0.2852 ( 22)
           0.2646 ( 23) -0.1723 ( 27)  0.2016 ( 29)  0.1891 ( 35) -0.1003 ( 36)
          -0.1580 ( 38) -0.2856 ( 40)  0.2718 ( 41)
 CRD 28=   0.1682 (  2)  0.1944 (  3)  0.3246 (  4) -0.1159 (  7) -0.2717 (  8)
          -0.3016 ( 11) -0.2320 ( 12)  0.1581 ( 13) -0.1730 ( 15) -0.1730 ( 17)
           0.2097 ( 18) -0.2644 ( 19) -0.2158 ( 23) -0.1309 ( 25)  0.1556 ( 27)
           0.1136 ( 31) -0.1413 ( 33) -0.1413 ( 34)  0.2487 ( 38) -0.1823 ( 39)
           0.1790 ( 42)  0.1113 ( 43)  0.1113 ( 44)
 CRD 29=   0.3834 (  1) -0.1413 (  2) -0.2456 (  3)  0.3887 (  6)  0.1073 (  8)
          -0.2168 ( 10)  0.2919 ( 11)  0.2855 ( 12)  0.1891 ( 14) -0.2210 ( 16)
          -0.1681 ( 19)  0.1656 ( 21)  0.1037 ( 22) -0.1283 ( 25)  0.1178 ( 31)
          -0.1456 ( 32) -0.1447 ( 35)  0.1337 ( 36)  0.1462 ( 43)  0.1462 ( 44)
 CRD 30=   0.4864 (  1)  0.1369 (  2) -0.3665 (  4)  0.1891 (  5) -0.1123 (  6)
           0.2009 (  7) -0.3317 (  8) -0.1465 ( 11) -0.1821 ( 12)  0.2030 ( 13)
          -0.2855 ( 14)  0.1045 ( 15) -0.1844 ( 16)  0.1045 ( 17) -0.1314 ( 18)
           0.1532 ( 21)  0.1141 ( 22) -0.1289 ( 35)  0.1071 ( 36) -0.1398 ( 42)
 CRD 31=   0.2091 ( 15) -0.2091 ( 17) -0.1460 ( 43)  0.1460 ( 44)  0.1948 ( 45)
          -0.3186 ( 46)  0.3748 ( 47)  0.1948 ( 48) -0.1590 ( 49) -0.1010 ( 50)
          -0.1010 ( 52)  0.2196 ( 53) -0.2709 ( 56)  0.1282 ( 57)  0.2135 ( 59)
          -0.1633 ( 62) -0.2060 ( 63)  0.1575 ( 65) -0.1201 ( 66)  0.1898 ( 71)
          -0.1477 ( 72)  0.2602 ( 75) -0.2279 ( 76)
 CRD 32=  -0.3819 (  2)  0.2260 (  3) -0.2015 (  6)  0.1254 (  7)  0.4016 (  9)
           0.3220 ( 10) -0.1857 ( 13) -0.1355 ( 14) -0.1285 ( 15) -0.2060 ( 16)
          -0.1285 ( 17)  0.1048 ( 23) -0.1212 ( 24) -0.1457 ( 25) -0.1481 ( 32)
          -0.1594 ( 33) -0.1594 ( 34) -0.1362 ( 36) -0.1311 ( 38)  0.2128 ( 39)
           0.1389 ( 42)  0.1836 ( 43)  0.1836 ( 44)
 CRD 33=   0.1161 (  2) -0.2346 (  3)  0.4782 (  5) -0.1578 (  6) -0.4368 (  7)
           0.1029 (  8)  0.1680 (  9) -0.1691 ( 10)  0.1224 ( 12)  0.2669 ( 13)
           0.2499 ( 22) -0.1199 ( 23) -0.1107 ( 24) -0.1424 ( 27)  0.1755 ( 29)
          -0.1392 ( 35) -0.2436 ( 40)  0.1481 ( 41)
 CRD 34=   0.1516 (  1)  0.3296 (  3) -0.2587 (  4)  0.1578 (  5) -0.1418 (  6)
          -0.1736 (  7)  0.1070 (  8) -0.1219 ( 11)  0.1436 ( 12) -0.3205 ( 13)
           0.2639 ( 14) -0.1264 ( 16) -0.2573 ( 23) -0.1616 ( 26) -0.1545 ( 27)
           0.2265 ( 31) -0.2301 ( 36)  0.1639 ( 37)  0.1621 ( 38)  0.2529 ( 41)
          -0.1310 ( 42)
 CRD 35=   0.1839 (  2)  0.1178 (  3) -0.2657 (  6) -0.3331 (  8) -0.2019 ( 10)
           0.3205 ( 11)  0.2442 ( 12) -0.1333 ( 13) -0.2644 ( 20) -0.2297 ( 24)
           0.1461 ( 26) -0.2342 ( 27)  0.2569 ( 28) -0.2497 ( 29)  0.2196 ( 30)
          -0.1164 ( 31)  0.2369 ( 35)  0.1062 ( 36) -0.1285 ( 37)  0.2175 ( 38)
 CRD 36=  -0.1036 (  1)  0.1554 (  2) -0.2919 (  4)  0.1516 (  7)  0.4678 (  9)
          -0.3060 ( 10) -0.2079 ( 12)  0.1947 ( 14) -0.1027 ( 15) -0.1267 ( 16)
          -0.1027 ( 17) -0.1194 ( 18)  0.2239 ( 19) -0.1045 ( 21) -0.1265 ( 22)
           0.1955 ( 25) -0.1756 ( 30) -0.1183 ( 32) -0.1139 ( 33) -0.1139 ( 34)
           0.1629 ( 37) -0.2321 ( 39)  0.1823 ( 40)  0.1189 ( 42)  0.1287 ( 43)
           0.1287 ( 44)
 CRD 37=  -0.2815 ( 15)  0.2815 ( 17)  0.1962 ( 43) -0.1962 ( 44) -0.2428 ( 47)
           0.1252 ( 49)  0.1558 ( 50) -0.1772 ( 51)  0.1558 ( 52)  0.2169 ( 53)
           0.2200 ( 59)  0.2353 ( 61) -0.2206 ( 63) -0.1688 ( 67)  0.1714 ( 68)
           0.1658 ( 70) -0.2310 ( 72) -0.2360 ( 73)  0.2222 ( 75) -0.2167 ( 76)
          -0.2398 ( 78)
 CRD 38=  -0.1422 ( 15)  0.1422 ( 17)  0.1228 ( 46) -0.1514 ( 47)  0.1853 ( 49)
          -0.2302 ( 53) -0.2872 ( 56) -0.1943 ( 61) -0.2842 ( 62) -0.1016 ( 63)
           0.1057 ( 65) -0.2525 ( 69) -0.2248 ( 70)  0.3075 ( 71)  0.2260 ( 72)
           0.1846 ( 73)  0.2866 ( 74) -0.1323 ( 76)  0.3205 ( 77)  0.2128 ( 78)
 CRD 39=  -0.2942 (  3)  0.2455 (  5)  0.2086 (  7) -0.1802 (  8)  0.1139 ( 10)
          -0.2288 ( 11) -0.3588 ( 13)  0.1589 ( 14) -0.1028 ( 15)  0.1846 ( 16)
          -0.1028 ( 17) -0.1879 ( 20)  0.1183 ( 22)  0.1144 ( 23)  0.1131 ( 26)
          -0.2313 ( 28) -0.1978 ( 29) -0.1342 ( 31) -0.1091 ( 32) -0.1977 ( 35)
          -0.2245 ( 36)  0.1619 ( 37)  0.1330 ( 40)  0.1613 ( 41)  0.1441 ( 42)
           0.1173 ( 45) -0.1173 ( 48)  0.1173 ( 50) -0.1173 ( 52)
 CRD 40=   0.3611 (  2) -0.2269 (  4) -0.2576 (  5)  0.1914 (  6) -0.2689 (  7)
           0.1706 (  9)  0.3109 ( 10)  0.1959 ( 12) -0.1544 ( 14)  0.1319 ( 19)
          -0.1794 ( 22) -0.1533 ( 23)  0.2148 ( 24)  0.2125 ( 25) -0.1769 ( 26)
           0.1836 ( 27)  0.2052 ( 30) -0.1635 ( 37)  0.1940 ( 38)  0.1896 ( 39)
          -0.1580 ( 40) -0.1448 ( 41)
 CRD 41=   0.2165 (  1)  0.2025 (  3) -0.2224 (  4) -0.1820 ( 15)  0.3640 ( 16)
          -0.1820 ( 17) -0.2125 ( 18)  0.1079 ( 20)  0.2654 ( 21)  0.1554 ( 31)
          -0.2490 ( 32)  0.1290 ( 33)  0.1290 ( 34)  0.2584 ( 42) -0.1243 ( 43)
          -0.1243 ( 44)  0.2399 ( 45) -0.2399 ( 48)  0.2399 ( 50) -0.2399 ( 52)
 CRD 42=  -0.1770 ( 15)  0.1770 ( 17)  0.1381 ( 33) -0.1381 ( 34)  0.1222 ( 43)
          -0.1222 ( 44)  0.2287 ( 45) -0.1933 ( 46)  0.2287 ( 48) -0.3286 ( 51)
           0.1136 ( 53) -0.1263 ( 56)  0.2096 ( 57)  0.1170 ( 58) -0.1960 ( 59)
           0.1163 ( 60)  0.1851 ( 63) -0.1279 ( 64)  0.2561 ( 65) -0.2219 ( 66)
          -0.1528 ( 69)  0.1698 ( 70)  0.1810 ( 73) -0.1776 ( 74) -0.1295 ( 75)
          -0.2439 ( 77)  0.2698 ( 78)
 CRD 43=  -0.2882 ( 54) -0.2846 ( 55)  0.1542 ( 57)  0.1303 ( 59)  0.1532 ( 60)
          -0.2163 ( 61) -0.2220 ( 62)  0.1469 ( 63)  0.1239 ( 64)  0.1327 ( 66)
           0.1368 ( 67)  0.1505 ( 68) -0.2337 ( 69) -0.2042 ( 70) -0.1929 ( 71)
          -0.1879 ( 72)  0.3867 ( 75)  0.3880 ( 76) -0.2108 ( 77) -0.1699 ( 78)
 CRD 44=  -0.1319 ( 45) -0.1319 ( 48)  0.1756 ( 49)  0.1214 ( 50)  0.2337 ( 51)
           0.1214 ( 52)  0.1151 ( 53) -0.1820 ( 54)  0.2030 ( 55) -0.1148 ( 56)
          -0.2198 ( 58)  0.3278 ( 60) -0.3377 ( 64) -0.1684 ( 67)  0.1601 ( 68)
           0.1095 ( 73) -0.1187 ( 74)  0.1784 ( 75) -0.2084 ( 76) -0.3564 ( 77)
           0.3670 ( 78)
 CRD 45=  -0.1057 ( 45) -0.1057 ( 48)  0.3051 ( 49)  0.1620 ( 50)  0.2408 ( 51)
           0.1620 ( 52)  0.2361 ( 54) -0.2258 ( 55)  0.2866 ( 57) -0.3501 ( 58)
          -0.1561 ( 60)  0.1512 ( 64) -0.2916 ( 66) -0.3116 ( 69)  0.3328 ( 70)
          -0.1720 ( 75)  0.1616 ( 76)  0.1151 ( 77) -0.1130 ( 78)

 THE DETERMINANT OF THE G MATRIX IS 10**(   -21)


                     --------------------
                     INTERNAL COORDINATES
                     --------------------

                 - - ATOMS - -         COORDINATE      COORDINATE
 NO.   TYPE    I  J  K  L  M  N        (BOHR,RAD)       (ANG,DEG)
 ----------------------------------------------------------------
   1 STRETCH   1  5                     2.3168484       1.2260235
   2 STRETCH   2  4                     2.6913467       1.4241995
   3 STRETCH   2  3                     2.6832440       1.4199117
   4 STRETCH   2  5                     2.6605202       1.4078868
   5 STRETCH   3  6                     2.6586395       1.4068915
   6 STRETCH   3 10                     1.9262923       1.0193500
   7 STRETCH   4  7                     2.6612996       1.4082992
   8 STRETCH   4 11                     1.9337216       1.0232815
   9 STRETCH   5  9                     2.7527738       1.4567052
  10 STRETCH   6  8                     2.6530573       1.4039376
  11 STRETCH   6 12                     1.9323873       1.0225754
  12 STRETCH   7 13                     1.9336035       1.0232190
  13 STRETCH   7  8                     2.6520294       1.4033936
  14 STRETCH   8 14                     1.9321577       1.0224539
  15 STRETCH   9 15                     2.0642573       1.0923580
  16 STRETCH   9 17                     2.0543285       1.0871039
  17 STRETCH   9 16                     2.0642573       1.0923580
  18 BEND      1  5  9                  1.9471808     111.5652417
  19 BEND      1  5  2                  2.0887347     119.6756808
  20 BEND      2  4  7                  2.1367439     122.4264059
  21 BEND      2  5  9                  2.2472698     128.7590775
  22 BEND      2  3 10                  2.1320680     122.1584955
  23 BEND      2  4 11                  2.1167167     121.2789343
  24 BEND      2  3  6                  2.1376990     122.4811310
  25 BEND      3  2  5                  2.1468630     123.0061894
  26 BEND      3  2  4                  2.0209396     115.7913078
  27 BEND      3  6 12                  2.0989270     120.2596595
  28 BEND      3  6  8                  2.0926776     119.9015923
  29 BEND      4  7 13                  2.1030330     120.4949123
  30 BEND      4  7  8                  2.0908128     119.7947488
  31 BEND      4  2  5                  2.1153827     121.2025028
  32 BEND      5  9 17                  2.0189896     115.6795809
  33 BEND      5  9 15                  1.9217799     110.1098766
  34 BEND      5  9 16                  1.9217799     110.1098766
  35 BEND      6  3 10                  2.0134183     115.3603734
  36 BEND      6  8 14                  2.0959211     120.0874340
  37 BEND      6  8  7                  2.0874978     119.6048142
  38 BEND      7  4 11                  2.0297247     116.2946599
  39 BEND      7  8 14                  2.0997664     120.3077517
  40 BEND      8  7 13                  2.0893396     119.7103388
  41 BEND      8  6 12                  2.0915807     119.8387482
  42 BEND     15  9 16                  1.8876488     108.1543093
  43 BEND     15  9 17                  1.8540153     106.2272528
  44 BEND     16  9 17                  1.8540153     106.2272528
  45 TORSION   1  5  9 16               1.0399580      59.5852027
  46 TORSION   1  5  2  3               3.1415927     180.0000000
  47 TORSION   1  5  9 17               3.1415927     180.0000000
  48 TORSION   1  5  9 15              -1.0399580     -59.5852027
  49 TORSION   1  5  2  4               0.0000000       0.0000000
  50 TORSION   2  5  9 16              -2.1016347    -120.4147973
  51 TORSION   2  5  9 17               0.0000000       0.0000000
  52 TORSION   2  5  9 15               2.1016347     120.4147973
  53 TORSION   2  3  6 12               3.1415927     180.0000000
  54 TORSION   2  3  6  8               0.0000000       0.0000000
  55 TORSION   2  4  7  8               0.0000000       0.0000000
  56 TORSION   2  4  7 13               3.1415927     180.0000000
  57 TORSION   3  2  4  7               0.0000000       0.0000000
  58 TORSION   3  2  5  9               0.0000000       0.0000000
  59 TORSION   3  6  8 14               3.1415927     180.0000000
  60 TORSION   3  6  8  7               0.0000000       0.0000000
  61 TORSION   3  2  4 11               3.1415927     180.0000000
  62 TORSION   4  2  3 10               3.1415927     180.0000000
  63 TORSION   4  7  8 14               3.1415927     180.0000000
  64 TORSION   4  7  8  6               0.0000000       0.0000000
  65 TORSION   4  2  5  9               3.1415927     180.0000000
  66 TORSION   4  2  3  6               0.0000000       0.0000000
  67 TORSION   5  2  4  7               3.1415927     180.0000000
  68 TORSION   5  2  3  6               3.1415927     180.0000000
  69 TORSION   5  2  4 11               0.0000000       0.0000000
  70 TORSION   5  2  3 10               0.0000000       0.0000000
  71 TORSION   6  8  7 13               3.1415927     180.0000000
  72 TORSION   7  8  6 12               3.1415927     180.0000000
  73 TORSION   8  7  4 11               3.1415927     180.0000000
  74 TORSION   8  6  3 10               3.1415927     180.0000000
  75 TORSION  10  3  6 12               0.0000000       0.0000000
  76 TORSION  11  4  7 13               0.0000000       0.0000000
  77 TORSION  12  6  8 14               0.0000000       0.0000000
  78 TORSION  13  7  8 14               0.0000000       0.0000000

     ------------------------------------------
     THE POINT GROUP IS C1 , NAXIS= 1, ORDER= 1
     ------------------------------------------

     DIMENSIONS OF THE SYMMETRY SUBSPACES ARE
 A   =  219

 ..... DONE SETTING UP THE RUN .....
 STEP CPU TIME =     0.00 TOTAL CPU TIME =        0.0 (    0.0 MIN)
 TOTAL WALL CLOCK TIME=        0.0 SECONDS, CPU UTILIZATION IS   0.00%


          -----------------------------
          STATIONARY POINT LOCATION RUN
          -----------------------------

 OBTAINING INITIAL HESSIAN, HESS=GUESS   
 DIAGONAL GUESS HESSIAN IN INTERNAL COORDS IS
     1  0.5353     2  0.4510     3  0.4548     4  0.4655     5  0.4664
     6  0.3974     7  0.4652     8  0.3943     9  0.4234    10  0.4691
    11  0.3949    12  0.3944    13  0.4696    14  0.3950    15  0.3448
    16  0.3483    17  0.3448    18  0.2629    19  0.2667    20  0.2653
    21  0.2628    22  0.2353    23  0.2347    24  0.2657    25  0.2656
    26  0.2644    27  0.2359    28  0.2670    29  0.2358    30  0.2669
    31  0.2653    32  0.2287    33  0.2284    34  0.2284    35  0.2361
    36  0.2361    37  0.2672    38  0.2358    39  0.2361    40  0.2361
    41  0.2361    42  0.2032    43  0.2034    44  0.2034    45  0.2500
    46  0.2500    47  0.2500    48  0.2500    49  0.2500    50  0.2500
    51  0.2500    52  0.2500    53  0.2500    54  0.2500    55  0.2500
    56  0.2500    57  0.2500    58  0.2500    59  0.2500    60  0.2500
    61  0.2500    62  0.2500    63  0.2500    64  0.2500    65  0.2500
    66  0.2500    67  0.2500    68  0.2500    69  0.2500    70  0.2500
    71  0.2500    72  0.2500    73  0.2500    74  0.2500    75  0.2500
    76  0.2500    77  0.2500    78  0.2500
 TRANSFORMING HESSIAN TO SYMMETRY COORDINATES

          PARAMETERS CONTROLLING GEOMETRY SEARCH ARE
          METHOD =QA                  UPHESS =BFGS    
          NNEG   =         0          NFRZ   =         3
          NSTEP  =        50          IFOLOW =         1
          HESS   =GUESS               RESTAR =         F
          IHREP  =         0          HSSEND =         F
          NPRT   =         0          NPUN   =         0
          OPTTOL = 5.000E-04          RMIN   = 1.500E-03
          RMAX   = 1.000E-01          RLIM   = 7.000E-02
          DXMAX  = 3.000E-01          PURIFY =         F
          MOVIE  =         F          TRUPD  =         T
          TRMAX  = 5.000E-01          TRMIN  = 5.000E-02
          ITBMAT =         5          STPT   =         F
          STSTEP = 1.000E-02          PROJCT=          F
          FROZEN COORD(S)=   1   2   3


      ***** EQUILIBRIUM GEOMETRY LOCATED *****
            (SUBJECT TO   3 CONSTRAINT(S))
 COORDINATES OF ALL ATOMS ARE (ANGS)
   ATOM   CHARGE       X              Y              Z
 ------------------------------------------------------------
 O           8.0  -2.2913631580  -1.3600574493   0.0000253098
 C           6.0  -0.3164465793  -0.1025867656  -0.0000038504
 C           6.0   1.0736628302  -0.0292098166   0.0000009674
 C           6.0  -1.0465507230   1.0911672130  -0.0000156287
 C           6.0  -1.0929209269  -1.3963449008  -0.0000079650
 C           6.0   1.7157652662   1.2040154716   0.0000059267
 C           6.0  -0.4088072062   2.3167729171  -0.0000144008
 C           6.0   0.9792763176   2.3754080260   0.0000105008
 C           6.0  -0.4317468650  -2.7630006443  -0.0000090612
 H           1.0   1.6753878839  -0.9173800773  -0.0000096034
 H           1.0  -2.1184946847   1.0503883654   0.0000029506
 H           1.0   2.7899154257   1.2478106749   0.0000237733
 H           1.0  -0.9852017884   3.2250481271  -0.0000109541
 H           1.0   1.4787919927   3.3289820853   0.0000332124
 H           1.0  -0.7908107136  -3.2994683007   0.8732432611
 H           1.0  -0.7907471498  -3.2994131322  -0.8733245819
 H           1.0   0.6470713488  -2.7731674508   0.0000392686


                     --------------------
                     INTERNAL COORDINATES
                     --------------------

                 - - ATOMS - -         COORDINATE      COORDINATE
 NO.   TYPE    I  J  K  L  M  N        (BOHR,RAD)       (ANG,DEG)
 ----------------------------------------------------------------
   1 STRETCH   1  5                     2.2657654       1.1989915
   2 STRETCH   2  4                     2.6443342       1.3993215
   3 STRETCH   2  3                     2.6305830       1.3920447
   4 STRETCH   2  5                     2.8513720       1.5088812
   5 STRETCH   3  6                     2.6274261       1.3903741
   6 STRETCH   3 10                     2.0273153       1.0728091
   7 STRETCH   4  7                     2.6108506       1.3816027
   8 STRETCH   4 11                     2.0271456       1.0727193
   9 STRETCH   5  9                     2.8689620       1.5181894
  10 STRETCH   6  8                     2.6147803       1.3836822
  11 STRETCH   6 12                     2.0315359       1.0750426
  12 STRETCH   7 13                     2.0328345       1.0757298
  13 STRETCH   7  8                     2.6254368       1.3893214
  14 STRETCH   8 14                     2.0342612       1.0764847
  15 STRETCH   9 15                     2.0521537       1.0859530
  16 STRETCH   9 17                     2.0387613       1.0788661
  17 STRETCH   9 16                     2.0521585       1.0859556
  18 BEND      1  5  9                  2.0516615     117.5515423
  19 BEND      1  5  2                  2.0810709     119.2365822
  20 BEND      2  4  7                  2.1128903     121.0596976
  21 BEND      2  5  9                  2.1504529     123.2118755
  22 BEND      2  3 10                  2.1135175     121.0956302
  23 BEND      2  4 11                  2.0816806     119.2715098
  24 BEND      2  3  6                  2.1035783     120.5261596
  25 BEND      3  2  5                  2.1640766     123.9924571
  26 BEND      3  2  4                  2.0669681     118.4285485
  27 BEND      3  6 12                  2.0915916     119.8393729
  28 BEND      3  6  8                  2.1002701     120.3366121
  29 BEND      4  7 13                  2.0963228     120.1104479
  30 BEND      4  7  8                  2.0928075     119.9090367
  31 BEND      4  2  5                  2.0521406     117.5789944
  32 BEND      5  9 17                  2.0308156     116.3571626
  33 BEND      5  9 15                  1.8762249     107.4997662
  34 BEND      5  9 16                  1.8762041     107.4985775
  35 BEND      6  3 10                  2.0660895     118.3782102
  36 BEND      6  8 14                  2.0977826     120.1940866
  37 BEND      6  8  7                  2.0898563     119.7399455
  38 BEND      7  4 11                  2.0886144     119.6687925
  39 BEND      7  8 14                  2.0955465     120.0659678
  40 BEND      8  7 13                  2.0940550     119.9805154
  41 BEND      8  6 12                  2.0913236     119.8240150
  42 BEND     15  9 16                  1.8685309     107.0589335
  43 BEND     15  9 17                  1.9028000     109.0224111
  44 BEND     16  9 17                  1.9028140     109.0232129
  45 TORSION   1  5  9 16               1.0032589      57.4824994
  46 TORSION   1  5  2  3               3.1415570     179.9979565
  47 TORSION   1  5  9 17              -3.1415114    -179.9953432
  48 TORSION   1  5  9 15              -1.0030983     -57.4733002
  49 TORSION   1  5  2  4              -0.0000443      -0.0025354
  50 TORSION   2  5  9 16              -2.1383675    -122.5194322
  51 TORSION   2  5  9 17               0.0000476       0.0027253
  52 TORSION   2  5  9 15               2.1384606     122.5247682
  53 TORSION   2  3  6 12               3.1415775     179.9991304
  54 TORSION   2  3  6  8               0.0000037       0.0002096
  55 TORSION   2  4  7  8              -0.0000098      -0.0005618
  56 TORSION   2  4  7 13              -3.1415791    -179.9992237
  57 TORSION   3  2  4  7              -0.0000067      -0.0003855
  58 TORSION   3  2  5  9              -0.0000014      -0.0000810
  59 TORSION   3  6  8 14               3.1415724     179.9988376
  60 TORSION   3  6  8  7              -0.0000203      -0.0011650
  61 TORSION   3  2  4 11              -3.1415687    -179.9986276
  62 TORSION   4  2  3 10              -3.1415714    -179.9987800
  63 TORSION   4  7  8 14              -3.1415694    -179.9986657
  64 TORSION   4  7  8  6               0.0000233       0.0013368
  65 TORSION   4  2  5  9               3.1415827     179.9994271
  66 TORSION   4  2  3  6               0.0000098       0.0005614
  67 TORSION   5  2  4  7              -3.1415913    -179.9999217
  68 TORSION   5  2  3  6              -3.1415915    -179.9999344
  69 TORSION   5  2  4 11               0.0000320       0.0018361
  70 TORSION   5  2  3 10               0.0000126       0.0007242
  71 TORSION   6  8  7 13               3.1415927     180.0000000
  72 TORSION   7  8  6 12               3.1415912     179.9999140
  73 TORSION   8  7  4 11               3.1415520     179.9976735
  74 TORSION   8  6  3 10               3.1415851     179.9995686
  75 TORSION  10  3  6 12              -0.0000264      -0.0015106
  76 TORSION  11  4  7 13              -0.0000173      -0.0009884
  77 TORSION  12  6  8 14              -0.0000015      -0.0000834
  78 TORSION  13  7  8 14               0.0000000       0.0000000

          INTERNUCLEAR DISTANCES (ANGS.)


 =====================================================
   GAMESS/COSab RESULTS
 =====================================================

   Dielectric Constant                  = INFTY
   Basic Grid Size                      =                 1082
   Number of Segments                   =                   92
   Number of Segments located on spheres=                  299
   Number of Segments of the cavity     =                  701
   Solvent Radius (rsolv)               = 1.40
   Outlying Charge Error Method         = double cavity

 =====================================================

  Total solvated Energy (a.u.)          =  -382.5736256917
  Total Energy corrected (a.u.)         =  -382.5734898097

  Outlying charge effect (a.u.)         =     0.0001358819
  Outlying charge effect (kcal/mol)     =     0.0852672654

  Dielectric Energy (a.u.)              =    -0.0156952594
  Dielectric energy corr. (a.u.)        =    -0.0155593775

  Sum of polarization charges           =     0.0220646476
  Sum of polarization charges(cor.)     =    -0.0220646476

  Total surface area of cavity (A**2)   =  161.50
  Total volume of cavity (A**3)         =  156.86

 =====================================================
 NPS=                   701
NR.  ATOM  (X, Y, Z)(a.u.)                  CHARGE(e)  AREA(A**2) SIGMA(e/A**2)
   1   1  -7.574651  -2.378046   0.015839   0.005106   0.377948   0.013510
   2   1  -5.935872  -0.964234  -2.325259   0.003267   0.206154   0.015846
   3   1  -5.849545  -2.616412   2.872948   0.004168   0.343589   0.012131
   4   1  -6.115284  -5.197372   0.689393   0.004358   0.240512   0.018121
   5   1  -5.808805  -4.072291  -2.474117   0.003450   0.240512   0.014344
   6   1  -7.318428  -1.754580  -0.984364   0.005751   0.412307   0.013949
   7   1  -6.711108  -1.098126  -1.651727   0.004859   0.309230   0.015713
   8   1  -7.330687  -1.385840   0.397776   0.004462   0.309230   0.014431
   9   1  -6.912063  -0.799512   0.873351   0.004276   0.240512   0.017779
  10   1  -7.347629  -2.460133   1.202830   0.005509   0.412307   0.013361
  11   1  -6.747282  -2.761745   2.164497   0.004877   0.377948   0.012904
  12   1  -7.421294  -3.505278   0.366537   0.005412   0.377948   0.014320
  13   1  -6.891664  -4.502064   0.520048   0.005645   0.343589   0.016428
  14   1  -7.389960  -3.184542  -0.907735   0.006619   0.481025   0.013760
  15   1  -6.776756  -3.710282  -1.810571   0.005797   0.412307   0.014059
  16   1  -6.285778  -0.927830   2.010647   0.004333   0.274871   0.015763
  17   1  -6.148452  -1.743184   2.564052   0.003074   0.240512   0.012781
  18   1  -6.102752  -3.726134   2.466984   0.004556   0.343589   0.013259
  19   1  -6.168343  -4.665043   1.672365   0.005748   0.343589   0.016729
  20   1  -6.093733  -5.288204  -0.257201   0.005490   0.343589   0.015979
  21   1  -6.270751  -4.650953  -1.571110   0.004354   0.274871   0.015842
  22   1  -6.111912  -3.050055  -2.675640   0.004690   0.377948   0.012409
  23   1  -6.125848  -1.825772  -2.604886   0.004377   0.343589   0.012740
  24   1  -4.769607  -1.502147   3.038263   0.002001   0.171795   0.011647
  25   1  -4.965569  -2.225951   3.168994   0.002052   0.240512   0.008533
  26   1  -5.020674  -3.429189   3.057767   0.004524   0.377948   0.011970
  27   1  -5.644577  -5.243065   1.300852   0.002792   0.137436   0.020314
  28   1  -5.554977  -4.717129  -2.110558   0.003145   0.206154   0.015258
  29   1  -5.144780  -3.549758  -2.990144   0.004475   0.343589   0.013025
  30   1  -5.155298  -1.374140  -2.907395   0.003317   0.240512   0.013791
  31   1  -7.049174  -0.870602  -0.531489   0.004164   0.240512   0.017311
  32   1  -6.930691  -1.586163   1.683204   0.004750   0.343589   0.013826
  33   1  -6.942915  -3.797606   1.493647   0.005931   0.412307   0.014386
  34   1  -6.914363  -4.441104  -0.620788   0.006761   0.412307   0.016399
  35   1  -6.884099  -2.376360  -2.000931   0.005348   0.412307   0.012970
  36   1  -5.480605  -1.259555   2.742885   0.003043   0.206154   0.014763
  37   1  -5.499218  -4.358151   2.449669   0.003180   0.206154   0.015427
  38   1  -5.834408  -5.225991  -1.117095   0.004204   0.206154   0.020392
  39   1  -5.022783  -2.346010  -3.167691   0.003933   0.412307   0.009540
  40   2  -1.587849  -0.144530  -3.647204   0.000391   0.092912   0.004209
  41   2  -0.234939  -0.939456  -3.687362   0.000888   0.232280   0.003825
  42   2  -0.956192  -0.501155  -3.749882   0.000868   0.185824   0.004671
  43   2  -0.824496   0.223930  -3.749465   0.000517   0.139368   0.003709
  44   2  -0.246759   0.414168   3.713636   0.002444   0.371649   0.006576
  45   2  -0.136545  -1.022963   3.658393   0.000822   0.232280   0.003539
  46   2  -1.195208  -0.311116   3.730115   0.001651   0.418105   0.003949
  47   2  -0.116152   0.235077  -3.724000   0.001507   0.232280   0.006488
  48   3   1.459906   0.816458   3.633280   0.000801   0.139368   0.005747
  49   3   4.285124  -0.733114   2.955383   0.000448   0.232280   0.001928
  50   3   3.157687  -1.240877  -3.406507   0.000534   0.278737   0.001916
  51   3   3.575502  -2.090545  -2.783830   0.000027   0.371649   0.000072
  52   3   4.789692  -1.305089   2.258369  -0.000229   0.278737  -0.000820
  53   3   5.424775  -1.076963  -1.307073  -0.000421   0.092912  -0.004536
  54   3   3.690641  -1.288348   3.162650   0.000568   0.325193   0.001746
  55   3   2.667254  -1.719740   3.332591   0.000614   0.325193   0.001888
  56   3   2.588951  -1.975219  -3.206889   0.000388   0.278737   0.001392
  57   3   4.161049  -0.946780  -2.990544   0.000638   0.325193   0.001963
  58   3   4.959627  -1.059547  -2.164833   0.000195   0.185824   0.001047
  59   3   3.213063  -0.338399   3.577977   0.001390   0.325193   0.004275
  60   3   2.161753   0.381955   3.751740   0.000987   0.232280   0.004250
  61   3   1.591861  -0.239135   3.749594   0.001098   0.185824   0.005911
  62   3   1.734368  -1.305582   3.554448   0.000559   0.185824   0.003010
  63   3   1.906906  -0.927211  -3.675450   0.001943   0.511017   0.003802
  64   3   3.132528  -0.283527  -3.607511   0.001419   0.371649   0.003819
  65   3   3.437399  -2.150676   2.812383  -0.000125   0.278737  -0.000448
  66   3   4.491935  -1.549325  -2.446509  -0.000160   0.139368  -0.001145
  67   3   1.772156   0.426536  -3.739813   0.002644   0.464561   0.005692
  68   3   2.387627  -0.692199   3.708083   0.000924   0.278737   0.003315
  69   4  -0.988713   1.998072  -3.647219   0.000579   0.092912   0.006231
  70   4  -3.901700   3.567253  -2.883895   0.000742   0.278737   0.002661
  71   4  -3.601504   2.269856   3.406493   0.000673   0.278737   0.002413
  72   4  -4.533637   2.103631   2.783814   0.000228   0.371649   0.000613
  73   4  -4.545363   3.169476  -2.542636   0.000134   0.278737   0.000479
  74   4  -4.811428   4.194092   1.307070  -0.000275   0.092912  -0.002963
  75   4  -4.569403   4.029532  -1.922570  -0.000131   0.185824  -0.000707
  76   4  -3.877524   2.539345  -3.232215   0.000731   0.325193   0.002249
  77   4  -3.584339   1.299216  -3.334855   0.000559   0.325193   0.001720
  78   4  -3.868955   1.275540   3.176282   0.000572   0.371649   0.001538
  79   4  -3.955502   3.336256   2.957828   0.000909   0.371649   0.002445
  80   4  -4.494927   3.987615   2.059079   0.000471   0.185824   0.002535
  81   4  -2.906911   2.848766  -3.577986   0.001517   0.325193   0.004664
  82   4  -1.703994   2.427873  -3.751750   0.001037   0.232280   0.004463
  83   4  -1.867214   1.600897  -3.749610   0.001070   0.185824   0.005757
  84   4  -2.811091   1.084453  -3.554469   0.000536   0.185824   0.002883
  85   4  -2.608283   1.447449   3.675432   0.001850   0.511017   0.003621
  86   4  -2.802552   2.869325   3.598886   0.001611   0.418105   0.003852
  87   4  -4.405927   1.806064  -2.884890   0.000231   0.278737   0.000830
  88   4  -4.754033   4.321649  -1.212569  -0.000047   0.092912  -0.000507
  89   4  -4.639927   3.278961   2.390765  -0.000049   0.185824  -0.000262
  90   4  -1.437444   2.140215   3.739801   0.002684   0.464561   0.005778
  91   4  -2.703433   1.974059  -3.708097   0.000951   0.278737   0.003410
  92   5  -0.967936  -2.617964   3.616556  -0.001654   0.232280  -0.007121
  93   5  -3.105356  -2.589517  -3.633217  -0.000238   0.139368  -0.001706
  94   5  -3.369290  -3.349321   3.475464  -0.000073   0.092912  -0.000786
  95   5  -3.366226  -1.661595   3.411317  -0.000019   0.139368  -0.000133
  96   5  -3.219862  -1.638850  -3.457121  -0.000633   0.278737  -0.002271
  97   5  -2.733947  -3.180399   3.680172  -0.000825   0.185824  -0.004441
  98   5  -1.788639  -3.002527   3.751698  -0.001611   0.232280  -0.006937
  99   5  -1.998436  -2.064787   3.735011  -0.001333   0.232280  -0.005738
 100   5  -2.794078  -1.690927   3.585360  -0.000488   0.139368  -0.003505
 101   5  -2.397098  -2.128773  -3.730182  -0.001703   0.325193  -0.005235
 102   5  -2.856011  -3.315671  -3.633301  -0.001534   0.325193  -0.004716
 103   5  -1.377402  -2.750282  -3.714656  -0.003515   0.464561  -0.007566
 104   5  -2.967862  -2.475301   3.666454  -0.001077   0.278737  -0.003865
 105   6   2.331589   2.297547   3.668012   0.000943   0.139368   0.006765
 106   6   5.041787   3.927330   2.883906   0.000874   0.278737   0.003137
 107   6   5.404558   0.817647   2.735767   0.000796   0.278737   0.002854
 108   6   4.876883   2.436944  -3.403874   0.001286   0.371649   0.003462
 109   6   5.787177   2.517834  -2.783736   0.000682   0.371649   0.001835
 110   6   5.998257   0.237447  -1.592627  -0.000005   0.092912  -0.000054
 111   6   5.961340   0.565055   1.991601   0.000101   0.278737   0.000362
 112   6   5.714772   3.581434   2.542683   0.000382   0.278737   0.001370
 113   6   5.899529   4.623712  -1.307043  -0.000088   0.092912  -0.000945
 114   6   5.671077   4.440698   1.922594  -0.000075   0.185824  -0.000404
 115   6   5.098568   2.900717   3.232256   0.001079   0.325193   0.003317
 116   6   5.151912   1.575265   3.185560   0.000711   0.232280   0.003060
 117   6   5.788934   0.562929  -2.206129   0.000048   0.185824   0.000257
 118   6   5.129061   1.230474  -3.103697   0.001401   0.418105   0.003352
 119   6   5.113836   3.701133  -2.957808   0.001195   0.371649   0.003214
 120   6   5.600290   4.392947  -2.059057   0.000404   0.185824   0.002177
 121   6   4.106600   3.132801   3.577980   0.001853   0.325193   0.005697
 122   6   3.171812   2.615324   3.763463   0.001160   0.232280   0.004994
 123   6   3.255521   1.879738   3.758677   0.001709   0.232280   0.007358
 124   6   4.291966   1.232916   3.477939   0.001116   0.278737   0.004004
 125   6   3.919472   1.712140  -3.675408   0.002830   0.511017   0.005539
 126   6   4.001235   3.144897  -3.598896   0.001956   0.418105   0.004677
 127   6   5.815653   1.322524  -2.598957   0.000364   0.232280   0.001567
 128   6   5.715540   2.121957   2.853773   0.000712   0.325193   0.002190
 129   6   5.832173   4.746421   1.212591  -0.000037   0.092912  -0.000401
 130   6   5.800624   3.697894  -2.390717   0.000130   0.185824   0.000700
 131   6   2.697747   2.310611  -3.739842   0.003083   0.464561   0.006637
 132   6   4.316545   2.112094   3.619906   0.001158   0.278737   0.004153
 133   7  -0.235411   3.642329  -3.668063   0.000915   0.139368   0.006566
 134   7  -0.390187   6.754536  -2.913862   0.001007   0.325193   0.003098
 135   7  -3.202451   5.324508  -2.735715   0.000833   0.278737   0.002989
 136   7  -1.570870   5.813428   3.403882   0.001230   0.371649   0.003310
 137   7  -2.023068   6.607608   2.783765   0.000695   0.371649   0.001870
 138   7  -4.017405   5.481796   1.592704  -0.000099   0.092912  -0.001070
 139   7  -3.727247   5.638149  -1.991531   0.000274   0.278737   0.000981
 140   7  -1.107898   7.154157  -2.542677   0.000311   0.278737   0.001115
 141   7  -0.220037   8.013472   0.873334  -0.000414   0.092912  -0.004461
 142   7  -0.376835   7.607822  -1.922605  -0.000143   0.185824  -0.000770
 143   7  -1.316243   6.259912  -3.232251   0.000990   0.325193   0.003043
 144   7  -2.435900   5.548552  -3.185529   0.000726   0.232280   0.003127
 145   7  -3.630639   5.495217   2.206194   0.000130   0.185824   0.000699
 146   7  -2.706046   5.333265   3.103734   0.001520   0.418105   0.003634
 147   7  -0.666972   6.728455   2.957797   0.001067   0.371649   0.002872
 148   7  -0.373017   7.661891   1.827832   0.000395   0.185824   0.002128
 149   7  -0.560335   5.576944  -3.578005   0.001709   0.325193   0.005255
 150   7  -0.452995   4.513889  -3.763500   0.001142   0.232280   0.004918
 151   7  -1.105198   4.163569  -3.758698   0.001761   0.232280   0.007582
 152   7  -2.227284   4.646786  -3.477922   0.001142   0.278737   0.004097
 153   7  -1.621009   4.613650   3.675407   0.002851   0.511017   0.005580
 154   7  -0.490148   5.497182   3.598869   0.001878   0.418105   0.004491
 155   7  -3.021611   5.949963   2.599009   0.000326   0.232280   0.001402
 156   7  -2.307753   6.323228  -2.853739   0.000723   0.325193   0.002223
 157   7  -0.217356   7.914397  -1.212605  -0.000028   0.092912  -0.000299
 158   7  -0.936794   7.289846   2.403874   0.000151   0.232280   0.000650
 159   7  -0.433081   3.950617   3.739800   0.003053   0.464561   0.006572
 160   7  -1.518779   5.167912  -3.619906   0.001168   0.278737   0.004190
 161   8   1.376184   3.711120   3.668045   0.000810   0.139368   0.005814
 162   8   1.272630   6.825464   2.913890   0.000815   0.325193   0.002506
 163   8   4.193690   5.633313   2.735759   0.000530   0.278737   0.001901
 164   8   2.527287   5.985490  -3.403852   0.000785   0.371649   0.002111
 165   8   2.881462   6.787434  -2.817430   0.000306   0.325193   0.000942
 166   8   4.992865   5.857634  -1.592648  -0.000182   0.092912  -0.001964
 167   8   4.690710   5.989360   1.991586   0.000130   0.278737   0.000468
 168   8   1.954775   7.283170   2.542720   0.000076   0.278737   0.000274
 169   8   0.998823   8.066035  -0.873290  -0.000417   0.092912  -0.004490
 170   8   1.188651   7.674726   1.922645  -0.000241   0.185824  -0.001296
 171   8   2.236473   6.409246   3.232284   0.000627   0.325193   0.001929
 172   8   3.411209   5.793081   3.185566   0.000468   0.232280   0.002016
 173   8   4.606323   5.838980  -2.206142  -0.000010   0.185824  -0.000055
 174   8   3.698334   5.601008  -3.103696   0.001101   0.418105   0.002634
 175   8   1.550693   6.822489  -2.957766   0.000746   0.371649   0.002007
 176   8   1.180412   7.728349  -1.827791   0.000340   0.185824   0.001830
 177   8   1.539734   5.666003   3.578018   0.001348   0.325193   0.004144
 178   8   1.520821   4.597707   3.763497   0.000943   0.232280   0.004061
 179   8   2.199803   4.302618   3.758699   0.001490   0.232280   0.006415
 180   8   3.278007   4.877129   3.477944   0.000890   0.278737   0.003194
 181   8   2.676644   4.793993  -3.675393   0.002219   0.511017   0.004342
 182   8   1.476479   5.580809  -3.598858   0.001495   0.418105   0.003575
 183   8   3.961723   6.241719  -2.598958   0.000123   0.232280   0.000528
 184   8   3.219334   6.554485   2.853786   0.000366   0.325193   0.001126
 185   8   1.004333   7.967047   1.212647  -0.000042   0.092912  -0.000454
 186   8   1.773076   7.404293  -2.403832  -0.000040   0.232280  -0.000171
 187   8   1.547723   4.034835  -3.739811   0.002651   0.464561   0.005706
 188   8   2.528766   5.337772   3.619926   0.000831   0.278737   0.002980
 189   9   1.224531  -7.414518  -2.304529   0.000836   0.418105   0.001999
 190   9   0.649195  -4.467688   3.401433  -0.000239   0.232280  -0.001028
 191   9  -1.753121  -8.861914  -0.389638   0.000449   0.371649   0.001209
 192   9   1.513261  -7.861097   1.375059   0.000093   0.371649   0.000251
 193   9  -0.177319  -4.324381  -3.615542  -0.000403   0.278737  -0.001446
 194   9   0.872277  -4.716603  -3.343615  -0.000106   0.325193  -0.000327
 195   9   1.101635  -5.817507  -3.201879   0.000437   0.232280   0.001879
 196   9   0.780579  -7.855302   2.190330   0.000246   0.371649   0.000661
 197   9  -2.179918  -8.704211   0.541302   0.000220   0.278737   0.000789
 198   9  -4.075534  -7.015563   0.662986   0.000263   0.232280   0.001134
 199   9   0.389962  -5.474911   3.572919   0.000297   0.278737   0.001065
 200   9   0.900171  -6.543689  -3.096904   0.000283   0.232280   0.001219
 201   9   1.751318  -6.388278  -2.516344   0.000383   0.325193   0.001176
 202   9  -0.125338  -4.214104   3.576706  -0.000149   0.185824  -0.000800
 203   9  -3.924885  -7.315029  -0.484461   0.000280   0.278737   0.001005
 204   9  -2.949584  -8.334598  -0.197461   0.000668   0.325193   0.002055
 205   9  -0.791053  -8.985032   0.343486   0.000265   0.464561   0.000571
 206   9   0.628491  -8.596685   0.897114  -0.000004   0.464561  -0.000009
 207   9   1.607854  -6.917720   2.351987   0.000571   0.371649   0.001536
 208   9   1.135596  -5.540790   3.220839   0.000309   0.232280   0.001332
 209   9   1.520922  -4.795128   2.939706  -0.000071   0.185824  -0.000384
 210   9  -0.422029  -8.869241  -0.906489  -0.000019   0.371649  -0.000052
 211   9   0.548992  -8.353613  -1.615569   0.000023   0.418105   0.000055
 212   9   1.538121  -7.929362  -1.187174   0.000021   0.464561   0.000045
 213   9   1.627642  -8.099346   0.174097  -0.000227   0.371649  -0.000610
 214   9   0.162182  -5.103457  -3.648819  -0.000009   0.232280  -0.000039
 215   9   1.686564  -5.249126  -2.832196   0.000143   0.232280   0.000617
 216   9  -0.267527  -8.733570   1.283553  -0.000149   0.278737  -0.000535
 217   9  -3.583416  -7.775092   0.321219   0.000438   0.278737   0.001572
 218   9  -0.342174  -4.740537   3.718681  -0.000297   0.185824  -0.001599
 219   9   0.968983  -6.593199   3.035837   0.000475   0.278737   0.001703
 220   9   0.562951  -8.725066  -0.326704  -0.000153   0.418105  -0.000367
 221   9   1.735220  -5.711520   2.745126   0.000352   0.232280   0.001516
 222  10   4.977506  -3.392248   0.050499  -0.004851   0.431809  -0.011234
 223  10   4.362434  -3.038931   1.702862  -0.002820   0.314043  -0.008979
 224  10   5.527033  -2.197779   0.495268  -0.002515   0.274788  -0.009154
 225  10   5.031600  -2.389397  -1.457659  -0.001182   0.215905  -0.005477
 226  10   5.091030  -2.693802   1.186353  -0.003137   0.412182  -0.007610
 227  10   5.447500  -2.450004  -0.562856  -0.003647   0.412182  -0.008848
 228  10   4.530226  -3.139936  -1.482018  -0.004028   0.431809  -0.009327
 229  11  -6.424053   2.298938  -0.277192  -0.004451   0.451437  -0.009860
 230  11  -5.776675   3.047260  -1.327390  -0.002405   0.372926  -0.006450
 231  11  -5.756259   3.542689   0.732079  -0.001863   0.274788  -0.006781
 232  11  -5.694588   2.095737   1.778391  -0.002319   0.333671  -0.006949
 233  11  -5.925544   3.489558  -0.276571  -0.003848   0.451437  -0.008523
 234  11  -5.914172   2.900322   1.243410  -0.002279   0.314043  -0.007258
 235  11  -6.325450   1.987433   0.801933  -0.003389   0.353299  -0.009593
 236  11  -5.918880   1.981266  -1.538151  -0.003727   0.471065  -0.007911
 237  12   7.723566   2.508328  -0.056185  -0.005807   0.608459  -0.009543
 238  12   6.976911   3.514736   1.338325  -0.002542   0.412182  -0.006166
 239  12   6.873937   4.096014  -0.669910  -0.002519   0.353299  -0.007129
 240  12   6.977849   2.311947  -1.767330  -0.001906   0.353299  -0.005395
 241  12   7.032971   0.687701  -0.380321  -0.002629   0.333671  -0.007878
 242  12   6.947254   1.308905   1.458998  -0.001717   0.333671  -0.005145
 243  12   7.172664   3.883811   0.308607  -0.003925   0.490692  -0.007998
 244  12   7.198800   3.210673  -1.263355  -0.003511   0.490692  -0.007155
 245  12   7.267879   1.461925  -1.117644  -0.003673   0.510320  -0.007198
 246  12   7.359598   1.158925   0.489837  -0.003937   0.490692  -0.008023
 247  12   7.255083   2.434233   1.448272  -0.004000   0.549575  -0.007279
 248  13  -3.134958   8.194667   0.056260  -0.005806   0.608459  -0.009542
 249  13  -1.882507   8.154491  -1.338287  -0.002586   0.412182  -0.006273
 250  13  -1.346078   8.401041   0.669934  -0.002421   0.353299  -0.006852
 251  13  -2.871410   7.469925   1.767391  -0.001978   0.353299  -0.005597
 252  13  -4.237673   6.589795   0.380415  -0.002573   0.333671  -0.007712
 253  13  -3.678379   6.873309  -1.458919  -0.001759   0.333671  -0.005272
 254  13  -1.690702   8.525639  -0.308572  -0.003963   0.490692  -0.008077
 255  13  -2.258737   8.163573   1.263404  -0.003568   0.490692  -0.007271
 256  13  -3.735232   7.223964   1.117728  -0.003717   0.510320  -0.007284
 257  13  -4.036545   7.126714  -0.489745  -0.003848   0.490692  -0.007842
 258  13  -2.928967   7.767460  -1.448206  -0.004070   0.549575  -0.007406
 259  14   3.889364   8.489315  -0.056177  -0.005998   0.608459  -0.009858
 260  14   2.644530   8.345507   1.338354  -0.002717   0.412182  -0.006592
 261  14   2.089544   8.546804  -0.669871  -0.002504   0.353299  -0.007087
 262  14   3.686777   7.745258  -1.767321  -0.002135   0.353299  -0.006044
 263  14   5.121236   6.981310  -0.380340  -0.002727   0.333671  -0.008173
 264  14   4.540357   7.217492   1.458991  -0.001909   0.333671  -0.005722
 265  14   2.422651   8.699507   0.308642  -0.004115   0.490692  -0.008385
 266  14   3.018744   8.385762  -1.263332  -0.003731   0.490692  -0.007604
 267  14   4.567998   7.571690  -1.117651  -0.003900   0.510320  -0.007643
 268  14   4.876312   7.499710   0.489825  -0.003998   0.490692  -0.008147
 269  14   3.719452   8.046491   1.448281  -0.004283   0.549575  -0.007793
 270  15  -2.009269  -7.407205   3.746896  -0.004378   0.510320  -0.008579
 271  15  -2.510997  -5.957532   3.869347  -0.002916   0.392554  -0.007429
 272  15  -0.658556  -6.399721   3.954390  -0.001668   0.333671  -0.004999
 273  15  -0.785973  -8.148733   3.018091  -0.002420   0.412182  -0.005872
 274  15  -2.782094  -8.296571   2.006931  -0.002175   0.412182  -0.005277
 275  15  -3.575883  -7.359931   2.311504  -0.002607   0.412182  -0.006325
 276  15  -1.574498  -5.957096   4.089745  -0.002524   0.412182  -0.006124
 277  15  -0.616879  -7.348102   3.656735  -0.002621   0.431809  -0.006069
 278  15  -1.665222  -8.535195   2.496012  -0.003055   0.490692  -0.006226
 279  15  -2.771855  -7.798395   3.049949  -0.002823   0.353299  -0.007991
 280  15  -3.250769  -6.607373   3.327019  -0.003534   0.431809  -0.008185
 281  16  -2.254147  -7.518118  -3.602605  -0.004957   0.569203  -0.008709
 282  16  -0.367930  -7.037007  -3.680917  -0.001803   0.372926  -0.004834
 283  16  -1.578633  -5.620404  -4.027383  -0.001780   0.294415  -0.006047
 284  16  -3.291482  -6.593937  -3.286306  -0.003177   0.412182  -0.007708
 285  16  -3.018911  -8.120764  -2.043373  -0.001947   0.372926  -0.005221
 286  16  -1.120062  -8.502990  -2.517085  -0.001921   0.372926  -0.005150
 287  16  -1.200740  -6.517260  -4.073008  -0.002773   0.431809  -0.006422
 288  16  -2.531616  -6.091841  -3.872639  -0.003145   0.412182  -0.007630
 289  16  -3.520833  -7.328716  -2.505903  -0.003206   0.451437  -0.007102
 290  16  -2.154900  -8.480728  -2.395566  -0.003074   0.471065  -0.006525
 291  16  -0.869796  -7.909101  -3.336313  -0.003289   0.490692  -0.006704
 292  17   3.550123  -6.023762  -0.071551  -0.003057   0.333671  -0.009163
 293  17   2.832276  -5.453522  -1.843625  -0.001356   0.215905  -0.006281
 294  17   2.932109  -6.809997  -0.806191  -0.002015   0.372926  -0.005404
 295  17   2.882852  -6.532429   1.269045  -0.001315   0.255160  -0.005153
 296  17   2.862257  -5.569381   1.799826  -0.001587   0.294415  -0.005390
 297  17   3.189608  -5.982829  -1.271014  -0.002573   0.372926  -0.006899
 298  17   2.948129  -6.958849   0.325138  -0.001875   0.333671  -0.005619
 299  17   3.386179  -5.879392   0.973050  -0.002226   0.255160  -0.008726
 300   1  -4.048472  -0.916077   2.906026   0.000674   0.093168   0.007237
 301   4  -3.624480  -0.068863   2.944609   0.000214   0.093168   0.002292
 302   5  -3.664244  -0.886630   3.009119   0.000193   0.093168   0.002067
 303   1  -4.048605  -0.916083  -2.905964   0.000947   0.093168   0.010164
 304   4  -3.624615  -0.068868  -2.944568   0.000219   0.093168   0.002352
 305   5  -3.664382  -0.886636  -3.009075   0.000230   0.093168   0.002465
 306   1  -5.269839   0.084472  -2.089197   0.001203   0.079168   0.015197
 307   4  -4.938106   0.963304  -2.211751  -0.000051   0.079168  -0.000645
 308  11  -5.170345   1.000889  -2.027019  -0.000211   0.079168  -0.002663
 309   1  -5.269775   0.084492   2.089278   0.001424   0.079168   0.017992
 310   4  -4.938039   0.963325   2.211813  -0.000084   0.079168  -0.001059
 311  11  -5.170284   1.000908   2.027088  -0.000195   0.079168  -0.002467
 312   4  -4.193819   0.567544  -2.846938   0.000995   0.496249   0.002005
 313   1  -4.984766  -0.545373  -2.582674   0.005028   0.445952   0.011276
 314   4  -4.428194   0.686637   2.711611   0.000965   0.496266   0.001945
 315   1  -4.743601  -0.667777   2.721931   0.004626   0.445968   0.010374
 316   1  -4.006553  -4.192817   2.948125   0.000494   0.070750   0.006987
 317   5  -3.633110  -4.252492   3.069575  -0.000054   0.070750  -0.000763
 318  15  -3.351295  -4.930726   3.119847  -0.000408   0.070750  -0.005770
 319   1  -4.006664  -4.192833  -2.948057   0.000390   0.070746   0.005508
 320   5  -3.633228  -4.252511  -3.069528  -0.000021   0.070746  -0.000290
 321  16  -3.351365  -4.930719  -3.119834  -0.000403   0.070746  -0.005692
 322   5  -3.737384  -1.791500   3.255283   0.000585   0.187804   0.003117
 323   5  -3.786394  -3.410499   3.248483   0.000603   0.187804   0.003211
 324   1  -4.314613  -2.583524   3.074893   0.003348   0.387698   0.008635
 325   5  -3.786544  -3.410526  -3.248422   0.000732   0.187805   0.003895
 326   5  -3.737533  -1.791512  -3.255234   0.000791   0.187805   0.004214
 327   1  -4.314754  -2.583542  -3.074812   0.003325   0.387703   0.008576
 328   1  -4.715732  -5.805901   1.244279   0.000804   0.055682   0.014440
 329   9  -4.194099  -6.402363   1.303977   0.000007   0.055682   0.000123
 330  15  -4.064765  -6.497143   1.561764  -0.000218   0.055682  -0.003907
 331   1  -4.715645  -5.805753  -1.244630   0.000926   0.055678   0.016639
 332   9  -4.194011  -6.402209  -1.304371   0.000007   0.055678   0.000127
 333  16  -4.064651  -6.496980  -1.562152  -0.000205   0.055678  -0.003689
 334   9  -4.408822  -6.492417   0.724139   0.000864   0.331629   0.002605
 335   9  -4.408776  -6.492325  -0.724565   0.000917   0.331629   0.002764
 336   1  -5.201976  -5.664036  -0.000186   0.009961   0.610266   0.016322
 337  11  -5.589426   1.056323  -1.825764  -0.000272   0.224736  -0.001210
 338  11  -6.241730   1.103109  -0.759701  -0.001482   0.452966  -0.003272
 339  11  -6.241707   1.103116   0.759801  -0.001475   0.452966  -0.003257
 340  11  -5.589370   1.056341   1.825844  -0.000247   0.224736  -0.001097
 341   1  -6.139005  -0.221958  -1.574372   0.007813   0.549449   0.014219
 342   1  -6.688921  -0.182512   0.000063   0.008214   0.549449   0.014950
 343   1  -6.138957  -0.221943   1.574481   0.007724   0.549449   0.014057
 344  15  -3.478782  -5.487937   3.185540  -0.000796   0.231723  -0.003437
 345  15  -3.950171  -6.225542   2.357378  -0.001540   0.466007  -0.003305
 346   1  -4.656354  -4.758668   2.573086   0.004923   0.571549   0.008614
 347   1  -5.092174  -5.532128   1.604170   0.003057   0.287837   0.010620
 348  16  -4.077016  -6.486406  -1.996169  -0.000413   0.231676  -0.001782
 349  16  -3.682943  -5.779552  -2.888695  -0.001854   0.465912  -0.003978
 350   1  -4.950152  -5.248994  -1.988985   0.005634   0.571436   0.009859
 351   1  -4.441952  -4.446838  -2.897039   0.002070   0.287780   0.007192
 352   2   0.195567   1.320592  -3.386237   0.000463   0.049485   0.009352
 353   3   0.647960   1.333791  -3.350449   0.000339   0.049485   0.006844
 354   4  -0.050892   1.703029  -3.350257   0.000343   0.049485   0.006927
 355   2   0.195520   1.320586   3.386226   0.000378   0.049485   0.007632
 356   3   0.647914   1.333786   3.350445   0.000323   0.049485   0.006533
 357   4  -0.050939   1.703023   3.350244   0.000312   0.049485   0.006303
 358   2   0.332889  -1.843261   3.284741  -0.000162   0.049596  -0.003257
 359   3   0.783347  -1.804609   3.244950  -0.000011   0.049596  -0.000230
 360   5   0.067030  -2.255349   3.241717  -0.000465   0.049596  -0.009374
 361   2   0.332936  -1.843286  -3.284739  -0.000145   0.049596  -0.002914
 362   3   0.783393  -1.804634  -3.244942  -0.000006   0.049596  -0.000115
 363   5   0.067076  -2.255374  -3.241715  -0.000455   0.049596  -0.009170
 364   3   1.001602   0.623433   3.555515   0.001277   0.220627   0.005789
 365   3   1.091278  -1.075433   3.498226   0.000800   0.220627   0.003626
 366   2   0.396858  -0.258379   3.470240   0.002303   0.455673   0.005055
 367   3   1.091328  -1.075453  -3.498219   0.000715   0.220630   0.003242
 368   3   1.001652   0.623432  -3.555515   0.001175   0.220630   0.005326
 369   2   0.396907  -0.258389  -3.470244   0.002226   0.455679   0.004886
 370   2  -2.361069  -0.250969  -3.360109   0.000028   0.054259   0.000523
 371   4  -2.588705   0.143006  -3.323097   0.000093   0.054259   0.001719
 372   5  -2.603211  -0.677997  -3.320010  -0.000191   0.054259  -0.003521
 373   2  -2.361090  -0.250960   3.360074   0.000017   0.054259   0.000311
 374   4  -2.588726   0.143015   3.323060   0.000113   0.054259   0.002074
 375   5  -2.603233  -0.677988   3.319974  -0.000189   0.054259  -0.003481
 376   4  -0.802229   1.614259  -3.555968   0.001317   0.206629   0.006376
 377   4  -2.159777   0.783976  -3.544094   0.000849   0.206629   0.004111
 378   2  -1.139564   0.641555  -3.500752   0.002267   0.423356   0.005355
 379   4  -2.159806   0.783982   3.544058   0.000760   0.206626   0.003676
 380   4  -0.802273   1.614257   3.555944   0.001075   0.206626   0.005203
 381   2  -1.139600   0.641557   3.500727   0.002083   0.423350   0.004921
 382   5  -0.708519  -2.201494   3.492564  -0.001672   0.237061  -0.007052
 383   5  -2.155533  -1.333032   3.537960  -0.001006   0.237061  -0.004242
 384   2  -1.070430  -1.161855   3.459316  -0.001881   0.486873  -0.003864
 385   5  -2.155504  -1.333046  -3.537991  -0.001093   0.237064  -0.004610
 386   5  -0.708475  -2.201517  -3.492575  -0.001577   0.237064  -0.006654
 387   2  -1.070394  -1.161873  -3.459334  -0.001874   0.486879  -0.003850
 388   3   0.996667   1.580089   3.312910   0.000512   0.102965   0.004973
 389   4   0.295454   1.941945   3.254539   0.000392   0.102965   0.003805
 390   6   1.210993   1.982320   3.293998   0.000561   0.102965   0.005452
 391   3   0.996695   1.580061  -3.312919   0.000493   0.102965   0.004792
 392   4   0.295481   1.941917  -3.254558   0.000405   0.102965   0.003933
 393   6   1.211021   1.982292  -3.294010   0.000560   0.102965   0.005436
 394   4  -0.128213   1.918614   3.451510   0.000105   0.011426   0.009220
 395   3   0.872351   1.399557   3.449679   0.000070   0.011426   0.006123
 396   4  -0.124182   1.926157  -3.449691   0.000118   0.011415   0.010372
 397   3   0.868397   1.391989  -3.451521   0.000071   0.011415   0.006228
 398   3   0.773830  -2.264877  -3.110498  -0.000608   0.120923  -0.005024
 399   5   0.068574  -2.728093  -3.187444  -0.001281   0.120923  -0.010594
 400   9   0.277105  -3.180090  -3.155419  -0.001172   0.120923  -0.009689
 401   3   0.773812  -2.264895   3.110490  -0.000611   0.120923  -0.005053
 402   5   0.068555  -2.728112   3.187430  -0.001323   0.120923  -0.010945
 403   9   0.277087  -3.180109   3.155403  -0.001175   0.120923  -0.009716
 404   5  -0.001643  -2.503831   3.349066   0.000018   0.014245   0.001244
 405   3   1.013644  -1.851601   3.351942   0.000060   0.014245   0.004199
 406   5  -0.006832  -2.495557  -3.351941   0.000017   0.014230   0.001192
 407   3   1.018900  -1.859880  -3.349068   0.000058   0.014230   0.004106
 408   3   5.618158  -0.966387   0.768285  -0.000170   0.010954  -0.015500
 409   6   5.790951  -0.548161   0.758654  -0.000149   0.010954  -0.013597
 410  10   5.566005  -1.249471   0.699106  -0.000170   0.010954  -0.015564
 411   3   5.618130  -0.966375  -0.768420  -0.000169   0.010954  -0.015452
 412   6   5.790923  -0.548149  -0.758789  -0.000153   0.010954  -0.013945
 413  10   5.565979  -1.249460  -0.699243  -0.000152   0.010954  -0.013914
 414   6   5.814735  -0.179056  -1.278569  -0.000705   0.192214  -0.003669
 415   6   4.710278   0.396002  -2.779273   0.000587   0.391744   0.001498
 416   6   2.711107   1.436916  -3.525025   0.002430   0.391744   0.006203
 417   3   5.127827  -0.553793  -1.886536  -0.001247   0.391744  -0.003182
 418   3   3.468032   0.310416  -3.347548   0.001656   0.391744   0.004227
 419   3   1.747795   1.206097  -3.550449   0.001075   0.192214   0.005594
 420   6   2.047783   1.782306   3.550448   0.001334   0.192220   0.006938
 421   6   3.768067   0.886599   3.347537   0.001854   0.391756   0.004733
 422   6   5.427877   0.022377   1.886450  -0.001047   0.391756  -0.002672
 423   3   2.411105   0.860743   3.525023   0.002329   0.391756   0.005944
 424   3   4.410321  -0.180197   2.779231   0.000341   0.391756   0.000869
 425   3   5.514770  -0.755258   1.278452  -0.000903   0.192220  -0.004700
 426   3   2.659356  -3.428314  -2.188246  -0.000815   0.088393  -0.009219
 427   9   2.207506  -4.362966  -2.257323  -0.000495   0.088393  -0.005595
 428  17   2.443189  -4.400856  -2.071372  -0.000751   0.088393  -0.008493
 429   3   2.659143  -3.428216   2.188471  -0.000813   0.088393  -0.009201
 430   9   2.207285  -4.362865   2.257545  -0.000496   0.088393  -0.005607
 431  17   2.442987  -4.400763   2.071619  -0.000761   0.088393  -0.008610
 432   9   1.869270  -4.182151   2.722440  -0.000663   0.373483  -0.001775
 433   9   0.802896  -3.594935   3.230484  -0.001052   0.373483  -0.002817
 434   3   2.040018  -2.579126   2.940534  -0.001170   0.746794  -0.001567
 435   9   0.802972  -3.594947  -3.230473  -0.001111   0.373541  -0.002973
 436   9   1.869479  -4.182241  -2.722286  -0.000671   0.373541  -0.001796
 437   3   2.040154  -2.579174  -2.940429  -0.001192   0.746911  -0.001596
 438   3   3.076566  -3.096736   2.160949  -0.000647   0.073081  -0.008858
 439  10   3.242880  -3.274141   1.987723  -0.000695   0.073081  -0.009512
 440  17   2.779862  -4.022579   1.912504  -0.000860   0.073081  -0.011761
 441   3   3.076384  -3.096771  -2.160974  -0.000645   0.073081  -0.008824
 442  10   3.242713  -3.274173  -1.987760  -0.000795   0.073081  -0.010872
 443  17   2.779701  -4.022610  -1.912489  -0.000846   0.073081  -0.011583
 444  10   5.422834  -1.671459   0.953597  -0.000653   0.073787  -0.008853
 445  10   4.695628  -2.164158   1.781404  -0.001338   0.168000  -0.007965
 446  10   3.737623  -2.813215   2.124620  -0.000618   0.073787  -0.008378
 447   3   5.140713  -1.470150   1.464309  -0.001377   0.157800  -0.008725
 448   3   3.971099  -2.262580   2.277052  -0.001091   0.157800  -0.006916
 449  10   3.737453  -2.813243  -2.124704  -0.000577   0.073790  -0.007822
 450  10   4.695517  -2.164161  -1.781545  -0.001435   0.168008  -0.008542
 451  10   5.422793  -1.671449  -0.953744  -0.000624   0.073790  -0.008459
 452   3   3.970933  -2.262601  -2.277152  -0.001103   0.157805  -0.006989
 453   3   5.140634  -1.470143  -1.464453  -0.001352   0.157805  -0.008568
 454  17   2.625034  -4.481779  -2.067344   0.000033   0.007846   0.004237
 455   3   3.050469  -3.102760  -2.395173   0.000029   0.011150   0.002598
 456  17   2.630081  -4.482503   2.064342   0.000006   0.007970   0.000707
 457   3   3.045742  -3.101954   2.398218   0.000032   0.011327   0.002829
 458   5  -3.062546  -0.854390   3.330565  -0.000125   0.219283  -0.000571
 459   4  -3.193745   0.318961   3.279310   0.000402   0.219283   0.001832
 460   5  -3.215640  -0.851545  -3.279304   0.000017   0.219333   0.000078
 461   4  -3.040774   0.316101  -3.330573   0.000402   0.219333   0.001832
 462   4   0.053171   2.348634  -3.294394   0.000552   0.102302   0.005391
 463   6   0.968671   2.389068  -3.254679   0.000425   0.102302   0.004154
 464   7   0.266060   2.748328  -3.313285   0.000606   0.102302   0.005925
 465   4   0.053142   2.348679   3.294369   0.000517   0.102302   0.005052
 466   6   0.968643   2.389113   3.254661   0.000427   0.102302   0.004176
 467   7   0.266031   2.748373   3.313256   0.000591   0.102302   0.005778
 468   4  -4.836469   4.495660  -0.450854  -0.000092   0.006308  -0.014619
 469   7  -4.593454   4.873988  -0.445164  -0.000102   0.006308  -0.016230
 470  11  -5.032965   4.278135  -0.410181  -0.000112   0.006308  -0.017679
 471   4  -4.836455   4.495657   0.450921  -0.000090   0.006308  -0.014233
 472   7  -4.593441   4.873985   0.445226  -0.000104   0.006308  -0.016438
 473  11  -5.032953   4.278132   0.410252  -0.000095   0.006308  -0.014989
 474   7  -0.510134   3.133744  -3.551296   0.001453   0.201393   0.007214
 475   7  -2.310623   4.070643  -3.288140   0.002050   0.412377   0.004972
 476   7  -3.970478   4.934369  -1.653978  -0.001290   0.412377  -0.003128
 477   4  -1.505516   2.924042  -3.507987   0.002662   0.412377   0.006456
 478   4  -3.571133   3.998906  -2.642237   0.000395   0.412377   0.000957
 479   4  -4.634694   4.552345  -0.983523  -0.000813   0.201393  -0.004035
 480   7  -4.336707   5.124951   0.983569  -0.000749   0.201388  -0.003718
 481   7  -3.273136   4.571522   2.642224   0.000609   0.412366   0.001478
 482   7  -1.207557   3.496685   3.507947   0.002714   0.412366   0.006583
 483   4  -4.268409   4.361759   1.654000  -0.001448   0.412366  -0.003511
 484   4  -2.608564   3.498053   3.288104   0.001763   0.412366   0.004275
 485   4  -0.808115   2.561177   3.551257   0.001144   0.201388   0.005682
 486  11  -5.207454   1.686288   2.119992  -0.000431   0.066453  -0.006480
 487  11  -5.248290   2.759511   1.905827  -0.000850   0.147639  -0.005757
 488  11  -5.285771   3.744295   1.020811  -0.001124   0.147639  -0.007610
 489   4  -4.899721   2.142178   2.323606  -0.000730   0.145461  -0.005018
 490   4  -4.951686   3.507753   1.734656  -0.000890   0.145461  -0.006117
 491   4  -4.979194   4.230345   0.766072  -0.000561   0.081187  -0.006915
 492  11  -5.294315   3.968184  -0.658413  -0.000488   0.066454  -0.007340
 493  11  -5.269833   3.324355  -1.543992  -0.001051   0.147640  -0.007120
 494  11  -5.223594   2.108820  -2.068229  -0.000866   0.147640  -0.005867
 495   4  -4.969680   3.979535  -1.146757  -0.001058   0.145462  -0.007271
 496   4  -4.927602   2.873173  -2.141035  -0.000745   0.145462  -0.005120
 497   4  -4.882652   1.691618  -2.392007  -0.000307   0.081188  -0.003776
 498   5  -1.691559  -4.016837   3.611400  -0.000447   0.029918  -0.014937
 499   9  -1.476848  -4.461066   3.651914  -0.000327   0.029918  -0.010929
 500  15  -1.583726  -4.739459   3.704756  -0.000255   0.029918  -0.008525
 501   5  -1.691177  -4.016638  -3.611462  -0.000471   0.029919  -0.015731
 502   9  -1.476461  -4.460865  -3.651977  -0.000321   0.029919  -0.010738
 503  16  -1.583343  -4.739255  -3.704846  -0.000258   0.029919  -0.008630
 504   9  -0.519574  -3.878532   3.482444  -0.001860   0.286997  -0.006482
 505   5  -1.132400  -3.386793   3.547999  -0.002519   0.286997  -0.008778
 506   9  -0.823148  -4.025387  -3.548036  -0.001809   0.286929  -0.006306
 507   5  -0.828413  -3.239715  -3.482475  -0.002524   0.286929  -0.008797
 508  15  -1.940861  -4.961971   3.750779  -0.001151   0.168603  -0.006825
 509  15  -2.841406  -5.223369   3.492651  -0.001174   0.168603  -0.006964
 510   5  -2.657179  -4.051196   3.495215  -0.002560   0.464777  -0.005508
 511  16  -2.841392  -5.223304  -3.492709  -0.001220   0.168656  -0.007231
 512  16  -1.940572  -4.961787  -3.750892  -0.001141   0.168656  -0.006768
 513   5  -2.657051  -4.051098  -3.495239  -0.002446   0.464918  -0.005260
 514   6   1.295556   2.589542   3.342488   0.000382   0.048070   0.007945
 515   7   0.595329   2.956332   3.342333   0.000353   0.048070   0.007348
 516   8   1.046865   2.964296   3.378442   0.000402   0.048070   0.008354
 517   6   1.295701   2.589717  -3.342553   0.000369   0.048070   0.007682
 518   7   0.595474   2.956508  -3.342409   0.000358   0.048070   0.007441
 519   8   1.047012   2.964473  -3.378497   0.000390   0.048070   0.008119
 520   6   5.896538   4.936176   0.415708  -0.000091   0.005829  -0.015602
 521   8   5.622941   5.293875   0.410434  -0.000103   0.005829  -0.017626
 522  12   6.110676   4.733745   0.378185  -0.000106   0.005829  -0.018247
 523   6   5.896557   4.936199  -0.415443  -0.000104   0.005829  -0.017915
 524   8   5.622959   5.293897  -0.410162  -0.000107   0.005829  -0.018309
 525  12   6.110693   4.733765  -0.377921  -0.000107   0.005829  -0.018400
 526   8   5.349921   5.526550  -0.950249  -0.000857   0.202740  -0.004226
 527   8   4.340858   4.892133  -2.625796   0.000301   0.415305   0.000725
 528   8   2.364263   3.649381  -3.505760   0.002509   0.415305   0.006040
 529   6   5.347290   4.761271  -1.627304  -0.001516   0.415305  -0.003650
 530   6   3.765175   3.766554  -3.280529   0.001795   0.415305   0.004322
 531   6   2.039601   2.681620  -3.551573   0.001244   0.202740   0.006136
 532   8   1.695347   3.228718   3.551552   0.001349   0.202740   0.006652
 533   8   3.420932   4.313665   3.280642   0.001756   0.415305   0.004227
 534   8   5.003118   5.308469   1.627542  -0.001557   0.415305  -0.003749
 535   6   2.708209   3.101911   3.505791   0.002806   0.415305   0.006757
 536   6   4.684841   4.344710   2.625980   0.000342   0.415305   0.000823
 537   6   5.693978   4.979215   0.950513  -0.000860   0.202740  -0.004244
 538   6   6.034262  -0.244143  -0.498664  -0.000205   0.018165  -0.011285
 539  10   5.715960  -0.906647  -0.438991  -0.000256   0.018165  -0.014072
 540  12   6.221013  -0.019318  -0.447612  -0.000252   0.018165  -0.013855
 541   6   6.034238  -0.244150   0.498762  -0.000209   0.018165  -0.011525
 542  10   5.715939  -0.906653   0.439066  -0.000280   0.018165  -0.015389
 543  12   6.220992  -0.019324   0.447723  -0.000214   0.018165  -0.011803
 544  10   5.602495  -1.431385  -0.595524  -0.000349   0.044565  -0.007821
 545   6   6.008949  -0.408093  -0.641222  -0.000195   0.062923  -0.003104
 546  10   5.613067  -1.431595   0.550552  -0.000415   0.044521  -0.009324
 547   6   5.999326  -0.407919   0.682117  -0.000218   0.062861  -0.003475
 548  12   6.561812   0.406642  -0.741253  -0.000581   0.070498  -0.008239
 549  12   6.532009   1.138059  -1.632484  -0.001031   0.158441  -0.006510
 550  12   6.478184   2.458373  -2.067836  -0.000983   0.158441  -0.006201
 551  12   6.425279   3.755577  -1.567715  -0.001067   0.158441  -0.006735
 552  12   6.397264   4.442093  -0.641399  -0.000504   0.070498  -0.007153
 553   6   6.233789   0.435655  -1.246758  -0.001107   0.152640  -0.007252
 554   6   6.183574   1.667708  -2.206205  -0.000729   0.152640  -0.004779
 555   6   6.119940   3.228310  -2.167589  -0.000684   0.152640  -0.004478
 556   6   6.071672   4.411482  -1.148378  -0.001099   0.152640  -0.007199
 557  12   6.397235   4.442061   0.641656  -0.000518   0.070497  -0.007345
 558  12   6.425207   3.755511   1.567929  -0.001096   0.158438  -0.006919
 559  12   6.478089   2.458304   2.067996  -0.000854   0.158438  -0.005391
 560  12   6.531934   1.138018   1.632614  -0.001052   0.158438  -0.006642
 561  12   6.561777   0.406629   0.741382  -0.000529   0.070497  -0.007508
 562   6   6.071620   4.411429   1.148615  -0.001113   0.152638  -0.007293
 563   6   6.119841   3.228227   2.167764  -0.000689   0.152638  -0.004515
 564   6   6.183473   1.667644   2.206330  -0.000702   0.152638  -0.004601
 565   6   6.233731   0.435629   1.246867  -0.001187   0.152638  -0.007776
 566   8   0.896850   3.654350  -3.551306   0.001195   0.206035   0.005799
 567   8   0.809946   5.711346  -3.263718   0.001400   0.422460   0.003315
 568   8   0.731212   7.574201  -1.567503  -0.001846   0.422460  -0.004370
 569   7   0.214600   4.425118  -3.500419   0.002675   0.422460   0.006331
 570   7   0.115385   6.773213  -2.589277  -0.000006   0.422460  -0.000014
 571   7   0.065690   7.948642  -0.875395  -0.000927   0.206035  -0.004502
 572   8   0.714182   7.976012   0.875493  -0.000928   0.206037  -0.004502
 573   8   0.763801   6.800509   2.589357  -0.000128   0.422466  -0.000303
 574   8   0.862978   4.452348   3.500414   0.002484   0.422466   0.005881
 575   7   0.082612   7.546748   1.567596  -0.001758   0.422466  -0.004162
 576   7   0.161273   5.683808   3.263764   0.001559   0.422466   0.003691
 577   7   0.248165   3.626773   3.551266   0.001253   0.206037   0.006080
 578   7  -4.457441   5.213403   0.331389  -0.000149   0.012133  -0.012260
 579  11  -4.811462   4.565163   0.291524  -0.000160   0.012133  -0.013185
 580  13  -4.375389   5.496703   0.297313  -0.000179   0.012133  -0.014755
 581   7  -4.457447   5.213399  -0.331395  -0.000147   0.012133  -0.012136
 582  11  -4.811468   4.565160  -0.291516  -0.000163   0.012133  -0.013427
 583  13  -4.375394   5.496700  -0.297324  -0.000146   0.012133  -0.011994
 584  11  -5.192862   4.186740   0.363796  -0.000172   0.018085  -0.009498
 585   7  -4.591425   5.112606   0.400970  -0.000076   0.025531  -0.002963
 586  11  -5.194445   4.188865  -0.345260  -0.000165   0.018073  -0.009149
 587   7  -4.590001   5.110670  -0.417777  -0.000082   0.025514  -0.003216
 588  13  -0.762858   8.221794  -0.553453  -0.000535   0.065328  -0.008184
 589  13  -1.251269   7.911851  -1.457047  -0.000990   0.144346  -0.006860
 590  13  -2.224502   7.294241  -2.056103  -0.000763   0.144346  -0.005289
 591  13  -3.308214   6.606522  -1.855843  -0.000837   0.144346  -0.005798
 592  13  -4.081102   6.116051  -0.934118  -0.001113   0.144346  -0.007707
 593   7  -0.560010   7.963110  -1.033924  -0.001040   0.143788  -0.007232
 594   7  -1.421890   7.416164  -2.077275  -0.000664   0.143788  -0.004618
 595   7  -2.638135   6.644340  -2.313078  -0.000592   0.143788  -0.004120
 596   7  -3.735919   5.947691  -1.649662  -0.000819   0.143788  -0.005695
 597   7  -4.291345   5.595221  -0.664929  -0.000598   0.079812  -0.007493
 598  13  -4.250960   6.008260   0.568880  -0.000542   0.065326  -0.008292
 599  13  -3.756860   6.321814   1.468094  -0.000910   0.144341  -0.006307
 600  13  -2.779895   6.941792   2.058502  -0.000862   0.144341  -0.005975
 601  13  -1.697499   7.628676   1.848676  -0.000800   0.144341  -0.005541
 602  13  -0.930444   8.115445   0.920183  -0.001078   0.144341  -0.007468
 603   7  -4.100239   5.716496   1.049574  -0.000975   0.143785  -0.006778
 604   7  -3.231808   6.267599   2.085232  -0.000647   0.143785  -0.004501
 605   7  -2.014137   7.040328   2.310264  -0.000621   0.143785  -0.004322
 606   7  -0.920584   7.734292   1.637192  -0.000854   0.143785  -0.005938
 607   7  -0.371372   8.082819   0.647616  -0.000492   0.079810  -0.006162
 608   8   5.458630   5.621022  -0.293342  -0.000147   0.010793  -0.013599
 609  12   5.864817   5.001273  -0.257950  -0.000160   0.010793  -0.014867
 610  14   5.352686   5.897092  -0.263121  -0.000178   0.010793  -0.016457
 611   8   5.458622   5.621014   0.293537  -0.000146   0.010793  -0.013482
 612  12   5.864810   5.001266   0.258140  -0.000156   0.010793  -0.014410
 613  14   5.352678   5.897084   0.263321  -0.000146   0.010793  -0.013489
 614  12   6.278141   4.655190  -0.330786  -0.000152   0.019045  -0.007974
 615   8   5.601677   5.531892  -0.361891  -0.000093   0.026882  -0.003463
 616  12   6.279459   4.657313   0.311554  -0.000171   0.019061  -0.008951
 617   8   5.600451   5.529931   0.379854  -0.000098   0.026904  -0.003659
 618   8   0.725821   8.099391   0.294043  -0.000158   0.010866  -0.014502
 619  13  -0.017864   8.081192   0.258482  -0.000174   0.010866  -0.015973
 620  14   1.013114   8.169345   0.263746  -0.000178   0.010866  -0.016352
 621   8   0.725833   8.099397  -0.293955  -0.000154   0.010866  -0.014147
 622  13  -0.017853   8.081198  -0.258424  -0.000186   0.010866  -0.017145
 623  14   1.013125   8.169351  -0.263644  -0.000144   0.010866  -0.013226
 624   8   0.572878   8.171203   0.328741  -0.000042   0.005779  -0.007334
 625   8   0.572719   8.170810  -0.332446  -0.000044   0.005773  -0.007599
 626  14   5.190124   6.396943  -0.535944  -0.000587   0.066037  -0.008883
 627  14   4.677634   6.665426  -1.451011  -0.001029   0.146161  -0.007039
 628  14   3.648169   7.204714  -2.056196  -0.000998   0.146161  -0.006830
 629  14   2.502273   7.804977  -1.847668  -0.000926   0.146161  -0.006337
 630  14   1.693397   8.228679  -0.907947  -0.001171   0.146161  -0.008010
 631   8   5.067926   6.091062  -1.019497  -0.001087   0.145112  -0.007489
 632   8   4.159412   6.567001  -2.075658  -0.000806   0.145112  -0.005555
 633   8   2.871989   7.241410  -2.310408  -0.000758   0.145112  -0.005220
 634   8   1.715116   7.847413  -1.630851  -0.000969   0.145112  -0.006679
 635   8   1.138333   8.149534  -0.628863  -0.000500   0.080678  -0.006203
 636  14   1.517894   8.320583   0.536721  -0.000558   0.066037  -0.008454
 637  14   2.030620   8.051977   1.451625  -0.001098   0.146162  -0.007516
 638  14   3.060245   7.512605   2.056474  -0.000914   0.146162  -0.006257
 639  14   4.206092   6.912368   1.847565  -0.000975   0.146162  -0.006671
 640  14   5.014724   6.488794   0.907568  -0.001214   0.146162  -0.008308
 641   8   1.336121   8.045889   1.020272  -0.001121   0.145113  -0.007722
 642   8   2.244910   7.569806   2.076141  -0.000813   0.145113  -0.005602
 643   8   3.532399   6.895362   2.310467  -0.000768   0.145113  -0.005292
 644   8   4.689099   6.289450   1.630521  -0.000952   0.145113  -0.006560
 645   8   5.265620   5.987466   0.628334  -0.000662   0.080679  -0.008211
 646  15  -3.785887  -7.118549   1.636620  -0.000412   0.069826  -0.005905
 647  15  -3.116083  -7.985177   1.379634  -0.000774   0.155403  -0.004979
 648  15  -1.907587  -8.595799   1.501421  -0.000927   0.155403  -0.005966
 649  15  -0.689800  -8.454520   2.088946  -0.000973   0.155403  -0.006259
 650  15   0.021771  -7.621146   2.893499  -0.000850   0.155403  -0.005469
 651  15  -0.074093  -6.448458   3.574502  -0.000825   0.155403  -0.005307
 652  15  -0.936812  -5.432873   3.843674  -0.001033   0.155403  -0.006646
 653   9  -3.645007  -7.383075   1.115744  -0.000674   0.152709  -0.004411
 654   9  -2.518809  -8.401492   0.953170  -0.000571   0.152709  -0.003738
 655   9  -1.077723  -8.680257   1.374465  -0.000734   0.152709  -0.004806
 656   9   0.068215  -8.101364   2.201286  -0.000762   0.152709  -0.004988
 657   9   0.433912  -6.909868   3.083629  -0.000610   0.152709  -0.003995
 658   9  -0.135436  -5.610148   3.647983  -0.000749   0.152709  -0.004903
 659   9  -1.081238  -4.812060   3.749378  -0.000497   0.085308  -0.005821
 660  16  -1.290446  -5.175125  -3.856403  -0.000389   0.069827  -0.005574
 661  16  -0.425692  -5.889932  -3.772821  -0.000866   0.155405  -0.005570
 662  16   0.081089  -7.047049  -3.270408  -0.000872   0.155405  -0.005608
 663  16  -0.244584  -8.107809  -2.484985  -0.000922   0.155405  -0.005936
 664  16  -1.264847  -8.623176  -1.749033  -0.000922   0.155405  -0.005933
 665  16  -2.547807  -8.374987  -1.374094  -0.000768   0.155405  -0.004943
 666  16  -3.550367  -7.468304  -1.518884  -0.000915   0.155405  -0.005887
 667   9  -0.708768  -5.096360  -3.727621  -0.000905   0.152711  -0.005929
 668   9   0.260250  -6.237193  -3.425221  -0.000592   0.152711  -0.003874
 669   9   0.367819  -7.554496  -2.660313  -0.000678   0.152711  -0.004442
 670   9  -0.431597  -8.490633  -1.756696  -0.000783   0.152711  -0.005126
 671   9  -1.799591  -8.649323  -1.096885  -0.000655   0.152711  -0.004289
 672   9  -3.157070  -7.963389  -0.960189  -0.000581   0.152711  -0.003802
 673   9  -3.907642  -7.013253  -1.235253  -0.000295   0.085308  -0.003459
 674  17   2.423805  -5.120202   2.140612  -0.000466   0.066179  -0.007049
 675  17   2.413935  -6.168005   1.874942  -0.000771   0.146318  -0.005266
 676  17   2.405149  -7.104194   0.960771  -0.000947   0.146318  -0.006471
 677  17   2.403253  -7.311987  -0.331148  -0.000994   0.146318  -0.006792
 678  17   2.408991  -6.709674  -1.492794  -0.000816   0.146318  -0.005579
 679  17   2.420107  -5.534102  -2.067374  -0.000909   0.146318  -0.006210
 680   9   2.090125  -5.565775   2.323184  -0.000687   0.145597  -0.004719
 681   9   2.077698  -6.886668   1.677648  -0.000671   0.145597  -0.004612
 682   9   2.071378  -7.563481   0.372461  -0.000800   0.145597  -0.005495
 683   9   2.073651  -7.330071  -1.079139  -0.000752   0.145597  -0.005165
 684   9   2.083623  -6.278222  -2.106341  -0.000577   0.145597  -0.003963
 685   9   2.094512  -5.125330  -2.413603  -0.000346   0.080852  -0.004274
 686  12   6.448339  -0.015007   0.089406  -0.001051   0.300834  -0.003494
 687  10   5.780773  -1.311906  -0.089310  -0.001353   0.300834  -0.004499
 688  17   2.960043  -4.631945  -1.857045  -0.001143   0.206267  -0.005540
 689  17   3.567127  -4.968314  -0.994119  -0.003672   0.412771  -0.008895
 690  17   3.755122  -5.072443   0.342852  -0.003870   0.412771  -0.009376
 691  17   3.210283  -4.770500   1.545206  -0.003183   0.412771  -0.007712
 692  10   3.821117  -3.667935  -1.545250  -0.003507   0.412771  -0.008497
 693  10   4.366058  -3.969858  -0.342937  -0.004093   0.412771  -0.009916
 694  10   4.178176  -3.865707   0.994048  -0.004078   0.412771  -0.009881
 695  10   3.571164  -3.529324   1.857020  -0.001262   0.206267  -0.006121
 696  13  -4.503751   5.687123  -0.059351  -0.000465   0.200386  -0.002319
 697  11  -5.182943   4.383836   0.059354  -0.000470   0.200386  -0.002346
 698  14   5.465716   6.098184   0.052648  -0.000417   0.177838  -0.002346
 699  12   6.251672   4.850629  -0.052446  -0.000349   0.177838  -0.001960
 700  14   1.114214   8.377569  -0.052588  -0.000411   0.178645  -0.002303
 701  13  -0.363144   8.315254   0.052667  -0.000520   0.178645  -0.002910
 =====================================================

              4077703  WORDS OF DYNAMIC MEMORY USED
 EXECUTION OF GAMESS TERMINATED NORMALLY Wed Nov 23 15:39:57 2016
 DDI: 263640 bytes (0.3 MB / 0 MWords) used by master data server.

 ----------------------------------------
 CPU timing information for all processes
 ========================================
 0: 1033.476 + 0.772 = 1034.248
 ----------------------------------------
 ddikick.x: exited gracefully.
