----- GAMESS execution script -----

          ******************************************************
          *         GAMESS VERSION =  5 DEC 2014 (R1)          *
          *             FROM IOWA STATE UNIVERSITY             *
          * M.W.SCHMIDT, K.K.BALDRIDGE, J.A.BOATZ, S.T.ELBERT, *
          *   M.S.GORDON, J.H.JENSEN, S.KOSEKI, N.MATSUNAGA,   *
          *          K.A.NGUYEN, S.J.SU, T.L.WINDUS,           *
          *       TOGETHER WITH M.DUPUIS, J.A.MONTGOMERY       *
          *         J.COMPUT.CHEM.  14, 1347-1363(1993)        *
          **************** 64 BIT LINUX VERSION ****************

 EXECUTION OF GAMESS BEGUN Wed Nov 23 15:18:09 2016

            ECHO OF THE FIRST FEW INPUT CARDS -
 INPUT CARD>! SELECT RESTRICTED HARTREE-FOCK AS DEFAULT                                     
 INPUT CARD>$contrl scftyp=rhf $end                                                         
 INPUT CARD>                                                                                
 INPUT CARD>! THEORY: HF OR DFT                                                             
 INPUT CARD> $contrl mplevl=0 $end                                                          
 INPUT CARD>                                                                                
 INPUT CARD> $system timlim=10000 mwords=20 $end                                            
 INPUT CARD> $SCF DIRSCF=.TRUE. $end                                                        
 INPUT CARD>                                                                                
 INPUT CARD>                                                                                
 INPUT CARD>! BASIS SETS                                                                    
 INPUT CARD>! 6-311G(d,p)                                                                   
 INPUT CARD> $BASIS GBASIS=N311 NGAUSS=6 NDFUNC=1 NPFUNC=1 $END                             
 INPUT CARD>                                                                                
 INPUT CARD>! One of the following                                                          
 INPUT CARD> $guess guess=HUCKEL $end                                                       
 INPUT CARD>                                                                                
 INPUT CARD> $statpt projct=.FALSE. $end                                                    
 INPUT CARD> $STATPT IFREEZ(1)=1,2,3 $END                                                   
 INPUT CARD>                                                                                
 INPUT CARD>! Optimize the geometry with COSMO effects                                      
 INPUT CARD> $statpt opttol=0.0005 nstep=50 $end                                            
 INPUT CARD> $contrl nzvar=1 $end                                                           
 INPUT CARD> $zmat dlc=.t. auto=.t. $end                                                    
 INPUT CARD> $contrl runtyp=OPTIMIZE maxit=200 $end                                         
 INPUT CARD>                                                                                
 INPUT CARD>! Run COSMO on perfect conductor                                                
 INPUT CARD> $COSGMS PRFCND=.TRUE. $end                                                     
 INPUT CARD>                                                                                
 INPUT CARD>! Specifying RSOLV                                                              
 INPUT CARD> $COSGMS COSRAD = 1.4 $end                                                      
 INPUT CARD>                                                                                
 INPUT CARD>! available memory                                                              
 INPUT CARD> $SYSTEM MWORDS=40 $END                                                         
 INPUT CARD>                                                                                
 INPUT CARD> $DATA                                                                          
 INPUT CARD>Acetaldehyde, ID: C75070                                                        
 INPUT CARD>C1                                                                              
 INPUT CARD>C      6.0      0.6107000000    0.8391000000    0.7069000000                    
 INPUT CARD>C      6.0      2.0250000000    1.0943000000    1.1318000000                    
 INPUT CARD>O      8.0      2.5872000000    2.1537000000    0.9742000000                    
 INPUT CARD>H      1.0      0.0000000000    0.5647000000    1.5771000000                    
 INPUT CARD>H      1.0      0.1354000000    1.7029000000    0.2243000000                    
 INPUT CARD>H      1.0      0.5749000000    0.0000000000    0.0000000000                    
 INPUT CARD>H      1.0      2.5561000000    0.2555000000    1.6109000000                    
 INPUT CARD> $END                                                                           
 INPUT CARD>                                                                                
 INPUT CARD>                                                                                
   40000000 WORDS OF MEMORY AVAILABLE

     BASIS OPTIONS
     -------------
     GBASIS=N311         IGAUSS=       6      POLAR=POPN311 
     NDFUNC=       1     NFFUNC=       0     DIFFSP=       F
     NPFUNC=       1      DIFFS=       F     BASNAM=        


     RUN TITLE
     ---------
 Acetaldehyde, ID: C75070                                                        

 THE POINT GROUP OF THE MOLECULE IS C1      
 THE ORDER OF THE PRINCIPAL AXIS IS     0

 ATOM      ATOMIC                      COORDINATES (BOHR)
           CHARGE         X                   Y                   Z
 C           6.0     1.1540556607        1.5856690763        1.3358473007
 C           6.0     3.8266951251        2.0679271484        2.1387918729
 O           8.0     4.8890990754        4.0699028598        1.8409710572
 H           1.0     0.0000000000        1.0671282653        2.9802868552
 H           1.0     0.2558688987        3.2180143845        0.4238655390
 H           1.0     1.0864034703        0.0000000000        0.0000000000
 H           1.0     4.8303285972        0.4828249899        3.0441595936

          INTERNUCLEAR DISTANCES (ANGS.)




     $CONTRL OPTIONS
     ---------------
 SCFTYP=RHF          RUNTYP=OPTIMIZE     EXETYP=RUN     
 MPLEVL=       0     CITYP =NONE         CCTYP =NONE         VBTYP =NONE    
 DFTTYP=NONE         TDDFT =NONE    
 MULT  =       1     ICHARG=       0     NZVAR =       1     COORD =UNIQUE  
 PP    =NONE         RELWFN=NONE         LOCAL =NONE         NUMGRD=       F
 ISPHER=      -1     NOSYM =       0     MAXIT =     200     UNITS =ANGS    
 PLTORB=       F     MOLPLT=       F     AIMPAC=       F     FRIEND=        
 NPRINT=       7     IREST =       0     GEOM  =INPUT   
 NORMF =       0     NORMP =       0     ITOL  =      20     ICUT  =       9
 INTTYP=BEST         GRDTYP=BEST         QMTTOL= 1.0E-06

     $SYSTEM OPTIONS
     ---------------
  REPLICATED MEMORY=    40000000 WORDS (ON EVERY NODE).
 DISTRIBUTED MEMDDI=           0 MILLION WORDS IN AGGREGATE,
 MEMDDI DISTRIBUTED OVER   1 PROCESSORS IS           0 WORDS/PROCESSOR.
 TOTAL MEMORY REQUESTED ON EACH PROCESSOR=    40000000 WORDS.
 TIMLIM=       10000.00 MINUTES, OR       6.9 DAYS.
 PARALL= F  BALTYP=  DLB     KDIAG=    0  COREFL= F
 MXSEQ2=     300 MXSEQ3=     150  mem10=         0

     $COSGMS OPTIONS
     ---------------
     EPSI  =   INFTY     NSPA  =      92     COSRAD=    1.40
     DISEX =   10.00     OUTCHG=DBLCAV       COSBUG=       F
     COSWRT=       F     DCOSMO=       F

     SYMMETRY COORDINATES WILL NOT BE USED FOR 
     THE COSMO CALCULATION, EVEN IF SPECIFIED:
         -- SWITCHING TO C1 POINT GROUP --


     DEFINITION OF CAVITY
     ---------------------------
     ATOM         COORDINATES           RADIUS 
     1    1.1541    1.5857    1.3358    2.0000
     2    3.8267    2.0679    2.1388    2.0000
     3    4.8891    4.0699    1.8410    1.7200
     4    0.0000    1.0671    2.9803    1.3000
     5    0.2559    3.2180    0.4239    1.3000
     6    1.0864    0.0000    0.0000    1.3000
     7    4.8303    0.4828    3.0442    1.3000

          ----------------
          PROPERTIES INPUT
          ----------------

     MOMENTS            FIELD           POTENTIAL          DENSITY
 IEMOM =       1   IEFLD =       0   IEPOT =       0   IEDEN =       0
 WHERE =COMASS     WHERE =NUCLEI     WHERE =NUCLEI     WHERE =NUCLEI  
 OUTPUT=BOTH       OUTPUT=BOTH       OUTPUT=BOTH       OUTPUT=BOTH    
 IEMINT=       0   IEFINT=       0                     IEDINT=       0
                                                       MORB  =       0
          EXTRAPOLATION IN EFFECT
          SOSCF IN EFFECT
 ORBITAL PRINTING OPTION: NPREO=     1    81     2     1

     -------------------------------
     INTEGRAL TRANSFORMATION OPTIONS
     -------------------------------
     NWORD  =            0
     CUTOFF = 1.0E-09     MPTRAN =       0
     DIRTRF =       T     AOINTS =DUP     

          ----------------------
          INTEGRAL INPUT OPTIONS
          ----------------------
 NOPK  =       1 NORDER=       0 SCHWRZ=       T


 -----------------------------------------------
  STATISTICS ON AUTOMATIC COORDINATE GENERATION 
 -----------------------------------------------
  NUMBER OF USER SPECIFIED BONDS                             0
  NUMBER OF BONDS                                            6
  NUMBER OF ANGLES                                           9
  NUMBER OF TORSIONS                                         6
  NUMBER OF EXTRA COORD.                                     0
  NUMBER OF EXTRA COORD. FOR CONSTRAINTS                     0
  NUMBER OF CONSTRAINED COORD.                               0

  TOTAL NUMBER OF PRIMITIVES                                21
 -----------------------------------------------

   --- ENCODED Z MATRIX ---
 COORD  TYPE   I   J   K   L   M   N
    1      1    1   2
    2      1    1   4
    3      1    1   5
    4      1    1   6
    5      1    2   7
    6      1    2   3
    7      2    1   2   3
    8      2    1   2   7
    9      2    2   1   6
   10      2    2   1   4
   11      2    2   1   5
   12      2    3   2   7
   13      2    4   1   6
   14      2    4   1   5
   15      2    5   1   6
   16      3    3   2   1   6
   17      3    3   2   1   4
   18      3    3   2   1   5
   19      3    4   1   2   7
   20      3    5   1   2   7
   21      3    6   1   2   7

          INDEP./SYM. INTERNAL COORDINATES
          --------------------------------
 CRD  1=   0.5123 (  7) -0.4630 (  8) -0.2701 (  9) -0.2575 ( 10)  0.5468 ( 11)
           0.1275 ( 13)
 CRD  2=   0.7037 (  1)  0.1235 (  6)  0.1663 (  7)  0.2069 (  8)  0.2280 (  9)
           0.2299 ( 10)  0.1493 ( 11) -0.3733 ( 12) -0.2224 ( 13) -0.2114 ( 14)
          -0.2108 ( 15)
 CRD  3=  -0.1596 (  2)  0.1572 (  4)  0.6128 (  9) -0.6220 ( 10)  0.2351 ( 14)
          -0.2397 ( 15)  0.1433 ( 16)  0.1413 ( 17) -0.1777 ( 20)
 CRD  4=   0.1078 (  2) -0.2192 (  3)  0.1131 (  4) -0.3388 (  5)  0.2862 (  6)
           0.3988 (  7) -0.3980 (  8)  0.2330 (  9)  0.2215 ( 10) -0.4678 ( 11)
          -0.2399 ( 13)  0.1304 ( 14)  0.1241 ( 15)
 CRD  5=  -0.2849 (  2) -0.3049 (  3) -0.2849 (  4)  0.3774 (  5)  0.4150 (  6)
          -0.1961 (  7) -0.2378 (  8)  0.1490 (  9)  0.1491 ( 10)  0.1564 ( 11)
           0.4338 ( 12) -0.1522 ( 13) -0.1654 ( 14) -0.1655 ( 15)
 CRD  6=  -0.2030 (  1) -0.3944 (  2) -0.4077 (  3) -0.3947 (  4) -0.3781 (  5)
          -0.4149 (  6)  0.1009 (  7)  0.1265 (  8)  0.1165 (  9)  0.1164 ( 10)
           0.1195 ( 11) -0.2274 ( 12) -0.1151 ( 13) -0.1295 ( 14) -0.1297 ( 15)
 CRD  7=   0.3032 (  2) -0.5805 (  3)  0.3228 (  4)  0.4067 ( 13) -0.2072 ( 14)
          -0.1940 ( 15) -0.2264 ( 16)  0.2325 ( 17)  0.2323 ( 19) -0.2266 ( 21)
 CRD  8=   0.5265 (  2) -0.5143 (  4)  0.3414 ( 14) -0.3489 ( 15) -0.1641 ( 16)
          -0.1554 ( 17)  0.2352 ( 18) -0.1237 ( 19)  0.2669 ( 20) -0.1324 ( 21)
 CRD  9=  -0.3986 ( 16) -0.3981 ( 17) -0.3865 ( 18) -0.4241 ( 19) -0.4125 ( 20)
          -0.4246 ( 21)
 CRD 10=  -0.2256 (  2) -0.2637 (  3) -0.2249 (  4)  0.3768 (  5)  0.3348 (  6)
           0.2223 (  7)  0.2156 (  8) -0.2052 (  9) -0.2056 ( 10) -0.2238 ( 11)
          -0.4380 ( 12)  0.2107 ( 13)  0.2321 ( 14)  0.2316 ( 15)
 CRD 11=   0.1573 (  2) -0.2381 (  3)  0.1638 (  4)  0.6110 (  5) -0.5806 (  6)
           0.2116 (  7) -0.2074 (  8) -0.2072 ( 13)
 CRD 12=  -0.3568 (  2)  0.3510 (  4)  0.2453 ( 14) -0.2495 ( 15) -0.3904 ( 16)
          -0.3850 ( 17)  0.1824 ( 19)  0.5078 ( 20)  0.1770 ( 21)
 CRD 13=  -0.6776 (  1)  0.1572 (  2)  0.2032 (  3)  0.1568 (  4)  0.1744 (  5)
           0.2569 (  6)  0.1330 (  7)  0.1721 (  8)  0.1835 (  9)  0.1833 ( 10)
           0.1808 ( 11) -0.3051 ( 12) -0.1734 ( 13) -0.2041 ( 14) -0.2038 ( 15)
 CRD 14=  -0.2158 (  2)  0.4260 (  3) -0.2260 (  4)  0.1866 (  5) -0.1850 (  6)
           0.2385 (  7) -0.2436 (  8)  0.1372 (  9)  0.1312 ( 10) -0.2663 ( 11)
           0.3069 ( 13) -0.1475 ( 14) -0.1404 ( 15) -0.2682 ( 16)  0.2730 ( 17)
           0.2725 ( 19) -0.2687 ( 21)
 CRD 15=  -0.2803 (  2)  0.2759 (  4) -0.2046 (  9)  0.2079 ( 10)  0.1937 ( 14)
          -0.1965 ( 15)  0.1642 ( 16)  0.1701 ( 17)  0.5680 ( 18) -0.3878 ( 19)
          -0.3937 ( 21)

 THE DETERMINANT OF THE G MATRIX IS 10**(    -5)


                     --------------------
                     INTERNAL COORDINATES
                     --------------------

                 - - ATOMS - -         COORDINATE      COORDINATE
 NO.   TYPE    I  J  K  L  M  N        (BOHR,RAD)       (ANG,DEG)
 ----------------------------------------------------------------
   1 STRETCH   1  2                     2.8320125       1.4986366
   2 STRETCH   1  4                     2.0748278       1.0979517
   3 STRETCH   1  5                     2.0743677       1.0977082
   4 STRETCH   1  6                     2.0744665       1.0977605
   5 STRETCH   2  7                     2.0831514       1.1023563
   6 STRETCH   2  3                     2.2858929       1.2096425
   7 BEND      1  2  3                  2.1541293     123.4225155
   8 BEND      1  2  7                  2.0356839     116.6360955
   9 BEND      2  1  6                  1.9214537     110.0911883
  10 BEND      2  1  4                  1.9206523     110.0452712
  11 BEND      2  1  5                  1.9815211     113.5327942
  12 BEND      3  2  7                  2.0933718     119.9413692
  13 BEND      4  1  6                  1.8767468     107.5296696
  14 BEND      4  1  5                  1.8799718     107.7144517
  15 BEND      5  1  6                  1.8799659     107.7141140
  16 TORSION   3  2  1  6               2.1234622     121.6654204
  17 TORSION   3  2  1  4              -2.0941271    -119.9846453
  18 TORSION   3  2  1  5               0.0143808       0.8239573
  19 TORSION   4  1  2  7               1.0465683      59.9639446
  20 TORSION   5  1  2  7              -3.1281092    -179.2274527
  21 TORSION   6  1  2  7              -1.0190278     -58.3859896

     ------------------------------------------
     THE POINT GROUP IS C1 , NAXIS= 1, ORDER= 1
     ------------------------------------------

     DIMENSIONS OF THE SYMMETRY SUBSPACES ARE
 A   =   81

 ..... DONE SETTING UP THE RUN .....
 STEP CPU TIME =     0.00 TOTAL CPU TIME =        0.0 (    0.0 MIN)
 TOTAL WALL CLOCK TIME=        0.0 SECONDS, CPU UTILIZATION IS   0.00%


          -----------------------------
          STATIONARY POINT LOCATION RUN
          -----------------------------

 OBTAINING INITIAL HESSIAN, HESS=GUESS   
 DIAGONAL GUESS HESSIAN IN INTERNAL COORDS IS
     1  0.3903     2  0.3411     3  0.3412     4  0.3412     5  0.3381
     6  0.5527     7  0.2610     8  0.2252     9  0.2255    10  0.2255
    11  0.2255    12  0.2319    13  0.2026    14  0.2026    15  0.2026
    16  0.2500    17  0.2500    18  0.2500    19  0.2500    20  0.2500
    21  0.2500
 TRANSFORMING HESSIAN TO SYMMETRY COORDINATES

          PARAMETERS CONTROLLING GEOMETRY SEARCH ARE
          METHOD =QA                  UPHESS =BFGS    
          NNEG   =         0          NFRZ   =         3
          NSTEP  =        50          IFOLOW =         1
          HESS   =GUESS               RESTAR =         F
          IHREP  =         0          HSSEND =         F
          NPRT   =         0          NPUN   =         0
          OPTTOL = 5.000E-04          RMIN   = 1.500E-03
          RMAX   = 1.000E-01          RLIM   = 7.000E-02
          DXMAX  = 3.000E-01          PURIFY =         F
          MOVIE  =         F          TRUPD  =         T
          TRMAX  = 5.000E-01          TRMIN  = 5.000E-02
          ITBMAT =         5          STPT   =         F
          STSTEP = 1.000E-02          PROJCT=          F
          FROZEN COORD(S)=   1   2   3


      ***** EQUILIBRIUM GEOMETRY LOCATED *****
            (SUBJECT TO   3 CONSTRAINT(S))
 COORDINATES OF ALL ATOMS ARE (ANGS)
   ATOM   CHARGE       X              Y              Z
 ------------------------------------------------------------
 C           6.0   0.6023617330   0.8336803588   0.7056019655
 C           6.0   2.0241144168   1.1091297954   1.1265238849
 O           8.0   2.5923552745   2.1472046387   0.9782241675
 H           1.0   0.0114011297   0.5467646729   1.5720359207
 H           1.0   0.1488870448   1.6963957345   0.2322742529
 H           1.0   0.5771355883  -0.0090323856   0.0191993779
 H           1.0   2.5569851176   0.2800129515   1.6032012813


                     --------------------
                     INTERNAL COORDINATES
                     --------------------

                 - - ATOMS - -         COORDINATE      COORDINATE
 NO.   TYPE    I  J  K  L  M  N        (BOHR,RAD)       (ANG,DEG)
 ----------------------------------------------------------------
   1 STRETCH   1  2                     2.8499351       1.5081208
   2 STRETCH   1  4                     2.0547352       1.0873191
   3 STRETCH   1  5                     2.0475041       1.0834926
   4 STRETCH   1  6                     2.0544630       1.0871751
   5 STRETCH   2  7                     2.0688895       1.0948092
   6 STRETCH   2  3                     2.2538418       1.1926818
   7 BEND      1  2  3                  2.1814687     124.9889509
   8 BEND      1  2  7                  2.0286817     116.2348982
   9 BEND      2  1  6                  1.9173571     109.8564725
  10 BEND      2  1  4                  1.9157651     109.7652520
  11 BEND      2  1  5                  1.9509481     111.7810940
  12 BEND      3  2  7                  2.0730346     118.7761350
  13 BEND      4  1  6                  1.8607976     106.6158488
  14 BEND      4  1  5                  1.9078862     109.3138292
  15 BEND      5  1  6                  1.9088687     109.3701203
  16 TORSION   3  2  1  6               2.1355994     122.3608295
  17 TORSION   3  2  1  4              -2.1068511    -120.7136750
  18 TORSION   3  2  1  5               0.0132025       0.7564447
  19 TORSION   4  1  2  7               1.0339270      59.2396528
  20 TORSION   5  1  2  7              -3.1292048    -179.2902275
  21 TORSION   6  1  2  7              -1.0068079     -57.6858426

          INTERNUCLEAR DISTANCES (ANGS.)


 =====================================================
   GAMESS/COSab RESULTS
 =====================================================

   Dielectric Constant                  = INFTY
   Basic Grid Size                      =                 1082
   Number of Segments                   =                   92
   Number of Segments located on spheres=                  159
   Number of Segments of the cavity     =                  299
   Solvent Radius (rsolv)               = 1.40
   Outlying Charge Error Method         = double cavity

 =====================================================

  Total solvated Energy (a.u.)          =  -152.9684369458
  Total Energy corrected (a.u.)         =  -152.9681293823

  Outlying charge effect (a.u.)         =     0.0003075635
  Outlying charge effect (kcal/mol)     =     0.1929991456

  Dielectric Energy (a.u.)              =    -0.0132891725
  Dielectric energy corr. (a.u.)        =    -0.0129816090

  Sum of polarization charges           =     0.0140614983
  Sum of polarization charges(cor.)     =    -0.0140614983

  Total surface area of cavity (A**2)   =   82.36
  Total volume of cavity (A**3)         =   63.92

 =====================================================
 NPS=                   299
NR.  ATOM  (X, Y, Z)(a.u.)                  CHARGE(e)  AREA(A**2) SIGMA(e/A**2)
   1   1   2.519506   1.988847  -2.160269   0.000233   0.232280   0.001003
   2   1  -0.899859   1.637359  -1.848801   0.000932   0.418105   0.002230
   3   1   1.747025  -1.914581   2.650049  -0.000125   0.278737  -0.000448
   4   1   0.315115   4.427237   3.672993  -0.000015   0.371649  -0.000040
   5   1  -2.458583   2.728612   1.203756   0.000307   0.325193   0.000945
   6   1  -1.565405  -0.987921   0.698180   0.000143   0.371649   0.000384
   7   1   2.718099   1.031438  -2.056687  -0.000276   0.232280  -0.001189
   8   1   2.158148   3.361945  -1.837184  -0.000192   0.278737  -0.000688
   9   1   1.945884   2.469472  -2.248897  -0.000031   0.278737  -0.000112
  10   1   0.805437   1.940079  -2.413678   0.000663   0.325193   0.002039
  11   1  -1.613117  -0.974580   1.793201   0.000267   0.371649   0.000718
  12   1  -2.413296   2.399710   2.328843   0.000363   0.371649   0.000977
  13   1  -0.504053   3.670750   4.016018   0.000164   0.325193   0.000503
  14   1   0.872492  -1.681472   3.232397   0.000068   0.278737   0.000245
  15   1   0.015125   2.372465  -2.186195   0.000278   0.232280   0.001197
  16   1   0.069543   1.306318  -2.281803   0.000401   0.278737   0.001440
  17   1   0.361196   3.370150   4.567471  -0.000169   0.232280  -0.000726
  18   1  -0.670223   4.342631   3.165334   0.000456   0.325193   0.001403
  19   1  -2.052071   3.385256   2.244571   0.000819   0.371649   0.002203
  20   1  -2.639058   1.462944   1.389384   0.000141   0.464561   0.000304
  21   1  -2.276201   0.017747   0.887225   0.000065   0.464561   0.000141
  22   1  -0.694966  -1.721877   1.559658   0.000533   0.371649   0.001434
  23   1   0.658830  -2.099469   2.074694   0.000461   0.418105   0.001103
  24   1   2.014088  -2.083916   1.689064  -0.000615   0.371649  -0.001655
  25   1   0.260336   5.001187   2.666635  -0.000133   0.325193  -0.000408
  26   1  -2.444408   2.083861   0.242554   0.000120   0.418105   0.000286
  27   1  -1.882781   1.724224  -0.932703   0.000207   0.418105   0.000494
  28   1  -1.479138   0.683729  -1.243072   0.000190   0.464561   0.000408
  29   1  -1.771191  -0.254209  -0.238728  -0.000098   0.325193  -0.000303
  30   1   1.239976   2.927769  -2.194373   0.000166   0.232280   0.000716
  31   1   1.638888   1.327350  -2.404547   0.000238   0.278737   0.000855
  32   1  -2.441498   0.441363   1.761380  -0.000184   0.278737  -0.000659
  33   1  -1.446816   3.533537   3.274310   0.000465   0.278737   0.001667
  34   1   1.454826  -1.305050   3.759690  -0.000649   0.232280  -0.002793
  35   1  -0.185446  -1.750699   2.545351   0.000346   0.325193   0.001063
  36   1  -1.353645   4.152669   2.530148   0.000342   0.232280   0.001472
  37   1  -2.331063   0.877739   0.006366  -0.000067   0.418105  -0.000160
  38   2   4.386260   2.490900  -1.587805  -0.001040   0.371649  -0.002797
  39   2   4.606934  -0.975158   0.069395  -0.001637   0.232280  -0.007047
  40   2   7.168785   1.241042   0.588473  -0.000359   0.325193  -0.001103
  41   2   6.519955   2.137094   4.778327  -0.000506   0.278737  -0.001816
  42   2   3.497877   1.787700   5.881445  -0.002717   0.418105  -0.006499
  43   2   3.817860   0.787044   5.674377  -0.001743   0.278737  -0.006252
  44   2   7.107314   1.893671   3.991587  -0.000104   0.185824  -0.000561
  45   2   7.097785   0.398950   1.296047  -0.001172   0.325193  -0.003603
  46   2   4.531222  -1.465213   1.078239  -0.001922   0.278737  -0.006894
  47   2   2.255411   4.521627   4.565336  -0.001155   0.371649  -0.003107
  48   2   5.389968  -0.677697   0.093594  -0.002016   0.325193  -0.006201
  49   2   6.532675   0.363890   0.140633  -0.001997   0.418105  -0.004776
  50   2   7.500393   1.253912   1.870165  -0.000383   0.325193  -0.001179
  51   2   7.456130   1.823762   3.141356  -0.000052   0.092912  -0.000561
  52   2   5.773786   2.610411   5.325988  -0.000699   0.418105  -0.001672
  53   2   4.561309   2.101904   5.835851  -0.001762   0.371649  -0.004742
  54   2   2.838070   0.824678   5.548476  -0.001575   0.278737  -0.005651
  55   2   4.993519  -0.024358  -0.773459  -0.002533   0.325193  -0.007790
  56   2   4.655781   1.147924  -1.434238  -0.002659   0.371649  -0.007154
  57   2   5.464965   1.812486  -1.264485  -0.001120   0.371649  -0.003013
  58   2   6.493131   1.516380  -0.484527  -0.000790   0.371649  -0.002127
  59   2   3.303024   4.086055   5.299183  -0.000735   0.371649  -0.001978
  60   2   3.462485   3.005519   5.779227  -0.002826   0.464561  -0.006084
  61   2   2.451019   2.219412   5.647499  -0.002962   0.325193  -0.009107
  62   2   5.386529   1.646762   5.541176  -0.001180   0.278737  -0.004232
  63   2   7.479720   1.360602   2.750686  -0.000244   0.139368  -0.001753
  64   2   6.074498  -0.578657   0.689845  -0.002122   0.371649  -0.005711
  65   2   3.008512  -0.196928   5.020238  -0.001670   0.278737  -0.005993
  66   2   2.312574   3.552640   5.271234  -0.002637   0.418105  -0.006307
  67   2   5.745818   0.596832  -0.760383  -0.002682   0.418105  -0.006415
  68   2   4.661182   3.377410   5.584672  -0.000646   0.418105  -0.001545
  69   3   6.375200   6.916815   1.390338   0.004885   0.377948   0.012924
  70   3   3.542180   6.840929   2.837172   0.003698   0.274871   0.013455
  71   3   3.728682   6.045471  -0.441361   0.005975   0.343589   0.017390
  72   3   6.630642   4.464507  -0.871700   0.003730   0.343589   0.010857
  73   3   8.136133   4.126384   2.131089   0.005741   0.343589   0.016709
  74   3   6.026449   5.447974   4.561519   0.003841   0.309230   0.012422
  75   3   5.421716   7.259618   2.044646   0.005399   0.412307   0.013094
  76   3   4.319659   7.207657   2.402170   0.004744   0.343589   0.013806
  77   3   5.459498   7.021042   0.636794   0.005807   0.412307   0.014084
  78   3   4.509341   6.732836   0.044099   0.005502   0.343589   0.016014
  79   3   6.713027   6.325272   0.388751   0.005188   0.412307   0.012583
  80   3   6.966724   5.391706  -0.274786   0.004458   0.377948   0.011794
  81   3   7.316570   6.213390   1.580540   0.005216   0.377948   0.013802
  82   3   7.900738   5.301054   1.932739   0.005367   0.343589   0.015620
  83   3   6.629525   6.708228   2.585890   0.006336   0.481025   0.013172
  84   3   6.450719   6.241222   3.689279   0.005410   0.412307   0.013121
  85   3   3.337071   6.906910   1.764466   0.004387   0.274871   0.015959
  86   3   3.493574   6.667368   0.514754   0.006067   0.309230   0.019621
  87   3   4.745571   5.857706  -0.853426   0.004994   0.343589   0.014534
  88   3   5.775973   5.126414  -1.093009   0.004873   0.412307   0.011820
  89   3   7.534141   4.235244  -0.045687   0.005081   0.412307   0.012323
  90   3   8.042603   4.181064   1.032417   0.006224   0.412307   0.015096
  91   3   7.857728   4.541464   3.103763   0.006535   0.377948   0.017291
  92   3   7.067703   5.088189   4.039145   0.006391   0.412307   0.015501
  93   3   5.257391   6.132861   4.324352   0.005080   0.446666   0.011373
  94   3   4.200027   6.648421   3.682716   0.005246   0.446666   0.011745
  95   3   2.718754   6.393069   2.446544   0.004189   0.274871   0.015240
  96   3   4.088486   5.128752  -1.111259   0.003240   0.206154   0.015714
  97   3   5.241877   4.017755  -1.383349   0.002196   0.206154   0.010654
  98   3   5.970811   3.776218  -1.206959   0.001989   0.240512   0.008270
  99   3   6.927478   3.361600  -0.593713   0.004010   0.377948   0.010609
 100   3   7.984882   3.060149   1.634096   0.004992   0.343589   0.014530
 101   3   7.848612   3.312509   2.992372   0.006058   0.377948   0.016029
 102   3   6.295168   4.416748   4.761640   0.004742   0.377948   0.012548
 103   3   5.138310   5.034875   4.939254   0.002884   0.274871   0.010492
 104   3   3.055303   6.086793   3.594572   0.004296   0.377948   0.011367
 105   3   4.363341   7.201925   1.223096   0.006412   0.412307   0.015553
 106   3   5.787498   6.227141  -0.402663   0.006384   0.481025   0.013271
 107   3   7.677676   5.337761   0.751350   0.005610   0.412307   0.013607
 108   3   7.474550   5.690863   2.972344   0.006930   0.446666   0.015514
 109   3   5.372598   6.941325   3.271405   0.004955   0.412307   0.012018
 110   3   2.937579   6.564951   1.191767   0.002484   0.137436   0.018075
 111   3   4.689486   4.699283  -1.330897   0.003319   0.274871   0.012076
 112   3   7.697185   3.111878   0.492320   0.003859   0.343589   0.011232
 113   3   7.297200   3.910051   4.037348   0.005507   0.377948   0.014572
 114   3   4.036734   5.712937   4.509660   0.003738   0.412307   0.009065
 115   4  -1.359484   0.312991   4.870499  -0.004827   0.549575  -0.008784
 116   4  -1.791129   2.160429   4.186779  -0.001838   0.372926  -0.004929
 117   4  -0.173333   1.903489   5.259785  -0.002076   0.372926  -0.005568
 118   4   0.369758  -0.331718   4.983372  -0.002493   0.372926  -0.006686
 119   4  -0.964000  -1.090018   3.716119  -0.001920   0.372926  -0.005148
 120   4  -2.325301   0.367173   3.260245  -0.002231   0.412182  -0.005412
 121   4  -1.143798   1.804372   4.991234  -0.003396   0.490692  -0.006920
 122   4  -0.106556   0.671124   5.397158  -0.003183   0.490692  -0.006487
 123   4  -0.383612  -0.795347   4.560456  -0.002868   0.431809  -0.006643
 124   4  -1.787138  -0.443788   3.733745  -0.003186   0.471065  -0.006764
 125   4  -2.209128   1.203330   3.985767  -0.003274   0.490692  -0.006673
 126   5  -0.884334   5.093437  -0.615978  -0.003698   0.471065  -0.007850
 127   5  -0.329963   3.659796  -1.896704  -0.001392   0.353299  -0.003941
 128   5   0.829450   4.823073  -1.327105  -0.002196   0.353299  -0.006214
 129   5   0.082517   5.623525   0.826033  -0.002117   0.333671  -0.006346
 130   5  -1.518981   4.742468   1.096459  -0.001653   0.372926  -0.004432
 131   5  -1.927295   3.610415  -0.557657  -0.001787   0.412182  -0.004336
 132   5   0.039747   4.539724  -1.609768  -0.002651   0.431809  -0.006140
 133   5   0.229152   5.515449  -0.396280  -0.003191   0.431809  -0.007389
 134   5  -0.776887   5.383226   0.855766  -0.002412   0.412182  -0.005852
 135   5  -1.832374   4.423838   0.150024  -0.002885   0.471065  -0.006124
 136   5  -1.250567   3.913283  -1.346473  -0.002801   0.451437  -0.006206
 137   6   0.966085  -1.888410  -1.550440  -0.005367   0.608459  -0.008820
 138   6   2.550103  -1.417201  -1.358246  -0.002386   0.353299  -0.006754
 139   6   1.346501  -0.177694  -2.401725  -0.001637   0.333671  -0.004906
 140   6  -0.461715  -0.728122  -1.729995  -0.001870   0.353299  -0.005294
 141   6  -0.215879  -2.096086  -0.039799  -0.001887   0.372926  -0.005060
 142   6   1.795754  -2.352940   0.321930  -0.001922   0.353299  -0.005440
 143   6   2.118884  -0.825105  -2.043363  -0.003160   0.490692  -0.006440
 144   6   0.455166  -0.667411  -2.245904  -0.003221   0.490692  -0.006565
 145   6  -0.430311  -1.607430  -1.055770  -0.003455   0.510320  -0.006771
 146   6   0.770596  -2.446699  -0.135644  -0.003366   0.490692  -0.006861
 147   6   2.189075  -2.102480  -0.656247  -0.002893   0.490692  -0.005896
 148   7   5.934440  -1.470392   3.936036  -0.004360   0.490692  -0.008886
 149   7   5.134912  -1.825993   2.399763  -0.002598   0.372926  -0.006967
 150   7   4.076575  -1.460132   4.257300  -0.002690   0.353299  -0.007615
 151   7   5.179968  -0.153097   5.363826  -0.002401   0.353299  -0.006797
 152   7   7.006369   0.295278   4.148781  -0.002414   0.353299  -0.006832
 153   7   6.887628  -0.693360   2.468353  -0.002665   0.412182  -0.006465
 154   7   4.774912  -1.889299   3.457394  -0.004080   0.490692  -0.008315
 155   7   4.714829  -1.018920   4.933521  -0.003588   0.471065  -0.007617
 156   7   6.149013  -0.654205   4.732630  -0.003850   0.451437  -0.008528
 157   7   7.053979  -0.415653   3.482705  -0.003862   0.471065  -0.008199
 158   7   6.140660  -1.493309   2.547712  -0.003581   0.471065  -0.007603
 159   7   6.241215   0.415578   5.038670  -0.002071   0.314043  -0.006596
 160   1   3.145453   3.359271  -1.490436  -0.000159   0.037209  -0.004268
 161   2   3.616465   3.464671  -1.396530   0.000025   0.037209   0.000681
 162   3   3.821703   3.791519  -1.317909   0.000203   0.037209   0.005451
 163   1   1.437204   4.968215   3.226621  -0.000148   0.037209  -0.003991
 164   2   1.884575   5.095881   3.385805   0.000034   0.037209   0.000901
 165   3   2.157035   5.359415   3.278805   0.000317   0.037209   0.008519
 166   1   0.878669   2.598147   4.970444  -0.000349   0.027343  -0.012765
 167   2   1.353941   2.675546   5.069706  -0.000373   0.027343  -0.013623
 168   4   0.668467   2.386772   5.026914  -0.000341   0.027343  -0.012480
 169   1   1.633036  -0.509378   4.455953  -0.000308   0.027343  -0.011271
 170   2   2.098681  -0.392319   4.561781  -0.000411   0.027343  -0.015018
 171   4   1.355350  -0.442759   4.558448  -0.000253   0.027343  -0.009246
 172   1   2.905946  -1.753902   0.969735  -0.000288   0.027220  -0.010595
 173   2   3.358562  -1.624078   1.111188  -0.000339   0.027220  -0.012444
 174   6   2.759339  -1.816566   0.711697  -0.000340   0.027220  -0.012497
 175   1   3.252518   0.265664  -1.522456  -0.000324   0.027220  -0.011909
 176   2   3.700704   0.369676  -1.349151  -0.000475   0.027220  -0.017447
 177   6   3.074901   0.022297  -1.557501  -0.000246   0.027220  -0.009033
 178   1   2.413128  -1.079370   3.877486  -0.000303   0.017388  -0.017436
 179   2   2.872852  -1.026000   4.042675  -0.000303   0.017388  -0.017430
 180   7   3.167666  -1.106267   4.068508  -0.000243   0.017388  -0.013962
 181   1   3.094728  -1.722829   1.996325  -0.000300   0.017388  -0.017252
 182   2   3.564248  -1.678706   2.134480  -0.000282   0.017388  -0.016238
 183   7   3.796108  -1.699542   2.334060  -0.000259   0.017388  -0.014886
 184   2   2.549109  -0.678954   4.411478  -0.001136   0.144486  -0.007865
 185   1   1.942072  -0.924950   4.097558  -0.000861   0.144486  -0.005957
 186   2   3.536801  -1.690751   1.737470  -0.001046   0.129308  -0.008089
 187   1   2.913923  -1.803814   1.390068  -0.000796   0.129308  -0.006157
 188   2   3.959993   1.060632  -1.492411  -0.001970   0.243266  -0.008099
 189   2   3.655237   2.762377  -1.576640  -0.000896   0.243266  -0.003683
 190   1   3.126460   1.782581  -1.674708  -0.003642   0.501075  -0.007269
 191   2   1.672226   4.648607   3.887025  -0.000860   0.233961  -0.003675
 192   2   1.617994   3.343406   4.924311  -0.001783   0.233961  -0.007619
 193   1   0.998775   3.834782   4.169010  -0.003330   0.479899  -0.006939
 194   1   2.189551   4.229735  -1.197057  -0.000093   0.062563  -0.001492
 195   3   2.882467   4.594346  -0.953195   0.000662   0.062563   0.010580
 196   5   1.930064   4.381578  -1.160307  -0.000233   0.062563  -0.003731
 197   1   1.026800   5.340041   1.940704  -0.000095   0.062563  -0.001511
 198   3   1.787874   5.639568   2.000636   0.000572   0.062563   0.009138
 199   5   0.876873   5.387266   1.681798  -0.000236   0.062563  -0.003766
 200   3   3.683485   4.302923  -1.258670   0.002230   0.280560   0.007949
 201   1   2.582865   3.877291  -1.458922  -0.000055   0.309835  -0.000177
 202   3   2.161035   5.801958   2.631733   0.002553   0.300654   0.008491
 203   1   1.135520   5.193495   2.764149  -0.000185   0.332019  -0.000557
 204   4   0.136465   2.427122   4.991451  -0.000458   0.067823  -0.006748
 205   4  -0.774131   2.736264   4.472736  -0.000855   0.149904  -0.005703
 206   4  -1.792685   2.444893   3.681535  -0.000873   0.149904  -0.005821
 207   4  -2.344876   1.468433   2.981564  -0.000889   0.149904  -0.005933
 208   4  -2.211147   0.195137   2.651140  -0.000919   0.149904  -0.006132
 209   4  -1.444669  -0.868719   2.821643  -0.000817   0.149904  -0.005452
 210   4  -0.350204  -1.300132   3.425280  -0.000967   0.149904  -0.006449
 211   4   0.637076  -0.927567   4.222037  -0.001041   0.149904  -0.006943
 212   1   0.019258   2.893724   4.644630  -0.000922   0.149332  -0.006171
 213   1  -1.222970   3.022891   3.840125  -0.000599   0.149332  -0.004010
 214   1  -2.152796   2.272379   2.957403  -0.000609   0.149332  -0.004076
 215   1  -2.400511   0.940602   2.347445  -0.000760   0.149332  -0.005089
 216   1  -1.867620  -0.442911   2.252778  -0.000750   0.149332  -0.005022
 217   1  -0.766007  -1.328058   2.711042  -0.000648   0.149332  -0.004339
 218   1   0.466314  -1.362894   3.540026  -0.000815   0.149332  -0.005456
 219   1   1.259922  -0.813676   4.263183  -0.000501   0.082861  -0.006042
 220   5   1.373753   4.194686  -1.526819  -0.000376   0.068129  -0.005525
 221   5   0.567600   3.553751  -1.922695  -0.000699   0.151082  -0.004628
 222   5  -0.638207   3.001991  -1.773133  -0.000743   0.151082  -0.004921
 223   5  -1.671944   2.919393  -0.933285  -0.000781   0.151082  -0.005167
 224   5  -2.112044   3.339643   0.254353  -0.000813   0.151082  -0.005384
 225   5  -1.779029   4.091358   1.305450  -0.000711   0.151082  -0.004709
 226   5  -0.808707   4.867982   1.791361  -0.000750   0.151082  -0.004963
 227   5   0.187605   5.327334   1.674079  -0.000377   0.068129  -0.005540
 228   1   1.377603   3.649385  -1.762324  -0.000663   0.149492  -0.004433
 229   1   0.137604   2.850554  -2.030338  -0.000503   0.149492  -0.003367
 230   1  -1.189885   2.474539  -1.443866  -0.000607   0.149492  -0.004061
 231   1  -2.063500   2.674682  -0.242075  -0.000667   0.149492  -0.004459
 232   1  -2.126974   3.369363   1.084933  -0.000564   0.149492  -0.003773
 233   1  -1.354423   4.275285   1.995994  -0.000521   0.149492  -0.003488
 234   1  -0.060898   5.023005   2.119568  -0.000642   0.149492  -0.004293
 235   6   2.293949  -2.071517   0.644849  -0.000467   0.067894  -0.006882
 236   6   1.247839  -2.254167   0.907534  -0.000935   0.150106  -0.006228
 237   6  -0.039805  -2.037946   0.689396  -0.000847   0.150106  -0.005646
 238   6  -0.887666  -1.380785  -0.086254  -0.000959   0.150106  -0.006386
 239   6  -0.957707  -0.544689  -1.110168  -0.001001   0.150106  -0.006670
 240   6  -0.222003   0.136994  -1.974118  -0.000836   0.150106  -0.005569
 241   6   1.026125   0.392482  -2.333652  -0.000826   0.150106  -0.005502
 242   6   2.289056   0.119912  -2.045425  -0.001001   0.150106  -0.006668
 243   1   2.008386  -2.053305   1.164634  -0.000967   0.149442  -0.006470
 244   1   0.527262  -2.109376   1.287902  -0.000675   0.149442  -0.004519
 245   1  -0.737061  -1.592292   0.699532  -0.000695   0.149442  -0.004649
 246   1  -1.280503  -0.708212  -0.365897  -0.000787   0.149442  -0.005266
 247   1  -0.886399   0.190387  -1.483604  -0.000744   0.149442  -0.004981
 248   1   0.288126   0.745237  -2.207965  -0.000570   0.149442  -0.003812
 249   1   1.774794   0.735124  -2.250182  -0.000727   0.149442  -0.004862
 250   1   2.834693   0.351107  -1.817668  -0.000504   0.082947  -0.006080
 251   7   3.420576  -1.377566   3.809849  -0.002099   0.211692  -0.009915
 252   7   3.791790  -1.728008   2.785327  -0.002046   0.211692  -0.009667
 253   1   2.534135  -1.577449   2.917589  -0.003956   0.579449  -0.006827
 254   3   2.660440   5.536625   3.682509   0.001061   0.135384   0.007834
 255   3   3.839751   5.031039   4.662252   0.001959   0.285262   0.006866
 256   3   5.564965   4.125897   4.936874   0.002340   0.285262   0.008203
 257   3   7.030623   3.191861   4.014657   0.003400   0.285262   0.011920
 258   3   7.668559   2.591010   2.253101   0.003271   0.285262   0.011467
 259   3   7.231474   2.556268   0.335078   0.002499   0.285262   0.008760
 260   3   5.888805   3.101101  -0.995885   0.001996   0.285262   0.006998
 261   3   4.488746   3.814604  -1.366063   0.001118   0.135384   0.008258
 262   2   2.760678   4.930621   4.245958   0.000871   0.281635   0.003093
 263   2   4.422507   4.148937   5.141912   0.001041   0.281635   0.003698
 264   2   6.166122   3.143940   4.788042   0.001626   0.281635   0.005772
 265   2   7.315607   2.305218   3.321525   0.001631   0.281635   0.005790
 266   2   7.425359   1.957906   1.310862   0.001495   0.281635   0.005308
 267   2   6.452833   2.236639  -0.464509   0.000995   0.281635   0.003534
 268   2   4.775033   3.033367  -1.316359   0.000767   0.281635   0.002723
 269   4   1.147997  -0.117878   4.859260  -0.001643   0.212548  -0.007732
 270   4   0.810319   1.349763   5.186274  -0.004447   0.437497  -0.010166
 271   2   2.109631   0.615060   5.141168  -0.005058   0.580054  -0.008719
 272   2   1.683118   2.302250   5.343979  -0.002108   0.299545  -0.007037
 273   6   3.064255  -0.441366  -1.408750  -0.001564   0.211735  -0.007388
 274   6   2.961414  -1.449861  -0.256008  -0.004347   0.435675  -0.009978
 275   2   4.025779  -0.472601  -0.624782  -0.005256   0.577964  -0.009095
 276   2   3.782212  -1.519248   0.750377  -0.001854   0.298394  -0.006212
 277   7   4.307658  -1.760439   2.303313  -0.000618   0.067920  -0.009102
 278   7   5.208977  -1.488110   1.769420  -0.001534   0.149488  -0.010259
 279   7   6.328030  -0.809276   1.699185  -0.001444   0.149488  -0.009658
 280   7   7.087799   0.046471   2.338308  -0.001382   0.149488  -0.009247
 281   7   7.194829   0.748608   3.439932  -0.001300   0.149488  -0.008697
 282   7   6.607782   1.025941   4.578567  -0.001470   0.149488  -0.009833
 283   7   5.553398   0.771354   5.314426  -0.001446   0.149488  -0.009676
 284   7   4.438924   0.083177   5.363291  -0.001534   0.149488  -0.010265
 285   7   3.694813  -0.772787   4.706289  -0.001508   0.149488  -0.010086
 286   2   4.390074  -1.578426   1.743766  -0.001620   0.150212  -0.010782
 287   2   5.669894  -1.035470   1.257473  -0.001522   0.150212  -0.010129
 288   2   6.780455  -0.128387   1.593740  -0.001311   0.150212  -0.008730
 289   2   7.292815   0.792470   2.622685  -0.001239   0.150212  -0.008246
 290   2   7.009079   1.371430   3.946891  -0.001256   0.150212  -0.008363
 291   2   6.038839   1.384875   5.054894  -0.001221   0.150212  -0.008128
 292   2   4.756838   0.827612   5.518741  -0.001502   0.150212  -0.009998
 293   2   3.658239  -0.085121   5.159274  -0.001464   0.150212  -0.009745
 294   2   3.144125  -0.851683   4.400665  -0.000746   0.082979  -0.008987
 295   5   0.835377   5.617005   1.266833  -0.000461   0.261789  -0.001760
 296   5   1.248268   5.498609  -0.014098  -0.001585   0.527649  -0.003004
 297   5   1.701722   4.789735  -1.071056  -0.000477   0.261789  -0.001821
 298   3   2.288616   6.077375   1.174854   0.007675   0.644531   0.011908
 299   3   2.880471   5.512215  -0.422305   0.007521   0.644531   0.011669
 =====================================================

              1076304  WORDS OF DYNAMIC MEMORY USED
 EXECUTION OF GAMESS TERMINATED NORMALLY Wed Nov 23 15:18:49 2016
 DDI: 263640 bytes (0.3 MB / 0 MWords) used by master data server.

 ----------------------------------------
 CPU timing information for all processes
 ========================================
 0: 39.468 + 0.36 = 39.504
 ----------------------------------------
 ddikick.x: exited gracefully.
