----- GAMESS execution script -----

          ******************************************************
          *         GAMESS VERSION =  5 DEC 2014 (R1)          *
          *             FROM IOWA STATE UNIVERSITY             *
          * M.W.SCHMIDT, K.K.BALDRIDGE, J.A.BOATZ, S.T.ELBERT, *
          *   M.S.GORDON, J.H.JENSEN, S.KOSEKI, N.MATSUNAGA,   *
          *          K.A.NGUYEN, S.J.SU, T.L.WINDUS,           *
          *       TOGETHER WITH M.DUPUIS, J.A.MONTGOMERY       *
          *         J.COMPUT.CHEM.  14, 1347-1363(1993)        *
          **************** 64 BIT LINUX VERSION ****************

 EXECUTION OF GAMESS BEGUN Wed Nov 23 15:23:55 2016

            ECHO OF THE FIRST FEW INPUT CARDS -
 INPUT CARD>! SELECT RESTRICTED HARTREE-FOCK AS DEFAULT                                     
 INPUT CARD>$contrl scftyp=rhf $end                                                         
 INPUT CARD>                                                                                
 INPUT CARD>! THEORY: HF OR DFT                                                             
 INPUT CARD> $contrl mplevl=0 $end                                                          
 INPUT CARD>                                                                                
 INPUT CARD> $system timlim=10000 mwords=20 $end                                            
 INPUT CARD> $SCF DIRSCF=.TRUE. $end                                                        
 INPUT CARD>                                                                                
 INPUT CARD>                                                                                
 INPUT CARD>! BASIS SETS                                                                    
 INPUT CARD>! 6-311G(d,p)                                                                   
 INPUT CARD> $BASIS GBASIS=N311 NGAUSS=6 NDFUNC=1 NPFUNC=1 $END                             
 INPUT CARD>                                                                                
 INPUT CARD>! One of the following                                                          
 INPUT CARD> $guess guess=HUCKEL $end                                                       
 INPUT CARD>                                                                                
 INPUT CARD> $statpt projct=.FALSE. $end                                                    
 INPUT CARD> $STATPT IFREEZ(1)=1,2,3 $END                                                   
 INPUT CARD>                                                                                
 INPUT CARD>! Optimize the geometry with COSMO effects                                      
 INPUT CARD> $statpt opttol=0.0005 nstep=50 $end                                            
 INPUT CARD> $contrl nzvar=1 $end                                                           
 INPUT CARD> $zmat dlc=.t. auto=.t. $end                                                    
 INPUT CARD> $contrl runtyp=OPTIMIZE maxit=200 $end                                         
 INPUT CARD>                                                                                
 INPUT CARD>! Run COSMO on perfect conductor                                                
 INPUT CARD> $COSGMS PRFCND=.TRUE. $end                                                     
 INPUT CARD>                                                                                
 INPUT CARD>! Specifying RSOLV                                                              
 INPUT CARD> $COSGMS COSRAD = 1.4 $end                                                      
 INPUT CARD>                                                                                
 INPUT CARD>! available memory                                                              
 INPUT CARD> $SYSTEM MWORDS=40 $END                                                         
 INPUT CARD>                                                                                
 INPUT CARD> $DATA                                                                          
 INPUT CARD>                                                                                
 INPUT CARD>C1                                                                              
 INPUT CARD>C      6.0     -0.7072000000    1.1876000000   -0.3069000000                    
 INPUT CARD>O      8.0      0.5171000000    1.8143000000   -0.6700000000                    
 INPUT CARD>C      6.0      1.5748000000    1.0143000000   -0.1674000000                    
 INPUT CARD>C      6.0     -0.3707000000   -0.1511000000    0.3730000000                    
 INPUT CARD>C      6.0      0.9716000000    0.1758000000    0.9826000000                    
 INPUT CARD>C      6.0      2.7427000000    1.9139000000    0.2813000000                    
 INPUT CARD>C      6.0     -1.5254000000    2.1486000000    0.5739000000                    
 INPUT CARD>H      1.0     -1.3265000000    0.9900000000   -1.2103000000                    
 INPUT CARD>O      8.0     -2.7540000000    1.5582000000    0.9015000000                    
 INPUT CARD>H      1.0     -1.7054000000    3.0757000000   -0.0170000000                    
 INPUT CARD>H      1.0     -0.9868000000    2.4271000000    1.5011000000                    
 INPUT CARD>H      1.0     -3.3197000000    2.2804000000    1.2798000000                    
   40000000 WORDS OF MEMORY AVAILABLE

     BASIS OPTIONS
     -------------
     GBASIS=N311         IGAUSS=       6      POLAR=POPN311 
     NDFUNC=       1     NFFUNC=       0     DIFFSP=       F
     NPFUNC=       1      DIFFS=       F     BASNAM=        


     RUN TITLE
     ---------
                                                                                 

 THE POINT GROUP OF THE MOLECULE IS C1      
 THE ORDER OF THE PRINCIPAL AXIS IS     0

 ATOM      ATOMIC                      COORDINATES (BOHR)
           CHARGE         X                   Y                   Z
 C           6.0    -1.3364142185        2.2442385830       -0.5799569056
 O           8.0     0.9771773083        3.4285298595       -1.2661164118
 C           6.0     2.9759404855        1.9167490693       -0.3163401303
 C           6.0    -0.7005214236       -0.2855375967        0.7048677934
 C           6.0     1.8360577697        0.3322138286        1.8568447555
 C           6.0     5.1829514665        3.6167465679        0.5315799203
 C           6.0    -2.8825880217        4.0602652572        1.0845137444
 H           1.0    -2.5067215227        1.8708287278       -2.2871353629
 O           8.0    -5.2043053702        2.9445710341        1.7035879779
 H           1.0    -3.2227386995        5.8122302204       -0.0321253418
 H           1.0    -1.8647816047        4.5865539448        2.8366676802
 H           1.0    -6.2733233614        4.3093311424        2.4184713191
 O           8.0     7.1626284113        2.1408705715        1.4917496947
 H           1.0     4.5300511378        4.9671447587        2.0036764648
 H           1.0     5.8551270004        4.7099530518       -1.1364812090
 H           1.0     8.5933399566        3.3153352729        1.7922161268
 O           8.0     3.8072309475        0.3495993077       -2.3058436502
 H           1.0     5.0236475658       -0.8927065566       -1.6009758568
 O           8.0     1.4635927775        1.8046883183        4.0372106002
 H           1.0     3.0556869221        1.7357133197        5.0276159903
 O           8.0    -0.4019447176       -2.1404926263       -1.1763544274
 H           1.0    -0.1035569841       -3.7669797839       -0.2889391035
 H           1.0    -2.1767753653       -0.9560123772        2.0488409159
 H           1.0     2.9370121301       -1.3880037380        2.3808657719

          INTERNUCLEAR DISTANCES (ANGS.)




     $CONTRL OPTIONS
     ---------------
 SCFTYP=RHF          RUNTYP=OPTIMIZE     EXETYP=RUN     
 MPLEVL=       0     CITYP =NONE         CCTYP =NONE         VBTYP =NONE    
 DFTTYP=NONE         TDDFT =NONE    
 MULT  =       1     ICHARG=       0     NZVAR =       1     COORD =UNIQUE  
 PP    =NONE         RELWFN=NONE         LOCAL =NONE         NUMGRD=       F
 ISPHER=      -1     NOSYM =       0     MAXIT =     200     UNITS =ANGS    
 PLTORB=       F     MOLPLT=       F     AIMPAC=       F     FRIEND=        
 NPRINT=       7     IREST =       0     GEOM  =INPUT   
 NORMF =       0     NORMP =       0     ITOL  =      20     ICUT  =       9
 INTTYP=BEST         GRDTYP=BEST         QMTTOL= 1.0E-06

     $SYSTEM OPTIONS
     ---------------
  REPLICATED MEMORY=    40000000 WORDS (ON EVERY NODE).
 DISTRIBUTED MEMDDI=           0 MILLION WORDS IN AGGREGATE,
 MEMDDI DISTRIBUTED OVER   1 PROCESSORS IS           0 WORDS/PROCESSOR.
 TOTAL MEMORY REQUESTED ON EACH PROCESSOR=    40000000 WORDS.
 TIMLIM=       10000.00 MINUTES, OR       6.9 DAYS.
 PARALL= F  BALTYP=  DLB     KDIAG=    0  COREFL= F
 MXSEQ2=     300 MXSEQ3=     150  mem10=         0

     $COSGMS OPTIONS
     ---------------
     EPSI  =   INFTY     NSPA  =      92     COSRAD=    1.40
     DISEX =   10.00     OUTCHG=DBLCAV       COSBUG=       F
     COSWRT=       F     DCOSMO=       F

     SYMMETRY COORDINATES WILL NOT BE USED FOR 
     THE COSMO CALCULATION, EVEN IF SPECIFIED:
         -- SWITCHING TO C1 POINT GROUP --


     DEFINITION OF CAVITY
     ---------------------------
     ATOM         COORDINATES           RADIUS 
     1   -1.3364    2.2442   -0.5800    2.0000
     2    0.9772    3.4285   -1.2661    1.7200
     3    2.9759    1.9167   -0.3163    2.0000
     4   -0.7005   -0.2855    0.7049    2.0000
     5    1.8361    0.3322    1.8568    2.0000
     6    5.1830    3.6167    0.5316    2.0000
     7   -2.8826    4.0603    1.0845    2.0000
     8   -2.5067    1.8708   -2.2871    1.3000
     9   -5.2043    2.9446    1.7036    1.7200
    10   -3.2227    5.8122   -0.0321    1.3000
    11   -1.8648    4.5866    2.8367    1.3000
    12   -6.2733    4.3093    2.4185    1.3000
    13    7.1626    2.1409    1.4917    1.7200
    14    4.5301    4.9671    2.0037    1.3000
    15    5.8551    4.7100   -1.1365    1.3000
    16    8.5933    3.3153    1.7922    1.3000
    17    3.8072    0.3496   -2.3058    1.7200
    18    5.0236   -0.8927   -1.6010    1.3000
    19    1.4636    1.8047    4.0372    1.7200
    20    3.0557    1.7357    5.0276    1.3000
    21   -0.4019   -2.1405   -1.1764    1.7200
    22   -0.1036   -3.7670   -0.2889    1.3000
    23   -2.1768   -0.9560    2.0488    1.3000
    24    2.9370   -1.3880    2.3809    1.3000

          ----------------
          PROPERTIES INPUT
          ----------------

     MOMENTS            FIELD           POTENTIAL          DENSITY
 IEMOM =       1   IEFLD =       0   IEPOT =       0   IEDEN =       0
 WHERE =COMASS     WHERE =NUCLEI     WHERE =NUCLEI     WHERE =NUCLEI  
 OUTPUT=BOTH       OUTPUT=BOTH       OUTPUT=BOTH       OUTPUT=BOTH    
 IEMINT=       0   IEFINT=       0                     IEDINT=       0
                                                       MORB  =       0
          EXTRAPOLATION IN EFFECT
          SOSCF IN EFFECT
 ORBITAL PRINTING OPTION: NPREO=     1   300     2     1

     -------------------------------
     INTEGRAL TRANSFORMATION OPTIONS
     -------------------------------
     NWORD  =            0
     CUTOFF = 1.0E-09     MPTRAN =       0
     DIRTRF =       T     AOINTS =DUP     

          ----------------------
          INTEGRAL INPUT OPTIONS
          ----------------------
 NOPK  =       1 NORDER=       0 SCHWRZ=       T


 -----------------------------------------------
  STATISTICS ON AUTOMATIC COORDINATE GENERATION 
 -----------------------------------------------
  NUMBER OF USER SPECIFIED BONDS                             0
  NUMBER OF BONDS                                           24
  NUMBER OF ANGLES                                          42
  NUMBER OF TORSIONS                                        66
  NUMBER OF EXTRA COORD.                                     0
  NUMBER OF EXTRA COORD. FOR CONSTRAINTS                     0
  NUMBER OF CONSTRAINED COORD.                               0

  TOTAL NUMBER OF PRIMITIVES                               132
 -----------------------------------------------

   --- ENCODED Z MATRIX ---
 COORD  TYPE   I   J   K   L   M   N
    1      1    1   8
    2      1    1   4
    3      1    1   2
    4      1    1   7
    5      1    2   3
    6      1    3  17
    7      1    3   5
    8      1    3   6
    9      1    4  21
   10      1    4  23
   11      1    4   5
   12      1    5  24
   13      1    5  19
   14      1    6  15
   15      1    6  14
   16      1    6  13
   17      1    7  11
   18      1    7  10
   19      1    7   9
   20      1    9  12
   21      1   13  16
   22      1   17  18
   23      1   19  20
   24      1   21  22
   25      2    1   7  11
   26      2    1   4   5
   27      2    1   4  21
   28      2    1   2   3
   29      2    1   7   9
   30      2    1   7  10
   31      2    1   4  23
   32      2    2   3  17
   33      2    2   3   5
   34      2    2   1   7
   35      2    2   1   8
   36      2    2   3   6
   37      2    2   1   4
   38      2    3   5  19
   39      2    3   6  13
   40      2    3   6  14
   41      2    3   6  15
   42      2    3   5  24
   43      2    3   5   4
   44      2    3  17  18
   45      2    4   5  24
   46      2    4  21  22
   47      2    4   1   8
   48      2    4   1   7
   49      2    4   5  19
   50      2    5   4  23
   51      2    5   4  21
   52      2    5   3   6
   53      2    5   3  17
   54      2    5  19  20
   55      2    6  13  16
   56      2    6   3  17
   57      2    7   1   8
   58      2    7   9  12
   59      2    9   7  10
   60      2    9   7  11
   61      2   10   7  11
   62      2   13   6  14
   63      2   13   6  15
   64      2   14   6  15
   65      2   19   5  24
   66      2   21   4  23
   67      3    1   4   5   3
   68      3    1   4  21  22
   69      3    1   7   9  12
   70      3    1   4   5  19
   71      3    1   2   3   6
   72      3    1   2   3   5
   73      3    1   2   3  17
   74      3    1   4   5  24
   75      3    2   1   7  11
   76      3    2   3  17  18
   77      3    2   1   4  23
   78      3    2   1   7  10
   79      3    2   1   4   5
   80      3    2   1   7   9
   81      3    2   3   6  13
   82      3    2   1   4  21
   83      3    2   3   6  14
   84      3    2   3   6  15
   85      3    2   3   5  19
   86      3    2   3   5  24
   87      3    2   3   5   4
   88      3    3   2   1   4
   89      3    3   2   1   8
   90      3    3   6  13  16
   91      3    3   5  19  20
   92      3    3   5   4  23
   93      3    3   5   4  21
   94      3    3   2   1   7
   95      3    4   1   7  10
   96      3    4   5  19  20
   97      3    4   1   7   9
   98      3    4   1   7  11
   99      3    4   5   3   6
  100      3    4   5   3  17
  101      3    5   3   6  15
  102      3    5   3   6  14
  103      3    5   3   6  13
  104      3    5   4   1   7
  105      3    5   4  21  22
  106      3    5   4   1   8
  107      3    5   3  17  18
  108      3    6   3   5  19
  109      3    6   3  17  18
  110      3    6   3   5  24
  111      3    7   1   4  23
  112      3    7   1   4  21
  113      3    8   1   4  23
  114      3    8   1   7  10
  115      3    8   1   7   9
  116      3    8   1   4  21
  117      3    8   1   7  11
  118      3   10   7   9  12
  119      3   11   7   9  12
  120      3   13   6   3  17
  121      3   14   6  13  16
  122      3   14   6   3  17
  123      3   15   6   3  17
  124      3   15   6  13  16
  125      3   17   3   5  19
  126      3   17   3   5  24
  127      3   19   5   4  23
  128      3   19   5   4  21
  129      3   20  19   5  24
  130      3   21   4   5  24
  131      3   22  21   4  23
  132      3   23   4   5  24

          INDEP./SYM. INTERNAL COORDINATES
          --------------------------------
 CRD  1=  -0.1252 (  3) -0.1412 (  5) -0.1113 ( 25) -0.1077 ( 26)  0.3189 ( 29)
          -0.3150 ( 34) -0.2082 ( 36)  0.2848 ( 39) -0.1165 ( 40) -0.1097 ( 47)
           0.2426 ( 48) -0.1195 ( 49)  0.1423 ( 51)  0.1188 ( 52) -0.1219 ( 55)
          -0.1402 ( 58)  0.1190 ( 72) -0.1131 ( 88) -0.2352 ( 99) -0.1033 (100)
           0.2396 (104) -0.1209 (108)  0.1046 (109) -0.1318 (110)  0.1534 (111)
           0.1413 (112)
 CRD  2=   0.1243 (  2) -0.1605 (  7) -0.1093 (  8)  0.2057 ( 29) -0.1585 ( 32)
          -0.1970 ( 34)  0.1993 ( 36) -0.1041 ( 38) -0.2769 ( 39)  0.1360 ( 41)
           0.2582 ( 48) -0.3955 ( 52)  0.1595 ( 53)  0.1212 ( 56)  0.1006 ( 63)
           0.3017 ( 71)  0.1386 ( 73)  0.2225 ( 94)  0.1198 (107) -0.1877 (109)
 CRD  3=   0.1675 (  2)  0.1375 (  4)  0.1028 (  7)  0.1105 ( 11)  0.1270 ( 25)
           0.1569 ( 26)  0.1666 ( 28) -0.2016 ( 37)  0.1176 ( 38) -0.1066 ( 43)
           0.3967 ( 48) -0.1081 ( 51)  0.1731 ( 52) -0.2376 ( 57)  0.1487 ( 69)
          -0.2130 ( 71) -0.1330 ( 80)  0.1514 ( 81) -0.1106 ( 85)  0.1363 ( 89)
           0.3873 ( 94) -0.1054 ( 97) -0.1467 (104)
 CRD  4=   0.1189 (  7) -0.1183 ( 25)  0.3251 ( 29)  0.1003 ( 32) -0.1300 ( 33)
          -0.3771 ( 39)  0.1961 ( 40) -0.1227 ( 44) -0.1486 ( 49)  0.1875 ( 52)
           0.1871 ( 54)  0.1441 ( 55) -0.2796 ( 56) -0.1144 ( 60)  0.1258 ( 62)
          -0.1546 ( 71)  0.1109 ( 85) -0.1199 ( 90)  0.1499 ( 99)  0.1305 (104)
           0.2472 (108)  0.1357 (110)  0.1063 (112)
 CRD  5=  -0.1962 (  3) -0.1070 (  6) -0.2096 (  7) -0.3546 (  8) -0.1632 ( 11)
          -0.1019 ( 16) -0.1309 ( 27) -0.1263 ( 28)  0.2057 ( 33) -0.1711 ( 36)
           0.1375 ( 38) -0.2230 ( 39) -0.1993 ( 43) -0.1640 ( 44)  0.1175 ( 46)
          -0.2363 ( 53)  0.1654 ( 56)  0.1069 ( 62)  0.1320 ( 63)  0.1133 ( 66)
          -0.1887 ( 73)  0.1129 ( 79)  0.1365 ( 82) -0.1510 ( 93) -0.1189 (101)
          -0.1270 (102) -0.1320 (103)  0.1225 (107)  0.1034 (112)
 CRD  6=  -0.2234 (  3) -0.3537 (  4) -0.2298 (  5)  0.2581 (  7) -0.1693 (  8)
          -0.1125 ( 19) -0.1106 ( 20) -0.3192 ( 29) -0.1602 ( 34)  0.1361 ( 37)
          -0.1772 ( 39) -0.1045 ( 46)  0.1666 ( 53)  0.1396 ( 59)  0.1575 ( 60)
           0.1159 ( 67)  0.1059 ( 70)  0.1240 ( 73) -0.1047 ( 76)  0.1353 ( 81)
           0.1117 ( 93)  0.1036 ( 94)  0.1262 (103)  0.1018 (128)
 CRD  7=  -0.1014 (  4) -0.1596 (  6)  0.1537 (  9)  0.2974 ( 11) -0.1743 ( 27)
          -0.1833 ( 29) -0.1047 ( 38) -0.1539 ( 39) -0.2676 ( 44)  0.2815 ( 46)
           0.1024 ( 48)  0.2723 ( 51) -0.1166 ( 54)  0.1030 ( 68) -0.2250 ( 82)
          -0.1232 ( 85)  0.1138 ( 91) -0.1317 (100)  0.1598 (105) -0.1969 (112)
          -0.1422 (116) -0.1707 (125) -0.1694 (128)
 CRD  8=  -0.1691 (  2) -0.1071 (  4)  0.1232 (  5)  0.1542 (  6)  0.1975 (  8)
           0.2156 ( 13)  0.1247 ( 26) -0.2522 ( 27) -0.1301 ( 32)  0.1777 ( 38)
           0.1104 ( 39)  0.2604 ( 44)  0.2147 ( 46) -0.1164 ( 47) -0.1082 ( 49)
          -0.1276 ( 50)  0.1175 ( 51) -0.1065 ( 52)  0.3164 ( 54)  0.1115 ( 56)
           0.1066 ( 70)  0.1157 ( 80) -0.2003 ( 93)  0.1274 ( 97)  0.1169 (108)
           0.1914 (125) -0.1194 (130)
 CRD  9=  -0.1490 (  2) -0.3015 (  4) -0.2139 (  6)  0.3348 (  8) -0.1641 (  9)
          -0.1578 ( 11) -0.1889 ( 13) -0.1197 ( 25)  0.1060 ( 40) -0.2337 ( 44)
          -0.2197 ( 46) -0.1229 ( 53) -0.3001 ( 54) -0.1046 ( 58)  0.1275 ( 70)
          -0.1294 ( 73) -0.1532 ( 85) -0.1226 ( 86)  0.1115 (128)
 CRD 10=  -0.1019 (  3) -0.2002 (  4) -0.1548 (  5)  0.1050 (  8)  0.1315 (  9)
           0.2600 ( 11)  0.1804 ( 13)  0.1017 ( 23) -0.1315 ( 25)  0.2618 ( 29)
          -0.1283 ( 32) -0.1376 ( 38)  0.1880 ( 46) -0.1270 ( 48)  0.2433 ( 49)
           0.1292 ( 54) -0.2197 ( 58) -0.1077 ( 59) -0.1156 ( 70) -0.1392 ( 71)
          -0.1513 ( 72) -0.1684 ( 73) -0.1128 ( 80)  0.1117 ( 81)  0.1154 ( 96)
          -0.1072 ( 97)  0.1392 ( 99)  0.2085 (100)  0.1102 (126) -0.1500 (128)
 CRD 11=   0.2233 (  2) -0.1117 (  5) -0.1042 (  6) -0.1744 (  7)  0.2393 (  8)
           0.2041 (  9) -0.2121 ( 11) -0.1348 ( 23)  0.1381 ( 24)  0.1398 ( 25)
          -0.1722 ( 26)  0.1698 ( 27) -0.2446 ( 29)  0.1609 ( 43) -0.1176 ( 45)
           0.1640 ( 46)  0.1298 ( 48) -0.1410 ( 53)  0.1016 ( 56)  0.1647 ( 65)
          -0.1469 ( 68) -0.1179 ( 73)  0.1313 ( 76)  0.1173 ( 85)  0.1573 (100)
           0.1361 (108)  0.1050 (112)  0.1959 (125)
 CRD 12=  -0.1527 (  2) -0.2207 (  6) -0.2059 (  7) -0.2749 (  8) -0.1443 ( 11)
          -0.1518 ( 14)  0.1433 ( 36)  0.3531 ( 39) -0.1900 ( 41) -0.2892 ( 44)
           0.1589 ( 53) -0.2673 ( 55) -0.1721 ( 56) -0.1437 ( 63)  0.1593 ( 64)
           0.1376 ( 73)  0.1238 ( 81)  0.1056 ( 99)  0.1244 (103)  0.1361 (108)
          -0.1061 (109) -0.1204 (128)
 CRD 13=  -0.2267 (  2) -0.1690 (  4)  0.1106 (  6) -0.2058 (  7) -0.2496 (  9)
          -0.1497 ( 18) -0.1952 ( 19) -0.1198 ( 23) -0.1598 ( 24)  0.1883 ( 25)
          -0.1592 ( 30) -0.1377 ( 42) -0.2165 ( 46) -0.1585 ( 49)  0.1082 ( 55)
          -0.1073 ( 57) -0.3497 ( 58)  0.1155 ( 65)  0.2243 ( 69) -0.1687 ( 80)
          -0.1103 ( 93) -0.1385 ( 97) -0.1049 (104) -0.1002 (111) -0.1038 (112)
          -0.1388 (115)
 CRD 14=   0.1522 (  2) -0.1880 (  6) -0.1139 (  9)  0.1679 ( 11)  0.2258 ( 13)
           0.3161 ( 16)  0.1398 ( 21)  0.1031 ( 23)  0.1117 ( 39) -0.2737 ( 40)
          -0.3028 ( 44) -0.2476 ( 46)  0.3571 ( 54)  0.3933 ( 55)  0.1037 ( 62)
          -0.1021 (121)  0.1045 (130)
 CRD 15=  -0.1275 (  9)  0.1021 ( 11)  0.1400 ( 13) -0.3626 ( 16)  0.1293 ( 19)
          -0.1511 ( 21) -0.1161 ( 39)  0.2994 ( 41) -0.1634 ( 44) -0.2360 ( 46)
           0.2755 ( 54) -0.4725 ( 55)  0.1366 ( 58) -0.1466 ( 63)  0.1333 (122)
          -0.1374 (124)
 CRD 16=   0.1678 (  2)  0.1274 (  5)  0.1117 (  7)  0.1052 (  9) -0.1057 ( 16)
          -0.4362 ( 19) -0.1903 ( 20)  0.1307 ( 25) -0.1287 ( 29)  0.2835 ( 30)
           0.1073 ( 41) -0.1049 ( 44) -0.1675 ( 55) -0.5618 ( 58) -0.1299 ( 59)
           0.1133 ( 78)  0.1216 (118) -0.1074 (119)
 CRD 17=  -0.1633 (  2) -0.1460 (  5) -0.1762 (  6)  0.2546 (  7)  0.1137 (  9)
          -0.1479 ( 11)  0.1385 ( 14) -0.1516 ( 15) -0.1170 ( 18) -0.1532 ( 22)
           0.2370 ( 25) -0.2563 ( 30) -0.3167 ( 40)  0.2607 ( 41) -0.2144 ( 44)
           0.1827 ( 46) -0.1610 ( 60)  0.1097 ( 62) -0.1079 ( 63)  0.1844 ( 69)
           0.2495 ( 90) -0.1040 (120)
 CRD 18=   0.1707 (  2) -0.3428 (  4)  0.1245 ( 10) -0.1133 ( 15) -0.2895 ( 25)
           0.2413 ( 46)  0.1980 ( 47) -0.1185 ( 50) -0.1054 ( 54) -0.1396 ( 57)
           0.2336 ( 60)  0.1015 ( 66) -0.1383 ( 68) -0.1092 ( 77) -0.1280 ( 80)
          -0.1483 ( 81) -0.1614 ( 89)  0.1342 ( 90) -0.1522 ( 95) -0.2153 ( 97)
          -0.1111 ( 98) -0.1079 (103) -0.1066 (105)  0.1192 (116)  0.1935 (119)
          -0.1150 (120)
 CRD 19=   0.1186 (  6)  0.1652 ( 22) -0.1279 ( 25)  0.1180 ( 30) -0.2808 ( 40)
           0.3396 ( 41)  0.1142 ( 46) -0.1049 ( 54)  0.3251 ( 62) -0.2510 ( 63)
           0.2270 ( 81)  0.1406 (101)  0.1242 (102)  0.2896 (103)  0.2826 (120)
          -0.1850 (121)  0.1172 (122)  0.1336 (123) -0.1973 (124)
 CRD 20=  -0.2861 (  4)  0.1979 (  5)  0.1446 (  6)  0.1076 (  9)  0.1475 ( 13)
           0.1850 ( 22)  0.1446 ( 23)  0.1048 ( 24)  0.1870 ( 25)  0.1471 ( 27)
          -0.3604 ( 30)  0.1163 ( 32)  0.1117 ( 47) -0.1089 ( 51)  0.1269 ( 54)
          -0.1396 ( 57)  0.2744 ( 59) -0.1732 ( 60)  0.1406 ( 80) -0.1378 ( 89)
           0.1075 (106)  0.1115 (113)  0.1644 (115)  0.1697 (116) -0.2087 (118)
          -0.1375 (125) -0.1063 (126)
 CRD 21=  -0.1597 (  2)  0.1006 (  4)  0.1226 (  8) -0.1444 (  9)  0.1829 ( 10)
           0.1084 ( 11)  0.1492 ( 13)  0.1087 ( 14)  0.1471 ( 17)  0.1413 ( 23)
          -0.1791 ( 24) -0.1776 ( 29)  0.1210 ( 30) -0.1345 ( 34)  0.1290 ( 41)
          -0.1664 ( 46) -0.1395 ( 47)  0.1226 ( 49) -0.1154 ( 51)  0.1370 ( 57)
           0.1346 ( 60) -0.1727 ( 68) -0.1105 ( 81)  0.1723 ( 82) -0.1185 ( 85)
           0.1204 ( 89)  0.1205 ( 90) -0.1052 ( 93)  0.1125 (104)  0.1820 (111)
           0.2633 (112)  0.1261 (116) -0.1277 (125) -0.1646 (128) -0.1447 (131)
 CRD 22=   0.1034 (  1)  0.1276 ( 10)  0.2327 ( 11) -0.3268 ( 12) -0.1349 ( 26)
           0.1453 ( 31)  0.2031 ( 38) -0.1356 ( 40) -0.1942 ( 42)  0.1561 ( 44)
          -0.1011 ( 46) -0.2793 ( 54)  0.1124 ( 59) -0.1552 ( 63) -0.1162 ( 65)
          -0.1163 ( 66)  0.1646 ( 70)  0.1317 ( 86) -0.1810 ( 92) -0.1220 ( 93)
           0.1714 ( 99)  0.2044 (110)  0.1129 (111)  0.1294 (126)  0.1197 (128)
          -0.1418 (129)
 CRD 23=  -0.2191 (  1) -0.2292 (  2) -0.1283 (  7)  0.1540 (  9) -0.2755 ( 10)
          -0.3554 ( 12)  0.1422 ( 13)  0.1265 ( 22)  0.1656 ( 23)  0.1688 ( 24)
          -0.1465 ( 25)  0.1342 ( 27)  0.1075 ( 30) -0.1087 ( 45) -0.1427 ( 47)
          -0.1764 ( 59)  0.2040 ( 60) -0.1063 ( 80)  0.1219 ( 95) -0.1459 ( 96)
           0.1203 ( 98) -0.1605 (115)  0.1248 (119)  0.1595 (128)  0.1084 (130)
 CRD 24=   0.3674 (  1) -0.1585 (  2) -0.1095 (  3)  0.1141 (  8) -0.2304 ( 10)
           0.1239 ( 11)  0.3068 ( 17) -0.1852 ( 18)  0.1253 ( 25)  0.1103 ( 26)
          -0.1441 ( 31)  0.1035 ( 38)  0.1224 ( 40) -0.1165 ( 43) -0.1333 ( 44)
           0.1453 ( 45) -0.1124 ( 52) -0.1165 ( 65)  0.1963 ( 69) -0.1112 ( 91)
           0.1026 ( 92) -0.1252 ( 94) -0.1167 ( 95) -0.2093 ( 97)  0.1366 (104)
           0.1137 (112) -0.1415 (115)  0.1457 (127)
 CRD 25=   0.2803 (  1)  0.1458 (  2)  0.1390 (  4) -0.2644 ( 11) -0.2150 ( 12)
           0.1542 ( 13) -0.1230 ( 14)  0.1771 ( 15)  0.1760 ( 23)  0.1258 ( 25)
          -0.1190 ( 27)  0.2139 ( 31) -0.1863 ( 45) -0.1104 ( 48)  0.1002 ( 49)
          -0.1954 ( 50)  0.1045 ( 51) -0.1676 ( 77)  0.1024 ( 81) -0.1055 ( 82)
          -0.1164 ( 85) -0.1370 ( 86) -0.1251 ( 90) -0.1210 (108) -0.1417 (110)
          -0.1028 (111) -0.1559 (113) -0.1209 (125) -0.1416 (126)  0.1244 (131)
          -0.1338 (132)
 CRD 26=   0.1077 (  6)  0.4730 ( 10) -0.1275 ( 12)  0.1032 ( 24) -0.1130 ( 41)
          -0.1174 ( 42) -0.1771 ( 44)  0.2167 ( 46) -0.1163 ( 49)  0.1584 ( 50)
          -0.1798 ( 51)  0.1438 ( 54)  0.1037 ( 57)  0.1191 ( 67)  0.1909 ( 70)
           0.1829 ( 74) -0.1283 ( 79)  0.1121 ( 89) -0.1180 ( 99) -0.1597 (104)
          -0.1945 (106)  0.1709 (127) -0.1115 (129)  0.1629 (132)
 CRD 27=  -0.2129 (  3) -0.1630 (  5)  0.1070 (  6)  0.1072 (  8) -0.1871 ( 10)
          -0.3131 ( 12)  0.2247 ( 14) -0.2212 ( 15) -0.2339 ( 17)  0.2187 ( 18)
           0.1360 ( 28) -0.1640 ( 44)  0.1048 ( 59) -0.1118 ( 60) -0.1924 ( 62)
           0.1514 ( 63) -0.1275 ( 69)  0.1323 ( 83)  0.1322 ( 84)  0.1264 ( 90)
          -0.1415 ( 95) -0.1381 ( 98)  0.2250 (101)  0.2251 (102)  0.1134 (121)
           0.1738 (122)  0.1737 (123)
 CRD 28=  -0.1852 (  2) -0.1873 (  5) -0.1509 (  6) -0.1961 (  7) -0.1447 ( 10)
          -0.1714 ( 14)  0.2677 ( 15) -0.2340 ( 17)  0.2063 ( 18) -0.1863 ( 22)
           0.1238 ( 28) -0.1056 ( 37)  0.1145 ( 54)  0.1212 ( 59) -0.1023 ( 60)
           0.1486 ( 62) -0.1296 ( 63) -0.1166 ( 69) -0.1565 ( 83) -0.1521 ( 84)
          -0.1774 ( 95) -0.1665 ( 98) -0.1430 (101) -0.1474 (102) -0.1083 (107)
          -0.1530 (114) -0.1421 (117) -0.2053 (122) -0.2009 (123)  0.1052 (132)
 CRD 29=   0.4559 (  1)  0.1512 (  3) -0.2594 (  6) -0.1113 (  7) -0.1509 (  8)
           0.4352 ( 14) -0.1007 ( 21) -0.1490 ( 40)  0.3165 ( 44)  0.1275 ( 52)
           0.1058 ( 63)  0.1067 ( 64) -0.1330 ( 71) -0.1134 ( 79)  0.1084 ( 83)
           0.1135 (109) -0.1014 (121)  0.1069 (124)
 CRD 30=   0.1453 ( 14)  0.1371 ( 15) -0.5563 ( 17) -0.6313 ( 18)  0.1212 ( 25)
           0.1270 ( 30)  0.1720 ( 58) -0.2517 ( 61)  0.1542 (118) -0.1470 (119)
 CRD 31=   0.1511 (  1) -0.1027 (  6) -0.4881 ( 14) -0.6329 ( 15) -0.1341 ( 17)
          -0.1571 ( 18)  0.1277 ( 41)  0.1593 ( 44)  0.1520 ( 55) -0.2225 ( 64)
           0.1027 ( 84)  0.1206 (121) -0.1330 (124)
 CRD 32=   0.4480 (  3) -0.1799 (  5)  0.1191 (  7) -0.1258 (  8)  0.2067 (  9)
           0.1906 ( 10)  0.1409 ( 11) -0.1197 ( 12) -0.1615 ( 14) -0.1927 ( 22)
          -0.1374 ( 24)  0.1496 ( 35) -0.2232 ( 46) -0.1251 ( 57)  0.1183 ( 63)
          -0.1687 ( 74)  0.1318 ( 76)  0.1402 (101)  0.1734 (106)  0.1607 (109)
           0.1360 (116)  0.1077 (126) -0.1434 (130)
 CRD 33=   0.2193 (  3)  0.1271 (  5)  0.1945 (  6)  0.1579 (  7) -0.1004 (  8)
          -0.1535 ( 10)  0.3908 ( 12)  0.2574 ( 13) -0.1941 ( 17)  0.1628 ( 18)
           0.1607 ( 22) -0.1345 ( 28)  0.1050 ( 37) -0.1338 ( 47) -0.2279 ( 54)
           0.1002 ( 57)  0.1218 ( 59) -0.1586 ( 75)  0.1000 ( 76) -0.2316 ( 78)
          -0.1215 ( 80)  0.1231 ( 89) -0.1585 ( 95)  0.1142 (107) -0.2529 (114)
          -0.1428 (115) -0.1798 (117)
 CRD 34=   0.2063 (  1)  0.1572 (  3) -0.1665 (  5)  0.1692 (  6) -0.5195 (  9)
          -0.2634 ( 10) -0.1058 ( 12)  0.1066 ( 16) -0.1511 ( 22) -0.1827 ( 44)
           0.3882 ( 46)  0.1559 ( 50) -0.1115 ( 55) -0.1207 ( 66)  0.1678 ( 77)
           0.1489 (111)  0.1894 (113)
 CRD 35=   0.1564 (  9)  0.1751 ( 12)  0.4126 ( 13)  0.3018 ( 16) -0.3491 ( 19)
          -0.1048 ( 46) -0.3068 ( 54) -0.2552 ( 55)  0.3035 ( 58) -0.1137 ( 59)
           0.1310 ( 61) -0.1283 ( 64)  0.1036 ( 74)  0.1350 ( 78)  0.1069 ( 95)
           0.1097 (101)  0.1148 (114)  0.1079 (132)
 CRD 36=  -0.1103 (  5) -0.5056 ( 16) -0.3911 ( 19)  0.1094 ( 21)  0.4203 ( 55)
           0.3310 ( 58) -0.1071 ( 59)  0.1374 ( 61) -0.1125 ( 62) -0.1139 ( 63)
           0.1696 ( 64)  0.1140 ( 78)  0.1091 ( 83) -0.1051 ( 84)  0.1202 (102)
          -0.1023 (117)  0.1064 (122) -0.1078 (123)
 CRD 37=   0.2258 (  5) -0.1075 (  9) -0.4053 ( 13)  0.2511 ( 16) -0.3798 ( 19)
           0.1023 ( 42)  0.2982 ( 54) -0.2051 ( 55)  0.3058 ( 58)  0.1108 ( 61)
          -0.1009 ( 74) -0.1956 ( 75) -0.1046 ( 80) -0.1328 ( 98) -0.1733 (117)
          -0.1049 (132)
 CRD 38=   0.3878 (  1) -0.1236 (  3)  0.4301 (  6)  0.2761 (  9)  0.1156 ( 10)
          -0.1306 ( 12) -0.1516 ( 17) -0.2219 ( 23) -0.2618 ( 44) -0.1820 ( 46)
           0.2011 ( 68) -0.1028 ( 83) -0.1023 ( 84)  0.1444 ( 89)  0.1279 ( 94)
           0.1747 (105)  0.1322 (131)
 CRD 39=   0.1949 (  3) -0.1631 (  5)  0.1078 (  7) -0.1496 ( 11) -0.1017 ( 12)
           0.1654 ( 14)  0.1042 ( 18)  0.1843 ( 20)  0.4913 ( 21)  0.2130 ( 23)
          -0.1214 ( 28)  0.1179 ( 33)  0.1190 ( 40)  0.1208 ( 45) -0.1132 ( 76)
           0.1262 ( 86)  0.2544 ( 91)  0.2875 ( 96)  0.1077 (116) -0.1303 (124)
           0.1640 (129)  0.1221 (132)
 CRD 40=  -0.1283 (  3) -0.1998 (  6)  0.1778 ( 10)  0.1357 ( 13) -0.1586 ( 14)
           0.1781 ( 15)  0.2015 ( 18)  0.4946 ( 20)  0.1944 ( 22) -0.2783 ( 23)
          -0.1380 ( 24)  0.1585 ( 68)  0.1079 ( 69)  0.1649 ( 90) -0.1668 ( 91)
          -0.1476 ( 96)  0.1497 (105)  0.1332 (113)  0.1498 (118)  0.1587 (121)
           0.1405 (124)
 CRD 41=  -0.1127 (  4)  0.1411 (  5)  0.1026 (  6)  0.1277 (  8) -0.1729 ( 15)
           0.5631 ( 20) -0.5072 ( 21) -0.2095 ( 22)  0.1852 ( 23)  0.1038 ( 25)
           0.1171 ( 55) -0.1117 ( 58) -0.1478 ( 90)  0.1355 ( 91)  0.1334 ( 96)
          -0.1774 (121)
 CRD 42=   0.1038 (  4) -0.2445 (  6)  0.1554 (  7)  0.1016 (  8) -0.1852 ( 12)
          -0.1765 ( 14)  0.1165 ( 15) -0.3659 ( 20) -0.4192 ( 21)  0.1107 ( 22)
          -0.2830 ( 24)  0.1257 ( 68)  0.1060 ( 69)  0.1330 ( 90)  0.1825 ( 91)
           0.2014 ( 96)  0.1125 (105)  0.1209 (119)  0.1088 (121)  0.1491 (124)
           0.1471 (129)  0.1192 (132)
 CRD 43=   0.1879 (  5) -0.1346 (  7)  0.1102 ( 10)  0.1886 ( 14) -0.1652 ( 15)
          -0.1517 ( 17)  0.1255 ( 18) -0.1900 ( 20)  0.1212 ( 21) -0.3195 ( 22)
           0.1764 ( 23) -0.3404 ( 24)  0.1156 ( 46)  0.1260 ( 68)  0.2065 ( 69)
          -0.2383 ( 90) -0.1845 ( 91) -0.2085 ( 96)  0.1236 (105)  0.1757 (118)
           0.1818 (119) -0.2040 (121) -0.2137 (124) -0.1600 (129)
 CRD 44=   0.1489 (  1) -0.1325 (  2) -0.1577 (  5)  0.2192 ( 12) -0.1213 ( 13)
          -0.2372 ( 17)  0.2122 ( 18) -0.1105 ( 21)  0.1283 ( 22)  0.4409 ( 23)
           0.2413 ( 24) -0.1356 ( 68)  0.2832 ( 69)  0.1088 ( 76)  0.1049 ( 95)
           0.1418 (114)  0.1092 (115)  0.1252 (117)  0.2524 (118)  0.2592 (119)
 CRD 45=   0.1050 (  9)  0.1298 ( 12) -0.1094 ( 14)  0.1436 ( 17) -0.1114 ( 18)
           0.1508 ( 21)  0.3976 ( 23) -0.4609 ( 24) -0.1124 ( 33) -0.2177 ( 69)
           0.2325 ( 76)  0.1698 ( 90)  0.1275 (107)  0.1668 (109) -0.1780 (118)
          -0.1916 (119)  0.1399 (121)  0.1753 (124)
 CRD 46=   0.3373 (  5) -0.1328 ( 12)  0.1549 ( 15)  0.2193 ( 21) -0.5902 ( 22)
           0.2961 ( 24)  0.1129 ( 44)  0.2133 ( 90)  0.1111 ( 91)  0.1218 ( 96)
           0.1859 (121)  0.1084 (123)  0.1891 (124)
 CRD 47=   0.1250 (  9) -0.3442 ( 10)  0.1622 ( 11)  0.1067 ( 20) -0.2850 ( 23)
          -0.3886 ( 24) -0.3491 ( 68)  0.1390 ( 69) -0.2966 (105) -0.1177 (106)
          -0.1144 (113)  0.1029 (114)  0.1035 (118)  0.1290 (119) -0.3073 (131)
 CRD 48=   0.1753 (  3) -0.1374 (  7)  0.1173 ( 12) -0.1464 ( 21) -0.1381 ( 22)
           0.2336 ( 23) -0.1099 ( 24) -0.1190 ( 28)  0.1075 ( 33) -0.1304 ( 36)
          -0.1119 ( 47) -0.4605 ( 76)  0.1235 ( 83)  0.1197 ( 85)  0.1125 ( 89)
           0.1313 ( 90) -0.1082 ( 91) -0.3476 (107) -0.3413 (109) -0.1052 (117)
           0.1407 (121)  0.1037 (122)
 CRD 49=  -0.1085 (  2) -0.1811 (  4) -0.1041 (  9)  0.1059 ( 17)  0.1530 ( 18)
           0.2555 ( 19) -0.2784 ( 20)  0.2037 ( 25) -0.1060 ( 28)  0.1623 ( 29)
           0.2306 ( 30) -0.1283 ( 34)  0.1257 ( 37) -0.1455 ( 57)  0.1923 ( 58)
          -0.2665 ( 59) -0.1855 ( 60) -0.1539 ( 61) -0.1147 ( 68) -0.1142 ( 82)
          -0.1283 ( 89) -0.1020 (105)  0.1291 (106)  0.1602 (118) -0.2977 (119)
          -0.1528 (131)
 CRD 50=  -0.1680 (  8)  0.1684 ( 14)  0.1243 ( 15)  0.1767 ( 16) -0.2360 ( 21)
          -0.1322 ( 23) -0.1011 ( 36)  0.1592 ( 39)  0.1951 ( 40)  0.2058 ( 41)
           0.1111 ( 53)  0.1944 ( 55) -0.1504 ( 56) -0.1521 ( 62) -0.2208 ( 63)
          -0.1898 ( 64)  0.1440 ( 73)  0.1384 ( 86) -0.1199 (100)  0.2739 (107)
           0.2483 (109)  0.2924 (121) -0.1683 (124) -0.1796 (125) -0.1995 (129)
 CRD 51=  -0.1826 (  1)  0.1324 (  3) -0.1394 (  4) -0.2011 (  5)  0.1830 (  6)
          -0.1042 ( 10)  0.2225 ( 12) -0.1857 ( 13)  0.1489 ( 17) -0.1434 ( 22)
          -0.1352 ( 23)  0.1303 ( 31)  0.1091 ( 49)  0.1626 ( 54) -0.1151 ( 60)
          -0.1261 ( 61)  0.1138 ( 68)  0.1135 ( 69)  0.1210 ( 74)  0.1137 ( 80)
          -0.1737 ( 85) -0.1012 ( 94)  0.1483 (105)  0.1442 (112)  0.2539 (118)
           0.1368 (124) -0.1656 (125)  0.2957 (131)
 CRD 52=   0.1115 (  1) -0.1520 (  5)  0.1137 (  7) -0.2826 (  8)  0.1035 ( 12)
           0.2749 ( 16) -0.1927 ( 22)  0.1004 ( 32)  0.1021 ( 36)  0.1526 ( 44)
          -0.1155 ( 45) -0.1451 ( 53) -0.2177 ( 62)  0.1025 ( 70) -0.1045 ( 73)
          -0.1041 ( 81) -0.1259 ( 84) -0.1305 ( 86)  0.1212 ( 91)  0.1060 (102)
          -0.1213 (109) -0.1051 (118)  0.1095 (120)  0.2743 (122) -0.1756 (124)
          -0.1326 (126)  0.1053 (127)  0.1313 (128)  0.2647 (129)
 CRD 53=   0.2120 (  3)  0.1171 (  4)  0.1797 (  7) -0.2265 ( 10)  0.1299 ( 18)
          -0.1852 ( 19)  0.1501 ( 24) -0.1440 ( 27) -0.1122 ( 28) -0.1754 ( 35)
           0.1042 ( 37) -0.1568 ( 46)  0.1886 ( 47)  0.1478 ( 60)  0.1469 ( 66)
          -0.1477 ( 78) -0.1413 ( 80) -0.1592 ( 89) -0.1351 ( 91) -0.1432 ( 93)
          -0.1424 ( 96)  0.1415 (105)  0.1348 (114)  0.1412 (115)  0.2839 (117)
          -0.1068 (118) -0.1285 (119) -0.2215 (128) -0.2374 (129)  0.1456 (132)
 CRD 54=   0.2244 (  1)  0.1278 (  2) -0.1555 (  3) -0.2450 (  4) -0.1103 (  6)
           0.1238 (  7)  0.1330 (  8)  0.2437 (  9) -0.1622 ( 10) -0.1262 ( 11)
          -0.1161 ( 13)  0.2304 ( 19)  0.1125 ( 34) -0.1049 ( 42) -0.1055 ( 46)
          -0.1076 ( 47)  0.1339 ( 50) -0.1413 ( 59)  0.1339 ( 71)  0.1482 ( 73)
          -0.1423 ( 75)  0.2525 ( 77)  0.1445 ( 82) -0.1225 ( 92) -0.1099 ( 93)
           0.1302 ( 95)  0.1046 (111)  0.1427 (113) -0.1024 (115) -0.1632 (117)
          -0.1090 (121) -0.1133 (127) -0.1006 (128) -0.1456 (129)
 CRD 55=  -0.2152 (  4)  0.1617 (  5) -0.3411 (  8)  0.1127 (  9) -0.1310 ( 10)
           0.1847 ( 11) -0.1192 ( 12) -0.1131 ( 13)  0.1599 ( 15)  0.1646 ( 17)
           0.1069 ( 22)  0.1406 ( 23) -0.1007 ( 32)  0.1187 ( 41) -0.1000 ( 44)
          -0.1195 ( 49) -0.1152 ( 54)  0.1022 ( 55) -0.1006 ( 60) -0.1210 ( 61)
          -0.1062 ( 62) -0.1549 ( 64)  0.1716 ( 65) -0.1573 ( 86) -0.1534 (110)
           0.2151 (118) -0.2157 (124)  0.2166 (125)
 CRD 56=   0.1082 (  2)  0.1647 (  4)  0.2353 (  6) -0.1451 ( 13)  0.1253 ( 14)
          -0.1963 ( 15) -0.1068 ( 27) -0.1347 ( 32) -0.1108 ( 45)  0.1035 ( 50)
           0.1131 ( 51) -0.1596 ( 63)  0.1414 ( 65)  0.1006 ( 72)  0.1229 ( 74)
           0.1228 ( 77)  0.2228 ( 81) -0.2241 ( 86) -0.1736 ( 89) -0.1154 ( 94)
          -0.1356 (101)  0.1091 (106) -0.1050 (110)  0.1114 (111)  0.2055 (113)
           0.1932 (121) -0.1297 (123)  0.2163 (124) -0.1203 (126) -0.2285 (131)
           0.1413 (132)
 CRD 57=   0.2505 (  2) -0.1134 (  5)  0.1809 (  7) -0.1215 (  9) -0.1765 ( 12)
           0.1327 ( 13) -0.1572 ( 14)  0.2298 ( 16) -0.1712 ( 18)  0.1069 ( 19)
           0.1144 ( 28) -0.1472 ( 38) -0.1136 ( 53) -0.1377 ( 60) -0.1002 ( 62)
           0.1926 ( 64)  0.1287 ( 66) -0.1068 ( 70)  0.1630 ( 80) -0.1712 ( 84)
           0.1213 ( 89) -0.1245 ( 91)  0.1638 ( 92) -0.1714 (101) -0.1634 (117)
           0.1329 (118)  0.1679 (119) -0.1094 (121)  0.1727 (122) -0.1488 (128)
          -0.1747 (129)
 CRD 58=  -0.1660 (  4)  0.1852 (  8)  0.1102 ( 10) -0.2188 ( 11)  0.2631 ( 17)
          -0.2302 ( 19)  0.1381 ( 29) -0.1227 ( 31) -0.1070 ( 37)  0.1347 ( 50)
           0.1356 ( 59) -0.2313 ( 61) -0.1240 ( 66)  0.1177 ( 75)  0.1364 ( 77)
          -0.1828 ( 78) -0.1247 ( 82) -0.2340 ( 95) -0.1871 (112) -0.2029 (114)
          -0.2025 (116)  0.2116 (118) -0.2243 (131)
 CRD 59=   0.2476 (  4) -0.1233 ( 11)  0.1057 ( 12) -0.1156 ( 13)  0.2402 ( 15)
          -0.1264 ( 16)  0.1016 ( 17) -0.2033 ( 18) -0.1115 ( 25)  0.1032 ( 35)
          -0.1030 ( 40) -0.1108 ( 42)  0.1022 ( 49) -0.1591 ( 57)  0.1236 ( 59)
           0.1502 ( 63) -0.1146 ( 64) -0.1370 ( 71)  0.1320 ( 74) -0.1139 ( 75)
          -0.1119 ( 81) -0.1099 ( 82)  0.1558 ( 84)  0.1034 ( 88)  0.1161 ( 97)
           0.1171 ( 99)  0.1571 (101) -0.1105 (103)  0.1591 (106)  0.1509 (113)
           0.1062 (115) -0.1012 (117)  0.1958 (119) -0.1024 (120) -0.1072 (121)
           0.1653 (123) -0.1995 (124)  0.1345 (132)
 CRD 60=   0.1021 ( 10) -0.1022 ( 13) -0.2133 ( 14)  0.1270 ( 16)  0.1873 ( 18)
          -0.1119 ( 19) -0.1226 ( 30)  0.1233 ( 41) -0.1047 ( 48) -0.1129 ( 50)
           0.1291 ( 60) -0.1379 ( 62)  0.1057 ( 64)  0.1332 ( 65) -0.1020 ( 71)
           0.1386 ( 74)  0.1967 ( 75)  0.2114 ( 83)  0.1018 ( 93) -0.1081 ( 94)
           0.1483 ( 98)  0.1561 (102) -0.1050 (103) -0.1541 (105)  0.1118 (106)
           0.1382 (109) -0.1053 (114) -0.1936 (115) -0.1442 (119) -0.1853 (120)
          -0.1631 (121) -0.1745 (127) -0.1178 (129)  0.2377 (130)
 CRD 61=  -0.1255 (  3)  0.2699 (  7) -0.2081 (  8) -0.2100 ( 11)  0.1835 ( 14)
           0.1085 ( 18)  0.1316 ( 28) -0.1330 ( 33)  0.1356 ( 36) -0.1129 ( 38)
          -0.1007 ( 42)  0.1295 ( 45) -0.1226 ( 53)  0.1234 ( 56) -0.1128 ( 64)
           0.1050 ( 71) -0.1152 ( 73)  0.1438 ( 75) -0.1979 ( 83) -0.1572 ( 85)
           0.1172 ( 98) -0.1210 (102) -0.1821 (107) -0.1821 (109)  0.1425 (110)
          -0.1301 (114) -0.1270 (115)  0.1589 (120)  0.1451 (121)  0.2095 (126)
          -0.1844 (129)
 CRD 62=  -0.1245 (  1)  0.3359 (  2) -0.1112 (  5)  0.1045 (  6) -0.1193 (  7)
          -0.1399 (  9)  0.1232 ( 15) -0.1235 ( 17)  0.1273 ( 18)  0.1156 ( 25)
          -0.1433 ( 31) -0.1422 ( 45)  0.1315 ( 57)  0.1416 ( 66)  0.1705 ( 75)
           0.1709 ( 78)  0.1445 ( 84)  0.1843 ( 92) -0.1134 ( 93) -0.1516 ( 94)
          -0.1417 ( 97)  0.1651 ( 99) -0.1065 (103)  0.1282 (105) -0.1652 (115)
          -0.1092 (119)  0.1172 (123)  0.2718 (127) -0.1389 (130) -0.1006 (131)
           0.1588 (132)
 CRD 63=   0.1353 (  3) -0.1096 (  4)  0.1534 (  5)  0.1193 (  6) -0.1245 (  7)
          -0.1365 (  8) -0.2228 ( 11) -0.1006 ( 31) -0.1739 ( 32) -0.1486 ( 35)
           0.1068 ( 41)  0.1158 ( 43) -0.1041 ( 44)  0.1042 ( 48)  0.1887 ( 52)
          -0.1212 ( 65)  0.2022 ( 72) -0.1164 ( 75)  0.1032 ( 77)  0.1904 ( 83)
          -0.2104 ( 85) -0.1651 ( 88)  0.1333 ( 91) -0.1209 ( 98)  0.1285 (100)
           0.1120 (102) -0.1545 (107) -0.1305 (108)  0.1148 (110)  0.1235 (114)
           0.1013 (115) -0.1749 (116) -0.1554 (120) -0.1118 (123)  0.2617 (126)
 CRD 64=  -0.1819 (  3)  0.1156 (  4)  0.1356 (  5) -0.1756 (  7)  0.1123 (  9)
          -0.1878 ( 10)  0.1138 ( 13) -0.1066 ( 26) -0.1099 ( 27)  0.1214 ( 31)
           0.1226 ( 35)  0.1620 ( 43) -0.1453 ( 48)  0.1285 ( 50) -0.1411 ( 65)
           0.1088 ( 67)  0.2019 ( 70) -0.1615 ( 79)  0.1141 ( 91) -0.1023 ( 93)
           0.1509 ( 98) -0.1034 ( 99)  0.1175 (102) -0.1941 (104)  0.1550 (105)
          -0.1300 (108)  0.1787 (113) -0.1609 (114) -0.1114 (115)  0.2294 (116)
          -0.1267 (123)  0.1587 (126) -0.2295 (130) -0.1633 (132)
 CRD 65=   0.2241 (  1) -0.1120 (  3)  0.1058 (  6) -0.1480 (  9)  0.1752 ( 11)
           0.1200 ( 17) -0.1170 ( 25) -0.1243 ( 26)  0.1139 ( 27)  0.1000 ( 29)
           0.1444 ( 34) -0.1539 ( 47) -0.1015 ( 50)  0.1188 ( 66)  0.1575 ( 72)
           0.1255 ( 73) -0.2060 ( 78)  0.1706 ( 79)  0.2077 ( 82)  0.1180 ( 84)
          -0.2405 ( 88)  0.2321 ( 97)  0.2131 ( 98) -0.1306 (104) -0.3319 (111)
          -0.1534 (113) -0.1412 (114)
 CRD 66=   0.1425 (  5) -0.1730 (  6) -0.1422 (  9)  0.1570 ( 12) -0.1897 ( 13)
          -0.1138 ( 33) -0.1060 ( 36)  0.1283 ( 38) -0.1696 ( 42) -0.1190 ( 45)
           0.1369 ( 49)  0.1193 ( 51)  0.1392 ( 53) -0.2103 ( 67) -0.1194 ( 72)
           0.1259 ( 79) -0.1592 ( 84)  0.2122 ( 87)  0.1028 ( 91) -0.1606 ( 93)
           0.1846 (100)  0.2121 (102)  0.2197 (103) -0.2224 (108) -0.2428 (110)
          -0.1096 (111) -0.1025 (113) -0.1412 (123)  0.1786 (127)  0.2410 (132)

 THE DETERMINANT OF THE G MATRIX IS 10**(   -35)


                     --------------------
                     INTERNAL COORDINATES
                     --------------------

                 - - ATOMS - -         COORDINATE      COORDINATE
 NO.   TYPE    I  J  K  L  M  N        (BOHR,RAD)       (ANG,DEG)
 ----------------------------------------------------------------
   1 STRETCH   1  8                     2.1032148       1.1129734
   2 STRETCH   1  4                     2.9077314       1.5387053
   3 STRETCH   1  2                     2.6881344       1.4224996
   4 STRETCH   1  7                     2.9084478       1.5390844
   5 STRETCH   2  3                     2.6800392       1.4182158
   6 STRETCH   3 17                     2.6655443       1.4105454
   7 STRETCH   3  5                     2.9210986       1.5457789
   8 STRETCH   3  6                     2.9120195       1.5409745
   9 STRETCH   4 21                     2.6587597       1.4069552
  10 STRETCH   4 23                     2.1059739       1.1144335
  11 STRETCH   4  5                     2.8535770       1.5100480
  12 STRETCH   5 24                     2.1085177       1.1157796
  13 STRETCH   5 19                     2.6572366       1.4061492
  14 STRETCH   6 15                     2.1046017       1.1137073
  15 STRETCH   6 14                     2.1016475       1.1121441
  16 STRETCH   6 13                     2.6493880       1.4019959
  17 STRETCH   7 11                     2.0935504       1.1078592
  18 STRETCH   7 10                     2.1052236       1.1140365
  19 STRETCH   7  9                     2.6492259       1.4019101
  20 STRETCH   9 12                     1.8752141       0.9923206
  21 STRETCH  13 16                     1.8752554       0.9923425
  22 STRETCH  17 18                     1.8761215       0.9928008
  23 STRETCH  19 20                     1.8762793       0.9928843
  24 STRETCH  21 22                     1.8766997       0.9931068
  25 BEND      1  7 11                  1.9578677     112.1775587
  26 BEND      1  4  5                  1.7562897     100.6279866
  27 BEND      1  4 21                  1.8953705     108.5967291
  28 BEND      1  2  3                  1.8785378     107.6322892
  29 BEND      1  7  9                  1.9141733     109.6740510
  30 BEND      1  7 10                  1.8775534     107.5758865
  31 BEND      1  4 23                  1.9885114     113.9333080
  32 BEND      2  3 17                  1.8751995     107.4410190
  33 BEND      2  3  5                  1.8531443     106.1773475
  34 BEND      2  1  7                  1.9055508     109.1800172
  35 BEND      2  1  8                  1.9282993     110.4834096
  36 BEND      2  3  6                  1.9167776     109.8232679
  37 BEND      2  1  4                  1.8837449     107.9306340
  38 BEND      3  5 19                  1.9439543     111.3803781
  39 BEND      3  6 13                  1.9247800     110.2817717
  40 BEND      3  6 14                  1.9215597     110.0972581
  41 BEND      3  6 15                  1.8907446     108.3316854
  42 BEND      3  5 24                  2.0083105     115.0677175
  43 BEND      3  5  4                  1.7355111      99.4374588
  44 BEND      3 17 18                  1.8871387     108.1250833
  45 BEND      4  5 24                  1.9690993     112.8210801
  46 BEND      4 21 22                  1.8628702     106.7345996
  47 BEND      4  1  8                  1.9027431     109.0191488
  48 BEND      4  1  7                  1.9895489     113.9927555
  49 BEND      4  5 19                  1.9035117     109.0631842
  50 BEND      5  4 23                  2.0201764     115.7475811
  51 BEND      5  4 21                  1.9143642     109.6849912
  52 BEND      5  3  6                  1.9777301     113.3155885
  53 BEND      5  3 17                  1.9369801     110.9807836
  54 BEND      5 19 20                  1.8690127     107.0865417
  55 BEND      6 13 16                  1.8538280     106.2165189
  56 BEND      6  3 17                  1.9009548     108.9166860
  57 BEND      7  1  8                  1.8541455     106.2347106
  58 BEND      7  9 12                  1.8568696     106.3907918
  59 BEND      9  7 10                  1.9100884     109.4400049
  60 BEND      9  7 11                  1.9138402     109.6549674
  61 BEND     10  7 11                  1.8894279     108.2562449
  62 BEND     13  6 14                  1.9136947     109.6466292
  63 BEND     13  6 15                  1.9155325     109.7519288
  64 BEND     14  6 15                  1.8971809     108.7004561
  65 BEND     19  5 24                  1.8979542     108.7447631
  66 BEND     21  4 23                  1.8840383     107.9474419
  67 TORSION   1  4  5  3              -0.6935342     -39.7365850
  68 TORSION   1  4 21 22              -3.0796709    -176.4521470
  69 TORSION   1  7  9 12              -2.9169628    -167.1296587
  70 TORSION   1  4  5 19               1.3422839      76.9072038
  71 TORSION   1  2  3  6              -2.5269206    -144.7818834
  72 TORSION   1  2  3  5              -0.3825389     -21.9178620
  73 TORSION   1  2  3 17               1.6911046      96.8931539
  74 TORSION   1  4  5 24              -2.8299320    -162.1431598
  75 TORSION   2  1  7 11              -1.0442202     -59.8294124
  76 TORSION   2  3 17 18              -2.9950977    -171.6064555
  77 TORSION   2  1  4 23               2.6877184     153.9949234
  78 TORSION   2  1  7 10               1.0317748      59.1163437
  79 TORSION   2  1  4  5               0.5142411      29.4638465
  80 TORSION   2  1  7  9               3.1078073     178.0642443
  81 TORSION   2  3  6 13               3.1339365     179.5613355
  82 TORSION   2  1  4 21              -1.4952390     -85.6708841
  83 TORSION   2  3  6 14               1.0199168      58.4369277
  84 TORSION   2  3  6 15              -1.0525526     -60.3068241
  85 TORSION   2  3  5 19              -1.3131194     -75.2361974
  86 TORSION   2  3  5 24               2.7999119     160.4231341
  87 TORSION   2  3  5  4               0.6918242      39.6386081
  88 TORSION   3  2  1  4              -0.0816343      -4.6773036
  89 TORSION   3  2  1  8              -2.1605258    -123.7890080
  90 TORSION   3  6 13 16               3.0170648     172.8650782
  91 TORSION   3  5 19 20              -1.5420455     -88.3526998
  92 TORSION   3  5  4 23              -2.8452017    -163.0180493
  93 TORSION   3  5  4 21               1.3016291      74.5778532
  94 TORSION   3  2  1  7               2.0896596     119.7286781
  95 TORSION   4  1  7 10               3.1396226     179.8871225
  96 TORSION   4  5 19 20               2.8429309     162.8879426
  97 TORSION   4  1  7  9              -1.0675302     -61.1649769
  98 TORSION   4  1  7 11               1.0636275      60.9413664
  99 TORSION   4  5  3  6               2.7972588     160.2711219
 100 TORSION   4  5  3 17              -1.3406910     -76.8159373
 101 TORSION   5  3  6 15              -3.1215663    -178.8525768
 102 TORSION   5  3  6 14              -1.0490969     -60.1088250
 103 TORSION   5  3  6 13               1.0649228      61.0155828
 104 TORSION   5  4  1  7              -1.6057320     -92.0016674
 105 TORSION   5  4 21 22               1.2995428      74.4583155
 106 TORSION   5  4  1  8               2.6093027     149.5020297
 107 TORSION   5  3 17 18              -0.9762045     -55.9324006
 108 TORSION   6  3  5 19               0.7923152      45.3963165
 109 TORSION   6  3 17 18               1.2127317      69.4844072
 110 TORSION   6  3  5 24              -1.3778389     -78.9443520
 111 TORSION   7  1  4 23               0.5677453      32.5294095
 112 TORSION   7  1  4 21               2.6679732     152.8636020
 113 TORSION   8  1  4 23              -1.5004053     -85.9668934
 114 TORSION   8  1  7 10              -1.0478758     -60.0388603
 115 TORSION   8  1  7  9               1.0281567      58.9090403
 116 TORSION   8  1  4 21               0.5998225      34.3672991
 117 TORSION   8  1  7 11              -3.1238709    -178.9846164
 118 TORSION  10  7  9 12              -0.8610992     -49.3373490
 119 TORSION  11  7  9 12               1.2090048      69.2708734
 120 TORSION  13  6  3 17              -1.1000848     -63.0302161
 121 TORSION  14  6 13 16              -1.1474177     -65.7421926
 122 TORSION  14  6  3 17               3.0690808     175.8453762
 123 TORSION  15  6  3 17               0.9966114      57.1016244
 124 TORSION  15  6 13 16               0.9353670      53.5925820
 125 TORSION  17  3  5 19               2.9375507     168.3092573
 126 TORSION  17  3  5 24               0.7673966      43.9685888
 127 TORSION  19  5  4 23              -0.8093835     -46.3742605
 128 TORSION  19  5  4 21              -2.9457381    -168.7783579
 129 TORSION  20 19  5 24               0.6890384      39.4789908
 130 TORSION  21  4  5 24              -0.8347687     -47.8287215
 131 TORSION  22 21  4 23              -0.9158156     -52.4723698
 132 TORSION  23  4  5 24               1.3015859      74.5753759

     ------------------------------------------
     THE POINT GROUP IS C1 , NAXIS= 1, ORDER= 1
     ------------------------------------------

     DIMENSIONS OF THE SYMMETRY SUBSPACES ARE
 A   =  300

 ..... DONE SETTING UP THE RUN .....
 STEP CPU TIME =     0.02 TOTAL CPU TIME =        0.0 (    0.0 MIN)
 TOTAL WALL CLOCK TIME=        0.0 SECONDS, CPU UTILIZATION IS  50.00%


          -----------------------------
          STATIONARY POINT LOCATION RUN
          -----------------------------

 OBTAINING INITIAL HESSIAN, HESS=GUESS   
 DIAGONAL GUESS HESSIAN IN INTERNAL COORDS IS
     1  0.3312     2  0.3610     3  0.3654     4  0.3607     5  0.3684
     6  0.3740     7  0.3561     8  0.3594     9  0.3766    10  0.3303
    11  0.3817    12  0.3294    13  0.3772    14  0.3308    15  0.3318
    16  0.3802    17  0.3345    18  0.3306    19  0.3803    20  0.3382
    21  0.3382    22  0.3379    23  0.3378    24  0.3377    25  0.2225
    26  0.2493    27  0.2439    28  0.2388    29  0.2442    30  0.2221
    31  0.2221    32  0.2396    33  0.2427    34  0.2428    35  0.2185
    36  0.2430    37  0.2428    38  0.2435    39  0.2441    40  0.2221
    41  0.2220    42  0.2216    43  0.2488    44  0.2139    45  0.2237
    46  0.2141    47  0.2222    48  0.2472    49  0.2459    50  0.2238
    51  0.2459    52  0.2466    53  0.2432    54  0.2142    55  0.2144
    56  0.2435    57  0.2222    58  0.2144    59  0.2196    60  0.2200
    61  0.2013    62  0.2197    63  0.2196    64  0.2011    65  0.2193
    66  0.2193    67  0.2500    68  0.2500    69  0.2500    70  0.2500
    71  0.2500    72  0.2500    73  0.2500    74  0.2500    75  0.2500
    76  0.2500    77  0.2500    78  0.2500    79  0.2500    80  0.2500
    81  0.2500    82  0.2500    83  0.2500    84  0.2500    85  0.2500
    86  0.2500    87  0.2500    88  0.2500    89  0.2500    90  0.2500
    91  0.2500    92  0.2500    93  0.2500    94  0.2500    95  0.2500
    96  0.2500    97  0.2500    98  0.2500    99  0.2500   100  0.2500
   101  0.2500   102  0.2500   103  0.2500   104  0.2500   105  0.2500
   106  0.2500   107  0.2500   108  0.2500   109  0.2500   110  0.2500
   111  0.2500   112  0.2500   113  0.2500   114  0.2500   115  0.2500
   116  0.2500   117  0.2500   118  0.2500   119  0.2500   120  0.2500
   121  0.2500   122  0.2500   123  0.2500   124  0.2500   125  0.2500
   126  0.2500   127  0.2500   128  0.2500   129  0.2500   130  0.2500
   131  0.2500   132  0.2500
 TRANSFORMING HESSIAN TO SYMMETRY COORDINATES

          PARAMETERS CONTROLLING GEOMETRY SEARCH ARE
          METHOD =QA                  UPHESS =BFGS    
          NNEG   =         0          NFRZ   =         3
          NSTEP  =        50          IFOLOW =         1
          HESS   =GUESS               RESTAR =         F
          IHREP  =         0          HSSEND =         F
          NPRT   =         0          NPUN   =         0
          OPTTOL = 5.000E-04          RMIN   = 1.500E-03
          RMAX   = 1.000E-01          RLIM   = 7.000E-02
          DXMAX  = 3.000E-01          PURIFY =         F
          MOVIE  =         F          TRUPD  =         T
          TRMAX  = 5.000E-01          TRMIN  = 5.000E-02
          ITBMAT =         5          STPT   =         F
          STSTEP = 1.000E-02          PROJCT=          F
          FROZEN COORD(S)=   1   2   3


      ***** EQUILIBRIUM GEOMETRY LOCATED *****
            (SUBJECT TO   3 CONSTRAINT(S))
 COORDINATES OF ALL ATOMS ARE (ANGS)
   ATOM   CHARGE       X              Y              Z
 ------------------------------------------------------------
 C           6.0  -0.7005226270   1.1945104101  -0.3043675157
 O           8.0   0.5496958883   1.7996513057  -0.6030193305
 C           6.0   1.6223952174   1.0378033147  -0.1630116161
 C           6.0  -0.3865329577  -0.1069400469   0.4327137770
 C           6.0   1.0451433190   0.1184593405   0.9273817905
 C           6.0   2.7190378394   1.9940293126   0.2677705978
 C           6.0  -1.5261514099   2.1517662519   0.5349699975
 H           1.0  -1.2198497369   0.9851663678  -1.2307619135
 O           8.0  -2.7947163809   1.5626518895   0.6869605086
 H           1.0  -1.5978656711   3.1110116337   0.0318937570
 H           1.0  -1.0478889784   2.2996946738   1.4973724029
 H           1.0  -3.3205062536   2.0895078073   1.2640395328
 O           8.0   3.7639293811   1.2205347974   0.8043791335
 H           1.0   2.3360770010   2.6997319716   0.9941590248
 H           1.0   3.0478860860   2.5365243359  -0.6129289585
 H           1.0   4.5137554551   1.7709768199   0.9604120131
 O           8.0   2.0659556565   0.2593537380  -1.2381123752
 H           1.0   2.8615863600  -0.1819343989  -0.9818748877
 O           8.0   0.9627157146   0.7572941486   2.1740486743
 H           1.0   1.8269765113   0.8489977126   2.5405818060
 O           8.0  -0.4967534267  -1.1780889081  -0.4649936901
 H           1.0  -0.4035523079  -1.9887569619   0.0074838355
 H           1.0  -1.0538898717  -0.2486927440   1.2716820714
 H           1.0   1.5970459741  -0.8093589145   1.0032001524


                     --------------------
                     INTERNAL COORDINATES
                     --------------------

                 - - ATOMS - -         COORDINATE      COORDINATE
 NO.   TYPE    I  J  K  L  M  N        (BOHR,RAD)       (ANG,DEG)
 ----------------------------------------------------------------
   1 STRETCH   1  8                     2.0455637       1.0824658
   2 STRETCH   1  4                     2.8880378       1.5282839
   3 STRETCH   1  2                     2.6847645       1.4207163
   4 STRETCH   1  7                     2.8674617       1.5173955
   5 STRETCH   2  3                     2.6216861       1.3873367
   6 STRETCH   3 17                     2.6446519       1.3994896
   7 STRETCH   3  5                     2.9075821       1.5386263
   8 STRETCH   3  6                     2.8675099       1.5174210
   9 STRETCH   4 21                     2.6492497       1.4019227
  10 STRETCH   4 23                     2.0434631       1.0813542
  11 STRETCH   4  5                     2.8939340       1.5314040
  12 STRETCH   5 24                     2.0450919       1.0822161
  13 STRETCH   5 19                     2.6517391       1.4032400
  14 STRETCH   6 15                     2.0510917       1.0853910
  15 STRETCH   6 14                     2.0460727       1.0827351
  16 STRETCH   6 13                     2.6577643       1.4064284
  17 STRETCH   7 11                     2.0500141       1.0848208
  18 STRETCH   7 10                     2.0513586       1.0855323
  19 STRETCH   7  9                     2.6586866       1.4069165
  20 STRETCH   9 12                     1.7798093       0.9418346
  21 STRETCH  13 16                     1.7823350       0.9431712
  22 STRETCH  17 18                     1.7861870       0.9452095
  23 STRETCH  19 20                     1.7824663       0.9432406
  24 STRETCH  21 22                     1.7818665       0.9429232
  25 BEND      1  7 11                  1.9143844     109.6861482
  26 BEND      1  4  5                  1.7951973     102.8572307
  27 BEND      1  4 21                  1.9025147     109.0060605
  28 BEND      1  2  3                  1.9604224     112.3239285
  29 BEND      1  7  9                  1.8610589     106.6308221
  30 BEND      1  7 10                  1.9145905     109.6979557
  31 BEND      1  4 23                  1.9380182     111.0402649
  32 BEND      2  3 17                  1.8827028     107.8709226
  33 BEND      2  3  5                  1.8367161     105.2360800
  34 BEND      2  1  7                  1.9032702     109.0493479
  35 BEND      2  1  8                  1.9014476     108.9449214
  36 BEND      2  3  6                  1.8784105     107.6249937
  37 BEND      2  1  4                  1.8580386     106.4577680
  38 BEND      3  5 19                  1.9601852     112.3103416
  39 BEND      3  6 13                  1.8740920     107.3775595
  40 BEND      3  6 14                  1.9236398     110.2164397
  41 BEND      3  6 15                  1.8792392     107.6724743
  42 BEND      3  5 24                  1.9504340     111.7516386
  43 BEND      3  5  4                  1.7821371     102.1089320
  44 BEND      3 17 18                  1.8946515     108.5555335
  45 BEND      4  5 24                  1.9532607     111.9135924
  46 BEND      4 21 22                  1.9052558     109.1631171
  47 BEND      4  1  8                  1.9247757     110.2815215
  48 BEND      4  1  7                  1.9630067     112.4719995
  49 BEND      4  5 19                  1.8745093     107.4014698
  50 BEND      5  4 23                  1.9237189     110.2209725
  51 BEND      5  4 21                  1.9744693     113.1287564
  52 BEND      5  3  6                  2.0336245     116.5180983
  53 BEND      5  3 17                  1.9081232     109.3274087
  54 BEND      5 19 20                  1.9131117     109.6132284
  55 BEND      6 13 16                  1.9100608     109.4384240
  56 BEND      6  3 17                  1.9172384     109.8496683
  57 BEND      7  1  8                  1.9117134     109.5331091
  58 BEND      7  9 12                  1.9127445     109.5921854
  59 BEND      9  7 10                  1.9396136     111.1316722
  60 BEND      9  7 11                  1.9377491     111.0248447
  61 BEND     10  7 11                  1.8962801     108.6488443
  62 BEND     13  6 14                  1.9447150     111.4239633
  63 BEND     13  6 15                  1.9383960     111.0619072
  64 BEND     14  6 15                  1.9026078     109.0113964
  65 BEND     19  5 24                  1.9369442     110.9787279
  66 BEND     21  4 23                  1.9263699     110.3728639
  67 TORSION   1  4  5  3              -0.5346375     -30.6324735
  68 TORSION   1  4 21 22              -3.0266930    -173.4167345
  69 TORSION   1  7  9 12               3.0587918     175.2558596
  70 TORSION   1  4  5 19               1.5301276      87.6698530
  71 TORSION   1  2  3  6              -2.5457378    -145.8600322
  72 TORSION   1  2  3  5              -0.3659154     -20.9654078
  73 TORSION   1  2  3 17               1.6696687      95.6649684
  74 TORSION   1  4  5 24              -2.6230844    -150.2916682
  75 TORSION   2  1  7 11              -1.1426643     -65.4698407
  76 TORSION   2  3 17 18               3.0194364     173.0009645
  77 TORSION   2  1  4 23               2.4004427     137.5352368
  78 TORSION   2  1  7 10               0.9388628      53.7928780
  79 TORSION   2  1  4  5               0.3430099      19.6530223
  80 TORSION   2  1  7  9               3.0408668     174.2288332
  81 TORSION   2  3  6 13               3.0671148     175.7327316
  82 TORSION   2  1  4 21              -1.7568781    -100.6616976
  83 TORSION   2  3  6 14               0.9458254      54.1918062
  84 TORSION   2  3  6 15              -1.1275259     -64.6024780
  85 TORSION   2  3  5 19              -1.4433961     -82.7005056
  86 TORSION   2  3  5 24               2.6497971     151.8221917
  87 TORSION   2  3  5  4               0.5593661      32.0493174
  88 TORSION   3  2  1  4               0.0132774       0.7607418
  89 TORSION   3  2  1  8              -2.0622167    -118.1563160
  90 TORSION   3  6 13 16               2.9918805     171.4221230
  91 TORSION   3  5 19 20              -1.2751687     -73.0617839
  92 TORSION   3  5  4 23              -2.6021231    -149.0906716
  93 TORSION   3  5  4 21               1.5149754      86.8016965
  94 TORSION   3  2  1  7               2.1352095     122.3384953
  95 TORSION   4  1  7 10               2.9957553     171.6441334
  96 TORSION   4  5 19 20               3.0622718     175.4552480
  97 TORSION   4  1  7  9              -1.1854261     -67.9199114
  98 TORSION   4  1  7 11               0.9142282      52.3814147
  99 TORSION   4  5  3  6               2.6383785     151.1679524
 100 TORSION   4  5  3 17              -1.4587792     -83.5818935
 101 TORSION   5  3  6 15               3.0993240     177.5781855
 102 TORSION   5  3  6 14              -1.1105099     -63.6275303
 103 TORSION   5  3  6 13               1.0107794      57.9133952
 104 TORSION   5  4  1  7              -1.7404339     -99.7195182
 105 TORSION   5  4 21 22               1.2708534      72.8145382
 106 TORSION   5  4  1  8               2.4031794     137.6920389
 107 TORSION   5  3 17 18              -1.2752112     -73.0642183
 108 TORSION   6  3  5 19               0.6356163      36.4181294
 109 TORSION   6  3 17 18               0.9766844      55.9598917
 110 TORSION   6  3  5 24              -1.5543758     -89.0591734
 111 TORSION   7  1  4 23               0.3169988      18.1626962
 112 TORSION   7  1  4 21               2.4428634     139.9657619
 113 TORSION   8  1  4 23              -1.8225731    -104.4257467
 114 TORSION   8  1  7 10              -1.1405176     -65.3468436
 115 TORSION   8  1  7  9               0.9614864      55.0891116
 116 TORSION   8  1  4 21               0.3032914      17.3773190
 117 TORSION   8  1  7 11               3.0611406     175.3904377
 118 TORSION  10  7  9 12              -1.1385386     -65.2334588
 119 TORSION  11  7  9 12               0.9742320      55.8193841
 120 TORSION  13  6  3 17              -1.1706359     -67.0724958
 121 TORSION  14  6 13 16              -1.1832691     -67.7963278
 122 TORSION  14  6  3 17               2.9912601     171.3865788
 123 TORSION  15  6  3 17               0.9179087      52.5922946
 124 TORSION  15  6 13 16               0.9415284      53.9456012
 125 TORSION  17  3  5 19               2.8216438     161.6682835
 126 TORSION  17  3  5 24               0.6316518      36.1909808
 127 TORSION  19  5  4 23              -0.5373580     -30.7883451
 128 TORSION  19  5  4 21              -2.7034448    -154.8959771
 129 TORSION  20 19  5 24               0.9221707      52.8364893
 130 TORSION  21  4  5 24              -0.5734715     -32.8574982
 131 TORSION  22 21  4 23              -0.8937834     -51.2100147
 132 TORSION  23  4  5 24               1.5926153      91.2501338

          INTERNUCLEAR DISTANCES (ANGS.)


 =====================================================
   GAMESS/COSab RESULTS
 =====================================================

   Dielectric Constant                  = INFTY
   Basic Grid Size                      =                 1082
   Number of Segments                   =                   92
   Number of Segments located on spheres=                  316
   Number of Segments of the cavity     =                  748
   Solvent Radius (rsolv)               = 1.40
   Outlying Charge Error Method         = double cavity

 =====================================================

  Total solvated Energy (a.u.)          =  -683.5627128500
  Total Energy corrected (a.u.)         =  -683.5628164908

  Outlying charge effect (a.u.)         =    -0.0001036408
  Outlying charge effect (kcal/mol)     =    -0.0650356370

  Dielectric Energy (a.u.)              =    -0.0413989838
  Dielectric energy corr. (a.u.)        =    -0.0415026246

  Sum of polarization charges           =     0.0163682584
  Sum of polarization charges(cor.)     =    -0.0163682584

  Total surface area of cavity (A**2)   =  185.57
  Total volume of cavity (A**3)         =  196.18

 =====================================================
 NPS=                   748
NR.  ATOM  (X, Y, Z)(a.u.)                  CHARGE(e)  AREA(A**2) SIGMA(e/A**2)
   1   1  -1.736666   4.781048  -3.358064  -0.000255   0.139368  -0.001833
   2   1  -1.857109   4.239412  -3.748668  -0.000240   0.139368  -0.001722
   3   1  -2.548884   4.540578  -3.326544  -0.000377   0.185824  -0.002029
   4   1  -1.407980   3.841737  -4.005443  -0.000062   0.092912  -0.000670
   5   2   1.130458   4.500390  -4.196868   0.005478   0.309230   0.017715
   6   2   1.506150   6.537700  -1.851093   0.004389   0.274871   0.015968
   7   2  -0.235984   5.424042  -3.340971   0.002337   0.171795   0.013603
   8   2   0.210836   4.909548  -3.896890   0.003711   0.274871   0.013500
   9   2   0.717191   6.453888  -2.207304   0.003892   0.206154   0.018877
  10   2   1.244777   5.391951  -3.700341   0.004697   0.274871   0.017087
  11   2   1.478587   6.170352  -2.783018   0.005914   0.309230   0.019124
  12   2   1.150314   6.648049  -1.051117   0.003495   0.171795   0.020344
  13   2   0.390701   3.946459  -4.277528   0.003454   0.206154   0.016756
  14   2   2.098586   4.725548  -3.912015   0.005060   0.274871   0.018408
  15   2   1.407193   3.746916  -4.350330   0.003029   0.171795   0.017631
  16   2   0.388802   5.892286  -3.123194   0.005381   0.343589   0.015660
  17   2   1.955676   5.666661  -3.281969   0.003835   0.206154   0.018602
  18   2   0.668006   3.197217  -4.362232   0.001980   0.137436   0.014406
  19   4  -0.813518  -2.312901   3.951699  -0.000459   0.092912  -0.004939
  20   4  -0.561344  -2.939979   3.417644  -0.000656   0.139368  -0.004708
  21   4  -1.263158  -2.953190   3.353841  -0.000324   0.139368  -0.002327
  22   4  -3.973384  -2.083744   1.294174  -0.000118   0.046456  -0.002545
  23   5   2.753968  -2.222665   4.525946  -0.000058   0.139368  -0.000414
  24   5   1.779177  -2.379375   4.485453  -0.000247   0.232280  -0.001065
  25   5   1.039965  -2.543274   4.151008  -0.000475   0.185824  -0.002558
  26   5   1.663005  -2.887468   3.875352  -0.000406   0.139368  -0.002914
  27   6   7.259151   6.755764   1.433533  -0.000948   0.278737  -0.003400
  28   6   4.118519   7.183232  -0.751684  -0.000279   0.325193  -0.000857
  29   6   7.486184   3.127608  -2.385557  -0.000155   0.046456  -0.003336
  30   6   4.280984   7.443461   0.302013  -0.000054   0.185824  -0.000290
  31   6   6.342293   7.190825   1.564291  -0.000201   0.278737  -0.000722
  32   6   6.235379   4.939449   3.927796  -0.000120   0.046456  -0.002583
  33   6   8.316945   3.971549  -1.528392  -0.000166   0.046456  -0.003581
  34   6   6.491447   5.223163   3.720985  -0.000118   0.046456  -0.002545
  35   6   6.796583   6.641579   2.316447  -0.000334   0.185824  -0.001799
  36   6   6.622378   7.243706   0.553714  -0.000028   0.278737  -0.000101
  37   6   4.990404   7.484623  -0.165111   0.000299   0.325193   0.000919
  38   6   3.466417   7.112316  -0.047122  -0.000204   0.232280  -0.000878
  39   6   7.469708   6.741017   0.402386  -0.000785   0.325193  -0.002414
  40   6   3.898974   6.792521  -1.391831  -0.000362   0.139368  -0.002595
  41   6   7.990127   3.294255  -1.928423   0.000250   0.139368   0.001797
  42   6   5.627688   7.507103   0.761142   0.000135   0.278737   0.000486
  43   6   6.699009   6.189687   2.952335  -0.000558   0.092912  -0.006004
  44   6   7.953650   6.201978  -0.153046  -0.000181   0.139368  -0.001300
  45   6   6.018606   7.389688  -0.121568   0.000110   0.232280   0.000473
  46   7  -4.258137   7.087820   2.818171  -0.000399   0.278737  -0.001431
  47   7  -0.863476   6.972248   2.336399  -0.000139   0.232280  -0.000596
  48   7  -1.363892   7.452439   1.723096   0.000123   0.185824   0.000661
  49   7  -3.677713   7.558847   2.217582  -0.000035   0.232280  -0.000149
  50   7  -5.616763   6.140955  -0.573937   0.000292   0.092912   0.003144
  51   7  -4.098236   5.216672  -2.378216  -0.000346   0.185824  -0.001861
  52   7  -3.709498   3.220389   4.600840   0.000006   0.046456   0.000128
  53   7  -4.798390   4.732905  -2.178875   0.000019   0.185824   0.000102
  54   7  -4.670988   7.259184   1.957543  -0.000494   0.185824  -0.002657
  55   7  -3.229046   7.165775   3.145909   0.000217   0.278737   0.000779
  56   7  -1.681818   7.271295   2.613011   0.000647   0.325193   0.001988
  57   7  -0.663055   7.122527   1.114613  -0.000288   0.232280  -0.001241
  58   7  -3.831150   6.573688   3.675502  -0.000770   0.325193  -0.002369
  59   7  -3.546859   2.822718   4.517871   0.000006   0.046456   0.000137
  60   7  -2.611444   7.570619   2.399933   0.000366   0.278737   0.001314
  61   7  -5.127536   7.089870   1.340310  -0.000309   0.092912  -0.003328
  62   7  -5.131832   5.411953  -1.713131   0.000267   0.185824   0.001435
  63   7  -3.911241   5.826530   4.193776  -0.000142   0.139368  -0.001018
  64   7  -2.365479   7.044394   3.279419   0.000107   0.185824   0.000573
  65   8  -3.431153   1.809633  -4.508589  -0.002954   0.412182  -0.007168
  66   8  -4.206627   0.589641  -3.221073  -0.002013   0.274788  -0.007326
  67   8  -1.636382   1.921749  -4.688881  -0.001993   0.372926  -0.005345
  68   8  -3.079225   3.278567  -4.177397  -0.002188   0.412182  -0.005309
  69   8  -4.322956   1.519615  -3.684729  -0.002652   0.372926  -0.007110
  70   8  -3.441550   0.721907  -4.181777  -0.002783   0.372926  -0.007463
  71   8  -2.195428   0.960749  -4.608631  -0.003327   0.451437  -0.007370
  72   8  -2.429439   2.542613  -4.682912  -0.002543   0.431809  -0.005890
  73   8  -4.059481   2.728861  -3.810914  -0.002757   0.431809  -0.006384
  74   9  -6.702115   2.084594  -1.493187   0.006024   0.309230   0.019482
  75   9  -6.471876  -0.055445   0.987779   0.005727   0.274871   0.020834
  76   9  -8.463733   2.303118   1.179458   0.001407   0.274871   0.005120
  77   9  -6.482389   1.575473   3.985979   0.001978   0.274871   0.007195
  78   9  -7.443960   4.951455  -0.077868   0.002055   0.240512   0.008543
  79   9  -6.892683   1.325443  -1.008128   0.004319   0.240512   0.017957
  80   9  -6.625934   0.296328  -0.005130   0.005193   0.274871   0.018893
  81   9  -6.440791   3.148475  -1.731996   0.005262   0.240512   0.021879
  82   9  -8.198403   1.820477   2.176948   0.000518   0.274871   0.001884
  83   9  -7.432938   1.446376   3.212579   0.001481   0.309230   0.004789
  84   9  -5.687737   1.884674   4.340879   0.001439   0.171795   0.008376
  85   9  -5.058736   2.622120   4.523946   0.000662   0.137436   0.004814
  86   9  -6.783312   5.511293  -0.029821   0.000801   0.137436   0.005827
  87   9  -8.018292   4.192727   0.058695   0.001946   0.240512   0.008090
  88   9  -8.417294   3.315933   0.524776   0.001774   0.309230   0.005736
  89   9  -7.607293   1.992405  -0.758876   0.005871   0.343589   0.017089
  90   9  -8.219417   2.203284   0.127809   0.004552   0.377948   0.012045
  91   9  -8.040451   1.241627   1.147626   0.005145   0.481025   0.010695
  92   9  -7.305051   0.425170   1.017147   0.004573   0.309230   0.014789
  93   9  -6.620156   0.085895   2.040936   0.007142   0.377948   0.018897
  94   9  -6.504782   0.594741   3.170665   0.006799   0.446666   0.015222
  95   9  -5.708639   1.087374   3.925226   0.003813   0.240512   0.015852
  96   9  -6.806888   4.929880  -0.782454   0.002772   0.206154   0.013445
  97   9  -7.454775   4.208504  -0.766806   0.003928   0.274871   0.014289
  98   9  -7.241587   3.186478  -1.283924   0.006175   0.343589   0.017971
  99   9  -6.418508   0.769933  -0.824456   0.005326   0.240512   0.022143
 100   9  -7.507901   0.989717  -0.025541   0.006077   0.377948   0.016080
 101   9  -6.582099   4.138631  -1.434358   0.003895   0.274871   0.014170
 102   9  -7.533656   0.836078   2.303139   0.004187   0.412307   0.010156
 103   9  -5.058463   1.914223   4.369968   0.001486   0.137436   0.010812
 104   9  -7.978438   3.167027  -0.502943   0.005433   0.377948   0.014375
 105  10  -3.349591   8.079380  -0.981032  -0.003708   0.549575  -0.006747
 106  10  -4.868647   7.024371  -1.081601  -0.001379   0.353299  -0.003902
 107  10  -3.434482   6.552330  -2.265567  -0.001791   0.372926  -0.004802
 108  10  -2.069869   8.099158   0.511896  -0.001479   0.372926  -0.003966
 109  10  -4.109345   8.003619   0.637485  -0.001642   0.412182  -0.003983
 110  10  -4.121960   7.088378  -1.771957  -0.002205   0.431809  -0.005106
 111  10  -2.543747   7.418027  -1.794464  -0.003364   0.510320  -0.006591
 112  10  -1.832622   7.918694  -0.622271  -0.003382   0.529948  -0.006382
 113  10  -3.092087   8.307085   0.426362  -0.002393   0.471065  -0.005079
 114  10  -4.589534   7.724703  -0.343932  -0.002277   0.471065  -0.004833
 115  11  -1.511176   5.238480   5.069760  -0.002362   0.333671  -0.007078
 116  11  -2.768537   3.616240   5.039026  -0.000857   0.157022  -0.005458
 117  11  -2.757981   5.098625   5.034948  -0.001452   0.294415  -0.004933
 118  11  -1.586686   6.380663   4.148528  -0.000800   0.235532  -0.003399
 119  11  -2.478396   4.330790   5.235186  -0.001730   0.294415  -0.005876
 120  11  -2.221775   5.897720   4.718611  -0.001379   0.333671  -0.004132
 121  11  -0.808444   6.078768   4.117569  -0.002561   0.372926  -0.006868
 122  12  -7.698039   5.361278   3.807847  -0.009072   0.471065  -0.019259
 123  12  -7.503828   3.010376   4.297736  -0.006320   0.451437  -0.013999
 124  12  -8.731333   3.938144   2.415105  -0.007112   0.471065  -0.015098
 125  12  -7.547819   5.892222   1.590563  -0.007151   0.490692  -0.014573
 126  12  -6.607930   6.074769   3.573424  -0.006704   0.353299  -0.018975
 127  12  -6.067047   4.410590   4.792541  -0.006139   0.353299  -0.017376
 128  12  -8.273977   4.154824   3.801519  -0.008928   0.490692  -0.018194
 129  12  -8.325677   5.251904   2.750128  -0.008841   0.490692  -0.018017
 130  12  -7.148808   6.229233   2.653344  -0.007908   0.471065  -0.016788
 131  12  -6.341052   5.410510   4.361901  -0.007487   0.412182  -0.018163
 132  12  -7.240727   4.328613   4.615301  -0.008105   0.451437  -0.017954
 133  12  -8.374400   3.046627   3.290600  -0.005581   0.412182  -0.013539
 134  12  -8.417721   4.859585   1.605538  -0.004740   0.372926  -0.012710
 135  12  -6.307440   3.366351   4.775116  -0.004689   0.392554  -0.011946
 136  13   7.896174  -0.847967   1.541361   0.004795   0.240512   0.019938
 137  13   9.346964   1.002019   3.487674   0.001248   0.274871   0.004540
 138  13   9.854785   1.492728  -0.023973   0.002740   0.343589   0.007976
 139  13   7.667663   3.362613   4.543512   0.001728   0.206154   0.008382
 140  13   7.428578  -0.346069   3.371781   0.004160   0.206154   0.020180
 141  13   7.736664  -0.717712   2.534794   0.003281   0.206154   0.015915
 142  13   9.877124   0.894933   2.484783   0.000332   0.274871   0.001209
 143  13  10.069374   1.004472   1.162111   0.001204   0.309230   0.003892
 144  13   9.491440   2.119492  -0.687163   0.001948   0.240512   0.008100
 145  13   9.214456   2.976912  -0.867048   0.000478   0.137436   0.003478
 146  13   7.123910   3.999611   4.294539   0.000841   0.137436   0.006119
 147  13   8.272573   2.548166   4.546787   0.001093   0.171795   0.006360
 148  13   8.851273   1.784167   4.216258   0.001196   0.274871   0.004350
 149  13   7.589652   0.222535   3.968400   0.003559   0.206154   0.017264
 150  13   8.450603   0.707113   4.013431   0.003944   0.343589   0.011478
 151  13   9.150640   0.114988   2.788604   0.004008   0.412307   0.009722
 152  13   8.571077  -0.529708   2.147844   0.003876   0.274871   0.014100
 153  13   8.795438  -0.414600   0.946353   0.005569   0.343589   0.016210
 154  13   9.422374   0.390008   0.271978   0.006538   0.446666   0.014638
 155  13   9.147479   1.172055  -0.746631   0.004033   0.274871   0.014671
 156  13   7.648162   2.573833   4.714815   0.001424   0.137436   0.010363
 157  13   8.308350  -0.148538   3.283057   0.003664   0.274871   0.013331
 158  13   9.543133   0.150190   1.612624   0.003968   0.412307   0.009625
 159  13   8.883946   2.216563  -1.203851   0.001945   0.171795   0.011323
 160  13   7.980938   1.447241   4.532138   0.004653   0.309230   0.015046
 161  14   3.441520   6.772141   3.394643  -0.003971   0.451437  -0.008796
 162  14   5.225982   5.889377   4.059588  -0.001817   0.294415  -0.006171
 163  14   3.942753   7.507841   1.726328  -0.001357   0.314043  -0.004320
 164  14   5.463216   7.062927   2.922315  -0.001366   0.314043  -0.004350
 165  14   4.124512   6.286396   4.011200  -0.002627   0.333671  -0.007872
 166  14   3.193533   7.205195   2.224721  -0.003361   0.412182  -0.008155
 167  14   4.552142   7.443227   2.609190  -0.002534   0.451437  -0.005614
 168  14   5.067594   6.683371   3.641384  -0.001839   0.333671  -0.005511
 169  15   6.627293   6.198798  -2.976786  -0.003803   0.510320  -0.007451
 170  15   7.385728   4.315243  -2.936587  -0.001996   0.353299  -0.005650
 171  15   7.859756   5.900272  -1.790264  -0.002041   0.353299  -0.005776
 172  15   6.101977   7.180824  -1.625020  -0.001511   0.353299  -0.004276
 173  15   4.831976   6.582609  -2.562909  -0.001767   0.294415  -0.006002
 174  15   6.420805   5.032713  -3.512132  -0.003473   0.490692  -0.007078
 175  15   7.716853   5.218360  -2.580892  -0.002924   0.490692  -0.005959
 176  15   7.133502   6.716918  -1.827244  -0.002612   0.471065  -0.005545
 177  15   5.585859   6.930483  -2.357236  -0.002279   0.372926  -0.006111
 178  15   5.322116   5.762702  -3.372761  -0.003796   0.490692  -0.007737
 179  16  10.457909   4.780617   2.325932  -0.009358   0.471065  -0.019865
[...]
 489  15   6.663862   7.004729  -0.918296  -0.000915   0.155349  -0.005887
 490  15   7.726703   6.165139  -1.038622  -0.001096   0.155349  -0.007055
 491   6   4.547729   6.968762  -1.318552  -0.000779   0.152576  -0.005106
 492   6   5.896464   7.233030  -0.652163  -0.000692   0.152576  -0.004537
 493   6   7.296396   6.643318  -0.492703  -0.000902   0.152576  -0.005910
 494   6   8.111666   5.740746  -0.744266  -0.000661   0.085257  -0.007750
 495  16   9.328998   4.022177  -0.524792  -0.000560   0.071414  -0.007837
 496   6   8.628870   4.281401  -1.109834  -0.000348   0.087248  -0.003984
 497  16   9.177322   5.227885   0.256500  -0.003280   0.199652  -0.016427
 498  16   8.745368   5.758494   1.546620  -0.008421   0.416463  -0.020221
 499  16   8.087173   5.354427   3.121958  -0.006664   0.416463  -0.016002
 500   6   8.276996   5.840183   0.303897  -0.005276   0.470885  -0.011204
 501   6   7.603110   6.104110   2.135011  -0.005173   0.470885  -0.010986
 502   6   7.006335   5.394960   3.452956  -0.001276   0.243919  -0.005231
 503   6   7.234014   2.102129  -2.438698  -0.000048   0.075267  -0.000632
 504  17   6.987889   1.509922  -2.944383  -0.000064   0.075267  -0.000846
 505  18   7.146844   1.278032  -2.781876  -0.000572   0.075267  -0.007593
 506  17   6.860795   1.842209  -3.250110   0.000698   0.131050   0.005329
 507   6   7.348424   2.637574  -2.534606   0.000094   0.144707   0.000649
 508  18   7.333413   1.129701  -2.726710  -0.000188   0.037117  -0.005062
 509   6   7.590024   2.346680  -2.267209   0.000062   0.052315   0.001182
 510  20   5.046680   3.580964   5.358646  -0.000778   0.037537  -0.020713
 511   6   5.685192   4.439492   4.405567   0.000081   0.053179   0.001525
 512   7  -4.922795   3.750870  -2.204268   0.000162   0.097074   0.001671
 513   8  -4.593503   3.245856  -2.644418  -0.000314   0.097074  -0.003231
 514   9  -5.304667   3.532210  -2.034821   0.000954   0.097074   0.009829
 515   8  -4.022077   3.406384  -3.200917  -0.001393   0.238784  -0.005835
 516   7  -4.240128   4.333994  -2.591057  -0.000599   0.336381  -0.001781
 517   7  -4.389929   3.487718   4.523277  -0.000190   0.038210  -0.004979
 518   9  -4.815128   3.289113   4.512599  -0.000180   0.038210  -0.004721
 519  12  -5.054005   3.499229   4.558907  -0.000397   0.038210  -0.010381
 520   7  -6.104221   6.149319   0.531396  -0.000205   0.038210  -0.005377
 521   9  -6.497333   5.900896   0.595436  -0.000189   0.038210  -0.004954
 522  12  -6.632671   5.950259   0.882842  -0.000362   0.038210  -0.009475
 523   7  -3.495718   2.048240   4.240221   0.000357   0.124960   0.002856
 524   9  -3.936110   1.881286   4.191215   0.001349   0.124960   0.010798
 525  23  -3.244558   1.168859   4.213870  -0.000075   0.124960  -0.000598
 526   9  -4.433369   2.582342   4.411274   0.001098   0.169514   0.006480
 527   7  -3.901385   3.047019   4.517090   0.000073   0.185463   0.000391
 528   9  -6.414581   5.720321   0.037987   0.000498   0.174377   0.002855
 529   9  -6.043591   4.584419  -1.268256   0.004947   0.363578   0.013606
 530   7  -5.746330   5.688311  -0.643971   0.001125   0.374497   0.003003
 531   7  -5.301491   4.410251  -1.884841   0.001090   0.190781   0.005713
 532  10  -3.667322   5.927939  -2.309186  -0.000282   0.068349  -0.004129
 533  10  -4.586111   6.156459  -1.742486  -0.000720   0.151474  -0.004756
 534  10  -5.168621   6.679727  -0.661710  -0.000845   0.151474  -0.005582
 535  10  -4.908753   7.302915   0.489513  -0.000873   0.151474  -0.005763
 536  10  -3.912213   7.772524   1.242893  -0.000733   0.151474  -0.004841
 537  10  -2.584368   7.897532   1.291975  -0.000584   0.151474  -0.003853
 538  10  -1.465352   7.627086   0.616794  -0.000840   0.151474  -0.005546
 539   7  -4.135815   5.593658  -2.158135  -0.000657   0.150083  -0.004375
 540   7  -5.185106   6.028539  -1.179355  -0.000615   0.150083  -0.004099
 541   7  -5.376326   6.708008   0.143483  -0.000846   0.150083  -0.005636
 542   7  -4.631691   7.355675   1.272282  -0.000785   0.150083  -0.005228
 543   7  -3.254099   7.708087   1.747877  -0.000513   0.150083  -0.003418
 544   7  -1.803919   7.621890   1.376808  -0.000512   0.150083  -0.003411
 545   7  -0.931999   7.279005   0.598725  -0.000271   0.083503  -0.003247
 546   7  -4.097470   4.652281   4.551689  -0.000185   0.009069  -0.020451
 547  11  -3.807944   4.656745   4.635277  -0.000136   0.009069  -0.014953
 548  12  -4.753243   4.561977   4.505557  -0.000283   0.009069  -0.031168
 549   7  -4.052738   4.098838   4.614529  -0.000117   0.009069  -0.012913
 550  11  -3.767719   4.159073   4.691784  -0.000125   0.009069  -0.013819
 551  12  -4.713595   4.071438   4.561254  -0.000221   0.009069  -0.024419
 552   7  -0.030097   6.225842   2.630136  -0.000169   0.148269  -0.001142
 553  11  -0.006819   6.090929   2.907086  -0.000393   0.148269  -0.002651
 554  14   1.448194   6.055872   2.594601   0.000572   0.148269   0.003860
 555   7  -2.544468   2.593016   4.606486  -0.000330   0.084662  -0.003893
 556  11  -2.334968   2.752344   4.760113  -0.000236   0.084662  -0.002790
 557  19  -1.579321   2.144858   5.037157   0.001129   0.084662   0.013340
 558  11  -0.797210   6.454853   3.254250  -0.000347   0.070573  -0.004917
 559  11  -1.818500   6.557082   3.746056  -0.000792   0.157551  -0.005029
 560  11  -2.882965   5.949908   4.368357  -0.000894   0.157551  -0.005675
 561  11  -3.361849   4.991975   4.753575  -0.000446   0.070573  -0.006313
 562   7  -1.307754   6.731854   3.088996  -0.000637   0.153880  -0.004139
 563   7  -2.667314   6.539008   3.794257  -0.000601   0.153880  -0.003906
 564   7  -3.565361   5.444108   4.408826  -0.000974   0.153880  -0.006328
 565  11  -3.281510   3.943614   4.874792  -0.000359   0.067773  -0.005294
 566  11  -2.892114   3.190217   4.797088  -0.000338   0.067773  -0.004989
 567   7  -3.420753   3.413590   4.649071  -0.000808   0.148998  -0.005425
 568  12  -5.148335   3.758499   4.678943  -0.000752   0.094000  -0.007997
 569   7  -4.203525   3.862972   4.651252  -0.000422   0.114842  -0.003672
 570  12  -5.248687   4.852428   4.525363  -0.002650   0.175504  -0.015100
 571  12  -5.584732   5.861396   3.784450  -0.006669   0.362367  -0.018403
 572  12  -6.153670   6.411669   2.431192  -0.006038   0.362367  -0.016664
 573  12  -6.627370   6.185882   1.246067  -0.001629   0.175504  -0.009283
 574   7  -4.453969   5.458147   4.171070  -0.003782   0.416753  -0.009075
 575   7  -5.001286   6.569311   2.918912  -0.004202   0.416753  -0.010083
 576   7  -5.665700   6.630126   1.288882  -0.002938   0.416753  -0.007049
 577  14   2.366531   6.858675   1.597109  -0.000376   0.267338  -0.001405
 578  14   2.290058   6.694120   2.436683  -0.000602   0.267338  -0.002252
 579   7   0.112215   6.785058   1.816741   0.001150   0.816749   0.001408
 580   7  -2.523087   1.971123   4.427362  -0.000217   0.253113  -0.000859
 581  19  -1.597423   1.498747   4.934124   0.002712   0.253113   0.010716
 582  23  -2.317372   1.075810   4.508627  -0.000927   0.253113  -0.003663
 583  19  -1.401059   1.738872   5.412586   0.000538   0.030604   0.017568
 584   7  -2.740891   2.394793   4.701047   0.000100   0.034558   0.002887
 585  23  -2.817381   0.824972   4.477102  -0.000341   0.055223  -0.006178
 586   7  -3.208941   2.117177   4.455049   0.000079   0.077902   0.001015
 587   8  -4.283876   0.219114  -1.987251  -0.001190   0.282595  -0.004212
 588   9  -4.911216   0.400788  -1.247900   0.001952   0.282595   0.006909
 589  21  -4.059855  -0.629831  -1.685215   0.001598   0.282595   0.005656
 590   9  -5.700810   3.066246  -2.106575   0.003616   0.342627   0.010553
 591   9  -5.761421   1.551196  -1.700115   0.008548   0.678692   0.012595
 592   8  -4.728523   2.161582  -2.887570  -0.002133   0.558514  -0.003819
 593   8  -4.671752   0.796550  -2.429889  -0.000734   0.276495  -0.002656
 594   8  -0.595398   0.313304  -3.897825   0.000282   0.320562   0.000880
 595  17   0.698967  -0.018120  -3.988056   0.005029   0.320562   0.015687
 596  21  -0.264756  -0.552208  -3.792512   0.004882   0.320562   0.015229
 597  17   1.141156   0.581604  -4.598148   0.004265   0.439982   0.009695
 598   8  -0.691447   1.211295  -4.397419  -0.000245   0.340775  -0.000718
 599  21  -3.866821  -1.278672  -2.373210   0.003601   0.267795   0.013447
 600  21  -3.005815  -1.346195  -3.377008   0.007217   0.531131   0.013588
 601  21  -1.521488  -1.062114  -3.976136   0.006953   0.531131   0.013091
 602   8  -3.780879  -0.045698  -3.080726  -0.000921   0.437695  -0.002105
 603   8  -2.631419   0.008642  -4.012652  -0.000989   0.437695  -0.002259
 604   8  -1.475008   0.317141  -4.233148  -0.000352   0.217259  -0.001622
 605  12  -7.155829   5.735086   0.957641  -0.000540   0.084021  -0.006432
 606  12  -8.009923   4.825163   1.010184  -0.001814   0.182857  -0.009922
 607  12  -8.521303   3.572478   1.687910  -0.002199   0.182857  -0.012024
 608  12  -8.210481   2.630696   2.830922  -0.002218   0.182857  -0.012130
 609  12  -7.211713   2.406613   3.945503  -0.001899   0.182857  -0.010383
 610  12  -5.956412   2.997020   4.550217  -0.001741   0.182857  -0.009519
 611   9  -7.344127   5.256800   0.547469  -0.000684   0.179604  -0.003807
 612   9  -8.274247   3.953786   0.889620  -0.000892   0.179604  -0.004967
 613   9  -8.389108   2.696999   1.932370  -0.001456   0.179604  -0.008107
 614   9  -7.639096   2.029299   3.225310  -0.001237   0.179604  -0.006887
 615   9  -6.348175   2.239096   4.209963  -0.000659   0.179604  -0.003671
 616   9  -5.268114   2.948624   4.546257  -0.000332   0.096201  -0.003452
 617  21  -4.432372  -1.926649  -0.299415   0.002843   0.429634   0.006618
 618  21  -4.361680  -1.412712  -1.381158   0.003321   0.429634   0.007729
 619   9  -5.604639  -0.159981  -0.201944   0.009581   0.856205   0.011190
 620  23  -3.355431   0.526637   4.400761  -0.000686   0.223875  -0.003063
 621  23  -4.045577  -0.293287   3.915500  -0.001222   0.450138  -0.002715
 622  23  -4.453302  -1.054461   2.771417  -0.000563   0.450138  -0.001251
 623   9  -4.672859   1.185977   4.131312   0.006256   0.551747   0.011338
 624   9  -5.436572   0.156006   3.214395   0.008381   0.551747   0.015190
 625   9  -5.623628  -0.393061   2.070398   0.004228   0.277818   0.015220
 626  12  -5.045592   4.262069   4.719203  -0.001034   0.157826  -0.006554
 627  11  -3.697914   4.486528   4.847144  -0.000286   0.157826  -0.001812
 628  11   0.614370   5.186941   3.848507   0.001950   0.333237   0.005853
 629  14   2.091250   5.359309   3.626880   0.001076   0.333237   0.003230
 630  19   1.473952   4.800354   4.239499   0.005632   0.333237   0.016901
 631  14   2.265751   6.333654   3.178092  -0.000623   0.425236  -0.001466
 632  11   0.143809   5.975789   3.638885  -0.000066   0.425236  -0.000154
 633  19   0.995963   4.673456   4.968745   0.003999   0.305329   0.013099
 634  19   0.145165   3.894952   5.722227   0.008801   0.606010   0.014523
 635  19  -0.893982   2.569177   5.787906   0.008698   0.606010   0.014352
 636  11  -0.482198   5.098854   4.749278  -0.000921   0.494229  -0.001864
 637  11  -1.464419   4.064357   5.309750  -0.000844   0.494229  -0.001708
 638  11  -2.174555   3.042975   5.091663  -0.000117   0.245604  -0.000475
 639  16   8.067264   4.412601   3.975046  -0.000679   0.084076  -0.008071
 640  16   8.766232   3.400663   4.185939  -0.001981   0.182890  -0.010830
 641  16   9.672402   2.321539   3.638132  -0.002380   0.182890  -0.013012
 642  16  10.295876   1.837780   2.348558  -0.002396   0.182890  -0.013101
 643  16  10.368091   2.157765   0.872706  -0.002120   0.182890  -0.011592
 644  16   9.857940   3.143662  -0.153695  -0.001968   0.182890  -0.010758
 645  13   7.943060   3.807343   4.200814  -0.000865   0.179788  -0.004809
 646  13   8.919198   2.496753   4.133315  -0.001022   0.179788  -0.005684
 647  13   9.795097   1.601821   3.081201  -0.001646   0.179788  -0.009155
 648  13  10.193460   1.508041   1.497673  -0.001427   0.179788  -0.007936
 649  13   9.942690   2.255810   0.064843  -0.000969   0.179788  -0.005392
 650  13   9.364829   3.239110  -0.627014  -0.000436   0.096265  -0.004529
 651  13   6.646448  -1.141207   1.091650   0.002025   0.282333   0.007172
 652  18   6.261803  -1.581595   0.348078  -0.004469   0.282333  -0.015828
 653  24   5.695836  -1.814736   1.178565  -0.002238   0.282333  -0.007927
 654  18   7.696906   0.732042  -2.404681  -0.002308   0.248445  -0.009292
 655  18   7.906241  -0.371956  -1.643631  -0.007164   0.501595  -0.014283
 656  18   7.261397  -1.382926  -0.524122  -0.007708   0.501595  -0.015366
 657  13   8.503755   1.069391  -1.256657   0.006150   0.607435   0.010125
 658  13   8.391087  -0.316078  -0.111948   0.007465   0.607435   0.012289
 659  13   7.545407  -1.023654   0.870809   0.003357   0.306637   0.010949
 660  13   5.999041  -0.289963   3.652146   0.002602   0.283830   0.009167
 661  20   5.207632  -0.342125   4.296267  -0.004199   0.283830  -0.014793
 662  24   5.091021  -1.024926   3.630726  -0.002229   0.283830  -0.007855
 663  20   5.527418   0.018599   4.953854  -0.003094   0.255032  -0.012131
 664  20   5.839575   1.140921   5.542273  -0.007860   0.513494  -0.015307
 665  20   5.598972   2.701680   5.607841  -0.007940   0.513494  -0.015463
 666  13   6.868406   0.502094   4.369799   0.007631   0.629161   0.012129
 667  13   7.024796   2.151036   4.897133   0.006230   0.629161   0.009902
 668  13   6.607380   3.500441   4.720216   0.002030   0.317108   0.006400
 669  24   5.592478  -2.125627   2.029772  -0.001557   0.350867  -0.004437
 670  24   5.333250  -1.738238   3.159627  -0.001374   0.350867  -0.003915
 671  13   6.782024  -0.907795   2.546219   0.010481   0.879382   0.011919
 672  14   3.771450   4.829367   4.594813  -0.000456   0.096360  -0.004733
 673  19   3.262986   4.220011   5.240466  -0.000283   0.096360  -0.002942
 674  20   3.561825   4.113196   5.311450  -0.001008   0.096360  -0.010463
 675  19   2.620590   4.608333   5.022034   0.002966   0.542741   0.005464
 676  14   3.185451   5.622254   4.062960  -0.002084   0.436209  -0.004777
 677  20   4.438724   3.954356   5.403603  -0.004119   0.427447  -0.009637
 678  14   4.509109   5.144464   4.495456  -0.001886   0.427447  -0.004411
 679  16   9.245532   4.594061  -0.386579  -0.002412   0.266800  -0.009042
 680  15   8.356884   5.196552  -1.240335  -0.000998   0.266800  -0.003741
 681  17   4.546637   3.291367  -4.214860   0.004266   0.354307   0.012040
 682  17   5.967035   2.594753  -3.908417   0.007803   0.701659   0.011121
 683  15   5.611923   4.232266  -3.589019  -0.002068   0.577750  -0.003579
 684  15   6.867107   3.574715  -3.165369  -0.000566   0.285815  -0.001980
 685  17   4.176739  -2.654897  -1.295251  -0.000088   0.091631  -0.000959
 686  18   4.493637  -2.657594  -1.220096  -0.000864   0.091631  -0.009425
 687  24   3.958599  -2.842636  -0.369431  -0.000639   0.091631  -0.006977
 688  18   4.823201  -2.727990  -1.904569  -0.000868   0.081119  -0.010698
 689  18   5.316062  -2.457538  -2.969199  -0.002230   0.175225  -0.012728
 690  18   6.091873  -1.544840  -3.806360  -0.002349   0.175225  -0.013403
 691  18   6.798745  -0.265775  -3.798497  -0.002151   0.175225  -0.012276
 692  18   7.156719   0.721513  -3.209758  -0.000714   0.081119  -0.008800
 693  17   4.576190  -2.624038  -2.492978  -0.000816   0.174215  -0.004683
 694  17   5.323587  -1.999930  -3.738913  -0.001482   0.174215  -0.008505
 695  17   6.169057  -0.750121  -4.211804  -0.001420   0.174215  -0.008150
 696  17   6.774909   0.626199  -3.722771  -0.000980   0.174215  -0.005623
 697  17   3.351194  -2.776183  -1.201383   0.002421   0.276830   0.008746
 698  21   2.406259  -3.300982  -0.916420   0.002907   0.276830   0.010501
 699  24   3.155559  -3.074629  -0.288773  -0.001056   0.276830  -0.003815
 700  21   0.064689  -1.340692  -4.071805   0.005952   0.369241   0.016120
 701  21   0.915506  -2.640259  -3.667794   0.014196   0.738220   0.019231
 702  21   1.859113  -3.547205  -2.226207   0.011409   0.738220   0.015455
 703  17   1.724525  -1.104410  -4.363429   0.013960   0.738220   0.018910
 704  17   2.767823  -2.481448  -3.465425   0.012992   0.738220   0.017599
 705  17   3.438303  -2.930640  -2.078100   0.004181   0.369241   0.011324
 706  24   3.651034  -3.201067  -0.039291  -0.000236   0.038499  -0.006121
 707  17   3.977642  -2.831358  -1.351876   0.000127   0.047684   0.002671
 708  24   4.145047  -3.199129   0.157032  -0.001290   0.253222  -0.005094
 709  24   5.025546  -2.802287   0.843362  -0.003583   0.506535  -0.007073
 710  18   5.253055  -2.700854  -0.769981  -0.005567   0.506535  -0.010990
 711  18   6.085855  -2.210574  -0.084504  -0.003018   0.253222  -0.011919
 712  20   3.392430   3.758039   5.977681  -0.001028   0.081254  -0.012653
 713  20   3.140498   2.896550   6.787247  -0.002502   0.175709  -0.014239
 714  20   3.130280   1.479403   7.165911  -0.002126   0.175709  -0.012100
 715  20   3.475845   0.136604   6.687086  -0.001810   0.175709  -0.010301
 716  20   3.919466  -0.579535   5.820267  -0.000743   0.081254  -0.009138
 717  19   2.843986   3.555073   6.254532  -0.001459   0.174371  -0.008367
 718  19   2.631699   2.221572   7.088718  -0.001526   0.174371  -0.008751
 719  19   2.823018   0.646996   7.031576  -0.001022   0.174371  -0.005859
 720  19   3.340821  -0.533937   6.106139  -0.000853   0.174371  -0.004890
 721  23  -1.256068  -1.450506   4.672993  -0.000725   0.268810  -0.002697
 722  23  -1.974092  -0.189191   4.871497  -0.001976   0.544117  -0.003631
 723  19  -0.491245  -0.519785   5.479675   0.008795   0.656050   0.013406
 724  19  -1.226439   0.892645   5.548080   0.004407   0.331554   0.013292
 725  24   4.612877  -1.670735   3.983149  -0.001340   0.254990  -0.005256
 726  20   4.625441  -0.743241   4.984411  -0.002438   0.254990  -0.009561
 727  21   1.866028  -3.977217  -0.526647   0.000048   0.093887   0.000516
 728  22   1.752866  -4.204773  -0.324361  -0.000710   0.093887  -0.007561
 729  24   2.539715  -3.650900   0.125715  -0.000513   0.093887  -0.005465
 730  22  -2.991959  -4.190355   0.934212  -0.000653   0.087570  -0.007455
 731  22  -2.872376  -4.829898  -0.186683  -0.001994   0.191968  -0.010386
 732  22  -1.910821  -5.368546  -1.300539  -0.002502   0.191968  -0.013036
 733  22  -0.385579  -5.401677  -1.658230  -0.002481   0.191968  -0.012922
 734  22   0.992055  -4.913840  -1.092948  -0.001874   0.191968  -0.009760
 735  21  -3.211374  -4.099517   0.306197  -0.000785   0.186443  -0.004213
 736  21  -2.687216  -4.865679  -1.111747  -0.001083   0.186443  -0.005809
 737  21  -1.256404  -5.194660  -1.958421  -0.001628   0.186443  -0.008731
 738  21   0.413805  -4.933039  -1.838981  -0.001279   0.186443  -0.006863
 739  21   1.466692  -4.392341  -1.118948  -0.000170   0.100265  -0.001699
 740  24   3.131289  -3.529280   0.176115  -0.000366   0.072431  -0.005052
 741  21   2.111300  -3.884820  -0.771575   0.000419   0.089919   0.004662
 742  23  -2.833005  -2.885921   2.711846  -0.002085   0.408668  -0.005102
 743  22  -2.240291  -3.960004   2.115568  -0.004685   0.408668  -0.011463
 744  24   1.934540  -3.845029   2.682979  -0.001110   0.266348  -0.004167
 745  24   2.573531  -4.095265   1.695504  -0.003299   0.532706  -0.006193
 746  24   2.987274  -3.864052   0.590336  -0.001129   0.266348  -0.004240
 747  22   0.987395  -4.678496   1.720463  -0.006852   0.532706  -0.012862
 748  22   1.643815  -4.690357   0.415620  -0.005072   0.532706  -0.009522
 =====================================================

              7617189  WORDS OF DYNAMIC MEMORY USED
 EXECUTION OF GAMESS TERMINATED NORMALLY Wed Nov 23 17:38:37 2016
 DDI: 263640 bytes (0.3 MB / 0 MWords) used by master data server.

 ----------------------------------------
 CPU timing information for all processes
 ========================================
 0: 8038.632 + 3.564 = 8042.196
 ----------------------------------------
 ddikick.x: exited gracefully.
