----- GAMESS execution script -----

          ******************************************************
          *         GAMESS VERSION =  5 DEC 2014 (R1)          *
          *             FROM IOWA STATE UNIVERSITY             *
          * M.W.SCHMIDT, K.K.BALDRIDGE, J.A.BOATZ, S.T.ELBERT, *
          *   M.S.GORDON, J.H.JENSEN, S.KOSEKI, N.MATSUNAGA,   *
          *          K.A.NGUYEN, S.J.SU, T.L.WINDUS,           *
          *       TOGETHER WITH M.DUPUIS, J.A.MONTGOMERY       *
          *         J.COMPUT.CHEM.  14, 1347-1363(1993)        *
          **************** 64 BIT LINUX VERSION ****************

 EXECUTION OF GAMESS BEGUN Wed Nov 23 15:40:00 2016

            ECHO OF THE FIRST FEW INPUT CARDS -
 INPUT CARD>! SELECT RESTRICTED HARTREE-FOCK AS DEFAULT                                     
 INPUT CARD>$contrl scftyp=rhf $end                                                         
 INPUT CARD>                                                                                
 INPUT CARD>! THEORY: HF OR DFT                                                             
 INPUT CARD> $contrl mplevl=0 $end                                                          
 INPUT CARD>                                                                                
 INPUT CARD> $system timlim=10000 mwords=20 $end                                            
 INPUT CARD> $SCF DIRSCF=.TRUE. $end                                                        
 INPUT CARD>                                                                                
 INPUT CARD>                                                                                
 INPUT CARD>! BASIS SETS                                                                    
 INPUT CARD>! 6-311G(d,p)                                                                   
 INPUT CARD> $BASIS GBASIS=N311 NGAUSS=6 NDFUNC=1 NPFUNC=1 $END                             
 INPUT CARD>                                                                                
 INPUT CARD>! One of the following                                                          
 INPUT CARD> $guess guess=HUCKEL $end                                                       
 INPUT CARD>                                                                                
 INPUT CARD> $statpt projct=.FALSE. $end                                                    
 INPUT CARD> $STATPT IFREEZ(1)=1,2,3 $END                                                   
 INPUT CARD>                                                                                
 INPUT CARD>! Optimize the geometry with COSMO effects                                      
 INPUT CARD> $statpt opttol=0.0005 nstep=50 $end                                            
 INPUT CARD> $contrl nzvar=1 $end                                                           
 INPUT CARD> $zmat dlc=.t. auto=.t. $end                                                    
 INPUT CARD> $contrl runtyp=OPTIMIZE maxit=200 $end                                         
 INPUT CARD>                                                                                
 INPUT CARD>! Run COSMO on perfect conductor                                                
 INPUT CARD> $COSGMS PRFCND=.TRUE. $end                                                     
 INPUT CARD>                                                                                
 INPUT CARD>! Specifying RSOLV                                                              
 INPUT CARD> $COSGMS COSRAD = 1.4 $end                                                      
 INPUT CARD>                                                                                
 INPUT CARD>! available memory                                                              
 INPUT CARD> $SYSTEM MWORDS=40 $END                                                         
 INPUT CARD>                                                                                
 INPUT CARD> $DATA                                                                          
 INPUT CARD>file:/home/renata/açucares/alfa-D-Fructofuranose.mol                           
 INPUT CARD>C1                                                                              
 INPUT CARD>O      8.0      3.2305000000    0.0064000000    1.1162000000                    
 INPUT CARD>C      6.0      4.0097000000   -0.1169000000    2.3134000000                    
 INPUT CARD>C      6.0      3.0861000000    0.2538000000    3.4874000000                    
 INPUT CARD>C      6.0      1.7212000000   -0.2028000000    2.9927000000                    
 INPUT CARD>C      6.0      1.8379000000   -0.0734000000    1.4674000000                    
 INPUT CARD>H      1.0      1.4119000000   -0.9537000000    0.9723000000                    
 INPUT CARD>C      6.0      1.1519000000    1.1862000000    0.9340000000                    
 INPUT CARD>H      1.0      0.9041000000    0.3975000000    3.4048000000                    
 INPUT CARD>O      8.0      1.4839000000   -1.5524000000    3.4024000000                    
 INPUT CARD>H      1.0      3.3943000000   -0.2466000000    4.4115000000                    
 INPUT CARD>O      8.0      3.0550000000    1.6694000000    3.7283000000                    
 INPUT CARD>C      6.0      5.2585000000    0.7807000000    2.2219000000                    
   40000000 WORDS OF MEMORY AVAILABLE

     BASIS OPTIONS
     -------------
     GBASIS=N311         IGAUSS=       6      POLAR=POPN311 
     NDFUNC=       1     NFFUNC=       0     DIFFSP=       F
     NPFUNC=       1      DIFFS=       F     BASNAM=        


     RUN TITLE
     ---------
 file:/home/renata/açucares/alfa-D-Fructofuranose.mol                           

 THE POINT GROUP OF THE MOLECULE IS C1      
 THE ORDER OF THE PRINCIPAL AXIS IS     0

 ATOM      ATOMIC                      COORDINATES (BOHR)
           CHARGE         X                   Y                   Z
 O           8.0     6.1047598033        0.0120942463        2.1093121475
 C           6.0     7.5772342930       -0.2209089680        4.3716921000
 C           6.0     5.8318833707        0.4796124557        6.5902304096
 C           6.0     3.2525963701       -0.3832364303        5.6553829635
 C           6.0     3.4731273928       -0.1387058875        2.7729839144
 H           1.0     2.6681041221       -1.8022316745        1.8373805779
 C           6.0     2.1767753653        2.2415929666        1.7650040725
 H           1.0     1.7085012655        0.7511660801        6.4341390430
 O           8.0     2.8041643932       -2.9336106233        6.4296037006
 H           1.0     6.4142969201       -0.4660064286        8.3365261948
 O           8.0     5.7731128925        3.1547085639        7.0454654000
 C           6.0     9.9371241064        1.4753090786        4.1987821721
 O           8.0     8.3830134541       -2.7856450785        4.5557514112
 H           1.0     2.4647696058        2.3891805663       -0.2802463640
 H           1.0     2.9766963759        3.9487714239        2.6197271368
 O           8.0    -0.4648725930        2.1701613243        2.2616240621
 H           1.0    -1.1933619612        3.6564308136        1.4575456543
 H           1.0     1.3313119584       -3.5394567750        5.5093071446
 H           1.0     4.7177009283        3.4043413669        8.5347584509
 H           1.0     9.8139139720       -2.8546200771        3.3871448604
 O           8.0    11.6977818092        0.4117712927        2.4180933739
 H           1.0    13.0086847269        1.6763759237        2.1660039271
 H           1.0    10.9120337435        1.5677166794        6.0202890517
 H           1.0     9.4499527468        3.3797749290        3.5545745829

          INTERNUCLEAR DISTANCES (ANGS.)




     $CONTRL OPTIONS
     ---------------
 SCFTYP=RHF          RUNTYP=OPTIMIZE     EXETYP=RUN     
 MPLEVL=       0     CITYP =NONE         CCTYP =NONE         VBTYP =NONE    
 DFTTYP=NONE         TDDFT =NONE    
 MULT  =       1     ICHARG=       0     NZVAR =       1     COORD =UNIQUE  
 PP    =NONE         RELWFN=NONE         LOCAL =NONE         NUMGRD=       F
 ISPHER=      -1     NOSYM =       0     MAXIT =     200     UNITS =ANGS    
 PLTORB=       F     MOLPLT=       F     AIMPAC=       F     FRIEND=        
 NPRINT=       7     IREST =       0     GEOM  =INPUT   
 NORMF =       0     NORMP =       0     ITOL  =      20     ICUT  =       9
 INTTYP=BEST         GRDTYP=BEST         QMTTOL= 1.0E-06

     $SYSTEM OPTIONS
     ---------------
  REPLICATED MEMORY=    40000000 WORDS (ON EVERY NODE).
 DISTRIBUTED MEMDDI=           0 MILLION WORDS IN AGGREGATE,
 MEMDDI DISTRIBUTED OVER   1 PROCESSORS IS           0 WORDS/PROCESSOR.
 TOTAL MEMORY REQUESTED ON EACH PROCESSOR=    40000000 WORDS.
 TIMLIM=       10000.00 MINUTES, OR       6.9 DAYS.
 PARALL= F  BALTYP=  DLB     KDIAG=    0  COREFL= F
 MXSEQ2=     300 MXSEQ3=     150  mem10=         0

     $COSGMS OPTIONS
     ---------------
     EPSI  =   INFTY     NSPA  =      92     COSRAD=    1.40
     DISEX =   10.00     OUTCHG=DBLCAV       COSBUG=       F
     COSWRT=       F     DCOSMO=       F

     SYMMETRY COORDINATES WILL NOT BE USED FOR 
     THE COSMO CALCULATION, EVEN IF SPECIFIED:
         -- SWITCHING TO C1 POINT GROUP --


     DEFINITION OF CAVITY
     ---------------------------
     ATOM         COORDINATES           RADIUS 
     1    6.1048    0.0121    2.1093    1.7200
     2    7.5772   -0.2209    4.3717    2.0000
     3    5.8319    0.4796    6.5902    2.0000
     4    3.2526   -0.3832    5.6554    2.0000
     5    3.4731   -0.1387    2.7730    2.0000
     6    2.6681   -1.8022    1.8374    1.3000
     7    2.1768    2.2416    1.7650    2.0000
     8    1.7085    0.7512    6.4341    1.3000
     9    2.8042   -2.9336    6.4296    1.7200
    10    6.4143   -0.4660    8.3365    1.3000
    11    5.7731    3.1547    7.0455    1.7200
    12    9.9371    1.4753    4.1988    2.0000
    13    8.3830   -2.7856    4.5558    1.7200
    14    2.4648    2.3892   -0.2802    1.3000
    15    2.9767    3.9488    2.6197    1.3000
    16   -0.4649    2.1702    2.2616    1.7200
    17   -1.1934    3.6564    1.4575    1.3000
    18    1.3313   -3.5395    5.5093    1.3000
    19    4.7177    3.4043    8.5348    1.3000
    20    9.8139   -2.8546    3.3871    1.3000
    21   11.6978    0.4118    2.4181    1.7200
    22   13.0087    1.6764    2.1660    1.3000
    23   10.9120    1.5677    6.0203    1.3000
    24    9.4500    3.3798    3.5546    1.3000

          ----------------
          PROPERTIES INPUT
          ----------------

     MOMENTS            FIELD           POTENTIAL          DENSITY
 IEMOM =       1   IEFLD =       0   IEPOT =       0   IEDEN =       0
 WHERE =COMASS     WHERE =NUCLEI     WHERE =NUCLEI     WHERE =NUCLEI  
 OUTPUT=BOTH       OUTPUT=BOTH       OUTPUT=BOTH       OUTPUT=BOTH    
 IEMINT=       0   IEFINT=       0                     IEDINT=       0
                                                       MORB  =       0
          EXTRAPOLATION IN EFFECT
          SOSCF IN EFFECT
 ORBITAL PRINTING OPTION: NPREO=     1   300     2     1

     -------------------------------
     INTEGRAL TRANSFORMATION OPTIONS
     -------------------------------
     NWORD  =            0
     CUTOFF = 1.0E-09     MPTRAN =       0
     DIRTRF =       T     AOINTS =DUP     

          ----------------------
          INTEGRAL INPUT OPTIONS
          ----------------------
 NOPK  =       1 NORDER=       0 SCHWRZ=       T


 -----------------------------------------------
  STATISTICS ON AUTOMATIC COORDINATE GENERATION 
 -----------------------------------------------
  NUMBER OF USER SPECIFIED BONDS                             0
  NUMBER OF BONDS                                           24
  NUMBER OF ANGLES                                          42
  NUMBER OF TORSIONS                                        66
  NUMBER OF EXTRA COORD.                                     0
  NUMBER OF EXTRA COORD. FOR CONSTRAINTS                     0
  NUMBER OF CONSTRAINED COORD.                               0

  TOTAL NUMBER OF PRIMITIVES                               132
 -----------------------------------------------

   --- ENCODED Z MATRIX ---
 COORD  TYPE   I   J   K   L   M   N
    1      1    1   2
    2      1    1   5
    3      1    2  13
    4      1    2  12
    5      1    2   3
    6      1    3   4
    7      1    3  11
    8      1    3  10
    9      1    4   5
   10      1    4   9
   11      1    4   8
   12      1    5   7
   13      1    5   6
   14      1    7  15
   15      1    7  14
   16      1    7  16
   17      1    9  18
   18      1   11  19
   19      1   12  24
   20      1   12  23
   21      1   12  21
   22      1   13  20
   23      1   16  17
   24      1   21  22
   25      2    1   2  13
   26      2    1   5   7
   27      2    1   5   6
   28      2    1   2   3
   29      2    1   2  12
   30      2    1   5   4
   31      2    2  13  20
   32      2    2  12  23
   33      2    2   3  11
   34      2    2   1   5
   35      2    2  12  21
   36      2    2   3  10
   37      2    2   3   4
   38      2    2  12  24
   39      2    3   2  12
   40      2    3  11  19
   41      2    3   4   8
   42      2    3   4   9
   43      2    3   4   5
   44      2    3   2  13
   45      2    4   9  18
   46      2    4   5   6
   47      2    4   5   7
   48      2    4   3  10
   49      2    4   3  11
   50      2    5   4   8
   51      2    5   4   9
   52      2    5   7  16
   53      2    5   7  14
   54      2    5   7  15
   55      2    6   5   7
   56      2    7  16  17
   57      2    8   4   9
   58      2   10   3  11
   59      2   12  21  22
   60      2   12   2  13
   61      2   14   7  16
   62      2   14   7  15
   63      2   15   7  16
   64      2   21  12  23
   65      2   21  12  24
   66      2   23  12  24
   67      3    1   2  12  21
   68      3    1   2  12  24
   69      3    1   5   7  16
   70      3    1   2   3  10
   71      3    1   2   3  11
   72      3    1   2  12  23
   73      3    1   5   7  14
   74      3    1   5   4   8
   75      3    1   5   7  15
   76      3    1   5   4   9
   77      3    1   2   3   4
   78      3    1   5   4   3
   79      3    1   2  13  20
   80      3    2   1   5   6
   81      3    2   1   5   7
   82      3    2   3   4   8
   83      3    2   3   4   9
   84      3    2   3   4   5
   85      3    2   3  11  19
   86      3    2  12  21  22
   87      3    2   1   5   4
   88      3    3   2  12  24
   89      3    3   2  12  23
   90      3    3   2  13  20
   91      3    3   2  12  21
   92      3    3   4   5   6
   93      3    3   4   5   7
   94      3    3   4   9  18
   95      3    3   2   1   5
   96      3    4   3  11  19
   97      3    4   3   2  12
   98      3    4   5   7  16
   99      3    4   5   7  14
  100      3    4   3   2  13
  101      3    4   5   7  15
  102      3    5   1   2  13
  103      3    5   7  16  17
  104      3    5   1   2  12
  105      3    5   4   9  18
  106      3    5   4   3  10
  107      3    5   4   3  11
  108      3    6   5   7  15
  109      3    6   5   7  14
  110      3    6   5   7  16
  111      3    6   5   4   8
  112      3    6   5   4   9
  113      3    7   5   4   8
  114      3    7   5   4   9
  115      3    8   4   3  10
  116      3    8   4   3  11
  117      3    8   4   9  18
  118      3    9   4   3  10
  119      3    9   4   3  11
  120      3   10   3  11  19
  121      3   10   3   2  12
  122      3   10   3   2  13
  123      3   11   3   2  12
  124      3   11   3   2  13
  125      3   12   2  13  20
  126      3   13   2  12  24
  127      3   13   2  12  23
  128      3   13   2  12  21
  129      3   14   7  16  17
  130      3   15   7  16  17
  131      3   22  21  12  23
  132      3   22  21  12  24

          INDEP./SYM. INTERNAL COORDINATES
          --------------------------------
 CRD  1=   0.1571 (  1)  0.1370 (  2) -0.1551 (  9)  0.3679 ( 26)  0.1221 ( 29)
           0.1309 ( 46) -0.3503 ( 47) -0.3627 ( 52)  0.1367 ( 53)  0.1542 ( 56)
          -0.1150 ( 60) -0.1511 ( 81) -0.2247 ( 93)  0.1949 ( 97) -0.1469 (104)
          -0.1086 (108) -0.1555 (113) -0.1724 (114)  0.1090 (123)
 CRD  2=   0.1164 (  2) -0.1464 (  5) -0.1423 ( 25)  0.2514 ( 29) -0.1584 ( 32)
          -0.1523 ( 33)  0.4262 ( 35) -0.4292 ( 39)  0.1530 ( 44) -0.1626 ( 59)
           0.1427 ( 60) -0.1185 ( 64) -0.1172 ( 65) -0.1004 ( 78)  0.1023 ( 90)
           0.3122 (104) -0.2379 (125)
 CRD  3=  -0.1056 (  6) -0.1856 (  9) -0.1536 ( 12)  0.1960 ( 30) -0.1294 ( 34)
           0.1233 ( 35)  0.1423 ( 42) -0.1434 ( 43) -0.3951 ( 47) -0.1462 ( 54)
           0.2669 ( 55)  0.1353 ( 69)  0.1349 ( 71) -0.1047 ( 72) -0.1434 ( 80)
          -0.4136 ( 81)  0.1076 ( 92)  0.1907 ( 93) -0.1102 ( 97)  0.1119 ( 98)
          -0.1590 (103)  0.1286 (104)
 CRD  4=   0.1532 (  1)  0.2131 (  2)  0.1388 (  4)  0.1204 ( 10)  0.2223 ( 12)
          -0.1749 ( 28)  0.1748 ( 29) -0.1093 ( 31)  0.1725 ( 37)  0.1160 ( 38)
           0.1071 ( 44)  0.1900 ( 45)  0.1555 ( 51)  0.4067 ( 52) -0.1175 ( 54)
          -0.2557 ( 60) -0.1462 ( 61) -0.1626 ( 63) -0.1065 ( 67)  0.1208 ( 86)
          -0.1287 ( 96)  0.1705 ( 97)  0.1041 (102)  0.1208 (114)  0.1446 (121)
           0.1977 (123)
 CRD  5=  -0.1098 (  1) -0.1691 (  2) -0.1280 (  3) -0.4035 (  4) -0.1754 (  5)
          -0.1005 ( 12) -0.1291 ( 24) -0.2008 ( 31) -0.1425 ( 33) -0.4021 ( 35)
          -0.1738 ( 39)  0.1462 ( 40) -0.1050 ( 42)  0.1801 ( 44)  0.1209 ( 45)
           0.1642 ( 49)  0.1025 ( 51)  0.1800 ( 64)  0.1856 ( 65) -0.1104 ( 95)
           0.1163 ( 97)  0.1001 (102) -0.1141 (107)  0.1309 (114)
 CRD  6=  -0.1293 (  3)  0.2149 (  5)  0.1046 (  6) -0.2764 ( 12) -0.1526 ( 26)
          -0.1250 ( 28)  0.1337 ( 29)  0.1106 ( 30) -0.2622 ( 31)  0.1293 ( 37)
           0.1958 ( 42) -0.1191 ( 43)  0.2383 ( 44) -0.1769 ( 45) -0.2041 ( 52)
          -0.1181 ( 57) -0.2331 ( 60)  0.1016 ( 61)  0.1042 ( 63) -0.1119 ( 74)
          -0.2368 ( 76) -0.1012 ( 78)  0.1090 ( 84)  0.2366 (102) -0.1058 (112)
          -0.1409 (114)
 CRD  7=   0.1441 (  1) -0.1643 (  4) -0.3014 (  6) -0.2210 (  9) -0.2329 ( 10)
           0.2171 ( 33) -0.1198 ( 34) -0.2133 ( 40) -0.1152 ( 41)  0.1879 ( 43)
          -0.2825 ( 45) -0.1149 ( 46) -0.1315 ( 49) -0.2480 ( 51)  0.1116 ( 52)
           0.1054 ( 57)  0.1552 ( 69)  0.1136 ( 75) -0.1562 ( 83) -0.1171 ( 91)
           0.1299 ( 98)  0.1036 (105)  0.1719 (107)  0.1141 (123)
 CRD  8=  -0.3509 (  6) -0.1688 (  7)  0.1594 (  9) -0.1172 ( 17)  0.1376 ( 33)
          -0.2998 ( 40) -0.1953 ( 42)  0.2063 ( 45) -0.1838 ( 49)  0.2170 ( 51)
          -0.3088 ( 52)  0.1005 ( 54)  0.1157 ( 61)  0.1095 ( 63)  0.1467 ( 71)
           0.1422 ( 76)  0.1607 ( 83) -0.1242 ( 96) -0.1126 (105)  0.1176 (107)
           0.1290 (112)  0.1496 (114)  0.1090 (116)  0.1139 (118)  0.2642 (119)
           0.1162 (123)  0.1578 (124)
 CRD  9=  -0.1040 (  1) -0.1613 (  2)  0.2266 (  4)  0.2469 (  5)  0.1929 (  7)
          -0.1402 (  9) -0.2822 ( 12) -0.1094 ( 16) -0.1589 ( 25)  0.2061 ( 35)
          -0.1753 ( 37)  0.1650 ( 40)  0.1304 ( 49) -0.1484 ( 56) -0.1139 ( 65)
          -0.1301 ( 90)  0.1500 ( 97)  0.2140 (100) -0.1675 (102) -0.1712 (104)
           0.1281 (114)  0.1225 (124)
 CRD 10=  -0.1747 (  3)  0.2855 (  4) -0.3425 (  5) -0.1969 (  7)  0.1520 ( 10)
          -0.1542 ( 12) -0.1051 ( 18)  0.1192 ( 19) -0.1598 ( 22) -0.1043 ( 26)
          -0.1599 ( 35)  0.1635 ( 38) -0.2049 ( 40) -0.2256 ( 44)  0.1449 ( 45)
          -0.1023 ( 52)  0.1904 ( 59)  0.1410 ( 60) -0.1003 ( 66) -0.1026 ( 67)
          -0.1344 ( 71)  0.1371 ( 85)  0.1174 ( 86) -0.1375 ( 88) -0.1396 ( 89)
          -0.2099 ( 91) -0.1661 (102)
 CRD 11=  -0.2958 (  3) -0.2126 (  4)  0.1703 ( 10)  0.1530 ( 12) -0.1010 ( 20)
          -0.4208 ( 31) -0.1055 ( 32)  0.3003 ( 35) -0.1230 ( 38)  0.1729 ( 45)
          -0.1624 ( 52)  0.1548 ( 56) -0.1742 ( 59) -0.1250 ( 60) -0.1290 ( 64)
           0.1285 ( 66) -0.1253 ( 91) -0.1203 (100) -0.1559 (124)
 CRD 12=  -0.1508 (  1) -0.2246 (  3) -0.1040 (  4) -0.1412 (  5) -0.2262 (  7)
          -0.2148 ( 10) -0.1000 ( 12) -0.1076 ( 15)  0.1352 ( 26) -0.1146 ( 27)
          -0.2667 ( 31)  0.1847 ( 35) -0.2871 ( 40) -0.2298 ( 45)  0.1663 ( 46)
          -0.1379 ( 47)  0.2092 ( 52) -0.2015 ( 56) -0.1152 ( 59) -0.1547 ( 61)
          -0.1727 ( 69) -0.1118 ( 75) -0.1163 ( 93) -0.1887 ( 98) -0.1038 ( 99)
          -0.1278 (101) -0.1154 (104)
 CRD 13=  -0.1639 (  1) -0.2004 (  5) -0.1873 (  6) -0.1950 (  9) -0.1337 ( 13)
           0.1153 ( 14) -0.1176 ( 36)  0.1321 ( 37)  0.1075 ( 39)  0.1841 ( 40)
          -0.1090 ( 43)  0.1501 ( 47) -0.1138 ( 49) -0.2055 ( 53)  0.2436 ( 54)
           0.2004 ( 58) -0.1628 ( 59) -0.1574 ( 69)  0.1364 ( 71) -0.1482 ( 83)
          -0.1203 ( 96)  0.2362 (103) -0.1366 (107) -0.1299 (116) -0.1984 (119)
          -0.1072 (120)  0.1572 (123)  0.1289 (124)
 CRD 14=   0.1897 (  3) -0.2140 (  4)  0.1263 (  6)  0.1566 (  7)  0.1980 (  9)
          -0.2676 ( 16)  0.1354 ( 18) -0.1164 ( 20)  0.1136 ( 22) -0.1092 ( 23)
           0.2690 ( 31) -0.2211 ( 32)  0.1413 ( 33) -0.1054 ( 36)  0.1124 ( 42)
           0.1149 ( 50)  0.1124 ( 53) -0.3523 ( 56) -0.1611 ( 67)  0.2008 ( 86)
          -0.1775 ( 91)  0.1231 (107)  0.1107 (119)
 CRD 15=  -0.1045 (  1) -0.1035 (  6)  0.1534 ( 16)  0.4544 ( 21)  0.1804 ( 24)
          -0.1810 ( 32)  0.1076 ( 35) -0.2137 ( 38)  0.1020 ( 40) -0.1216 ( 45)
           0.2026 ( 56)  0.5967 ( 59)  0.1439 ( 65)  0.1007 ( 66) -0.1090 ( 72)
           0.1375 (132)
 CRD 16=   0.1020 (  1) -0.3975 ( 16)  0.1623 ( 21) -0.1717 ( 23) -0.1562 ( 31)
          -0.1731 ( 38) -0.1154 ( 52)  0.1417 ( 53)  0.2411 ( 54) -0.5088 ( 56)
           0.1953 ( 59) -0.1345 ( 63)  0.1330 ( 73) -0.1481 ( 86)  0.1017 ( 91)
           0.1254 ( 99) -0.1350 (130)
 CRD 17=  -0.1159 (  3)  0.1561 (  4) -0.1838 (  6)  0.1935 (  7)  0.3290 (  9)
          -0.1729 ( 10)  0.1286 ( 12)  0.1064 ( 15) -0.1004 ( 22) -0.1365 ( 31)
           0.3569 ( 40) -0.3374 ( 45)  0.1310 ( 50)  0.2547 ( 53) -0.1465 ( 54)
           0.1130 ( 58) -0.1079 ( 61) -0.1019 ( 82) -0.1159 ( 94) -0.1327 (103)
          -0.1170 (116)  0.1221 (124)
 CRD 18=  -0.1693 (  1)  0.3499 ( 12) -0.1326 ( 25)  0.2538 ( 32) -0.1352 ( 38)
           0.2054 ( 54)  0.1357 ( 55) -0.1233 ( 63) -0.2040 ( 64)  0.2031 ( 65)
          -0.1776 ( 67) -0.1552 ( 79) -0.1474 ( 90) -0.1826 ( 91)  0.1220 (100)
          -0.1152 (112)  0.1039 (122)  0.1106 (124) -0.1258 (125) -0.1636 (126)
          -0.1467 (127) -0.2867 (128) -0.1069 (130)  0.1614 (131)
 CRD 19=  -0.1279 (  1) -0.1311 (  2) -0.1216 (  7)  0.3727 ( 12) -0.3518 ( 32)
           0.3230 ( 38) -0.1600 ( 40) -0.1355 ( 45) -0.1284 ( 46)  0.1901 ( 53)
           0.1750 ( 55) -0.1068 ( 62)  0.2390 ( 64) -0.2313 ( 65)  0.1610 ( 67)
           0.1348 ( 80)  0.1295 ( 86)  0.1164 ( 91) -0.1223 (112)  0.1229 (128)
          -0.1471 (131) -0.1266 (132)
 CRD 20=  -0.1541 (  5)  0.1779 (  6)  0.2173 ( 10)  0.1856 ( 17) -0.1202 ( 19)
           0.1443 ( 20)  0.1680 ( 33)  0.1015 ( 34) -0.1052 ( 36) -0.1220 ( 38)
          -0.1012 ( 39) -0.1584 ( 40) -0.1023 ( 41)  0.1182 ( 42)  0.2289 ( 45)
           0.1374 ( 48) -0.1487 ( 49) -0.1161 ( 51)  0.1917 ( 53) -0.1805 ( 54)
          -0.1632 ( 61)  0.1439 ( 63)  0.1449 ( 71) -0.1292 ( 83) -0.1171 ( 86)
           0.1198 ( 91) -0.1259 ( 98) -0.1167 (120)  0.1300 (121)  0.1683 (122)
           0.1767 (123)  0.2150 (124) -0.1272 (125)
 CRD 21=  -0.1136 (  3)  0.1266 (  7)  0.1118 (  9)  0.1036 ( 10) -0.1797 ( 11)
           0.1114 ( 17)  0.1289 ( 18) -0.1172 ( 22)  0.1059 ( 26) -0.1184 ( 31)
           0.1141 ( 46) -0.1077 ( 47)  0.1445 ( 52) -0.3416 ( 53)  0.2700 ( 54)
          -0.1042 ( 57)  0.1853 ( 61) -0.3198 ( 63)  0.1060 ( 64)  0.1083 ( 67)
           0.1135 ( 69) -0.1127 ( 76) -0.1065 ( 80) -0.1742 ( 94)  0.1188 ( 98)
           0.1507 (110) -0.1130 (112) -0.1026 (113) -0.1783 (114)  0.1138 (118)
           0.1614 (119) -0.1428 (129) -0.1470 (130)
 CRD 22=   0.1219 (  5) -0.2019 (  6)  0.2773 (  8)  0.1558 ( 10) -0.1965 ( 11)
          -0.1034 ( 15)  0.1420 ( 17)  0.1819 ( 19) -0.1491 ( 20) -0.1504 ( 32)
           0.1894 ( 36)  0.1897 ( 38) -0.1774 ( 41)  0.1518 ( 43)  0.1803 ( 45)
          -0.1102 ( 55)  0.1073 ( 57) -0.1443 ( 61) -0.1405 ( 74)  0.1106 ( 82)
          -0.1572 ( 85)  0.1423 ( 86) -0.1110 ( 94) -0.1467 ( 97) -0.1023 ( 98)
          -0.1132 (106) -0.1085 (110) -0.1840 (113) -0.1277 (114) -0.1395 (121)
 CRD 23=   0.1212 (  2) -0.1016 (  4) -0.2603 (  6) -0.2964 (  8)  0.1035 ( 10)
          -0.2948 ( 13)  0.1354 ( 17)  0.1220 ( 30) -0.1558 ( 34)  0.1030 ( 45)
          -0.1518 ( 46) -0.1663 ( 48)  0.1016 ( 50)  0.1378 ( 53) -0.1510 ( 54)
          -0.1827 ( 61) -0.1141 ( 70) -0.1083 ( 71)  0.1661 ( 80)  0.1076 ( 85)
          -0.1080 ( 86) -0.1210 ( 93)  0.1675 ( 99)  0.1325 (101) -0.1102 (105)
           0.1013 (107) -0.1291 (112) -0.1095 (113) -0.1515 (114)  0.1065 (120)
 CRD 24=  -0.1262 (  4) -0.1484 (  7)  0.1826 (  8)  0.2543 (  9)  0.2007 ( 11)
          -0.1098 ( 12) -0.2504 ( 13) -0.3222 ( 14)  0.2201 ( 15) -0.2136 ( 18)
           0.1300 ( 31) -0.1164 ( 40) -0.1022 ( 54) -0.1063 ( 55) -0.1146 ( 63)
           0.1377 ( 69) -0.1078 ( 85)  0.1878 ( 98) -0.2125 (103) -0.1015 (107)
           0.2055 (110) -0.1071 (115) -0.1586 (116) -0.1071 (118) -0.1586 (119)
 CRD 25=   0.1251 (  5) -0.1969 (  6) -0.2508 (  8)  0.2210 (  9)  0.2505 ( 11)
           0.3581 ( 13) -0.1019 ( 19)  0.1137 ( 20) -0.1314 ( 40) -0.2009 ( 41)
           0.1048 ( 46) -0.1227 ( 48)  0.1019 ( 49)  0.1956 ( 50) -0.1745 ( 51)
          -0.1447 ( 74) -0.1240 ( 82) -0.1676 ( 83) -0.1277 (111) -0.1481 (115)
           0.2043 (117) -0.1918 (118) -0.1297 (119)
 CRD 26=  -0.1150 (  2) -0.1459 (  8) -0.5288 ( 11) -0.1055 ( 18)  0.2196 ( 31)
           0.1679 ( 36) -0.1135 ( 38) -0.1799 ( 40) -0.1779 ( 45) -0.1022 ( 48)
           0.1611 ( 49) -0.1017 ( 58) -0.1280 ( 64) -0.1004 ( 76) -0.1068 ( 84)
           0.1456 ( 92)  0.1687 ( 93) -0.1448 ( 94)  0.1409 ( 97) -0.1133 (104)
          -0.2131 (106) -0.1294 (107) -0.1308 (115)
 CRD 27=   0.2115 (  1)  0.1121 (  2) -0.1990 (  3) -0.1267 (  4)  0.1388 (  5)
           0.3563 (  8)  0.1300 (  9)  0.2143 ( 11)  0.2206 ( 13)  0.2713 ( 14)
          -0.2716 ( 15) -0.1205 ( 22)  0.1225 ( 30)  0.1662 ( 31) -0.1571 ( 34)
          -0.1086 ( 38) -0.1252 ( 61)  0.1086 ( 63)  0.1191 ( 65)  0.1244 ( 68)
           0.1253 ( 72)  0.1555 ( 99)  0.1550 (101)  0.1492 (103)  0.1000 (109)
           0.1017 (123)  0.1249 (126)  0.1258 (127)
 CRD 28=   0.1207 (  1)  0.1007 (  2)  0.1146 (  9) -0.2500 ( 13)  0.1434 ( 14)
          -0.1158 ( 15) -0.2620 ( 19)  0.3385 ( 20) -0.1676 ( 45)  0.1896 ( 64)
          -0.1577 ( 65) -0.1821 ( 68) -0.1920 ( 72)  0.1329 ( 74)  0.1041 ( 78)
          -0.1266 ( 86) -0.1847 ( 88) -0.1946 ( 89)  0.1209 ( 92)  0.1319 ( 99)
           0.1347 (101)  0.1497 (111) -0.1851 (126) -0.1950 (127)
 CRD 29=  -0.1085 ( 15) -0.5708 ( 19) -0.5995 ( 20)  0.1535 ( 32)  0.1534 ( 38)
           0.1848 ( 59) -0.2699 ( 66)  0.1718 (131) -0.1660 (132)
 CRD 30=  -0.1511 (  3) -0.1072 (  4)  0.1927 (  8)  0.1493 ( 13)  0.3428 ( 14)
           0.5529 ( 15) -0.3051 ( 19)  0.1902 ( 31) -0.1406 ( 56)  0.1800 ( 62)
          -0.1018 ( 75) -0.1219 ( 89) -0.1325 (101) -0.1537 (108) -0.1107 (127)
          -0.1223 (129)  0.1071 (130)
 CRD 31=  -0.1882 (  3) -0.1177 (  4)  0.1907 (  8)  0.2108 ( 13) -0.4967 ( 14)
          -0.3208 ( 15) -0.2644 ( 19)  0.2390 ( 31)  0.1194 ( 56) -0.1928 ( 62)
          -0.1025 ( 73) -0.1147 ( 88) -0.1281 ( 89) -0.1491 ( 99) -0.1620 (109)
          -0.1014 (126) -0.1148 (127)  0.1005 (129) -0.1116 (130)
 CRD 32=   0.2595 (  1) -0.3360 (  2)  0.1555 (  4) -0.1098 (  6)  0.2908 (  8)
          -0.1036 ( 11) -0.2841 ( 13)  0.2517 ( 20) -0.1401 ( 27)  0.1296 ( 30)
           0.1115 ( 32) -0.1100 ( 34)  0.1009 ( 45)  0.1362 ( 55) -0.1441 ( 69)
          -0.1910 ( 73) -0.1650 ( 75)  0.1479 ( 79)  0.2271 ( 90) -0.1034 ( 92)
           0.1287 ( 96) -0.1447 (111)  0.1278 (121)
 CRD 33=  -0.3143 (  2) -0.1020 (  3) -0.1477 (  5) -0.3460 (  7) -0.1494 (  8)
           0.1558 ( 14) -0.1392 ( 15) -0.1304 ( 21)  0.2252 ( 22)  0.1134 ( 24)
           0.2026 ( 31)  0.1213 ( 34)  0.2823 ( 40)  0.1120 ( 45)  0.1008 ( 48)
           0.1564 ( 59) -0.1017 ( 65)  0.1063 ( 69)  0.1841 ( 73)  0.1329 ( 75)
          -0.1076 ( 90)  0.1288 ( 99)  0.1611 (108)  0.2123 (109)  0.1345 (110)
          -0.1156 (126)
 CRD 34=   0.2634 (  3)  0.3402 (  7)  0.1435 (  8) -0.4038 ( 10) -0.1665 ( 11)
          -0.1727 ( 18) -0.1703 ( 31) -0.2936 ( 40)  0.3372 ( 45)  0.1414 ( 50)
          -0.1283 ( 57) -0.1916 ( 82) -0.1755 (116) -0.1170 (121)
 CRD 35=   0.2321 (  7)  0.2873 ( 10)  0.1061 ( 11) -0.5401 ( 21)  0.1403 ( 24)
          -0.1667 ( 40) -0.2288 ( 45)  0.4688 ( 59) -0.1316 ( 64) -0.1427 ( 65)
           0.1738 ( 66) -0.1186 ( 68)  0.1296 ( 72) -0.1246 ( 88)  0.1236 ( 89)
           0.1004 (115) -0.1270 (126)  0.1212 (127)
 CRD 36=  -0.6345 ( 16)  0.1620 ( 23)  0.5479 ( 56) -0.1559 ( 61)  0.2126 ( 62)
          -0.1603 ( 63)  0.1276 ( 73) -0.1611 ( 75)  0.1317 ( 99) -0.1569 (101)
          -0.1687 (108)  0.1199 (109)
 CRD 37=  -0.3289 (  2) -0.1821 (  5)  0.3481 (  7)  0.1257 (  8)  0.3057 ( 10)
           0.1082 ( 11)  0.3009 ( 21)  0.1868 ( 22)  0.1012 ( 31)  0.1079 ( 34)
          -0.2469 ( 40) -0.2262 ( 45) -0.2225 ( 59) -0.1252 ( 70)  0.1357 (108)
          -0.1027 (111)  0.1588 (115) -0.1265 (122)
 CRD 38=   0.2577 (  1) -0.1086 (  2)  0.5000 (  3) -0.1740 (  7)  0.1965 ( 10)
           0.3104 ( 13) -0.1236 ( 14)  0.1808 ( 17) -0.2626 ( 31)  0.1163 ( 40)
          -0.1240 ( 45)  0.1902 ( 80)  0.1251 ( 81)  0.1025 ( 87) -0.1158 ( 92)
          -0.1166 (102) -0.1209 (104) -0.1051 (112) -0.1014 (117)
 CRD 39=  -0.3139 (  1)  0.2258 (  2) -0.1662 (  6)  0.1356 (  8) -0.2298 ( 11)
           0.2597 ( 13) -0.1044 ( 14) -0.1496 ( 18)  0.1300 ( 21)  0.2114 ( 22)
           0.2540 ( 24)  0.1097 ( 28) -0.1040 ( 29) -0.1050 ( 34) -0.1149 ( 36)
           0.1555 ( 70)  0.1154 ( 71)  0.1907 ( 85)  0.1939 ( 90)  0.1620 ( 94)
           0.1914 ( 96)  0.1149 (105)  0.1258 (115)  0.1060 (122)  0.1979 (125)
 CRD 40=   0.1108 (  1)  0.1188 (  2) -0.1296 ( 15) -0.1196 ( 17)  0.1928 ( 19)
           0.3315 ( 22) -0.4003 ( 23)  0.5267 ( 24) -0.1121 ( 59) -0.1283 ( 85)
          -0.1070 ( 86) -0.1518 ( 94) -0.1090 ( 96) -0.1131 (105) -0.1166 (120)
          -0.1356 (132)
 CRD 41=   0.1608 (  1) -0.1394 ( 12)  0.1667 ( 15)  0.1416 ( 22)  0.7361 ( 23)
           0.3516 ( 24)  0.1249 ( 54) -0.1537 ( 56) -0.1361 ( 85) -0.1183 ( 96)
           0.1263 (129)
 CRD 42=   0.1905 (  1) -0.2071 (  3) -0.1229 (  8)  0.1067 (  9) -0.1282 ( 10)
          -0.1005 ( 11) -0.1764 ( 14)  0.1436 ( 15)  0.4504 ( 17)  0.1751 ( 18)
           0.1322 ( 19) -0.1315 ( 20)  0.1859 ( 22) -0.2086 ( 23)  0.1262 ( 41)
          -0.1434 ( 86)  0.2583 ( 94)  0.1935 (103)  0.2295 (105)  0.1454 (117)
           0.1588 (129)  0.1743 (130) -0.1317 (131) -0.1382 (132)
 CRD 43=  -0.1547 (  1) -0.1109 (  4) -0.1078 ( 10)  0.2232 ( 17)  0.4086 ( 18)
          -0.1006 ( 19)  0.2092 ( 20) -0.4093 ( 22) -0.1517 ( 23)  0.4561 ( 24)
           0.2040 ( 86)  0.2215 (131)  0.1560 (132)
 CRD 44=  -0.1836 (  1)  0.1018 (  4) -0.1505 (  5)  0.1065 (  8)  0.1364 ( 11)
           0.4659 ( 18)  0.4103 ( 22) -0.3456 ( 24)  0.1771 ( 79) -0.1484 ( 85)
           0.2164 ( 90) -0.1192 ( 94) -0.1261 ( 96) -0.1135 (105) -0.1007 (106)
          -0.1243 (115)  0.2000 (125)
 CRD 45=   0.1120 (  9)  0.2959 ( 14) -0.2691 ( 15)  0.4471 ( 17)  0.1312 ( 18)
           0.1529 ( 23) -0.1096 ( 45)  0.1161 ( 94) -0.1021 ( 99) -0.3892 (103)
           0.1018 (105) -0.1064 (108) -0.1179 (109) -0.3347 (129) -0.3338 (130)
 CRD 46=   0.1030 (  3) -0.1273 (  7)  0.2447 (  8) -0.1304 ( 11) -0.2971 ( 17)
           0.5147 ( 18)  0.1275 ( 19) -0.1772 ( 20)  0.2207 ( 85) -0.2602 ( 86)
          -0.1340 ( 90)  0.1556 ( 96)  0.1615 (120) -0.1074 (125) -0.2578 (131)
          -0.2058 (132)
 CRD 47=   0.1013 (  1)  0.1180 (  6) -0.1647 (  8)  0.1295 (  9) -0.2682 ( 11)
          -0.4327 ( 17)  0.1348 ( 18) -0.1023 ( 19)  0.1054 ( 20)  0.1008 ( 22)
           0.1148 ( 45) -0.2018 ( 85)  0.1934 ( 86)  0.3019 ( 94) -0.1910 ( 96)
           0.2571 (105)  0.2494 (117) -0.2086 (120)  0.1715 (131)  0.1710 (132)
 CRD 48=   0.1259 (  1) -0.1121 ( 19)  0.3396 ( 22) -0.1173 ( 31)  0.1384 ( 68)
           0.1101 ( 72) -0.3249 ( 79)  0.2149 ( 85)  0.2280 ( 86)  0.1079 ( 88)
          -0.3207 ( 90)  0.2018 ( 96)  0.2234 (120) -0.2869 (125)  0.1729 (126)
           0.1446 (127)  0.1319 (128)  0.1671 (131)  0.1958 (132)
 CRD 49=   0.1467 ( 10) -0.1683 ( 11)  0.1140 ( 12) -0.1139 ( 15) -0.2219 ( 16)
          -0.1552 ( 21)  0.2291 ( 23)  0.1073 ( 24)  0.1200 ( 26) -0.1000 ( 27)
           0.1497 ( 34) -0.1121 ( 45) -0.1354 ( 52) -0.1865 ( 53) -0.1583 ( 54)
           0.1553 ( 55) -0.1465 ( 56)  0.2245 ( 61)  0.1213 ( 62)  0.1539 ( 63)
           0.1125 ( 64)  0.1007 ( 65)  0.1402 ( 76) -0.1585 ( 92)  0.1006 (103)
          -0.1255 (111)  0.2839 (130)  0.1238 (132)
 CRD 50=  -0.1119 (  2)  0.1652 (  4) -0.1197 ( 19) -0.2569 ( 21)  0.2166 ( 22)
          -0.1075 ( 23)  0.2235 ( 24)  0.1051 ( 29) -0.1754 ( 31) -0.1664 ( 32)
          -0.1458 ( 35) -0.1916 ( 38) -0.1220 ( 44)  0.1140 ( 53) -0.1397 ( 59)
           0.1089 ( 60) -0.1152 ( 61)  0.1816 ( 64)  0.2243 ( 65)  0.1224 ( 66)
           0.2443 ( 79) -0.1113 ( 80) -0.1796 (102)  0.1082 (120)  0.1077 (126)
          -0.1604 (130) -0.1957 (131)  0.1606 (132)
 CRD 51=   0.1357 (  2)  0.1866 (  3)  0.1208 (  6) -0.1228 (  7)  0.1504 (  8)
          -0.1207 ( 11) -0.2129 ( 12) -0.2417 ( 13)  0.1786 ( 14)  0.1119 ( 17)
          -0.1215 ( 41) -0.1498 ( 45)  0.1476 ( 50)  0.1180 ( 53)  0.1516 ( 54)
           0.1127 ( 56) -0.1537 ( 62) -0.1741 ( 63)  0.1427 ( 69) -0.1394 ( 71)
           0.1253 ( 72) -0.1127 ( 74) -0.1129 ( 81) -0.1202 ( 96)  0.1543 (103)
           0.1168 (106)  0.1446 (114)  0.2063 (117)  0.1055 (118) -0.1668 (120)
           0.3274 (129)
 CRD 52=  -0.1607 (  1) -0.1338 (  2) -0.2028 (  4) -0.1091 (  7)  0.2021 (  8)
           0.1887 ( 10) -0.1496 ( 12)  0.1717 ( 13)  0.1463 ( 16)  0.1046 ( 19)
           0.1765 ( 20)  0.1055 ( 25)  0.1217 ( 32)  0.1312 ( 33)  0.1334 ( 40)
          -0.1425 ( 57)  0.1150 ( 59) -0.1011 ( 61) -0.2088 ( 66)  0.1563 ( 74)
          -0.1413 ( 82) -0.1053 ( 96)  0.1157 (107) -0.1016 (108)  0.1146 (111)
          -0.1417 (115)  0.1393 (119) -0.1510 (122) -0.1191 (124) -0.1686 (125)
           0.1997 (126)  0.1047 (128) -0.2257 (132)
 CRD 53=  -0.2517 (  2) -0.1825 (  5)  0.1375 (  9)  0.1875 ( 11) -0.1667 ( 15)
           0.1859 ( 16) -0.1051 ( 20)  0.1803 ( 27) -0.1981 ( 46) -0.1509 ( 57)
           0.1535 ( 62) -0.1254 ( 63)  0.1068 ( 66)  0.1108 ( 69)  0.1314 ( 73)
           0.1295 ( 80)  0.1115 ( 83) -0.1031 (101)  0.1671 (105) -0.3277 (108)
          -0.1482 (109) -0.1688 (110) -0.1158 (115)  0.1621 (117)  0.1165 (119)
           0.1429 (120)  0.1122 (125) -0.1341 (126)  0.1630 (130)  0.1241 (132)
 CRD 54=  -0.2162 (  4) -0.1314 (  5)  0.1261 (  6) -0.1624 (  9) -0.1577 ( 10)
           0.1832 ( 11)  0.2515 ( 12) -0.1448 ( 13) -0.1711 ( 16) -0.1108 ( 18)
           0.1378 ( 36)  0.1029 ( 40) -0.1075 ( 41)  0.1015 ( 61)  0.1062 ( 63)
          -0.1066 ( 64) -0.1954 ( 74)  0.1043 ( 75) -0.1554 ( 76)  0.1399 ( 83)
           0.1340 ( 94) -0.1661 (102)  0.2040 (105) -0.1250 (106)  0.1248 (108)
           0.1237 (116)  0.2588 (117)  0.2022 (119)  0.1561 (120) -0.1322 (132)
 CRD 55=   0.2259 (  1) -0.2795 (  4)  0.1583 (  6) -0.1185 (  7) -0.1025 ( 11)
          -0.1480 ( 12)  0.1994 ( 19) -0.1047 ( 25)  0.1049 ( 32) -0.1210 ( 48)
          -0.1200 ( 49)  0.1290 ( 58)  0.1055 ( 60) -0.1072 ( 62) -0.1856 ( 65)
          -0.1031 ( 68) -0.1409 ( 70)  0.1856 ( 79)  0.1297 ( 85)  0.1416 ( 91)
           0.1239 ( 96)  0.1281 (100)  0.2660 (120) -0.1456 (121)  0.2202 (124)
           0.1326 (125) -0.1424 (126) -0.1128 (127)  0.1123 (129)  0.2617 (131)
           0.1126 (132)
 CRD 56=  -0.2316 (  3)  0.2150 (  7) -0.1982 ( 12)  0.1526 ( 19) -0.1601 ( 21)
           0.1362 ( 25) -0.1141 ( 41) -0.1164 ( 42) -0.1024 ( 46)  0.1368 ( 48)
           0.1265 ( 51)  0.1023 ( 55) -0.1259 ( 58)  0.1267 ( 64) -0.1112 ( 66)
           0.2533 ( 70) -0.2295 ( 72) -0.1550 ( 74)  0.2172 ( 80)  0.1186 ( 81)
          -0.1105 ( 92) -0.1425 (106) -0.2340 (111) -0.1464 (113) -0.1284 (115)
           0.1833 (117)  0.1229 (121)  0.1453 (122)  0.1297 (131)
 CRD 57=  -0.1131 (  1) -0.1378 (  4)  0.1757 (  5) -0.1764 (  8)  0.2632 (  9)
          -0.1016 ( 12)  0.1643 ( 14) -0.1513 ( 15)  0.2266 ( 20) -0.1009 ( 30)
           0.1270 ( 34) -0.1133 ( 44) -0.1187 ( 50) -0.1407 ( 63)  0.1092 ( 65)
          -0.1223 ( 66) -0.1545 ( 67)  0.1868 ( 69)  0.1209 ( 80)  0.1563 ( 82)
          -0.1578 ( 91) -0.1143 (102) -0.1132 (108)  0.1116 (115) -0.1437 (117)
          -0.1250 (119)  0.1524 (126)  0.2119 (129)  0.1776 (130) -0.1049 (131)
          -0.2406 (132)
 CRD 58=  -0.2142 (  4)  0.1393 (  5)  0.1610 (  6)  0.1215 ( 12) -0.2283 ( 14)
           0.2508 ( 16) -0.1044 ( 41) -0.1392 ( 52)  0.1428 ( 57) -0.1207 ( 61)
           0.2420 ( 62)  0.1788 ( 73) -0.1203 ( 74) -0.1561 ( 75)  0.1258 ( 76)
           0.1279 ( 79)  0.2336 ( 99) -0.1013 (101) -0.1634 (105) -0.1113 (108)
           0.2236 (109)  0.1724 (112)  0.1771 (114) -0.1699 (129)
 CRD 59=   0.1265 (  5) -0.1835 (  6)  0.1196 (  8)  0.2205 ( 12) -0.1719 ( 15)
           0.2490 ( 19) -0.1289 ( 21)  0.1043 ( 27) -0.1383 ( 36)  0.1326 ( 49)
          -0.1353 ( 55)  0.1107 ( 61)  0.1469 ( 64) -0.1243 ( 66)  0.1156 ( 67)
          -0.1037 ( 71) -0.1576 ( 72) -0.1061 ( 76) -0.1402 ( 89)  0.1330 ( 91)
           0.1528 ( 92)  0.1123 ( 97) -0.1034 (102) -0.1242 (104)  0.1261 (106)
           0.1315 (111)  0.1250 (115)  0.1171 (118) -0.1848 (120)  0.1033 (121)
          -0.1365 (127)  0.1367 (128)  0.1757 (130)  0.2033 (131)  0.1005 (132)
 CRD 60=  -0.1155 (  7) -0.1113 ( 14)  0.1874 ( 15)  0.1564 ( 20) -0.1894 ( 21)
           0.1246 ( 35) -0.1003 ( 37) -0.1202 ( 41) -0.1275 ( 53)  0.1487 ( 58)
           0.1264 ( 63) -0.1677 ( 66)  0.2162 ( 68)  0.1843 ( 75) -0.1225 ( 81)
           0.1578 ( 88) -0.1158 ( 89)  0.1458 ( 96) -0.1157 ( 98)  0.1287 (101)
           0.1392 (106) -0.1061 (107) -0.2065 (110) -0.1729 (116)  0.1093 (117)
           0.2397 (118)  0.1411 (125) -0.1863 (127) -0.1099 (128) -0.1203 (129)
          -0.1583 (130) -0.1129 (132)
 CRD 61=   0.1062 (  2)  0.1759 (  4) -0.2593 (  5)  0.2356 (  6) -0.1346 ( 15)
           0.1085 ( 16) -0.1805 ( 21) -0.1098 ( 26)  0.1319 ( 28) -0.1241 ( 29)
           0.1201 ( 33) -0.1392 ( 34)  0.1120 ( 44) -0.1369 ( 48) -0.1234 ( 60)
           0.1075 ( 62) -0.1096 ( 66)  0.2056 ( 68)  0.1455 ( 71) -0.1545 ( 75)
          -0.1250 ( 79)  0.1190 ( 88) -0.1202 ( 89) -0.1100 ( 95) -0.1183 (101)
          -0.1284 (104)  0.1379 (109)  0.1381 (110)  0.1787 (120) -0.1254 (121)
          -0.1976 (122) -0.1790 (127)  0.1032 (130)
 CRD 62=  -0.1069 (  1) -0.1276 (  5)  0.1048 (  8)  0.3290 (  9) -0.1604 ( 10)
          -0.1203 ( 13) -0.1370 ( 14)  0.1226 ( 15)  0.1171 ( 19)  0.1071 ( 42)
          -0.1321 ( 48) -0.1482 ( 50)  0.1225 ( 54)  0.1443 ( 55)  0.1315 ( 57)
           0.1136 ( 67)  0.1834 ( 73)  0.1561 ( 75) -0.1404 ( 81)  0.1700 ( 82)
          -0.1027 ( 83) -0.1166 ( 89) -0.1631 ( 96)  0.1513 ( 97) -0.1451 ( 98)
          -0.1671 (110)  0.1299 (115)  0.2792 (116) -0.1422 (117) -0.1428 (118)
          -0.1079 (129) -0.1118 (130)
 CRD 63=  -0.1984 (  1)  0.1398 (  4)  0.1951 (  5)  0.1901 (  6) -0.1548 (  7)
          -0.1337 ( 20)  0.1696 ( 25)  0.1003 ( 32) -0.1056 ( 35) -0.1768 ( 37)
          -0.2059 ( 39)  0.1719 ( 58) -0.2119 ( 68)  0.1984 ( 71)  0.1128 ( 77)
           0.1170 ( 87) -0.1800 ( 88) -0.1782 ( 95)  0.1024 ( 96) -0.1146 (100)
           0.1139 (106)  0.1550 (118) -0.2902 (122)  0.1694 (123) -0.1940 (125)
           0.1664 (127)  0.1816 (128)
 CRD 64=  -0.2094 (  2)  0.1140 (  9) -0.1986 ( 11)  0.1731 ( 12)  0.1967 ( 27)
          -0.1103 ( 43) -0.1875 ( 47)  0.1449 ( 50) -0.1059 ( 51)  0.1378 ( 75)
          -0.2030 ( 78) -0.1084 ( 83)  0.1173 ( 84)  0.1909 ( 87) -0.1687 ( 93)
          -0.1179 ( 95)  0.1498 (101) -0.2133 (105)  0.1725 (107) -0.1886 (109)
          -0.1637 (110)  0.1956 (111)  0.3064 (112) -0.1033 (115) -0.1791 (118)
 CRD 65=  -0.1462 (  2)  0.1128 (  3)  0.1766 (  6) -0.1401 ( 10)  0.2046 ( 13)
           0.1175 ( 14) -0.1080 ( 16)  0.1453 ( 26)  0.1135 ( 30) -0.1261 ( 43)
          -0.1531 ( 46)  0.1139 ( 51)  0.1124 ( 52) -0.1149 ( 54) -0.1099 ( 55)
           0.1157 ( 57)  0.1095 ( 67) -0.2040 ( 73)  0.1901 ( 76)  0.1443 ( 78)
           0.1033 ( 82) -0.2108 ( 87) -0.1135 ( 89) -0.1382 ( 93)  0.1513 ( 95)
           0.2277 ( 98)  0.2312 (101)  0.1072 (102) -0.1099 (105) -0.1881 (109)
          -0.1021 (111)  0.1306 (112) -0.3251 (113)  0.1089 (123)
 CRD 66=  -0.1305 (  1)  0.1715 (  3)  0.1775 (  7) -0.1648 (  8)  0.1524 ( 10)
           0.1009 ( 28)  0.1026 ( 29) -0.1184 ( 33)  0.1649 ( 36) -0.1036 ( 38)
          -0.1213 ( 42) -0.1405 ( 44)  0.1208 ( 48) -0.1353 ( 49)  0.1372 ( 67)
          -0.2226 ( 77) -0.1505 ( 78)  0.1406 ( 83)  0.2315 ( 84) -0.1855 ( 88)
          -0.2313 ( 89) -0.1039 ( 92)  0.1196 ( 95) -0.1808 (100)  0.1036 (111)
           0.1269 (113) -0.2177 (115) -0.1697 (116) -0.1108 (118)  0.2224 (121)
           0.2236 (123)  0.1175 (128)

 THE DETERMINANT OF THE G MATRIX IS 10**(   -35)


                     --------------------
                     INTERNAL COORDINATES
                     --------------------

                 - - ATOMS - -         COORDINATE      COORDINATE
 NO.   TYPE    I  J  K  L  M  N        (BOHR,RAD)       (ANG,DEG)
 ----------------------------------------------------------------
   1 STRETCH   1  2                     2.7093975       1.4337515
   2 STRETCH   1  5                     2.7182145       1.4384173
   3 STRETCH   2 13                     2.6946297       1.4259367
   4 STRETCH   2 12                     2.9113800       1.5406361
   5 STRETCH   2  3                     2.9084175       1.5390684
   6 STRETCH   3  4                     2.8759641       1.5218948
   7 STRETCH   3 11                     2.7141909       1.4362881
   8 STRETCH   3 10                     2.0695288       1.0951476
   9 STRETCH   4  5                     2.9011469       1.5352209
  10 STRETCH   4  9                     2.7027611       1.4302397
  11 STRETCH   4  8                     2.0682262       1.0944583
  12 STRETCH   5  7                     2.8917771       1.5302626
  13 STRETCH   5  6                     2.0714087       1.0961424
  14 STRETCH   7 15                     2.0699960       1.0953948
  15 STRETCH   7 14                     2.0706936       1.0957640
  16 STRETCH   7 16                     2.6888730       1.4228904
  17 STRETCH   9 18                     1.8393721       0.9733539
  18 STRETCH  11 19                     1.8423368       0.9749227
  19 STRETCH  12 24                     2.0686540       1.0946847
  20 STRETCH  12 23                     2.0680608       1.0943707
  21 STRETCH  12 21                     2.7206398       1.4397007
  22 STRETCH  13 20                     1.8487496       0.9783162
  23 STRETCH  16 17                     1.8401728       0.9737776
  24 STRETCH  21 22                     1.8388150       0.9730590
  25 BEND      1  2 13                  1.8769605     107.5419163
  26 BEND      1  5  7                  1.8788867     107.6522776
  27 BEND      1  5  6                  1.8865473     108.0911976
  28 BEND      1  2  3                  1.8651228     106.8636620
  29 BEND      1  2 12                  1.9185918     109.9272117
  30 BEND      1  5  4                  1.8974225     108.7142986
  31 BEND      2 13 20                  1.7964866     102.9310978
  32 BEND      2 12 23                  1.9346065     110.8447849
  33 BEND      2  3 11                  1.9587819     112.2299355
  34 BEND      2  1  5                  1.8939022     108.5126007
  35 BEND      2 12 21                  1.9131241     109.6139351
  36 BEND      2  3 10                  1.9441306     111.3904794
  37 BEND      2  3  4                  1.7905439     102.5906080
  38 BEND      2 12 24                  1.9433318     111.3447086
  39 BEND      3  2 12                  1.9729518     113.0418106
  40 BEND      3 11 19                  1.8561886     106.3517729
  41 BEND      3  4  8                  1.9634175     112.4955382
  42 BEND      3  4  9                  1.9164289     109.8032851
  43 BEND      3  4  5                  1.8023532     103.2672328
  44 BEND      3  2 13                  1.9354176     110.8912595
  45 BEND      4  9 18                  1.8758434     107.4779118
  46 BEND      4  5  6                  1.9299943     110.5805268
  47 BEND      4  5  7                  1.9623421     112.4339212
  48 BEND      4  3 10                  1.9709843     112.9290803
  49 BEND      4  3 11                  1.9079470     109.3173099
  50 BEND      5  4  8                  1.9655930     112.6201808
  51 BEND      5  4  9                  1.9570835     112.1326222
  52 BEND      5  7 16                  1.9328230     110.7426026
  53 BEND      5  7 14                  1.9183556     109.9136820
  54 BEND      5  7 15                  1.9408777     111.2041001
  55 BEND      6  5  7                  1.9064471     109.2313739
  56 BEND      7 16 17                  1.8616475     106.6645466
  57 BEND      8  4  9                  1.8606749     106.6088202
  58 BEND     10  3 11                  1.8911573     108.3553312
  59 BEND     12 21 22                  1.8569271     106.3940877
  60 BEND     12  2 13                  1.8925189     108.4333455
  61 BEND     14  7 16                  1.8975360     108.7208032
  62 BEND     14  7 15                  1.8705754     107.1760758
  63 BEND     15  7 16                  1.9021211     108.9835133
  64 BEND     21 12 23                  1.8638466     106.7905462
  65 BEND     21 12 24                  1.8843790     107.9669614
  66 BEND     23 12 24                  1.9221497     110.1310671
  67 TORSION   1  2 12 21              -1.2543185     -71.8671550
  68 TORSION   1  2 12 24               0.8295366      47.5289468
  69 TORSION   1  5  7 16               3.0983323     177.5213620
  70 TORSION   1  2  3 10               2.6631737     152.5886140
  71 TORSION   1  2  3 11              -1.4959684     -85.7126736
  72 TORSION   1  2 12 23               2.9757543     170.4981613
  73 TORSION   1  5  7 14               1.0013652      57.3740006
  74 TORSION   1  5  4  8               2.4278867     139.1076588
  75 TORSION   1  5  7 15              -1.0671716     -61.1444313
  76 TORSION   1  5  4  9              -1.7565583    -100.6433751
  77 TORSION   1  2  3  4               0.5499555      31.5101285
  78 TORSION   1  5  4  3               0.3054221      17.4994000
  79 TORSION   1  2 13 20               1.3852758      79.3704548
  80 TORSION   2  1  5  6              -2.0563923    -117.8225989
  81 TORSION   2  1  5  7               2.1694304     124.2992036
  82 TORSION   2  3  4  8              -2.6248276    -150.3915448
  83 TORSION   2  3  4  9               1.5892502      91.0573309
  84 TORSION   2  3  4  5              -0.5008971     -28.6992902
  85 TORSION   2  3 11 19              -3.0796791    -176.4526167
  86 TORSION   2 12 21 22               2.9802679     170.7567752
  87 TORSION   2  1  5  4               0.0392901       2.2511546
  88 TORSION   3  2 12 24              -1.2527999     -71.7801486
  89 TORSION   3  2 12 23               0.8934177      51.1890660
  90 TORSION   3  2 13 20              -2.8644809    -164.1226670
  91 TORSION   3  2 12 21               2.9465303     168.8237497
  92 TORSION   3  4  5  6               2.3739295     136.0161428
  93 TORSION   3  4  5  7              -1.7731580    -101.5944685
  94 TORSION   3  4  9 18              -2.9322836    -168.0074774
  95 TORSION   3  2  1  5              -0.3702659     -21.2146749
  96 TORSION   4  3 11 19               1.2290368      70.4186193
  97 TORSION   4  3  2 12               2.6628679     152.5710934
  98 TORSION   4  5  7 16              -1.0954693     -62.7657666
  99 TORSION   4  5  7 14               3.0907490     177.0868720
 100 TORSION   4  3  2 13              -1.4907554     -85.4139921
 101 TORSION   4  5  7 15               1.0222121      58.5684400
 102 TORSION   5  1  2 13               1.7087385      97.9035065
 103 TORSION   5  7 16 17              -3.0615677    -175.4149097
 104 TORSION   5  1  2 12              -2.5173704    -144.2347005
 105 TORSION   5  4  9 18              -0.9392787     -53.8167030
 106 TORSION   5  4  3 10              -2.5955830    -148.7159496
 107 TORSION   5  4  3 11               1.5809176      90.5799083
 108 TORSION   6  5  7 15              -3.1116283    -178.2831691
 109 TORSION   6  5  7 14              -1.0430914     -59.7647372
 110 TORSION   6  5  7 16               1.0538756      60.3826242
 111 TORSION   6  5  4  8              -1.7867913    -102.3755984
 112 TORSION   6  5  4  9               0.3119491      17.8733677
 113 TORSION   7  5  4  8               0.3493065      20.0137902
 114 TORSION   7  5  4  9               2.4480469     140.2627564
 115 TORSION   8  4  3 10               1.5636718      89.5917958
 116 TORSION   8  4  3 11              -0.5430129     -31.1123463
 117 TORSION   8  4  9 18               1.2194126      69.8671983
 118 TORSION   9  4  3 10              -0.5054356     -28.9593285
 119 TORSION   9  4  3 11              -2.6121203    -149.6634706
 120 TORSION  10  3 11 19              -0.9256422     -53.0353912
 121 TORSION  10  3  2 12              -1.5070992     -86.3504211
 122 TORSION  10  3  2 13               0.6224628      35.6644934
 123 TORSION  11  3  2 12               0.6169441      35.3482913
 124 TORSION  11  3  2 13               2.7465061     157.3632058
 125 TORSION  12  2 13 20              -0.6886144     -39.4546997
 126 TORSION  13  2 12 24               2.8769439     164.8367461
 127 TORSION  13  2 12 23              -1.2600237     -72.1940394
 128 TORSION  13  2 12 21               0.7930889      45.4406443
 129 TORSION  14  7 16 17              -0.9522120     -54.5577297
 130 TORSION  15  7 16 17               1.0812310      61.9499746
 131 TORSION  22 21 12 23              -1.2060896     -69.1038448
 132 TORSION  22 21 12 24               0.8605494      49.3058490

     ------------------------------------------
     THE POINT GROUP IS C1 , NAXIS= 1, ORDER= 1
     ------------------------------------------

     DIMENSIONS OF THE SYMMETRY SUBSPACES ARE
 A   =  300

 ..... DONE SETTING UP THE RUN .....
 STEP CPU TIME =     0.02 TOTAL CPU TIME =        0.0 (    0.0 MIN)
 TOTAL WALL CLOCK TIME=        0.0 SECONDS, CPU UTILIZATION IS  66.67%


          -----------------------------
          STATIONARY POINT LOCATION RUN
          -----------------------------

 OBTAINING INITIAL HESSIAN, HESS=GUESS   
 DIAGONAL GUESS HESSIAN IN INTERNAL COORDS IS
     1  0.3575     2  0.3543     3  0.3630     4  0.3597     5  0.3608
     6  0.3730     7  0.3557     8  0.3429     9  0.3635    10  0.3599
    11  0.3434    12  0.3670    13  0.3423    14  0.3428    15  0.3425
    16  0.3651    17  0.3509    18  0.3498    19  0.3432    20  0.3434
    21  0.3534    22  0.3475    23  0.3506    24  0.3511    25  0.2376
    26  0.2423    27  0.2185    28  0.2421    29  0.2420    30  0.2420
    31  0.2139    32  0.2232    33  0.2419    34  0.2368    35  0.2416
    36  0.2232    37  0.2484    38  0.2232    39  0.2471    40  0.2135
    41  0.2243    42  0.2435    43  0.2487    44  0.2426    45  0.2139
    46  0.2234    47  0.2481    48  0.2243    49  0.2430    50  0.2235
    51  0.2426    52  0.2434    53  0.2237    54  0.2237    55  0.2237
    56  0.2143    57  0.2191    58  0.2187    59  0.2134    60  0.2425
    61  0.2194    62  0.2028    63  0.2195    64  0.2186    65  0.2185
    66  0.2029    67  0.2500    68  0.2500    69  0.2500    70  0.2500
    71  0.2500    72  0.2500    73  0.2500    74  0.2500    75  0.2500
    76  0.2500    77  0.2500    78  0.2500    79  0.2500    80  0.2500
    81  0.2500    82  0.2500    83  0.2500    84  0.2500    85  0.2500
    86  0.2500    87  0.2500    88  0.2500    89  0.2500    90  0.2500
    91  0.2500    92  0.2500    93  0.2500    94  0.2500    95  0.2500
    96  0.2500    97  0.2500    98  0.2500    99  0.2500   100  0.2500
   101  0.2500   102  0.2500   103  0.2500   104  0.2500   105  0.2500
   106  0.2500   107  0.2500   108  0.2500   109  0.2500   110  0.2500
   111  0.2500   112  0.2500   113  0.2500   114  0.2500   115  0.2500
   116  0.2500   117  0.2500   118  0.2500   119  0.2500   120  0.2500
   121  0.2500   122  0.2500   123  0.2500   124  0.2500   125  0.2500
   126  0.2500   127  0.2500   128  0.2500   129  0.2500   130  0.2500
   131  0.2500   132  0.2500
 TRANSFORMING HESSIAN TO SYMMETRY COORDINATES

          PARAMETERS CONTROLLING GEOMETRY SEARCH ARE
          METHOD =QA                  UPHESS =BFGS    
          NNEG   =         0          NFRZ   =         3
          NSTEP  =        50          IFOLOW =         1
          HESS   =GUESS               RESTAR =         F
          IHREP  =         0          HSSEND =         F
          NPRT   =         0          NPUN   =         0
          OPTTOL = 5.000E-04          RMIN   = 1.500E-03
          RMAX   = 1.000E-01          RLIM   = 7.000E-02
          DXMAX  = 3.000E-01          PURIFY =         F
          MOVIE  =         F          TRUPD  =         T
          TRMAX  = 5.000E-01          TRMIN  = 5.000E-02
          ITBMAT =         5          STPT   =         F
          STSTEP = 1.000E-02          PROJCT=          F
          FROZEN COORD(S)=   1   2   3


      ***** EQUILIBRIUM GEOMETRY LOCATED *****
            (SUBJECT TO   3 CONSTRAINT(S))
 COORDINATES OF ALL ATOMS ARE (ANGS)
   ATOM   CHARGE       X              Y              Z
 ------------------------------------------------------------
 O           8.0   3.2316742189   0.0562566003   1.1917603009
 C           6.0   4.0191507314  -0.1081524471   2.3374034704
 C           6.0   3.0933055216   0.2241282900   3.5085448977
 C           6.0   1.7222813241  -0.2145412067   2.9967184389
 C           6.0   1.8455151365  -0.0365624328   1.4759469762
 H           1.0   1.4301620932  -0.8993394099   0.9669350675
 C           6.0   1.1852963048   1.2220090437   0.9448859805
 H           1.0   0.9431399197   0.4186923375   3.4034250104
 O           8.0   1.5035608993  -1.5495759091   3.3720560314
 H           1.0   3.3817724628  -0.3207318006   4.3971918668
 O           8.0   3.1340567658   1.6094305729   3.7209831928
 C           6.0   5.2463017803   0.7807734513   2.2198036305
 O           8.0   4.4000274481  -1.4376096289   2.4766617531
 H           1.0   1.4533972609   1.3423092174  -0.1005573000
 H           1.0   1.5493734390   2.0842134039   1.4947658714
 O           8.0  -0.2047957200   1.0761824064   1.0948114137
 H           1.0  -0.6296080123   1.8768777474   0.8356612624
 H           1.0   0.6342998721  -1.8063535874   3.1121567651
 H           1.0   2.5838663026   1.8276007528   4.4551572764
 H           1.0   5.0249199928  -1.6359888576   1.7959503646
 O           8.0   6.0550149434   0.2437940502   1.2014938787
 H           1.0   6.8495388402   0.7471411416   1.1395522434
 H           1.0   5.7725303940   0.7784110398   3.1693008212
 H           1.0   4.9426189215   1.7910806075   1.9851828117


                     --------------------
                     INTERNAL COORDINATES
                     --------------------

                 - - ATOMS - -         COORDINATE      COORDINATE
 NO.   TYPE    I  J  K  L  M  N        (BOHR,RAD)       (ANG,DEG)
 ----------------------------------------------------------------
   1 STRETCH   1  2                     2.6453787       1.3998742
   2 STRETCH   1  5                     2.6796917       1.4180319
   3 STRETCH   2 13                     2.6265943       1.3899339
   4 STRETCH   2 12                     2.8720843       1.5198417
   5 STRETCH   2  3                     2.8902135       1.5294352
   6 STRETCH   3  4                     2.8870812       1.5277777
   7 STRETCH   3 11                     2.6495637       1.4020888
   8 STRETCH   3 10                     2.0438582       1.0815633
   9 STRETCH   4  5                     2.9028116       1.5361018
  10 STRETCH   4  9                     2.6530532       1.4039354
  11 STRETCH   4  8                     2.0470681       1.0832619
  12 STRETCH   5  7                     2.8671054       1.5172069
  13 STRETCH   5  6                     2.0492816       1.0844332
  14 STRETCH   7 15                     2.0513029       1.0855028
  15 STRETCH   7 14                     2.0521606       1.0859567
  16 STRETCH   7 16                     2.6564593       1.4057378
  17 STRETCH   9 18                     1.7818594       0.9429195
  18 STRETCH  11 19                     1.7820821       0.9430373
  19 STRETCH  12 24                     2.0422953       1.0807362
  20 STRETCH  12 23                     2.0514340       1.0855722
  21 STRETCH  12 21                     2.6586226       1.4068826
  22 STRETCH  13 20                     1.7859790       0.9450995
  23 STRETCH  16 17                     1.7814988       0.9427287
  24 STRETCH  21 22                     1.7812242       0.9425833
  25 BEND      1  2 13                  1.9267440     110.3942987
  26 BEND      1  5  7                  1.8764608     107.5132824
  27 BEND      1  5  6                  1.9096582     109.4153561
  28 BEND      1  2  3                  1.8344641     105.1070486
  29 BEND      1  2 12                  1.8988335     108.7951456
  30 BEND      1  5  4                  1.8591925     106.5238820
  31 BEND      2 13 20                  1.8857692     108.0466152
  32 BEND      2 12 23                  1.8991076     108.8108507
  33 BEND      2  3 11                  1.8892332     108.2450900
  34 BEND      2  1  5                  1.9586359     112.2215710
  35 BEND      2 12 21                  1.8722352     107.2711760
  36 BEND      2  3 10                  1.9371883     110.9927131
  37 BEND      2  3  4                  1.7970500     102.9633777
  38 BEND      2 12 24                  1.9141863     109.6747968
  39 BEND      3  2 12                  2.0052920     114.8947699
  40 BEND      3 11 19                  1.9066546     109.2432595
  41 BEND      3  4  8                  1.9303253     110.5994912
  42 BEND      3  4  9                  1.8999892     108.8613636
  43 BEND      3  4  5                  1.7991853     103.0857220
  44 BEND      3  2 13                  1.8723102     107.2754733
  45 BEND      4  9 18                  1.9059230     109.2013415
  46 BEND      4  5  6                  1.9196144     109.9858044
  47 BEND      4  5  7                  1.9907681     114.0626120
  48 BEND      4  3 10                  1.9497604     111.7130436
  49 BEND      4  3 11                  1.9396365     111.1329847
  50 BEND      5  4  8                  1.9408569     111.2029065
  51 BEND      5  4  9                  1.9685568     112.7899979
  52 BEND      5  7 16                  1.8827587     107.8741262
  53 BEND      5  7 14                  1.8980358     108.7494420
  54 BEND      5  7 15                  1.9130674     109.6106879
  55 BEND      6  5  7                  1.9060532     109.2088052
  56 BEND      7 16 17                  1.9051714     109.1582777
  57 BEND      8  4  9                  1.9213796     110.0869418
  58 BEND     10  3 11                  1.9449636     111.4382034
  59 BEND     12 21 22                  1.9052762     109.1642861
  60 BEND     12  2 13                  1.9240273     110.2386455
  61 BEND     14  7 16                  1.9372401     110.9956825
  62 BEND     14  7 15                  1.8932295     108.4740612
  63 BEND     15  7 16                  1.9391039     111.1024672
  64 BEND     21 12 23                  1.9322147     110.7077488
  65 BEND     21 12 24                  1.9403482     111.1737651
  66 BEND     23 12 24                  1.9051173     109.1551798
  67 TORSION   1  2 12 21              -1.2091743     -69.2805841
  68 TORSION   1  2 12 24               0.9001512      51.5748640
  69 TORSION   1  5  7 16               3.0347816     173.8801767
  70 TORSION   1  2  3 10               2.6352195     150.9869543
  71 TORSION   1  2  3 11              -1.5082765     -86.4178782
  72 TORSION   1  2 12 23               2.9829595     170.9109900
  73 TORSION   1  5  7 14               0.9322450      53.4137041
  74 TORSION   1  5  4  8               2.3644394     135.4724000
  75 TORSION   1  5  7 15              -1.1348574     -65.0225414
  76 TORSION   1  5  4  9              -1.7504583    -100.2938705
  77 TORSION   1  2  3  4               0.5466425      31.3203066
  78 TORSION   1  5  4  3               0.2957065      16.9427362
  79 TORSION   1  2 13 20               1.2265043      70.2735227
  80 TORSION   2  1  5  6              -2.0216580    -115.8324733
  81 TORSION   2  1  5  7               2.1934646     125.6762620
  82 TORSION   2  3  4  8              -2.5776773    -147.6900298
  83 TORSION   2  3  4  9               1.5923873      91.2370714
  84 TORSION   2  3  4  5              -0.5016104     -28.7401561
  85 TORSION   2  3 11 19              -3.1170663    -178.5947410
  86 TORSION   2 12 21 22              -3.0849541    -176.7548499
  87 TORSION   2  1  5  4               0.0527237       3.0208448
  88 TORSION   3  2 12 24              -1.1502672     -65.9054580
  89 TORSION   3  2 12 23               0.9325411      53.4306680
  90 TORSION   3  2 13 20              -3.0669234    -175.7217693
  91 TORSION   3  2 12 21               3.0235926     173.2390939
  92 TORSION   3  4  5  6               2.3635677     135.4224522
  93 TORSION   3  4  5  7              -1.7714593    -101.4971388
  94 TORSION   3  4  9 18               3.0721344     176.0203371
  95 TORSION   3  2  1  5              -0.3812998     -21.8468697
  96 TORSION   4  3 11 19               1.2048175      69.0309588
  97 TORSION   4  3  2 12               2.6331816     150.8701947
  98 TORSION   4  5  7 16              -1.1911135     -68.2457739
  99 TORSION   4  5  7 14               2.9895353     171.2877535
 100 TORSION   4  3  2 13              -1.5043576     -86.1933389
 101 TORSION   4  5  7 15               0.9224328      52.8515079
 102 TORSION   5  1  2 13               1.6323629      93.5275023
 103 TORSION   5  7 16 17               3.0614308     175.4070657
 104 TORSION   5  1  2 12              -2.5374032    -145.3824921
 105 TORSION   5  4  9 18              -1.2254063     -70.2106109
 106 TORSION   5  4  3 10              -2.5814705    -147.9073661
 107 TORSION   5  4  3 11               1.5174616      86.9441452
 108 TORSION   6  5  7 15               3.0779440     176.3532027
 109 TORSION   6  5  7 14              -1.1381388     -65.2105518
 110 TORSION   6  5  7 16               0.9643977      55.2559208
 111 TORSION   6  5  4  8              -1.8508847    -106.0478841
 112 TORSION   6  5  4  9               0.3174029      18.1858455
 113 TORSION   7  5  4  8               0.2972736      17.0325250
 114 TORSION   7  5  4  9               2.4655613     141.2662545
 115 TORSION   8  4  3 10               1.6256478      93.1427602
 116 TORSION   8  4  3 11              -0.5586053     -32.0057285
 117 TORSION   8  4  9 18               0.9535434      54.6340136
 118 TORSION   9  4  3 10              -0.4874729     -27.9301386
 119 TORSION   9  4  3 11              -2.6717261    -153.0786273
 120 TORSION  10  3 11 19              -0.9821221     -56.2714510
 121 TORSION  10  3  2 12              -1.5614267     -89.4631575
 122 TORSION  10  3  2 13               0.5842195      33.4733089
 123 TORSION  11  3  2 12               0.5782627      33.1320099
 124 TORSION  11  3  2 13               2.7239088     156.0684763
 125 TORSION  12  2 13 20              -0.8718498     -49.9533118
 126 TORSION  13  2 12 24               3.0152354     172.7602600
 127 TORSION  13  2 12 23              -1.1851416     -67.9036141
 128 TORSION  13  2 12 21               0.9059099      51.9048118
 129 TORSION  14  7 16 17              -1.1440067     -65.5467570
 130 TORSION  15  7 16 17               0.9642006      55.2446231
 131 TORSION  22 21 12 23              -1.0151844     -58.1657802
 132 TORSION  22 21 12 24               1.1055251      63.3419234

          INTERNUCLEAR DISTANCES (ANGS.)


 =====================================================
   GAMESS/COSab RESULTS
 =====================================================

   Dielectric Constant                  = INFTY
   Basic Grid Size                      =                 1082
   Number of Segments                   =                   92
   Number of Segments located on spheres=                  315
   Number of Segments of the cavity     =                  744
   Solvent Radius (rsolv)               = 1.40
   Outlying Charge Error Method         = double cavity

 =====================================================

  Total solvated Energy (a.u.)          =  -683.5624294850
  Total Energy corrected (a.u.)         =  -683.5625358813

  Outlying charge effect (a.u.)         =    -0.0001063962
  Outlying charge effect (kcal/mol)     =    -0.0667646881

  Dielectric Energy (a.u.)              =    -0.0402290935
  Dielectric energy corr. (a.u.)        =    -0.0403354897

  Sum of polarization charges           =     0.0163939069
  Sum of polarization charges(cor.)     =    -0.0163939069

  Total surface area of cavity (A**2)   =  186.79
  Total volume of cavity (A**3)         =  195.46

 =====================================================
 NPS=                   744
NR.  ATOM  (X, Y, Z)(a.u.)                  CHARGE(e)  AREA(A**2) SIGMA(e/A**2)
   1   1   6.772247  -1.619757  -0.420507   0.004247   0.240512   0.017656
   2   1   7.252224   1.479942  -0.461979   0.002758   0.171795   0.016052
   3   1   5.772166  -0.581468  -0.906944   0.002276   0.137436   0.016561
   4   1   6.130918  -1.134363  -0.752041   0.003266   0.240512   0.013578
   5   1   6.675559   0.972840  -0.828570   0.004116   0.206154   0.019966
   6   1   7.199343  -0.571596  -0.733180   0.005059   0.274871   0.018404
   7   1   7.240860   0.471386  -0.772091   0.004237   0.206154   0.020551
   8   1   7.120642   2.234104   0.013877   0.004302   0.171795   0.025043
   9   1   6.073780  -2.001320  -0.222067   0.003565   0.206154   0.017291
  10   1   7.443991  -1.406908  -0.294915   0.003381   0.171795   0.019678
  11   1   6.910833  -2.251931   0.164702   0.002602   0.137436   0.018931
  12   1   6.456394  -0.059783  -0.975131   0.004138   0.240512   0.017205
  13   1   6.190585  -2.590651   0.439887   0.002958   0.171795   0.017216
  14   3   4.161242  -0.426021   9.905222  -0.000544   0.139368  -0.003903
  15   3   8.410225   0.809697   9.379245  -0.000311   0.092912  -0.003342
  16   3   8.294460   1.407675   9.335426   0.000067   0.046456   0.001439
  17   3   4.017894   0.340374   9.937340  -0.000743   0.139368  -0.005329
  18   3   4.662739   0.377051  10.219509  -0.000327   0.139368  -0.002350
  19   3   7.709818   1.300346   9.798749  -0.000088   0.092912  -0.000949
  20   4   0.867158  -0.619693   8.585027   0.000122   0.139368   0.000877
  21   4   1.703670  -0.550777   9.106481  -0.000194   0.232280  -0.000834
  22   4   2.435798  -0.250578   9.349421  -0.000424   0.185824  -0.002284
  23   4   1.885954   0.230366   9.128063  -0.000364   0.139368  -0.002609
  24   5   4.094628  -0.836611  -0.861421  -0.000212   0.139368  -0.001521
  25   5   4.858955  -3.105527   1.004922   0.000165   0.046456   0.003558
  26   5   3.498163  -1.309129  -0.781077  -0.000530   0.185824  -0.002850
  27   5   4.244529  -1.766567  -0.501720   0.000014   0.139368   0.000101
  28   6   2.049643  -3.517052   0.308935  -0.003030   0.431809  -0.007016
  29   6   3.638728  -3.610418   0.599549  -0.002237   0.412182  -0.005427
  30   6   2.427009  -2.319072  -0.533968  -0.002259   0.412182  -0.005481
  31   6   0.770137  -3.009562   1.062815  -0.003509   0.471065  -0.007450
  32   6   1.689162  -3.865661   1.265318  -0.003333   0.392554  -0.008490
  33   6   2.969478  -4.091770   1.336374  -0.002931   0.431809  -0.006789
  34   6   3.154982  -3.046313  -0.176906  -0.001990   0.392554  -0.005070
  35   6   1.348751  -2.509679  -0.055781  -0.002809   0.431809  -0.006506
  36   7   1.523325   5.549517  -0.023151  -0.000370   0.278737  -0.001328
  37   7   4.748750   4.935326   0.739815  -0.000029   0.185824  -0.000156
  38   7   4.527402   4.722371  -0.011202   0.000113   0.185824   0.000608
  39   7   2.289053   5.289374  -0.538372   0.000006   0.232280   0.000026
  40   7   0.625244   1.454870  -1.523085   0.000257   0.092912   0.002771
  41   7   1.874173   0.190701  -1.322843  -0.000356   0.185824  -0.001918
  42   7   0.723519   4.850040   4.137014  -0.000015   0.046456  -0.000315
  43   7   1.046595   0.116029  -1.051693   0.000047   0.185824   0.000255
  44   7   1.297544   4.948663  -0.750124  -0.000493   0.185824  -0.002653
  45   7   2.477904   5.821337   0.409757   0.000235   0.278737   0.000843
  46   7   4.005706   5.359593   0.421179   0.000493   0.278737   0.001768
  47   7   5.141933   4.102157   0.158340  -0.000052   0.185824  -0.000280
  48   7   1.667747   5.956066   0.974609  -0.000775   0.325193  -0.002384
  49   7   0.829956   4.408397   4.594477   0.000097   0.092912   0.001043
  50   7   3.280694   5.402176  -0.120945   0.000411   0.278737   0.001474
  51   7   0.901882   4.361698  -1.092181  -0.000293   0.092912  -0.003149
  52   7   0.926427   0.785250  -1.413879   0.000123   0.139368   0.000883
  53   7   1.312286   5.972985   1.815222  -0.000068   0.139368  -0.000489
  54   7   3.246610   5.827998   0.842600   0.000125   0.185824   0.000674
  55   8  -0.097081   2.045602   7.395737  -0.002676   0.314043  -0.008523
  56   8   0.905927   1.065500   8.710123  -0.001688   0.294415  -0.005733
  57   8  -0.004987   0.478573   8.087776  -0.001815   0.314043  -0.005778
  58   8  -0.534430   0.319935   7.099320  -0.001936   0.255160  -0.007588
  59   8   0.608642   2.816147   7.178104  -0.002369   0.235532  -0.010059
  60   8   0.626443   2.290171   7.997530  -0.001792   0.196277  -0.009131
  61   8   0.322922   1.499206   8.276586  -0.002038   0.294415  -0.006922
  62   8  -0.480883   1.155948   7.314852  -0.002317   0.294415  -0.007869
  63   9   4.113223  -4.627186   8.834082   0.004979   0.274871   0.018115
  64   9   2.341896  -6.139935   6.352756   0.001387   0.274871   0.005046
  65   9   0.854613  -3.925724   8.743489   0.002833   0.343589   0.008246
  66   9   4.814151  -4.512941   8.412203   0.004309   0.206154   0.020903
  67   9   4.590308  -5.218466   7.875805   0.003611   0.206154   0.017515
  68   9   3.755403  -3.845945   9.353360   0.005086   0.240512   0.021145
  69   9   3.105139  -2.880814   9.611518   0.004324   0.240512   0.017979
  70   9   1.766637  -5.854071   7.293866   0.000421   0.274871   0.001533
  71   9   1.250366  -5.058460   8.241962   0.001407   0.309230   0.004549
  72   9   0.611225  -2.974207   8.736413   0.002049   0.240512   0.008520
  73   9   0.335782  -2.262531   8.332805   0.000820   0.171795   0.004776
  74   9   2.613642  -5.387149   4.258808   0.001881   0.240512   0.007822
  75   9   2.480634  -5.927583   5.172833   0.001625   0.309230   0.005256
  76   9   4.153933  -5.855828   5.851642   0.003989   0.240512   0.016584
  77   9   3.312910  -6.124064   6.012960   0.003931   0.343589   0.011441
  78   9   2.943840  -6.035940   7.319085   0.004904   0.481025   0.010195
  79   9   3.681555  -5.522706   8.140738   0.005802   0.377948   0.015352
  80   9   3.076915  -4.813857   9.009243   0.006767   0.412307   0.016412
  81   9   1.910372  -4.420492   9.105617   0.006273   0.446666   0.014044
  82   9   1.550991  -3.150806   9.347186   0.005880   0.377948   0.015558
  83   9   2.159930  -2.313231   9.490287   0.005341   0.309230   0.017273
  84   9   3.480105  -5.262362   4.202337   0.003811   0.206154   0.018487
  85   9   4.207460  -5.797456   7.054924   0.006954   0.377948   0.018400
  86   9   2.679759  -3.637165   9.540226   0.006246   0.343589   0.018180
  87   9   2.266519  -5.473796   8.309918   0.004129   0.412307   0.010015
  88   9   1.121372  -2.194707   9.030893   0.002460   0.206154   0.011933
  89   9   3.568494  -5.771382   4.974931   0.004939   0.309230   0.015970
  90  10   7.132267  -1.552119  10.451935  -0.003072   0.392554  -0.007827
  91  10   5.322459  -1.176586  10.446917  -0.002134   0.333671  -0.006396
  92  10   6.723175   0.068723  10.648096  -0.001886   0.333671  -0.005653
  93  10   8.231990  -0.452322   9.928384  -0.002217   0.314043  -0.007059
  94  10   7.068382  -2.560743   9.634286  -0.003989   0.451437  -0.008835
  95  10   6.119572  -2.052717  10.276434  -0.003036   0.372926  -0.008140
  96  10   6.050345  -0.700858  10.740594  -0.002469   0.392554  -0.006289
  97  10   7.510046  -0.350795  10.481306  -0.002481   0.372926  -0.006653
  98  10   8.134702  -1.592436   9.730906  -0.003497   0.451437  -0.007747
  99  11   6.270445   5.825543   5.390920   0.002276   0.103077   0.022081
 100  11   6.448263   6.001116   8.267827   0.001257   0.274871   0.004574
 101  11   3.910508   5.583576   6.799872   0.000417   0.103077   0.004042
 102  11   7.340089   3.110264   9.955742   0.001344   0.240512   0.005590
 103  11   5.463884   6.183855   7.723829   0.000347   0.274871   0.001263
 104  11   4.479960   5.951929   7.142900   0.000759   0.206154   0.003681
 105  11   7.342597   4.318824   9.661491   0.002233   0.309230   0.007222
 106  11   7.019814   5.314583   9.079344   0.001559   0.309230   0.005042
 107  11   8.161092   5.317758   7.641102   0.004890   0.274871   0.017790
 108  11   7.417732   5.747461   8.034653   0.003863   0.343589   0.011243
 109  11   6.370060   6.256667   7.193579   0.003406   0.377948   0.009012
 110  11   6.479220   6.090200   6.052172   0.003468   0.240512   0.014418
 111  11   5.640878   6.043589   5.818372   0.002504   0.171795   0.014576
 112  11   4.732323   5.984834   6.335836   0.001893   0.137436   0.013770
 113  11   7.992625   2.990475   9.536968   0.003403   0.240512   0.014148
 114  11   8.170208   3.792883   9.255986   0.004206   0.309230   0.013601
 115  11   8.429173   4.450854   8.546442   0.004369   0.240512   0.018166
 116  11   7.322918   5.964551   6.789745   0.006359   0.377948   0.016826
 117  11   5.397470   6.232939   6.710876   0.002578   0.274871   0.009379
 118  11   7.885843   4.993643   8.734168   0.003485   0.274871   0.012677
 119  12  12.639152   4.020019   4.813993  -0.000975   0.325193  -0.002998
 120  12   8.954067   3.399908   1.086909   0.000032   0.046456   0.000681
 121  12  10.690467   4.292594   6.591738   0.000062   0.139368   0.000445
 122  12  12.406711   3.840777   5.768432  -0.000070   0.232280  -0.000302
 123  12  12.953093  -0.232443   5.654843  -0.000099   0.046456  -0.002127
 124  12  10.537515   3.907041   1.369411  -0.000107   0.092912  -0.001156
 125  12  13.102405   3.183245   5.291280  -0.000681   0.185824  -0.003663
 126  12  11.870978   4.586452   5.075996  -0.000051   0.325193  -0.000156
 127  12  10.493248   4.744904   6.000238  -0.000040   0.232280  -0.000172
 128  12  11.960508   4.636061   3.867856  -0.000784   0.371649  -0.002109
 129  12   9.644643   3.436657   0.975297   0.000162   0.139368   0.001164
 130  12  11.499862   4.323827   6.106969   0.000196   0.278737   0.000705
 131  12  13.387042   2.451051   5.322175   0.000018   0.092912   0.000197
 132  12  12.525175  -0.787167   5.726788   0.000174   0.139368   0.001252
 133  12  11.619840   4.497197   2.696934  -0.000401   0.092912  -0.004319
 134  12  11.056235   4.892005   5.338026   0.000060   0.185824   0.000321
 135  13   9.267533  -3.677896   7.635388   0.004673   0.240512   0.019428
 136  13  10.023593  -5.436014   5.180319   0.001297   0.274871   0.004718
 137  13   7.634464  -5.185791   2.678895   0.001616   0.240512   0.006719
 138  13   8.675115  -4.353686   7.464998   0.003971   0.240512   0.016512
 139  13   7.967932  -5.205110   6.742248   0.004661   0.240512   0.019379
 140  13   9.871411  -2.770288   7.533078   0.003541   0.171795   0.020612
 141  13   9.313221  -5.793726   4.364388   0.000408   0.274871   0.001486
 142  13   8.335238  -5.724895   3.449386   0.001453   0.309230   0.004700
 143  13   7.290587  -4.550533   2.199774   0.002424   0.240512   0.010080
 144  13  11.304132  -3.569846   5.629405   0.002044   0.274871   0.007438
 145  13  10.837164  -4.600047   5.489868   0.001564   0.309230   0.005059
 146  13   9.586759  -4.520180   7.066478   0.005616   0.343589   0.016344
 147  13   9.984464  -5.057702   6.195687   0.004265   0.377948   0.011284
 148  13   8.986666  -5.786614   5.510176   0.004822   0.481025   0.010023
 149  13   7.827785  -5.700385   5.873915   0.005715   0.377948   0.015120
 150  13   7.290081  -5.793152   4.903451   0.005118   0.274871   0.018619
 151  13   7.108783  -5.569556   3.694723   0.005982   0.446666   0.013394
 152  13   6.712774  -4.968250   2.968934   0.003860   0.206154   0.018726
 153  13  11.024361  -3.014112   6.450727   0.004315   0.274871   0.015698
 154  13  10.289609  -3.367495   7.178489   0.005999   0.343589   0.017460
 155  13   7.938293  -4.520672   7.357603   0.004583   0.206154   0.022229
 156  13   8.826833  -5.260696   6.637378   0.004079   0.274871   0.014841
 157  13   8.173241  -5.956750   4.464389   0.003515   0.377948   0.009301
 158  13  10.627136  -4.115672   6.485982   0.005109   0.377948   0.013517
 159  14   3.188285   2.912910  -2.577136  -0.003666   0.549575  -0.006671
 160  14   1.465001   2.305791  -2.273177  -0.001350   0.353299  -0.003822
 161  14   2.860920   1.000377  -2.103673  -0.001788   0.372926  -0.004793
 162  14   4.203763   4.108075  -1.390840  -0.001497   0.372926  -0.004014
 163  14   2.221116   4.245049  -1.875313  -0.001607   0.412182  -0.003899
 164  14   2.288087   1.737413  -2.467356  -0.002176   0.431809  -0.005040
 165  14   3.883056   1.835826  -2.252135  -0.003273   0.510320  -0.006414
 166  14   4.536032   3.056913  -1.790647  -0.003232   0.529948  -0.006098
 167  14   3.301658   4.196114  -1.914228  -0.002299   0.471065  -0.004880
 168  14   1.822901   3.295984  -2.336027  -0.002217   0.471065  -0.004706
 169  15   3.345234   6.259874   3.512168  -0.002647   0.372926  -0.007099
 170  15   1.748306   5.168679   4.594051  -0.000788   0.137394  -0.005737
 171  15   2.044571   6.182204   3.294912  -0.001883   0.372926  -0.005048
 172  15   3.713715   6.142535   2.076206  -0.000903   0.255160  -0.003537
 173  15   2.160379   5.822974   4.201354  -0.002353   0.372926  -0.006309
 174  15   2.869099   6.379381   2.552236  -0.001341   0.333671  -0.004019
 175  15   4.340081   5.934474   2.585341  -0.002516   0.353299  -0.007121
 176  16  -1.614024  -0.686204   0.779997   0.006110   0.309230   0.019759
 177  16  -2.372696   0.199154   3.873357   0.005186   0.240512   0.021562
 178  16  -3.577186   1.741414   1.519422   0.001413   0.274871   0.005139
 179  16  -2.277716   3.552226   4.233108   0.001979   0.274871   0.007200
 180  16  -1.303308   2.266350  -1.040920   0.001856   0.240512   0.007717
 181  16  -1.976237  -0.793453   1.853874   0.008059   0.377948   0.021322
 182  16  -2.337207  -0.423477   2.919567   0.004369   0.206154   0.021194
 183  16  -1.029551  -0.303247  -0.096871   0.005335   0.240512   0.022183
 184  16  -3.595953   2.283151   2.521669   0.000523   0.274871   0.001903
 185  16  -3.114120   2.890527   3.615903   0.001517   0.309230   0.004907
[...]
 485   6   1.746302  -4.147499   2.259226  -0.001002   0.264027  -0.003797
 486   7   1.384207   4.061946   5.077223  -0.000194   0.073586  -0.002638
 487   8   1.396686   3.491060   5.810811  -0.000376   0.073586  -0.005115
 488  15   1.623709   4.247719   5.049675  -0.000403   0.073586  -0.005478
 489   7   0.683225   3.787884   4.988723   0.000340   0.128076   0.002652
 490   8   0.715557   3.244403   5.745343  -0.000174   0.128076  -0.001359
 491  16   0.225298   3.674308   4.951774   0.001345   0.128076   0.010503
 492   8   1.072171   3.271928   6.316672  -0.000671   0.088866  -0.007548
 493   7   1.000076   4.009838   5.157263   0.000138   0.125489   0.001099
 494  14   2.435765   0.636257  -1.717432  -0.000274   0.067120  -0.004080
 495  14   1.569965   1.271530  -1.866361  -0.000687   0.148166  -0.004635
 496  14   1.023236   2.464645  -1.869272  -0.000796   0.148166  -0.005373
 497  14   1.266391   3.737327  -1.660467  -0.000825   0.148166  -0.005568
 498  14   2.204131   4.590779  -1.321780  -0.000689   0.148166  -0.004652
 499  14   3.468931   4.690510  -0.985952  -0.000539   0.148166  -0.003640
 500  14   4.565082   3.997433  -0.784604  -0.000779   0.148166  -0.005258
 501   7   1.882365   0.596783  -1.516164  -0.000625   0.147950  -0.004227
 502   7   0.895064   1.684635  -1.644171  -0.000579   0.147950  -0.003912
 503   7   0.715491   3.143226  -1.522379  -0.000765   0.147950  -0.005171
 504   7   1.414025   4.400897  -1.198521  -0.000751   0.147950  -0.005078
 505   7   2.716892   4.964733  -0.799526  -0.000488   0.147950  -0.003298
 506   7   4.113464   4.613751  -0.481770  -0.000441   0.147950  -0.002982
 507   7   4.980951   3.799591  -0.352995  -0.000255   0.082002  -0.003104
 508   7   0.796185   5.667485   2.781508  -0.000226   0.011851  -0.019065
 509  15   1.058086   5.724068   2.920296  -0.000157   0.011851  -0.013248
 510  17   0.153931   5.606506   2.635475  -0.000352   0.011851  -0.029720
 511   7   0.637122   5.331965   3.412916  -0.000138   0.011851  -0.011658
 512  15   0.915026   5.422301   3.488184  -0.000149   0.011851  -0.012536
 513  17   0.012900   5.309020   3.195306  -0.000247   0.011851  -0.020809
 514   7   5.321078   4.749131   1.843209  -0.000114   0.148662  -0.000769
 515  15   5.269716   4.904502   2.105659  -0.000366   0.148662  -0.002460
 516  24   6.684658   4.583833   2.430765   0.000804   0.148662   0.005412
 517  15   4.575643   5.414698   1.756987  -0.000346   0.069021  -0.005015
 518  15   3.588812   5.914186   1.627165  -0.000752   0.153279  -0.004908
 519  15   2.344115   6.148584   2.083731  -0.000855   0.153279  -0.005577
 520  15   1.564685   5.981716   2.861433  -0.000425   0.069021  -0.006152
 521   7   4.199418   5.447958   1.293749  -0.000532   0.151260  -0.003518
 522   7   2.787400   5.980694   1.393306  -0.000562   0.151260  -0.003713
 523   7   1.551821   5.946548   2.264911  -0.000950   0.151260  -0.006280
 524  15   1.304783   5.414473   3.922945  -0.000365   0.073264  -0.004988
 525  15   1.541121   4.868842   4.622014  -0.000396   0.073264  -0.005400
 526   7   1.096976   4.905524   4.198379  -0.000859   0.158544  -0.005417
 527   7   0.168510   4.953679   3.696531  -0.000194   0.038383  -0.005055
 528  16  -0.289268   4.853096   3.713716  -0.000181   0.038383  -0.004721
 529  17  -0.461149   5.022369   3.500620  -0.000404   0.038383  -0.010526
 530   7  -0.166997   3.224530  -1.096186  -0.000199   0.038383  -0.005188
 531  16  -0.618466   3.156463  -0.988874  -0.000183   0.038383  -0.004761
 532  17  -0.770111   3.430029  -0.912900  -0.000360   0.038383  -0.009368
 533  16  -0.104552   4.311371   4.356403   0.001169   0.182336   0.006411
 534   7   0.513885   4.647327   4.208227   0.000092   0.199487   0.000460
 535  16  -0.515020   2.588171  -1.125567   0.000594   0.174678   0.003402
 536  16  -0.301178   0.851068  -0.832415   0.004983   0.364337   0.013677
 537   7   0.204188   1.973572  -1.263949   0.001141   0.375135   0.003041
 538   7   0.439368   0.207999  -0.800643   0.001107   0.191113   0.005790
 539  17  -0.497213   5.262283   3.349350  -0.000634   0.083905  -0.007555
 540   7   0.426704   5.244409   3.557146  -0.000357   0.102508  -0.003482
 541  17  -0.238821   5.797321   2.263669  -0.002633   0.171622  -0.015343
 542  17  -0.187893   5.726636   0.993555  -0.006483   0.353966  -0.018315
 543  17  -0.397562   4.928469  -0.308105  -0.005836   0.353966  -0.016487
 544  17  -0.748427   3.857357  -0.900044  -0.001740   0.171622  -0.010138
 545   7   0.726826   5.790180   1.842374  -0.003782   0.407835  -0.009275
 546   7   0.673932   5.363803   0.164788  -0.004094   0.407835  -0.010038
 547   7   0.279293   4.086516  -0.935979  -0.002842   0.407835  -0.006968
 548  24   7.894983   4.280870   1.629357  -0.000186   0.235060  -0.000791
 549  24   7.676375   4.802282   2.133693  -0.000332   0.235060  -0.001413
 550   7   5.706304   4.461376   1.063122   0.001293   0.720013   0.001795
 551   8   1.839235   3.468238   6.436242  -0.002150   0.349521  -0.006152
 552  15   2.143113   4.120781   5.590941  -0.000041   0.349521  -0.000118
 553  19   2.576434   4.022435   6.876678  -0.000763   0.349521  -0.002183
 554  16  -1.659984   0.766220   5.032502   0.004061   0.280253   0.014491
 555  16  -1.492267   1.982792   5.295584   0.008435   0.556899   0.015146
 556  16  -0.639739   3.269635   5.238168   0.006444   0.556899   0.011571
 557   8  -0.785259   0.885914   6.318131  -0.000811   0.452121  -0.001795
 558   8  -0.360147   2.212922   6.484680  -0.001393   0.452121  -0.003081
 559   8   0.425205   3.039653   6.329627  -0.000824   0.225051  -0.003660
 560  18  -0.564156  -1.816794   6.947218  -0.003278   0.336219  -0.009751
 561   8  -0.453905  -0.454351   6.923125  -0.001613   0.336219  -0.004796
 562  19   2.395522   4.152167   7.813252  -0.002710   0.261535  -0.010360
 563  19   2.330098   3.465177   8.835619  -0.007492   0.523307  -0.014316
 564  19   2.672991   2.526312   9.558409  -0.003321   0.261535  -0.012697
 565   8   1.362948   3.066407   7.588125  -0.003762   0.523307  -0.007188
 566   8   1.535906   2.052943   8.675954  -0.003736   0.523307  -0.007140
 567   9   5.805239  -3.826678   8.009932   0.004213   0.257346   0.016371
 568  10   6.484405  -3.256501   8.361881  -0.000054   0.257346  -0.000208
 569  13   6.870111  -3.786704   7.682192   0.003846   0.257346   0.014946
 570  10   4.647746  -1.525059  10.004320  -0.000526   0.223192  -0.002355
 571  10   5.397832  -2.449556   9.738239  -0.001457   0.449427  -0.003242
 572  10   6.185513  -3.086352   9.058407  -0.000667   0.223192  -0.002988
 573   9   3.842203  -2.637694   9.576311   0.006543   0.547064   0.011960
 574   9   4.892347  -3.703905   8.930345   0.007299   0.547064   0.013342
 575  13   7.028725  -4.553353   7.319992   0.005542   0.359269   0.015425
 576  13   6.656357  -5.341399   6.016902   0.013718   0.718198   0.019100
 577  13   6.090522  -5.216739   4.202105   0.013603   0.718198   0.018941
 578   9   5.382300  -4.951187   7.309109   0.013024   0.718198   0.018134
 579   9   4.864510  -5.512789   5.563918   0.013802   0.718198   0.019218
 580   9   4.405276  -5.060064   4.134980   0.005904   0.359269   0.016433
 581  18   1.552907  -5.199060   4.239181  -0.000853   0.085850  -0.009932
 582  18   1.369570  -5.732847   5.379741  -0.002317   0.187486  -0.012357
 583  18   0.887181  -5.571263   6.833493  -0.002405   0.187486  -0.012829
 584  18   0.291260  -4.516011   7.784032  -0.002106   0.187486  -0.011234
 585  18  -0.150715  -3.040738   7.804713  -0.001912   0.187486  -0.010200
 586   9   1.947938  -5.476749   4.695981  -0.000945   0.183166  -0.005158
 587   9   1.583599  -5.845850   6.279211  -0.001567   0.183166  -0.008556
 588   9   0.964641  -5.147377   7.659292  -0.001403   0.183166  -0.007657
 589   9   0.368881  -3.694836   8.216780  -0.000876   0.183166  -0.004780
 590   9   0.060901  -2.394489   7.962122  -0.000409   0.098296  -0.004161
 591  10   9.113397  -1.109051   8.246260  -0.001270   0.296866  -0.004279
 592  13   9.655769  -1.566093   7.619184   0.002145   0.296866   0.007225
 593  23  10.125415  -0.629749   7.705123  -0.001474   0.296866  -0.004964
 594  13   9.393597  -2.411084   7.907150   0.003688   0.325423   0.011332
 595  13   8.254932  -3.474238   7.921709   0.008513   0.644193   0.013215
 596  10   8.286486  -2.132174   8.851422  -0.002194   0.533186  -0.004114
 597  10   7.169660  -3.024806   8.778393  -0.000753   0.263675  -0.002855
 598  23  10.359648   0.601373   8.531524  -0.000736   0.260718  -0.002823
 599  23  10.513917  -0.110380   8.194764  -0.000732   0.260718  -0.002807
 600  10   8.962389  -0.419874   9.094008  -0.001567   0.520901  -0.003009
 601  11   9.306553   3.925851   7.663296   0.001379   0.075777   0.018202
 602  12  10.134714   3.756122   7.261816   0.000147   0.075777   0.001934
 603  23  10.302962   3.553201   7.414393  -0.000188   0.075777  -0.002483
 604  11   8.739435   5.039752   6.380024   0.001685   0.081596   0.020648
 605  12   9.535476   4.900450   5.906247   0.000114   0.081596   0.001394
 606  24   9.402974   5.053783   5.680859  -0.000045   0.081596  -0.000546
 607  12   9.824777   4.557384   6.571603   0.001725   0.517636   0.003333
 608  11   8.798029   4.667004   7.486468   0.007652   0.465505   0.016437
 609  11   3.271101   4.944564   6.582033   0.000588   0.053680   0.010949
 610  15   2.849441   4.917891   5.600014   0.000494   0.053680   0.009202
 611  19   3.221890   4.884671   6.893454  -0.000004   0.053680  -0.000066
 612  11   6.217628   5.196702   4.429335   0.006750   0.334138   0.020201
 613  15   5.492772   5.141577   3.626678   0.001901   0.334138   0.005689
 614  24   6.975946   5.037180   3.836703   0.001632   0.334138   0.004883
 615  15   2.634490   5.420914   4.986231  -0.000442   0.260784  -0.001693
 616  15   3.648450   5.866643   4.359529  -0.001303   0.524228  -0.002485
 617  15   4.670141   5.756643   3.608801  -0.000568   0.260784  -0.002178
 618  11   3.826358   5.558077   6.077610   0.006246   0.648152   0.009637
 619  11   5.220951   5.788080   5.133953   0.008952   0.648152   0.013812
 620  19   6.278890   2.997023  10.387082  -0.000680   0.079941  -0.008501
 621  19   6.398658   4.154204  10.132960  -0.001878   0.172426  -0.010890
 622  19   5.944282   5.339556   9.440204  -0.002204   0.172426  -0.012785
 623  19   4.935529   5.843223   8.534574  -0.002295   0.172426  -0.013311
 624  19   3.766627   5.468369   7.769996  -0.002071   0.172426  -0.012012
 625  11   6.743043   3.336513  10.101570  -0.000835   0.171826  -0.004862
 626  11   6.642338   4.811239   9.587863  -0.000975   0.171826  -0.005675
 627  11   5.808969   5.773270   8.677454  -0.001555   0.171826  -0.009050
 628  11   4.568620   5.846640   7.726137  -0.001426   0.171826  -0.008297
 629  11   3.578806   5.291225   7.149423  -0.000309   0.091530  -0.003376
 630  23  10.424294   3.282078   7.838020  -0.000449   0.307370  -0.001462
 631  23  10.235322   2.315265   8.390565  -0.000885   0.307370  -0.002880
 632  11   8.923858   3.335884   8.573437   0.009036   0.764630   0.011817
 633  24   7.871210   5.505402   4.059031  -0.000543   0.253910  -0.002138
 634  24   8.807316   5.486447   5.032394  -0.000748   0.512178  -0.001461
 635  11   7.212592   5.659665   5.376834   0.009492   0.622785   0.015242
 636  11   8.233625   5.504592   6.424440   0.004651   0.314221   0.014802
 637  12  12.129496  -1.493244   5.193880   0.000424   0.110602   0.003833
 638  13  11.706458  -2.192370   5.226303   0.000433   0.110602   0.003919
 639  21  12.339160  -1.600919   4.784347   0.000996   0.110602   0.009003
 640  12  11.726005  -1.129650   6.299297  -0.000087   0.052447  -0.001652
 641  13  11.298987  -1.824187   6.288038   0.000535   0.052447   0.010200
 642  23  11.763666  -0.921800   6.516662  -0.000218   0.052447  -0.004151
 643  13  11.458510  -2.472320   5.836218   0.001716   0.225965   0.007595
 644  12  11.927702  -1.389089   5.931286   0.000341   0.249497   0.001366
 645  12  11.409490   3.748891   1.450455  -0.000246   0.038403  -0.006415
 646  21  11.671173   3.515285   1.138519  -0.000221   0.038403  -0.005746
 647  22  11.986725   3.547685   1.192760  -0.000404   0.038403  -0.010527
 648  12  13.633942   0.655682   4.848174  -0.000193   0.038403  -0.005014
 649  21  13.853831   0.480193   4.472399  -0.000210   0.038403  -0.005462
 650  22  14.035200   0.699180   4.321685  -0.000503   0.038403  -0.013087
 651  21  10.052395   2.689659   0.368387   0.002094   0.177837   0.011777
 652  21  11.148280   3.374674   0.877486   0.000608   0.177837   0.003418
 653  12  10.199363   3.357100   1.048862   0.001129   0.381928   0.002956
 654  21  13.631344  -0.003937   4.631087   0.000440   0.159914   0.002752
 655  21  12.986037  -1.077945   4.684949   0.001744   0.159914   0.010909
 656  12  12.992329  -0.323291   5.207714   0.000719   0.343638   0.002093
 657  22  12.299122   3.753221   1.428609  -0.001903   0.180203  -0.010560
 658  22  13.042772   3.840710   2.529563  -0.006552   0.372886  -0.017571
 659  22  13.827400   3.092298   3.717364  -0.007061   0.372886  -0.018937
 660  22  14.171784   1.623305   4.274225  -0.005516   0.372886  -0.014794
 661  12  11.825679   4.139728   2.299859  -0.003236   0.427233  -0.007574
 662  12  12.819838   3.869410   3.783743  -0.004625   0.427233  -0.010826
 663  12  13.490960   2.551310   4.820828  -0.004133   0.427233  -0.009674
 664  12  13.645934   1.116099   5.095528  -0.001015   0.220158  -0.004612
 665  23  12.280871  -0.481098   6.577444  -0.000369   0.067217  -0.005487
 666  23  12.977570   0.258358   6.193158  -0.000884   0.148458  -0.005954
 667  23  13.314899   1.515777   6.009330  -0.001044   0.148458  -0.007029
 668  23  12.930845   2.754553   6.225262  -0.000897   0.148458  -0.006043
 669  23  11.976602   3.487003   6.755946  -0.000741   0.148458  -0.004993
 670  23  11.028648   3.557977   7.281499  -0.000335   0.067217  -0.004989
 671  12  12.541696  -0.424867   6.050624  -0.000694   0.148086  -0.004686
 672  12  13.289110   0.781218   5.639391  -0.000958   0.148086  -0.006468
 673  12  13.261465   2.258126   5.658386  -0.001113   0.148086  -0.007516
 674  12  12.469643   3.424428   6.100131  -0.000758   0.148086  -0.005116
 675  12  11.225370   3.820977   6.790721  -0.000563   0.148086  -0.003801
 676  24   9.969171   5.206201   5.274223  -0.000316   0.068405  -0.004623
 677  24  10.707637   5.235202   4.443305  -0.000810   0.152097  -0.005328
 678  24  10.993480   5.020182   3.147463  -0.001014   0.152097  -0.006666
 679  24  10.451762   4.589692   1.994916  -0.000943   0.152097  -0.006201
 680  24   9.307852   4.122826   1.465152  -0.000836   0.152097  -0.005495
 681  12  10.528623   5.009455   5.226888  -0.000597   0.149688  -0.003986
 682  12  11.288349   4.935214   3.923892  -0.000792   0.149688  -0.005293
 683  12  11.136518   4.552179   2.471059  -0.000926   0.149688  -0.006187
 684  12  10.136294   4.019703   1.472803  -0.000755   0.149688  -0.005045
 685  12   9.004538   3.619989   1.216464  -0.000235   0.083572  -0.002808
 686  13  11.658233  -2.920093   4.768240  -0.000328   0.076365  -0.004291
 687  20  11.765399  -2.980191   4.467815  -0.000680   0.076365  -0.008899
 688  21  12.210953  -2.286964   4.281729   0.000566   0.076365   0.007409
 689  20  11.558008  -3.636075   4.601479  -0.000781   0.086789  -0.008998
 690  20  10.934425  -4.726948   4.346947  -0.002397   0.189731  -0.012632
 691  20   9.823039  -5.442232   3.535155  -0.002498   0.189731  -0.013165
 692  20   8.745685  -5.145172   2.459573  -0.002114   0.189731  -0.011140
 693  20   8.187853  -4.280044   1.695358  -0.000684   0.086789  -0.007884
 694  13  11.181223  -4.058938   4.956239  -0.000993   0.185088  -0.005364
 695  13  10.175430  -5.275286   4.387407  -0.001624   0.185088  -0.008776
 696  13   8.917970  -5.515562   3.303086  -0.001424   0.185088  -0.007694
 697  13   7.981478  -4.670345   2.197064  -0.000870   0.185088  -0.004702
 698  21  12.575940  -1.876000   4.532964   0.001180   0.156426   0.007541
 699  13  11.730049  -2.809139   5.118393   0.000349   0.156426   0.002233
 700  23  11.024001  -0.624946   7.572073  -0.000822   0.245711  -0.003344
 701  23  11.699876  -0.847218   6.943936  -0.000482   0.245711  -0.001962
 702  13  10.702519  -2.060698   7.017196   0.005876   0.608604   0.009655
 703  17  -0.255596   5.588092   2.975316  -0.001519   0.206485  -0.007358
 704  15   1.072431   5.771825   3.255355  -0.000474   0.206485  -0.002294
 705  19   2.855879   4.856909   7.127355  -0.000182   0.249726  -0.000727
 706  15   2.143974   4.926174   5.305858   0.000120   0.249726   0.000482
 707  24   7.444136   5.204726   2.830909  -0.000532   0.482401  -0.001103
 708  15   5.261904   5.453182   2.708250  -0.000192   0.482401  -0.000399
 709  17  -1.336613   3.399143  -0.864905  -0.000548   0.083830  -0.006542
 710  17  -2.409826   2.983493  -0.389813  -0.001804   0.182294  -0.009898
 711  17  -3.338035   2.874341   0.794585  -0.002195   0.182294  -0.012039
 712  17  -3.463288   3.276744   2.243263  -0.002209   0.182294  -0.012120
 713  17  -2.731865   4.018116   3.334901  -0.001900   0.182294  -0.010421
 714  17  -1.457465   4.780492   3.601308  -0.001746   0.182294  -0.009577
 715  16  -1.596795   2.803058  -0.772851  -0.000674   0.179291  -0.003760
 716  16  -2.891315   2.412034   0.141127  -0.000884   0.179291  -0.004928
 717  16  -3.494394   2.579912   1.648492  -0.001445   0.179291  -0.008058
 718  16  -3.147378   3.234693   3.102755  -0.001232   0.179291  -0.006871
 719  16  -1.999098   4.095548   3.880200  -0.000678   0.179291  -0.003782
 720  16  -0.820041   4.712698   3.854189  -0.000328   0.095982  -0.003416
 721  18  -1.067963  -1.875846   5.656473  -0.002685   0.272152  -0.009866
 722  18  -1.082437  -2.503872   4.765125  -0.006904   0.543847  -0.012695
 723  18  -0.648128  -2.989453   3.890647  -0.002858   0.272152  -0.010503
 724  16  -1.804058  -0.461258   4.198354   0.006608   0.709846   0.009309
 725  16  -1.512076  -1.235738   2.970275   0.006241   0.709846   0.008793
 726  21  12.725358  -2.266367   3.813259   0.003354   0.279523   0.012001
 727  21  12.584117  -2.640820   2.384440   0.006797   0.552619   0.012300
 728  21  11.554237  -2.546287   0.898769   0.006848   0.552619   0.012392
 729  21  10.291956  -2.043003   0.302913   0.002985   0.279523   0.010680
 730  20  11.954136  -3.344735   3.553927  -0.005140   0.461962  -0.011127
 731  20  11.476867  -3.577913   1.989564  -0.006617   0.461962  -0.014324
 732  20  10.198104  -3.183548   1.020733  -0.006638   0.461962  -0.014370
 733  22  14.384839   0.501944   3.917544  -0.000627   0.083836  -0.007480
 734  22  14.668842  -0.077424   2.852309  -0.001886   0.182322  -0.010344
 735  22  14.579961  -0.122406   1.346506  -0.002283   0.182322  -0.012523
 736  22  14.010615   0.631503   0.169716  -0.002283   0.182322  -0.012524
 737  22  13.205139   1.860767  -0.173045  -0.001991   0.182322  -0.010919
 738  22  12.509198   3.037852   0.465319  -0.001828   0.182322  -0.010029
 739  21  14.248870  -0.089947   3.667161  -0.000760   0.179293  -0.004237
 740  21  14.444001  -0.587761   2.124629  -0.000977   0.179293  -0.005449
 741  21  14.067170  -0.181905   0.588863  -0.001546   0.179293  -0.008623
 742  21  13.280094   0.953448  -0.281069  -0.001309   0.179293  -0.007302
 743  21  12.420543   2.331066  -0.111838  -0.000831   0.179293  -0.004633
 744  21  11.894564   3.259319   0.684600  -0.000425   0.095989  -0.004424
 =====================================================

              7617189  WORDS OF DYNAMIC MEMORY USED
 EXECUTION OF GAMESS TERMINATED NORMALLY Wed Nov 23 17:15:45 2016
 DDI: 263640 bytes (0.3 MB / 0 MWords) used by master data server.

 ----------------------------------------
 CPU timing information for all processes
 ========================================
 0: 5720.260 + 2.24 = 5722.284
 ----------------------------------------
 ddikick.x: exited gracefully.
