----- GAMESS execution script -----

          ******************************************************
          *         GAMESS VERSION =  5 DEC 2014 (R1)          *
          *             FROM IOWA STATE UNIVERSITY             *
          * M.W.SCHMIDT, K.K.BALDRIDGE, J.A.BOATZ, S.T.ELBERT, *
          *   M.S.GORDON, J.H.JENSEN, S.KOSEKI, N.MATSUNAGA,   *
          *          K.A.NGUYEN, S.J.SU, T.L.WINDUS,           *
          *       TOGETHER WITH M.DUPUIS, J.A.MONTGOMERY       *
          *         J.COMPUT.CHEM.  14, 1347-1363(1993)        *
          **************** 64 BIT LINUX VERSION ****************

 EXECUTION OF GAMESS BEGUN Wed Nov 23 15:41:27 2016

            ECHO OF THE FIRST FEW INPUT CARDS -
 INPUT CARD>! SELECT RESTRICTED HARTREE-FOCK AS DEFAULT                                     
 INPUT CARD>$contrl scftyp=rhf $end                                                         
 INPUT CARD>                                                                                
 INPUT CARD>! THEORY: HF OR DFT                                                             
 INPUT CARD> $contrl mplevl=0 $end                                                          
 INPUT CARD>                                                                                
 INPUT CARD> $system timlim=10000 mwords=20 $end                                            
 INPUT CARD> $SCF DIRSCF=.TRUE. $end                                                        
 INPUT CARD>                                                                                
 INPUT CARD>                                                                                
 INPUT CARD>! BASIS SETS                                                                    
 INPUT CARD>! 6-311G(d,p)                                                                   
 INPUT CARD> $BASIS GBASIS=N311 NGAUSS=6 NDFUNC=1 NPFUNC=1 $END                             
 INPUT CARD>                                                                                
 INPUT CARD>! One of the following                                                          
 INPUT CARD> $guess guess=HUCKEL $end                                                       
 INPUT CARD>                                                                                
 INPUT CARD> $statpt projct=.FALSE. $end                                                    
 INPUT CARD> $STATPT IFREEZ(1)=1,2,3 $END                                                   
 INPUT CARD>                                                                                
 INPUT CARD>! Optimize the geometry with COSMO effects                                      
 INPUT CARD> $statpt opttol=0.0005 nstep=50 $end                                            
 INPUT CARD> $contrl nzvar=1 $end                                                           
 INPUT CARD> $zmat dlc=.t. auto=.t. $end                                                    
 INPUT CARD> $contrl runtyp=OPTIMIZE maxit=200 $end                                         
 INPUT CARD>                                                                                
 INPUT CARD>! Run COSMO on perfect conductor                                                
 INPUT CARD> $COSGMS PRFCND=.TRUE. $end                                                     
 INPUT CARD>                                                                                
 INPUT CARD>! Specifying RSOLV                                                              
 INPUT CARD> $COSGMS COSRAD = 1.4 $end                                                      
 INPUT CARD>                                                                                
 INPUT CARD>! available memory                                                              
 INPUT CARD> $SYSTEM MWORDS=40 $END                                                         
 INPUT CARD>                                                                                
 INPUT CARD> $DATA                                                                          
 INPUT CARD>file:/home/renata/açucares/alfa-D-Fructopyranose.mol                           
 INPUT CARD>C1                                                                              
 INPUT CARD>C      6.0     -2.1223800000    2.4652200000   -1.9320400000                    
 INPUT CARD>O      8.0     -2.3623800000    1.0426700000   -1.8860100000                    
 INPUT CARD>C      6.0     -1.2982700000    2.8134800000   -3.1706400000                    
 INPUT CARD>C      6.0     -1.3846700000    2.8519800000   -0.6474900000                    
 INPUT CARD>H      1.0     -3.1070700000    2.9419700000   -1.9663200000                    
 INPUT CARD>O      8.0      0.0056200000    2.2263100000   -3.0957200000                    
 INPUT CARD>H      1.0     -1.2308100000    3.8902100000   -3.3382700000                    
 INPUT CARD>H      1.0     -1.7757100000    2.3823200000   -4.0578400000                    
 INPUT CARD>C      6.0      0.0402400000    2.2956200000   -0.6612800000                    
 INPUT CARD>O      8.0     -2.0653400000    2.3015300000    0.4979700000                    
 INPUT CARD>H      1.0     -1.3831000000    3.9348400000   -0.5019300000                    
 INPUT CARD>H      1.0     -0.0150500000    1.2017800000   -0.5754900000                    
   40000000 WORDS OF MEMORY AVAILABLE

     BASIS OPTIONS
     -------------
     GBASIS=N311         IGAUSS=       6      POLAR=POPN311 
     NDFUNC=       1     NFFUNC=       0     DIFFSP=       F
     NPFUNC=       1      DIFFS=       F     BASNAM=        


     RUN TITLE
     ---------
 file:/home/renata/açucares/alfa-D-Fructopyranose.mol                           

 THE POINT GROUP OF THE MOLECULE IS C1      
 THE ORDER OF THE PRINCIPAL AXIS IS     0

 ATOM      ATOMIC                      COORDINATES (BOHR)
           CHARGE         X                   Y                   Z
 C           6.0    -4.0107166418        4.6585902995       -3.6510261973
 O           8.0    -4.4642508789        1.9703605956       -3.5640421101
 C           6.0    -2.4533745581        5.3167062719       -5.9916408057
 C           6.0    -2.6166468834        5.3894607225       -1.2235786798
 H           1.0    -5.8715109247        5.5595171641       -3.7158060042
 O           8.0     0.0106202601        4.2071158637       -5.8500625347
 H           1.0    -2.3258936429        7.3514309347       -6.3084155730
 H           1.0    -3.3556053337        4.5019320151       -7.6682057020
 C           6.0     0.0760425737        4.3380927719       -1.2496380012
 O           8.0    -3.9029266715        4.3492610525        0.9410268501
 H           1.0    -2.6136800136        7.4357694055       -0.9485101650
 H           1.0    -0.0284403761        2.2710348975       -1.0875184087
 O           8.0     1.4549567297        5.1279604403        0.9495495143
 C           6.0     1.4984582220        5.0002149635       -3.7208893671
 O           8.0     3.7834204000        3.5233185151       -3.7758425988
 C           6.0     2.3709636078        7.7909245077       -3.9259435340
 H           1.0    -3.1398742149        1.1604807291       -4.5688661096
 H           1.0    -4.7201764694        2.8028226877        0.3259021438
 H           1.0     0.2284111801        5.0505950583        2.3348320469
 O           8.0     0.4037399573        9.6025103258       -3.5904793767
 H           1.0     3.1989470493        8.1128582269       -5.7969612345
 H           1.0     3.8443262686        8.1811340269       -2.5231243443
 H           1.0     1.2083096938       11.2572110924       -3.6635550806
 H           1.0     4.1542413306        3.0938404898       -2.0224603411

          INTERNUCLEAR DISTANCES (ANGS.)




     $CONTRL OPTIONS
     ---------------
 SCFTYP=RHF          RUNTYP=OPTIMIZE     EXETYP=RUN     
 MPLEVL=       0     CITYP =NONE         CCTYP =NONE         VBTYP =NONE    
 DFTTYP=NONE         TDDFT =NONE    
 MULT  =       1     ICHARG=       0     NZVAR =       1     COORD =UNIQUE  
 PP    =NONE         RELWFN=NONE         LOCAL =NONE         NUMGRD=       F
 ISPHER=      -1     NOSYM =       0     MAXIT =     200     UNITS =ANGS    
 PLTORB=       F     MOLPLT=       F     AIMPAC=       F     FRIEND=        
 NPRINT=       7     IREST =       0     GEOM  =INPUT   
 NORMF =       0     NORMP =       0     ITOL  =      20     ICUT  =       9
 INTTYP=BEST         GRDTYP=BEST         QMTTOL= 1.0E-06

     $SYSTEM OPTIONS
     ---------------
  REPLICATED MEMORY=    40000000 WORDS (ON EVERY NODE).
 DISTRIBUTED MEMDDI=           0 MILLION WORDS IN AGGREGATE,
 MEMDDI DISTRIBUTED OVER   1 PROCESSORS IS           0 WORDS/PROCESSOR.
 TOTAL MEMORY REQUESTED ON EACH PROCESSOR=    40000000 WORDS.
 TIMLIM=       10000.00 MINUTES, OR       6.9 DAYS.
 PARALL= F  BALTYP=  DLB     KDIAG=    0  COREFL= F
 MXSEQ2=     300 MXSEQ3=     150  mem10=         0

     $COSGMS OPTIONS
     ---------------
     EPSI  =   INFTY     NSPA  =      92     COSRAD=    1.40
     DISEX =   10.00     OUTCHG=DBLCAV       COSBUG=       F
     COSWRT=       F     DCOSMO=       F

     SYMMETRY COORDINATES WILL NOT BE USED FOR 
     THE COSMO CALCULATION, EVEN IF SPECIFIED:
         -- SWITCHING TO C1 POINT GROUP --


     DEFINITION OF CAVITY
     ---------------------------
     ATOM         COORDINATES           RADIUS 
     1   -4.0107    4.6586   -3.6510    2.0000
     2   -4.4643    1.9704   -3.5640    1.7200
     3   -2.4534    5.3167   -5.9916    2.0000
     4   -2.6166    5.3895   -1.2236    2.0000
     5   -5.8715    5.5595   -3.7158    1.3000
     6    0.0106    4.2071   -5.8501    1.7200
     7   -2.3259    7.3514   -6.3084    1.3000
     8   -3.3556    4.5019   -7.6682    1.3000
     9    0.0760    4.3381   -1.2496    2.0000
    10   -3.9029    4.3493    0.9410    1.7200
    11   -2.6137    7.4358   -0.9485    1.3000
    12   -0.0284    2.2710   -1.0875    1.3000
    13    1.4550    5.1280    0.9495    1.7200
    14    1.4985    5.0002   -3.7209    2.0000
    15    3.7834    3.5233   -3.7758    1.7200
    16    2.3710    7.7909   -3.9259    2.0000
    17   -3.1399    1.1605   -4.5689    1.3000
    18   -4.7202    2.8028    0.3259    1.3000
    19    0.2284    5.0506    2.3348    1.3000
    20    0.4037    9.6025   -3.5905    1.7200
    21    3.1989    8.1129   -5.7970    1.3000
    22    3.8443    8.1811   -2.5231    1.3000
    23    1.2083   11.2572   -3.6636    1.3000
    24    4.1542    3.0938   -2.0225    1.3000

          ----------------
          PROPERTIES INPUT
          ----------------

     MOMENTS            FIELD           POTENTIAL          DENSITY
 IEMOM =       1   IEFLD =       0   IEPOT =       0   IEDEN =       0
 WHERE =COMASS     WHERE =NUCLEI     WHERE =NUCLEI     WHERE =NUCLEI  
 OUTPUT=BOTH       OUTPUT=BOTH       OUTPUT=BOTH       OUTPUT=BOTH    
 IEMINT=       0   IEFINT=       0                     IEDINT=       0
                                                       MORB  =       0
          EXTRAPOLATION IN EFFECT
          SOSCF IN EFFECT
 ORBITAL PRINTING OPTION: NPREO=     1   300     2     1

     -------------------------------
     INTEGRAL TRANSFORMATION OPTIONS
     -------------------------------
     NWORD  =            0
     CUTOFF = 1.0E-09     MPTRAN =       0
     DIRTRF =       T     AOINTS =DUP     

          ----------------------
          INTEGRAL INPUT OPTIONS
          ----------------------
 NOPK  =       1 NORDER=       0 SCHWRZ=       T


 -----------------------------------------------
  STATISTICS ON AUTOMATIC COORDINATE GENERATION 
 -----------------------------------------------
  NUMBER OF USER SPECIFIED BONDS                             0
  NUMBER OF BONDS                                           24
  NUMBER OF ANGLES                                          42
  NUMBER OF TORSIONS                                        66
  NUMBER OF EXTRA COORD.                                     0
  NUMBER OF EXTRA COORD. FOR CONSTRAINTS                     0
  NUMBER OF CONSTRAINED COORD.                               0

  TOTAL NUMBER OF PRIMITIVES                               132
 -----------------------------------------------

   --- ENCODED Z MATRIX ---
 COORD  TYPE   I   J   K   L   M   N
    1      1    1   2
    2      1    1   3
    3      1    1   5
    4      1    1   4
    5      1    2  17
    6      1    3   8
    7      1    3   7
    8      1    3   6
    9      1    4  11
   10      1    4  10
   11      1    4   9
   12      1    6  14
   13      1    9  14
   14      1    9  13
   15      1    9  12
   16      1   10  18
   17      1   13  19
   18      1   14  15
   19      1   14  16
   20      1   15  24
   21      1   16  22
   22      1   16  21
   23      1   16  20
   24      1   20  23
   25      2    1   3   6
   26      2    1   2  17
   27      2    1   3   7
   28      2    1   4   9
   29      2    1   4  11
   30      2    1   3   8
   31      2    1   4  10
   32      2    2   1   5
   33      2    2   1   3
   34      2    2   1   4
   35      2    3   1   5
   36      2    3   1   4
   37      2    3   6  14
   38      2    4   9  12
   39      2    4   9  13
   40      2    4   9  14
   41      2    4  10  18
   42      2    4   1   5
   43      2    6   3   8
   44      2    6  14  16
   45      2    6  14  15
   46      2    6  14   9
   47      2    6   3   7
   48      2    7   3   8
   49      2    9  14  16
   50      2    9  14  15
   51      2    9   4  10
   52      2    9   4  11
   53      2    9  13  19
   54      2   10   4  11
   55      2   12   9  14
   56      2   12   9  13
   57      2   13   9  14
   58      2   14  16  20
   59      2   14  16  21
   60      2   14  16  22
   61      2   14  15  24
   62      2   15  14  16
   63      2   16  20  23
   64      2   20  16  21
   65      2   20  16  22
   66      2   21  16  22
   67      3    1   4   9  12
   68      3    1   4   9  14
   69      3    1   4  10  18
   70      3    1   4   9  13
   71      3    1   3   6  14
   72      3    2   1   4  10
   73      3    2   1   4   9
   74      3    2   1   3   8
   75      3    2   1   4  11
   76      3    2   1   3   6
   77      3    2   1   3   7
   78      3    3   1   4   9
   79      3    3   6  14  16
   80      3    3   6  14  15
   81      3    3   6  14   9
   82      3    3   1   4  10
   83      3    3   1   2  17
   84      3    3   1   4  11
   85      3    4   9  14  16
   86      3    4   9  14  15
   87      3    4   9  14   6
   88      3    4   1   2  17
   89      3    4   1   3   6
   90      3    4   9  13  19
   91      3    4   1   3   8
   92      3    4   1   3   7
   93      3    5   1   4   9
   94      3    5   1   4  10
   95      3    5   1   2  17
   96      3    5   1   3   8
   97      3    5   1   4  11
   98      3    5   1   3   7
   99      3    5   1   3   6
  100      3    6  14   9  12
  101      3    6  14   9  13
  102      3    6  14  15  24
  103      3    6  14  16  20
  104      3    6  14  16  21
  105      3    6  14  16  22
  106      3    7   3   6  14
  107      3    8   3   6  14
  108      3    9  14  15  24
  109      3    9  14  16  20
  110      3    9  14  16  21
  111      3    9  14  16  22
  112      3    9   4  10  18
  113      3   10   4   9  14
  114      3   10   4   9  13
  115      3   10   4   9  12
  116      3   11   4   9  14
  117      3   11   4   9  13
  118      3   11   4   9  12
  119      3   11   4  10  18
  120      3   12   9  13  19
  121      3   12   9  14  15
  122      3   12   9  14  16
  123      3   13   9  14  15
  124      3   13   9  14  16
  125      3   14  16  20  23
  126      3   14   9  13  19
  127      3   15  14  16  22
  128      3   15  14  16  21
  129      3   15  14  16  20
  130      3   16  14  15  24
  131      3   21  16  20  23
  132      3   22  16  20  23

          INDEP./SYM. INTERNAL COORDINATES
          --------------------------------
 CRD  1=  -0.1346 ( 13) -0.1417 ( 19) -0.1313 ( 40)  0.1111 ( 44) -0.1375 ( 45)
           0.1712 ( 46) -0.4482 ( 49)  0.1098 ( 50) -0.4014 ( 58)  0.1455 ( 59)
           0.2123 ( 62)  0.1275 ( 63)  0.1317 ( 64)  0.1163 ( 65)  0.1437 ( 71)
           0.3379 ( 79)  0.1065 ( 80) -0.1161 ( 85)  0.1875 (108) -0.1634 (130)
 CRD  2=  -0.1081 ( 34)  0.1746 ( 37) -0.1267 ( 38)  0.1021 ( 39)  0.3880 ( 44)
          -0.1077 ( 45) -0.1140 ( 46) -0.2361 ( 49)  0.2082 ( 50) -0.1647 ( 57)
           0.2761 ( 58) -0.1643 ( 60) -0.1361 ( 62) -0.1132 ( 65)  0.1404 ( 68)
           0.1037 ( 71) -0.1192 ( 81)  0.2634 ( 85)  0.1366 (102)  0.1202 (109)
           0.1985 (122)  0.1958 (124) -0.1444 (125) -0.1895 (130)
 CRD  3=  -0.2000 (  4)  0.1666 ( 11)  0.2732 ( 13)  0.1208 ( 19)  0.1376 ( 25)
           0.1552 ( 26)  0.1188 ( 29) -0.3047 ( 31)  0.2294 ( 33) -0.2044 ( 34)
           0.1166 ( 38) -0.1018 ( 39) -0.1079 ( 40) -0.1183 ( 41)  0.1248 ( 50)
           0.2517 ( 51) -0.1495 ( 52) -0.1020 ( 53)  0.1809 ( 57)  0.1446 ( 61)
           0.1659 ( 70)  0.1934 ( 73)  0.1263 ( 75)  0.1330 ( 80) -0.1104 ( 82)
          -0.1073 ( 85) -0.1012 ( 89)
 CRD  4=  -0.1505 (  1) -0.1531 (  4) -0.1891 ( 11) -0.1584 ( 14) -0.1087 ( 19)
          -0.1300 ( 25) -0.2368 ( 26) -0.1697 ( 28)  0.1016 ( 31)  0.1611 ( 32)
          -0.1009 ( 33) -0.1937 ( 34)  0.2328 ( 36) -0.2785 ( 39)  0.1201 ( 47)
           0.1120 ( 52) -0.2842 ( 53)  0.2423 ( 57) -0.1111 ( 58)  0.1414 ( 70)
          -0.1501 ( 73)  0.1720 ( 76)  0.1101 ( 77)  0.1187 ( 83)  0.1198 (107)
           0.1040 (112)  0.1298 (114)  0.1003 (117)  0.1272 (123)
 CRD  5=   0.1599 (  8) -0.1224 ( 11)  0.1190 ( 13) -0.1069 ( 14)  0.1292 ( 18)
           0.1315 ( 25)  0.1150 ( 26)  0.1216 ( 28)  0.1224 ( 31) -0.1157 ( 32)
           0.2432 ( 34)  0.1250 ( 35) -0.1697 ( 36) -0.2462 ( 39)  0.1317 ( 41)
          -0.1030 ( 47)  0.2031 ( 50) -0.1512 ( 51) -0.2209 ( 53)  0.1384 ( 57)
           0.1854 ( 61) -0.1536 ( 62) -0.1428 ( 76) -0.1072 ( 77)  0.1614 ( 80)
          -0.1217 ( 83)  0.2171 (101)  0.1289 (113)  0.1628 (114)  0.1842 (124)
 CRD  6=   0.1672 (  4) -0.1004 (  8)  0.1933 ( 10)  0.3474 ( 11)  0.2956 ( 13)
           0.1585 ( 14)  0.1417 ( 18) -0.2056 ( 26) -0.1155 ( 28) -0.1950 ( 33)
           0.1143 ( 34)  0.1056 ( 39)  0.2347 ( 41)  0.1839 ( 50)  0.1182 ( 51)
           0.2029 ( 53) -0.1067 ( 54)  0.2640 ( 61) -0.2113 ( 72) -0.1081 ( 75)
           0.1586 ( 80) -0.1107 (129)
 CRD  7=   0.1980 (  2)  0.1541 (  4) -0.2045 (  8)  0.2276 ( 10) -0.1321 ( 12)
          -0.1025 ( 14)  0.2993 ( 19)  0.1155 ( 23)  0.1498 ( 26) -0.1265 ( 28)
           0.1010 ( 30)  0.2153 ( 31)  0.3835 ( 41) -0.1008 ( 50) -0.1231 ( 53)
          -0.1230 ( 54)  0.1854 ( 58)  0.1477 ( 62) -0.1165 ( 64)  0.1045 ( 73)
          -0.1285 ( 85) -0.1385 ( 87)  0.2165 (113)  0.1907 (114)  0.1473 (115)
 CRD  8=   0.1974 (  2)  0.1614 (  8)  0.1855 ( 10)  0.1703 ( 11) -0.1211 ( 14)
          -0.1475 ( 19) -0.1159 ( 24)  0.1216 ( 26) -0.1209 ( 28)  0.1431 ( 33)
           0.2294 ( 40)  0.2247 ( 41)  0.1260 ( 45) -0.1208 ( 46)  0.1055 ( 49)
           0.1008 ( 51) -0.2055 ( 57) -0.4020 ( 58) -0.1339 ( 62)  0.1459 ( 64)
           0.1797 ( 65)  0.1060 ( 73)  0.1239 ( 76) -0.1790 ( 79) -0.1002 ( 80)
          -0.1266 ( 81)
 CRD  9=  -0.1737 (  1) -0.1177 (  2)  0.1319 (  8)  0.1087 ( 11)  0.2595 ( 12)
          -0.1203 ( 14)  0.2482 ( 19) -0.2596 ( 26) -0.1717 ( 30) -0.2087 ( 33)
           0.1173 ( 41)  0.1436 ( 43)  0.1481 ( 44) -0.1348 ( 46) -0.1027 ( 47)
           0.1177 ( 51) -0.1512 ( 53) -0.1192 ( 58)  0.1282 ( 59) -0.1797 ( 61)
           0.1288 ( 63) -0.1342 ( 72) -0.1594 ( 76)  0.1213 ( 78) -0.1210 ( 86)
          -0.1357 ( 87) -0.1271 ( 89) -0.1123 (101)  0.1183 (107)  0.1092 (129)
          -0.1115 (130)
 CRD 10=  -0.1292 (  4) -0.1452 (  8) -0.1437 ( 12) -0.1204 ( 13) -0.1116 ( 14)
          -0.2308 ( 18) -0.4239 ( 19) -0.1643 ( 23)  0.1095 ( 25) -0.1214 ( 37)
           0.1062 ( 38)  0.1076 ( 41)  0.1448 ( 51) -0.1056 ( 53)  0.2202 ( 58)
          -0.1770 ( 60) -0.2783 ( 61) -0.1326 ( 62) -0.2843 ( 63)  0.1177 ( 66)
           0.1408 ( 80) -0.2062 ( 86) -0.1404 (102) -0.1057 (121) -0.1309 (123)
          -0.1091 (130)
 CRD 11=  -0.1179 (  2) -0.2837 (  4) -0.1265 (  6) -0.2458 ( 12) -0.1866 ( 13)
          -0.2023 ( 14) -0.1278 ( 17)  0.1521 ( 18)  0.1915 ( 19)  0.1053 ( 23)
           0.1799 ( 25)  0.1595 ( 34)  0.1057 ( 35) -0.1086 ( 36) -0.1479 ( 37)
           0.1512 ( 40)  0.1072 ( 48)  0.1634 ( 51) -0.1511 ( 53)  0.1215 ( 56)
          -0.1637 ( 57)  0.1040 ( 58)  0.1994 ( 61)  0.1288 ( 62) -0.1080 ( 70)
          -0.1001 ( 72) -0.1463 ( 80) -0.1105 ( 81)  0.1350 ( 89)  0.1086 (102)
          -0.1552 (114)  0.1203 (123)
 CRD 12=  -0.2305 (  1)  0.1451 (  2) -0.1256 (  5)  0.2159 (  8)  0.1453 ( 12)
          -0.2089 ( 13)  0.3238 ( 18)  0.1354 ( 20) -0.1065 ( 22) -0.2270 ( 26)
          -0.1709 ( 34) -0.1063 ( 57)  0.2034 ( 58) -0.1172 ( 59)  0.3861 ( 61)
          -0.1006 ( 85) -0.1163 ( 86) -0.1305 (103) -0.1136 (123)
 CRD 13=  -0.1939 (  1)  0.3156 (  2) -0.2032 (  4) -0.1423 (  5)  0.1757 ( 10)
          -0.1329 ( 11)  0.1839 ( 13)  0.1645 ( 14)  0.1856 ( 16) -0.1639 ( 26)
           0.2054 ( 27)  0.1121 ( 35) -0.1069 ( 37) -0.1861 ( 47)  0.2614 ( 53)
           0.1015 ( 54)  0.1072 ( 56)  0.1212 ( 59) -0.1078 ( 61) -0.1023 ( 68)
          -0.1276 ( 70)  0.1459 ( 72)  0.1441 ( 73)  0.1680 ( 78)  0.1698 ( 82)
           0.1272 (106) -0.1264 (113) -0.1517 (114)
 CRD 14=   0.1662 (  1)  0.1065 (  5)  0.1375 (  8)  0.1192 ( 10)  0.1660 ( 12)
           0.1139 ( 18) -0.3267 ( 23) -0.1210 ( 24) -0.1053 ( 25)  0.1964 ( 26)
           0.1259 ( 36) -0.1012 ( 39)  0.1250 ( 41) -0.1108 ( 42)  0.1149 ( 43)
           0.1436 ( 51)  0.1767 ( 59)  0.1060 ( 60)  0.1360 ( 62) -0.4629 ( 63)
          -0.1346 ( 64) -0.1265 ( 82) -0.1038 (105)
 CRD 15=   0.1909 (  1)  0.1236 (  5)  0.1039 ( 10) -0.1452 ( 11)  0.1410 ( 12)
          -0.1564 ( 19)  0.3390 ( 23)  0.1374 ( 24) -0.1266 ( 25)  0.2352 ( 26)
           0.1364 ( 36)  0.1075 ( 41) -0.1147 ( 42)  0.1167 ( 43)  0.1254 ( 51)
           0.1198 ( 58) -0.1479 ( 59) -0.2538 ( 60)  0.4262 ( 63)  0.1275 ( 65)
           0.1030 ( 66) -0.1103 ( 82) -0.1021 (110)  0.1277 (132)
 CRD 16=  -0.1295 (  1) -0.3210 (  2) -0.2128 (  4)  0.1260 (  8) -0.1224 (  9)
           0.1056 ( 10) -0.1076 ( 11)  0.1131 ( 13)  0.1390 ( 14)  0.1010 ( 15)
           0.1221 ( 19) -0.1412 ( 26) -0.2888 ( 27)  0.1529 ( 28) -0.1253 ( 29)
           0.1408 ( 33) -0.1454 ( 35) -0.1280 ( 40)  0.3110 ( 41)  0.1716 ( 47)
           0.1728 ( 53)  0.1180 ( 55)  0.1017 ( 59) -0.1179 ( 61)  0.1202 ( 74)
          -0.1069 ( 82) -0.1352 ( 84)  0.1093 (101) -0.1809 (106) -0.1285 (126)
 CRD 17=   0.1794 ( 10)  0.1413 ( 11) -0.1678 ( 13)  0.1538 ( 16)  0.1032 ( 28)
           0.1062 ( 37)  0.2021 ( 41) -0.2233 ( 53) -0.2599 ( 59)  0.2266 ( 60)
           0.2354 ( 64) -0.2120 ( 65)  0.1381 ( 86)  0.1213 ( 87)  0.1276 (101)
           0.2203 (103)  0.1050 (104)  0.1182 (105)  0.2296 (109)  0.1143 (110)
           0.1275 (111) -0.1034 (113)  0.1109 (121)  0.1444 (123)  0.1314 (127)
           0.1182 (128)  0.2335 (129) -0.1475 (131) -0.1258 (132)
 CRD 18=  -0.1077 (  1)  0.2442 (  2)  0.2245 (  4)  0.1001 (  8)  0.1518 ( 11)
          -0.1044 ( 21) -0.2417 ( 26) -0.1995 ( 27)  0.1011 ( 29)  0.2745 ( 30)
           0.1020 ( 38) -0.1337 ( 39) -0.1024 ( 41) -0.1800 ( 43)  0.1163 ( 47)
          -0.1031 ( 50)  0.1138 ( 51) -0.1114 ( 55)  0.1308 ( 57)  0.1513 ( 59)
          -0.2441 ( 60) -0.1334 ( 80) -0.1247 ( 94)  0.1080 (100)  0.1144 (101)
          -0.1136 (106) -0.2061 (107)  0.1008 (123) -0.1590 (125)
 CRD 19=   0.1631 (  4)  0.1101 (  6) -0.2625 ( 11) -0.1499 ( 18) -0.1621 ( 20)
           0.1809 ( 21) -0.1473 ( 22) -0.1602 ( 26) -0.1606 ( 27)  0.1694 ( 29)
           0.1668 ( 30)  0.1043 ( 50) -0.1586 ( 52)  0.1139 ( 53)  0.1011 ( 56)
          -0.2906 ( 59)  0.3184 ( 60)  0.1358 ( 64) -0.1251 ( 65) -0.1110 ( 69)
          -0.1141 (112) -0.1202 (117)  0.2570 (125) -0.1053 (126) -0.1014 (128)
          -0.1556 (129)
 CRD 20=   0.2874 (  2) -0.2544 (  4) -0.1206 ( 10)  0.1033 ( 12)  0.1902 ( 13)
          -0.1353 ( 14)  0.1685 ( 15) -0.1025 ( 16)  0.1314 ( 19) -0.1462 ( 29)
           0.1948 ( 30)  0.1039 ( 35)  0.1167 ( 39) -0.2173 ( 42) -0.1162 ( 48)
           0.1259 ( 52) -0.1298 ( 53)  0.2173 ( 55) -0.1178 ( 67) -0.1281 ( 72)
          -0.1050 ( 73) -0.1328 ( 78) -0.1559 ( 82) -0.1080 ( 88)  0.1092 ( 91)
           0.1101 ( 92) -0.1416 ( 93) -0.1647 ( 94)  0.1007 ( 95) -0.1071 ( 99)
          -0.1091 (102) -0.1255 (107)  0.1013 (116) -0.1499 (119)
 CRD 21=   0.2273 (  4) -0.1277 (  8) -0.2142 ( 11) -0.1034 ( 14)  0.1356 ( 15)
           0.1366 ( 18)  0.1908 ( 20) -0.1562 ( 21)  0.1665 ( 22)  0.1294 ( 29)
          -0.1319 ( 35) -0.1731 ( 41)  0.1341 ( 42)  0.1155 ( 45) -0.1113 ( 52)
           0.1067 ( 56) -0.1188 ( 57)  0.1418 ( 59) -0.1407 ( 70) -0.1497 ( 86)
          -0.1037 (102)  0.1276 (103) -0.1150 (108)  0.1759 (109) -0.1816 (117)
          -0.1224 (118) -0.1816 (121) -0.1300 (122) -0.1795 (125) -0.1344 (126)
           0.1078 (128)  0.1938 (129)
 CRD 22=  -0.2006 (  4) -0.1490 ( 10)  0.1884 ( 14) -0.1894 ( 16)  0.2094 ( 17)
           0.1373 ( 18)  0.1446 ( 20) -0.1384 ( 39)  0.1030 ( 40)  0.4028 ( 53)
          -0.1062 ( 54) -0.1583 ( 55) -0.1739 ( 59)  0.1601 ( 60)  0.1914 ( 64)
          -0.2131 ( 65)  0.1485 ( 67)  0.1499 (109)  0.1218 (113)  0.1455 (114)
           0.2058 (115)  0.1251 (118)  0.1029 (126)  0.1808 (129) -0.1211 (131)
          -0.1158 (132)
 CRD 23=  -0.1723 (  3) -0.1055 (  4) -0.2069 (  7) -0.1782 (  8)  0.1871 (  9)
           0.1283 ( 10) -0.2217 ( 11) -0.2906 ( 15)  0.1871 ( 16)  0.1060 ( 20)
          -0.1920 ( 27)  0.2467 ( 30)  0.1010 ( 39)  0.2042 ( 41) -0.1073 ( 42)
          -0.1115 ( 43)  0.1008 ( 54)  0.1585 ( 61)  0.1234 ( 70) -0.1199 ( 74)
          -0.1237 ( 76) -0.1342 ( 88) -0.1109 ( 96) -0.1147 ( 99) -0.1019 (100)
          -0.1413 (101) -0.1253 (106) -0.1414 (107)  0.1340 (120) -0.1348 (123)
          -0.1190 (124)  0.1206 (126)
 CRD 24=  -0.1086 (  3)  0.1546 (  6) -0.1447 (  7)  0.1342 (  8)  0.2372 (  9)
           0.2224 ( 11)  0.1275 ( 12)  0.1866 ( 13)  0.1476 ( 15)  0.1779 ( 26)
          -0.2760 ( 27) -0.1446 ( 28)  0.1044 ( 31)  0.1735 ( 36) -0.1205 ( 37)
          -0.2175 ( 41)  0.1251 ( 47)  0.1523 ( 52) -0.1686 ( 61) -0.1288 ( 65)
          -0.1234 ( 70)  0.1276 ( 72)  0.1323 ( 75)  0.1121 ( 82)  0.1168 ( 84)
           0.1012 ( 93)  0.1439 ( 94)  0.1487 ( 97) -0.1093 (106)  0.1760 (112)
 CRD 25=   0.2021 (  1)  0.5908 (  3)  0.3064 (  5) -0.1174 (  7)  0.2503 (  9)
           0.1648 ( 15)  0.1498 ( 16)  0.1166 ( 30)  0.1427 ( 32) -0.1181 ( 33)
           0.1107 ( 41)  0.1083 ( 54) -0.1803 ( 73) -0.1770 ( 75)  0.1031 ( 76)
           0.1279 ( 77)  0.1285 ( 82)  0.1338 ( 88)
 CRD 26=   0.1333 (  2)  0.1446 (  3)  0.1060 (  4)  0.1401 (  7)  0.1719 (  8)
           0.2437 ( 13) -0.2888 ( 15) -0.2433 ( 21)  0.1519 ( 22) -0.1351 ( 26)
          -0.1917 ( 30) -0.1123 ( 37) -0.1095 ( 38)  0.1076 ( 55) -0.1048 ( 56)
          -0.1316 ( 59) -0.1129 ( 61)  0.1655 ( 64) -0.1900 ( 65) -0.1007 ( 80)
          -0.1046 (101) -0.1270 (104) -0.1356 (105)  0.1455 (107) -0.1321 (110)
          -0.1407 (111) -0.1268 (115) -0.1053 (118)  0.1491 (120) -0.1218 (124)
          -0.1011 (125) -0.1261 (127) -0.1175 (128) -0.1085 (131)
 CRD 27=  -0.2267 (  3) -0.1002 (  5) -0.1950 (  6)  0.2799 (  7)  0.4909 (  9)
          -0.1190 ( 12)  0.3769 ( 15)  0.1210 ( 16) -0.1384 ( 32)  0.1177 ( 41)
          -0.1072 ( 61)  0.1288 ( 68) -0.1379 ( 74) -0.1479 ( 77) -0.1272 ( 78)
          -0.1814 ( 93) -0.1094 ( 97)  0.1063 (106)  0.1256 (107)
 CRD 28=   0.1012 ( 13) -0.2943 ( 15)  0.2577 ( 18)  0.1307 ( 20)  0.1424 ( 21)
          -0.4423 ( 22) -0.1207 ( 38) -0.3298 ( 61) -0.1858 ( 64)  0.1477 (104)
           0.1280 (105)  0.2412 (110)  0.2216 (111) -0.1011 (121) -0.1279 (122)
           0.1514 (125)  0.1896 (127)  0.2093 (128)
 CRD 29=  -0.1491 (  1)  0.1911 (  3) -0.1033 (  4) -0.1720 (  6)  0.2433 (  7)
          -0.4189 (  9) -0.1425 ( 21) -0.1395 ( 22)  0.2800 ( 26) -0.1064 ( 27)
          -0.1528 ( 43)  0.1796 ( 47) -0.1481 ( 61) -0.2170 ( 74) -0.1947 ( 77)
          -0.1124 ( 88) -0.2633 ( 91) -0.2410 ( 92) -0.1960 ( 96) -0.1736 ( 98)
 CRD 30=  -0.6363 ( 21) -0.4942 ( 22)  0.1542 ( 59)  0.1346 ( 60)  0.1886 ( 63)
          -0.2684 ( 66) -0.1119 (104) -0.1324 (110) -0.1336 (128)  0.1592 (131)
          -0.1649 (132)
 CRD 31=   0.6615 (  6)  0.5351 (  7) -0.1170 ( 27) -0.1118 ( 30)  0.2780 ( 48)
           0.1223 ( 77)  0.1141 ( 92)  0.1013 ( 98) -0.1898 (106)  0.1204 (107)
 CRD 32=   0.1334 (  1) -0.1093 (  3) -0.2560 (  6)  0.3804 (  7)  0.1373 ( 10)
          -0.1086 ( 13) -0.1376 ( 14) -0.2785 ( 15)  0.2197 ( 19)  0.1863 ( 21)
          -0.1300 ( 26)  0.1356 ( 30)  0.1172 ( 38) -0.1588 ( 41) -0.1579 ( 43)
           0.1367 ( 47)  0.1368 ( 53) -0.1120 ( 55) -0.1056 ( 71)  0.1044 ( 76)
           0.1019 ( 79)  0.1607 ( 80)  0.1175 ( 89) -0.1667 (102) -0.1486 (107)
           0.1192 (122) -0.1854 (130)
 CRD 33=   0.1758 (  6)  0.2266 (  8) -0.1722 ( 10) -0.2607 ( 12) -0.1696 ( 13)
          -0.1451 ( 15)  0.1229 ( 18) -0.3297 ( 20)  0.2607 ( 22)  0.1155 ( 24)
          -0.1331 ( 25)  0.1372 ( 37)  0.1544 ( 41)  0.1248 ( 43) -0.1375 ( 48)
           0.1101 ( 50) -0.2559 ( 61) -0.1040 ( 64) -0.1038 ( 65)  0.1335 ( 79)
           0.1462 ( 80) -0.1442 (105) -0.1472 (107) -0.1017 (108)  0.1158 (110)
          -0.1286 (122) -0.1680 (127)
 CRD 34=  -0.1273 (  7)  0.1711 (  8)  0.1118 ( 10) -0.1806 ( 12) -0.6063 ( 14)
           0.1205 ( 38) -0.1020 ( 41)  0.1180 ( 43)  0.4664 ( 53) -0.1096 ( 56)
           0.1352 (100)  0.1051 (102)  0.1751 (121)  0.1228 (122)  0.1354 (130)
 CRD 35=  -0.1343 ( 18) -0.6274 ( 23)  0.1545 ( 24)  0.1239 ( 61)  0.5381 ( 63)
          -0.1486 ( 64) -0.1424 ( 65)  0.2015 ( 66)  0.1657 (104) -0.1012 (105)
           0.1369 (110) -0.1300 (111) -0.1034 (127)  0.1635 (128)
 CRD 36=  -0.3421 (  1)  0.1108 (  9) -0.4501 ( 10)  0.1574 ( 12) -0.1622 ( 14)
          -0.1081 ( 18)  0.2550 ( 26) -0.1092 ( 37)  0.3366 ( 41)  0.1064 ( 53)
           0.1022 ( 76) -0.1120 ( 93)  0.1159 ( 98)  0.1483 ( 99) -0.1747 (116)
          -0.1432 (117) -0.2040 (118)
 CRD 37=   0.5041 (  1) -0.1123 (  5) -0.4196 ( 10) -0.1140 ( 17) -0.3567 ( 26)
           0.1052 ( 32)  0.2887 ( 41)  0.1041 ( 75)  0.1436 ( 93)  0.1525 ( 94)
          -0.1269 ( 96)  0.2020 ( 97) -0.1574 ( 98) -0.1294 ( 99) -0.1060 (117)
 CRD 38=   0.1622 (  3) -0.1017 (  5)  0.3561 (  8) -0.1337 ( 12)  0.1258 ( 14)
          -0.1001 ( 15) -0.4895 ( 18)  0.1151 ( 23) -0.1034 ( 37)  0.1473 ( 43)
           0.1416 ( 47)  0.2804 ( 61)  0.1038 ( 74)  0.1138 ( 91) -0.1579 (100)
          -0.1024 (101)  0.1534 (103)  0.1810 (104)  0.1835 (105)  0.1007 (110)
           0.1032 (111) -0.1186 (122)
 CRD 39=   0.1329 (  3) -0.2121 (  5) -0.1858 (  8)  0.1233 (  9)  0.1047 ( 11)
           0.2001 ( 12) -0.1123 ( 14) -0.2709 ( 15) -0.1711 ( 16)  0.2889 ( 17)
          -0.1094 ( 18) -0.2022 ( 21)  0.2429 ( 22)  0.1389 ( 24) -0.2723 ( 90)
          -0.1069 (119) -0.2205 (120)  0.2234 (125) -0.3190 (126)  0.2166 (131)
           0.1778 (132)
 CRD 40=   0.1187 (  6) -0.1903 (  9) -0.2331 ( 12)  0.4019 ( 16)  0.5116 ( 17)
           0.2055 ( 20)  0.1890 ( 21) -0.1304 ( 22)  0.3199 ( 24) -0.1013 (102)
          -0.1383 (125) -0.1199 (130) -0.1042 (131) -0.1517 (132)
 CRD 41=  -0.1199 (  3)  0.2035 (  5) -0.2827 ( 17) -0.1829 ( 19)  0.1211 ( 22)
           0.7881 ( 24) -0.1167 ( 58) -0.1794 ( 63)  0.1109 (131)
 CRD 42=  -0.1098 (  1) -0.3567 (  3)  0.6603 (  5)  0.1526 (  8)  0.1525 ( 11)
           0.1194 ( 16)  0.1573 ( 17) -0.1673 ( 18)  0.1229 ( 20) -0.1397 ( 21)
          -0.2012 ( 24)  0.1183 ( 88)  0.1374 (125)  0.1277 (132)
 CRD 43=  -0.1556 (  5) -0.2022 (  9)  0.1796 ( 12)  0.2329 ( 15)  0.4857 ( 16)
           0.1564 ( 17) -0.1320 ( 20) -0.1995 ( 21)  0.2088 ( 22)  0.1853 ( 90)
           0.1882 (120)  0.2643 (125)  0.2271 (126)  0.2430 (131)  0.2358 (132)
 CRD 44=  -0.2068 ( 12)  0.2130 ( 16) -0.4375 ( 17)  0.6193 ( 20)  0.1030 ( 53)
           0.1034 ( 57) -0.1201 ( 61)  0.1621 (125)  0.1529 (131)  0.1096 (132)
 CRD 45=  -0.1602 (  5)  0.1069 (  7)  0.1159 (  8)  0.1349 (  9) -0.1174 ( 12)
           0.1141 ( 15) -0.3558 ( 16)  0.3509 ( 17)  0.3914 ( 20) -0.1282 ( 53)
          -0.1038 ( 61) -0.1051 ( 70)  0.1072 ( 83)  0.1143 ( 88)  0.1745 ( 90)
           0.1020 ( 95)  0.1063 (102) -0.1462 (107) -0.1088 (114) -0.1029 (115)
           0.1988 (120)  0.1119 (125)  0.2010 (126)
 CRD 46=   0.1371 (  3)  0.1628 (  5) -0.1127 ( 14) -0.2329 ( 16) -0.1354 ( 31)
           0.1358 ( 51)  0.4065 ( 69) -0.1090 ( 82) -0.1509 ( 83) -0.2033 ( 88)
          -0.1937 ( 95) -0.1292 (102) -0.1159 (108)  0.4341 (112)  0.4227 (119)
          -0.1317 (130)
 CRD 47=  -0.1626 (  3) -0.2625 (  5) -0.1702 (  9)  0.1330 ( 11)  0.1685 ( 35)
          -0.1431 ( 42)  0.1491 ( 69) -0.1222 ( 75)  0.3130 ( 83)  0.3496 ( 88)
          -0.1157 ( 90) -0.1031 ( 93)  0.4679 ( 95) -0.1417 ( 97) -0.1009 ( 98)
           0.1734 (112)  0.2671 (119) -0.1262 (120) -0.1104 (126)
 CRD 48=   0.1511 (  2) -0.1015 (  3)  0.1307 (  5) -0.2058 (  7) -0.1139 ( 12)
          -0.1972 ( 16) -0.1506 ( 30)  0.1385 ( 48) -0.1554 ( 69)  0.1111 ( 86)
          -0.3703 (102)  0.2073 (107) -0.3328 (108) -0.1563 (112) -0.1423 (119)
           0.1044 (121)  0.1517 (125) -0.3633 (130)  0.1709 (131)  0.1420 (132)
 CRD 49=   0.1141 (  1) -0.1958 (  2)  0.1690 (  8) -0.1611 (  9)  0.1489 ( 10)
           0.1802 ( 12) -0.1617 ( 14)  0.2009 ( 15) -0.1399 ( 16) -0.1262 ( 17)
          -0.1933 ( 18) -0.1145 ( 21) -0.1166 ( 22)  0.1029 ( 27)  0.1493 ( 30)
          -0.1256 ( 38) -0.1661 ( 43)  0.1689 ( 53)  0.1097 ( 57) -0.1014 ( 59)
          -0.1011 ( 60)  0.1416 ( 62) -0.1080 ( 63)  0.1663 ( 66)  0.1355 ( 70)
          -0.1177 ( 80)  0.1183 ( 98)  0.1147 ( 99) -0.1177 (100) -0.1081 (105)
          -0.2002 (107) -0.1276 (108)  0.1027 (120) -0.1215 (122) -0.1226 (130)
           0.1524 (132)
 CRD 50=  -0.1438 (  1)  0.1102 (  2)  0.1597 (  3)  0.1449 (  6)  0.1469 (  9)
          -0.2056 ( 10) -0.1024 ( 11)  0.1279 ( 13)  0.1370 ( 19) -0.1631 ( 23)
           0.1200 ( 24) -0.1274 ( 29)  0.1491 ( 34) -0.1661 ( 35)  0.1118 ( 42)
          -0.1725 ( 48) -0.1191 ( 59) -0.1092 ( 60)  0.1416 ( 64)  0.1144 ( 65)
          -0.1333 ( 76) -0.2475 ( 77) -0.1018 ( 80)  0.2512 ( 83)  0.1898 ( 88)
          -0.1024 ( 92)  0.1267 ( 93)  0.1351 (106) -0.1124 (108)  0.1701 (116)
           0.1224 (117)  0.2116 (118) -0.1029 (130)  0.1538 (132)
 CRD 51=   0.1882 (  4)  0.1680 (  5) -0.2315 (  6)  0.1245 (  7)  0.1268 ( 18)
           0.1869 ( 19)  0.1250 ( 20) -0.2165 ( 23)  0.1618 ( 24) -0.1242 ( 26)
          -0.1283 ( 27)  0.1036 ( 33)  0.1245 ( 35) -0.1551 ( 42)  0.1658 ( 43)
          -0.1101 ( 45) -0.1177 ( 58) -0.1260 ( 59) -0.1549 ( 60) -0.1141 ( 61)
          -0.1052 ( 63)  0.1450 ( 64)  0.1867 ( 65)  0.1038 ( 73)  0.1803 ( 75)
           0.1133 ( 81)  0.1625 ( 95) -0.1536 ( 99) -0.2345 (106) -0.1096 (128)
          -0.1904 (131)
 CRD 52=   0.1309 (  3)  0.1486 (  4)  0.1578 (  5) -0.1719 (  8)  0.1488 ( 12)
          -0.1879 ( 14) -0.1248 ( 18) -0.1873 ( 19)  0.1014 ( 20)  0.2078 ( 23)
          -0.1094 ( 24) -0.1381 ( 29) -0.1074 ( 31) -0.1042 ( 32) -0.1130 ( 38)
           0.1434 ( 52)  0.1161 ( 56)  0.1237 ( 59) -0.1732 ( 64) -0.1093 ( 65)
           0.1864 ( 75) -0.1061 ( 76) -0.1389 ( 77)  0.2006 ( 83)  0.1013 ( 84)
           0.1482 ( 88)  0.1599 ( 95)  0.1020 ( 97)  0.1011 (101) -0.1024 (105)
           0.1184 (118) -0.1746 (119)  0.1683 (120) -0.1014 (121) -0.1371 (122)
          -0.1014 (125) -0.1105 (127) -0.1945 (132)
 CRD 53=  -0.2024 (  1) -0.1324 (  2)  0.1309 (  7)  0.2273 (  9) -0.1232 ( 12)
           0.1077 ( 14) -0.1282 ( 15)  0.1300 ( 16) -0.1266 ( 18)  0.1133 ( 32)
           0.1395 ( 37) -0.1035 ( 39) -0.1198 ( 41) -0.1173 ( 42)  0.1108 ( 45)
          -0.1426 ( 47) -0.1008 ( 50) -0.1545 ( 54)  0.1459 ( 55)  0.1148 ( 61)
          -0.1235 ( 67)  0.1161 ( 69) -0.1512 ( 80) -0.1313 ( 82)  0.1147 ( 93)
          -0.1624 ( 96)  0.1058 ( 97) -0.1154 ( 98) -0.2416 ( 99)  0.1668 (101)
          -0.1408 (105)  0.1304 (113) -0.1441 (118)  0.2354 (120)  0.1234 (123)
           0.1081 (124)  0.1060 (129) -0.1040 (130)  0.1086 (132)
 CRD 54=  -0.1393 (  3)  0.1012 (  4) -0.1255 (  6)  0.1139 (  8) -0.1669 ( 10)
           0.1937 ( 12)  0.1074 ( 13) -0.1558 ( 14) -0.1301 ( 18)  0.1136 ( 20)
          -0.1489 ( 21)  0.1482 ( 32) -0.1285 ( 47)  0.1016 ( 48) -0.1123 ( 55)
           0.1722 ( 56) -0.1058 ( 57)  0.1321 ( 67) -0.1041 ( 70) -0.1774 ( 75)
           0.1830 ( 77) -0.1028 ( 83) -0.1035 ( 84)  0.1148 ( 86) -0.1212 ( 96)
          -0.1493 (102) -0.1460 (108)  0.1174 (110)  0.1768 (115)  0.2196 (118)
           0.1269 (123) -0.1018 (125) -0.1083 (127) -0.1670 (129) -0.1921 (131)
          -0.1202 (132)
 CRD 55=   0.1104 (  1)  0.1619 (  2) -0.1617 (  4)  0.1033 (  6) -0.2167 (  7)
          -0.1377 (  8)  0.1730 ( 11) -0.1595 ( 13) -0.1354 ( 15) -0.1668 ( 18)
           0.3423 ( 19) -0.1580 ( 21) -0.1139 ( 30) -0.1090 ( 39)  0.1645 ( 47)
          -0.1097 ( 59) -0.1035 ( 60) -0.1006 ( 63)  0.1153 ( 65)  0.1497 ( 66)
           0.1156 ( 79)  0.1609 ( 80)  0.1444 ( 90)  0.1545 ( 99)  0.1841 (101)
           0.1366 (107) -0.1128 (118)  0.2293 (120) -0.1971 (131)
 CRD 56=   0.1761 (  2) -0.1873 (  4)  0.1069 (  7) -0.2834 (  8)  0.1272 ( 13)
          -0.1531 ( 19) -0.1270 ( 22)  0.2450 ( 23) -0.1293 ( 27)  0.1208 ( 29)
           0.1651 ( 43) -0.1391 ( 46)  0.1173 ( 47) -0.1404 ( 52) -0.1179 ( 65)
           0.1624 ( 66) -0.1541 ( 69)  0.1146 ( 74)  0.1002 ( 82)  0.1751 ( 91)
           0.1259 ( 94)  0.1473 ( 96) -0.2127 (105) -0.1782 (106) -0.1041 (107)
           0.1540 (110) -0.1011 (111) -0.1213 (112) -0.1101 (120)  0.1164 (121)
          -0.1383 (127)  0.1168 (128)
 CRD 57=  -0.2151 (  4)  0.1192 (  7)  0.1782 ( 11)  0.1460 ( 12) -0.2848 ( 13)
          -0.1041 ( 19)  0.2489 ( 22) -0.1230 ( 23)  0.1360 ( 29) -0.1058 ( 38)
          -0.1209 ( 45) -0.1086 ( 48)  0.1363 ( 55)  0.1268 ( 65) -0.1546 ( 66)
           0.1097 ( 70)  0.1043 ( 86)  0.1077 ( 91)  0.1060 ( 93)  0.1152 ( 94)
          -0.1183 (102)  0.1937 (105)  0.1129 (106) -0.1234 (108) -0.1020 (109)
           0.1432 (111)  0.1348 (114) -0.1672 (118)  0.1091 (120) -0.1027 (128)
          -0.1741 (129) -0.2560 (132)
 CRD 58=  -0.3489 (  2)  0.1574 (  3)  0.2371 (  6)  0.1085 ( 10) -0.1444 ( 11)
           0.1086 ( 12)  0.1237 ( 13) -0.1087 ( 21) -0.1296 ( 26)  0.1472 ( 27)
           0.1009 ( 31) -0.1464 ( 32)  0.1368 ( 33) -0.1095 ( 37)  0.1140 ( 39)
          -0.1443 ( 43) -0.1350 ( 48) -0.1235 ( 54) -0.1131 ( 57)  0.1463 ( 75)
          -0.1373 ( 77)  0.1074 ( 89) -0.1399 ( 93) -0.1444 ( 94)  0.1229 ( 95)
          -0.1001 ( 98)  0.2049 (106)  0.1151 (110)  0.1265 (115) -0.1749 (117)
          -0.1146 (120)  0.1237 (121)
 CRD 59=  -0.1112 (  8)  0.2681 ( 11) -0.2031 ( 14)  0.2421 ( 21) -0.1374 ( 23)
          -0.1092 ( 40) -0.1002 ( 48)  0.2000 ( 56) -0.1090 ( 60)  0.1399 ( 64)
          -0.1318 ( 66)  0.1026 ( 67)  0.1088 ( 90) -0.1474 ( 97) -0.1737 (100)
          -0.1981 (104) -0.1870 (110)  0.1567 (115) -0.1324 (121) -0.2233 (122)
           0.1152 (123) -0.1959 (128)  0.1956 (131)
 CRD 60=   0.1564 (  2) -0.1336 (  4) -0.2207 (  7)  0.1399 (  8)  0.2262 (  9)
           0.1260 ( 12) -0.2087 ( 19) -0.1233 ( 25)  0.1110 ( 28) -0.1055 ( 41)
          -0.1243 ( 45)  0.1607 ( 48) -0.1346 ( 54)  0.1570 ( 69) -0.1913 ( 71)
          -0.1629 ( 72) -0.1483 ( 74)  0.1169 ( 79)  0.2232 ( 81) -0.1519 ( 82)
           0.1440 ( 86) -0.1849 ( 91) -0.1120 ( 94) -0.1216 ( 96)  0.1010 ( 99)
          -0.1145 (100) -0.1136 (101) -0.1843 (106) -0.1036 (108)  0.1366 (113)
           0.1592 (114)  0.1244 (115)
 CRD 61=  -0.1225 ( 10)  0.2157 ( 13) -0.1508 ( 19)  0.2421 ( 22)  0.1756 ( 44)
          -0.1218 ( 46) -0.1129 ( 50) -0.1509 ( 59)  0.1035 ( 60)  0.1046 ( 62)
           0.1271 ( 65) -0.1091 ( 66) -0.1470 ( 71)  0.2421 ( 79)  0.1484 ( 81)
          -0.1501 ( 97)  0.1119 (102) -0.2643 (103) -0.1129 (104) -0.1701 (106)
          -0.1099 (107) -0.1642 (109)  0.1491 (111)  0.1257 (116)  0.2736 (127)
           0.1116 (128) -0.1729 (130) -0.1983 (132)
 CRD 62=   0.1492 (  1)  0.1168 (  3) -0.2659 (  4) -0.2322 (  6)  0.1166 (  8)
          -0.1015 ( 15)  0.1874 ( 30) -0.1813 ( 32)  0.1667 ( 36) -0.1508 ( 47)
           0.1122 ( 48)  0.1772 ( 71) -0.1596 ( 74) -0.2782 ( 76)  0.2382 ( 83)
          -0.1382 ( 89)  0.1143 ( 90)  0.1944 ( 92) -0.1314 ( 93)  0.1691 ( 96)
           0.3831 ( 98) -0.1106 (106) -0.1510 (117)
 CRD 63=   0.1493 (  1) -0.1626 (  3)  0.1201 (  7) -0.1638 ( 15)  0.1634 ( 18)
          -0.1070 ( 19)  0.1130 ( 23)  0.1195 ( 25) -0.1050 ( 27) -0.1067 ( 33)
           0.1256 ( 35)  0.1008 ( 42) -0.1005 ( 45)  0.1481 ( 49)  0.1067 ( 52)
           0.1297 ( 55)  0.1250 ( 69) -0.1238 ( 72) -0.1001 ( 73)  0.1909 ( 74)
           0.1042 ( 78) -0.1378 ( 79) -0.1100 ( 83)  0.1993 ( 84) -0.1922 ( 87)
          -0.1530 ( 89)  0.1062 ( 90) -0.1834 ( 92) -0.1035 ( 93) -0.1273 ( 94)
           0.1931 ( 96)  0.1034 (103)  0.1706 (104) -0.1105 (108) -0.1497 (111)
           0.1141 (116)  0.1654 (123)  0.1844 (124) -0.1123 (127)
 CRD 64=  -0.1580 (  2)  0.1377 (  3)  0.1177 (  8) -0.2254 ( 10)  0.1860 ( 11)
          -0.1962 ( 13)  0.1032 ( 18) -0.1797 ( 28)  0.1004 ( 31) -0.1002 ( 32)
           0.1480 ( 36) -0.1127 ( 39) -0.1148 ( 42)  0.1733 ( 54)  0.1180 ( 55)
          -0.1940 ( 67)  0.1715 ( 72)  0.1965 ( 73) -0.1167 ( 74) -0.2447 ( 84)
          -0.1350 ( 88)  0.1135 ( 92) -0.2698 ( 97)  0.1104 (103)  0.1204 (104)
          -0.1408 (115)  0.2045 (116)  0.2147 (117) -0.1075 (127)
 CRD 65=  -0.1607 ( 11)  0.1955 ( 12)  0.1957 ( 14) -0.1652 ( 18)  0.1345 ( 21)
           0.1624 ( 40) -0.1233 ( 44) -0.1389 ( 46)  0.1256 ( 50) -0.1280 ( 56)
          -0.1303 ( 57)  0.1026 ( 58) -0.1285 ( 60)  0.1251 ( 62) -0.1262 ( 67)
          -0.2629 ( 85)  0.2264 (100) -0.1895 (104) -0.1404 (108)  0.2687 (109)
           0.2272 (111) -0.1494 (115)  0.1570 (116)  0.2461 (121) -0.2333 (124)
          -0.1929 (128)
 CRD 66=   0.1664 (  1)  0.1817 (  9) -0.1020 ( 10)  0.1610 ( 15) -0.1200 ( 29)
           0.1028 ( 31) -0.1182 ( 34) -0.1234 ( 38) -0.1235 ( 52) -0.1343 ( 67)
          -0.2647 ( 68)  0.1298 ( 69)  0.1424 ( 71)  0.1388 ( 73)  0.2615 ( 78)
          -0.1411 ( 81)  0.1332 ( 85)  0.1973 ( 87) -0.1949 ( 89) -0.1655 ( 90)
          -0.1376 ( 92) -0.2089 ( 94)  0.1685 ( 96) -0.1598 ( 97)  0.1015 (108)
           0.1874 (114)  0.1369 (117) -0.1360 (123)

 THE DETERMINANT OF THE G MATRIX IS 10**(   -34)


                     --------------------
                     INTERNAL COORDINATES
                     --------------------

                 - - ATOMS - -         COORDINATE      COORDINATE
 NO.   TYPE    I  J  K  L  M  N        (BOHR,RAD)       (ANG,DEG)
 ----------------------------------------------------------------
   1 STRETCH   1  2                     2.7276067       1.4433874
   2 STRETCH   1  3                     2.8873704       1.5279307
   3 STRETCH   1  5                     2.0684344       1.0945684
   4 STRETCH   1  4                     2.8931131       1.5309696
   5 STRETCH   2 17                     1.8492026       0.9785559
   6 STRETCH   3  8                     2.0709291       1.0958886
   7 STRETCH   3  7                     2.0631777       1.0917867
   8 STRETCH   3  6                     2.7060129       1.4319605
   9 STRETCH   4 11                     2.0647157       1.0926005
  10 STRETCH   4 10                     2.7243436       1.4416607
  11 STRETCH   4  9                     2.8907837       1.5297369
  12 STRETCH   6 14                     2.7158878       1.4371860
  13 STRETCH   9 14                     2.9272436       1.5490307
  14 STRETCH   9 13                     2.7132491       1.4357897
  15 STRETCH   9 12                     2.0760365       1.0985913
  16 STRETCH  10 18                     1.8541163       0.9811562
  17 STRETCH  13 19                     1.8518658       0.9799653
  18 STRETCH  14 15                     2.7212672       1.4400327
  19 STRETCH  14 16                     2.9311043       1.5510737
  20 STRETCH  15 24                     1.8429077       0.9752248
  21 STRETCH  16 22                     2.0714639       1.0961716
  22 STRETCH  16 21                     2.0712086       1.0960365
  23 STRETCH  16 20                     2.6952455       1.4262626
  24 STRETCH  20 23                     1.8413873       0.9744203
  25 BEND      1  3  6                  1.9339781     110.8087855
  26 BEND      1  2 17                  1.8704883     107.1710850
  27 BEND      1  3  7                  1.9633788     112.4933181
  28 BEND      1  4  9                  1.9277227     110.4503733
  29 BEND      1  4 11                  1.9421152     111.2750027
  30 BEND      1  3  8                  1.9088094     109.3667215
  31 BEND      1  4 10                  1.9205786     110.0410466
  32 BEND      2  1  5                  1.8553058     106.3011911
  33 BEND      2  1  3                  1.9178973     109.8874215
  34 BEND      2  1  4                  1.8779441     107.5982689
  35 BEND      3  1  5                  1.9396589     111.1342700
  36 BEND      3  1  4                  1.9419429     111.2651307
  37 BEND      3  6 14                  2.0043585     114.8412803
  38 BEND      4  9 12                  1.8907687     108.3330647
  39 BEND      4  9 13                  1.9392838     111.1127782
  40 BEND      4  9 14                  1.9583985     112.2079666
  41 BEND      4 10 18                  1.8368929     105.2462124
  42 BEND      4  1  5                  1.9280804     110.4708668
  43 BEND      6  3  8                  1.8522273     106.1248066
  44 BEND      6 14 16                  1.9673722     112.7221241
  45 BEND      6 14 15                  1.8605067     106.5991810
  46 BEND      6 14  9                  1.9066666     109.2439500
  47 BEND      6  3  7                  1.9349536     110.8646758
  48 BEND      7  3  8                  1.8656795     106.8955617
  49 BEND      9 14 16                  2.0032110     114.7755345
  50 BEND      9 14 15                  1.8779034     107.5959370
  51 BEND      9  4 10                  1.8839768     107.9439216
  52 BEND      9  4 11                  1.9394036     111.1196436
  53 BEND      9 13 19                  1.8312837     104.9248286
  54 BEND     10  4 11                  1.8475554     105.8571296
  55 BEND     12  9 14                  1.8918817     108.3968373
  56 BEND     12  9 13                  1.8256853     104.6040620
  57 BEND     13  9 14                  1.9513916     111.8065038
  58 BEND     14 16 20                  1.9976110     114.4546791
  59 BEND     14 16 21                  1.9072913     109.2797441
  60 BEND     14 16 22                  1.9216485     110.1023491
  61 BEND     14 15 24                  1.8506545     106.0346934
  62 BEND     15 14 16                  1.8393844     105.3889640
  63 BEND     16 20 23                  1.8547399     106.2687687
  64 BEND     20 16 21                  1.8752172     107.4420322
  65 BEND     20 16 22                  1.8841395     107.9532440
  66 BEND     21 16 22                  1.8735417     107.3460346
  67 TORSION   1  4  9 12              -1.2025652     -68.9019079
  68 TORSION   1  4  9 14               0.8853639      50.7276162
  69 TORSION   1  4 10 18               0.5087942      29.1517591
  70 TORSION   1  4  9 13               3.0844311     176.7248851
  71 TORSION   1  3  6 14              -1.0491299     -60.1107131
  72 TORSION   2  1  4 10              -0.8607168     -49.3154420
  73 TORSION   2  1  4  9               1.2176197      69.7644716
  74 TORSION   2  1  3  8               0.9061437      51.9182087
  75 TORSION   2  1  4 11              -2.9029443    -166.3264568
  76 TORSION   2  1  3  6              -1.1297570     -64.7303103
  77 TORSION   2  1  3  7               2.9764259     170.5366433
  78 TORSION   3  1  4  9              -0.8841723     -50.6593439
  79 TORSION   3  6 14 16              -1.2229985     -70.0726501
  80 TORSION   3  6 14 15               3.0503824     174.7740363
  81 TORSION   3  6 14  9               1.0260106      58.7860794
  82 TORSION   3  1  4 10              -2.9625089    -169.7392575
  83 TORSION   3  1  2 17               0.4004277      22.9428197
  84 TORSION   3  1  4 11               1.2784489      73.2497277
  85 TORSION   4  9 14 16               1.2976462      74.3496510
  86 TORSION   4  9 14 15              -2.9446226    -168.7144468
  87 TORSION   4  9 14  6              -0.9313852     -53.3644419
  88 TORSION   4  1  2 17              -1.7164733     -98.3466779
  89 TORSION   4  1  3  6               0.9483079      54.3340426
  90 TORSION   4  9 13 19               0.6793692      38.9249895
  91 TORSION   4  1  3  8               2.9842087     170.9825615
  92 TORSION   4  1  3  7              -1.2286944     -70.3990038
  93 TORSION   5  1  4  9              -3.0472573    -174.5949803
  94 TORSION   5  1  4 10               1.1575915      66.3251062
  95 TORSION   5  1  2 17               2.5009195     143.2921311
  96 TORSION   5  1  3  8              -1.1424759     -65.4590479
  97 TORSION   5  1  4 11              -0.8846360     -50.6859087
  98 TORSION   5  1  3  7               0.9278063      53.1593867
  99 TORSION   5  1  3  6               3.1048087     177.8924331
 100 TORSION   6 14  9 12               1.1558937      66.2278310
 101 TORSION   6 14  9 13              -3.1238551    -178.9837127
 102 TORSION   6 14 15 24              -2.4495544    -140.3491260
 103 TORSION   6 14 16 20               1.2485692      71.5377449
 104 TORSION   6 14 16 21              -0.8549991     -48.9878386
 105 TORSION   6 14 16 22              -2.9087187    -166.6573055
 106 TORSION   7  3  6 14               1.1438962      65.5404265
 107 TORSION   8  3  6 14              -3.1196150    -178.7407712
 108 TORSION   9 14 15 24              -0.4060001     -23.2620897
 109 TORSION   9 14 16 20              -0.9493595     -54.3942928
 110 TORSION   9 14 16 21              -3.0529278    -174.9198763
 111 TORSION   9 14 16 22               1.1765379      67.4106568
 112 TORSION   9  4 10 18              -1.5960970     -91.4496222
 113 TORSION  10  4  9 14               2.9857770     171.0724188
 114 TORSION  10  4  9 13              -1.0983411     -62.9303123
 115 TORSION  10  4  9 12               0.8978479      51.4428947
 116 TORSION  11  4  9 14              -1.2788191     -73.2709374
 117 TORSION  11  4  9 13               0.9202481      52.7263315
 118 TORSION  11  4  9 12               2.9164371     167.0995385
 119 TORSION  11  4 10 18               2.6091196     149.4915405
 120 TORSION  12  9 13 19              -1.3571156     -77.7569953
 121 TORSION  12  9 14 15              -0.8573437     -49.1221739
 122 TORSION  12  9 14 16              -2.8982602    -166.0580761
 123 TORSION  13  9 14 15               1.1460928      65.6662824
 124 TORSION  13  9 14 16              -0.8948237     -51.2696198
 125 TORSION  14 16 20 23               3.0850340     176.7594277
 126 TORSION  14  9 13 19               2.8823188     165.1447045
 127 TORSION  15 14 16 22              -0.8862302     -50.7772521
 128 TORSION  15 14 16 21               1.1674894      66.8922149
 129 TORSION  15 14 16 20              -3.0121276    -172.5822017
 130 TORSION  16 14 15 24               1.7391256      99.6445598
 131 TORSION  21 16 20 23              -1.0768879     -61.7011338
 132 TORSION  22 16 20 23               0.9387429      53.7860088

     ------------------------------------------
     THE POINT GROUP IS C1 , NAXIS= 1, ORDER= 1
     ------------------------------------------

     DIMENSIONS OF THE SYMMETRY SUBSPACES ARE
 A   =  300

 ..... DONE SETTING UP THE RUN .....
 STEP CPU TIME =     0.02 TOTAL CPU TIME =        0.0 (    0.0 MIN)
 TOTAL WALL CLOCK TIME=        0.0 SECONDS, CPU UTILIZATION IS  50.00%


          -----------------------------
          STATIONARY POINT LOCATION RUN
          -----------------------------

 OBTAINING INITIAL HESSIAN, HESS=GUESS   
 DIAGONAL GUESS HESSIAN IN INTERNAL COORDS IS
     1  0.3508     2  0.3686     3  0.3433     4  0.3665     5  0.3473
     6  0.3424     7  0.3452     8  0.3587     9  0.3446    10  0.3520
    11  0.3674    12  0.3551    13  0.3538    14  0.3561    15  0.3406
    16  0.3456    17  0.3464    18  0.3531    19  0.3524    20  0.3496
    21  0.3422    22  0.3423    23  0.3627    24  0.3501    25  0.2429
    26  0.2129    27  0.2241    28  0.2484    29  0.2239    30  0.2239
    31  0.2421    32  0.2183    33  0.2422    34  0.2420    35  0.2239
    36  0.2486    37  0.2370    38  0.2236    39  0.2425    40  0.2472
    41  0.2129    42  0.2237    43  0.2189    44  0.2410    45  0.2364
    46  0.2412    47  0.2191    48  0.2030    49  0.2457    50  0.2410
    51  0.2422    52  0.2239    53  0.2132    54  0.2185    55  0.2224
    56  0.2185    57  0.2413    58  0.2418    59  0.2225    60  0.2225
    61  0.2133    62  0.2408    63  0.2141    64  0.2192    65  0.2192
    66  0.2028    67  0.2500    68  0.2500    69  0.2500    70  0.2500
    71  0.2500    72  0.2500    73  0.2500    74  0.2500    75  0.2500
    76  0.2500    77  0.2500    78  0.2500    79  0.2500    80  0.2500
    81  0.2500    82  0.2500    83  0.2500    84  0.2500    85  0.2500
    86  0.2500    87  0.2500    88  0.2500    89  0.2500    90  0.2500
    91  0.2500    92  0.2500    93  0.2500    94  0.2500    95  0.2500
    96  0.2500    97  0.2500    98  0.2500    99  0.2500   100  0.2500
   101  0.2500   102  0.2500   103  0.2500   104  0.2500   105  0.2500
   106  0.2500   107  0.2500   108  0.2500   109  0.2500   110  0.2500
   111  0.2500   112  0.2500   113  0.2500   114  0.2500   115  0.2500
   116  0.2500   117  0.2500   118  0.2500   119  0.2500   120  0.2500
   121  0.2500   122  0.2500   123  0.2500   124  0.2500   125  0.2500
   126  0.2500   127  0.2500   128  0.2500   129  0.2500   130  0.2500
   131  0.2500   132  0.2500
 TRANSFORMING HESSIAN TO SYMMETRY COORDINATES

          PARAMETERS CONTROLLING GEOMETRY SEARCH ARE
          METHOD =QA                  UPHESS =BFGS    
          NNEG   =         0          NFRZ   =         3
          NSTEP  =        50          IFOLOW =         1
          HESS   =GUESS               RESTAR =         F
          IHREP  =         0          HSSEND =         F
          NPRT   =         0          NPUN   =         0
          OPTTOL = 5.000E-04          RMIN   = 1.500E-03
          RMAX   = 1.000E-01          RLIM   = 7.000E-02
          DXMAX  = 3.000E-01          PURIFY =         F
          MOVIE  =         F          TRUPD  =         T
          TRMAX  = 5.000E-01          TRMIN  = 5.000E-02
          ITBMAT =         5          STPT   =         F
          STSTEP = 1.000E-02          PROJCT=          F
          FROZEN COORD(S)=   1   2   3


      ***** EQUILIBRIUM GEOMETRY LOCATED *****
            (SUBJECT TO   3 CONSTRAINT(S))
 COORDINATES OF ALL ATOMS ARE (ANGS)
   ATOM   CHARGE       X              Y              Z
 ------------------------------------------------------------
 C           6.0  -2.1173160832   2.4163952014  -1.9373949203
 O           8.0  -2.3876030774   1.0286673929  -1.9281051372
 C           6.0  -1.2841748520   2.8104266449  -3.1427888660
 C           6.0  -1.4042150847   2.8202594969  -0.6474702232
 H           1.0  -3.0777644754   2.9134539868  -1.9855240919
 O           8.0   0.0268502867   2.2780416178  -3.0398492440
 H           1.0  -1.2555144496   3.8838349478  -3.2467658255
 H           1.0  -1.7049159767   2.3792140930  -4.0399963271
 C           6.0   0.0315758355   2.3067022290  -0.6560904288
 O           8.0  -2.0753918980   2.3330011137   0.4879914966
 H           1.0  -1.3958375273   3.8956777247  -0.5644288519
 H           1.0   0.0046659889   1.2195118179  -0.6286663504
 O           8.0   0.7710896554   2.7795958625   0.4373463099
 C           6.0   0.7956368536   2.6631055097  -1.9369181331
 O           8.0   1.9297773786   1.8570009238  -2.0368719265
 C           6.0   1.2851000609   4.1091766722  -2.0392009457
 H           1.0  -1.6410695395   0.5528190265  -2.2550560728
 H           1.0  -2.3097924563   1.4310925724   0.3322562548
 H           1.0   0.3608276484   2.4821840032   1.2338115532
 O           8.0   0.2368243666   5.0284249021  -1.8854200045
 H           1.0   1.7520595424   4.2077240691  -3.0142362170
 H           1.0   2.0385877864   4.2627008049  -1.2754656757
 H           1.0   0.5656181410   5.9004632121  -2.0239432773
 H           1.0   2.3756208556   1.8447467744  -1.2039834969


                     --------------------
                     INTERNAL COORDINATES
                     --------------------

                 - - ATOMS - -         COORDINATE      COORDINATE
 NO.   TYPE    I  J  K  L  M  N        (BOHR,RAD)       (ANG,DEG)
 ----------------------------------------------------------------
   1 STRETCH   1  2                     2.6717610       1.4138351
   2 STRETCH   1  3                     2.8673811       1.5173528
   3 STRETCH   1  5                     2.0456622       1.0825179
   4 STRETCH   1  4                     2.8879596       1.5282425
   5 STRETCH   2 17                     1.7834057       0.9437377
   6 STRETCH   3  8                     2.0422584       1.0807167
   7 STRETCH   3  7                     2.0386614       1.0788132
   8 STRETCH   3  6                     2.6810259       1.4187379
   9 STRETCH   4 11                     2.0383570       1.0786521
  10 STRETCH   4 10                     2.6571808       1.4061196
  11 STRETCH   4  9                     2.8816375       1.5248970
  12 STRETCH   6 14                     2.6427560       1.3984863
  13 STRETCH   9 14                     2.8977160       1.5334054
  14 STRETCH   9 13                     2.6497388       1.4021815
  15 STRETCH   9 12                     2.0557745       1.0878691
  16 STRETCH  10 18                     1.7854022       0.9447942
  17 STRETCH  13 19                     1.7838909       0.9439945
  18 STRETCH  14 15                     2.6361983       1.3950162
  19 STRETCH  14 16                     2.8914400       1.5300842
  20 STRETCH  15 24                     1.7853958       0.9447908
  21 STRETCH  16 22                     2.0480698       1.0837919
  22 STRETCH  16 21                     2.0514249       1.0855674
  23 STRETCH  16 20                     2.6507055       1.4026931
  24 STRETCH  20 23                     1.7805039       0.9422021
  25 BEND      1  3  6                  1.9308261     110.6281855
  26 BEND      1  2 17                  1.9192071     109.9624640
  27 BEND      1  3  7                  1.9278711     110.4588778
  28 BEND      1  4  9                  1.9236500     110.2170256
  29 BEND      1  4 11                  1.9093039     109.3950555
  30 BEND      1  3  8                  1.9199829     110.0069146
  31 BEND      1  4 10                  1.9468853     111.5483103
  32 BEND      2  1  5                  1.8560147     106.3418081
  33 BEND      2  1  3                  1.9445111     111.4122818
  34 BEND      2  1  4                  1.9209535     110.0625301
  35 BEND      3  1  5                  1.9098567     109.4267265
  36 BEND      3  1  4                  1.9237720     110.2240176
  37 BEND      3  6 14                  2.0509226     117.5092074
  38 BEND      4  9 12                  1.8892919     108.2484516
  39 BEND      4  9 13                  1.9590734     112.2466359
  40 BEND      4  9 14                  1.9775238     113.3037651
  41 BEND      4 10 18                  1.8924269     108.4280718
  42 BEND      4  1  5                  1.9072920     109.2797815
  43 BEND      6  3  8                  1.8444676     105.6802093
  44 BEND      6 14 16                  1.9642264     112.5418827
  45 BEND      6 14 15                  1.8042218     103.3742953
  46 BEND      6 14  9                  1.8974139     108.7138062
  47 BEND      6  3  7                  1.9345834     110.8434638
  48 BEND      7  3  8                  1.9042779     109.1070874
  49 BEND      9 14 16                  2.0207195     115.7786971
  50 BEND      9 14 15                  1.9077767     109.3075527
  51 BEND      9  4 10                  1.9148377     109.7121177
  52 BEND      9  4 11                  1.9059288     109.2016749
  53 BEND      9 13 19                  1.8991403     108.8127235
  54 BEND     10  4 11                  1.8619190     106.6800986
  55 BEND     12  9 14                  1.8396881     105.4063618
  56 BEND     12  9 13                  1.9075586     109.2950571
  57 BEND     13  9 14                  1.8861824     108.0702910
  58 BEND     14 16 20                  1.9530014     111.8987359
  59 BEND     14 16 21                  1.8581749     106.4655807
  60 BEND     14 16 22                  1.8851164     108.0092146
  61 BEND     14 15 24                  1.9049607     109.1462055
  62 BEND     15 14 16                  1.8559001     106.3352433
  63 BEND     16 20 23                  1.9067121     109.2465575
  64 BEND     20 16 21                  1.9395402     111.1274698
  65 BEND     20 16 22                  1.9278117     110.4554754
  66 BEND     21 16 22                  1.8976042     108.7247134
  67 TORSION   1  4  9 12              -1.1517971     -65.9931120
  68 TORSION   1  4  9 14               0.8819663      50.5329456
  69 TORSION   1  4 10 18               0.7865013      45.0632042
  70 TORSION   1  4  9 13               3.0244967     173.2908971
  71 TORSION   1  3  6 14              -1.0459983     -59.9312866
  72 TORSION   2  1  4 10              -0.8710224     -49.9059053
  73 TORSION   2  1  4  9               1.2605830      72.2260832
  74 TORSION   2  1  3  8               0.8375068      47.9856045
  75 TORSION   2  1  4 11              -2.9267920    -167.6928296
  76 TORSION   2  1  3  6              -1.1937861     -68.3989062
  77 TORSION   2  1  3  7               2.9407540     168.4927949
  78 TORSION   3  1  4  9              -0.8910702     -51.0545629
  79 TORSION   3  6 14 16              -1.2722273     -72.8932547
  80 TORSION   3  6 14 15               3.0158445     172.7951632
  81 TORSION   3  6 14  9               0.9901545      56.7316724
  82 TORSION   3  1  4 10              -3.0226755    -173.1865514
  83 TORSION   3  1  2 17               0.6373327      36.5164738
  84 TORSION   3  1  4 11               1.2047401      69.0265243
  85 TORSION   4  9 14 16               1.3405266      76.8065140
  86 TORSION   4  9 14 15              -2.8480828    -163.1831259
  87 TORSION   4  9 14  6              -0.8902392     -51.0069506
  88 TORSION   4  1  2 17              -1.5021458     -86.0666151
  89 TORSION   4  1  3  6               0.9440719      54.0913344
  90 TORSION   4  9 13 19               1.0578410      60.6098263
  91 TORSION   4  1  3  8               2.9753648     170.4758451
  92 TORSION   4  1  3  7              -1.2045733     -69.0169644
  93 TORSION   5  1  4  9              -2.9905315    -171.3448311
  94 TORSION   5  1  4 10               1.1610485      66.5231803
  95 TORSION   5  1  2 17               2.7171038     155.6785792
  96 TORSION   5  1  3  8              -1.2099042     -69.3224028
  97 TORSION   5  1  4 11              -0.8947211     -51.2637440
  98 TORSION   5  1  3  7               0.8933431      51.1847877
  99 TORSION   5  1  3  6               3.0419882     174.2930865
 100 TORSION   6 14  9 12               1.1725236      67.1806551
 101 TORSION   6 14  9 13              -3.0726044    -176.0472670
 102 TORSION   6 14 15 24              -2.8314935    -162.2326257
 103 TORSION   6 14 16 20               1.2294137      70.4402183
 104 TORSION   6 14 16 21              -0.8927988     -51.1536032
 105 TORSION   6 14 16 22              -2.9282125    -167.7742178
 106 TORSION   7  3  6 14               1.0987508      62.9537822
 107 TORSION   8  3  6 14              -3.1235850    -178.9682376
 108 TORSION   9 14 15 24              -0.8131719     -46.5913184
 109 TORSION   9 14 16 20              -0.9677871     -55.4501162
 110 TORSION   9 14 16 21              -3.0899996    -177.0439377
 111 TORSION   9 14 16 22               1.1577720      66.3354477
 112 TORSION   9  4 10 18              -1.3501724     -77.3591800
 113 TORSION  10  4  9 14               3.0323871     173.7429805
 114 TORSION  10  4  9 13              -1.1082678     -63.4990680
 115 TORSION  10  4  9 12               0.9986237      57.2169229
 116 TORSION  11  4  9 14              -1.2158796     -69.6647708
 117 TORSION  11  4  9 13               0.9266508      53.0931808
 118 TORSION  11  4  9 12               3.0335423     173.8091716
 119 TORSION  11  4 10 18               2.8705787     164.4720424
 120 TORSION  12  9 13 19              -1.0384737     -59.5001617
 121 TORSION  12  9 14 15              -0.7853200     -44.9955201
 122 TORSION  12  9 14 16              -2.8798959    -165.0058803
 123 TORSION  13  9 14 15               1.2527373      71.7765578
 124 TORSION  13  9 14 16              -0.8418387     -48.2338024
 125 TORSION  14 16 20 23              -3.0622399    -175.4534219
 126 TORSION  14  9 13 19              -3.0320597    -173.7242221
 127 TORSION  15 14 16 22              -0.9647717     -55.2773457
 128 TORSION  15 14 16 21               1.0706420      61.3432689
 129 TORSION  15 14 16 20              -3.0903308    -177.0629096
 130 TORSION  16 14 15 24               1.3798924      79.0620120
 131 TORSION  21 16 20 23              -0.9875659     -56.5833574
 132 TORSION  22 16 20 23               1.1201027      64.1771566

          INTERNUCLEAR DISTANCES (ANGS.)


 =====================================================
   GAMESS/COSab RESULTS
 =====================================================

   Dielectric Constant                  = INFTY
   Basic Grid Size                      =                 1082
   Number of Segments                   =                   92
   Number of Segments located on spheres=                  303
   Number of Segments of the cavity     =                  710
   Solvent Radius (rsolv)               = 1.40
   Outlying Charge Error Method         = double cavity

 =====================================================

  Total solvated Energy (a.u.)          =  -683.5608800818
  Total Energy corrected (a.u.)         =  -683.5610480422

  Outlying charge effect (a.u.)         =    -0.0001679604
  Outlying charge effect (kcal/mol)     =    -0.1053968611

  Dielectric Energy (a.u.)              =    -0.0328904368
  Dielectric energy corr. (a.u.)        =    -0.0330583972

  Sum of polarization charges           =     0.0154983819
  Sum of polarization charges(cor.)     =    -0.0154983819

  Total surface area of cavity (A**2)   =  173.97
  Total volume of cavity (A**3)         =  190.53

 =====================================================
 NPS=                   710
NR.  ATOM  (X, Y, Z)(a.u.)                  CHARGE(e)  AREA(A**2) SIGMA(e/A**2)
   1   1  -6.640182   3.681969  -6.218036   0.000027   0.092912   0.000288
   2   1  -7.502689   3.914144  -2.396999  -0.000063   0.046456  -0.001357
   3   1  -7.188576   3.934007  -5.591102  -0.000354   0.185824  -0.001905
   4   1  -5.049491   8.197343  -3.631416  -0.000619   0.092912  -0.006663
   5   1  -6.738716   4.470969  -6.265161  -0.000435   0.185824  -0.002340
   6   1  -7.336515   3.904141  -2.011592  -0.000098   0.046456  -0.002111
   7   1  -7.320066   4.297392  -1.873230  -0.000182   0.046456  -0.003913
   8   1  -5.126717   8.156328  -4.020553  -0.000218   0.046456  -0.004700
   9   2  -7.379659   0.418806  -3.765215   0.006040   0.343589   0.017579
  10   2  -7.023456   2.124334  -5.698888   0.002757   0.171795   0.016047
  11   2  -4.546108  -1.234564  -2.964702   0.001063   0.274871   0.003866
  12   2  -5.178582  -0.065714  -6.109702   0.002718   0.309230   0.008790
  13   2  -7.342621   2.226524  -2.071383   0.001769   0.137436   0.012875
  14   2  -7.645301   2.249161  -2.835306   0.002951   0.240512   0.012270
  15   2  -7.671721   1.352020  -3.164065   0.005606   0.343589   0.016316
  16   2  -6.643823   0.317513  -1.806614   0.004867   0.240512   0.020237
  17   2  -7.141334   0.336769  -2.610177   0.005954   0.343589   0.017328
  18   2  -7.509420   1.075360  -4.552028   0.006907   0.377948   0.018275
  19   2  -7.413470   1.897473  -5.107650   0.004834   0.274871   0.017585
  20   2  -4.806655  -1.264365  -4.073556   0.000679   0.274871   0.002472
  21   2  -5.050886  -0.796430  -5.306361   0.001323   0.309230   0.004280
  22   2  -4.824317   0.528081  -6.552637   0.001558   0.206154   0.007557
  23   2  -3.384306  -0.486214  -1.803016   0.000909   0.137436   0.006617
  24   2  -3.841385  -0.933269  -2.288242   0.000949   0.206154   0.004601
  25   2  -5.599535  -0.521900  -1.826565   0.003881   0.240512   0.016136
  26   2  -4.833171  -0.859811  -2.030928   0.003774   0.309230   0.012203
  27   2  -5.642981  -1.077226  -3.245875   0.004894   0.481025   0.010173
  28   2  -6.677330  -0.473562  -3.466010   0.005766   0.377948   0.015256
  29   2  -6.814386  -0.104223  -4.677274   0.006679   0.412307   0.016198
  30   2  -6.136773  -0.086904  -5.593042   0.005367   0.377948   0.014200
  31   2  -5.787220   0.868453  -6.433159   0.004989   0.309230   0.016133
  32   2  -6.536498   1.725946  -6.177011   0.005210   0.274871   0.018956
  33   2  -7.330325   1.329769  -2.145579   0.004549   0.274871   0.016550
  34   2  -7.732570   2.109376  -4.049337   0.004798   0.309230   0.015517
  35   2  -6.292824  -0.445781  -2.346495   0.004734   0.309230   0.015310
  36   2  -6.820720   0.866539  -5.661853   0.006841   0.377948   0.018100
  37   2  -5.837424  -0.884434  -4.542618   0.004027   0.412307   0.009766
  38   2  -4.135398  -0.547935  -1.590870   0.001602   0.171795   0.009323
  39   3  -1.118512   6.627616  -9.231287  -0.000118   0.185824  -0.000635
  40   3  -4.903210   6.690028  -8.438898  -0.000449   0.325193  -0.001382
  41   3  -4.250193   7.651497  -8.280165  -0.000248   0.371649  -0.000666
  42   3  -1.228874   7.561207  -8.729276  -0.000472   0.371649  -0.001270
  43   3  -0.430074   6.739963  -8.812230  -0.000030   0.232280  -0.000130
  44   3  -1.957275   6.773854  -9.392077   0.000067   0.371649   0.000181
  45   3  -3.793387   7.042638  -9.007837   0.000192   0.371649   0.000516
  46   3  -5.188998   7.324323  -7.551598  -0.000988   0.418105  -0.002364
  47   3  -5.447977   7.424593  -6.768965  -0.000353   0.139368  -0.002536
  48   3  -0.778643   5.802896  -9.304415  -0.000137   0.232280  -0.000591
  49   3  -1.483155   5.552875  -9.590766  -0.000306   0.278737  -0.001097
  50   3  -5.574049   6.021434  -7.907233  -0.000827   0.232280  -0.003562
  51   3  -5.912963   5.261017  -7.397789  -0.000415   0.092912  -0.004471
  52   3  -4.991957   8.021662  -6.535548  -0.000772   0.185824  -0.004156
  53   3  -2.666508   7.464608  -9.035525   0.000101   0.278737   0.000362
  54   3  -0.966906   4.589893  -9.349759  -0.000111   0.185824  -0.000600
  55   3  -2.908854   6.619706  -9.451687   0.000032   0.232280   0.000138
  56   3  -5.798162   6.354728  -7.291146  -0.000878   0.185824  -0.004725
  57   4  -5.768757   7.355831  -0.535014   0.000107   0.092912   0.001149
  58   4  -2.496602   7.872010   1.568485   0.000002   0.046456   0.000053
  59   4  -5.264721   7.943489  -0.427653  -0.000623   0.278737  -0.002237
  60   4  -2.135202   7.690788   1.681626  -0.000094   0.046456  -0.002034
  61   5  -8.028582   6.566528  -3.873265  -0.004558   0.549575  -0.008294
  62   5  -7.020865   7.305784  -4.911059  -0.002348   0.333671  -0.007036
  63   5  -6.491019   7.830407  -3.333664  -0.002095   0.294415  -0.007115
  64   5  -7.727621   6.416640  -2.506547  -0.002542   0.353299  -0.007196
  65   5  -8.140003   4.755453  -3.483869  -0.002062   0.353299  -0.005836
  66   5  -7.623203   5.368193  -5.410619  -0.001879   0.353299  -0.005319
  67   5  -6.852981   7.694346  -4.163926  -0.002786   0.392554  -0.007097
  68   5  -7.280387   7.276649  -2.883427  -0.002847   0.412182  -0.006907
  69   5  -8.065073   5.478030  -2.763861  -0.002967   0.431809  -0.006870
  70   5  -8.158045   5.227683  -4.440051  -0.003268   0.471065  -0.006938
  71   5  -7.548080   6.433467  -5.226745  -0.002946   0.490692  -0.006003
  72   6   0.298029   1.228149  -6.762938   0.002278   0.103077   0.022103
  73   6   1.659180   3.376049  -8.411862   0.005018   0.274871   0.018256
  74   6  -0.272934   1.575722  -7.479882   0.003154   0.206154   0.015298
  75   6   0.069352   2.809739  -8.630466   0.002384   0.171795   0.013875
  76   6   0.825978   2.894959  -8.568635   0.003866   0.240512   0.016073
  77   6   0.595329   1.517810  -7.325732   0.002809   0.171795   0.016352
  78   6   1.049582   2.209296  -8.019466   0.004748   0.274871   0.017274
  79   6   1.218798   4.183091  -8.775245   0.004696   0.274871   0.017083
  80   6   0.999947   5.242341  -8.708412   0.004182   0.240512   0.017388
  81   6   0.820759   1.227139  -6.451068   0.002061   0.137436   0.014998
  82   6   1.836051   2.608475  -7.865707   0.003557   0.240512   0.014790
  83   6   2.160560   4.094080  -8.208006   0.004535   0.240512   0.018855
  84   6  -0.073141   2.049407  -8.081614   0.004661   0.309230   0.015072
  85   6   0.439226   3.791258  -8.930385   0.003618   0.240512   0.015042
  86   6   1.283130   1.690287  -7.231028   0.003934   0.206154   0.019085
  87   6   1.831435   4.880084  -8.402109   0.004147   0.240512   0.017243
  88   7  -2.871355   9.534288  -7.119712  -0.002431   0.314043  -0.007740
  89   7  -4.178417   9.001448  -6.028052  -0.001302   0.215905  -0.006033
  90   7  -3.461536   8.883999  -7.705022  -0.001280   0.274788  -0.004659
  91   7  -1.562972   8.816149  -7.924014  -0.001586   0.255160  -0.006216
  92   7  -3.719023   9.352365  -5.723139  -0.001373   0.176649  -0.007770
  93   7  -3.831126   9.196709  -6.812285  -0.002138   0.333671  -0.006407
  94   7  -2.455379   8.957800  -7.981833  -0.001872   0.353299  -0.005299
  95   8  -4.116576   3.673899  -9.769561  -0.004428   0.529948  -0.008355
  96   8  -3.031361   2.353522  -8.821215  -0.002779   0.353299  -0.007865
  97   8  -2.279911   3.811032  -9.797487  -0.002000   0.353299  -0.005660
  98   8  -3.776406   5.406812  -9.847637  -0.001909   0.372926  -0.005119
  99   8  -5.386011   4.751823  -8.768504  -0.002495   0.412182  -0.006053
 100   8  -4.279270   2.701337  -8.936742  -0.004084   0.490692  -0.008323
 101   8  -2.802920   2.994203  -9.532906  -0.003233   0.431809  -0.007488
 102   8  -3.036061   4.550471 -10.083481  -0.003193   0.490692  -0.006507
 103   8  -4.676520   4.956944  -9.559723  -0.003247   0.471065  -0.006893
 104   8  -5.260681   3.617717  -8.686481  -0.003733   0.490692  -0.007609
 105  10  -5.623817   5.984578   3.199190   0.006060   0.343589   0.017637
 106  10  -6.499491   6.372205   0.666248   0.003440   0.206154   0.016687
 107  10  -4.730827   2.752566   3.599363   0.001341   0.274871   0.004878
 108  10  -7.079159   3.754455   1.332467   0.002897   0.309230   0.009367
 109  10  -3.235226   7.018737   2.733504   0.001808   0.137436   0.013152
 110  10  -3.099350   6.388431   3.365277   0.002774   0.171795   0.016150
 111  10  -4.141593   7.245616   2.493293   0.003216   0.240512   0.013372
 112  10  -4.812833   6.765516   2.975562   0.005759   0.343589   0.016762
 113  10  -3.468763   5.530170   3.939057   0.006742   0.343589   0.019623
 114  10  -4.581300   5.847493   3.761141   0.006580   0.377948   0.017410
 115  10  -6.042364   6.439582   2.316422   0.007617   0.412307   0.018473
 116  10  -6.167705   6.725789   1.312405   0.004975   0.274871   0.018101
 117  10  -5.761384   2.898233   3.135614   0.000518   0.274871   0.001883
 118  10  -6.676489   3.293144   2.238370   0.001357   0.309230   0.004389
 119  10  -7.074441   3.771689   0.452715   0.001928   0.240512   0.008016
 120  10  -2.709002   2.074059   2.830771   0.001479   0.206154   0.007174
 121  10  -3.609251   2.346740   3.415166   0.001736   0.309230   0.005615
 122  10  -3.399653   4.345542   4.129635   0.005608   0.309230   0.018135
 123  10  -4.025622   3.351564   3.994014   0.003514   0.309230   0.011363
 124  10  -5.260169   3.743999   3.808653   0.004971   0.481025   0.010335
 125  10  -5.525502   4.927567   3.701359   0.005739   0.377948   0.015186
 126  10  -6.429698   5.180274   2.840589   0.006667   0.412307   0.016169
 127  10  -6.969134   4.573835   2.041006   0.005353   0.377948   0.014164
 128  10  -7.149052   4.754190   0.746483   0.005017   0.309230   0.016224
 129  10  -6.920831   5.658256   0.823124   0.004590   0.240512   0.019084
 130  10  -3.773943   6.595000   3.322779   0.004414   0.274871   0.016060
 131  10  -5.228786   7.221771   1.893510   0.005781   0.377948   0.015296
 132  10  -4.391503   4.675266   4.127325   0.005892   0.377948   0.015591
 133  10  -6.800042   5.693820   1.715604   0.005587   0.309230   0.018067
 134  10  -6.331090   3.944968   3.054160   0.004110   0.412307   0.009969
 135  10  -3.140542   3.138221   3.810050   0.004036   0.274871   0.014684
 136  11  -3.283719   9.619014  -0.343691  -0.002670   0.333671  -0.008001
 137  11  -3.280160   8.973314   0.672727  -0.001880   0.314043  -0.005986
 138  11  -4.474860   8.984509  -0.902855  -0.001490   0.274788  -0.005424
 139  11  -2.331730   9.098691   0.643507  -0.002867   0.372926  -0.007689
 140  11  -4.069834   9.040124   0.013819  -0.001727   0.314043  -0.005499
 141  11  -4.068776   9.295487  -1.564566  -0.002294   0.333671  -0.006874
 142  12   0.123992  -0.124290  -0.837913  -0.003207   0.392554  -0.008170
 143  12   0.751691   0.578590   0.394491  -0.002974   0.353299  -0.008418
 144  12  -0.679428   0.071111  -0.430925  -0.002428   0.255160  -0.009517
 145  12  -0.214528   0.495660   0.459155  -0.003018   0.353299  -0.008544
 146  12   1.342277   0.396234  -0.403597  -0.003444   0.431809  -0.007975
 147  12   0.698705  -0.001897  -1.677330  -0.003208   0.392554  -0.008172
 148  13   3.342058   5.466261   3.465805   0.001225   0.274871   0.004455
 149  13   0.630251   7.497517   3.026806   0.001436   0.206154   0.006967
 150  13   2.496764   2.423207   2.042170   0.001414   0.240512   0.005880
 151  13   4.604365   5.857533   1.368556   0.004160   0.206154   0.020178
 152  13   2.633516   6.338266   3.655291   0.000268   0.274871   0.000975
 153  13   1.611003   7.178836   3.440049   0.001289   0.309230   0.004169
 154  13  -0.013899   7.500754   2.655873   0.001722   0.206154   0.008354
 155  13   3.141732   3.230910   2.734153   0.002122   0.309230   0.006862
 156  13   3.419624   4.285175   3.230057   0.001462   0.309230   0.004728
 157  13   4.504916   5.010340   1.929668   0.004766   0.274871   0.017340
 158  13   4.056416   5.194264   2.777117   0.003719   0.343589   0.010825
 159  13   3.592569   6.459862   2.958908   0.004705   0.481025   0.009781
 160  13   3.612809   7.318507   2.111035   0.005320   0.309230   0.017203
 161  13   2.651078   8.028161   2.024733   0.006598   0.377948   0.017459
 162  13   1.541937   7.943231   2.648091   0.004174   0.343589   0.012148
 163  13   0.570486   8.100838   2.117354   0.004216   0.240512   0.017527
 164  13   2.945927   2.467775   1.596217   0.002085   0.171795   0.012134
 165  13   3.461864   2.940929   1.922639   0.002433   0.171795   0.014160
 166  13   3.959428   3.553451   2.016378   0.003036   0.206154   0.014726
 167  13   4.277002   6.344286   2.018722   0.005261   0.343589   0.015313
 168  13   1.575459   8.328517   1.870407   0.004107   0.206154   0.019923
 169  13   2.613829   7.351231   3.022545   0.003889   0.412307   0.009433
 170  13   4.091292   4.184482   2.402823   0.004041   0.274871   0.014703
[...]
 451  21   1.438269   8.373957  -7.498755  -0.000262   0.070552  -0.003711
 452  16   0.957258   8.580387  -7.476923   0.000119   0.066109   0.001794
 453   3  -0.286737   7.991524  -7.986617   0.000039   0.066109   0.000597
 454  17  -2.503851   0.712014  -6.735981  -0.001071   0.058218  -0.018404
 455   3  -2.195686   1.692548  -7.517081  -0.000090   0.081969  -0.001095
 456  21   1.874571   7.898975  -7.895457  -0.000651   0.355146  -0.001833
 457   3   0.129770   7.444542  -8.259366   0.000684   0.521175   0.001312
 458   4  -6.147456   6.771639  -0.750041   0.000067   0.088434   0.000755
 459   5  -6.524283   6.635348  -1.381954  -0.000393   0.088434  -0.004440
 460  10  -6.259013   6.523821  -0.366097   0.000698   0.088434   0.007890
 461   4  -5.152890   8.111452  -1.881393  -0.000269   0.033191  -0.008109
 462   5  -5.616207   7.856733  -2.408919  -0.000374   0.033191  -0.011257
 463  11  -4.936712   8.305388  -1.810637  -0.000301   0.033191  -0.009066
 464   5  -6.515454   7.189291  -2.162754  -0.002770   0.326869  -0.008475
 465   4  -5.684707   7.628414  -1.496621  -0.001503   0.459693  -0.003269
 466   4  -3.209782   7.888594   1.505842  -0.000035   0.013151  -0.002689
 467  10  -3.434195   7.613333   1.811298   0.000117   0.013151   0.008898
 468  11  -3.167043   8.111610   1.311530  -0.000114   0.013151  -0.008705
 469   4  -4.512938   7.955995   0.764469   0.000041   0.013151   0.003124
 470  10  -4.682462   7.677895   1.101152   0.000202   0.013151   0.015341
 471  11  -4.350559   8.172823   0.638221  -0.000048   0.013151  -0.003638
 472   4  -1.928950   7.222138   2.024984   0.000031   0.110168   0.000285
 473  10  -2.185723   6.963949   2.325185   0.000641   0.110168   0.005820
 474  13  -1.145896   7.092253   2.276910   0.000183   0.110168   0.001660
 475  10  -3.013370   7.200330   2.320275   0.001441   0.161797   0.008906
 476   4  -2.851832   7.635985   1.782422   0.000218   0.177026   0.001233
 477  10  -5.196984   7.394631   1.112920   0.001747   0.160407   0.010888
 478  10  -6.034745   6.819052   0.370718   0.002074   0.160407   0.012927
 479   4  -5.357791   7.419338   0.208176   0.001674   0.344679   0.004856
 480   4  -1.622277   7.902844   1.396920  -0.000106   0.061677  -0.001711
 481  11  -1.674630   8.128415   1.205460  -0.000259   0.061677  -0.004193
 482  13  -0.847491   7.753973   1.658467   0.000543   0.061677   0.008805
 483  11  -2.667422   8.396156   1.133622  -0.000593   0.096437  -0.006151
 484   4  -2.446129   8.046042   1.368135  -0.000591   0.117819  -0.005016
 485  11  -4.749666   8.597948  -1.269571  -0.000402   0.068805  -0.005839
 486  11  -4.545641   8.511466  -0.170167  -0.000940   0.153394  -0.006130
 487   4  -4.961721   8.236544  -0.845120  -0.000877   0.150161  -0.005839
 488   4  -4.634148   8.142112   0.344783  -0.000204   0.084060  -0.002421
 489  13  -0.575284   7.583478   2.182615   0.001152   0.161166   0.007147
 490   4  -1.719334   7.622939   1.823848   0.000141   0.178113   0.000789
 491   7  -4.657625   8.581691  -5.485505  -0.000110   0.099536  -0.001108
 492   5  -5.723173   8.019336  -4.679448  -0.000113   0.099536  -0.001138
 493  10  -6.710626   6.141682  -0.160286   0.003341   0.394630   0.008466
 494  10  -7.121609   4.932845  -0.277416   0.003308   0.394630   0.008384
 495   5  -7.231641   5.787694  -1.696323  -0.002793   0.638051  -0.004378
 496  11  -4.823328   8.606302  -1.980982  -0.000197   0.133926  -0.001468
 497   5  -5.870301   7.992987  -2.766259  -0.000340   0.133926  -0.002536
 498   8  -1.600664   3.313097  -9.183884  -0.000780   0.191128  -0.004079
 499   8  -1.949968   2.555018  -8.655735  -0.000791   0.191128  -0.004140
 500   6  -0.781400   2.753082  -8.522223   0.002850   0.459924   0.006197
 501   6   0.543395   1.068459  -5.311679   0.003276   0.200227   0.016362
 502  15   1.227235   1.044410  -4.918456   0.003057   0.200227   0.015269
 503  17  -0.258554   0.663353  -4.948033  -0.001020   0.200227  -0.005095
 504   6   2.988480   4.901584  -7.389415   0.002177   0.213873   0.010177
 505  15   3.679489   4.748971  -7.028394   0.001882   0.213873   0.008801
 506  21   3.564970   5.706182  -7.236841  -0.000295   0.213873  -0.001379
 507  15   2.123941   0.920718  -5.345905   0.004382   0.261323   0.016770
 508  15   2.883997   1.694529  -6.463093   0.008715   0.524024   0.016631
 509  15   3.590553   3.332246  -7.116123   0.007407   0.524024   0.014135
 510   6   1.443353   1.397776  -6.307665   0.008903   0.524024   0.016990
 511   6   2.315149   2.654160  -7.434277   0.008571   0.524024   0.016356
 512   6   2.775862   4.118776  -7.693544   0.003456   0.261323   0.013226
 513  17  -1.932387   0.526875  -6.535199  -0.003087   0.220439  -0.014002
 514  17  -1.178351   0.180639  -5.693787  -0.007193   0.443438  -0.016222
 515   6  -0.647278   1.173433  -6.821625   0.004439   0.541905   0.008191
 516   6   0.131518   0.865354  -5.843712   0.002683   0.272946   0.009830
 517  21   3.363134   6.356405  -7.743104  -0.000983   0.304692  -0.003225
 518  21   2.488920   7.141676  -8.021115  -0.000807   0.304692  -0.002648
 519   6   2.011475   5.665843  -8.065871   0.008794   0.748720   0.011745
 520   7  -0.395794   8.921070  -7.200222   0.000491   0.120805   0.004061
 521  16   0.580446   9.150411  -6.995823   0.000679   0.120805   0.005624
 522  20   0.236689   9.450290  -6.876007   0.001346   0.120805   0.011145
 523  16   0.786189   8.914977  -7.329246   0.000228   0.119566   0.001908
 524   7  -0.671023   8.656411  -7.617066  -0.000130   0.083975  -0.001546
 525  20  -0.208790   9.901280  -6.875375   0.003141   0.293807   0.010691
 526  20  -1.350741  10.535513  -6.156802   0.007587   0.581367   0.013050
 527  20  -2.514380  10.400080  -4.767337   0.007946   0.581367   0.013667
 528   7  -1.477599   9.399541  -7.206857  -0.001311   0.483532  -0.002711
 529   7  -2.718980   9.803229  -6.185451  -0.001378   0.483532  -0.002850
 530   7  -3.439146   9.427634  -5.080204  -0.000329   0.239072  -0.001378
 531  17  -3.222337   0.752521  -6.911034  -0.002226   0.318926  -0.006979
 532   8  -3.080314   1.854837  -7.987104  -0.001045   0.318926  -0.003277
 533  11  -3.857104   8.316471   0.873654  -0.001232   0.312624  -0.003941
 534  10  -4.064026   7.614819   1.729882   0.002538   0.380889   0.006665
 535  10  -1.795468   6.583426   2.756107   0.000388   0.092596   0.004191
 536  13  -0.773007   6.809084   2.789438  -0.000362   0.092596  -0.003912
 537  19  -0.852084   6.594661   3.020795  -0.000775   0.092596  -0.008369
 538  13  -0.807010   7.150624   2.659242   0.000202   0.094093   0.002152
 539  10  -2.279183   6.884285   2.727942   0.000670   0.094093   0.007122
 540  18  -2.889865   1.426838   2.113935  -0.001018   0.084466  -0.012056
 541  18  -3.976211   1.606767   2.707055  -0.002248   0.183757  -0.012231
 542  18  -5.438014   1.999083   2.635296  -0.002439   0.183757  -0.013275
 543  18  -6.500986   2.445152   1.651913  -0.002186   0.183757  -0.011894
 544  18  -6.812735   2.729479   0.474507  -0.000727   0.084466  -0.008611
 545  10  -3.090993   1.831693   2.593887  -0.000982   0.180630  -0.005437
 546  10  -4.631803   2.153120   3.051596  -0.001427   0.180630  -0.007900
 547  10  -6.077869   2.633306   2.447262  -0.001414   0.180630  -0.007828
 548  10  -6.803754   3.064565   1.042266  -0.000987   0.180630  -0.005462
 549  19  -0.960529   6.397533   3.431924  -0.001705   0.224063  -0.007608
 550  19  -1.083939   5.382824   4.038002  -0.005687   0.450674  -0.012618
 551  19  -1.010313   3.938282   4.086444  -0.006396   0.450674  -0.014192
 552  19  -0.695650   2.770061   3.292269  -0.007470   0.450674  -0.016576
 553  10  -2.409822   6.082161   3.450064   0.005755   0.551457   0.010437
 554  10  -2.481398   4.584807   3.983369   0.006895   0.551457   0.012504
 555  10  -2.256308   3.070192   3.551069   0.005221   0.551457   0.009467
 556  10  -1.928199   2.195128   2.654336   0.000880   0.277739   0.003170
 557  11  -0.908285   8.834885   0.295590   0.000316   0.279744   0.001128
 558  13  -0.047859   8.478732   0.722263   0.003889   0.279744   0.013904
 559  20  -0.247800   9.324019  -0.122195   0.004752   0.279744   0.016988
 560  13  -0.214864   8.175195   1.590228   0.003274   0.326156   0.010039
 561  11  -1.521957   8.521204   0.995137  -0.000510   0.262227  -0.001945
 562  20  -2.853168  10.216566  -3.059487   0.004082   0.283964   0.014376
 563  20  -2.207381  10.653729  -1.886467   0.007653   0.562648   0.013601
 564  20  -1.017577  10.348137  -0.677990   0.008573   0.562648   0.015237
 565  11  -3.375234   9.622734  -1.873015  -0.001042   0.465192  -0.002239
 566  11  -2.482332   9.823777  -0.597051  -0.001118   0.465192  -0.002404
 567  11  -1.543325   9.354859   0.161405  -0.000298   0.230548  -0.001294
 568  12   0.472938   0.568594  -3.035644  -0.002635   0.298257  -0.008835
 569  15   1.201027   0.802197  -3.605563   0.001508   0.298257   0.005057
 570  17  -0.284754   0.410808  -3.694789  -0.003998   0.298257  -0.013406
 571  12   2.511636   1.079745  -1.129148  -0.000497   0.087323  -0.005689
 572  15   3.348790   1.128705  -1.565093  -0.000153   0.087323  -0.001753
 573  24   3.530347   1.276543  -1.339596  -0.000825   0.087323  -0.009450
 574  15   3.138430   0.755994  -1.866042   0.001286   0.277123   0.004642
 575  15   2.422260   0.499074  -2.961402   0.005687   0.549794   0.010345
 576  12   1.740515   0.487863  -1.538766  -0.002040   0.451696  -0.004517
 577  12   1.052706   0.347573  -2.542556  -0.000850   0.224305  -0.003790
 578  17  -0.919714  -0.327063  -3.604862  -0.003654   0.237493  -0.015386
 579  17  -1.656700  -0.531579  -2.775272  -0.005846   0.475015  -0.012308
 580  12  -0.206596  -0.033666  -2.313207  -0.003876   0.475015  -0.008160
 581  12  -0.971723  -0.148554  -1.491881  -0.001586   0.237493  -0.006677
 582  18  -2.832143   0.525453   0.556740  -0.003358   0.301697  -0.011131
 583  18  -2.442608   1.021368   1.385774  -0.003153   0.301697  -0.010451
 584  12  -1.251746   0.679765   0.376214  -0.004679   0.603841  -0.007748
 585  19   0.526718   2.062082   2.341102  -0.004077   0.248853  -0.016381
 586  12   0.470320   1.304642   1.203791  -0.002464   0.248853  -0.009900
 587  24   3.671234   1.370496  -0.839055  -0.001920   0.205317  -0.009351
 588  12   2.238989   0.933087  -0.594104  -0.001001   0.205317  -0.004874
 589  13   2.026739   8.773732   0.357008   0.002439   0.132411   0.018417
 590  16   2.240131   9.395256  -0.379738   0.000690   0.132411   0.005212
 591  20   1.850303   9.652451  -0.446401   0.001336   0.132411   0.010087
 592  13   2.564638   8.595282   0.468125   0.001642   0.086657   0.018947
 593  16   2.769316   9.194546  -0.288737   0.000084   0.086657   0.000969
 594  22   3.057308   9.116261  -0.226472  -0.000128   0.086657  -0.001475
 595  16   2.533770   9.374616  -0.200041   0.000172   0.062508   0.002755
 596  13   2.290338   8.584924   0.950072   0.001325   0.056006   0.023654
 597  19   1.510746   2.397024   2.625221  -0.000896   0.079232  -0.011310
 598  19   2.218503   3.101562   3.252877  -0.001877   0.170590  -0.011003
 599  19   2.491655   4.367620   3.866349  -0.002184   0.170590  -0.012805
 600  19   1.970150   5.683764   4.089194  -0.002279   0.170590  -0.013359
 601  19   0.853712   6.545945   3.836068  -0.002052   0.170590  -0.012028
 602  19  -0.208532   6.736041   3.359888  -0.000758   0.079232  -0.009567
 603  13   2.099502   2.623635   2.521040  -0.000958   0.170504  -0.005619
 604  13   2.802974   3.760002   3.307742  -0.000956   0.170504  -0.005607
 605  13   2.661663   5.229252   3.783598  -0.001510   0.170504  -0.008858
 606  13   1.729688   6.468699   3.766369  -0.001425   0.170504  -0.008356
 607  13   0.363973   7.003667   3.262651  -0.000935   0.170504  -0.005485
 608  20   0.385610   9.838375  -0.073494   0.003939   0.323317   0.012184
 609  20   1.387801   9.932631  -0.212760   0.003073   0.323317   0.009504
 610  13   1.167453   8.679386   1.060892   0.009475   0.645633   0.014676
 611  13   4.786750   5.859953   0.122142   0.002703   0.258989   0.010436
 612  22   5.135167   6.454671  -0.612613  -0.001416   0.258989  -0.005466
 613  24   5.285123   5.432713  -0.576808  -0.003561   0.258989  -0.013750
 614  22   3.494380   9.052882  -0.022429  -0.000117   0.249330  -0.000470
 615  22   4.507859   8.254034   0.035840  -0.001287   0.502049  -0.002563
 616  22   5.205768   7.231528  -0.333078  -0.000809   0.249330  -0.003245
 617  13   3.265903   8.090155   1.132427   0.009278   0.614256   0.015104
 618  13   4.435653   6.845242   0.920096   0.008647   0.614256   0.014076
 619  24   5.582576   4.740988  -0.277172  -0.003262   0.224074  -0.014556
 620  24   5.327661   3.614722   0.115117  -0.007262   0.451158  -0.016097
 621  24   4.503822   2.385494   0.009882  -0.007255   0.451158  -0.016082
 622  13   4.803750   4.861436   0.933868   0.006424   0.549488   0.011692
 623  13   4.222928   3.365505   1.218107   0.005705   0.549488   0.010382
 624  13   3.361058   2.398099   0.926567   0.001891   0.276939   0.006829
 625  15   5.725674   5.807006  -5.439740   0.001033   0.060795   0.016985
 626  16   5.654991   6.599617  -5.517796  -0.000015   0.060795  -0.000239
 627  21   5.568008   6.709715  -5.787248  -0.000213   0.060795  -0.003498
 628  15   6.098319   5.909179  -3.266002   0.000011   0.062151   0.000180
 629  16   6.042459   6.706652  -3.246440  -0.000257   0.062151  -0.004143
 630  22   6.046230   6.830485  -2.969843  -0.000437   0.062151  -0.007024
 631  16   6.154554   6.637389  -3.799215   0.000003   0.286344   0.000010
 632  16   5.943682   6.575751  -5.031289   0.000537   0.286344   0.001876
 633  15   6.198112   5.464690  -4.383627   0.005404   0.523992   0.010313
 634  17  -0.574256  -0.021887  -4.564288  -0.003458   0.313997  -0.011013
 635  15   1.627842   0.516076  -4.329854   0.003014   0.416431   0.007237
 636  21   5.506770   6.650137  -6.232104  -0.000399   0.239064  -0.001670
 637  21   4.627183   6.247012  -7.041748  -0.001569   0.481343  -0.003260
 638  15   5.469936   5.160387  -6.162197   0.007372   0.587935   0.012539
 639  15   4.431323   4.748673  -6.963584   0.002758   0.296321   0.009308
 640  15   6.213073   5.422819  -2.952380  -0.000282   0.091534  -0.003084
 641  22   6.020032   6.329506  -2.670335  -0.000666   0.091534  -0.007278
 642  24   6.240445   5.329160  -2.641841  -0.000817   0.091534  -0.008928
 643  22   6.182258   6.871607  -2.737681  -0.000107   0.045728  -0.002345
 644  15   6.363416   5.555728  -3.184881   0.000193   0.056635   0.003406
 645  24   4.272494   1.165644  -1.502900  -0.000921   0.081192  -0.011342
 646  24   5.332768   1.258665  -2.069105  -0.002410   0.175440  -0.013739
 647  24   6.398686   2.091310  -2.627442  -0.002561   0.175440  -0.014598
 648  24   6.814727   3.479551  -2.829712  -0.002290   0.175440  -0.013051
 649  24   6.603793   4.659363  -2.699426  -0.000812   0.081192  -0.010006
 650  15   4.479825   0.984143  -2.088100  -0.001172   0.174335  -0.006723
 651  15   5.822753   1.426780  -2.800465  -0.001681   0.174335  -0.009644
 652  15   6.667946   2.693399  -3.234256  -0.001630   0.174335  -0.009347
 653  15   6.676804   4.276568  -3.215688  -0.001149   0.174335  -0.006592
 654  16   2.824805  10.849944  -1.559955  -0.000255   0.038244  -0.006681
 655  20   2.443697  11.121236  -1.548467  -0.000213   0.038244  -0.005563
 656  23   2.472384  11.383168  -1.732938  -0.000412   0.038244  -0.010777
 657  16   1.754931  10.462629  -6.537457  -0.000238   0.038244  -0.006214
 658  20   1.393972  10.741215  -6.432232  -0.000247   0.038244  -0.006449
 659  23   1.487176  11.026504  -6.316541  -0.000500   0.038244  -0.013085
 660  20   2.070962  10.508945  -0.958780   0.001246   0.199424   0.006250
 661  16   2.756242  10.302589  -1.080035  -0.000138   0.218177  -0.000631
 662  20   1.028732  10.272737  -6.651064   0.000484   0.189997   0.002546
 663  16   1.368117   9.697164  -6.923140   0.000280   0.207870   0.001349
 664  21   3.461588  10.180688  -6.716946  -0.000507   0.068928  -0.007354
 665  21   4.456814   9.987134  -6.259882  -0.000895   0.153023  -0.005849
 666  21   5.407329   9.109505  -5.893371  -0.000680   0.153023  -0.004441
 667  21   5.701641   7.797502  -5.885031  -0.000888   0.153023  -0.005805
 668  16   3.711621  10.363812  -6.206309  -0.001089   0.151103  -0.007205
 669  16   4.995409   9.795533  -5.648922  -0.000699   0.151103  -0.004627
 670  16   5.733823   8.496674  -5.426566  -0.000502   0.151103  -0.003320
 671  16   5.784333   7.274277  -5.525929  -0.000287   0.084211  -0.003412
 672  21   2.052905   8.980431  -7.512899  -0.000475   0.091710  -0.005184
 673  21   2.696716   9.833508  -7.118345  -0.000592   0.091710  -0.006458
 674  16   2.081522   9.515951  -7.072683  -0.001462   0.187480  -0.007796
 675  22   6.190086   7.503192  -2.919364  -0.000458   0.070084  -0.006538
 676  22   6.094384   8.623994  -3.050241  -0.000856   0.156330  -0.005479
 677  22   5.485172   9.792718  -2.684139  -0.000898   0.156330  -0.005742
 678  22   4.528783  10.286152  -1.839788  -0.001117   0.156330  -0.007145
 679  22   3.636826   9.891934  -0.880574  -0.000997   0.156330  -0.006374
 680  16   6.130276   7.855233  -3.403868  -0.000757   0.152925  -0.004948
 681  16   5.768193   9.347267  -3.346564  -0.000688   0.152925  -0.004497
 682  16   4.837449  10.335414  -2.626955  -0.000991   0.152925  -0.006482
 683  16   3.738615  10.394398  -1.554742  -0.001078   0.152925  -0.007049
 684  16   3.016837   9.802403  -0.723666  -0.000269   0.085623  -0.003144
 685  23   2.742737  11.627262  -1.983127  -0.001927   0.179868  -0.010711
 686  23   3.323407  11.870489  -3.156289  -0.006593   0.372237  -0.017713
 687  23   3.233026  11.847867  -4.761830  -0.007085   0.372237  -0.019034
 688  23   2.524770  11.572704  -5.855130  -0.002655   0.179868  -0.014763
 689  16   3.560909  11.005261  -2.253423  -0.003416   0.426390  -0.008011
 690  16   4.013325  11.201784  -3.991178  -0.004642   0.426390  -0.010888
 691  16   3.369086  10.957247  -5.660984  -0.004263   0.426390  -0.009998
 692  23   1.838452  11.300451  -6.255584  -0.001201   0.113176  -0.010609
 693  16   2.149141  10.475297  -6.606097  -0.000771   0.138269  -0.005574
 694  23   1.081249  11.421313  -6.262551  -0.000642   0.083765  -0.007666
 695  23   0.013577  11.892722  -5.829129  -0.001876   0.182171  -0.010298
 696  23  -0.794631  12.384145  -4.653884  -0.002272   0.182171  -0.012473
 697  23  -0.711702  12.589922  -3.161680  -0.002310   0.182171  -0.012678
 698  23   0.226794  12.421791  -1.992554  -0.002023   0.182171  -0.011104
 699  23   1.618314  11.951866  -1.647972  -0.001856   0.182171  -0.010186
 700  20   0.459485  11.210673  -6.248498  -0.000781   0.179137  -0.004360
 701  20  -0.777575  11.816186  -5.372931  -0.000922   0.179137  -0.005145
 702  20  -1.192780  12.215316  -3.845880  -0.001536   0.179137  -0.008573
 703  20  -0.608039  12.236868  -2.322333  -0.001355   0.179137  -0.007563
 704  20   0.725840  11.871596  -1.455772  -0.000851   0.179137  -0.004749
 705  20   1.972654  11.407347  -1.418930  -0.000375   0.095908  -0.003912
 706  23   2.252551  11.361561  -6.198135  -0.000570   0.093956  -0.006066
 707  21   2.910296  10.331995  -6.814781  -0.000356   0.093956  -0.003790
 708  24   6.366944   5.344605  -2.112164  -0.002513   0.318317  -0.007895
 709  24   5.964436   5.319506  -1.063269  -0.003732   0.318317  -0.011725
 710  22   5.923021   6.774539  -1.646322  -0.004308   0.637772  -0.006755
 =====================================================

              7617189  WORDS OF DYNAMIC MEMORY USED
 EXECUTION OF GAMESS TERMINATED NORMALLY Wed Nov 23 17:49:28 2016
 DDI: 263640 bytes (0.3 MB / 0 MWords) used by master data server.

 ----------------------------------------
 CPU timing information for all processes
 ========================================
 0: 7647.160 + 2.776 = 7649.936
 ----------------------------------------
 ddikick.x: exited gracefully.
