----- GAMESS execution script -----

          ******************************************************
          *         GAMESS VERSION =  5 DEC 2014 (R1)          *
          *             FROM IOWA STATE UNIVERSITY             *
          * M.W.SCHMIDT, K.K.BALDRIDGE, J.A.BOATZ, S.T.ELBERT, *
          *   M.S.GORDON, J.H.JENSEN, S.KOSEKI, N.MATSUNAGA,   *
          *          K.A.NGUYEN, S.J.SU, T.L.WINDUS,           *
          *       TOGETHER WITH M.DUPUIS, J.A.MONTGOMERY       *
          *         J.COMPUT.CHEM.  14, 1347-1363(1993)        *
          **************** 64 BIT LINUX VERSION ****************

 EXECUTION OF GAMESS BEGUN Wed Nov 23 17:15:48 2016

            ECHO OF THE FIRST FEW INPUT CARDS -
 INPUT CARD>! SELECT RESTRICTED HARTREE-FOCK AS DEFAULT                                     
 INPUT CARD>$contrl scftyp=rhf $end                                                         
 INPUT CARD>                                                                                
 INPUT CARD>! THEORY: HF OR DFT                                                             
 INPUT CARD> $contrl mplevl=0 $end                                                          
 INPUT CARD>                                                                                
 INPUT CARD> $system timlim=10000 mwords=20 $end                                            
 INPUT CARD> $SCF DIRSCF=.TRUE. $end                                                        
 INPUT CARD>                                                                                
 INPUT CARD>                                                                                
 INPUT CARD>! BASIS SETS                                                                    
 INPUT CARD>! 6-311G(d,p)                                                                   
 INPUT CARD> $BASIS GBASIS=N311 NGAUSS=6 NDFUNC=1 NPFUNC=1 $END                             
 INPUT CARD>                                                                                
 INPUT CARD>! One of the following                                                          
 INPUT CARD> $guess guess=HUCKEL $end                                                       
 INPUT CARD>                                                                                
 INPUT CARD> $statpt projct=.FALSE. $end                                                    
 INPUT CARD> $STATPT IFREEZ(1)=1,2,3 $END                                                   
 INPUT CARD>                                                                                
 INPUT CARD>! Optimize the geometry with COSMO effects                                      
 INPUT CARD> $statpt opttol=0.0005 nstep=50 $end                                            
 INPUT CARD> $contrl nzvar=1 $end                                                           
 INPUT CARD> $zmat dlc=.t. auto=.t. $end                                                    
 INPUT CARD> $contrl runtyp=OPTIMIZE maxit=200 $end                                         
 INPUT CARD>                                                                                
 INPUT CARD>! Run COSMO on perfect conductor                                                
 INPUT CARD> $COSGMS PRFCND=.TRUE. $end                                                     
 INPUT CARD>                                                                                
 INPUT CARD>! Specifying RSOLV                                                              
 INPUT CARD> $COSGMS COSRAD = 1.4 $end                                                      
 INPUT CARD>                                                                                
 INPUT CARD>! available memory                                                              
 INPUT CARD> $SYSTEM MWORDS=40 $END                                                         
 INPUT CARD>                                                                                
 INPUT CARD> $DATA                                                                          
 INPUT CARD>http://cactus.nci.nih.gov/chemical/structure/ALPHA-PINENE/file?format=sdf&get3d=
 INPUT CARD>C1                                                                              
 INPUT CARD>C      6.0     -0.6747000000    0.6247000000    1.6994000000                    
 INPUT CARD>C      6.0     -2.4269000000    0.9701000000   -0.1263000000                    
 INPUT CARD>C      6.0      2.5543000000    1.2381000000   -0.2042000000                    
 INPUT CARD>C      6.0     -0.5312000000   -0.5433000000   -1.5644000000                    
 INPUT CARD>C      6.0      0.2850000000   -1.7986000000    0.4791000000                    
 INPUT CARD>C      6.0      0.0489000000    0.6465000000   -0.7773000000                    
 INPUT CARD>C      6.0     -0.9167000000   -1.1108000000   -0.1830000000                    
 INPUT CARD>C      6.0      1.3838000000    0.2906000000   -0.1463000000                    
 INPUT CARD>C      6.0      1.4787000000   -0.8750000000    0.4512000000                    
 INPUT CARD>C      6.0     -1.0756000000    0.3575000000    0.2472000000                    
 INPUT CARD>H      1.0      0.0111000000    1.6154000000   -1.2751000000                    
 INPUT CARD>H      1.0     -1.8365000000   -1.6955000000   -0.1666000000                    
   40000000 WORDS OF MEMORY AVAILABLE

     BASIS OPTIONS
     -------------
     GBASIS=N311         IGAUSS=       6      POLAR=POPN311 
     NDFUNC=       1     NFFUNC=       0     DIFFSP=       F
     NPFUNC=       1      DIFFS=       F     BASNAM=        


     RUN TITLE
     ---------
 http://cactus.nci.nih.gov/chemical/structure/ALPHA-PINENE/file?format=sdf&get3d=

 THE POINT GROUP OF THE MOLECULE IS C1      
 THE ORDER OF THE PRINCIPAL AXIS IS     0

 ATOM      ATOMIC                      COORDINATES (BOHR)
           CHARGE         X                   Y                   Z
 C           6.0    -1.2749981239        1.1805118245        3.2114003435
 C           6.0    -4.5861759996        1.8332231807       -0.2386723922
 C           6.0     4.8269270904        2.3396697454       -0.3858820467
 C           6.0    -1.0038224447       -1.0266881291       -2.9562873352
 C           6.0     0.5385719065       -3.3988611615        0.9053677207
 C           6.0     0.0924076008        1.2217078511       -1.4688840103
 C           6.0    -1.7323118129       -2.0991076272       -0.3458198558
 C           6.0     2.6150028218        0.5491543720       -0.2764669120
 C           6.0     2.7943378180       -1.6535102393        0.8526443657
 C           6.0    -2.0325892724        0.6755770406        0.4671402642
 H           1.0     0.0209759585        3.0526633606       -2.4095896069
 H           1.0    -3.4704817765       -3.2040304122       -0.3148283496
 H           1.0    -2.6189712464       -0.5370601257       -4.1369881323
 H           1.0     0.4159286899       -2.1412485167       -3.9489603965
 H           1.0     0.0740772587       -3.8597653299        2.8585885016
 H           1.0     0.9871928560       -5.1294722211       -0.1177299290
 H           1.0     4.5455468909       -2.2128691316        1.7391148265
 H           1.0    -1.3844132586        3.2017627410        3.5931249931
 H           1.0    -2.5541536450        0.1732878731        4.4731703855
 H           1.0     0.6530893014        0.5262886876        3.5230161589
 H           1.0    -4.9000594862        1.6211959249       -2.2633248155
 H           1.0    -6.0858625435        0.8694629270        0.7933069696
 H           1.0    -4.5918451776        3.8340650565        0.2511445838
 H           1.0     4.7870538721        3.5812197193        1.2572346996
 H           1.0     6.5826715056        1.2625259324       -0.3900394439
 H           1.0     4.7108979148        3.4702928039       -2.1036429695

          INTERNUCLEAR DISTANCES (ANGS.)




     $CONTRL OPTIONS
     ---------------
 SCFTYP=RHF          RUNTYP=OPTIMIZE     EXETYP=RUN     
 MPLEVL=       0     CITYP =NONE         CCTYP =NONE         VBTYP =NONE    
 DFTTYP=NONE         TDDFT =NONE    
 MULT  =       1     ICHARG=       0     NZVAR =       1     COORD =UNIQUE  
 PP    =NONE         RELWFN=NONE         LOCAL =NONE         NUMGRD=       F
 ISPHER=      -1     NOSYM =       0     MAXIT =     200     UNITS =ANGS    
 PLTORB=       F     MOLPLT=       F     AIMPAC=       F     FRIEND=        
 NPRINT=       7     IREST =       0     GEOM  =INPUT   
 NORMF =       0     NORMP =       0     ITOL  =      20     ICUT  =       9
 INTTYP=BEST         GRDTYP=BEST         QMTTOL= 1.0E-06

     $SYSTEM OPTIONS
     ---------------
  REPLICATED MEMORY=    40000000 WORDS (ON EVERY NODE).
 DISTRIBUTED MEMDDI=           0 MILLION WORDS IN AGGREGATE,
 MEMDDI DISTRIBUTED OVER   1 PROCESSORS IS           0 WORDS/PROCESSOR.
 TOTAL MEMORY REQUESTED ON EACH PROCESSOR=    40000000 WORDS.
 TIMLIM=       10000.00 MINUTES, OR       6.9 DAYS.
 PARALL= F  BALTYP=  DLB     KDIAG=    0  COREFL= F
 MXSEQ2=     300 MXSEQ3=     150  mem10=         0

     $COSGMS OPTIONS
     ---------------
     EPSI  =   INFTY     NSPA  =      92     COSRAD=    1.40
     DISEX =   10.00     OUTCHG=DBLCAV       COSBUG=       F
     COSWRT=       F     DCOSMO=       F

     SYMMETRY COORDINATES WILL NOT BE USED FOR 
     THE COSMO CALCULATION, EVEN IF SPECIFIED:
         -- SWITCHING TO C1 POINT GROUP --


     DEFINITION OF CAVITY
     ---------------------------
     ATOM         COORDINATES           RADIUS 
     1   -1.2750    1.1805    3.2114    2.0000
     2   -4.5862    1.8332   -0.2387    2.0000
     3    4.8269    2.3397   -0.3859    2.0000
     4   -1.0038   -1.0267   -2.9563    2.0000
     5    0.5386   -3.3989    0.9054    2.0000
     6    0.0924    1.2217   -1.4689    2.0000
     7   -1.7323   -2.0991   -0.3458    2.0000
     8    2.6150    0.5492   -0.2765    2.0000
     9    2.7943   -1.6535    0.8526    2.0000
    10   -2.0326    0.6756    0.4671    2.0000
    11    0.0210    3.0527   -2.4096    1.3000
    12   -3.4705   -3.2040   -0.3148    1.3000
    13   -2.6190   -0.5371   -4.1370    1.3000
    14    0.4159   -2.1412   -3.9490    1.3000
    15    0.0741   -3.8598    2.8586    1.3000
    16    0.9872   -5.1295   -0.1177    1.3000
    17    4.5455   -2.2129    1.7391    1.3000
    18   -1.3844    3.2018    3.5931    1.3000
    19   -2.5542    0.1733    4.4732    1.3000
    20    0.6531    0.5263    3.5230    1.3000
    21   -4.9001    1.6212   -2.2633    1.3000
    22   -6.0859    0.8695    0.7933    1.3000
    23   -4.5918    3.8341    0.2511    1.3000
    24    4.7871    3.5812    1.2572    1.3000
    25    6.5827    1.2625   -0.3900    1.3000
    26    4.7109    3.4703   -2.1036    1.3000

          ----------------
          PROPERTIES INPUT
          ----------------

     MOMENTS            FIELD           POTENTIAL          DENSITY
 IEMOM =       1   IEFLD =       0   IEPOT =       0   IEDEN =       0
 WHERE =COMASS     WHERE =NUCLEI     WHERE =NUCLEI     WHERE =NUCLEI  
 OUTPUT=BOTH       OUTPUT=BOTH       OUTPUT=BOTH       OUTPUT=BOTH    
 IEMINT=       0   IEFINT=       0                     IEDINT=       0
                                                       MORB  =       0
          EXTRAPOLATION IN EFFECT
          SOSCF IN EFFECT
 ORBITAL PRINTING OPTION: NPREO=     1   286     2     1

     -------------------------------
     INTEGRAL TRANSFORMATION OPTIONS
     -------------------------------
     NWORD  =            0
     CUTOFF = 1.0E-09     MPTRAN =       0
     DIRTRF =       T     AOINTS =DUP     

          ----------------------
          INTEGRAL INPUT OPTIONS
          ----------------------
 NOPK  =       1 NORDER=       0 SCHWRZ=       T


 -----------------------------------------------
  STATISTICS ON AUTOMATIC COORDINATE GENERATION 
 -----------------------------------------------
  NUMBER OF USER SPECIFIED BONDS                             0
  NUMBER OF BONDS                                           27
  NUMBER OF ANGLES                                          54
  NUMBER OF TORSIONS                                        85
  NUMBER OF EXTRA COORD.                                     0
  NUMBER OF EXTRA COORD. FOR CONSTRAINTS                     0
  NUMBER OF CONSTRAINED COORD.                               0

  TOTAL NUMBER OF PRIMITIVES                               166
 -----------------------------------------------

   --- ENCODED Z MATRIX ---
 COORD  TYPE   I   J   K   L   M   N
    1      1    1  20
    2      1    1  18
    3      1    1  10
    4      1    1  19
    5      1    2  23
    6      1    2  22
    7      1    2  21
    8      1    2  10
    9      1    3  24
   10      1    3  26
   11      1    3  25
   12      1    3   8
   13      1    4  14
   14      1    4  13
   15      1    4   6
   16      1    4   7
   17      1    5   7
   18      1    5   9
   19      1    5  16
   20      1    5  15
   21      1    6  11
   22      1    6   8
   23      1    6  10
   24      1    7  12
   25      1    7  10
   26      1    8   9
   27      1    9  17
   28      2    1  10   7
   29      2    1  10   6
   30      2    1  10   2
   31      2    2  10   6
   32      2    2  10   7
   33      2    3   8   9
   34      2    3   8   6
   35      2    4   7  10
   36      2    4   7   5
   37      2    4   7  12
   38      2    4   6   8
   39      2    4   6  11
   40      2    4   6  10
   41      2    5   9  17
   42      2    5   9   8
   43      2    5   7  10
   44      2    5   7  12
   45      2    6   4  13
   46      2    6   4   7
   47      2    6   8   9
   48      2    6  10   7
   49      2    6   4  14
   50      2    7   4  13
   51      2    7   4  14
   52      2    7   5  15
   53      2    7   5  16
   54      2    7   5   9
   55      2    8   9  17
   56      2    8   6  10
   57      2    8   6  11
   58      2    8   3  25
   59      2    8   3  26
   60      2    8   3  24
   61      2    9   5  15
   62      2    9   5  16
   63      2   10   2  21
   64      2   10   2  22
   65      2   10   1  19
   66      2   10   6  11
   67      2   10   2  23
   68      2   10   7  12
   69      2   10   1  20
   70      2   10   1  18
   71      2   13   4  14
   72      2   15   5  16
   73      2   18   1  19
   74      2   18   1  20
   75      2   19   1  20
   76      2   21   2  22
   77      2   21   2  23
   78      2   22   2  23
   79      2   24   3  25
   80      2   24   3  26
   81      2   25   3  26
   82      3    1  10   7  12
   83      3    1  10   6   8
   84      3    1  10   6  11
   85      3    1  10   6   4
   86      3    1  10   7   5
   87      3    1  10   7   4
   88      3    1  10   2  21
   89      3    1  10   2  22
   90      3    1  10   2  23
   91      3    2  10   1  19
   92      3    2  10   7  12
   93      3    2  10   1  18
   94      3    2  10   7   5
   95      3    2  10   7   4
   96      3    2  10   1  20
   97      3    2  10   6   8
   98      3    2  10   6  11
   99      3    2  10   6   4
  100      3    3   8   6  10
  101      3    3   8   6  11
  102      3    3   8   6   4
  103      3    3   8   9  17
  104      3    3   8   9   5
  105      3    4   6   8   9
  106      3    4   7   5  15
  107      3    4   7   5  16
  108      3    4   7   5   9
  109      3    4   7  10   6
  110      3    4   6  10   7
  111      3    5   7   4   6
  112      3    5   7   4  13
  113      3    5   7   4  14
  114      3    5   7  10   6
  115      3    5   9   8   6
  116      3    6  10   1  20
  117      3    6   4   7  12
  118      3    6  10   7  12
  119      3    6   8   9  17
  120      3    6   4   7  10
  121      3    6  10   2  21
  122      3    6  10   2  22
  123      3    6  10   2  23
  124      3    6   8   3  25
  125      3    6   8   3  26
  126      3    6   8   3  24
  127      3    6  10   1  19
  128      3    6  10   1  18
  129      3    7   4   6   8
  130      3    7  10   2  21
  131      3    7  10   6   8
  132      3    7  10   6  11
  133      3    7  10   2  22
  134      3    7  10   1  19
  135      3    7  10   2  23
  136      3    7  10   1  18
  137      3    7   5   9   8
  138      3    7   5   9  17
  139      3    7   4   6  10
  140      3    7  10   1  20
  141      3    7   4   6  11
  142      3    8   6   4  13
  143      3    8   6   4  14
  144      3    8   9   5  15
  145      3    8   9   5  16
  146      3    9   8   3  24
  147      3    9   8   6  10
  148      3    9   8   6  11
  149      3    9   5   7  12
  150      3    9   5   7  10
  151      3    9   8   3  25
  152      3    9   8   3  26
  153      3   10   7   4  13
  154      3   10   7   4  14
  155      3   10   7   5  15
  156      3   10   7   5  16
  157      3   10   6   4  13
  158      3   10   6   4  14
  159      3   11   6   4  13
  160      3   11   6   4  14
  161      3   12   7   4  13
  162      3   12   7   4  14
  163      3   12   7   5  15
  164      3   12   7   5  16
  165      3   15   5   9  17
  166      3   16   5   9  17

          INDEP./SYM. INTERNAL COORDINATES
          --------------------------------
 CRD  1=  -0.1046 ( 18)  0.2923 ( 22)  0.1280 ( 23)  0.1070 ( 28)  0.1373 ( 31)
          -0.4775 ( 33)  0.5620 ( 34) -0.1287 ( 58)  0.1482 ( 59)  0.1712 ( 83)
           0.1173 ( 85)  0.1086 ( 95)  0.1569 ( 97)  0.1030 ( 99)
 CRD  2=  -0.2739 ( 23) -0.2416 ( 29)  0.1868 ( 30) -0.1085 ( 32)  0.1000 ( 38)
          -0.1855 ( 56) -0.1360 ( 60)  0.1340 ( 65) -0.1626 ( 69)  0.2060 ( 82)
          -0.1152 ( 83)  0.2937 ( 86)  0.2343 ( 87)  0.1357 ( 94)  0.1741 (100)
           0.1669 (102) -0.1331 (104) -0.1436 (129) -0.1212 (131) -0.1227 (142)
          -0.1110 (143)  0.1567 (149)  0.1400 (150)
 CRD  3=   0.1205 ( 12) -0.2773 ( 25) -0.2767 ( 28)  0.2284 ( 30) -0.1475 ( 31)
          -0.1576 ( 33)  0.2059 ( 34) -0.1051 ( 40) -0.1107 ( 43) -0.1010 ( 65)
          -0.1482 ( 69)  0.2027 ( 70) -0.2761 ( 83) -0.2411 ( 84) -0.2533 ( 85)
           0.1001 ( 90) -0.1305 ( 95) -0.1463 (100) -0.1001 (101)  0.1177 (111)
          -0.1712 (147) -0.1251 (148)
 CRD  4=   0.1585 (  3)  0.1759 ( 12) -0.1364 ( 17)  0.1327 ( 18) -0.1712 ( 25)
           0.2053 ( 26) -0.1129 ( 29)  0.2689 ( 30) -0.2706 ( 32)  0.1923 ( 33)
          -0.1116 ( 40) -0.1348 ( 47) -0.2405 ( 63)  0.2057 ( 67) -0.1178 ( 94)
           0.2931 ( 97)  0.1980 ( 98)  0.2841 ( 99)
 CRD  5=   0.1458 (  3) -0.3564 ( 12)  0.1517 ( 17) -0.1561 ( 22) -0.2291 ( 23)
          -0.1650 ( 26)  0.1355 ( 30) -0.1943 ( 31) -0.2454 ( 33)  0.1046 ( 34)
           0.1408 ( 47)  0.1274 ( 52) -0.1059 ( 54) -0.1060 ( 55) -0.1658 ( 58)
          -0.1251 ( 60) -0.1922 ( 63)  0.1881 ( 64)  0.1048 ( 79) -0.1733 ( 92)
          -0.2642 ( 94) -0.2250 ( 95)  0.1087 (135)
 CRD  6=  -0.1157 (  3)  0.2230 (  8)  0.3891 ( 12)  0.1431 ( 15)  0.1694 ( 17)
           0.1526 ( 18)  0.2309 ( 22)  0.1452 ( 25)  0.1406 ( 26) -0.1043 ( 47)
           0.1953 ( 58)  0.1775 ( 59)  0.2152 ( 64) -0.1046 ( 79) -0.1128 ( 81)
          -0.1479 ( 94) -0.1142 ( 95) -0.1219 ( 97)  0.1572 (100)  0.1561 (102)
          -0.1281 (104)  0.1163 (105) -0.1031 (114)  0.1174 (147) -0.1049 (157)
 CRD  7=  -0.6000 (  8)  0.1297 ( 12) -0.1363 ( 17)  0.1363 ( 29)  0.1392 ( 34)
          -0.1007 ( 47)  0.1599 ( 59) -0.1613 ( 63) -0.1123 ( 64) -0.1054 ( 65)
          -0.2129 ( 67)  0.1745 ( 69)  0.1525 ( 76)  0.1696 ( 77)  0.1644 ( 78)
          -0.1089 ( 82)  0.1009 ( 85) -0.1100 ( 86) -0.1760 ( 87) -0.1194 (127)
          -0.1092 (131)  0.1022 (136)
 CRD  8=  -0.6542 (  3) -0.1473 (  8) -0.1055 ( 12) -0.1501 ( 15)  0.1368 ( 17)
          -0.1704 ( 23) -0.1473 ( 25) -0.1215 ( 59) -0.1723 ( 65) -0.1788 ( 69)
          -0.1896 ( 70)  0.1790 ( 73)  0.1806 ( 74)  0.1812 ( 75)  0.1144 (131)
 CRD  9=  -0.1367 ( 12) -0.2003 ( 25) -0.1074 ( 53)  0.2216 ( 58) -0.4218 ( 60)
          -0.2082 ( 64) -0.2782 ( 65)  0.2370 ( 67) -0.1066 ( 68)  0.1892 ( 70)
          -0.1124 ( 86)  0.1224 ( 88) -0.1285 ( 96)  0.1255 (101)  0.1416 (102)
          -0.1321 (103) -0.1759 (104) -0.1214 (115)  0.1211 (152)
 CRD 10=   0.1046 (  3)  0.1805 ( 14)  0.2024 ( 16)  0.4499 ( 17)  0.2254 ( 22)
           0.1358 ( 26)  0.1260 ( 27)  0.1799 ( 36)  0.1348 ( 38) -0.1281 ( 39)
           0.1717 ( 53)  0.1144 ( 58) -0.1044 ( 64)  0.1275 ( 67)  0.1803 ( 69)
           0.1452 ( 85) -0.1339 ( 87)  0.1551 ( 99)  0.1179 (110)  0.1226 (111)
           0.1279 (112)  0.1025 (113) -0.1520 (129) -0.1560 (143)
 CRD 11=  -0.1288 ( 18) -0.1177 ( 19) -0.1138 ( 20)  0.2397 ( 22) -0.1952 ( 25)
          -0.1591 ( 26)  0.1085 ( 35) -0.1851 ( 42)  0.1148 ( 44)  0.2701 ( 54)
           0.1317 ( 55)  0.2494 ( 58) -0.3141 ( 59) -0.1116 ( 61) -0.1058 ( 62)
          -0.1108 ( 63)  0.2714 ( 64)  0.2295 ( 65) -0.1717 ( 67) -0.2197 ( 70)
           0.1294 ( 72)  0.1272 ( 80)  0.1070 (111)
 CRD 12=  -0.1007 (  9) -0.1818 ( 15)  0.1162 ( 16)  0.2210 ( 18) -0.1637 ( 22)
           0.1834 ( 23) -0.1662 ( 25)  0.1660 ( 41) -0.1119 ( 54) -0.2099 ( 55)
           0.1067 ( 58)  0.2559 ( 59) -0.3675 ( 60)  0.1145 ( 61)  0.1241 ( 64)
           0.2908 ( 65) -0.3428 ( 70)  0.1214 ( 74) -0.1187 ( 75) -0.1254 ( 81)
 CRD 13=   0.1402 ( 15) -0.1374 ( 16)  0.3456 ( 18) -0.1013 ( 22) -0.2648 ( 26)
           0.3616 ( 41) -0.3611 ( 55) -0.1008 ( 57) -0.2746 ( 59)  0.2857 ( 60)
           0.1084 ( 62)  0.1196 ( 63) -0.2109 ( 64)  0.1316 ( 67) -0.1108 ( 70)
          -0.1061 ( 79)
 CRD 14=  -0.1725 (  1) -0.2422 (  8)  0.1750 ( 17)  0.1551 ( 23)  0.1465 ( 25)
           0.1625 ( 58) -0.2661 ( 63)  0.2519 ( 65)  0.1064 ( 67) -0.5638 ( 69)
           0.2916 ( 70) -0.2176 ( 73)  0.1098 ( 74)  0.1281 ( 75)  0.1486 ( 76)
 CRD 15=   0.1778 (  3) -0.1336 (  5)  0.1879 (  7) -0.1012 (  8) -0.1072 ( 25)
           0.5560 ( 63) -0.2151 ( 64)  0.1350 ( 65) -0.4392 ( 67) -0.1725 ( 69)
           0.2103 ( 70) -0.1503 ( 73) -0.1346 ( 76)  0.2768 ( 78)
 CRD 16=  -0.1202 (  4)  0.1059 (  6) -0.1500 ( 15) -0.1201 ( 17)  0.1500 ( 18)
          -0.1029 ( 26)  0.1439 ( 41) -0.1994 ( 55)  0.2815 ( 58) -0.2140 ( 59)
           0.1097 ( 61)  0.3357 ( 64) -0.3831 ( 65) -0.2435 ( 67)  0.2927 ( 70)
          -0.1477 ( 74)  0.1313 ( 75) -0.1094 ( 76)  0.1295 ( 77)  0.1052 ( 80)
 CRD 17=  -0.1023 (  6) -0.1505 ( 13) -0.1455 ( 15) -0.3641 ( 16) -0.1451 ( 17)
          -0.1130 ( 23)  0.1609 ( 25)  0.1520 ( 46) -0.1012 ( 51) -0.1611 ( 52)
           0.1416 ( 53)  0.2631 ( 58) -0.2279 ( 60)  0.1329 ( 61) -0.1357 ( 62)
          -0.2357 ( 64)  0.1836 ( 67)  0.1166 ( 68)  0.1223 ( 71) -0.1222 ( 77)
           0.1076 ( 80)  0.1308 (104)  0.1595 (115)  0.1204 (119) -0.1004 (137)
          -0.1061 (142)  0.1096 (155)  0.1222 (156) -0.1014 (157)
 CRD 18=  -0.1086 ( 12) -0.1055 ( 13) -0.2824 ( 16)  0.2047 ( 18) -0.1045 ( 20)
           0.1412 ( 26)  0.2910 ( 27)  0.1519 ( 41) -0.2342 ( 42) -0.1574 ( 52)
           0.1256 ( 54) -0.3417 ( 58)  0.2689 ( 59)  0.1421 ( 64) -0.1010 ( 67)
           0.1496 ( 70)  0.1534 ( 79) -0.1016 (124) -0.1009 (125) -0.1115 (137)
          -0.1076 (151) -0.1069 (152)
 CRD 19=  -0.1089 ( 16)  0.1647 ( 17) -0.2576 ( 18) -0.1836 ( 22)  0.1789 ( 23)
          -0.1090 ( 25) -0.1143 ( 26) -0.2682 ( 27) -0.2304 ( 41)  0.2116 ( 42)
           0.1034 ( 44) -0.1127 ( 51)  0.1900 ( 52)  0.1334 ( 53) -0.1071 ( 54)
          -0.1434 ( 61)  0.1153 ( 66)  0.1258 (105) -0.1271 (124) -0.1261 (125)
          -0.1394 (126) -0.1036 (137) -0.1822 (144) -0.1685 (146) -0.1562 (151)
          -0.1552 (152) -0.1111 (165)
 CRD 20=   0.2362 ( 15) -0.1574 ( 16)  0.1825 ( 17) -0.1275 ( 22)  0.1078 ( 44)
           0.2383 ( 53) -0.1004 ( 57) -0.1723 ( 62)  0.1055 ( 64) -0.1041 ( 67)
           0.1155 (103)  0.1135 (113)  0.1320 (119)  0.2315 (124)  0.2253 (125)
           0.2288 (126)  0.1944 (145)  0.2459 (146)  0.2486 (151)  0.2424 (152)
           0.1106 (166)
 CRD 21=   0.1409 ( 12) -0.2501 ( 15) -0.1080 ( 19) -0.4190 ( 21) -0.1361 ( 23)
           0.1976 ( 24) -0.1794 ( 26) -0.1019 ( 39)  0.1077 ( 40)  0.1128 ( 51)
           0.1187 ( 54)  0.1557 ( 59) -0.1210 ( 62) -0.1003 ( 93) -0.1063 ( 96)
          -0.1152 (102) -0.1106 (105)  0.1139 (111)  0.1357 (112) -0.1031 (114)
           0.1044 (129)  0.1230 (130)  0.1075 (133) -0.1302 (134)  0.1097 (135)
          -0.1314 (136) -0.1374 (140)  0.1224 (142) -0.1129 (154)  0.1112 (156)
          -0.1078 (158)
 CRD 22=  -0.1159 (  8)  0.1446 ( 15)  0.1695 ( 17)  0.2631 ( 21)  0.4967 ( 24)
           0.1348 ( 25)  0.1426 ( 27)  0.1013 ( 39) -0.1006 ( 43)  0.1411 ( 52)
          -0.1097 ( 53) -0.1010 ( 60) -0.1019 ( 61)  0.1516 ( 69)  0.1315 ( 87)
          -0.1375 (144) -0.1050 (152) -0.1516 (153) -0.1408 (154)
 CRD 23=   0.1184 (  2)  0.1307 ( 13)  0.2441 ( 15) -0.2915 ( 21) -0.1118 ( 22)
          -0.1721 ( 23) -0.1398 ( 24) -0.1180 ( 27) -0.1192 ( 46)  0.1030 ( 51)
           0.1346 ( 52) -0.1136 ( 53) -0.1180 ( 66)  0.1246 ( 84) -0.1406 ( 88)
          -0.1444 ( 89) -0.1394 ( 90) -0.1716 (101) -0.1266 (102) -0.1129 (105)
          -0.1240 (124) -0.1573 (125) -0.1423 (126) -0.1566 (146) -0.1579 (148)
          -0.1383 (151) -0.1716 (152) -0.1308 (157) -0.1129 (158)
 CRD 24=   0.1471 ( 13) -0.2933 ( 14) -0.1674 ( 15) -0.1809 ( 16)  0.2317 ( 17)
          -0.1689 ( 23) -0.1059 ( 24) -0.1477 ( 25)  0.1471 ( 44) -0.1194 ( 45)
           0.1262 ( 49)  0.1513 ( 57)  0.1132 ( 58) -0.1397 ( 68)  0.1490 ( 82)
          -0.1316 ( 84)  0.1248 ( 92) -0.1059 ( 98)  0.1047 (109) -0.1081 (110)
          -0.1453 (111) -0.2265 (117)  0.1687 (118) -0.1061 (120)  0.1015 (129)
          -0.1441 (132)  0.1014 (139)  0.1693 (141)  0.1214 (160)
 CRD 25=   0.1401 (  5) -0.1074 (  6) -0.1236 (  9) -0.1440 ( 13)  0.1552 ( 14)
          -0.1794 ( 21)  0.1015 ( 50)  0.1076 ( 59)  0.1129 ( 89)  0.1179 ( 90)
           0.2580 ( 91)  0.2573 ( 93)  0.2439 ( 96)  0.2418 (116)  0.1274 (122)
           0.1324 (123)  0.2559 (127)  0.2552 (128)  0.1274 (133)  0.2298 (134)
           0.1324 (135)  0.2291 (136)  0.2158 (140) -0.1043 (141)
 CRD 26=   0.1792 (  4)  0.1108 (  9)  0.1505 ( 10)  0.1479 ( 11)  0.2956 ( 13)
          -0.1479 ( 14)  0.1473 ( 15)  0.1387 ( 19) -0.1822 ( 20)  0.1893 ( 24)
           0.1049 ( 51) -0.1237 ( 52)  0.1328 ( 53)  0.1467 ( 88)  0.1488 ( 89)
           0.1615 ( 90) -0.1039 (101)  0.1581 (121)  0.1602 (122)  0.1729 (123)
           0.1444 (130)  0.1465 (133)  0.1591 (135)  0.1130 (141)  0.1025 (145)
          -0.1226 (148)
 CRD 27=  -0.1558 (  1) -0.1824 (  2) -0.1650 (  4)  0.3783 (  9)  0.2933 ( 10)
           0.2964 ( 11) -0.1004 ( 16) -0.2397 ( 19)  0.3186 ( 20) -0.1078 ( 21)
          -0.1592 ( 58) -0.1640 ( 59) -0.1005 ( 60)  0.1173 ( 79)  0.1212 ( 80)
           0.1852 ( 81)  0.1031 ( 92) -0.1013 (103)  0.1180 (138) -0.1256 (149)
 CRD 28=  -0.1123 (  4) -0.1639 (  6)  0.1617 (  9)  0.1809 ( 10)  0.1857 ( 11)
           0.2065 ( 19) -0.2796 ( 20) -0.1865 ( 21)  0.2893 ( 24) -0.1382 ( 61)
           0.1221 ( 62) -0.1702 ( 88) -0.1542 ( 89) -0.1541 ( 90)  0.1105 ( 96)
          -0.1354 (106) -0.1291 (107) -0.1556 (121) -0.1397 (122) -0.1395 (123)
          -0.1665 (130) -0.1505 (133) -0.1504 (135) -0.1169 (138)  0.1247 (149)
 CRD 29=  -0.1779 (  1) -0.2180 (  2) -0.1838 (  4)  0.4000 (  5)  0.4216 (  6)
           0.4100 (  7)  0.1146 (  8)  0.1124 ( 10)  0.1094 ( 11)  0.1582 ( 19)
          -0.1268 ( 20) -0.1133 ( 24) -0.1629 ( 63) -0.1544 ( 64) -0.1634 ( 67)
           0.1568 ( 76)  0.1652 ( 77)  0.1587 ( 78)
 CRD 30=   0.4077 (  1)  0.3538 (  2)  0.1284 (  3)  0.3778 (  4)  0.1176 (  5)
           0.1306 (  6)  0.1232 (  7)  0.1472 (  9)  0.2044 ( 10)  0.2083 ( 11)
          -0.1138 ( 24)  0.1158 ( 52) -0.1048 ( 53) -0.1082 ( 60) -0.1371 ( 65)
          -0.1288 ( 69) -0.1458 ( 70)  0.1463 ( 73)  0.1370 ( 74)  0.1284 ( 75)
          -0.1343 (144) -0.1298 (145) -0.1109 (165) -0.1063 (166)
 CRD 31=  -0.1460 (  1) -0.2043 (  2) -0.2435 (  5) -0.1492 (  6) -0.2142 (  7)
           0.1017 ( 10)  0.1021 ( 11)  0.1402 ( 19)  0.1240 ( 21) -0.1874 ( 24)
           0.1533 ( 52) -0.1423 ( 53) -0.1133 ( 60) -0.1589 ( 61)  0.1746 ( 62)
           0.1244 ( 88)  0.1152 ( 89)  0.1131 ( 90) -0.1044 (101)  0.1467 (103)
           0.1604 (104)  0.1016 (115)  0.1146 (121)  0.1054 (122)  0.1033 (123)
           0.1365 (124)  0.1039 (126)  0.1118 (130)  0.1027 (133)  0.1005 (135)
          -0.1045 (137) -0.1843 (144) -0.1815 (145) -0.1705 (165) -0.1677 (166)
 CRD 32=  -0.1333 (  5) -0.1242 (  6) -0.1096 (  8)  0.1432 (  9)  0.1369 ( 10)
           0.1469 ( 11)  0.1453 ( 12) -0.1532 ( 13)  0.3834 ( 14)  0.1454 ( 19)
          -0.2038 ( 24)  0.1748 ( 50) -0.1299 ( 51) -0.1271 ( 52)  0.1260 ( 53)
           0.1015 ( 61) -0.1065 ( 62) -0.1203 (112) -0.1177 (113)  0.2125 (142)
           0.2125 (143)  0.1036 (144)  0.1046 (145) -0.1018 (152)  0.1864 (157)
           0.1864 (158)  0.1649 (159)  0.1649 (160)  0.1209 (165)  0.1219 (166)
 CRD 33=   0.4981 ( 10) -0.5247 ( 11) -0.3452 ( 79)  0.3673 ( 80) -0.1160 (124)
          -0.1390 (125)  0.2606 (126)  0.2571 (146) -0.1195 (151) -0.1425 (152)
 CRD 34=   0.5631 (  9) -0.3109 ( 10) -0.2498 ( 11)  0.1176 ( 13) -0.1035 ( 19)
           0.2225 ( 79)  0.1821 ( 80) -0.4049 ( 81)  0.2480 (124) -0.1958 (125)
           0.2248 (151) -0.2190 (152)
 CRD 35=  -0.1770 (  9)  0.1034 ( 10)  0.1441 ( 11)  0.3919 ( 13) -0.1014 ( 17)
          -0.4139 ( 19) -0.1953 ( 45)  0.1667 ( 49)  0.1058 ( 50) -0.1161 ( 51)
           0.1425 (106)  0.1146 (107)  0.1870 (112)  0.1516 (113) -0.1129 (144)
           0.2045 (153)  0.1691 (154)  0.1604 (155)  0.1325 (156)  0.1016 (158)
           0.1980 (161)  0.1626 (162)  0.1518 (163)  0.1239 (164)
 CRD 36=   0.4376 ( 13)  0.4053 ( 14)  0.4237 ( 19)  0.4250 ( 20) -0.1062 ( 50)
           0.1600 ( 71)  0.1552 ( 72) -0.1099 (145)  0.1012 (156) -0.1009 (159)
 CRD 37=   0.3246 (  1) -0.1423 (  2) -0.1531 (  4)  0.1228 (  5)  0.2171 (  6)
          -0.3496 (  7)  0.1779 ( 13)  0.2890 ( 14) -0.2249 ( 19) -0.3591 ( 20)
          -0.1046 ( 49)  0.1123 ( 71) -0.1371 ( 72) -0.1667 ( 73) -0.1068 ( 77)
           0.1710 ( 78)  0.1073 ( 90) -0.1095 (113)  0.1029 (123)  0.1075 (135)
           0.1057 (136) -0.1019 (154) -0.1124 (162)
 CRD 38=   0.4148 (  1) -0.2345 (  2) -0.1875 (  4) -0.3170 (  5) -0.1516 (  6)
           0.4635 (  7) -0.2261 ( 73)  0.1018 ( 74)  0.1263 ( 75)  0.1716 ( 76)
          -0.2523 ( 78)  0.1517 ( 89) -0.1158 ( 90) -0.1212 ( 91)  0.1188 ( 93)
           0.1549 (122) -0.1126 (123) -0.1246 (127)  0.1154 (128)  0.1471 (133)
          -0.1175 (134) -0.1204 (135)  0.1225 (136)
 CRD 39=  -0.2890 (  1)  0.3905 (  2) -0.3626 (  5)  0.1916 (  6)  0.1771 (  7)
           0.2049 ( 13)  0.2340 ( 14) -0.1026 ( 19) -0.1718 ( 20)  0.1131 ( 71)
           0.1576 ( 73) -0.2146 ( 75)  0.2050 ( 76) -0.1018 ( 77) -0.1049 ( 78)
           0.1250 ( 89)  0.1562 ( 91)  0.1214 (122)  0.1575 (127)  0.1190 (133)
           0.1521 (134)
 CRD 40=   0.1979 (  1)  0.3229 (  2) -0.5373 (  4)  0.1414 (  6) -0.1376 (  7)
          -0.1064 ( 13) -0.1617 ( 14)  0.1552 ( 19)  0.2094 ( 20) -0.1121 ( 73)
           0.2976 ( 74) -0.1808 ( 75)  0.1496 ( 93) -0.1657 ( 96) -0.1675 (116)
           0.1478 (128)  0.1501 (136) -0.1652 (140)
 CRD 41=   0.2485 (  2) -0.1971 (  4)  0.3748 (  5) -0.5115 (  6)  0.1343 (  7)
           0.1058 ( 14) -0.1005 ( 19) -0.1517 ( 20)  0.1093 ( 74) -0.1367 ( 75)
          -0.2093 ( 76)  0.2915 ( 77)  0.2036 ( 88) -0.1059 ( 90) -0.1280 ( 96)
          -0.1008 (116)  0.1862 (121) -0.1233 (123)  0.1845 (130) -0.1250 (135)
          -0.1020 (140)
 CRD 42=   0.1589 ( 16) -0.1176 ( 21)  0.1478 ( 23) -0.1141 ( 25)  0.1964 ( 45)
           0.1617 ( 51)  0.1242 ( 61) -0.1380 ( 71)  0.2620 (106)  0.1922 (107)
           0.1412 (108) -0.2558 (112) -0.1365 (113) -0.1270 (137) -0.1227 (143)
          -0.1591 (144) -0.1015 (145)  0.1170 (149) -0.1730 (153)  0.2157 (155)
           0.1459 (156) -0.1111 (158) -0.1606 (160) -0.2161 (161)  0.2378 (163)
           0.1679 (164) -0.1255 (165)
 CRD 43=  -0.1881 (  9) -0.2445 ( 10) -0.1040 ( 11) -0.2398 ( 12) -0.1109 ( 13)
           0.2764 ( 18) -0.3630 ( 21)  0.1022 ( 26)  0.1811 ( 34) -0.3070 ( 41)
           0.1015 ( 42) -0.1569 ( 47)  0.2055 ( 55) -0.1792 ( 59) -0.1226 ( 60)
          -0.1175 ( 72)  0.1608 ( 80)  0.1118 ( 81)  0.1527 (142)  0.1523 (143)
           0.1296 (159)  0.1292 (160)
 CRD 44=   0.1987 ( 11)  0.1520 ( 13) -0.1798 ( 14) -0.2584 ( 21) -0.3504 ( 22)
          -0.1469 ( 24)  0.1364 ( 26)  0.5516 ( 27) -0.1910 ( 33)  0.1219 ( 34)
           0.1118 ( 39)  0.1060 ( 55) -0.1326 ( 57)  0.1737 ( 58) -0.1350 ( 79)
           0.1293 (132) -0.1066 (141) -0.1164 (159)
 CRD 45=   0.2218 (  1) -0.1221 (  5) -0.1523 (  6) -0.2128 (  7) -0.1210 ( 11)
           0.1794 ( 13) -0.2181 ( 14)  0.1333 ( 17) -0.1140 ( 21)  0.3299 ( 22)
          -0.1985 ( 24) -0.2623 ( 27) -0.1056 ( 29) -0.1027 ( 58) -0.1826 ( 63)
          -0.1424 ( 64) -0.1284 ( 67)  0.1765 ( 69) -0.1513 ( 74) -0.1593 ( 75)
           0.1847 ( 76)  0.1583 ( 77)  0.1103 ( 78) -0.1376 (118)
 CRD 46=  -0.1727 (  2) -0.1874 (  4) -0.1029 (  6)  0.1501 ( 13)  0.2031 ( 19)
          -0.2078 ( 20)  0.1215 ( 23) -0.1839 ( 24)  0.1466 ( 25) -0.1242 ( 39)
          -0.1555 ( 65)  0.1164 ( 66)  0.1003 ( 68) -0.1486 ( 70)  0.2064 ( 73)
           0.1042 ( 75)  0.1290 ( 78)  0.1189 ( 82) -0.1208 ( 84)  0.1137 (101)
          -0.1086 (103)  0.1026 (117) -0.1836 (119) -0.1263 (132)  0.1923 (138)
          -0.1222 (141)  0.1886 (148) -0.1567 (149) -0.1557 (160) -0.1384 (163)
          -0.1023 (164)  0.1331 (165)  0.1695 (166)
 CRD 47=   0.1402 (  2) -0.1000 (  4)  0.1516 (  5) -0.1277 ( 17)  0.1794 ( 18)
           0.3093 ( 21) -0.3809 ( 24) -0.1798 ( 26)  0.2560 ( 27)  0.1026 ( 44)
          -0.1450 ( 47) -0.1140 ( 74) -0.1292 ( 77) -0.1515 ( 88)  0.1563 ( 96)
          -0.1092 ( 97) -0.1027 (106)  0.1199 (112)  0.1201 (142) -0.1272 (162)
 CRD 48=  -0.1022 (  2) -0.1247 ( 10) -0.2019 ( 11)  0.1807 ( 12) -0.2410 ( 18)
          -0.1767 ( 21)  0.2419 ( 26)  0.2156 ( 27)  0.1512 ( 33)  0.2679 ( 41)
           0.1080 ( 42) -0.1255 ( 47) -0.3759 ( 55) -0.1455 ( 58) -0.1508 ( 59)
          -0.1304 ( 60) -0.1326 ( 61) -0.1125 ( 62)  0.1506 ( 79)  0.1829 ( 81)
          -0.1063 (106) -0.1030 (155) -0.1022 (165)
 CRD 49=  -0.1249 (  1) -0.1581 (  2)  0.2482 (  3) -0.1896 (  4) -0.1413 (  5)
          -0.1524 (  6)  0.1791 (  8)  0.1867 (  9) -0.1475 ( 19)  0.1438 ( 20)
           0.1268 ( 23)  0.1245 ( 55) -0.1123 ( 63) -0.1304 ( 64) -0.1779 ( 65)
          -0.1209 ( 67) -0.1515 ( 69) -0.1744 ( 70)  0.1931 ( 73)  0.1420 ( 74)
           0.1687 ( 75)  0.1771 ( 78) -0.1115 ( 79) -0.1028 ( 80)  0.1016 (103)
           0.2102 (119) -0.1230 (124) -0.1958 (138) -0.1046 (148) -0.1276 (165)
          -0.1601 (166)
 CRD 50=   0.2246 ( 10) -0.1729 ( 12) -0.1622 ( 17)  0.1099 ( 18)  0.1068 ( 20)
           0.2029 ( 22) -0.4831 ( 26)  0.3375 ( 27)  0.1554 ( 33) -0.1074 ( 34)
          -0.1275 ( 41)  0.1387 ( 42)  0.1367 ( 52)  0.1424 ( 53)  0.1104 ( 57)
           0.1219 ( 59) -0.1518 ( 72) -0.1912 ( 80) -0.1093 (144)  0.1165 (145)
          -0.1040 (165)  0.1218 (166)
 CRD 51=   0.1119 (  3)  0.1525 (  5)  0.1705 (  6)  0.2194 (  7) -0.4619 (  8)
           0.1692 ( 13) -0.2233 ( 14)  0.1218 ( 17) -0.1450 ( 21)  0.1694 ( 22)
          -0.1510 ( 24) -0.1702 ( 27)  0.1912 ( 63)  0.2036 ( 64)  0.2056 ( 67)
          -0.2246 ( 76) -0.2092 ( 77) -0.1666 ( 78)
 CRD 52=  -0.1399 (  1)  0.2927 (  3) -0.2148 (  9)  0.4512 ( 12) -0.1097 ( 15)
          -0.1118 ( 16)  0.1391 ( 21) -0.2082 ( 23)  0.1442 ( 24) -0.1524 ( 25)
          -0.2410 ( 26)  0.1191 ( 55) -0.1513 ( 58) -0.1373 ( 59) -0.1243 ( 60)
           0.1064 ( 62)  0.1205 ( 74)  0.1075 ( 75)  0.1812 ( 79)  0.1628 ( 80)
           0.1097 (163)
 CRD 53=  -0.1495 (  1)  0.3368 (  3)  0.1022 (  5) -0.1534 (  7) -0.1669 (  9)
           0.1647 ( 10)  0.2042 ( 11) -0.2792 ( 12)  0.1880 ( 26)  0.1204 ( 60)
          -0.1182 ( 61)  0.1179 ( 74)  0.1236 ( 75) -0.1083 ( 78) -0.2481 ( 81)
          -0.1224 (119)  0.1453 (122)  0.1716 (124)  0.1254 (149) -0.1578 (152)
           0.1351 (164)  0.1346 (166)
 CRD 54=  -0.1402 (  2) -0.1358 (  3)  0.1952 (  4) -0.1733 (  5)  0.1062 (  6)
          -0.1084 (  9)  0.1056 ( 12)  0.1494 ( 15)  0.1560 ( 18) -0.1910 ( 19)
           0.1243 ( 20) -0.1407 ( 23) -0.1354 ( 24)  0.2959 ( 25) -0.1018 ( 61)
           0.1038 ( 74) -0.1617 ( 75) -0.1339 ( 76)  0.1025 ( 80) -0.1241 ( 96)
          -0.1438 (122)  0.1217 (127)  0.1280 (128) -0.1048 (133)  0.1107 (134)
           0.1171 (136)  0.1168 (148)  0.1207 (149) -0.1155 (152) -0.1333 (154)
          -0.1197 (158) -0.1373 (160) -0.1671 (162)
 CRD 55=   0.1185 (  1) -0.1104 (  3) -0.1229 (  6)  0.1418 (  7) -0.2264 (  9)
           0.2270 ( 10)  0.1162 ( 17) -0.1774 ( 18) -0.2131 ( 19)  0.1675 ( 20)
           0.1598 ( 23)  0.1392 ( 27)  0.1146 ( 42) -0.1739 ( 52)  0.1777 ( 62)
          -0.1132 ( 74) -0.1303 ( 77)  0.1633 ( 79) -0.1662 ( 81) -0.1301 (107)
           0.1055 (123)  0.1571 (124)  0.1562 (135) -0.1415 (136)  0.2066 (144)
          -0.1290 (146)  0.1172 (151) -0.1289 (152) -0.1660 (156) -0.1068 (164)
           0.1263 (165)
 CRD 56=   0.1158 (  1) -0.1733 (  2)  0.1849 (  3)  0.1532 (  6) -0.1254 (  7)
          -0.1982 (  8) -0.1573 ( 11)  0.1467 ( 17) -0.1232 ( 18) -0.1641 ( 20)
           0.1199 ( 25)  0.1472 ( 27) -0.1104 ( 41)  0.1590 ( 42) -0.1034 ( 45)
          -0.1732 ( 53)  0.1346 ( 61)  0.1398 ( 72)  0.1483 ( 73) -0.1602 ( 78)
          -0.1326 ( 80) -0.1087 ( 90)  0.1119 ( 91)  0.1196 (112) -0.1035 (123)
           0.1065 (125)  0.1396 (127)  0.1092 (134) -0.1534 (135) -0.2008 (145)
           0.1091 (152)  0.1232 (153) -0.1375 (158)  0.1455 (165) -0.1529 (166)
 CRD 57=  -0.2657 (  1)  0.1620 (  2)  0.1390 (  4)  0.2032 (  8)  0.1806 ( 10)
          -0.2039 ( 11)  0.1220 ( 13) -0.1563 ( 14)  0.1379 ( 17) -0.1056 ( 49)
           0.1151 ( 58) -0.2321 ( 73)  0.1039 ( 75)  0.1138 ( 79) -0.1663 ( 80)
          -0.1590 ( 91)  0.1529 ( 93)  0.1015 (125) -0.1522 (126) -0.2068 (127)
           0.1052 (128) -0.1123 (134)  0.1997 (136) -0.1535 (146)  0.1002 (152)
          -0.1657 (154)  0.1487 (157) -0.1245 (162)
 CRD 58=  -0.1449 ( 10)  0.1572 ( 11) -0.2429 ( 12)  0.2027 ( 13) -0.2334 ( 16)
          -0.2498 ( 18)  0.1235 ( 20)  0.1251 ( 21)  0.1166 ( 22) -0.1580 ( 23)
           0.1307 ( 27)  0.1875 ( 33)  0.1408 ( 42) -0.2028 ( 47)  0.1683 ( 50)
          -0.1850 ( 55) -0.1104 ( 57)  0.1297 ( 59)  0.1032 ( 62) -0.1402 ( 71)
          -0.1678 ( 79) -0.1241 (124)  0.2314 (142)  0.1007 (148) -0.1306 (151)
          -0.1039 (156)  0.1331 (157) -0.1315 (160) -0.1026 (164)
 CRD 59=  -0.2251 ( 10)  0.2615 ( 11) -0.1049 ( 14)  0.1635 ( 16)  0.1509 ( 17)
          -0.1387 ( 20)  0.1476 ( 22) -0.2054 ( 26)  0.1330 ( 27)  0.1966 ( 33)
          -0.1822 ( 34) -0.1029 ( 41)  0.1461 ( 42) -0.1246 ( 53) -0.1642 ( 58)
           0.1441 ( 59)  0.1031 ( 61)  0.1489 ( 71) -0.1635 ( 79)  0.1912 ( 80)
          -0.1025 (125)  0.2315 (126) -0.1258 (142) -0.1461 (145)  0.2398 (146)
           0.1072 (158)  0.1388 (160) -0.1065 (166)
 CRD 60=  -0.1169 (  6)  0.1971 (  7) -0.1693 ( 13) -0.1835 ( 18)  0.1883 ( 19)
           0.1360 ( 26)  0.1006 ( 35) -0.1453 ( 45)  0.1673 ( 71) -0.1789 ( 72)
           0.1494 ( 78) -0.1259 ( 89)  0.1139 ( 90) -0.1027 (101)  0.1983 (106)
           0.2068 (112) -0.1381 (122)  0.1017 (123) -0.1039 (133)  0.1359 (135)
           0.1075 (138) -0.1457 (144)  0.1877 (153) -0.1131 (154)  0.1020 (155)
          -0.1010 (156)  0.2104 (161)  0.2025 (163)  0.1173 (166)
 CRD 61=   0.1148 (  2) -0.1669 (  4) -0.2504 (  5)  0.2445 (  6) -0.1524 (  9)
           0.1122 ( 10) -0.1312 ( 15)  0.1011 ( 60) -0.1090 ( 64)  0.1118 ( 67)
          -0.1285 ( 74) -0.1928 ( 76)  0.1902 ( 77) -0.1258 ( 81) -0.1024 ( 83)
           0.2221 ( 88)  0.1923 ( 96) -0.1178 ( 97)  0.1293 (100) -0.1203 (104)
           0.1626 (116)  0.1880 (121) -0.1177 (122) -0.1105 (123) -0.1175 (125)
           0.2044 (130)  0.1049 (132) -0.1014 (133)  0.1440 (140)  0.1466 (151)
          -0.1025 (165)
 CRD 62=   0.1980 (  2) -0.2190 (  4)  0.1001 (  6)  0.1804 (  9) -0.1110 ( 10)
           0.1499 ( 15)  0.1104 ( 20) -0.1141 ( 60) -0.1075 ( 68) -0.1677 ( 74)
           0.1539 ( 75)  0.1337 ( 81)  0.1528 ( 88)  0.1706 ( 96) -0.1396 (100)
          -0.1094 (102)  0.1617 (104)  0.1576 (116) -0.1326 (117)  0.1278 (121)
           0.1486 (125) -0.1100 (128)  0.1211 (130) -0.1085 (136)  0.1591 (140)
          -0.1034 (141)  0.1579 (149) -0.1739 (151) -0.1242 (159) -0.1235 (162)
           0.1011 (163)  0.1040 (165)  0.1660 (166)
 CRD 63=  -0.1260 (  5)  0.1585 (  7) -0.2061 ( 15)  0.1464 ( 17)  0.1279 ( 18)
          -0.1405 ( 19)  0.1735 ( 21) -0.1153 ( 23) -0.1042 ( 30)  0.1158 ( 37)
           0.1024 ( 38) -0.1195 ( 44)  0.1321 ( 45) -0.1152 ( 54)  0.1792 ( 72)
           0.1222 ( 78) -0.1411 ( 89)  0.1096 ( 94) -0.1437 ( 97) -0.1397 (102)
          -0.1549 (106) -0.1304 (112) -0.1166 (118) -0.1076 (122)  0.1032 (123)
           0.1090 (125) -0.1345 (133)  0.1611 (143) -0.1035 (145) -0.1092 (153)
          -0.1522 (155) -0.1101 (157)  0.1545 (164)  0.1792 (165)
 CRD 64=   0.1009 (  7) -0.1271 ( 15) -0.2490 ( 17)  0.1278 ( 18) -0.1132 ( 21)
           0.2663 ( 22)  0.1396 ( 24)  0.1001 ( 36) -0.1128 ( 37)  0.1760 ( 39)
           0.1068 ( 43) -0.1222 ( 57)  0.1130 ( 66) -0.1362 ( 68)  0.1382 ( 82)
           0.1679 ( 84)  0.1846 ( 92)  0.1064 ( 94)  0.1314 ( 98) -0.1042 (111)
           0.1041 (114) -0.1980 (117)  0.1822 (118)  0.2282 (132) -0.1817 (141)
          -0.1083 (143) -0.1969 (160) -0.1549 (161) -0.1197 (162)
 CRD 65=  -0.1742 (  1)  0.1124 (  2)  0.1151 (  3)  0.1014 (  7) -0.1661 (  8)
           0.2767 ( 14) -0.1523 ( 16)  0.1224 ( 17) -0.1102 ( 36)  0.1079 ( 37)
           0.1250 ( 49)  0.1884 ( 51)  0.1046 ( 69) -0.1653 ( 71) -0.1167 ( 73)
           0.1028 ( 75) -0.1280 ( 84) -0.1725 ( 85)  0.1701 ( 87) -0.1338 ( 91)
           0.1415 ( 95) -0.1291 ( 99)  0.1617 (113)  0.1488 (128) -0.1609 (134)
          -0.2024 (143)  0.1647 (154) -0.2177 (158) -0.1714 (160)  0.2241 (162)
 CRD 66=   0.1294 (  4)  0.1058 (  6) -0.1218 ( 13) -0.1446 ( 15)  0.2371 ( 16)
           0.1187 ( 22)  0.1009 ( 30)  0.1374 ( 40)  0.1502 ( 49) -0.1382 ( 50)
          -0.1586 ( 57)  0.1589 ( 82)  0.1219 ( 87) -0.1633 ( 90)  0.1755 ( 93)
          -0.1293 ( 94) -0.1443 (102) -0.1076 (105) -0.1110 (107) -0.1264 (123)
           0.1256 (128)  0.1047 (129)  0.1036 (132) -0.1188 (140) -0.1297 (141)
           0.1788 (143) -0.1605 (157) -0.3097 (159) -0.1364 (164)
 CRD 67=   0.1511 ( 13) -0.1264 ( 15) -0.1367 ( 18)  0.1300 ( 20) -0.1259 ( 24)
          -0.1274 ( 35)  0.1723 ( 44)  0.1138 ( 45)  0.1322 ( 46)  0.1306 ( 54)
          -0.1294 ( 71) -0.1365 ( 72) -0.1191 ( 89)  0.1120 ( 91) -0.1169 (101)
          -0.2546 (107)  0.1606 (111)  0.1947 (113) -0.1024 (119)  0.1045 (121)
          -0.1095 (129)  0.1096 (150) -0.1474 (153)  0.1542 (155)  0.1899 (159)
          -0.2645 (161)  0.1232 (163)  0.1641 (166)
 CRD 68=   0.1441 (  3) -0.1286 (  8)  0.1290 ( 15)  0.1045 ( 16) -0.1443 ( 17)
           0.1072 ( 19) -0.1311 ( 22) -0.1087 ( 28) -0.1169 ( 29)  0.1283 ( 31)
           0.1003 ( 32) -0.1758 ( 39) -0.1128 ( 51)  0.1380 ( 56) -0.1087 ( 68)
           0.1152 ( 82) -0.2108 ( 84)  0.1417 ( 92) -0.2176 ( 98)  0.1669 (101)
          -0.1177 (108) -0.1389 (109)  0.1320 (110)  0.1357 (119)  0.1308 (123)
           0.1136 (131) -0.1110 (133)  0.1394 (137) -0.1319 (139)  0.1563 (143)
           0.1195 (148) -0.1100 (157) -0.1323 (161) -0.1397 (162)  0.1007 (163)
          -0.1796 (165) -0.1338 (166)
 CRD 69=  -0.1506 (  8) -0.1228 ( 19) -0.1117 ( 22)  0.1884 ( 23)  0.1154 ( 24)
          -0.1418 ( 37)  0.1004 ( 38)  0.1563 ( 43) -0.1255 ( 49)  0.1088 ( 53)
          -0.1025 ( 61) -0.1578 ( 66)  0.1805 ( 82) -0.1345 ( 83) -0.1601 (101)
           0.1007 (104)  0.1861 (108) -0.1070 (109)  0.1129 (110) -0.1993 (113)
          -0.1198 (119)  0.1402 (120)  0.1602 (128) -0.1607 (134) -0.1533 (137)
           0.1128 (153) -0.1025 (155)  0.1800 (159)  0.1518 (160) -0.1870 (163)
          -0.1038 (164)  0.1549 (165)  0.1410 (166)
 CRD 70=  -0.1096 (  3) -0.1442 ( 15) -0.1273 ( 16)  0.2711 ( 25)  0.1198 ( 30)
           0.1066 ( 37) -0.1316 ( 48) -0.1165 ( 68) -0.1453 ( 83)  0.1102 ( 86)
           0.1333 ( 89) -0.1156 ( 91) -0.1510 ( 92)  0.1772 ( 98)  0.1362 ( 99)
           0.1463 (100) -0.1648 (103) -0.1120 (108)  0.1011 (111)  0.1256 (113)
           0.1469 (116) -0.1642 (121) -0.1460 (123)  0.1176 (128)  0.1504 (133)
          -0.1037 (134)  0.1298 (138) -0.1003 (148)  0.1318 (149) -0.1066 (150)
           0.1324 (151) -0.1958 (161)  0.1899 (163)  0.1818 (164)
 CRD 71=  -0.1521 ( 16)  0.1767 ( 23) -0.1023 ( 25)  0.1161 ( 28) -0.1081 ( 29)
          -0.1079 ( 31) -0.1116 ( 64) -0.1096 ( 65) -0.1077 ( 68)  0.1420 ( 83)
           0.2349 ( 86)  0.1046 ( 87) -0.1686 ( 89) -0.2112 ( 90)  0.1714 ( 91)
          -0.2220 ( 92)  0.2093 ( 93) -0.1455 ( 95) -0.1311 ( 98)  0.1110 (114)
          -0.1761 (116)  0.1763 (121)  0.2304 (130)  0.1215 (133) -0.1076 (134)
          -0.2193 (140) -0.1727 (150) -0.1500 (155)  0.1386 (164)
 CRD 72=   0.2559 (101) -0.3351 (103) -0.2440 (105)  0.1083 (108)  0.3176 (115)
          -0.1020 (124) -0.2114 (125) -0.1566 (126) -0.2427 (137) -0.1505 (144)
          -0.1540 (145)  0.1942 (146) -0.2438 (147)  0.1162 (150)  0.2488 (151)
           0.1394 (152)  0.1645 (165)  0.1610 (166)

 THE DETERMINANT OF THE G MATRIX IS 10**(   -23)


                     --------------------
                     INTERNAL COORDINATES
                     --------------------

                 - - ATOMS - -         COORDINATE      COORDINATE
 NO.   TYPE    I  J  K  L  M  N        (BOHR,RAD)       (ANG,DEG)
 ----------------------------------------------------------------
   1 STRETCH   1 20                     2.0597654       1.0899810
   2 STRETCH   1 18                     2.0598885       1.0900461
   3 STRETCH   1 10                     2.8913434       1.5300332
   4 STRETCH   1 19                     2.0598064       1.0900027
   5 STRETCH   2 23                     2.0599323       1.0900693
   6 STRETCH   2 22                     2.0598240       1.0900120
   7 STRETCH   2 21                     2.0597805       1.0899890
   8 STRETCH   2 10                     2.8912145       1.5299649
   9 STRETCH   3 24                     2.0598225       1.0900112
  10 STRETCH   3 26                     2.0597266       1.0899605
  11 STRETCH   3 25                     2.0598288       1.0900145
  12 STRETCH   3  8                     2.8478985       1.5070431
  13 STRETCH   4 14                     2.0599364       1.0900715
  14 STRETCH   4 13                     2.0597319       1.0899633
  15 STRETCH   4  6                     2.9102188       1.5400216
  16 STRETCH   4  7                     2.9146734       1.5423788
  17 STRETCH   5  7                     2.9003004       1.5347730
  18 STRETCH   5  9                     2.8526320       1.5095480
  19 STRETCH   5 16                     2.0598554       1.0900286
  20 STRETCH   5 15                     2.0599173       1.0900614
  21 STRETCH   6 11                     2.0597154       1.0899545
  22 STRETCH   6  8                     2.8701347       1.5188100
  23 STRETCH   6 10                     2.9260999       1.5484255
  24 STRETCH   7 12                     2.0598664       1.0900344
  25 STRETCH   7 10                     2.9068790       1.5382543
  26 STRETCH   8  9                     2.4816899       1.3132538
  27 STRETCH   9 17                     2.0409423       1.0800202
  28 BEND      1 10  7                  1.9878510     113.8954746
  29 BEND      1 10  6                  1.9878875     113.8975653
  30 BEND      1 10  2                  1.9749082     113.1539040
  31 BEND      2 10  6                  1.9879528     113.9013071
  32 BEND      2 10  7                  1.9879448     113.9008475
  33 BEND      3  8  9                  2.1169217     121.2906790
  34 BEND      3  8  6                  2.1168884     121.2887717
  35 BEND      4  7 10                  1.4958175      85.7040278
  36 BEND      4  7  5                  1.9343158     110.8281311
  37 BEND      4  7 12                  2.0061640     114.9447303
  38 BEND      4  6  8                  1.9416068     111.2458772
  39 BEND      4  6 11                  2.0267185     116.1224138
  40 BEND      4  6 10                  1.4911222      85.4350080
  41 BEND      5  9 17                  2.0976257     120.1851017
  42 BEND      5  9  8                  2.0878410     119.6244749
  43 BEND      5  7 10                  1.9692539     112.8299387
  44 BEND      5  7 12                  1.9974466     114.4452594
  45 BEND      6  4 13                  1.9874460     113.8722663
  46 BEND      6  4  7                  1.4913712      85.4492769
  47 BEND      6  8  9                  2.0493751     117.4205431
  48 BEND      6 10  7                  1.4888007      85.3019984
  49 BEND      6  4 14                  1.9874438     113.8721444
  50 BEND      7  4 13                  1.9876391     113.8833340
  51 BEND      7  4 14                  1.9875386     113.8775716
  52 BEND      7  5 15                  1.9100358     109.4369892
  53 BEND      7  5 16                  1.9100380     109.4371163
  54 BEND      7  5  9                  1.9145151     109.6936378
  55 BEND      8  9 17                  2.0977185     120.1904194
  56 BEND      8  6 10                  1.8961739     108.6427637
  57 BEND      8  6 11                  2.0136612     115.3742858
  58 BEND      8  3 25                  1.9106317     109.4711334
  59 BEND      8  3 26                  1.9107059     109.4753831
  60 BEND      8  3 24                  1.9105695     109.4675682
  61 BEND      9  5 15                  1.9099984     109.4348454
  62 BEND      9  5 16                  1.9098985     109.4291208
  63 BEND     10  2 21                  1.9106354     109.4713468
  64 BEND     10  2 22                  1.9106993     109.4750086
  65 BEND     10  1 19                  1.9105911     109.4688047
  66 BEND     10  6 11                  2.0296361     116.2895835
  67 BEND     10  2 23                  1.9105957     109.4690700
  68 BEND     10  7 12                  2.0049439     114.8748245
  69 BEND     10  1 20                  1.9106962     109.4748304
  70 BEND     10  1 18                  1.9106293     109.4709959
  71 BEND     13  4 14                  1.9745121     113.1312112
  72 BEND     15  5 16                  1.9093073     109.3952517
  73 BEND     18  1 19                  1.9106134     109.4700858
  74 BEND     18  1 20                  1.9106492     109.4721365
  75 BEND     19  1 20                  1.9106201     109.4704704
  76 BEND     21  2 22                  1.9106501     109.4721865
  77 BEND     21  2 23                  1.9105899     109.4687362
  78 BEND     22  2 23                  1.9106290     109.4709754
  79 BEND     24  3 25                  1.9106013     109.4693908
  80 BEND     24  3 26                  1.9106099     109.4698809
  81 BEND     25  3 26                  1.9106812     109.4739670
  82 TORSION   1 10  7 12               1.7283049      99.0245758
  83 TORSION   1 10  6  8               0.6036638      34.5873901
  84 TORSION   1 10  6 11              -1.7028192     -97.5643538
  85 TORSION   1 10  6  4               2.5392125     145.4861606
  86 TORSION   1 10  7  5              -0.6041149     -34.6132351
  87 TORSION   1 10  7  4              -2.5380946    -145.4221071
  88 TORSION   1 10  2 21               3.0136334     172.6684726
  89 TORSION   1 10  2 22              -1.1750944     -67.3279473
  90 TORSION   1 10  2 23               0.9193130      52.6727549
  91 TORSION   2 10  1 19               1.1750173      67.3235337
  92 TORSION   2 10  7 12              -0.5723189     -32.7914589
  93 TORSION   2 10  1 18              -0.9193253     -52.6734594
  94 TORSION   2 10  7  5              -2.9047387    -166.4292698
  95 TORSION   2 10  7  4               1.4444669      82.7618581
  96 TORSION   2 10  1 20              -3.0137762    -172.6766541
  97 TORSION   2 10  6  8               2.9043318     166.4059521
  98 TORSION   2 10  6 11               0.5978487      34.2542083
  99 TORSION   2 10  6  4              -1.4433049     -82.6952774
 100 TORSION   3  8  6 10              -2.3021431    -131.9030845
 101 TORSION   3  8  6 11               0.0128111       0.7340200
 102 TORSION   3  8  6  4               2.3691894     135.7445529
 103 TORSION   3  8  9 17               0.0072563       0.4157550
 104 TORSION   3  8  9  5              -3.1347379    -179.6072507
 105 TORSION   4  6  8  9              -0.7719068     -44.2269991
 106 TORSION   4  7  5 15               2.9779053     170.6214041
 107 TORSION   4  7  5 16              -1.2132365     -69.5133282
 108 TORSION   4  7  5  9               0.8822738      50.5505643
 109 TORSION   4  7 10  6              -0.5468548     -31.3324712
 110 TORSION   4  6 10  7               0.5480089      31.3985966
 111 TORSION   5  7  4  6              -1.4188974     -81.2968321
 112 TORSION   5  7  4 13               2.8724024     164.5765356
 113 TORSION   5  7  4 14               0.5729746      32.8290261
 114 TORSION   5  7 10  6               1.3871249      79.4764008
 115 TORSION   5  9  8  6               0.0063582       0.3643007
 116 TORSION   6 10  1 20              -0.7068003     -40.4966763
 117 TORSION   6  4  7 12               2.5656518     147.0010185
 118 TORSION   6 10  7 12              -2.5636406    -146.8857883
 119 TORSION   6  8  9 17              -3.1348329    -179.6126936
 120 TORSION   6  4  7 10               0.5500528      31.5157040
 121 TORSION   6 10  2 21               0.7066895      40.4903247
 122 TORSION   6 10  2 22               2.8011471     160.4939048
 123 TORSION   6 10  2 23              -1.3876309     -79.5053929
 124 TORSION   6  8  3 25              -2.6179871    -149.9996134
 125 TORSION   6  8  3 26              -0.5234898     -29.9937539
 126 TORSION   6  8  3 24               1.5708822      90.0049175
 127 TORSION   6 10  1 19              -2.8011922    -160.4964884
 128 TORSION   6 10  1 18               1.3876505      79.5065185
 129 TORSION   7  4  6  8               1.3429230      76.9438201
 130 TORSION   7 10  2 21              -0.9626695     -55.1568975
 131 TORSION   7 10  6  8              -1.3875398     -79.5001739
 132 TORSION   7 10  6 11               2.5891625     148.3480822
 133 TORSION   7 10  2 22               1.1317881      64.8466826
 134 TORSION   7 10  1 19              -1.1319110     -64.8537240
 135 TORSION   7 10  2 23              -3.0569898    -175.1526152
 136 TORSION   7 10  1 18               3.0569317     175.1492829
 137 TORSION   7  5  9  8              -0.0551254      -3.1584553
 138 TORSION   7  5  9 17               3.0860657     176.8185402
 139 TORSION   7  4  6 10              -0.5462510     -31.2978797
 140 TORSION   7 10  1 20               0.9624808      55.1460882
 141 TORSION   7  4  6 11              -2.5902194    -148.4086382
 142 TORSION   8  6  4 13              -2.9481859    -168.9186112
 143 TORSION   8  6  4 14              -0.6490426     -37.1874011
 144 TORSION   8  9  5 15              -2.1507797    -123.2306016
 145 TORSION   8  9  5 16               2.0404698     116.9103099
 146 TORSION   9  8  3 24              -1.5712262     -90.0246327
 147 TORSION   9  8  6 10               0.8399460      48.1253635
 148 TORSION   9  8  6 11              -3.1282851    -179.2375320
 149 TORSION   9  5  7 12              -3.0977967    -177.4906788
 150 TORSION   9  5  7 10              -0.7617802     -43.6467878
 151 TORSION   9  8  3 25               0.5230898      29.9708364
 152 TORSION   9  8  3 26               2.6175871     149.9766959
 153 TORSION  10  7  4 13              -1.4418327     -82.6109283
 154 TORSION  10  7  4 14               2.5419248     145.6415623
 155 TORSION  10  7  5 15               1.3338513      76.4240520
 156 TORSION  10  7  5 16              -2.8572904    -163.7106802
 157 TORSION  10  6  4 13               1.4458253      82.8396890
 158 TORSION  10  6  4 14              -2.5382166    -145.4291009
 159 TORSION  11  6  4 13              -0.5981430     -34.2710696
 160 TORSION  11  6  4 14               1.7010003      97.4601405
 161 TORSION  12  7  4 13               0.5737663      32.8743862
 162 TORSION  12  7  4 14              -1.7256615     -98.8731232
 163 TORSION  12  7  5 15              -1.0021652     -57.4198390
 164 TORSION  12  7  5 16               1.0898783      62.4454288
 165 TORSION  15  5  9 17               0.9904114      56.7463939
 166 TORSION  16  5  9 17              -1.1015243     -63.1126945

     ------------------------------------------
     THE POINT GROUP IS C1 , NAXIS= 1, ORDER= 1
     ------------------------------------------

     DIMENSIONS OF THE SYMMETRY SUBSPACES ARE
 A   =  286

 ..... DONE SETTING UP THE RUN .....
 STEP CPU TIME =     0.03 TOTAL CPU TIME =        0.0 (    0.0 MIN)
 TOTAL WALL CLOCK TIME=        0.0 SECONDS, CPU UTILIZATION IS  75.00%


          -----------------------------
          STATIONARY POINT LOCATION RUN
          -----------------------------

 OBTAINING INITIAL HESSIAN, HESS=GUESS   
 DIAGONAL GUESS HESSIAN IN INTERNAL COORDS IS
     1  0.3464     2  0.3463     3  0.3671     4  0.3464     5  0.3463
     6  0.3464     7  0.3464     8  0.3672     9  0.3464    10  0.3464
    11  0.3464    12  0.3839    13  0.3463    14  0.3464    15  0.3601
    16  0.3584    17  0.3638    18  0.3821    19  0.3463    20  0.3463
    21  0.3464    22  0.3752    23  0.3542    24  0.3463    25  0.3613
    26  0.5596    27  0.3532    28  0.2479    29  0.2472    30  0.2485
    31  0.2472    32  0.2479    33  0.2662    34  0.2509    35  0.2470
    36  0.2473    37  0.2233    38  0.2486    39  0.2235    40  0.2465
    41  0.2259    42  0.2660    43  0.2476    44  0.2238    45  0.2235
    46  0.2469    47  0.2653    48  0.2466    49  0.2235    50  0.2233
    51  0.2233    52  0.2238    53  0.2238    54  0.2496    55  0.2382
    56  0.2480    57  0.2247    58  0.2254    59  0.2255    60  0.2254
    61  0.2253    62  0.2253    63  0.2241    64  0.2241    65  0.2241
    66  0.2230    67  0.2241    68  0.2236    69  0.2241    70  0.2241
    71  0.2034    72  0.2034    73  0.2034    74  0.2034    75  0.2034
    76  0.2034    77  0.2034    78  0.2034    79  0.2034    80  0.2034
    81  0.2034    82  0.2500    83  0.2500    84  0.2500    85  0.2500
    86  0.2500    87  0.2500    88  0.2500    89  0.2500    90  0.2500
    91  0.2500    92  0.2500    93  0.2500    94  0.2500    95  0.2500
    96  0.2500    97  0.2500    98  0.2500    99  0.2500   100  0.2500
   101  0.2500   102  0.2500   103  0.2500   104  0.2500   105  0.2500
   106  0.2500   107  0.2500   108  0.2500   109  0.2500   110  0.2500
   111  0.2500   112  0.2500   113  0.2500   114  0.2500   115  0.2500
   116  0.2500   117  0.2500   118  0.2500   119  0.2500   120  0.2500
   121  0.2500   122  0.2500   123  0.2500   124  0.2500   125  0.2500
   126  0.2500   127  0.2500   128  0.2500   129  0.2500   130  0.2500
   131  0.2500   132  0.2500   133  0.2500   134  0.2500   135  0.2500
   136  0.2500   137  0.2500   138  0.2500   139  0.2500   140  0.2500
   141  0.2500   142  0.2500   143  0.2500   144  0.2500   145  0.2500
   146  0.2500   147  0.2500   148  0.2500   149  0.2500   150  0.2500
   151  0.2500   152  0.2500   153  0.2500   154  0.2500   155  0.2500
   156  0.2500   157  0.2500   158  0.2500   159  0.2500   160  0.2500
   161  0.2500   162  0.2500   163  0.2500   164  0.2500   165  0.2500
   166  0.2500
 TRANSFORMING HESSIAN TO SYMMETRY COORDINATES

          PARAMETERS CONTROLLING GEOMETRY SEARCH ARE
          METHOD =QA                  UPHESS =BFGS    
          NNEG   =         0          NFRZ   =         3
          NSTEP  =        50          IFOLOW =         1
          HESS   =GUESS               RESTAR =         F
          IHREP  =         0          HSSEND =         F
          NPRT   =         0          NPUN   =         0
          OPTTOL = 5.000E-04          RMIN   = 1.500E-03
          RMAX   = 1.000E-01          RLIM   = 7.000E-02
          DXMAX  = 3.000E-01          PURIFY =         F
          MOVIE  =         F          TRUPD  =         T
          TRMAX  = 5.000E-01          TRMIN  = 5.000E-02
          ITBMAT =         5          STPT   =         F
          STSTEP = 1.000E-02          PROJCT=          F
          FROZEN COORD(S)=   1   2   3


      ***** EQUILIBRIUM GEOMETRY LOCATED *****
            (SUBJECT TO   3 CONSTRAINT(S))
 COORDINATES OF ALL ATOMS ARE (ANGS)
   ATOM   CHARGE       X              Y              Z
 ------------------------------------------------------------
 C           6.0  -0.7360735431   0.6451907401   1.7458182974
 C           6.0  -2.4143071787   0.9701535412  -0.0826309363
 C           6.0   2.5515062637   1.2631892272  -0.1725505887
 C           6.0  -0.4984953397  -0.5732002368  -1.5769080088
 C           6.0   0.2680263836  -1.7894433591   0.4806897712
 C           6.0   0.0554336020   0.6530459603  -0.8007637297
 C           6.0  -0.9314460240  -1.1150222771  -0.1951109672
 C           6.0   1.4134375272   0.2776083598  -0.2146562994
 C           6.0   1.4931557701  -0.9092855140   0.3624032404
 C           6.0  -1.0536208787   0.3642572670   0.2779399738
 H           1.0   0.0546030444   1.6221994269  -1.2901220034
 H           1.0  -1.8244242850  -1.7308419214  -0.1332644870
 H           1.0  -1.3429911751  -0.3296296923  -2.2084292279
 H           1.0   0.2097482314  -1.1610002511  -2.1492511311
 H           1.0   0.0519382346  -1.9505885116   1.5363279368
 H           1.0   0.4473872914  -2.7715523999   0.0508857225
 H           1.0   2.4025513937  -1.2239242621   0.8476993749
 H           1.0  -0.7731845806   1.7077936754   1.9668782861
 H           1.0  -1.4507448318   0.1348724387   2.3868469791
 H           1.0   0.2484121068   0.2925669138   2.0119154949
 H           1.0  -2.6937026052   0.8014341416  -1.1159546585
 H           1.0  -3.1922503080   0.5316287057   0.5391392959
 H           1.0  -2.4177744896   2.0434675641   0.0886147726
 H           1.0   2.2374231116   2.1704482906   0.3436676290
 H           1.0   3.3881078757   0.8446168168   0.3767005306
 H           1.0   2.8960533023   1.5626448030  -1.1587910349


                     --------------------
                     INTERNAL COORDINATES
                     --------------------

                 - - ATOMS - -         COORDINATE      COORDINATE
 NO.   TYPE    I  J  K  L  M  N        (BOHR,RAD)       (ANG,DEG)
 ----------------------------------------------------------------
   1 STRETCH   1 20                     2.0391214       1.0790567
   2 STRETCH   1 18                     2.0522196       1.0859879
   3 STRETCH   1 10                     2.8872804       1.5278831
   4 STRETCH   1 19                     2.0545916       1.0872431
   5 STRETCH   2 23                     2.0539332       1.0868947
   6 STRETCH   2 22                     2.0563291       1.0881626
   7 STRETCH   2 21                     2.0477917       1.0836448
   8 STRETCH   2 10                     2.8960252       1.5325106
   9 STRETCH   3 24                     2.0599300       1.0900681
  10 STRETCH   3 26                     2.0536866       1.0867642
  11 STRETCH   3 25                     2.0499668       1.0847958
  12 STRETCH   3  8                     2.8461199       1.5061019
  13 STRETCH   4 14                     2.0481478       1.0838332
  14 STRETCH   4 13                     2.0452029       1.0822749
  15 STRETCH   4  6                     2.9354185       1.5533567
  16 STRETCH   4  7                     2.9216780       1.5460855
  17 STRETCH   5  7                     2.8970704       1.5330638
  18 STRETCH   5  9                     2.8594318       1.5131462
  19 STRETCH   5 16                     2.0540200       1.0869407
  20 STRETCH   5 15                     2.0588769       1.0895108
  21 STRETCH   6 11                     2.0516635       1.0856936
  22 STRETCH   6  8                     2.8837057       1.5259915
  23 STRETCH   6 10                     2.9741444       1.5738496
  24 STRETCH   7 12                     2.0531758       1.0864939
  25 STRETCH   7 10                     2.9439553       1.5578741
  26 STRETCH   8  9                     2.4984935       1.3221459
  27 STRETCH   9 17                     2.0366217       1.0777339
  28 BEND      1 10  7                  2.0375860     116.7450793
  29 BEND      1 10  6                  2.0694906     118.5730774
  30 BEND      1 10  2                  1.9154576     109.7476335
  31 BEND      2 10  6                  1.9734518     113.0704589
  32 BEND      2 10  7                  1.9536873     111.9380340
  33 BEND      3  8  9                  2.1290272     121.9842750
  34 BEND      3  8  6                  2.1202171     121.4794888
  35 BEND      4  7 10                  1.5313649      87.7407458
  36 BEND      4  7  5                  1.9060907     109.2109520
  37 BEND      4  7 12                  2.0710639     118.6632227
  38 BEND      4  6  8                  1.8912902     108.3629488
  39 BEND      4  6 11                  2.0705339     118.6328524
  40 BEND      4  6 10                  1.5170907      86.9228944
  41 BEND      5  9 17                  2.0693709     118.5662202
  42 BEND      5  9  8                  2.1030439     120.4955416
  43 BEND      5  7 10                  1.9232778     110.1956998
  44 BEND      5  7 12                  1.9483126     111.6300871
  45 BEND      6  4 13                  1.9737629     113.0882842
  46 BEND      6  4  7                  1.5006851      85.9829234
  47 BEND      6  8  9                  2.0287943     116.2413515
  48 BEND      6 10  7                  1.4815287      84.8853404
  49 BEND      6  4 14                  2.0476180     117.3198684
  50 BEND      7  4 13                  1.9626164     112.4496343
  51 BEND      7  4 14                  2.0543053     117.7030229
  52 BEND      7  5 15                  1.9145259     109.6942538
  53 BEND      7  5 16                  1.9308089     110.6272032
  54 BEND      7  5  9                  1.9210426     110.0676347
  55 BEND      8  9 17                  2.1053881     120.6298546
  56 BEND      8  6 10                  1.8951655     108.5849843
  57 BEND      8  6 11                  1.9751442     113.1674271
  58 BEND      8  3 25                  1.9224054     110.1457186
  59 BEND      8  3 26                  1.9763338     113.2355840
  60 BEND      8  3 24                  1.9178871     109.8868364
  61 BEND      9  5 15                  1.8990164     108.8056228
  62 BEND      9  5 16                  1.9401975     111.1651284
  63 BEND     10  2 21                  1.9732974     113.0616129
  64 BEND     10  2 22                  1.9187673     109.9372656
  65 BEND     10  1 19                  1.9214562     110.0913294
  66 BEND     10  6 11                  2.0625647     118.1762537
  67 BEND     10  2 23                  1.9349778     110.8660603
  68 BEND     10  7 12                  2.0448086     117.1589014
  69 BEND     10  1 20                  1.9459866     111.4968179
  70 BEND     10  1 18                  1.9480533     111.6152315
  71 BEND     13  4 14                  1.9005516     108.8935874
  72 BEND     15  5 16                  1.8569027     106.3926858
  73 BEND     18  1 19                  1.8931337     108.4685691
  74 BEND     18  1 20                  1.8762568     107.5015954
  75 BEND     19  1 20                  1.8764704     107.5138358
  76 BEND     21  2 22                  1.8731731     107.3249150
  77 BEND     21  2 23                  1.8788106     107.6479180
  78 BEND     22  2 23                  1.8814211     107.7974876
  79 BEND     24  3 25                  1.8792431     107.6726981
  80 BEND     24  3 26                  1.8668762     106.9641276
  81 BEND     25  3 26                  1.8979008     108.7417044
  82 TORSION   1 10  7 12               1.5895881      91.0766919
  83 TORSION   1 10  6  8               0.6530098      37.4147073
  84 TORSION   1 10  6 11              -1.6266552     -93.2004755
  85 TORSION   1 10  6  4               2.5440225     145.7617534
  86 TORSION   1 10  7  5              -0.6629451     -37.9839571
  87 TORSION   1 10  7  4              -2.5767939    -147.6394129
  88 TORSION   1 10  2 21              -3.1412982    -179.9831315
  89 TORSION   1 10  2 22              -1.0483802     -60.0677598
  90 TORSION   1 10  2 23               1.0301845      59.0252264
  91 TORSION   2 10  1 19               1.1321616      64.8680826
  92 TORSION   2 10  7 12              -0.6383545     -36.5750206
  93 TORSION   2 10  1 18              -0.9712163     -55.6465938
  94 TORSION   2 10  7  5              -2.8908878    -165.6356696
  95 TORSION   2 10  7  4               1.4784488      84.7088746
  96 TORSION   2 10  1 20              -3.0699123    -175.8930189
  97 TORSION   2 10  6  8               2.9315794     167.9671272
  98 TORSION   2 10  6 11               0.6519144      37.3519444
  99 TORSION   2 10  6  4              -1.4605932     -83.6858267
 100 TORSION   3  8  6 10              -2.1866744    -125.2872121
 101 TORSION   3  8  6 11               0.1397536       8.0072908
 102 TORSION   3  8  6  4               2.4737503     141.7354522
 103 TORSION   3  8  9 17              -0.0476344      -2.7292502
 104 TORSION   3  8  9  5               2.9810609     170.8022100
 105 TORSION   4  6  8  9              -0.7746424     -44.3837390
 106 TORSION   4  7  5 15               2.8961839     165.9391116
 107 TORSION   4  7  5 16              -1.3438101     -76.9946462
 108 TORSION   4  7  5  9               0.8072362      46.2512289
 109 TORSION   4  7 10  6              -0.4909081     -28.1269615
 110 TORSION   4  6 10  7               0.4887612      28.0039516
 111 TORSION   5  7  4  6              -1.4334923     -82.1330591
 112 TORSION   5  7  4 13               2.8713770     164.5177858
 113 TORSION   5  7  4 14               0.6411331      36.7342214
 114 TORSION   5  7 10  6               1.4229407      81.5284942
 115 TORSION   5  9  8  6              -0.0531460      -3.0450411
 116 TORSION   6 10  1 20              -0.7654492     -43.8570107
 117 TORSION   6  4  7 12               2.5904385     148.4211913
 118 TORSION   6 10  7 12              -2.6077114    -149.4108567
 119 TORSION   6  8  9 17              -3.0818413    -176.5765013
 120 TORSION   6  4  7 10               0.4971428      28.4841825
 121 TORSION   6 10  2 21               0.7883264      45.1677753
 122 TORSION   6 10  2 22               2.8812445     165.0831469
 123 TORSION   6 10  2 23              -1.3233761     -75.8238668
 124 TORSION   6  8  3 25               3.0321397     173.7288073
 125 TORSION   6  8  3 26              -1.1217039     -64.2689020
 126 TORSION   6  8  3 24               0.9645918      55.2670367
 127 TORSION   6 10  1 19              -2.8465606    -163.0959092
 128 TORSION   6 10  1 18               1.3332468      76.3894144
 129 TORSION   7  4  6  8               1.4028918      80.3797813
 130 TORSION   7 10  2 21              -0.8496073     -48.6789129
 131 TORSION   7 10  6  8              -1.4022515     -80.3430945
 132 TORSION   7 10  6 11               2.6012688     149.0417228
 133 TORSION   7 10  2 22               1.2433108      71.2364587
 134 TORSION   7 10  1 19              -1.1142906     -63.8441504
 135 TORSION   7 10  2 23              -2.9613098    -169.6705550
 136 TORSION   7 10  1 18               3.0655168     175.6411732
 137 TORSION   7  5  9  8               0.0427646       2.4502289
 138 TORSION   7  5  9 17               3.0737560     176.1132454
 139 TORSION   7  4  6 10              -0.4919997     -28.1895042
 140 TORSION   7 10  1 20               0.9668207      55.3947481
 141 TORSION   7  4  6 11              -2.5972865    -148.8135556
 142 TORSION   8  6  4 13              -2.9129812    -166.9015274
 143 TORSION   8  6  4 14              -0.6780048     -38.8468114
 144 TORSION   8  9  5 15              -2.0555805    -117.7760861
 145 TORSION   8  9  5 16               2.1883099     125.3809210
 146 TORSION   9  8  3 24              -2.0640375    -118.2606378
 147 TORSION   9  8  6 10               0.8481183      48.5935967
 148 TORSION   9  8  6 11              -3.1086391    -178.1119005
 149 TORSION   9  5  7 12               3.1320831     179.4551422
 150 TORSION   9  5  7 10              -0.8473529     -48.5497447
 151 TORSION   9  8  3 25               0.0035104       0.2011328
 152 TORSION   9  8  3 26               2.1328521     122.2034235
 153 TORSION  10  7  4 13              -1.4811732     -84.8649727
 154 TORSION  10  7  4 14               2.5717682     147.3514629
 155 TORSION  10  7  5 15               1.2415947      71.1381380
 156 TORSION  10  7  5 16              -2.9983992    -171.7956199
 157 TORSION  10  6  4 13               1.4753126      84.5291870
 158 TORSION  10  6  4 14              -2.5728963    -147.4160970
 159 TORSION  11  6  4 13              -0.6299742     -36.0948643
 160 TORSION  11  6  4 14               1.6050022      91.9598516
 161 TORSION  12  7  4 13               0.6121225      35.0720361
 162 TORSION  12  7  4 14              -1.6181214     -92.7115283
 163 TORSION  12  7  5 15              -1.0621546     -60.8569751
 164 TORSION  12  7  5 16               0.9810368      56.2092671
 165 TORSION  15  5  9 17               0.9754109      55.8869303
 166 TORSION  16  5  9 17              -1.0638840     -60.9560625

          INTERNUCLEAR DISTANCES (ANGS.)


 =====================================================
   GAMESS/COSab RESULTS
 =====================================================

   Dielectric Constant                  = INFTY
   Basic Grid Size                      =                 1082
   Number of Segments                   =                   92
   Number of Segments located on spheres=                  290
   Number of Segments of the cavity     =                  791
   Solvent Radius (rsolv)               = 1.40
   Outlying Charge Error Method         = double cavity

 =====================================================

  Total solvated Energy (a.u.)          =  -388.0397383819
  Total Energy corrected (a.u.)         =  -388.0396395364

  Outlying charge effect (a.u.)         =     0.0000988455
  Outlying charge effect (kcal/mol)     =     0.0620265439

  Dielectric Energy (a.u.)              =    -0.0025978588
  Dielectric energy corr. (a.u.)        =    -0.0024990133

  Sum of polarization charges           =     0.0296726573
  Sum of polarization charges(cor.)     =    -0.0296726573

  Total surface area of cavity (A**2)   =  182.02
  Total volume of cavity (A**3)         =  196.71

 =====================================================
 NPS=                   791
NR.  ATOM  (X, Y, Z)(a.u.)                  CHARGE(e)  AREA(A**2) SIGMA(e/A**2)
   1   1  -0.629277  -0.866543   6.357481   0.002371   0.418105   0.005672
   2   1  -2.883820   2.358462   6.579018   0.002075   0.418105   0.004963
   3   1   1.033128   2.431710   5.933096   0.001562   0.371649   0.004204
   4   1   0.628632   3.367689   5.663337   0.001484   0.325193   0.004563
   5   1  -2.752993   3.234046   6.192146   0.001327   0.278737   0.004763
   6   1  -4.067690   3.688128   4.311020   0.000158   0.046456   0.003392
   7   1  -4.332426   2.922811   4.951351   0.000767   0.139368   0.005502
   8   1  -3.802066   2.797449   5.744533   0.001991   0.325193   0.006123
   9   1  -1.585052   2.660883   6.787407   0.001588   0.464561   0.003419
  10   1  -0.032556   2.539668   6.569492   0.001534   0.464561   0.003303
  11   1   1.416839   3.035444   5.060307   0.001024   0.185824   0.005509
  12   1  -1.934222   1.423699   7.033721   0.001408   0.418105   0.003368
  13   1  -1.065812   0.265285   6.941707   0.001678   0.418105   0.004013
  14   1   0.046975   0.171852   6.633711   0.001882   0.464561   0.004051
  15   1   0.607955   1.452735   6.498176   0.001065   0.325193   0.003275
  16   1  -0.714456   3.235760   6.423238   0.000849   0.278737   0.003046
  17   1  -3.918001   3.435205   5.027641   0.000709   0.139368   0.005088
  18   1   0.999805   3.752895   4.765048   0.000441   0.092912   0.004750
  19   1  -4.452026   2.288488   5.240985   0.000943   0.185824   0.005075
  20   1  -0.650896   1.512851   6.993745   0.001304   0.464561   0.002806
  21   2  -7.230101   3.684936   1.777497   0.002306   0.418105   0.005515
  22   2  -8.200295   1.184377  -0.949057   0.001545   0.371649   0.004157
  23   2  -6.617746   4.487679  -1.892262   0.001448   0.371649   0.003897
  24   2  -5.947145   3.625178   2.869718   0.001236   0.232280   0.005320
  25   2  -6.340289   3.961763  -2.723838   0.001256   0.325193   0.003862
  26   2  -7.802257   0.894047  -1.860622   0.001089   0.278737   0.003907
  27   2  -6.321479  -0.903978  -2.078925   0.000133   0.046456   0.002872
  28   2  -4.103452   3.756474  -3.377195   0.000478   0.139368   0.003432
  29   2  -6.637120   3.163605   2.709161   0.001043   0.232280   0.004492
  30   2  -6.406266   3.988220   2.341988   0.000900   0.185824   0.004844
  31   2  -7.020097  -0.893366  -1.055644   0.001063   0.232280   0.004578
  32   2  -7.641144  -0.112429  -1.165874   0.002187   0.418105   0.005230
  33   2  -8.066227   2.255422  -1.508604   0.001332   0.464561   0.002868
  34   2  -7.473586   3.701916  -1.678473   0.001226   0.464561   0.002639
  35   2  -5.404093   4.695016  -2.477025   0.001596   0.325193   0.004908
  36   2  -4.154009   4.699674  -2.585450   0.001143   0.232280   0.004921
  37   2  -8.296131   2.414547  -0.230383   0.001050   0.371649   0.002826
  38   2  -7.962157   3.212906   0.750755   0.001433   0.418105   0.003428
  39   2  -7.389936   4.213338   0.634199   0.001585   0.464561   0.003411
  40   2  -7.191623   4.487123  -0.729415   0.000872   0.325193   0.002680
  41   2  -7.533833   2.892773  -2.237561   0.000662   0.278737   0.002375
  42   2  -6.966133  -0.539342  -1.852242   0.000577   0.139368   0.004143
  43   2  -4.929644   4.184174  -3.092621   0.001313   0.278737   0.004711
  44   2  -7.948970   3.459948  -0.567631   0.000920   0.418105   0.002200
  45   3   6.474507  -0.126888  -2.613489   0.000892   0.278737   0.003199
  46   3   8.466348   2.480070  -1.321920   0.001748   0.418105   0.004181
  47   3   7.221461   4.058432   2.068025   0.001379   0.418105   0.003298
  48   3   6.378702   5.661789  -1.391927   0.001098   0.371649   0.002955
  49   3   6.135582   0.410636  -3.267414   0.000606   0.232280   0.002608
  50   3   7.254997   0.035451  -2.009194   0.000797   0.278737   0.002860
  51   3   7.852993   0.880864  -2.007288   0.001562   0.371649   0.004203
  52   3   5.607391   6.047622  -0.843019   0.001077   0.325193   0.003312
  53   3   6.457217   4.622210   2.245567   0.000851   0.278737   0.003052
  54   3   4.591376   3.343842   3.323017   0.000413   0.185824   0.002221
  55   3   3.371595   5.648943  -1.567772   0.000557   0.185824   0.003000
  56   3   8.289449   1.271771  -1.333377   0.000820   0.232280   0.003529
  57   3   8.076826   1.891660  -2.181493   0.000987   0.278737   0.003540
  58   3   5.445703   2.662806   3.391293   0.001136   0.325193   0.003494
  59   3   6.403006   3.510382   2.917651   0.001429   0.325193   0.004396
  60   3   7.199558   4.970143   1.073044   0.001012   0.464561   0.002178
  61   3   6.994846   5.478327  -0.400816   0.000875   0.464561   0.001884
  62   3   5.134407   5.793817  -1.932472   0.001270   0.325193   0.003906
  63   3   3.961690   5.414196  -2.419216   0.000978   0.278737   0.003507
  64   3   5.443812   1.906093   3.370662   0.000394   0.139368   0.002825
  65   3   8.023650   3.965646   0.914701   0.000798   0.418105   0.001908
  66   3   8.457201   3.419537  -0.357434   0.000984   0.418105   0.002353
[...]
 534   4  -0.124672  -4.805008  -3.519300   0.000149   0.092079   0.001623
 535  14   0.128267  -4.750061  -3.680455   0.000021   0.092079   0.000233
 536  16   0.237571  -5.347528  -2.696063   0.000267   0.092079   0.002898
 537  14  -0.064788  -4.574583  -4.437245  -0.000086   0.072269  -0.001191
 538  14  -0.384105  -4.014333  -5.407766  -0.000295   0.162320  -0.001818
 539  14  -0.175569  -2.924021  -6.269476  -0.000242   0.162320  -0.001494
 540  14   0.648840  -1.794587  -6.409256  -0.000237   0.162320  -0.001463
 541  14   1.712566  -1.141909  -5.763260  -0.000304   0.162320  -0.001872
 542   4  -0.602661  -4.390740  -4.660711  -0.000052   0.156664  -0.000335
 543   4  -0.778081  -3.410302  -5.884704  -0.000095   0.156664  -0.000607
 544   4  -0.161869  -2.086094  -6.482152  -0.000008   0.156664  -0.000052
 545   4   0.964514  -1.022961  -6.180164   0.000030   0.156664   0.000191
 546   4   1.915411  -0.626472  -5.410678   0.000113   0.088292   0.001278
 547  16  -0.106359  -5.960070  -2.216501  -0.000048   0.202951  -0.000237
 548   4  -0.553019  -5.050702  -3.396630   0.000894   0.289852   0.003083
 549   5  -2.164877  -5.984265  -0.195789   0.000079   0.025001   0.003165
 550   7  -2.572149  -5.804802  -0.423222   0.000036   0.025001   0.001445
 551  12  -2.866888  -5.749450  -0.380665   0.000004   0.025001   0.000165
 552   5  -2.865869  -4.715644   2.314394   0.000041   0.025001   0.001624
 553   7  -3.282774  -4.518746   2.121458   0.000026   0.025001   0.001028
 554  12  -3.513494  -4.579254   1.934769   0.000004   0.025001   0.000147
 555   5  -2.486340  -4.400990   2.993366  -0.000000   0.027847  -0.000001
 556   7  -2.849639  -4.162849   2.746013   0.000022   0.027847   0.000792
 557  15  -2.330601  -4.368659   3.252956  -0.000041   0.027847  -0.001471
 558   5  -1.589532  -6.239245  -0.425683   0.000024   0.026444   0.000906
 559   7  -1.962022  -5.981226  -0.636681   0.000076   0.026444   0.002859
 560  16  -1.342584  -6.397280  -0.502836  -0.000014   0.026444  -0.000516
 561   7  -2.356106  -5.888710  -0.611552   0.000143   0.052021   0.002744
 562   5  -1.825321  -6.202214  -0.241056   0.000141   0.052021   0.002711
 563   7  -3.183617  -4.360995   2.381747   0.000165   0.088063   0.001876
 564   5  -2.615860  -4.595729   2.765231   0.000144   0.088063   0.001640
 565   5   2.482241  -4.049774   4.070000  -0.000005   0.028688  -0.000158
 566   9   2.865561  -3.748023   3.996456   0.000037   0.028688   0.001296
 567  15   2.231536  -4.045991   4.242769  -0.000032   0.028688  -0.001107
 568   5   3.405102  -5.805720   0.668363   0.000023   0.025557   0.000910
 569   9   3.777977  -5.485167   0.629411   0.000043   0.025557   0.001665
 570  16   3.241994  -5.999504   0.501805  -0.000024   0.025557  -0.000926
 571   5   3.402220  -4.633502   3.190767  -0.000014   0.007814  -0.001829
 572   9   3.821905  -4.374981   3.184435  -0.000026   0.007814  -0.003278
 573  17   4.105428  -4.283551   3.168939  -0.000033   0.007814  -0.004161
 574   5   3.667775  -5.111682   2.383120  -0.000018   0.007814  -0.002315
 575   9   4.091399  -4.860253   2.364809  -0.000034   0.007814  -0.004324
 576  17   4.350313  -4.724510   2.424157  -0.000053   0.007814  -0.006785
 577   9   3.401789  -3.973716   3.677101   0.000040   0.199579   0.000203
 578   5   2.929669  -4.545010   3.582639   0.000056   0.199579   0.000278
 579   9   4.030921  -5.116220   1.691979  -0.000143   0.284592  -0.000501
 580   5   3.479391  -5.601652   1.413942   0.000017   0.284592   0.000060
 581  12  -3.151523  -5.740977  -0.036701  -0.000118   0.195337  -0.000605
 582  12  -3.499207  -5.192408   1.200623  -0.000876   0.398941  -0.002196
 583   5  -2.304133  -5.942579   0.847150   0.000737   0.535879   0.001375
 584   5  -2.678945  -5.190779   2.196327   0.000533   0.275036   0.001938
 585  15  -2.030514  -4.744335   3.518499  -0.000139   0.071130  -0.001957
 586  15  -1.242964  -5.566177   3.554256  -0.000373   0.158568  -0.002353
 587  15   0.067772  -5.924054   3.767934  -0.000231   0.158568  -0.001459
 588  15   1.290924  -5.389751   4.099878  -0.000375   0.158568  -0.002363
 589  15   1.907515  -4.470144   4.366475  -0.000149   0.071130  -0.002100
 590   5  -1.880404  -5.187888   3.133280  -0.000219   0.155352  -0.001410
 591   5  -0.606365  -6.052052   3.262161   0.000045   0.155352   0.000290
 592   5   0.900383  -5.947142   3.586609   0.000017   0.155352   0.000108
 593   5   1.988605  -4.918503   3.966393  -0.000221   0.155352  -0.001423
 594  16   2.920878  -6.415315   0.667360  -0.000120   0.072981  -0.001646
 595  16   2.079143  -6.865601   1.344992  -0.000371   0.163930  -0.002262
 596  16   0.710491  -7.179195   1.490393  -0.000296   0.163930  -0.001807
 597  16  -0.506655  -7.090961   0.780844  -0.000350   0.163930  -0.002134
 598  16  -1.054499  -6.761781  -0.199956  -0.000119   0.072981  -0.001627
 599   5   2.756807  -6.330087   1.252593  -0.000285   0.158235  -0.001800
 600   5   1.408059  -6.858200   1.896475  -0.000004   0.158235  -0.000026
 601   5  -0.135048  -6.992687   1.559813  -0.000005   0.158235  -0.000031
 602   5  -1.163676  -6.671769   0.397253  -0.000229   0.158235  -0.001446
 603  17   4.384078  -4.438085   2.922512  -0.000599   0.194477  -0.003080
 604   5   3.431883  -5.122846   2.797571   0.000086   0.273561   0.000313
 605   6   2.965532   1.294639  -4.221935  -0.000060   0.094650  -0.000636
 606   8   3.428210   1.168171  -4.083308  -0.000043   0.094650  -0.000455
 607  26   3.982828   1.689377  -4.104011  -0.000102   0.094650  -0.001080
 608   8   3.181689   0.868342  -4.194172   0.000014   0.015010   0.000921
 609   6   2.550906   1.061309  -4.465951   0.000012   0.015010   0.000829
 610   6  -2.225746   3.009930  -3.969939   0.000020   0.066293   0.000307
 611  11  -2.051791   3.256083  -3.934729  -0.000108   0.066293  -0.001630
 612  21  -3.196344   2.864404  -3.784214   0.000081   0.066293   0.001215
 613   6  -0.926143   4.828470  -0.605715   0.000146   0.093155   0.001572
 614  11  -0.883017   4.927659  -0.891584  -0.000000   0.093155  -0.000005
 615  23  -1.959088   5.005986  -0.335445   0.000284   0.093155   0.003046
 616   6   0.716978   4.892639  -0.501100  -0.000018   0.090400  -0.000197
 617  11   0.707654   4.991440  -0.790086  -0.000142   0.090400  -0.001567
 618  24   1.666274   5.132562  -0.122248  -0.000070   0.090400  -0.000779
 619   6   2.181590   3.041270  -4.208798   0.000036   0.096705   0.000370
 620  11   2.042485   3.310284  -4.165014  -0.000149   0.096705  -0.001540
 621  26   3.236380   3.253269  -4.004040   0.000015   0.096705   0.000151
 622  11   1.336517   3.327842  -4.546989  -0.000165   0.067921  -0.002427
 623  11   0.287921   3.182313  -4.833411  -0.000283   0.150317  -0.001881
 624   6   1.042815   2.852289  -4.746055  -0.000145   0.149344  -0.000972
 625   6  -0.139828   2.735126  -4.976068   0.000111   0.082980   0.001334
 626  11  -1.320821   3.391308  -4.416745  -0.000115   0.064442  -0.001782
 627   6  -1.611696   3.046253  -4.357366  -0.000010   0.078729  -0.000123
 628  11  -0.144940   5.088634  -1.057241  -0.000151   0.060766  -0.002488
 629   6  -0.034146   4.918373  -0.652373  -0.000028   0.074239  -0.000373
 630   6  -2.511733   2.425839  -4.226753   0.000293   0.192170   0.001527
 631  13  -2.946084   1.906042  -4.618302  -0.000328   0.192170  -0.001705
 632  21  -3.511112   2.353205  -4.133843  -0.000427   0.192170  -0.002224
 633  13  -2.656878   1.765408  -5.023018  -0.000009   0.048167  -0.000195
 634   6  -1.995187   2.577800  -4.537965   0.000224   0.067844   0.003304
 635   6  -1.090564   4.617207   0.361801   0.000751   0.322837   0.002325
 636  18  -1.402692   4.793809   1.442334   0.000109   0.322837   0.000336
 637  23  -2.098789   4.944990   0.641858   0.000009   0.322837   0.000027
 638   6   0.471331   4.573323   0.572358   0.000308   0.390172   0.000790
 639  18   0.118260   4.634123   1.655016   0.000654   0.390172   0.001676
 640  24   1.431589   4.853691   0.942007  -0.000438   0.390172  -0.001123
 641  18  -0.732346   5.009218   1.913993  -0.000043   0.145519  -0.000297
 642   6  -0.330286   4.823202   0.311952   0.000554   0.209957   0.002639
 643  21  -3.835720   2.785167  -4.010979  -0.000075   0.043606  -0.001716
 644   6  -2.373651   2.891310  -4.189717   0.000190   0.061955   0.003065
 645  23  -2.386338   5.332916   0.169268  -0.000093   0.077487  -0.001202
 646   6  -0.905311   4.949451  -0.293297   0.000368   0.111164   0.003314
 647  24   2.000588   5.457909   0.412033  -0.000368   0.110554  -0.003328
 648   6   0.616264   4.955176  -0.074652   0.000314   0.157936   0.001986
 649  26   4.221627   2.203991  -4.358250  -0.000257   0.226859  -0.001131
 650  26   3.952479   3.062593  -4.312348  -0.000310   0.226859  -0.001367
 651   6   2.559138   2.162624  -4.490402   0.000660   0.645327   0.001022
 652   7  -4.824342  -2.440410   1.936632   0.000159   0.092639   0.001718
 653  12  -4.969537  -2.640540   1.755968  -0.000074   0.092639  -0.000801
 654  22  -5.501848  -1.639577   1.963966   0.000188   0.092639   0.002032
 655  12  -5.106221  -3.133578  -2.069118  -0.000059   0.057179  -0.001025
 656   7  -4.853662  -2.940680  -2.389710   0.000086   0.069856   0.001225
 657  12  -4.301217  -4.323787  -2.296888   0.000014   0.073267   0.000191
 658  12  -3.693519  -5.146825  -1.717607  -0.000281   0.164778  -0.001708
 659  12  -3.268587  -5.666049  -0.752157  -0.000089   0.073267  -0.001208
 660   7  -3.736067  -4.558155  -2.358413  -0.000011   0.158666  -0.000067
 661   7  -3.019124  -5.490072  -1.285924  -0.000166   0.158666  -0.001049
 662  12  -4.034179  -4.290510   1.889852  -0.000113   0.085556  -0.001323
 663  12  -4.639084  -3.414667   1.876649  -0.000133   0.085556  -0.001559
 664   7  -4.052364  -3.653218   2.084907  -0.000314   0.178406  -0.001758
 665   7  -4.911610  -1.877317  -2.740683   0.000330   0.190548   0.001730
 666  13  -4.859453  -1.525905  -3.431270  -0.000349   0.190548  -0.001833
 667  21  -5.396703  -1.029081  -2.964062  -0.000356   0.190548  -0.001870
 668  13  -4.650683  -1.970142  -3.797172  -0.000025   0.066200  -0.000375
 669   7  -4.817801  -2.485103  -2.785802   0.000324   0.093264   0.003477
 670   7  -3.004363  -3.189109   3.192578   0.000240   0.237418   0.001010
 671  15  -2.454007  -3.421748   3.667653  -0.000149   0.237418  -0.000628
 672  19  -3.055484  -2.501706   4.006438   0.000212   0.237418   0.000891
 673  15  -2.295529  -4.135219   3.561973  -0.000145   0.098934  -0.001462
 674   7  -3.112275  -3.911966   2.819500   0.000304   0.139492   0.002180
 675  16  -1.106875  -6.481334  -0.849772  -0.000195   0.180810  -0.001076
 676  16  -0.618451  -6.199351  -1.688595  -0.000308   0.180810  -0.001702
 677   7  -1.739414  -5.727739  -1.573756   0.000717   0.497485   0.001442
 678   7  -4.634650  -1.939556   2.427009   0.000664   0.305827   0.002173
 679  19  -4.633647  -1.354130   3.324663  -0.000011   0.305827  -0.000035
 680  22  -5.375511  -1.186869   2.539498  -0.000118   0.305827  -0.000385
 681  19  -4.103862  -1.856800   4.039429  -0.000549   0.366334  -0.001498
 682   7  -3.878974  -2.914446   2.888006   0.001156   0.523239   0.002210
 683  21  -5.855366  -0.885831  -2.784790   0.000019   0.029524   0.000627
 684   7  -5.181915  -2.150148  -2.450544   0.000156   0.041931   0.003718
 685  22  -5.923006  -1.281270   2.304979  -0.000030   0.005943  -0.005076
 686   7  -4.865230  -2.404896   2.179354   0.000055   0.008491   0.006531
 687   8   3.843213  -1.845794  -3.219200   0.002152   0.122510   0.017564
 688   9   3.863791  -2.232901  -3.021699   0.002357   0.122510   0.019241
 689  14   3.156993  -2.261290  -3.766396   0.001182   0.122510   0.009650
 690   9   4.714574  -2.117149  -2.551721   0.003042   0.188215   0.016163
 691   8   4.891508  -1.486870  -2.694934   0.002535   0.188215   0.013471
 692  14   2.608996  -1.216659  -4.918605   0.000258   0.233628   0.001105
 693  14   2.927376  -2.085046  -4.470946   0.000164   0.233628   0.000700
 694   8   3.664169  -0.906029  -3.887172   0.004445   0.651516   0.006823
 695  26   4.962781   1.449694  -4.098686  -0.000509   0.227335  -0.002240
 696   8   4.032905   0.776812  -4.019786   0.000482   0.319994   0.001507
 697   9   2.769859  -4.300869  -2.253281   0.001516   0.232076   0.006533
 698  14   2.143701  -4.158262  -3.061302   0.000686   0.232076   0.002957
 699  16   2.274249  -4.871285  -2.151328   0.000459   0.232076   0.001977
 700  14   2.888776  -2.862642  -4.127954   0.000110   0.253242   0.000434
 701  14   2.432014  -3.760432  -3.804577  -0.000133   0.253242  -0.000524
 702   9   3.580110  -3.353605  -2.783981   0.006567   0.710703   0.009240
 703   9   2.256965  -2.117464   4.515696   0.000284   0.178512   0.001591
 704  15   1.647335  -2.511153   4.697986  -0.000282   0.178512  -0.001579
 705  20   1.722758  -1.565229   4.884013  -0.000301   0.178512  -0.001687
 706  15   1.932404  -3.651229   4.536543  -0.000685   0.261059  -0.002623
 707   9   2.777274  -2.926231   4.336228   0.000588   0.367712   0.001600
 708  16   2.631128  -5.503305  -1.627545  -0.000133   0.188206  -0.000708
 709  16   3.087315  -5.960887  -0.423526  -0.000853   0.384115  -0.002222
 710   9   3.623724  -4.906564  -1.230890   0.001727   0.516835   0.003342
 711   9   4.031314  -5.373824   0.194123   0.000634   0.265162   0.002392
 712   9   6.600988  -1.818433   0.000759   0.000111   0.080248   0.001388
 713  17   6.689709  -1.910912   0.273714  -0.000150   0.080248  -0.001870
 714  25   7.043003  -1.013561   0.105209  -0.000008   0.080248  -0.000104
 715   9   5.302151  -0.442266   3.326860   0.000077   0.080248   0.000962
 716  17   5.508904  -0.659804   3.297556  -0.000098   0.080248  -0.001220
 717  25   5.900439   0.197030   3.031125  -0.000019   0.080248  -0.000240
 718  17   5.232617  -1.218069   3.684902  -0.000128   0.072086  -0.001780
 719  17   4.721567  -2.229593   3.986719  -0.000415   0.162541  -0.002554
 720  17   4.444912  -3.570644   3.635657  -0.000701   0.162541  -0.004311
 721   9   4.679662  -1.369131   3.893369  -0.000027   0.155628  -0.000176
 722   9   4.116777  -2.850153   3.987916  -0.000293   0.155628  -0.001880
 723   9   4.005476  -4.017254   3.439783  -0.000184   0.088069  -0.002087
 724  17   4.815117  -4.669313   2.229611  -0.000260   0.070613  -0.003678
 725  17   5.391044  -4.524647   1.244192  -0.000554   0.158446  -0.003494
 726  17   6.122124  -3.675235   0.424961  -0.000251   0.158446  -0.001585
 727  17   6.571404  -2.628756   0.261557  -0.000092   0.070613  -0.001296
 728   9   4.690469  -4.794570   1.652216  -0.000510   0.153149  -0.003333
 729   9   5.517985  -4.279429   0.435550  -0.000038   0.153149  -0.000247
 730   9   6.237727  -2.996874  -0.081606   0.000129   0.153149   0.000840
 731  20   2.095048  -0.812506   5.127126  -0.001061   0.270127  -0.003927
 732  20   2.747469   0.302207   4.807266  -0.000858   0.270127  -0.003177
 733   9   3.251009  -0.918653   4.347336   0.003088   0.737574   0.004186
 734  25   7.405223  -0.652030  -0.080808   0.000007   0.018770   0.000371
 735   9   6.691196  -1.806820  -0.227636   0.000171   0.026498   0.006443
 736  25   6.063972   0.770857   3.135698  -0.000038   0.071675  -0.000525
 737   9   5.183060  -0.207808   3.501354   0.000348   0.101176   0.003438
 738  21  -3.742183   3.042022  -3.967092   0.000166   0.047581   0.003497
 739  11  -2.059955   3.522904  -4.085868   0.000159   0.047581   0.003351
 740  23  -2.451469   5.519820  -0.344025   0.000255   0.246159   0.001035
 741  23  -2.945837   5.500786  -1.224723   0.000594   0.491858   0.001209
 742  11  -1.128734   5.279636  -1.521710   0.000378   0.491858   0.000769
 743  11  -1.630933   5.183469  -2.392880   0.000175   0.246159   0.000710
 744  24   2.369743   5.699379  -0.439412  -0.000004   0.438199  -0.000009
 745  11   0.916872   5.327213  -1.248510   0.000044   0.438199   0.000101
 746  26   3.756680   3.730251  -4.168972   0.000110   0.261375   0.000423
 747  26   3.750552   4.417027  -3.724972   0.000293   0.261375   0.001121
 748  11   2.021089   4.096333  -4.005983  -0.000069   0.522278  -0.000132
 749  22  -6.928948  -1.500986   0.520938   0.000506   0.287085   0.001762
 750  22  -6.442681  -1.535504   1.626259  -0.000015   0.573899  -0.000025
 751  12  -5.940598  -2.904194   0.548407  -0.000058   0.573899  -0.000102
 752  12  -5.370213  -2.875735   1.612941   0.000428   0.287085   0.001492
 753  21  -4.215147   2.329735  -4.420028  -0.000616   0.222450  -0.002767
 754  21  -5.081736   1.512876  -4.645746  -0.002429   0.445450  -0.005452
 755  21  -5.768887   0.279591  -4.218473  -0.002341   0.445450  -0.005256
 756  21  -5.853850  -0.611380  -3.401077  -0.000523   0.222450  -0.002352
 757  13  -3.753418   1.362171  -5.182192  -0.001759   0.445450  -0.003948
 758  13  -4.701601   0.232271  -5.184691  -0.002458   0.445450  -0.005519
 759  13  -5.044490  -0.955021  -4.379399  -0.001842   0.445450  -0.004135
 760  16   0.647850  -5.877954  -2.536680   0.000232   0.242339   0.000958
 761  16   1.633137  -5.589618  -2.432036   0.000415   0.484335   0.000856
 762  14   0.885742  -4.811188  -3.844881   0.000350   0.484335   0.000722
 763  14   1.845117  -4.462600  -3.693332   0.000145   0.242339   0.000600
 764  19  -3.142640  -2.407389   4.794046   0.000166   0.268201   0.000618
 765  19  -2.340882  -2.143985   5.564716   0.000488   0.536109   0.000910
 766  15  -1.940607  -3.587249   4.594430  -0.000383   0.536109  -0.000715
 767  15  -1.097323  -3.265540   5.295506  -0.000160   0.268201  -0.000598
 768  20   1.117022  -1.383533   5.467283   0.000091   0.259879   0.000350
 769  15   1.149720  -2.721148   5.118058  -0.000185   0.259879  -0.000713
 770  25   6.526264   0.358258   3.042182  -0.000256   0.261009  -0.000982
 771  25   7.351938  -0.209361   2.277005  -0.001796   0.522420  -0.003438
 772  25   7.621144  -0.664094   0.843202  -0.001343   0.522420  -0.002570
 773  17   6.277484  -1.099575   3.058007  -0.001256   0.522420  -0.002403
 774  17   7.027287  -1.724520   1.882301  -0.001847   0.522420  -0.003535
 775  17   6.981887  -1.983632   0.649327  -0.000119   0.261009  -0.000455
 776  23  -4.646514   4.961374   2.609307   0.000324   0.237252   0.001367
 777  23  -3.911858   5.550439   2.071323  -0.000385   0.474382  -0.000812
 778  23  -2.909958   5.616100   1.205802  -0.000492   0.474382  -0.001037
 779  18  -3.387871   5.006743   3.544559  -0.000012   0.474382  -0.000025
 780  18  -2.417590   5.489679   2.781297  -0.000441   0.474382  -0.000931
 781  18  -1.625835   5.325213   2.058650   0.000010   0.237252   0.000040
 782  24   1.886365   5.530200   1.309173  -0.000096   0.280270  -0.000341
 783  24   2.366402   5.479063   2.184935  -0.000585   0.559240  -0.001046
 784  24   2.840545   5.011777   2.931154   0.000019   0.280270   0.000066
 785  18   0.147803   5.241159   2.679074   0.000511   0.559240   0.000913
 786  18   0.744909   4.916741   3.694075   0.000836   0.559240   0.001494
 787  22  -6.046809  -0.878455   2.929730  -0.000113   0.266028  -0.000424
 788  22  -6.384218   0.123769   3.462955  -0.000555   0.531981  -0.001043
 789  22  -6.337427   1.289081   3.669080   0.000198   0.266028   0.000743
 790  19  -5.150163  -0.750384   4.263109  -0.000417   0.531981  -0.000784
 791  19  -5.331407   0.601394   4.724203   0.000094   0.531981   0.000176
 =====================================================


   1 warning(s) detected.
     A line exceeding 80 characters begins with "http://cactus.nci.ni".
 There may be a problem in your input file.

              7196214  WORDS OF DYNAMIC MEMORY USED
 EXECUTION OF GAMESS TERMINATED NORMALLY Wed Nov 23 19:44:17 2016
 DDI: 263640 bytes (0.3 MB / 0 MWords) used by master data server.

 ----------------------------------------
 CPU timing information for all processes
 ========================================
 0: 8893.984 + 2.276 = 8896.260
 ----------------------------------------
 ddikick.x: exited gracefully.
