----- GAMESS execution script -----

          ******************************************************
          *         GAMESS VERSION =  5 DEC 2014 (R1)          *
          *             FROM IOWA STATE UNIVERSITY             *
          * M.W.SCHMIDT, K.K.BALDRIDGE, J.A.BOATZ, S.T.ELBERT, *
          *   M.S.GORDON, J.H.JENSEN, S.KOSEKI, N.MATSUNAGA,   *
          *          K.A.NGUYEN, S.J.SU, T.L.WINDUS,           *
          *       TOGETHER WITH M.DUPUIS, J.A.MONTGOMERY       *
          *         J.COMPUT.CHEM.  14, 1347-1363(1993)        *
          **************** 64 BIT LINUX VERSION ****************

 EXECUTION OF GAMESS BEGUN Wed Nov 23 17:56:28 2016

            ECHO OF THE FIRST FEW INPUT CARDS -
 INPUT CARD>! SELECT RESTRICTED HARTREE-FOCK AS DEFAULT                                     
 INPUT CARD>$contrl scftyp=rhf $end                                                         
 INPUT CARD>                                                                                
 INPUT CARD>! THEORY: HF OR DFT                                                             
 INPUT CARD> $contrl mplevl=0 $end                                                          
 INPUT CARD>                                                                                
 INPUT CARD> $system timlim=10000 mwords=20 $end                                            
 INPUT CARD> $SCF DIRSCF=.TRUE. $end                                                        
 INPUT CARD>                                                                                
 INPUT CARD>                                                                                
 INPUT CARD>! BASIS SETS                                                                    
 INPUT CARD>! 6-311G(d,p)                                                                   
 INPUT CARD> $BASIS GBASIS=N311 NGAUSS=6 NDFUNC=1 NPFUNC=1 $END                             
 INPUT CARD>                                                                                
 INPUT CARD>! One of the following                                                          
 INPUT CARD> $guess guess=HUCKEL $end                                                       
 INPUT CARD>                                                                                
 INPUT CARD> $statpt projct=.FALSE. $end                                                    
 INPUT CARD> $STATPT IFREEZ(1)=1,2,3 $END                                                   
 INPUT CARD>                                                                                
 INPUT CARD>! Optimize the geometry with COSMO effects                                      
 INPUT CARD> $statpt opttol=0.0005 nstep=50 $end                                            
 INPUT CARD> $contrl nzvar=1 $end                                                           
 INPUT CARD> $zmat dlc=.t. auto=.t. $end                                                    
 INPUT CARD> $contrl runtyp=OPTIMIZE maxit=200 $end                                         
 INPUT CARD>                                                                                
 INPUT CARD>! Run COSMO on perfect conductor                                                
 INPUT CARD> $COSGMS PRFCND=.TRUE. $end                                                     
 INPUT CARD>                                                                                
 INPUT CARD>! Specifying RSOLV                                                              
 INPUT CARD> $COSGMS COSRAD = 1.4 $end                                                      
 INPUT CARD>                                                                                
 INPUT CARD>! available memory                                                              
 INPUT CARD> $SYSTEM MWORDS=40 $END                                                         
 INPUT CARD>                                                                                
 INPUT CARD> $DATA                                                                          
 INPUT CARD>Benz[a]anthracene, ID: C56553                                                   
 INPUT CARD>C1                                                                              
 INPUT CARD>C      6.0      4.2191000000    1.5148000000    5.1012000000                    
 INPUT CARD>C      6.0      4.6355000000    1.4191000000    3.7117000000                    
 INPUT CARD>C      6.0      5.1002000000    1.0534000000    6.1203000000                    
 INPUT CARD>C      6.0      2.9862000000    2.0440000000    5.4525000000                    
 INPUT CARD>C      6.0      5.8934000000    0.8759000000    3.3999000000                    
 INPUT CARD>C      6.0      3.8017000000    1.8608000000    2.6678000000                    
 INPUT CARD>C      6.0      4.7226000000    1.1350000000    7.4526000000                    
 INPUT CARD>C      6.0      6.3831000000    0.5027000000    5.7512000000                    
 INPUT CARD>C      6.0      2.5954000000    2.1307000000    6.8003000000                    
 INPUT CARD>C      6.0      6.7604000000    0.4183000000    4.4584000000                    
 INPUT CARD>C      6.0      6.2977000000    0.7826000000    2.0554000000                    
 INPUT CARD>C      6.0      4.2109000000    1.7635000000    1.3538000000                    
   40000000 WORDS OF MEMORY AVAILABLE

     BASIS OPTIONS
     -------------
     GBASIS=N311         IGAUSS=       6      POLAR=POPN311 
     NDFUNC=       1     NFFUNC=       0     DIFFSP=       F
     NPFUNC=       1      DIFFS=       F     BASNAM=        


     RUN TITLE
     ---------
 Benz[a]anthracene, ID: C56553                                                   

 THE POINT GROUP OF THE MOLECULE IS C1      
 THE ORDER OF THE PRINCIPAL AXIS IS     0

 ATOM      ATOMIC                      COORDINATES (BOHR)
           CHARGE         X                   Y                   Z
 C           6.0     7.9729429148        2.8625569262        9.6398702086
 C           6.0     8.7598248161        2.6817101492        7.0140959486
 C           6.0     9.6379804826        1.9906373555       11.5656899627
 C           6.0     5.6430997445        3.8625999189       10.3037309481
 C           6.0    11.1369111360        1.6552109926        6.4248793857
 C           6.0     7.1841712875        3.5164021180        5.0414109900
 C           6.0     8.9244199496        2.1448389961       14.0833718961
 C           6.0    12.0623099522        0.9499652540       10.8681921006
 C           6.0     4.9045948285        4.0264391620       12.8507036343
 C           6.0    12.7753035674        0.7904723807        8.4251543437
 C           6.0    11.9009273529        1.4788995580        3.8841427952
 C           6.0     7.9574471617        3.3325317793        2.5583110422
 C           6.0     6.5622624650        3.1579210981       14.7614055805
 C           6.0     2.5106899473        5.0525603734       13.5546265647
 C           6.0    10.3279194407        2.3084892666        1.9760864654
 C           6.0     5.7957896043        3.3317758890       17.3429602523
 C           6.0     1.8332231807        5.1931559869       16.0371595948
 C           6.0     3.4967489677        4.3210474435       17.9554204449
 H           1.0     4.3624324427        4.5342085349        8.8051782398
 H           1.0     5.3265706416        4.3167010738        5.5272595415
 H           1.0    10.2048982789        1.4737972978       15.5692634402
 H           1.0    13.3066945151        0.2932854733       12.3884766577
 H           1.0    14.6157077068        0.0000000000        7.8979207931
 H           1.0    13.7570162180        0.6765219036        3.4353328731
 H           1.0     6.7209994479        3.9859990259        1.0334911427
 H           1.0     1.2392823027        5.7198226196       12.0626878974
 H           1.0    10.9250728528        2.1703502969        0.0000000000
 H           1.0     7.0911967689        2.6556319305       18.8103324818
 H           1.0     0.0000000000        5.9781481622       16.5885816380
 H           1.0     2.8990286378        4.4589974406       19.9313179377

          INTERNUCLEAR DISTANCES (ANGS.)




     $CONTRL OPTIONS
     ---------------
 SCFTYP=RHF          RUNTYP=OPTIMIZE     EXETYP=RUN     
 MPLEVL=       0     CITYP =NONE         CCTYP =NONE         VBTYP =NONE    
 DFTTYP=NONE         TDDFT =NONE    
 MULT  =       1     ICHARG=       0     NZVAR =       1     COORD =UNIQUE  
 PP    =NONE         RELWFN=NONE         LOCAL =NONE         NUMGRD=       F
 ISPHER=      -1     NOSYM =       0     MAXIT =     200     UNITS =ANGS    
 PLTORB=       F     MOLPLT=       F     AIMPAC=       F     FRIEND=        
 NPRINT=       7     IREST =       0     GEOM  =INPUT   
 NORMF =       0     NORMP =       0     ITOL  =      20     ICUT  =       9
 INTTYP=BEST         GRDTYP=BEST         QMTTOL= 1.0E-06

     $SYSTEM OPTIONS
     ---------------
  REPLICATED MEMORY=    40000000 WORDS (ON EVERY NODE).
 DISTRIBUTED MEMDDI=           0 MILLION WORDS IN AGGREGATE,
 MEMDDI DISTRIBUTED OVER   1 PROCESSORS IS           0 WORDS/PROCESSOR.
 TOTAL MEMORY REQUESTED ON EACH PROCESSOR=    40000000 WORDS.
 TIMLIM=       10000.00 MINUTES, OR       6.9 DAYS.
 PARALL= F  BALTYP=  DLB     KDIAG=    0  COREFL= F
 MXSEQ2=     300 MXSEQ3=     150  mem10=         0

     $COSGMS OPTIONS
     ---------------
     EPSI  =   INFTY     NSPA  =      92     COSRAD=    1.40
     DISEX =   10.00     OUTCHG=DBLCAV       COSBUG=       F
     COSWRT=       F     DCOSMO=       F

     SYMMETRY COORDINATES WILL NOT BE USED FOR 
     THE COSMO CALCULATION, EVEN IF SPECIFIED:
         -- SWITCHING TO C1 POINT GROUP --


     DEFINITION OF CAVITY
     ---------------------------
     ATOM         COORDINATES           RADIUS 
     1    7.9729    2.8626    9.6399    2.0000
     2    8.7598    2.6817    7.0141    2.0000
     3    9.6380    1.9906   11.5657    2.0000
     4    5.6431    3.8626   10.3037    2.0000
     5   11.1369    1.6552    6.4249    2.0000
     6    7.1842    3.5164    5.0414    2.0000
     7    8.9244    2.1448   14.0834    2.0000
     8   12.0623    0.9500   10.8682    2.0000
     9    4.9046    4.0264   12.8507    2.0000
    10   12.7753    0.7905    8.4252    2.0000
    11   11.9009    1.4789    3.8841    2.0000
    12    7.9574    3.3325    2.5583    2.0000
    13    6.5623    3.1579   14.7614    2.0000
    14    2.5107    5.0526   13.5546    2.0000
    15   10.3279    2.3085    1.9761    2.0000
    16    5.7958    3.3318   17.3430    2.0000
    17    1.8332    5.1932   16.0372    2.0000
    18    3.4967    4.3210   17.9554    2.0000
    19    4.3624    4.5342    8.8052    1.3000
    20    5.3266    4.3167    5.5273    1.3000
    21   10.2049    1.4738   15.5693    1.3000
    22   13.3067    0.2933   12.3885    1.3000
    23   14.6157    0.0000    7.8979    1.3000
    24   13.7570    0.6765    3.4353    1.3000
    25    6.7210    3.9860    1.0335    1.3000
    26    1.2393    5.7198   12.0627    1.3000
    27   10.9251    2.1704    0.0000    1.3000
    28    7.0912    2.6556   18.8103    1.3000
    29    0.0000    5.9781   16.5886    1.3000
    30    2.8990    4.4590   19.9313    1.3000

          ----------------
          PROPERTIES INPUT
          ----------------

     MOMENTS            FIELD           POTENTIAL          DENSITY
 IEMOM =       1   IEFLD =       0   IEPOT =       0   IEDEN =       0
 WHERE =COMASS     WHERE =NUCLEI     WHERE =NUCLEI     WHERE =NUCLEI  
 OUTPUT=BOTH       OUTPUT=BOTH       OUTPUT=BOTH       OUTPUT=BOTH    
 IEMINT=       0   IEFINT=       0                     IEDINT=       0
                                                       MORB  =       0
          EXTRAPOLATION IN EFFECT
          SOSCF IN EFFECT
 ORBITAL PRINTING OPTION: NPREO=     1   414     2     1

     -------------------------------
     INTEGRAL TRANSFORMATION OPTIONS
     -------------------------------
     NWORD  =            0
     CUTOFF = 1.0E-09     MPTRAN =       0
     DIRTRF =       T     AOINTS =DUP     

          ----------------------
          INTEGRAL INPUT OPTIONS
          ----------------------
 NOPK  =       1 NORDER=       0 SCHWRZ=       T


 -----------------------------------------------
  STATISTICS ON AUTOMATIC COORDINATE GENERATION 
 -----------------------------------------------
  NUMBER OF USER SPECIFIED BONDS                             0
  NUMBER OF BONDS                                           33
  NUMBER OF ANGLES                                          54
  NUMBER OF TORSIONS                                        84
  NUMBER OF EXTRA COORD.                                     0
  NUMBER OF EXTRA COORD. FOR CONSTRAINTS                     0
  NUMBER OF CONSTRAINED COORD.                               0

  TOTAL NUMBER OF PRIMITIVES                               171
 -----------------------------------------------

   --- ENCODED Z MATRIX ---
 COORD  TYPE   I   J   K   L   M   N
    1      1    1   2
    2      1    1   4
    3      1    1   3
    4      1    2   5
    5      1    2   6
    6      1    3   8
    7      1    3   7
    8      1    4  19
    9      1    4   9
   10      1    5  11
   11      1    5  10
   12      1    6  20
   13      1    6  12
   14      1    7  13
   15      1    7  21
   16      1    8  22
   17      1    8  10
   18      1    9  14
   19      1    9  13
   20      1   10  23
   21      1   11  24
   22      1   11  15
   23      1   12  25
   24      1   12  15
   25      1   13  16
   26      1   14  26
   27      1   14  17
   28      1   15  27
   29      1   16  28
   30      1   16  18
   31      1   17  18
   32      1   17  29
   33      1   18  30
   34      2    1   3   7
   35      2    1   4   9
   36      2    1   4  19
   37      2    1   2   5
   38      2    1   3   8
   39      2    1   2   6
   40      2    2   1   4
   41      2    2   5  10
   42      2    2   6  20
   43      2    2   5  11
   44      2    2   6  12
   45      2    2   1   3
   46      2    3   1   4
   47      2    3   7  13
   48      2    3   8  10
   49      2    3   8  22
   50      2    3   7  21
   51      2    4   9  13
   52      2    4   9  14
   53      2    5  10  23
   54      2    5  10   8
   55      2    5  11  15
   56      2    5  11  24
   57      2    5   2   6
   58      2    6  12  15
   59      2    6  12  25
   60      2    7   3   8
   61      2    7  13  16
   62      2    7  13   9
   63      2    8  10  23
   64      2    9  13  16
   65      2    9   4  19
   66      2    9  14  17
   67      2    9  14  26
   68      2   10   5  11
   69      2   10   8  22
   70      2   11  15  27
   71      2   11  15  12
   72      2   12   6  20
   73      2   12  15  27
   74      2   13   7  21
   75      2   13  16  18
   76      2   13  16  28
   77      2   13   9  14
   78      2   14  17  29
   79      2   14  17  18
   80      2   15  12  25
   81      2   15  11  24
   82      2   16  18  30
   83      2   16  18  17
   84      2   17  18  30
   85      2   17  14  26
   86      2   18  17  29
   87      2   18  16  28
   88      3    1   4   9  14
   89      3    1   3   7  13
   90      3    1   2   5  10
   91      3    1   2   5  11
   92      3    1   2   6  12
   93      3    1   2   6  20
   94      3    1   3   7  21
   95      3    1   3   8  10
   96      3    1   3   8  22
   97      3    1   4   9  13
   98      3    2   1   3   8
   99      3    2   5  10  23
  100      3    2   5  10   8
  101      3    2   6  12  15
  102      3    2   1   4   9
  103      3    2   1   4  19
  104      3    2   1   3   7
  105      3    2   5  11  15
  106      3    2   5  11  24
  107      3    2   6  12  25
  108      3    3   8  10  23
  109      3    3   8  10   5
  110      3    3   1   4   9
  111      3    3   7  13  16
  112      3    3   7  13   9
  113      3    3   1   2   5
  114      3    3   1   2   6
  115      3    3   1   4  19
  116      3    4   9  13   7
  117      3    4   1   2   5
  118      3    4   1   3   7
  119      3    4   1   2   6
  120      3    4   9  14  17
  121      3    4   9  14  26
  122      3    4   1   3   8
  123      3    4   9  13  16
  124      3    5  11  15  27
  125      3    5  11  15  12
  126      3    5   2   6  12
  127      3    5  10   8  22
  128      3    5   2   6  20
  129      3    6   2   5  10
  130      3    6  12  15  27
  131      3    6  12  15  11
  132      3    6   2   5  11
  133      3    7   3   8  22
  134      3    7   3   8  10
  135      3    7  13   9  14
  136      3    7  13  16  18
  137      3    7  13  16  28
  138      3    8   3   7  21
  139      3    8   3   7  13
  140      3    8  10   5  11
  141      3    9  14  17  29
  142      3    9  14  17  18
  143      3    9  13  16  18
  144      3    9  13  16  28
  145      3    9  13   7  21
  146      3   10   5  11  24
  147      3   10   5  11  15
  148      3   11   5  10  23
  149      3   11  15  12  25
  150      3   12  15  11  24
  151      3   13   9   4  19
  152      3   13   9  14  26
  153      3   13   9  14  17
  154      3   13  16  18  30
  155      3   13  16  18  17
  156      3   14   9  13  16
  157      3   14  17  18  30
  158      3   14  17  18  16
  159      3   14   9   4  19
  160      3   15  12   6  20
  161      3   16  13   7  21
  162      3   16  18  17  29
  163      3   17  18  16  28
  164      3   18  17  14  26
  165      3   20   6  12  25
  166      3   22   8  10  23
  167      3   24  11  15  27
  168      3   25  12  15  27
  169      3   26  14  17  29
  170      3   28  16  18  30
  171      3   29  17  18  30

          INDEP./SYM. INTERNAL COORDINATES
          --------------------------------
 CRD  1=   0.2870 (  1)  0.2311 (  2)  0.1229 (  4)  0.1093 (  5) -0.1146 (  6)
          -0.1435 (  7)  0.2505 (  9)  0.1246 ( 13) -0.1837 ( 14) -0.1658 ( 17)
           0.1048 ( 18)  0.1083 ( 27)  0.1276 ( 34)  0.1460 ( 38)  0.2567 ( 39)
           0.3339 ( 40)  0.1276 ( 43) -0.1714 ( 45) -0.1625 ( 46)  0.1892 ( 52)
          -0.1671 ( 57) -0.2736 ( 60) -0.1701 ( 61)  0.1423 ( 64) -0.2218 ( 68)
          -0.1599 ( 77)
 CRD  2=   0.2168 ( 88)  0.1013 ( 89) -0.1284 ( 90) -0.1983 ( 91)  0.2080 ( 92)
           0.1413 ( 93) -0.1381 ( 95)  0.1102 ( 97)  0.1141 ( 98)  0.1086 (100)
          -0.3389 (102) -0.1557 (103)  0.2295 (104)  0.1202 (108) -0.1836 (110)
          -0.2606 (111) -0.1742 (112) -0.1203 (114)  0.1720 (117) -0.1893 (120)
          -0.1033 (121)  0.1536 (123) -0.1337 (133) -0.2543 (134)  0.1109 (136)
           0.2182 (139)  0.1790 (140)
 CRD  3=  -0.3247 (  1) -0.1194 (  3) -0.1856 (  5) -0.1175 (  6) -0.3330 (  7)
          -0.1433 ( 13) -0.2382 ( 14) -0.2993 ( 25) -0.1529 ( 30) -0.1313 ( 35)
           0.1442 ( 38) -0.2299 ( 39)  0.1478 ( 46) -0.1334 ( 51)  0.1901 ( 52)
           0.1697 ( 57) -0.1023 ( 60) -0.3143 ( 61)  0.1825 ( 62)  0.1318 ( 64)
           0.1040 ( 65)  0.1038 ( 87)
 CRD  4=  -0.1800 ( 88) -0.1799 ( 89) -0.1033 ( 94) -0.1606 ( 97)  0.1860 ( 98)
           0.1042 (100)  0.1710 (104) -0.1089 (105) -0.1368 (109) -0.2166 (113)
          -0.2505 (114) -0.1215 (115)  0.1821 (116) -0.2479 (117)  0.2016 (118)
          -0.2818 (119)  0.2167 (122)  0.1247 (123)  0.1079 (129)  0.2010 (135)
          -0.1697 (136) -0.1362 (137) -0.1186 (138) -0.1952 (139)  0.1211 (140)
          -0.1112 (143) -0.1257 (147) -0.1057 (152)  0.1436 (156)
 CRD  5=   0.1199 (  1)  0.2800 (  2)  0.1132 (  4) -0.1261 (  5)  0.2161 (  6)
           0.1356 (  7)  0.2537 (  9)  0.2564 ( 10)  0.1358 ( 14)  0.1858 ( 17)
           0.3092 ( 18)  0.1458 ( 27) -0.1095 ( 34)  0.2119 ( 37) -0.1989 ( 39)
          -0.1484 ( 41) -0.1001 ( 42)  0.1218 ( 47) -0.1669 ( 51)  0.2782 ( 52)
           0.1132 ( 56)  0.1528 ( 60)  0.2012 ( 68) -0.1023 ( 74) -0.1113 ( 77)
          -0.1180 ( 85)
 CRD  6=   0.1380 (  1)  0.1058 (  5) -0.2764 (  6)  0.3277 ( 10)  0.3432 ( 11)
          -0.1845 ( 14) -0.1786 ( 18)  0.1829 ( 22)  0.1848 ( 34) -0.1792 ( 41)
          -0.1504 ( 43) -0.1660 ( 46) -0.1967 ( 49)  0.1334 ( 51)  0.1430 ( 53)
          -0.1993 ( 60) -0.1039 ( 62) -0.1868 ( 63)  0.3296 ( 68)  0.1496 ( 69)
          -0.1267 ( 81)
 CRD  7=   0.1332 (  2) -0.2076 (  3) -0.3310 (  5) -0.1604 (  7) -0.1520 ( 11)
           0.1408 ( 14) -0.1129 ( 17)  0.1772 ( 25)  0.1295 ( 30)  0.1514 ( 36)
           0.1662 ( 37) -0.1907 ( 39)  0.2428 ( 40) -0.1049 ( 42) -0.2071 ( 45)
           0.1179 ( 48) -0.1131 ( 49) -0.2552 ( 50) -0.1374 ( 52) -0.1210 ( 54)
          -0.1198 ( 55) -0.1880 ( 60)  0.2411 ( 61) -0.1447 ( 62) -0.1184 ( 65)
           0.1240 ( 72)  0.2011 ( 74)
 CRD  8=   0.1277 (  1)  0.1592 (  2) -0.1832 (  5)  0.1103 (  6)  0.1388 (  7)
          -0.2445 (  9)  0.1329 ( 10) -0.1563 ( 11) -0.2244 ( 14) -0.2213 ( 18)
          -0.1834 ( 19) -0.2399 ( 25)  0.2548 ( 36)  0.1492 ( 37)  0.1317 ( 40)
           0.1192 ( 43)  0.2397 ( 50) -0.1455 ( 52) -0.1092 ( 53) -0.1137 ( 57)
           0.1496 ( 60) -0.1410 ( 61) -0.2386 ( 65) -0.2169 ( 74)  0.1210 ( 85)
           0.1264 ( 87)
 CRD  9=   0.2469 (  2)  0.1677 (  3)  0.2112 (  4)  0.2151 (  5)  0.1613 (  6)
          -0.1047 (  7) -0.2327 (  9)  0.2628 ( 11)  0.1551 ( 14)  0.1283 ( 16)
           0.1013 ( 18)  0.1142 ( 20) -0.1659 ( 25) -0.1156 ( 27) -0.1147 ( 34)
           0.2313 ( 36)  0.1952 ( 38)  0.1300 ( 41)  0.1125 ( 42) -0.1407 ( 43)
          -0.1028 ( 45) -0.1005 ( 50)  0.1514 ( 53)  0.1358 ( 62) -0.1659 ( 64)
          -0.2649 ( 65) -0.1034 ( 72)  0.1115 ( 74) -0.1020 ( 76)  0.1776 ( 77)
          -0.1163 ( 79)  0.1025 ( 83)
 CRD 10=  -0.1861 ( 88) -0.2192 ( 90) -0.2247 ( 91)  0.1489 ( 92)  0.1611 ( 93)
          -0.1551 ( 95) -0.1320 ( 96) -0.1077 ( 97)  0.1532 ( 99)  0.1333 (100)
           0.1079 (105)  0.1459 (106)  0.1638 (111)  0.1198 (113)  0.1191 (114)
           0.1268 (117)  0.1261 (119)  0.1762 (120)  0.1482 (126)  0.1604 (128)
          -0.2185 (129) -0.1235 (130) -0.1654 (131) -0.2240 (132) -0.1113 (134)
          -0.2008 (136) -0.1439 (139)  0.1389 (140) -0.1483 (141) -0.1158 (142)
          -0.1183 (143)  0.1404 (146)  0.1023 (147)  0.1588 (148) -0.1191 (149)
           0.1438 (154)  0.1036 (155) -0.1166 (159)
 CRD 11=  -0.1140 (  1)  0.1693 (  4)  0.2531 (  6)  0.1083 (  7)  0.1303 (  8)
          -0.1560 ( 10)  0.1056 ( 11) -0.1697 ( 13) -0.1356 ( 14) -0.1623 ( 15)
          -0.2583 ( 18) -0.1035 ( 19)  0.1766 ( 20)  0.2301 ( 25) -0.1206 ( 28)
           0.1335 ( 33) -0.1119 ( 34)  0.1544 ( 41)  0.1452 ( 42) -0.1072 ( 43)
           0.1768 ( 47)  0.1503 ( 51)  0.1201 ( 53) -0.1580 ( 54)  0.1169 ( 57)
          -0.1299 ( 62)  0.1337 ( 64) -0.1817 ( 67)  0.1459 ( 71) -0.2253 ( 74)
          -0.1370 ( 77)  0.1048 ( 79) -0.1803 ( 83)
 CRD 12=  -0.1527 (  3) -0.1261 (  8) -0.2175 ( 19)  0.2891 ( 27)  0.2981 ( 30)
           0.3794 ( 31)  0.2329 ( 32)  0.1977 ( 33)  0.1285 ( 35) -0.1171 ( 36)
           0.1168 ( 66) -0.2722 ( 67)  0.1357 ( 75) -0.3088 ( 76) -0.1888 ( 79)
          -0.1434 ( 83)  0.1930 ( 84)  0.1554 ( 85)  0.2076 ( 86)  0.1730 ( 87)
 CRD 13=   0.2451 ( 13)  0.3582 ( 22)  0.2413 ( 23)  0.4591 ( 24)  0.2071 ( 28)
          -0.2584 ( 42)  0.1082 ( 44)  0.1002 ( 55) -0.3207 ( 56) -0.1720 ( 58)
          -0.1240 ( 71)  0.1502 ( 72)  0.1811 ( 73)  0.2581 ( 80)  0.2205 ( 81)
 CRD 14=   0.2487 ( 92)  0.1051 ( 93) -0.1575 (101) -0.1622 (105) -0.2033 (107)
          -0.1163 (109)  0.1804 (111)  0.1506 (112) -0.1940 (114) -0.1617 (116)
           0.1496 (120)  0.1367 (121) -0.1908 (123)  0.1984 (124)  0.1425 (125)
           0.1357 (126) -0.1435 (127)  0.1446 (129) -0.1579 (135)  0.1882 (140)
           0.1246 (144)  0.1343 (145) -0.1393 (146) -0.2840 (147)  0.1329 (152)
           0.1458 (153) -0.1871 (156) -0.1178 (157) -0.1428 (158)  0.1641 (161)
 CRD 15=  -0.1233 ( 12) -0.3676 ( 13) -0.1161 ( 17)  0.3271 ( 22)  0.1115 ( 31)
           0.2229 ( 42) -0.1955 ( 56)  0.1209 ( 58) -0.2956 ( 59)  0.3267 ( 70)
          -0.1113 ( 71) -0.3173 ( 72) -0.2155 ( 73)  0.1747 ( 80)  0.2942 ( 81)
 CRD 16=   0.1023 ( 26)  0.3517 ( 27) -0.1259 ( 29) -0.3676 ( 30) -0.2293 ( 67)
           0.1012 ( 75)  0.2276 ( 76)  0.3341 ( 78) -0.1206 ( 79) -0.3092 ( 82)
           0.1173 ( 83)  0.1919 ( 84)  0.3191 ( 85) -0.2135 ( 86) -0.3288 ( 87)
 CRD 17=   0.1654 (  3)  0.1897 (  8)  0.1204 ( 15) -0.1077 ( 17)  0.3633 ( 19)
           0.1075 ( 25)  0.1990 ( 26)  0.2092 ( 29)  0.4477 ( 31) -0.1349 ( 35)
           0.1184 ( 49) -0.1055 ( 52) -0.1191 ( 63) -0.1267 ( 66) -0.1434 ( 69)
          -0.1348 ( 75)  0.1216 ( 76) -0.2322 ( 78) -0.2238 ( 82)  0.1849 ( 84)
           0.1512 ( 86)
 CRD 18=  -0.1636 (  4) -0.1579 ( 12)  0.1735 ( 16)  0.3924 ( 17)  0.1096 ( 20)
          -0.1334 ( 21) -0.2071 ( 24)  0.1149 ( 31)  0.1011 ( 38)  0.1178 ( 41)
          -0.1131 ( 42)  0.1462 ( 44) -0.1387 ( 48) -0.2083 ( 49) -0.2814 ( 53)
           0.1362 ( 55) -0.1619 ( 56)  0.3605 ( 63)  0.3470 ( 69)  0.1548 ( 70)
 CRD 19=  -0.2192 (  4) -0.1167 (  5) -0.1697 ( 12)  0.1130 ( 13) -0.2574 ( 17)
          -0.1742 ( 21) -0.3630 ( 24) -0.2470 ( 42)  0.1341 ( 44)  0.2303 ( 49)
           0.1442 ( 53)  0.1346 ( 55) -0.1489 ( 56)  0.3055 ( 59) -0.2035 ( 63)
          -0.2080 ( 69)  0.2470 ( 70)  0.1130 ( 72) -0.1906 ( 73) -0.2201 ( 80)
 CRD 20=   0.1464 (  3)  0.1529 (  8)  0.1019 ( 15)  0.1299 ( 19) -0.1207 ( 22)
           0.2614 ( 27)  0.2494 ( 30) -0.1070 ( 31) -0.1217 ( 35) -0.1330 ( 59)
          -0.1826 ( 67) -0.1238 ( 70)  0.1745 ( 73) -0.1586 ( 76)  0.2715 ( 78)
           0.1524 ( 80) -0.1425 ( 81)  0.2822 ( 82) -0.2934 ( 84)  0.2324 ( 85)
          -0.3072 ( 86)  0.2127 ( 87)
 CRD 21=   0.1843 (  4)  0.2247 ( 12)  0.2139 ( 13)  0.2179 ( 21)  0.2209 ( 22)
           0.1231 ( 26)  0.1182 ( 27)  0.1203 ( 29)  0.1261 ( 30)  0.1071 ( 43)
          -0.1994 ( 44) -0.1952 ( 55)  0.1013 ( 58)  0.1912 ( 59) -0.1148 ( 66)
           0.2007 ( 70)  0.2128 ( 72) -0.2973 ( 73) -0.1122 ( 75)  0.1206 ( 78)
          -0.2925 ( 80)  0.2471 ( 81)  0.1149 ( 82) -0.1785 ( 84)  0.1297 ( 85)
          -0.1696 ( 86)  0.1432 ( 87)
 CRD 22=   0.2396 (  3)  0.2557 (  8)  0.1041 ( 10)  0.1077 ( 12)  0.2131 ( 15)
           0.1240 ( 21) -0.2349 ( 26) -0.2324 ( 29) -0.1039 ( 31) -0.2297 ( 35)
           0.1027 ( 36) -0.1989 ( 47)  0.1340 ( 51) -0.1271 ( 53) -0.1068 ( 55)
           0.1190 ( 62) -0.1253 ( 64)  0.1270 ( 65)  0.2542 ( 66) -0.1554 ( 67)
           0.1469 ( 74)  0.2522 ( 75) -0.1405 ( 76) -0.1365 ( 77) -0.1112 ( 79)
          -0.1335 ( 83)  0.1369 ( 84)  0.1258 ( 86) -0.1117 ( 87)
 CRD 23=   0.1278 (  6) -0.2578 (  7)  0.2492 ( 10)  0.1000 ( 12) -0.2658 ( 15)
           0.3113 ( 16) -0.2154 ( 20) -0.1033 ( 23)  0.1497 ( 28) -0.1252 ( 34)
           0.1237 ( 38)  0.1981 ( 47) -0.2945 ( 48)  0.2864 ( 49) -0.2381 ( 50)
          -0.1899 ( 53)  0.2341 ( 54)  0.1100 ( 56)  0.1585 ( 58) -0.1078 ( 71)
 CRD 24=  -0.1614 ( 11) -0.1726 ( 12) -0.1325 ( 13) -0.2440 ( 20)  0.2461 ( 21)
           0.2854 ( 23) -0.3535 ( 28) -0.1245 ( 48) -0.2085 ( 53)  0.1920 ( 54)
          -0.2110 ( 55)  0.1639 ( 56) -0.2886 ( 58)  0.1320 ( 59) -0.1075 ( 65)
          -0.1536 ( 70)  0.3296 ( 71) -0.1759 ( 73)  0.1565 ( 80)
 CRD 25=   0.1116 (  8)  0.1701 (  9) -0.1731 ( 14) -0.1291 ( 15) -0.2536 ( 26)
           0.2591 ( 29)  0.3526 ( 32) -0.3504 ( 33)  0.1305 ( 65)  0.1849 ( 66)
          -0.1504 ( 67) -0.1386 ( 74) -0.1871 ( 75)  0.1560 ( 76)  0.1409 ( 78)
          -0.3224 ( 79) -0.1410 ( 82)  0.3231 ( 83) -0.1821 ( 84)  0.1815 ( 86)
 CRD 26=   0.1301 ( 88) -0.1467 ( 92) -0.1128 ( 94) -0.1753 ( 96)  0.1613 ( 98)
           0.1954 ( 99)  0.1391 (100)  0.1344 (101)  0.1321 (105)  0.1430 (107)
          -0.1297 (108)  0.1061 (111) -0.1249 (115) -0.1240 (117)  0.1002 (118)
           0.1900 (122) -0.1232 (124) -0.1194 (135)  0.1475 (136)  0.1303 (137)
          -0.2038 (138) -0.1838 (139)  0.1472 (141)  0.1652 (142)  0.1774 (143)
           0.1602 (144)  0.1466 (146)  0.1988 (147)  0.1285 (148)  0.1090 (151)
          -0.1488 (156) -0.1100 (157) -0.1382 (158)  0.1634 (159)  0.1260 (161)
          -0.1206 (162)
 CRD 27=  -0.1145 ( 88) -0.1215 ( 97)  0.1641 (102)  0.1805 (103) -0.1013 (108)
           0.1413 (110)  0.1576 (115) -0.2388 (120) -0.1812 (121)  0.1190 (124)
           0.1470 (125)  0.1516 (126)  0.1465 (128)  0.1240 (134)  0.2222 (136)
           0.1372 (137)  0.1879 (141)  0.1807 (142)  0.1787 (143)  0.1029 (150)
          -0.1380 (151) -0.1742 (152) -0.2318 (153) -0.2272 (154) -0.2355 (155)
          -0.1310 (159) -0.1484 (163)  0.1218 (164)  0.1290 (169) -0.1401 (170)
 CRD 28=   0.1217 (  1) -0.1076 (  3)  0.1186 (  4)  0.1354 (  5)  0.2214 (  6)
          -0.1567 (  7)  0.1481 ( 10) -0.1209 ( 11) -0.1238 ( 12) -0.2469 ( 18)
           0.1538 ( 20)  0.1329 ( 21)  0.1026 ( 22)  0.2270 ( 23) -0.1907 ( 25)
          -0.1194 ( 27) -0.1065 ( 30) -0.1032 ( 32) -0.1141 ( 33) -0.2038 ( 36)
           0.1039 ( 37)  0.1681 ( 44) -0.1002 ( 45)  0.1176 ( 46)  0.1298 ( 48)
          -0.2277 ( 50) -0.1157 ( 54) -0.1360 ( 57) -0.1123 ( 58)  0.1431 ( 63)
           0.2776 ( 65) -0.1031 ( 67) -0.1820 ( 69) -0.1342 ( 72)  0.2317 ( 74)
           0.1336 ( 85)  0.1102 ( 87)
 CRD 29=  -0.1364 ( 89) -0.2109 ( 94) -0.1912 ( 95) -0.1898 ( 96) -0.1277 ( 99)
          -0.1364 (100) -0.1382 (101) -0.1003 (105) -0.1588 (106)  0.2333 (108)
           0.2423 (109)  0.1029 (111)  0.2408 (127)  0.1561 (130)  0.1294 (131)
          -0.2469 (133) -0.2483 (134) -0.1534 (138) -0.2140 (140)  0.1705 (145)
          -0.2054 (148) -0.1499 (160)  0.1768 (161) -0.1011 (165)  0.2319 (166)
           0.1076 (168)
 CRD 30=  -0.1776 (  1)  0.2268 (  5) -0.1446 (  6) -0.1621 (  7)  0.1179 (  8)
          -0.1786 (  9)  0.1927 ( 10) -0.2090 ( 11)  0.1505 ( 13) -0.1425 ( 15)
          -0.2795 ( 16) -0.1565 ( 17)  0.1013 ( 18)  0.1313 ( 22)  0.1956 ( 23)
           0.1987 ( 25)  0.1672 ( 28)  0.1152 ( 30)  0.1089 ( 32)  0.1466 ( 33)
          -0.1281 ( 35)  0.1876 ( 36)  0.1205 ( 42)  0.1678 ( 46)  0.1291 ( 50)
           0.1506 ( 63) -0.1993 ( 72) -0.1282 ( 74)  0.1104 ( 76) -0.1649 ( 81)
          -0.1596 ( 87)
 CRD 31=   0.1051 ( 88)  0.1172 ( 89)  0.1197 ( 91)  0.1153 ( 93)  0.1722 ( 94)
          -0.1520 ( 96)  0.1467 ( 97)  0.1354 ( 99) -0.1467 (101) -0.1132 (103)
          -0.1603 (105) -0.2479 (106) -0.1038 (108) -0.1671 (110) -0.1370 (112)
           0.1232 (114) -0.2287 (115) -0.1304 (117)  0.1621 (122)  0.1852 (125)
           0.1691 (126)  0.1131 (127)  0.2534 (128) -0.1621 (129)  0.1014 (130)
          -0.1126 (140) -0.1916 (145) -0.1009 (146) -0.1568 (149)  0.2736 (150)
           0.2087 (151)  0.1672 (159) -0.2331 (160) -0.1274 (161) -0.1074 (165)
           0.1397 (167)
 CRD 32=   0.2716 (  2) -0.1231 (  4)  0.2287 (  5)  0.2399 (  8)  0.1827 (  9)
          -0.1526 ( 10) -0.1500 ( 11)  0.3224 ( 12)  0.1032 ( 14) -0.1437 ( 16)
          -0.2207 ( 20) -0.2517 ( 21) -0.1236 ( 25) -0.1002 ( 30) -0.1536 ( 33)
           0.1371 ( 36) -0.1506 ( 38) -0.1413 ( 39) -0.1060 ( 41)  0.1826 ( 42)
          -0.1135 ( 44) -0.2109 ( 50) -0.1182 ( 53) -0.1063 ( 56)  0.1055 ( 57)
           0.1150 ( 60) -0.1306 ( 65)  0.1768 ( 68)  0.1124 ( 74) -0.1028 ( 76)
           0.1485 ( 87)
 CRD 33=  -0.1160 ( 88)  0.1742 ( 94) -0.1384 (103)  0.1319 (108)  0.1054 (111)
          -0.1674 (115) -0.1929 (123) -0.1163 (128)  0.1944 (135)  0.1545 (138)
           0.1064 (142)  0.1151 (143)  0.2894 (144) -0.1638 (145)  0.1030 (149)
          -0.1148 (150)  0.1773 (151) -0.2912 (152) -0.1163 (153) -0.1283 (155)
          -0.1848 (157)  0.1035 (160)  0.2178 (162) -0.3068 (163)  0.2854 (164)
          -0.1012 (170)
 CRD 34=  -0.2592 (  2)  0.1793 (  6) -0.1340 (  8) -0.2355 ( 14)  0.1046 ( 17)
           0.1500 ( 18)  0.2286 ( 20)  0.1498 ( 27)  0.2337 ( 32)  0.2178 ( 34)
           0.1853 ( 36) -0.1469 ( 38)  0.1048 ( 45) -0.1576 ( 46)  0.2207 ( 49)
          -0.1316 ( 50)  0.1970 ( 51) -0.1153 ( 53) -0.1336 ( 62)  0.1557 ( 63)
           0.1284 ( 64) -0.1418 ( 65)  0.1788 ( 67) -0.2676 ( 69)  0.2118 ( 74)
          -0.1626 ( 77) -0.2294 ( 85)
 CRD 35=  -0.1205 ( 93) -0.1661 ( 99) -0.1011 (100)  0.1899 (101)  0.1692 (107)
           0.1347 (108)  0.1955 (124)  0.1770 (125) -0.2688 (130) -0.2505 (131)
           0.1168 (141)  0.1164 (142) -0.1295 (146) -0.1133 (147) -0.2298 (149)
           0.1933 (150)  0.1209 (154)  0.1168 (155) -0.1649 (157) -0.1609 (158)
           0.2325 (160) -0.1612 (162)  0.1252 (163)  0.1307 (164)  0.2117 (165)
           0.1007 (166)  0.2118 (167) -0.2482 (168)  0.1310 (169)  0.1293 (170)
          -0.1653 (171)
 CRD 36=  -0.1050 (101) -0.1012 (107) -0.1377 (121) -0.1126 (124) -0.1080 (125)
           0.1457 (130)  0.1412 (131) -0.1052 (136) -0.1268 (137)  0.1757 (141)
           0.1848 (142) -0.1241 (145)  0.1374 (149) -0.1263 (150) -0.1125 (151)
          -0.1063 (152)  0.1931 (154)  0.1777 (155) -0.2608 (157) -0.2457 (158)
          -0.1285 (160) -0.2367 (162)  0.1998 (163)  0.2298 (164) -0.1246 (165)
          -0.1309 (167)  0.1419 (168)  0.2207 (169)  0.2152 (170) -0.2518 (171)
 CRD 37=   0.1436 (  1) -0.1710 (  7)  0.3469 (  8)  0.1252 ( 11) -0.2002 ( 14)
          -0.4151 ( 15)  0.1908 ( 17)  0.1392 ( 18)  0.1282 ( 20) -0.1280 ( 22)
           0.2205 ( 26) -0.1933 ( 28) -0.2172 ( 29) -0.1418 ( 35) -0.1006 ( 38)
          -0.1285 ( 40) -0.1355 ( 41)  0.1539 ( 43) -0.1302 ( 52)  0.1187 ( 53)
          -0.1219 ( 56) -0.1288 ( 57)  0.1006 ( 60)  0.1091 ( 61) -0.1585 ( 63)
           0.1115 ( 67)  0.1840 ( 81)
 CRD 38=   0.1368 (  1) -0.1957 (  7) -0.1531 (  8) -0.2599 (  9)  0.1054 ( 15)
           0.1853 ( 17) -0.1290 ( 18) -0.1136 ( 22)  0.1664 ( 25) -0.3342 ( 26)
          -0.1809 ( 28)  0.3311 ( 29)  0.1398 ( 36) -0.1197 ( 40) -0.1559 ( 41)
           0.1288 ( 43) -0.1074 ( 50)  0.1787 ( 52) -0.1413 ( 56) -0.1110 ( 57)
           0.1121 ( 60) -0.1991 ( 61)  0.1017 ( 62) -0.1335 ( 63) -0.1290 ( 65)
           0.1855 ( 74)  0.1183 ( 76) -0.1122 ( 77)  0.1747 ( 81)
 CRD 39=  -0.2044 (  1) -0.1131 (  4) -0.1245 (  6)  0.1345 (  7)  0.1546 (  8)
           0.1120 ( 10)  0.1431 ( 11) -0.2759 ( 12)  0.1961 ( 14) -0.1990 ( 16)
           0.1458 ( 20)  0.3523 ( 21)  0.1090 ( 28)  0.1026 ( 29) -0.1180 ( 30)
          -0.2272 ( 33)  0.1538 ( 36) -0.1403 ( 37)  0.1540 ( 39) -0.1419 ( 40)
           0.1352 ( 45) -0.1432 ( 50) -0.1245 ( 62)  0.1252 ( 64) -0.1821 ( 65)
          -0.1322 ( 68)  0.1050 ( 69) -0.1628 ( 76) -0.1169 ( 77)  0.1044 ( 84)
           0.1996 ( 87)
 CRD 40=   0.2315 (  1)  0.1207 (  2)  0.1845 (  3) -0.1350 (  6) -0.1920 (  7)
           0.1033 ( 11) -0.1240 ( 13) -0.1606 ( 15) -0.3868 ( 16)  0.1992 ( 20)
          -0.3460 ( 23) -0.1244 ( 32)  0.1458 ( 33) -0.1776 ( 37) -0.2201 ( 42)
          -0.1148 ( 43) -0.1062 ( 51) -0.1744 ( 53)  0.1127 ( 57) -0.1094 ( 59)
           0.1247 ( 62)  0.1470 ( 63) -0.1038 ( 69)  0.2399 ( 72)  0.1242 ( 80)
 CRD 41=  -0.1105 ( 92) -0.1380 ( 94)  0.1943 ( 96) -0.1781 (102)  0.1853 (104)
          -0.1954 (106)  0.2741 (107) -0.1309 (109)  0.1199 (119) -0.1064 (122)
          -0.2270 (124) -0.2596 (127)  0.1427 (128)  0.2008 (130)  0.1037 (137)
           0.1191 (139) -0.1822 (141)  0.1338 (144)  0.1153 (145) -0.1393 (146)
          -0.2399 (149)  0.1892 (150) -0.1181 (151) -0.1046 (152)  0.1720 (154)
          -0.1443 (157) -0.1335 (159) -0.1552 (160)  0.1455 (161)  0.1512 (162)
          -0.1337 (163)  0.1109 (164) -0.1669 (166)
 CRD 42=   0.1207 (  8) -0.1166 ( 15)  0.1298 ( 18) -0.1097 ( 21)  0.1450 ( 23)
          -0.1234 ( 25) -0.2709 ( 26) -0.1531 ( 27)  0.2796 ( 29)  0.1552 ( 30)
          -0.3240 ( 32)  0.3088 ( 33) -0.1112 ( 52)  0.1132 ( 61)  0.1138 ( 67)
          -0.1197 ( 76)  0.3142 ( 78) -0.3183 ( 82)  0.2768 ( 84) -0.1056 ( 85)
          -0.2720 ( 86)  0.1094 ( 87)
 CRD 43=   0.1034 (  5) -0.1513 ( 10) -0.2779 ( 12) -0.1654 ( 13) -0.1003 ( 14)
           0.2155 ( 21)  0.1447 ( 22) -0.2629 ( 23)  0.3790 ( 28)  0.2125 ( 33)
          -0.1270 ( 39)  0.1287 ( 42)  0.3164 ( 59)  0.1058 ( 68) -0.2842 ( 70)
          -0.1103 ( 72)  0.2379 ( 73) -0.2752 ( 80)
 CRD 44=  -0.1115 (  1) -0.1448 (  4) -0.1079 (  6) -0.1242 (  7)  0.1332 (  9)
           0.1346 ( 15)  0.1020 ( 16)  0.1973 ( 18) -0.1437 ( 19)  0.3174 ( 20)
           0.1632 ( 23)  0.2360 ( 26)  0.2083 ( 29)  0.1551 ( 30) -0.1674 ( 31)
          -0.4154 ( 32) -0.1894 ( 33)  0.1053 ( 34)  0.1191 ( 42)  0.1683 ( 49)
          -0.2243 ( 67) -0.1506 ( 69) -0.1018 ( 72) -0.1270 ( 78)  0.1611 ( 85)
           0.1793 ( 86)
 CRD 45=  -0.1391 (  3)  0.1673 (  5)  0.1842 ( 10)  0.2787 ( 12)  0.1520 ( 13)
           0.1207 ( 15) -0.1102 ( 20)  0.3014 ( 21)  0.1227 ( 22) -0.3487 ( 23)
          -0.2364 ( 24) -0.3832 ( 28)  0.1044 ( 37)  0.1129 ( 44) -0.1082 ( 45)
           0.1157 ( 55) -0.2114 ( 56) -0.1610 ( 70)  0.2049 ( 73)
 CRD 46=  -0.1972 (  1)  0.1422 (  2) -0.1336 (  3) -0.2677 (  4) -0.1022 (  6)
           0.1811 (  9)  0.1776 ( 12)  0.1598 ( 15)  0.2854 ( 20)  0.1839 ( 21)
           0.1373 ( 23) -0.1782 ( 25) -0.2262 ( 26) -0.1668 ( 27) -0.2411 ( 29)
           0.1887 ( 31)  0.1586 ( 32)  0.3335 ( 33)  0.1042 ( 49) -0.1057 ( 65)
           0.1734 ( 76) -0.1557 ( 84)
 CRD 47=  -0.1681 (  1)  0.2592 (  3) -0.1288 (  5) -0.4093 (  8)  0.1330 ( 10)
           0.1537 ( 11) -0.2799 ( 15) -0.2610 ( 16)  0.3233 ( 19) -0.1034 ( 20)
           0.1294 ( 23) -0.1958 ( 26) -0.1548 ( 28) -0.2164 ( 29) -0.1802 ( 32)
           0.1343 ( 42) -0.1017 ( 53) -0.1598 ( 56) -0.1032 ( 67) -0.1324 ( 72)
           0.1130 ( 73) -0.1102 ( 80)  0.1464 ( 81)
 CRD 48=   0.1765 (  4)  0.1939 (  8)  0.1707 ( 10)  0.2479 ( 11) -0.2317 ( 12)
           0.2809 ( 15) -0.3336 ( 16) -0.2680 ( 19) -0.1266 ( 20) -0.2119 ( 21)
           0.1311 ( 24)  0.1722 ( 26) -0.2024 ( 28)  0.1566 ( 29)  0.1157 ( 32)
           0.1674 ( 33)  0.1268 ( 49) -0.2039 ( 53) -0.1512 ( 56)  0.1747 ( 63)
          -0.1150 ( 80)  0.1734 ( 81)
 CRD 49=   0.1121 (  1)  0.1107 (  2) -0.2761 (  6) -0.1403 (  7) -0.1351 (  9)
           0.1907 ( 14) -0.1529 ( 18)  0.3086 ( 20) -0.1107 ( 21)  0.2306 ( 25)
          -0.1198 ( 29)  0.1206 ( 32) -0.2109 ( 33) -0.1279 ( 36)  0.1110 ( 38)
          -0.1011 ( 41)  0.2061 ( 49)  0.2178 ( 50) -0.1712 ( 53) -0.1015 ( 60)
           0.1138 ( 65)  0.1565 ( 67)  0.1032 ( 68) -0.1621 ( 69) -0.2420 ( 74)
          -0.1718 ( 76)  0.1221 ( 84) -0.1162 ( 85) -0.1552 ( 86)  0.1748 ( 87)
 CRD 50=   0.1159 (  2)  0.2277 (  3) -0.2115 (  4) -0.2008 (  5) -0.1572 (  8)
          -0.1029 ( 10)  0.1074 ( 11)  0.3185 ( 12) -0.1048 ( 15) -0.1726 ( 16)
          -0.1853 ( 18)  0.2708 ( 21)  0.2564 ( 23) -0.1745 ( 24)  0.2598 ( 26)
           0.1929 ( 28)  0.2365 ( 29) -0.1727 ( 31)  0.2021 ( 32)  0.1008 ( 33)
          -0.1516 ( 36)  0.1107 ( 40)  0.1818 ( 65) -0.1046 ( 72) -0.1020 ( 85)
 CRD 51=  -0.1288 ( 88) -0.1189 ( 91)  0.1623 ( 93)  0.1662 ( 96) -0.2353 ( 99)
          -0.1340 (103)  0.1703 (107)  0.2848 (108)  0.1453 (111) -0.1469 (115)
           0.1453 (121) -0.2216 (124) -0.1915 (127)  0.1091 (128)  0.1630 (130)
           0.1676 (133) -0.1382 (137)  0.2555 (141) -0.1205 (145) -0.1516 (148)
          -0.1479 (149)  0.1264 (151) -0.2521 (154)  0.1965 (157) -0.2023 (162)
          -0.1370 (167)  0.1283 (169) -0.1407 (170)
 CRD 52=   0.1888 (  1) -0.1069 (  2) -0.1129 (  3) -0.1152 (  5)  0.2012 (  6)
          -0.1285 (  7)  0.2352 (  8) -0.1446 (  9) -0.1380 ( 10)  0.2228 ( 11)
           0.1728 ( 12) -0.1146 ( 13) -0.1517 ( 14)  0.2662 ( 15) -0.2147 ( 16)
           0.1503 ( 18) -0.2146 ( 20)  0.2096 ( 21) -0.1359 ( 22)  0.1951 ( 23)
          -0.1467 ( 24)  0.1669 ( 25) -0.2180 ( 26)  0.1997 ( 28) -0.2300 ( 29)
           0.2034 ( 31) -0.1966 ( 32) -0.2052 ( 33)
 CRD 53=   0.1423 (  1)  0.1064 (  2) -0.1359 (  3) -0.1578 (  4)  0.3281 (  7)
           0.1556 (  8) -0.2939 (  9)  0.2032 ( 10) -0.1404 ( 13) -0.1357 ( 14)
          -0.1577 ( 15)  0.1524 ( 16) -0.3375 ( 17)  0.1289 ( 19)  0.1553 ( 20)
          -0.1571 ( 25) -0.1313 ( 26)  0.2805 ( 27)  0.1409 ( 30) -0.1223 ( 32)
          -0.1371 ( 36) -0.1002 ( 53)  0.1653 ( 74) -0.1183 ( 80)  0.1007 ( 86)
          -0.1420 ( 87)
 CRD 54=  -0.3127 (  2)  0.2376 (  4) -0.2020 (  5) -0.1214 (  6)  0.2756 (  8)
           0.1308 ( 12)  0.2744 ( 14) -0.2662 ( 15)  0.1455 ( 16)  0.1635 ( 18)
           0.1385 ( 23) -0.1981 ( 24) -0.1504 ( 26)  0.1896 ( 29) -0.2625 ( 30)
           0.1302 ( 35) -0.1320 ( 47)  0.1334 ( 50)  0.1005 ( 63) -0.1487 ( 65)
          -0.1068 ( 69) -0.1085 ( 70)  0.1105 ( 73) -0.1090 ( 78)  0.1296 ( 82)
          -0.1227 ( 84)  0.1408 ( 85)
 CRD 55=   0.3272 (  3) -0.2191 (  5) -0.2214 ( 11)  0.1395 ( 13) -0.2745 ( 19)
           0.1578 ( 20) -0.1733 ( 21)  0.3300 ( 22) -0.1081 ( 23) -0.1379 ( 28)
           0.2285 ( 31) -0.1474 ( 32) -0.1216 ( 33) -0.1006 ( 34) -0.1168 ( 36)
           0.1145 ( 40)  0.1093 ( 42) -0.1374 ( 50) -0.1104 ( 52)  0.1028 ( 54)
           0.1231 ( 56)  0.1234 ( 60) -0.1087 ( 61) -0.1698 ( 63)  0.1147 ( 69)
          -0.1765 ( 72)  0.1045 ( 73)
 CRD 56=  -0.1573 (  1)  0.2190 (  2)  0.1434 (  4) -0.1408 (  5)  0.1005 (  8)
          -0.1896 ( 10) -0.1917 ( 12)  0.3134 ( 13)  0.1979 ( 17) -0.2099 ( 18)
          -0.2008 ( 20)  0.1634 ( 21)  0.1046 ( 22) -0.1119 ( 24)  0.1716 ( 27)
          -0.1149 ( 28)  0.1540 ( 30) -0.1526 ( 33)  0.1227 ( 34)  0.1234 ( 35)
          -0.1416 ( 36)  0.1303 ( 42) -0.1010 ( 44)  0.1522 ( 45) -0.1658 ( 46)
          -0.1112 ( 51) -0.1040 ( 54)  0.1209 ( 55) -0.1333 ( 59)  0.1146 ( 67)
          -0.1465 ( 69)  0.1086 ( 77) -0.1512 ( 81)
 CRD 57=  -0.2612 (  4)  0.2274 (  6) -0.1627 (  7)  0.2091 ( 10) -0.1547 ( 19)
           0.2434 ( 24)  0.2854 ( 25) -0.2164 ( 27) -0.1771 ( 28) -0.1641 ( 30)
           0.1500 ( 31)  0.1400 ( 32)  0.1461 ( 34) -0.1655 ( 38)  0.1593 ( 41)
          -0.1281 ( 46) -0.1273 ( 47) -0.1409 ( 49)  0.1040 ( 53) -0.1092 ( 54)
           0.1350 ( 57)  0.1537 ( 62) -0.1197 ( 64)  0.1155 ( 70) -0.1120 ( 71)
          -0.1152 ( 76)  0.1053 ( 77) -0.1221 ( 80) -0.1303 ( 86)
 CRD 58=   0.1044 ( 93) -0.2302 ( 94)  0.2118 ( 96) -0.2144 ( 99)  0.2500 (106)
           0.1278 (108)  0.1335 (114) -0.2121 (115) -0.1461 (117)  0.1163 (118)
           0.1059 (123)  0.1506 (124) -0.1330 (127)  0.2505 (128) -0.1784 (130)
           0.1502 (133) -0.1682 (138)  0.1509 (145)  0.2004 (146) -0.1647 (148)
          -0.1917 (150)  0.1355 (151)  0.1225 (154)  0.1802 (159) -0.1953 (160)
          -0.2350 (165) -0.1389 (168)  0.1000 (170)
 CRD 59=  -0.2043 (  4)  0.1372 (  6) -0.1658 ( 10)  0.1513 ( 11)  0.1422 ( 13)
          -0.2489 ( 16)  0.1096 ( 17)  0.1514 ( 18) -0.2513 ( 23)  0.1866 ( 24)
          -0.2123 ( 26)  0.1281 ( 27)  0.2275 ( 29) -0.2131 ( 30)  0.1648 ( 37)
           0.1125 ( 38) -0.1122 ( 39)  0.1088 ( 40)  0.1693 ( 43) -0.1632 ( 48)
           0.1453 ( 56) -0.1490 ( 58) -0.1526 ( 60)  0.1058 ( 61) -0.1297 ( 66)
          -0.1173 ( 72) -0.1379 ( 73)  0.1355 ( 75) -0.1096 ( 76) -0.1559 ( 78)
           0.1058 ( 82)  0.1096 ( 85)  0.1034 ( 86)
 CRD 60=   0.2105 (  1) -0.1774 (  3) -0.3323 (  5)  0.1505 (  6) -0.1073 (  9)
          -0.1196 ( 10)  0.1158 ( 11)  0.1139 ( 13) -0.1399 ( 14) -0.1339 ( 17)
           0.2205 ( 19) -0.1390 ( 21)  0.3396 ( 22)  0.1381 ( 25)  0.1071 ( 26)
          -0.1778 ( 27) -0.1121 ( 28) -0.1919 ( 31)  0.1425 ( 32)  0.1311 ( 33)
          -0.1148 ( 37) -0.1080 ( 40)  0.1157 ( 42)  0.1505 ( 52)  0.1762 ( 56)
          -0.1656 ( 67) -0.1520 ( 72)  0.1169 ( 73) -0.1022 ( 76) -0.1541 ( 82)
           0.1028 ( 85)  0.1580 ( 87)
 CRD 61=  -0.1822 (  2)  0.1378 (  6) -0.2060 (  7)  0.2505 (  9)  0.1767 ( 10)
           0.2033 ( 12) -0.2101 ( 13)  0.1057 ( 17) -0.2809 ( 18) -0.1846 ( 21)
          -0.1716 ( 25)  0.1812 ( 27)  0.2539 ( 30) -0.1763 ( 31) -0.1078 ( 33)
          -0.1021 ( 42)  0.1414 ( 44)  0.1019 ( 50) -0.1556 ( 51)  0.1164 ( 53)
          -0.1161 ( 55)  0.1344 ( 59) -0.1887 ( 65)  0.1350 ( 67) -0.1224 ( 68)
          -0.1207 ( 74)  0.1180 ( 77)  0.1233 ( 84) -0.1023 ( 87)
 CRD 62=   0.1340 ( 94)  0.1713 (103) -0.1012 (112)  0.1329 (115)  0.1504 (116)
          -0.1029 (120)  0.1587 (121)  0.2395 (137)  0.3092 (144) -0.2356 (145)
          -0.2365 (151)  0.3135 (152)  0.1716 (154) -0.1873 (157) -0.1656 (161)
          -0.2775 (163) -0.2818 (164) -0.2249 (169) -0.2431 (171)
 CRD 63=  -0.1044 ( 91)  0.1721 ( 93) -0.1842 ( 96) -0.1079 ( 99)  0.1117 (103)
          -0.1164 (104)  0.1190 (106)  0.2166 (107) -0.1353 (114) -0.1523 (119)
          -0.1509 (121) -0.1507 (124)  0.1849 (127)  0.1292 (129)  0.1429 (130)
           0.1453 (134) -0.1385 (135)  0.1358 (136)  0.1336 (140) -0.1978 (141)
          -0.1061 (144) -0.1402 (147) -0.2260 (149) -0.1027 (150) -0.1265 (161)
           0.1886 (162)  0.1211 (163)  0.1110 (164)  0.1417 (165)  0.2695 (166)
          -0.2519 (167)  0.1909 (170)  0.1202 (171)
 CRD 64=   0.2782 (  1) -0.1646 (  2) -0.1454 (  4) -0.2242 (  7) -0.1016 ( 10)
          -0.1165 ( 12)  0.3293 ( 14)  0.1652 ( 21)  0.1726 ( 24) -0.1791 ( 25)
           0.1791 ( 27) -0.2054 ( 28) -0.1830 ( 32)  0.1210 ( 33) -0.1455 ( 39)
           0.1510 ( 42) -0.1140 ( 44)  0.1327 ( 50)  0.1427 ( 55)  0.1556 ( 57)
          -0.1368 ( 62)  0.1540 ( 64)  0.1629 ( 70) -0.1662 ( 71) -0.1618 ( 74)
          -0.1131 ( 75)  0.1167 ( 76) -0.1509 ( 79) -0.1629 ( 81)  0.1212 ( 83)
          -0.1221 ( 85)  0.1180 ( 86)
 CRD 65=  -0.1482 (  2)  0.1098 (  7)  0.1572 (  9) -0.1485 ( 10)  0.2800 ( 11)
           0.1866 ( 13)  0.1268 ( 14) -0.2136 ( 15) -0.2447 ( 17) -0.1593 ( 18)
          -0.1272 ( 19) -0.1845 ( 23)  0.1536 ( 26) -0.1557 ( 27)  0.1269 ( 28)
           0.1782 ( 30)  0.1687 ( 31) -0.1620 ( 33)  0.1016 ( 37) -0.1362 ( 41)
           0.1171 ( 43) -0.1737 ( 47) -0.1584 ( 53) -0.1498 ( 58) -0.1749 ( 61)
           0.1368 ( 62)  0.1238 ( 63) -0.1058 ( 65)  0.1175 ( 71) -0.1296 ( 73)
           0.1053 ( 74)  0.1283 ( 76)  0.1555 ( 78)  0.1347 ( 80) -0.1495 ( 86)
 CRD 66=  -0.1395 (  1) -0.1317 (  6)  0.1484 (  7)  0.1922 (  8) -0.2824 (  9)
           0.1260 ( 12) -0.1312 ( 13)  0.1019 ( 14) -0.1590 ( 15)  0.3045 ( 17)
          -0.1688 ( 20)  0.1828 ( 24)  0.1185 ( 25)  0.1745 ( 26) -0.1864 ( 29)
           0.1252 ( 33)  0.1522 ( 35) -0.1535 ( 36)  0.1180 ( 40)  0.1154 ( 44)
          -0.1014 ( 46) -0.1080 ( 47)  0.1573 ( 49)  0.1513 ( 52)  0.1417 ( 53)
          -0.1215 ( 54)  0.1238 ( 59) -0.1113 ( 60) -0.1363 ( 61)  0.1092 ( 64)
           0.1639 ( 66) -0.1145 ( 67) -0.1044 ( 68) -0.1236 ( 69) -0.1624 ( 75)
          -0.1382 ( 77) -0.1050 ( 79) -0.1147 ( 82)  0.1325 ( 83)  0.1108 ( 87)
 CRD 67=  -0.2675 (  2)  0.1670 (  3)  0.1402 (  5)  0.2176 (  8) -0.2379 ( 11)
          -0.1578 ( 12) -0.1321 ( 16)  0.2261 ( 20)  0.1358 ( 21) -0.1270 ( 22)
          -0.1307 ( 29)  0.1809 ( 30) -0.2262 ( 31)  0.1585 ( 32)  0.1716 ( 35)
          -0.1469 ( 39)  0.1690 ( 40) -0.1209 ( 44) -0.1253 ( 45) -0.1369 ( 48)
          -0.1117 ( 51)  0.1247 ( 52)  0.1912 ( 54)  0.1176 ( 55) -0.1152 ( 56)
          -0.1631 ( 63) -0.1245 ( 65)  0.1565 ( 68)  0.1689 ( 69)  0.1172 ( 79)
          -0.1476 ( 82)  0.1399 ( 84)  0.1003 ( 85)
 CRD 68=   0.1535 ( 90)  0.1186 ( 91)  0.1625 ( 93) -0.1133 ( 96) -0.1120 (100)
          -0.1094 (102)  0.1752 (106)  0.1972 (107) -0.1936 (108)  0.1002 (120)
          -0.1211 (122)  0.1498 (124)  0.1788 (127)  0.1625 (128)  0.1535 (129)
          -0.1034 (130)  0.1186 (132) -0.2036 (133) -0.1084 (136)  0.1002 (138)
           0.1379 (139)  0.1300 (141)  0.1400 (146) -0.1206 (147)  0.1173 (148)
          -0.1614 (149) -0.2574 (150) -0.1019 (154)  0.1162 (157) -0.1233 (159)
          -0.2477 (160) -0.1415 (162) -0.1134 (167) -0.3046 (168)  0.1377 (169)
          -0.1602 (170)
 CRD 69=   0.1498 (  1) -0.1280 (  2) -0.2329 (  6)  0.2332 (  7) -0.1722 ( 10)
          -0.2065 ( 13)  0.1449 ( 17)  0.1217 ( 21)  0.2162 ( 24) -0.1320 ( 25)
          -0.2100 ( 27) -0.2085 ( 28)  0.1560 ( 30)  0.1431 ( 32) -0.1927 ( 33)
          -0.1520 ( 34)  0.1083 ( 36)  0.1710 ( 38) -0.1124 ( 45)  0.1754 ( 46)
           0.1306 ( 49)  0.1305 ( 55)  0.1034 ( 59)  0.1361 ( 70) -0.1939 ( 71)
           0.1421 ( 79) -0.1624 ( 80) -0.1662 ( 81) -0.1852 ( 83)  0.1202 ( 84)
          -0.1564 ( 86) -0.1367 ( 87)
 CRD 70=  -0.2340 (  3)  0.1723 (  5)  0.2261 (  6) -0.1049 ( 11) -0.1183 ( 12)
           0.1062 ( 14) -0.1391 ( 15) -0.2168 ( 16) -0.1128 ( 18)  0.2381 ( 22)
           0.2196 ( 23) -0.2130 ( 24)  0.1305 ( 26)  0.2175 ( 31) -0.1044 ( 32)
           0.1196 ( 34) -0.1344 ( 44) -0.1330 ( 47) -0.1996 ( 48)  0.1305 ( 50)
           0.1078 ( 54)  0.2062 ( 58) -0.1333 ( 59) -0.2011 ( 60) -0.1563 ( 63)
           0.1241 ( 66)  0.1248 ( 69) -0.1006 ( 70)  0.1699 ( 72)  0.1770 ( 73)
           0.1384 ( 78)  0.1030 ( 82) -0.1038 ( 85)
 CRD 71=  -0.1243 ( 88) -0.1085 ( 91)  0.1327 ( 92) -0.1937 ( 94)  0.1148 ( 95)
          -0.1772 ( 98)  0.1353 (102) -0.1283 (103) -0.1296 (104) -0.1296 (108)
          -0.1320 (111)  0.1319 (113) -0.1935 (115) -0.1135 (122)  0.1333 (123)
          -0.1354 (124)  0.1311 (127)  0.1569 (130)  0.1237 (135) -0.1455 (138)
           0.1165 (139)  0.1519 (141) -0.1177 (143)  0.1863 (145) -0.1124 (146)
          -0.1100 (147)  0.1669 (148)  0.1898 (151) -0.1212 (153)  0.1639 (154)
           0.1806 (156)  0.1414 (159)  0.1280 (161) -0.1679 (163) -0.1712 (164)
           0.1746 (165) -0.1330 (167) -0.2519 (171)
 CRD 72=  -0.1421 (  1)  0.2124 (  5)  0.1380 (  9) -0.2320 ( 10)  0.2036 ( 11)
          -0.2000 ( 13) -0.2149 ( 19)  0.2088 ( 22)  0.1247 ( 23)  0.2437 ( 25)
          -0.1214 ( 26)  0.1981 ( 27) -0.1271 ( 28) -0.1365 ( 29) -0.2052 ( 31)
           0.1349 ( 33)  0.1313 ( 37) -0.1392 ( 41) -0.1119 ( 42)  0.1522 ( 43)
          -0.1131 ( 52)  0.1234 ( 56) -0.1459 ( 57)  0.1310 ( 58) -0.1237 ( 61)
           0.1341 ( 62) -0.1283 ( 66)  0.1181 ( 67) -0.1331 ( 71)  0.1116 ( 72)
           0.1195 ( 73)  0.1084 ( 74) -0.1430 ( 75)  0.1404 ( 77) -0.1092 ( 78)
          -0.1189 ( 80) -0.1189 ( 81) -0.1344 ( 82)  0.1438 ( 83)  0.1116 ( 86)
           0.1411 ( 87)
 CRD 73=  -0.2318 (  4)  0.1046 (  5) -0.1186 (  9)  0.1213 ( 10)  0.1122 ( 11)
          -0.1196 ( 12)  0.2092 ( 14)  0.2917 ( 18) -0.1460 ( 19) -0.1109 ( 20)
          -0.1462 ( 21)  0.1115 ( 22) -0.2066 ( 24) -0.1412 ( 25) -0.1195 ( 27)
           0.2471 ( 30) -0.1363 ( 31)  0.1606 ( 32) -0.1286 ( 44)  0.1677 ( 51)
          -0.1170 ( 54) -0.1545 ( 55) -0.1152 ( 59)  0.1808 ( 64)  0.1100 ( 65)
          -0.1494 ( 68) -0.1277 ( 70)  0.1472 ( 76)  0.1701 ( 79)  0.1390 ( 84)
           0.1605 ( 85)
 CRD 74=  -0.2860 (  1)  0.2017 (  2)  0.2053 (  4)  0.1907 (  6) -0.2341 (  7)
          -0.2251 (  9) -0.1927 ( 10) -0.1553 ( 13)  0.1693 ( 14) -0.1807 ( 17)
           0.1379 ( 18)  0.1140 ( 24) -0.1823 ( 25) -0.1228 ( 27)  0.1395 ( 34)
          -0.1341 ( 36) -0.1604 ( 38)  0.1221 ( 39) -0.1449 ( 41) -0.1234 ( 42)
           0.1120 ( 44)  0.1406 ( 45) -0.1763 ( 46) -0.1111 ( 49)  0.1079 ( 51)
          -0.1119 ( 53)  0.1088 ( 54) -0.1544 ( 57) -0.1399 ( 62)  0.1020 ( 64)
           0.1075 ( 68) -0.1179 ( 74) -0.1325 ( 77)
 CRD 75=   0.1612 (  2) -0.2862 (  3)  0.1717 (  4) -0.2004 (  5)  0.1638 (  6)
          -0.1425 (  8) -0.2103 ( 11)  0.1472 ( 14) -0.1380 ( 15) -0.1254 ( 16)
           0.1218 ( 18) -0.2463 ( 19) -0.1282 ( 22) -0.1004 ( 26) -0.1307 ( 31)
           0.1112 ( 34) -0.1631 ( 35) -0.1619 ( 37)  0.1168 ( 39) -0.1747 ( 40)
          -0.1371 ( 43)  0.1143 ( 45) -0.1619 ( 47) -0.1446 ( 48)  0.1042 ( 50)
          -0.1452 ( 52) -0.1009 ( 56) -0.1601 ( 60) -0.1398 ( 61) -0.1182 ( 63)
          -0.1139 ( 66) -0.1154 ( 75)
 CRD 76=  -0.1151 ( 88) -0.1541 ( 89) -0.1133 ( 95) -0.1470 ( 97)  0.1527 ( 99)
          -0.1519 (103)  0.1009 (107)  0.1397 (109)  0.1400 (110)  0.1255 (111)
           0.1463 (112)  0.1412 (117) -0.1661 (120)  0.1029 (131)  0.1459 (132)
          -0.1812 (134)  0.1632 (136)  0.1606 (138) -0.1424 (140)  0.1427 (142)
           0.1424 (143) -0.1343 (153) -0.1379 (155) -0.1728 (157)  0.1200 (159)
          -0.1189 (161)  0.1761 (162) -0.2659 (166) -0.1680 (168) -0.2728 (169)
           0.2657 (170)
 CRD 77=   0.1197 ( 88)  0.1268 ( 92) -0.1667 ( 93)  0.1425 ( 96) -0.1398 (100)
          -0.1720 (101)  0.1357 (103) -0.1681 (105)  0.1263 (106)  0.1445 (109)
          -0.1351 (110)  0.1549 (114)  0.1648 (118)  0.2005 (125)  0.2015 (126)
           0.1854 (130) -0.1117 (134) -0.1565 (140)  0.1430 (146) -0.1514 (147)
          -0.1735 (149)  0.1009 (155) -0.1128 (156) -0.1167 (158)  0.1289 (160)
           0.2726 (165) -0.2331 (166) -0.3140 (167) -0.1496 (170)  0.1600 (171)
 CRD 78=  -0.1552 ( 90)  0.1158 ( 92) -0.1658 ( 95) -0.1823 (101)  0.1062 (107)
          -0.1240 (111) -0.1083 (116)  0.1139 (120)  0.1260 (124) -0.1023 (125)
          -0.1217 (127) -0.1119 (128)  0.2327 (131)  0.1263 (132)  0.2007 (133)
           0.1679 (137) -0.1382 (138) -0.1311 (139) -0.2077 (142) -0.1379 (143)
           0.1025 (146) -0.1072 (148) -0.1101 (150) -0.1249 (152)  0.1012 (154)
           0.1562 (158) -0.1169 (161) -0.1004 (162) -0.1191 (163)  0.2240 (165)
           0.1181 (167) -0.2813 (168)  0.2700 (169) -0.1805 (171)
 CRD 79=  -0.1213 ( 91)  0.1746 ( 93) -0.1522 ( 97)  0.1485 (102)  0.1151 (105)
          -0.1032 (106)  0.1155 (113)  0.1577 (116) -0.1264 (119) -0.1188 (120)
          -0.1629 (121)  0.1253 (123) -0.1931 (125) -0.1115 (126)  0.1182 (131)
          -0.1370 (136)  0.1081 (137) -0.1293 (141) -0.1040 (143)  0.1411 (144)
          -0.1609 (146)  0.1119 (148)  0.2723 (155) -0.2630 (158)  0.1965 (159)
           0.1250 (164)  0.2259 (167) -0.1285 (168) -0.3212 (170)  0.2782 (171)
 CRD 80=   0.1537 ( 89) -0.1015 ( 90) -0.1001 ( 93)  0.1780 (100) -0.2210 (101)
          -0.1693 (109) -0.1637 (112)  0.1903 (121) -0.1130 (125)  0.1057 (126)
          -0.1146 (129)  0.2248 (131)  0.1368 (134)  0.1570 (135) -0.1854 (137)
          -0.1218 (138)  0.1032 (139)  0.2132 (142)  0.1200 (147) -0.1677 (148)
          -0.1431 (153) -0.1344 (158) -0.1441 (159)  0.2258 (161)  0.2364 (165)
           0.1965 (166)  0.1165 (167) -0.2296 (168) -0.2369 (169)  0.1320 (171)
 CRD 81=   0.1338 ( 91) -0.1729 ( 93)  0.1376 ( 95) -0.1710 ( 97)  0.1803 (100)
          -0.2569 (103)  0.1281 (104) -0.1054 (105) -0.2423 (109)  0.1972 (110)
           0.1228 (112)  0.1088 (117)  0.2331 (119) -0.1274 (121) -0.1625 (122)
           0.1309 (123)  0.1024 (125) -0.1346 (129) -0.1893 (133)  0.1691 (137)
           0.1810 (138) -0.1129 (143)  0.1880 (146) -0.2128 (148)  0.1366 (155)
           0.1937 (159) -0.1767 (161)  0.2444 (166) -0.1363 (170)
 CRD 82=  -0.1847 ( 89)  0.2146 ( 95) -0.1896 ( 98) -0.1647 (101)  0.1850 (105)
          -0.1053 (110)  0.1294 (111)  0.1316 (114)  0.2116 (118) -0.1300 (121)
          -0.2004 (125)  0.1486 (126)  0.1904 (131) -0.1568 (132) -0.2213 (133)
           0.2159 (138)  0.1048 (140) -0.1821 (142)  0.1429 (143) -0.1504 (146)
           0.1659 (153) -0.1589 (155) -0.1429 (156)  0.1805 (158)  0.1445 (165)
           0.1755 (167) -0.1563 (168)  0.1633 (169)  0.1417 (170) -0.1429 (171)
 CRD 83=  -0.1014 ( 89)  0.1896 ( 90) -0.1428 ( 93)  0.1710 ( 97) -0.1761 (100)
          -0.1341 (101) -0.1133 (102)  0.1893 (105)  0.2000 (112) -0.1314 (113)
          -0.2328 (116)  0.1034 (119)  0.1804 (121) -0.1389 (125)  0.1835 (126)
           0.1111 (131) -0.2090 (132)  0.1936 (137)  0.1589 (142) -0.2193 (143)
          -0.1637 (146)  0.1570 (148) -0.2159 (153)  0.1624 (155)  0.2417 (156)
          -0.1333 (158) -0.1669 (159) -0.1899 (161)  0.1000 (167) -0.1170 (169)
          -0.1197 (170)
 CRD 84=   0.2103 ( 89)  0.2117 ( 90) -0.1783 ( 93) -0.1897 ( 95) -0.1982 ( 97)
           0.2334 ( 98) -0.1659 (100) -0.1052 (101) -0.2159 (103)  0.1402 (105)
           0.1525 (109)  0.2292 (110) -0.1782 (112) -0.2490 (113)  0.1689 (116)
          -0.2345 (118)  0.2379 (119) -0.1177 (121)  0.1618 (126) -0.1777 (132)
           0.1538 (133) -0.1106 (137) -0.1642 (138)  0.1138 (143) -0.1127 (146)
           0.1187 (148)  0.1153 (153) -0.1345 (156)  0.1456 (159)  0.1312 (161)
          -0.1002 (166)

 THE DETERMINANT OF THE G MATRIX IS 10**(   -44)


                     --------------------
                     INTERNAL COORDINATES
                     --------------------

                 - - ATOMS - -         COORDINATE      COORDINATE
 NO.   TYPE    I  J  K  L  M  N        (BOHR,RAD)       (ANG,DEG)
 ----------------------------------------------------------------
   1 STRETCH   1  2                     2.7471038       1.4537048
   2 STRETCH   1  4                     2.6208713       1.3869055
   3 STRETCH   1  3                     2.6909804       1.4240056
   4 STRETCH   2  5                     2.6554503       1.4052039
   5 STRETCH   2  6                     2.6591128       1.4071420
   6 STRETCH   3  8                     2.7288963       1.4440698
   7 STRETCH   3  7                     2.6213869       1.3871783
   8 STRETCH   4 19                     2.0825050       1.1020143
   9 STRETCH   4  9                     2.6569348       1.4059895
  10 STRETCH   5 11                     2.6589752       1.4070692
  11 STRETCH   5 10                     2.7263900       1.4427436
  12 STRETCH   6 20                     2.0801941       1.1007914
  13 STRETCH   6 12                     2.6072110       1.3796767
  14 STRETCH   7 13                     2.6581672       1.4066416
  15 STRETCH   7 21                     2.0731125       1.0970440
  16 STRETCH   8 22                     2.0714696       1.0961746
  17 STRETCH   8 10                     2.5499473       1.3493741
  18 STRETCH   9 14                     2.6980016       1.4277211
  19 STRETCH   9 13                     2.6745032       1.4152863
  20 STRETCH  10 23                     2.0712096       1.0960370
  21 STRETCH  11 24                     2.0713054       1.0960877
  22 STRETCH  11 15                     2.6083044       1.3802554
  23 STRETCH  12 25                     2.0690331       1.0948853
  24 STRETCH  12 15                     2.6470337       1.4007500
  25 STRETCH  13 16                     2.6985423       1.4280072
  26 STRETCH  14 26                     2.0706514       1.0957416
  27 STRETCH  14 17                     2.5771493       1.3637688
  28 STRETCH  15 27                     2.0689592       1.0948462
  29 STRETCH  16 28                     2.0708529       1.0958482
  30 STRETCH  16 18                     2.5766943       1.3635280
  31 STRETCH  17 18                     2.6847004       1.4206824
  32 STRETCH  17 29                     2.0690544       1.0948965
  33 STRETCH  18 30                     2.0689298       1.0948306
  34 BEND      1  3  7                  2.0942306     119.9905721
  35 BEND      1  4  9                  2.1099768     120.8927673
  36 BEND      1  4 19                  2.0799779     119.1739563
  37 BEND      1  2  5                  2.0874247     119.6006242
  38 BEND      1  3  8                  2.0832700     119.3625813
  39 BEND      1  2  6                  2.1161245     121.2450040
  40 BEND      2  1  4                  2.1198302     121.4573232
  41 BEND      2  5 10                  2.0918072     119.8517229
  42 BEND      2  6 20                  2.0676233     118.4660880
  43 BEND      2  5 11                  2.0884805     119.6611201
  44 BEND      2  6 12                  2.1044259     120.5747226
  45 BEND      2  1  3                  2.0777135     119.0442148
  46 BEND      3  1  4                  2.0856416     119.4984614
  47 BEND      3  7 13                  2.1051657     120.6171085
  48 BEND      3  8 10                  2.1142998     121.1404540
  49 BEND      3  8 22                  2.0566757     117.8388371
  50 BEND      3  7 21                  2.0958008     120.0805383
  51 BEND      4  9 13                  2.0858076     119.5079699
  52 BEND      4  9 14                  2.1178639     121.3446639
  53 BEND      5 10 23                  2.0581198     117.9215802
  54 BEND      5 10  8                  2.1118554     121.0004021
  55 BEND      5 11 15                  2.0997462     120.3065980
  56 BEND      5 11 24                  2.0831275     119.3544117
  57 BEND      5  2  6                  2.0796361     119.1543715
  58 BEND      6 12 15                  2.0971336     120.1569024
  59 BEND      6 12 25                  2.0971391     120.1572177
  60 BEND      7  3  8                  2.1056846     120.6468428
  61 BEND      7 13 16                  2.1187882     121.3976196
  62 BEND      7 13  9                  2.0855483     119.4931149
  63 BEND      8 10 23                  2.1132100     121.0780151
  64 BEND      9 13 16                  2.0788488     119.1092612
  65 BEND      9  4 19                  2.0932305     119.9332760
  66 BEND      9 14 17                  2.1005497     120.3526329
  67 BEND      9 14 26                  2.0707438     118.6448786
  68 BEND     10  5 11                  2.1028976     120.4871569
  69 BEND     10  8 22                  2.1122098     121.0207073
  70 BEND     11 15 27                  2.0983197     120.2248642
  71 BEND     11 15 12                  2.0969482     120.1462842
  72 BEND     12  6 20                  2.1111361     120.9591892
  73 BEND     12 15 27                  2.0879173     119.6288513
  74 BEND     13  7 21                  2.0822189     119.3023530
  75 BEND     13 16 18                  2.1008141     120.3677843
  76 BEND     13 16 28                  2.0704885     118.6302522
  77 BEND     13  9 14                  2.0795138     119.1473639
  78 BEND     14 17 29                  2.1063701     120.6861171
  79 BEND     14 17 18                  2.1032818     120.5091694
  80 BEND     15 12 25                  2.0889127     119.6858787
  81 BEND     15 11 24                  2.1003116     120.3389903
  82 BEND     16 18 30                  2.1064178     120.6888478
  83 BEND     16 18 17                  2.1033622     120.5137789
  84 BEND     17 18 30                  2.0734052     118.7973671
  85 BEND     17 14 26                  2.1118918     121.0024884
  86 BEND     18 17 29                  2.0735333     118.8047089
  87 BEND     18 16 28                  2.1118827     121.0019633
  88 TORSION   1  4  9 14               3.1415886     179.9997656
  89 TORSION   1  3  7 13               0.0000084       0.0004804
  90 TORSION   1  2  5 10              -0.0000506      -0.0028978
  91 TORSION   1  2  5 11               3.1415341     179.9966451
  92 TORSION   1  2  6 12               3.1415087     179.9951919
  93 TORSION   1  2  6 20              -0.0000003      -0.0000182
  94 TORSION   1  3  7 21               3.1414999     179.9946853
  95 TORSION   1  3  8 10               0.0001244       0.0071287
  96 TORSION   1  3  8 22               3.1414666     179.9927795
  97 TORSION   1  4  9 13              -0.0003117      -0.0178600
  98 TORSION   2  1  3  8              -0.0000407      -0.0023328
  99 TORSION   2  5 10 23               3.1414079     179.9894132
 100 TORSION   2  5 10  8               0.0001344       0.0076980
 101 TORSION   2  6 12 15               0.0002109       0.0120854
 102 TORSION   2  1  4  9               3.1413966     179.9887696
 103 TORSION   2  1  4 19              -0.0000774      -0.0044334
 104 TORSION   2  1  3  7              -3.1412463    -179.9801583
 105 TORSION   2  5 11 15               0.0000770       0.0044112
 106 TORSION   2  5 11 24              -3.1415294    -179.9963773
 107 TORSION   2  6 12 25               3.1415845     179.9995356
 108 TORSION   3  8 10 23              -3.1414341    -179.9909138
 109 TORSION   3  8 10  5              -0.0001707      -0.0097777
 110 TORSION   3  1  4  9              -0.0000366      -0.0020956
 111 TORSION   3  7 13 16              -3.1415309    -179.9964630
 112 TORSION   3  7 13  9              -0.0003569      -0.0204514
 113 TORSION   3  1  2  5               0.0000076       0.0004337
 114 TORSION   3  1  2  6               3.1414944     179.9943684
 115 TORSION   3  1  4 19              -3.1415106    -179.9952986
 116 TORSION   4  9 13  7               0.0005061       0.0289983
 117 TORSION   4  1  2  5              -3.1414264    -179.9904720
 118 TORSION   4  1  3  7               0.0001907       0.0109286
 119 TORSION   4  1  2  6               0.0000604       0.0034627
 120 TORSION   4  9 14 17               3.1415404     179.9970033
 121 TORSION   4  9 14 26               0.0000051       0.0002931
 122 TORSION   4  1  3  8               3.1413964     179.9887541
 123 TORSION   4  9 13 16              -3.1414956    -179.9944376
 124 TORSION   5 11 15 27               3.1414384     179.9911612
 125 TORSION   5 11 15 12              -0.0000576      -0.0033017
 126 TORSION   5  2  6 12              -0.0001893      -0.0108469
 127 TORSION   5 10  8 22              -3.1415049    -179.9949716
 128 TORSION   5  2  6 20               3.1414869     179.9939430
 129 TORSION   6  2  5 10              -3.1415396    -179.9969600
 130 TORSION   6 12 15 27              -3.1415831    -179.9994539
 131 TORSION   6 12 15 11              -0.0000865      -0.0049579
 132 TORSION   6  2  5 11               0.0000451       0.0025830
 133 TORSION   7  3  8 22              -0.0005156      -0.0295441
 134 TORSION   7  3  8 10               3.1413275     179.9848051
 135 TORSION   7 13  9 14              -3.1413874    -179.9882374
 136 TORSION   7 13 16 18               3.1415325     179.9965527
 137 TORSION   7 13 16 28               0.0000227       0.0013009
 138 TORSION   8  3  7 21               0.0002993       0.0171488
 139 TORSION   8  3  7 13              -3.1411922    -179.9770562
 140 TORSION   8 10  5 11              -3.1414503    -179.9918411
 141 TORSION   9 14 17 29               3.1415863     179.9996382
 142 TORSION   9 14 17 18              -0.0004421      -0.0253291
 143 TORSION   9 13 16 18               0.0003569       0.0204511
 144 TORSION   9 13 16 28              -3.1411528    -179.9748007
 145 TORSION   9 13  7 21               3.1413361     179.9852990
 146 TORSION  10  5 11 24               0.0000552       0.0031627
 147 TORSION  10  5 11 15              -3.1415237    -179.9960488
 148 TORSION  11  5 10 23              -0.0001767      -0.0101259
 149 TORSION  11 15 12 25              -3.1414612    -179.9924674
 150 TORSION  12 15 11 24               3.1415489     179.9974946
 151 TORSION  13  9  4 19               3.1411614     179.9752917
 152 TORSION  13  9 14 26              -3.1412810    -179.9821436
 153 TORSION  13  9 14 17               0.0002542       0.0145666
 154 TORSION  13 16 18 30               3.1415551     179.9978484
 155 TORSION  13 16 18 17              -0.0005463      -0.0313025
 156 TORSION  14  9 13 16              -0.0002037      -0.0116733
 157 TORSION  14 17 18 30              -3.1414963    -179.9944822
 158 TORSION  14 17 18 16               0.0005956       0.0341240
 159 TORSION  14  9  4 19              -0.0001236      -0.0070827
 160 TORSION  15 12  6 20              -3.1414674    -179.9928250
 161 TORSION  16 13  7 21               0.0001621       0.0092873
 162 TORSION  16 18 17 29              -3.1414247    -179.9903791
 163 TORSION  17 18 16 28               3.1409615     179.9638353
 164 TORSION  18 17 14 26               3.1410918     179.9713025
 165 TORSION  20  6 12 25              -0.0000938      -0.0053748
 166 TORSION  22  8 10 23               0.0004170       0.0238922
 167 TORSION  24 11 15 27              -0.0001404      -0.0080425
 168 TORSION  25 12 15 27               0.0002275       0.0130367
 169 TORSION  26 14 17 29              -0.0000651      -0.0037302
 170 TORSION  28 16 18 30              -0.0001224      -0.0070138
 171 TORSION  29 17 18 30              -0.0003314      -0.0189853

     ------------------------------------------
     THE POINT GROUP IS C1 , NAXIS= 1, ORDER= 1
     ------------------------------------------

     DIMENSIONS OF THE SYMMETRY SUBSPACES ARE
 A   =  414

 ..... DONE SETTING UP THE RUN .....
 STEP CPU TIME =     0.04 TOTAL CPU TIME =        0.0 (    0.0 MIN)
 TOTAL WALL CLOCK TIME=        0.0 SECONDS, CPU UTILIZATION IS 100.00%


          -----------------------------
          STATIONARY POINT LOCATION RUN
          -----------------------------

 OBTAINING INITIAL HESSIAN, HESS=GUESS   
 DIAGONAL GUESS HESSIAN IN INTERNAL COORDS IS
     1  0.4259     2  0.4849     3  0.4512     4  0.4680     5  0.4662
     6  0.4339     7  0.4847     8  0.3384     9  0.4673    10  0.4663
    11  0.4350    12  0.3392    13  0.4918    14  0.4667    15  0.3417
    16  0.3422    17  0.5216    18  0.4479    19  0.4589    20  0.3423
    21  0.3423    22  0.4912    23  0.3431    24  0.4720    25  0.4477
    26  0.3425    27  0.5072    28  0.3431    29  0.3425    30  0.5075
    31  0.4541    32  0.3431    33  0.3431    34  0.2669    35  0.2684
    36  0.2321    37  0.2632    38  0.2625    39  0.2631    40  0.2647
    41  0.2641    42  0.2309    43  0.2669    44  0.2689    45  0.2618
    46  0.2670    47  0.2683    48  0.2683    49  0.2289    50  0.2324
    51  0.2662    52  0.2652    53  0.2290    54  0.2684    55  0.2688
    56  0.2312    57  0.2669    58  0.2694    59  0.2330    60  0.2654
    61  0.2651    62  0.2661    63  0.2349    64  0.2644    65  0.2309
    66  0.2685    67  0.2299    68  0.2639    69  0.2349    70  0.2330
    71  0.2693    72  0.2326    73  0.2317    74  0.2312    75  0.2685
    76  0.2299    77  0.2645    78  0.2340    79  0.2690    80  0.2317
    81  0.2329    82  0.2340    83  0.2691    84  0.2304    85  0.2340
    86  0.2304    87  0.2340    88  0.2500    89  0.2500    90  0.2500
    91  0.2500    92  0.2500    93  0.2500    94  0.2500    95  0.2500
    96  0.2500    97  0.2500    98  0.2500    99  0.2500   100  0.2500
   101  0.2500   102  0.2500   103  0.2500   104  0.2500   105  0.2500
   106  0.2500   107  0.2500   108  0.2500   109  0.2500   110  0.2500
   111  0.2500   112  0.2500   113  0.2500   114  0.2500   115  0.2500
   116  0.2500   117  0.2500   118  0.2500   119  0.2500   120  0.2500
   121  0.2500   122  0.2500   123  0.2500   124  0.2500   125  0.2500
   126  0.2500   127  0.2500   128  0.2500   129  0.2500   130  0.2500
   131  0.2500   132  0.2500   133  0.2500   134  0.2500   135  0.2500
   136  0.2500   137  0.2500   138  0.2500   139  0.2500   140  0.2500
   141  0.2500   142  0.2500   143  0.2500   144  0.2500   145  0.2500
   146  0.2500   147  0.2500   148  0.2500   149  0.2500   150  0.2500
   151  0.2500   152  0.2500   153  0.2500   154  0.2500   155  0.2500
   156  0.2500   157  0.2500   158  0.2500   159  0.2500   160  0.2500
   161  0.2500   162  0.2500   163  0.2500   164  0.2500   165  0.2500
   166  0.2500   167  0.2500   168  0.2500   169  0.2500   170  0.2500
   171  0.2500
 TRANSFORMING HESSIAN TO SYMMETRY COORDINATES

          PARAMETERS CONTROLLING GEOMETRY SEARCH ARE
          METHOD =QA                  UPHESS =BFGS    
          NNEG   =         0          NFRZ   =         3
          NSTEP  =        50          IFOLOW =         1
          HESS   =GUESS               RESTAR =         F
          IHREP  =         0          HSSEND =         F
          NPRT   =         0          NPUN   =         0
          OPTTOL = 5.000E-04          RMIN   = 1.500E-03
          RMAX   = 1.000E-01          RLIM   = 7.000E-02
          DXMAX  = 3.000E-01          PURIFY =         F
          MOVIE  =         F          TRUPD  =         T
          TRMAX  = 5.000E-01          TRMIN  = 5.000E-02
          ITBMAT =         5          STPT   =         F
          STSTEP = 1.000E-02          PROJCT=          F
          FROZEN COORD(S)=   1   2   3


      ***** EQUILIBRIUM GEOMETRY LOCATED *****
            (SUBJECT TO   3 CONSTRAINT(S))
 COORDINATES OF ALL ATOMS ARE (ANGS)
   ATOM   CHARGE       X              Y              Z
 ------------------------------------------------------------
 C           6.0   4.2152746942   1.5161850487   5.1057999754
 C           6.0   4.6352924507   1.4195150037   3.7067327264
 C           6.0   5.0981803421   1.0539289282   6.1250206084
 C           6.0   2.9940815601   2.0395574260   5.4666743456
 C           6.0   5.8888092709   0.8780186713   3.3991526531
 C           6.0   3.8097470195   1.8576668864   2.6607553102
 C           6.0   4.7169011593   1.1379704109   7.4456767715
 C           6.0   6.3862526715   0.5013400369   5.7502898703
 C           6.0   2.5992286646   2.1287926244   6.8030690875
 C           6.0   6.7579352553   0.4186161963   4.4704004258
 C           6.0   6.2863081071   0.7877744403   2.0549836461
 C           6.0   4.2110397041   1.7632921205   1.3554561620
 C           6.0   3.4756163530   1.6697063927   7.8127987645
 C           6.0   1.3302499986   2.6729551056   7.1727947327
 C           6.0   5.4630304293   1.2225824604   1.0464979658
 C           6.0   3.0639739343   1.7645503768   9.1763904044
 C           6.0   0.9720814651   2.7480015601   8.4736075519
 C           6.0   1.8571774024   2.2840875593   9.4947187523
 H           1.0   2.3102275319   2.3946377422   4.7218128144
 H           1.0   2.8464844310   2.2750772805   2.8755895638
 H           1.0   5.3846202933   0.7884919240   8.2135882175
 H           1.0   7.0369045215   0.1585570000   6.5358119505
 H           1.0   7.7165668640   0.0061074135   4.2085659565
 H           1.0   7.2503208830   0.3710679213   1.8217611599
 H           1.0   3.5563876652   2.1074845385   0.5754467453
 H           1.0   0.6699491048   3.0196519212   6.3964853118
 H           1.0   5.7742474562   1.1503060341   0.0206025842
 H           1.0   3.7347052967   1.4140766796   9.9404646597
 H           1.0   0.0172496255   3.1575924322   8.7498281711
 H           1.0   1.5541618953   2.3522113875  10.5234262933


                     --------------------
                     INTERNAL COORDINATES
                     --------------------

                 - - ATOMS - -         COORDINATE      COORDINATE
 NO.   TYPE    I  J  K  L  M  N        (BOHR,RAD)       (ANG,DEG)
 ----------------------------------------------------------------
   1 STRETCH   1  2                     2.7664641       1.4639499
   2 STRETCH   1  4                     2.6016947       1.3767577
   3 STRETCH   1  3                     2.6937802       1.4254872
   4 STRETCH   2  5                     2.6450279       1.3996886
   5 STRETCH   2  6                     2.6507212       1.4027014
   6 STRETCH   3  8                     2.7416713       1.4508301
   7 STRETCH   3  7                     2.6024549       1.3771599
   8 STRETCH   4 19                     2.0252336       1.0717075
   9 STRETCH   4  9                     2.6387387       1.3963605
  10 STRETCH   5 11                     2.6543350       1.4046137
  11 STRETCH   5 10                     2.7475878       1.4539609
  12 STRETCH   6 20                     2.0249717       1.0715689
  13 STRETCH   6 12                     2.5867500       1.3688493
  14 STRETCH   7 13                     2.6444753       1.3993962
  15 STRETCH   7 21                     2.0332539       1.0759517
  16 STRETCH   8 22                     2.0334479       1.0760544
  17 STRETCH   8 10                     2.5234092       1.3353307
  18 STRETCH   9 14                     2.7011296       1.4293763
  19 STRETCH   9 13                     2.6713866       1.4136370
  20 STRETCH  10 23                     2.0332743       1.0759625
  21 STRETCH  11 24                     2.0329778       1.0758056
  22 STRETCH  11 15                     2.5937393       1.3725478
  23 STRETCH  12 25                     2.0313037       1.0749197
  24 STRETCH  12 15                     2.6424444       1.3983215
  25 STRETCH  13 16                     2.6976307       1.4275248
  26 STRETCH  14 26                     2.0342900       1.0765000
  27 STRETCH  14 17                     2.5536000       1.3513070
  28 STRETCH  15 27                     2.0305027       1.0744958
  29 STRETCH  16 28                     2.0322436       1.0754171
  30 STRETCH  16 18                     2.5547038       1.3518912
  31 STRETCH  17 18                     2.6999146       1.4287334
  32 STRETCH  17 29                     2.0315797       1.0750657
  33 STRETCH  18 30                     2.0306409       1.0745690
  34 BEND      1  3  7                  2.0879345     119.6298352
  35 BEND      1  4  9                  2.1246604     121.7340732
  36 BEND      1  4 19                  2.1057133     120.6484837
  37 BEND      1  2  5                  2.0857575     119.5050994
  38 BEND      1  3  8                  2.0814235     119.2567834
  39 BEND      1  2  6                  2.1213464     121.5441933
  40 BEND      2  1  4                  2.1295066     122.0117419
  41 BEND      2  5 10                  2.0894024     119.7139406
  42 BEND      2  6 20                  2.0958160     120.0814093
  43 BEND      2  5 11                  2.0812690     119.2479286
  44 BEND      2  6 12                  2.1141344     121.1309801
  45 BEND      2  1  3                  2.0762378     118.9596651
  46 BEND      3  1  4                  2.0774408     119.0285926
  47 BEND      3  7 13                  2.1180518     121.3554294
  48 BEND      3  8 10                  2.1156329     121.2168339
  49 BEND      3  8 22                  2.0596478     118.0091282
  50 BEND      3  7 21                  2.0860845     119.5238404
  51 BEND      4  9 13                  2.0800712     119.1793037
  52 BEND      4  9 14                  2.1210746     121.5286215
  53 BEND      5 10 23                  2.0651039     118.3217349
  54 BEND      5 10  8                  2.1179165     121.3476774
  55 BEND      5 11 15                  2.1095159     120.8663560
  56 BEND      5 11 24                  2.0782272     119.0736455
  57 BEND      5  2  6                  2.0760815     118.9507071
  58 BEND      6 12 15                  2.0942029     119.9889849
  59 BEND      6 12 25                  2.0844210     119.4285284
  60 BEND      7  3  8                  2.1138272     121.1133793
  61 BEND      7 13 16                  2.1313079     122.1149479
  62 BEND      7 13  9                  2.0782118     119.0727626
  63 BEND      8 10 23                  2.1001649     120.3305862
  64 BEND      9 13 16                  2.0736656     118.8122875
  65 BEND      9  4 19                  2.0528116     117.6174428
  66 BEND      9 14 17                  2.1006995     120.3612150
  67 BEND      9 14 26                  2.0721611     118.7260852
  68 BEND     10  5 11                  2.1125139     121.0381308
  69 BEND     10  8 22                  2.1079046     120.7740371
  70 BEND     11 15 27                  2.1018949     120.4297048
  71 BEND     11 15 12                  2.0911670     119.8150429
  72 BEND     12  6 20                  2.0732349     118.7876106
  73 BEND     12 15 27                  2.0901234     119.7552522
  74 BEND     13  7 21                  2.0790489     119.1207301
  75 BEND     13 16 18                  2.1035045     120.5219328
  76 BEND     13 16 28                  2.0682276     118.5007105
  77 BEND     13  9 14                  2.0820395     119.2920734
  78 BEND     14 17 29                  2.0989065     120.2584842
  79 BEND     14 17 18                  2.1010570     120.3816992
  80 BEND     15 12 25                  2.1045614     120.5824861
  81 BEND     15 11 24                  2.0954423     120.0599985
  82 BEND     16 18 30                  2.0961348     120.0996768
  83 BEND     16 18 17                  2.1054044     120.6307875
  84 BEND     17 18 30                  2.0816460     119.2695329
  85 BEND     17 14 26                  2.1103247     120.9126998
  86 BEND     18 17 29                  2.0832218     119.3598145
  87 BEND     18 16 28                  2.1114532     120.9773566
  88 TORSION   1  4  9 14              -3.1415664    -179.9984939
  89 TORSION   1  3  7 13              -0.0000034      -0.0001946
  90 TORSION   1  2  5 10              -0.0000447      -0.0025608
  91 TORSION   1  2  5 11               3.1415387     179.9969102
  92 TORSION   1  2  6 12               3.1415631     179.9983075
  93 TORSION   1  2  6 20              -0.0000034      -0.0001972
[...]
 873  15   8.125793  -0.653869   2.760323   0.001389   0.205692   0.006752
 874  15   7.875033  -0.106659   0.786499   0.001762   0.421298   0.004182
 875  15   8.223981   1.681997  -0.929795  -0.001451   0.421298  -0.003445
 876  12   7.419219  -0.243479   2.135769   0.002915   0.421298   0.006918
 877  12   7.366715   0.905445  -0.087728   0.000241   0.421298   0.000571
 878  12   7.845185   2.614717  -1.140227  -0.000738   0.205692  -0.003586
 879  15   9.181288   4.038625  -1.174850  -0.000744   0.205683  -0.003615
 880  15  10.082000   5.407706   0.079068   0.000215   0.421279   0.000510
 881  15  10.863148   5.885167   2.408900   0.002923   0.421279   0.006938
 882  12   8.947288   4.854678  -0.594345  -0.001356   0.421279  -0.003218
 883  12   9.961102   6.107741   1.320934   0.001780   0.421279   0.004225
 884  12  10.439180   6.067954   3.327880   0.001397   0.205683   0.006794
 885  12   4.784678   5.407372   2.429503  -0.000206   0.021178  -0.009725
 886  20   4.520959   5.404236   3.111381  -0.000210   0.021178  -0.009928
 887  25   4.786225   5.360058   2.136569  -0.000253   0.021178  -0.011965
 888  12   4.304798   4.335909   2.359464  -0.000206   0.021178  -0.009712
 889  20   4.098083   4.460051   3.049662  -0.000228   0.021178  -0.010780
 890  25   4.355240   4.397768   2.073666  -0.000211   0.021178  -0.009982
 891  20   4.274223   5.574145   3.553716  -0.000129   0.016182  -0.007987
 892  12   4.722207   5.521541   2.558867  -0.000042   0.022862  -0.001836
 893  20   3.789853   4.499756   3.480632  -0.000161   0.016137  -0.009993
 894  12   4.168222   4.278256   2.480155  -0.000051   0.022799  -0.002224
 895  25   4.965555   5.619000   1.615968  -0.000512   0.065748  -0.007788
 896  25   5.775475   6.193705   1.189806  -0.000874   0.145538  -0.006003
 897  25   6.793653   6.279839   0.373265  -0.000838   0.145538  -0.005758
 898  25   7.491981   5.611350  -0.507817  -0.000849   0.145538  -0.005835
 899  25   7.594563   4.452347  -1.105340  -0.001040   0.145538  -0.007143
 900  25   7.060869   3.260731  -1.183234  -0.001067   0.145538  -0.007329
 901  25   6.101753   2.507288  -0.710723  -0.000876   0.145538  -0.006020
 902  25   5.096145   2.489691   0.125511  -0.000734   0.145538  -0.005042
 903  25   4.441342   3.214892   0.995087  -0.000879   0.145538  -0.006038
 904  25   4.307651   4.150050   1.519946  -0.000454   0.065748  -0.006904
 905  12   5.382273   5.946528   1.860684  -0.000920   0.144449  -0.006367
 906  12   6.538560   6.474897   1.123372  -0.000606   0.144449  -0.004198
 907  12   7.554339   6.130276   0.118768  -0.000571   0.144449  -0.003955
 908  12   8.028294   5.048819  -0.756228  -0.000847   0.144449  -0.005863
 909  12   7.773174   3.657790  -1.155920  -0.001163   0.144449  -0.008052
 910  12   6.889773   2.506760  -0.922397  -0.000856   0.144449  -0.005928
 911  12   5.727105   2.050481  -0.147920  -0.000539   0.144449  -0.003732
 912  12   4.744522   2.469221   0.861530  -0.000582   0.144449  -0.004026
 913  12   4.330223   3.597542   1.707135  -0.000995   0.144449  -0.006889
 914  27   9.246072   2.951858  -1.669522  -0.000881   0.142881  -0.006168
 915  12   8.330316   3.491521  -1.310597  -0.000480   0.201471  -0.002383
 916  16   8.272431   6.125421  16.833201   0.000801   0.218738   0.003664
 917  16   6.852740   6.814616  16.356687   0.001094   0.218738   0.005001
 918  13   7.732711   6.377613  15.954437   0.001646   0.449375   0.003664
 919  16   3.958975   0.356033  15.932332   0.001099   0.218902   0.005020
 920  16   5.396001  -0.297204  16.411577   0.000812   0.218902   0.003710
 921  13   4.890963   0.033784  15.537803   0.001729   0.449746   0.003844
 922  14   2.137390   1.465446  14.987478   0.000381   0.047899   0.007963
 923  17   2.016347   1.452930  15.410890   0.000441   0.047899   0.009217
 924  18   2.311438   1.339354  15.753179   0.000396   0.047899   0.008271
 925  17   4.261218   8.034169  15.517930   0.001600   0.201274   0.007951
 926  17   2.342253   8.631506  14.955094   0.003353   0.413463   0.008109
 927  17   0.008110   7.859619  14.356936  -0.000818   0.413463  -0.001978
 928  14   3.709162   8.286422  14.695563   0.003830   0.413463   0.009262
 929  14   1.276193   8.435239  14.017076   0.001649   0.413463   0.003987
 930  14  -0.463216   7.359746  13.600190  -0.000704   0.201274  -0.003496
 931  17  -1.357715   5.771581  14.101331  -0.000736   0.201249  -0.003658
 932  17  -1.017791   3.723495  14.313087   0.001664   0.413406   0.004024
 933  17   0.681959   1.938749  14.884068   0.003858   0.413406   0.009332
 934  14  -1.117360   4.938847  13.559745  -0.000817   0.413406  -0.001977
 935  14  -0.164043   2.629073  13.955492   0.003351   0.413406   0.008106
 936  14   1.532072   1.534909  14.485631   0.001622   0.201249   0.008060
 937  14   1.113587   3.844498  10.184317  -0.000498   0.082920  -0.006003
 938  19   1.716882   3.877850   9.447004  -0.000698   0.082920  -0.008418
 939  26   0.975497   4.100636  10.107025  -0.000664   0.082920  -0.008004
 940  14   2.641509   7.255149  10.407940  -0.000491   0.082920  -0.005920
 941  19   3.054993   6.864803   9.642847  -0.000705   0.082920  -0.008503
 942  26   2.362733   7.197246  10.310057  -0.000617   0.082920  -0.007442
 943  19   1.929393   3.632636   8.981065  -0.000032   0.011762  -0.002707
 944  14   1.090527   3.627618  10.111539   0.000062   0.016639   0.003718
 945  19   3.393202   6.916166   9.193488  -0.000055   0.011624  -0.004758
 946  14   2.798375   7.426014  10.363072   0.000063   0.016445   0.003827
 947  26   0.345094   4.094632  10.479406  -0.000434   0.067664  -0.006412
 948  26  -0.451480   4.260329  11.230929  -0.000913   0.150525  -0.006067
 949  26  -1.052726   5.075755  12.106484  -0.000973   0.150525  -0.006463
 950  26  -0.998670   6.313922  12.613470  -0.001309   0.150525  -0.008697
 951  26  -0.311740   7.461077  12.541522  -0.001152   0.150525  -0.007651
 952  26   0.723035   8.041231  11.920493  -0.000905   0.150525  -0.006010
 953  26   1.676296   7.813659  11.008068  -0.000962   0.150525  -0.006391
 954  14   0.164503   3.780288  10.947013  -0.000731   0.147959  -0.004941
 955  14  -0.789711   4.296319  11.989075  -0.000629   0.147959  -0.004251
 956  14  -1.114358   5.514713  12.809335  -0.001025   0.147959  -0.006928
 957  14  -0.674732   6.929921  13.067443  -0.001239   0.147959  -0.008375
 958  14   0.346753   7.954731  12.656300  -0.000785   0.147959  -0.005304
 959  14   1.526252   8.163918  11.746504  -0.000644   0.147959  -0.004354
 960  14   2.296303   7.734472  10.899751  -0.000358   0.082667  -0.004331
 961  29  -1.391543   6.801710  14.645421  -0.000870   0.127192  -0.006840
 962  14  -1.063003   6.582958  13.618675  -0.000642   0.179586  -0.003577
 963  15  13.344081   0.874088   0.189533  -0.000090   0.006658  -0.013533
 964  24  13.804677   0.656757   0.725103  -0.000142   0.006658  -0.021319
 965  27  13.215025   0.968820  -0.059728  -0.000116   0.006658  -0.017491
 966  15  13.492828   1.206084   0.211264  -0.000090   0.006658  -0.013447
 967  24  13.935510   0.948770   0.744217  -0.000136   0.006658  -0.020395
 968  27  13.348458   1.266637  -0.040234  -0.000099   0.006658  -0.014824
 969  24  14.182564   0.356072   0.985094  -0.000284   0.032080  -0.008852
 970  15  13.449319   0.725418   0.246835  -0.000168   0.045290  -0.003718
 971  24  14.386075   0.807347   1.011582  -0.000285   0.031992  -0.008903
 972  15  13.681867   1.247095   0.283709  -0.000165   0.045165  -0.003654
 973  27  12.897718   0.845341  -0.532672  -0.000522   0.066188  -0.007880
 974  27  12.045897   0.202630  -0.745796  -0.000862   0.146754  -0.005873
 975  27  10.790026   0.067614  -1.117266  -0.000831   0.146754  -0.005664
 976  27   9.723548   0.744554  -1.488491  -0.000755   0.146754  -0.005142
 977  27   9.274144   1.961982  -1.710603  -0.001027   0.146754  -0.007000
 978  15  12.653621   0.404766  -0.234052  -0.000962   0.145179  -0.006624
 979  15  11.352200  -0.203951  -0.585963  -0.000617   0.145179  -0.004248
 980  15   9.976843   0.116991  -1.025807  -0.000611   0.145179  -0.004208
 981  15   9.079096   1.238887  -1.377197  -0.000790   0.145179  -0.005439
 982  15   8.886303   2.415903  -1.518615  -0.000504   0.080863  -0.006233
 983  27   9.729939   3.473083  -1.678803  -0.000451   0.066188  -0.006815
 984  27  10.626750   4.044128  -1.446981  -0.000960   0.146754  -0.006539
 985  27  11.886911   4.074738  -1.066853  -0.000723   0.146754  -0.004927
 986  27  12.896589   3.310358  -0.706698  -0.000819   0.146754  -0.005582
 987  27  13.250880   2.057522  -0.510945  -0.001066   0.146754  -0.007265
 988  15   9.819687   3.944415  -1.343160  -0.000980   0.145180  -0.006747
 989  15  11.161348   4.444216  -0.971368  -0.000628   0.145180  -0.004323
 990  15  12.505608   4.009657  -0.532952  -0.000568   0.145180  -0.003915
 991  15  13.313388   2.815007  -0.203728  -0.000813   0.145180  -0.005601
 992  15  13.415382   1.623811  -0.088856  -0.000591   0.080863  -0.007306
 993  16   5.160570   2.922886  21.142786  -0.000077   0.005573  -0.013864
 994  18   4.775082   3.080723  21.284297  -0.000098   0.005573  -0.017497
 995  30   4.549140   3.213186  21.424014  -0.000076   0.005573  -0.013722
 996  16   5.490472   3.659537  21.191179  -0.000071   0.005573  -0.012695
 997  18   5.109076   3.826509  21.333291  -0.000090   0.005573  -0.016124
 998  30   4.853060   3.891820  21.468596  -0.000097   0.005573  -0.017442
 999  18   5.428250   4.283628  21.185938  -0.000640   0.199468  -0.003209
1000  18   5.885683   5.998300  20.121593   0.001720   0.409347   0.004202
1001  18   5.791937   7.146867  17.891646   0.003836   0.409347   0.009372
1002  16   6.190990   4.723324  20.677675  -0.000678   0.409347  -0.001656
1003  16   6.506926   6.516100  18.949440   0.003348   0.409347   0.008179
1004  16   6.220145   7.060524  16.973703   0.001645   0.199468   0.008247
1005  18   2.761221   0.838889  16.697275   0.001634   0.199485   0.008190
1006  18   3.260707   0.769318  18.704384   0.003346   0.409384   0.008173
1007  18   4.298312   1.998776  20.631387  -0.000689   0.409384  -0.001683
1008  16   3.494119   0.514603  17.322762   0.003806   0.409384   0.009296
1009  16   4.301562   0.959534  19.657629   0.001717   0.409384   0.004195
1010  16   5.219154   2.315110  20.923825  -0.000632   0.199485  -0.003170
1011  16   9.498795   3.645876  18.307943  -0.000444   0.084403  -0.005263
1012  21  10.127169   3.142807  17.766922  -0.000638   0.084403  -0.007560
1013  28   9.495324   3.444342  18.530998  -0.000660   0.084403  -0.007824
1014  16   7.985649   0.266858  18.086330  -0.000441   0.084403  -0.005224
1015  21   8.805184   0.190674  17.573306  -0.000640   0.084403  -0.007587
1016  28   8.122269   0.378164  18.329902  -0.000620   0.084403  -0.007350
1017  28   9.211734   3.804513  19.113554  -0.000434   0.067806  -0.006400
1018  28   8.532797   4.209136  19.895138  -0.000899   0.151019  -0.005955
1019  28   7.491649   4.022721  20.723584  -0.000959   0.151019  -0.006351
1020  28   6.584229   3.106104  21.099707  -0.001288   0.151019  -0.008527
1021  28   6.190422   1.843020  20.866047  -0.001137   0.151019  -0.007529
1022  28   6.475090   0.762245  20.120424  -0.000895   0.151019  -0.005927
1023  28   7.319060   0.316237  19.174985  -0.000961   0.151019  -0.006362
1024  16   8.902684   4.307910  19.155693  -0.000730   0.148089  -0.004931
1025  16   7.846006   4.566365  20.201824  -0.000618   0.148089  -0.004172
1026  16   6.689364   3.911621  20.916839  -0.001017   0.148089  -0.006868
1027  16   5.916974   2.617782  21.001404  -0.001224   0.148089  -0.008267
1028  16   5.852191   1.226501  20.420115  -0.000772   0.148089  -0.005216
1029  16   6.522135   0.320224  19.416325  -0.000678   0.148089  -0.004578
1030  16   7.391043   0.137513  18.569765  -0.000362   0.082840  -0.004373
1031  30   4.545922   3.528664  21.569046  -0.000916   0.149097  -0.006141
1032  16   5.555631   3.262415  21.218547  -0.000641   0.210484  -0.003047
1033  17   0.453571   6.090698  19.529221  -0.000114   0.006872  -0.016638
1034  18   0.714201   5.956973  19.890580  -0.000082   0.006872  -0.011946
1035  30   0.821676   5.845399  20.143761  -0.000122   0.006872  -0.017823
1036  17   0.074931   5.245922  19.473632  -0.000113   0.006872  -0.016456
1037  18   0.330450   5.100794  19.834240  -0.000072   0.006872  -0.010516
1038  30   0.472692   5.066786  20.092525  -0.000132   0.006872  -0.019167
1039  18   0.127269   4.624317  19.592318  -0.000791   0.207478  -0.003813
1040  18   0.261125   2.817596  18.655468  -0.000262   0.424055  -0.000619
1041  18   1.470246   1.447307  16.984850   0.002379   0.424055   0.005609
1042  17  -0.280169   4.128815  18.786294  -0.001605   0.424055  -0.003785
1043  17   0.313200   2.175852  17.384695   0.001124   0.424055   0.002650
1044  17   1.565294   1.427297  15.959292   0.001281   0.207478   0.006172
1045  18   4.872884   7.667343  16.861294   0.001347   0.207477   0.006492
1046  18   3.411679   7.949350  18.255995   0.001126   0.424054   0.002655
1047  18   1.494946   6.949774  19.463304  -0.001609   0.424054  -0.003794
1048  17   3.917310   8.046380  16.927714   0.002377   0.424054   0.005606
1049  17   2.010315   7.859650  18.495872  -0.000261   0.424054  -0.000616
1050  17   0.531424   6.665484  19.235253  -0.000787   0.207477  -0.003791
1051  17  -0.155114   5.408908  19.234803  -0.000195   0.015890  -0.012279
1052  29  -0.356591   5.557539  19.075754  -0.000191   0.015890  -0.012032
1053  30   0.321856   5.215288  19.787914  -0.000170   0.015890  -0.010683
1054  17   0.190156   6.179568  19.285557  -0.000180   0.015890  -0.011318
1055  29  -0.046931   6.248716  19.121274  -0.000207   0.015890  -0.013039
1056  30   0.625116   5.892179  19.832493  -0.000172   0.015890  -0.010833
1057  29  -0.337041   6.725637  18.837510  -0.000533   0.072084  -0.007394
1058  29  -0.111932   7.684942  18.193165  -0.001099   0.162866  -0.006748
1059  29  -0.208472   8.314659  16.925673  -0.000849   0.162866  -0.005213
1060  29  -0.698297   8.053120  15.620274  -0.001040   0.162866  -0.006386
1061  29  -1.233809   7.288716  14.902615  -0.000487   0.072084  -0.006759
1062  17   0.155227   7.074982  18.749999  -0.001107   0.155294  -0.007127
1063  17   0.302163   8.182841  17.615141  -0.000676   0.155294  -0.004350
1064  17  -0.048357   8.402931  16.077109  -0.000637   0.155294  -0.004105
1065  17  -0.730782   7.631305  14.862312  -0.001073   0.155294  -0.006910
1066  29  -1.715071   6.214382  14.832067  -0.000532   0.072074  -0.007377
1067  29  -1.961292   5.233776  15.435021  -0.000986   0.162838  -0.006057
1068  29  -1.892888   4.554701  16.678440  -0.000973   0.162838  -0.005973
1069  29  -1.422333   4.759947  18.000699  -0.001060   0.162838  -0.006508
1070  29  -0.890763   5.489687  18.756132  -0.000509   0.072074  -0.007057
1071  17  -1.632329   5.618785  14.730110  -0.001009   0.155277  -0.006495
1072  17  -1.810252   4.469965  15.818592  -0.000653   0.155277  -0.004206
1073  17  -1.488077   4.186723  17.352286  -0.000687   0.155277  -0.004423
1074  17  -0.817926   4.902798  18.607027  -0.001081   0.155277  -0.006964
1075  30   4.624209   4.273720  21.658853  -0.000501   0.071145  -0.007046
1076  30   4.401178   5.407388  21.518082  -0.000951   0.160296  -0.005935
1077  30   3.462114   6.392617  21.176227  -0.000943   0.160296  -0.005882
1078  30   2.123257   6.514586  20.773775  -0.001030   0.160296  -0.006423
1079  30   1.125075   5.974497  20.515515  -0.000530   0.071145  -0.007445
1080  18   4.906420   4.726343  21.371231  -0.000967   0.153670  -0.006290
1081  18   4.282618   6.146493  21.093437  -0.000633   0.153670  -0.004116
1082  18   2.922868   6.807408  20.649141  -0.000667   0.153670  -0.004342
1083  18   1.454596   6.404124  20.243352  -0.001051   0.153670  -0.006838
1084  30   0.560736   4.715330  20.432669  -0.000521   0.071161  -0.007320
1085  30   0.811973   3.588331  20.581306  -0.001069   0.160341  -0.006666
1086  30   1.775933   2.629050  20.928777  -0.000818   0.160341  -0.005100
1087  30   3.118317   2.543506  21.329856  -0.000995   0.160341  -0.006208
1088  30   4.103237   3.110500  21.582427  -0.000447   0.071161  -0.006277
1089  18   0.474239   4.216531  20.099446  -0.001079   0.153697  -0.007021
1090  18   1.133562   2.814037  20.386534  -0.000658   0.153697  -0.004279
1091  18   2.510316   2.190337  20.833374  -0.000614   0.153697  -0.003993
1092  18   3.968945   2.633353  21.233691  -0.001026   0.153697  -0.006675
1093  20   3.164254   3.185507   6.166845  -0.001333   0.189012  -0.007052
1094  20   2.919470   4.263395   6.025945  -0.004192   0.378417  -0.011078
1095  20   3.282874   5.576848   6.046443  -0.004445   0.378417  -0.011747
1096  20   4.317383   6.429656   6.291699  -0.003755   0.378417  -0.009923
1097  19   2.727880   3.660509   7.199259  -0.003729   0.378417  -0.009856
1098  19   2.683813   5.019017   7.098487  -0.004505   0.378417  -0.011905
1099  19   3.418933   6.158187   7.238239  -0.004280   0.378417  -0.011311
1100  19   4.376738   6.672230   7.483153  -0.001402   0.189012  -0.007415
1101  26   2.004050   7.169192   9.995990  -0.000986   0.263875  -0.003738
1102  26   1.236518   6.302881   9.567545  -0.003551   0.527961  -0.006726
1103  26   0.805547   4.873203   9.679007  -0.003284   0.527961  -0.006220
1104  19   2.678019   6.486216   8.806509  -0.003496   0.527961  -0.006622
1105  19   1.907831   5.234646   8.519247  -0.003957   0.527961  -0.007494
1106  19   1.754664   4.045760   8.812941  -0.001256   0.263875  -0.004759
1107  25   4.388439   4.855790   1.938305  -0.001267   0.352608  -0.003594
1108  20   4.049516   5.148112   3.327628  -0.001461   0.352608  -0.004142
1109  22  13.777264   1.596836  14.621495  -0.000975   0.266061  -0.003663
1110  22  13.624837   0.404443  14.919086  -0.003538   0.532328  -0.006645
1111  22  12.852229  -0.850652  14.629459  -0.003281   0.532328  -0.006164
1112  21  12.754863   1.519684  15.765009  -0.003280   0.532328  -0.006162
1113  21  12.323304   0.085478  15.878499  -0.003763   0.532328  -0.007069
1114  21  11.553170  -0.782510  15.445964  -0.001126   0.266061  -0.004230
1115  28   8.458668   0.408997  18.666346  -0.000942   0.265819  -0.003543
1116  28   9.223266   1.267942  19.085704  -0.003441   0.531768  -0.006471
1117  28   9.648931   2.687140  18.978274  -0.003166   0.531768  -0.005954
1118  21   9.755153   0.339901  17.813437  -0.003306   0.531768  -0.006218
1119  21  10.520906   1.581269  18.095360  -0.003593   0.531768  -0.006757
1120  21  10.669768   2.762177  17.809787  -0.001130   0.265819  -0.004253
1121  23  16.047463  -0.741371  10.066916  -0.000228   0.126395  -0.001804
1122  22  15.609537  -0.719063  11.456114  -0.000223   0.126395  -0.001762
1123  24  15.971454   1.254741   4.718363  -0.000950   0.267030  -0.003559
1124  24  15.959805   0.035418   4.534200  -0.003354   0.534225  -0.006279
1125  24  15.112148  -1.197031   4.511336  -0.003121   0.534225  -0.005842
1126  23  16.281188   0.569118   6.071819  -0.003187   0.534225  -0.005965
1127  23  15.928547  -0.876724   5.919630  -0.003445   0.534225  -0.006448
1128  23  15.020479  -1.709616   5.969660  -0.000942   0.267030  -0.003529
1129  27  13.367501   1.129226  -0.265482  -0.000119   0.110067  -0.001083
1130  24  14.225590   0.602729   0.810186  -0.000149   0.110067  -0.001358
1131  30   0.545814   5.576607  20.233650  -0.000714   0.259392  -0.002752
1132  29  -0.437989   5.921706  19.160613  -0.000657   0.259392  -0.002533
 =====================================================

             14012442  WORDS OF DYNAMIC MEMORY USED
 EXECUTION OF GAMESS TERMINATED NORMALLY Wed Nov 23 18:49:14 2016
 DDI: 263640 bytes (0.3 MB / 0 MWords) used by master data server.

 ----------------------------------------
 CPU timing information for all processes
 ========================================
 0: 3164.220 + 0.596 = 3164.816
 ----------------------------------------
 ddikick.x: exited gracefully.
