----- GAMESS execution script -----

          ******************************************************
          *         GAMESS VERSION =  5 DEC 2014 (R1)          *
          *             FROM IOWA STATE UNIVERSITY             *
          * M.W.SCHMIDT, K.K.BALDRIDGE, J.A.BOATZ, S.T.ELBERT, *
          *   M.S.GORDON, J.H.JENSEN, S.KOSEKI, N.MATSUNAGA,   *
          *          K.A.NGUYEN, S.J.SU, T.L.WINDUS,           *
          *       TOGETHER WITH M.DUPUIS, J.A.MONTGOMERY       *
          *         J.COMPUT.CHEM.  14, 1347-1363(1993)        *
          **************** 64 BIT LINUX VERSION ****************

 EXECUTION OF GAMESS BEGUN Wed Nov 23 18:43:41 2016

            ECHO OF THE FIRST FEW INPUT CARDS -
 INPUT CARD>! SELECT RESTRICTED HARTREE-FOCK AS DEFAULT                                     
 INPUT CARD>$contrl scftyp=rhf $end                                                         
 INPUT CARD>                                                                                
 INPUT CARD>! THEORY: HF OR DFT                                                             
 INPUT CARD> $contrl mplevl=0 $end                                                          
 INPUT CARD>                                                                                
 INPUT CARD> $system timlim=10000 mwords=20 $end                                            
 INPUT CARD> $SCF DIRSCF=.TRUE. $end                                                        
 INPUT CARD>                                                                                
 INPUT CARD>                                                                                
 INPUT CARD>! BASIS SETS                                                                    
 INPUT CARD>! 6-311G(d,p)                                                                   
 INPUT CARD> $BASIS GBASIS=N311 NGAUSS=6 NDFUNC=1 NPFUNC=1 $END                             
 INPUT CARD>                                                                                
 INPUT CARD>! One of the following                                                          
 INPUT CARD> $guess guess=HUCKEL $end                                                       
 INPUT CARD>                                                                                
 INPUT CARD> $statpt projct=.FALSE. $end                                                    
 INPUT CARD> $STATPT IFREEZ(1)=1,2,3 $END                                                   
 INPUT CARD>                                                                                
 INPUT CARD>! Optimize the geometry with COSMO effects                                      
 INPUT CARD> $statpt opttol=0.0005 nstep=50 $end                                            
 INPUT CARD> $contrl nzvar=1 $end                                                           
 INPUT CARD> $zmat dlc=.t. auto=.t. $end                                                    
 INPUT CARD> $contrl runtyp=OPTIMIZE maxit=200 $end                                         
 INPUT CARD>                                                                                
 INPUT CARD>! Run COSMO on perfect conductor                                                
 INPUT CARD> $COSGMS PRFCND=.TRUE. $end                                                     
 INPUT CARD>                                                                                
 INPUT CARD>! Specifying RSOLV                                                              
 INPUT CARD> $COSGMS COSRAD = 1.4 $end                                                      
 INPUT CARD>                                                                                
 INPUT CARD>! available memory                                                              
 INPUT CARD> $SYSTEM MWORDS=40 $END                                                         
 INPUT CARD>                                                                                
 INPUT CARD> $DATA                                                                          
 INPUT CARD>http://cactus.nci.nih.gov/chemical/structure/BENZYL%20CHLORIDE/file?format=sdf&g
 INPUT CARD>C1                                                                              
 INPUT CARD>C      6.0      1.3761000000   -0.0020000000   -0.9497000000                    
 INPUT CARD>C      6.0     -0.0539000000   -0.0009000000   -0.4744000000                    
 INPUT CARD>C      6.0     -0.7097000000    1.1967000000   -0.2587000000                    
 INPUT CARD>C      6.0     -2.0214000000    1.1977000000    0.1774000000                    
 INPUT CARD>C      6.0     -2.6776000000    0.0011000000    0.3974000000                    
 INPUT CARD>C      6.0     -2.0221000000   -1.1966000000    0.1809000000                    
 INPUT CARD>C      6.0     -0.7117000000   -1.1976000000   -0.2594000000                    
 INPUT CARD>Cl    17.0      2.4827000000    0.0007000000    0.4738000000                    
 INPUT CARD>H      1.0      1.5587000000   -0.8932000000   -1.5502000000                    
 INPUT CARD>H      1.0      1.5589000000    0.8867000000   -1.5537000000                    
 INPUT CARD>H      1.0     -0.1971000000    2.1316000000   -0.4306000000                    
 INPUT CARD>H      1.0     -2.5336000000    2.1334000000    0.3465000000                    
   40000000 WORDS OF MEMORY AVAILABLE

     BASIS OPTIONS
     -------------
     GBASIS=N311         IGAUSS=       6      POLAR=POPN311 
     NDFUNC=       1     NFFUNC=       0     DIFFSP=       F
     NPFUNC=       1      DIFFS=       F     BASNAM=        


     RUN TITLE
     ---------
 http://cactus.nci.nih.gov/chemical/structure/BENZYL%20CHLORIDE/file?format=sdf&g

 THE POINT GROUP OF THE MOLECULE IS C1      
 THE ORDER OF THE PRINCIPAL AXIS IS     0

 ATOM      ATOMIC                      COORDINATES (BOHR)
           CHARGE         X                   Y                   Z
 C           6.0     2.6004519317       -0.0037794520       -1.7946727705
 C           6.0    -0.1018562307       -0.0017007534       -0.8964860086
 C           6.0    -1.3411385335        2.2614350895       -0.4888721130
 C           6.0    -3.8198921116        2.2633248155        0.3352373902
 C           6.0    -5.0599303047        0.0020786986        0.7509771075
 C           6.0    -3.8212149198       -2.2612461169        0.3418514312
 C           6.0    -1.3449179855       -2.2631358429       -0.4901949212
 CL         17.0     4.6916227097        0.0013228082        0.8953521730
 H           1.0     2.9455158971       -1.6879032522       -2.9294532262
 H           1.0     2.9458938423        1.6756200333       -2.9360672671
 H           1.0    -0.3724649922        4.0281399154       -0.8137160103
 H           1.0    -4.7878097625        4.0315414222        0.6547900547
 H           1.0    -6.9961435517        0.0034015068        1.3961295597
 H           1.0    -4.7896994885       -4.0279509428        0.6672622463
 H           1.0    -0.3771893071       -4.0313524496       -0.8097475857

          INTERNUCLEAR DISTANCES (ANGS.)




     $CONTRL OPTIONS
     ---------------
 SCFTYP=RHF          RUNTYP=OPTIMIZE     EXETYP=RUN     
 MPLEVL=       0     CITYP =NONE         CCTYP =NONE         VBTYP =NONE    
 DFTTYP=NONE         TDDFT =NONE    
 MULT  =       1     ICHARG=       0     NZVAR =       1     COORD =UNIQUE  
 PP    =NONE         RELWFN=NONE         LOCAL =NONE         NUMGRD=       F
 ISPHER=      -1     NOSYM =       0     MAXIT =     200     UNITS =ANGS    
 PLTORB=       F     MOLPLT=       F     AIMPAC=       F     FRIEND=        
 NPRINT=       7     IREST =       0     GEOM  =INPUT   
 NORMF =       0     NORMP =       0     ITOL  =      20     ICUT  =       9
 INTTYP=BEST         GRDTYP=BEST         QMTTOL= 1.0E-06

     $SYSTEM OPTIONS
     ---------------
  REPLICATED MEMORY=    40000000 WORDS (ON EVERY NODE).
 DISTRIBUTED MEMDDI=           0 MILLION WORDS IN AGGREGATE,
 MEMDDI DISTRIBUTED OVER   1 PROCESSORS IS           0 WORDS/PROCESSOR.
 TOTAL MEMORY REQUESTED ON EACH PROCESSOR=    40000000 WORDS.
 TIMLIM=       10000.00 MINUTES, OR       6.9 DAYS.
 PARALL= F  BALTYP=  DLB     KDIAG=    0  COREFL= F
 MXSEQ2=     300 MXSEQ3=     150  mem10=         0

     $COSGMS OPTIONS
     ---------------
     EPSI  =   INFTY     NSPA  =      92     COSRAD=    1.40
     DISEX =   10.00     OUTCHG=DBLCAV       COSBUG=       F
     COSWRT=       F     DCOSMO=       F

     SYMMETRY COORDINATES WILL NOT BE USED FOR 
     THE COSMO CALCULATION, EVEN IF SPECIFIED:
         -- SWITCHING TO C1 POINT GROUP --


     DEFINITION OF CAVITY
     ---------------------------
     ATOM         COORDINATES           RADIUS 
     1    2.6005   -0.0038   -1.7947    2.0000
     2   -0.1019   -0.0017   -0.8965    2.0000
     3   -1.3411    2.2614   -0.4889    2.0000
     4   -3.8199    2.2633    0.3352    2.0000
     5   -5.0599    0.0021    0.7510    2.0000
     6   -3.8212   -2.2612    0.3419    2.0000
     7   -1.3449   -2.2631   -0.4902    2.0000
     8    4.6916    0.0013    0.8954    2.0500
     9    2.9455   -1.6879   -2.9295    1.3000
    10    2.9459    1.6756   -2.9361    1.3000
    11   -0.3725    4.0281   -0.8137    1.3000
    12   -4.7878    4.0315    0.6548    1.3000
    13   -6.9961    0.0034    1.3961    1.3000
    14   -4.7897   -4.0280    0.6673    1.3000
    15   -0.3772   -4.0314   -0.8097    1.3000

          ----------------
          PROPERTIES INPUT
          ----------------

     MOMENTS            FIELD           POTENTIAL          DENSITY
 IEMOM =       1   IEFLD =       0   IEPOT =       0   IEDEN =       0
 WHERE =COMASS     WHERE =NUCLEI     WHERE =NUCLEI     WHERE =NUCLEI  
 OUTPUT=BOTH       OUTPUT=BOTH       OUTPUT=BOTH       OUTPUT=BOTH    
 IEMINT=       0   IEFINT=       0                     IEDINT=       0
                                                       MORB  =       0
          EXTRAPOLATION IN EFFECT
          SOSCF IN EFFECT
 ORBITAL PRINTING OPTION: NPREO=     1   202     2     1

     -------------------------------
     INTEGRAL TRANSFORMATION OPTIONS
     -------------------------------
     NWORD  =            0
     CUTOFF = 1.0E-09     MPTRAN =       0
     DIRTRF =       T     AOINTS =DUP     

          ----------------------
          INTEGRAL INPUT OPTIONS
          ----------------------
 NOPK  =       1 NORDER=       0 SCHWRZ=       T


 -----------------------------------------------
  STATISTICS ON AUTOMATIC COORDINATE GENERATION 
 -----------------------------------------------
  NUMBER OF USER SPECIFIED BONDS                             0
  NUMBER OF BONDS                                           15
  NUMBER OF ANGLES                                          24
  NUMBER OF TORSIONS                                        30
  NUMBER OF EXTRA COORD.                                     0
  NUMBER OF EXTRA COORD. FOR CONSTRAINTS                     0
  NUMBER OF CONSTRAINED COORD.                               0

  TOTAL NUMBER OF PRIMITIVES                                69
 -----------------------------------------------

   --- ENCODED Z MATRIX ---
 COORD  TYPE   I   J   K   L   M   N
    1      1    1   2
    2      1    1   8
    3      1    1   9
    4      1    1  10
    5      1    2   3
    6      1    2   7
    7      1    3   4
    8      1    3  11
    9      1    4  12
   10      1    4   5
   11      1    5  13
   12      1    5   6
   13      1    6   7
   14      1    6  14
   15      1    7  15
   16      2    1   2   7
   17      2    1   2   3
   18      2    2   1   8
   19      2    2   7  15
   20      2    2   3  11
   21      2    2   7   6
   22      2    2   1   9
   23      2    2   1  10
   24      2    2   3   4
   25      2    3   4  12
   26      2    3   2   7
   27      2    3   4   5
   28      2    4   3  11
   29      2    4   5   6
   30      2    4   5  13
   31      2    5   6  14
   32      2    5   6   7
   33      2    5   4  12
   34      2    6   7  15
   35      2    6   5  13
   36      2    7   6  14
   37      2    8   1  10
   38      2    8   1   9
   39      2    9   1  10
   40      3    1   2   7  15
   41      3    1   2   3  11
   42      3    1   2   3   4
   43      3    1   2   7   6
   44      3    2   3   4  12
   45      3    2   7   6  14
   46      3    2   3   4   5
   47      3    2   7   6   5
   48      3    3   2   7  15
   49      3    3   2   1   9
   50      3    3   2   1   8
   51      3    3   4   5   6
   52      3    3   4   5  13
   53      3    3   2   7   6
   54      3    3   2   1  10
   55      3    4   3   2   7
   56      3    4   5   6  14
   57      3    4   5   6   7
   58      3    5   6   7  15
   59      3    5   4   3  11
   60      3    6   5   4  12
   61      3    7   2   1  10
   62      3    7   6   5  13
   63      3    7   2   1   8
   64      3    7   2   1   9
   65      3    7   2   3  11
   66      3   11   3   4  12
   67      3   12   4   5  13
   68      3   13   5   6  14
   69      3   14   6   7  15

          INDEP./SYM. INTERNAL COORDINATES
          --------------------------------
 CRD  1=   0.1976 (  5) -0.1974 (  6)  0.1446 (  7) -0.1443 ( 13) -0.5859 ( 16)
           0.5860 ( 17) -0.1313 ( 19)  0.1313 ( 20)  0.1122 ( 21) -0.1917 ( 22)
           0.1908 ( 23) -0.1121 ( 24)  0.1226 ( 50)  0.1226 ( 63)
 CRD  2=  -0.3440 (  1) -0.1329 (  5) -0.1341 (  6) -0.1129 (  7) -0.1133 ( 13)
          -0.6740 ( 18)  0.1754 ( 26)  0.2326 ( 37)  0.2325 ( 38) -0.1108 ( 40)
           0.1106 ( 41)  0.1755 ( 42) -0.1758 ( 43) -0.1258 ( 49)  0.1257 ( 61)
 CRD  3=  -0.4605 (  1) -0.2029 (  5) -0.2022 (  6) -0.1690 (  7) -0.1688 ( 13)
          -0.1271 ( 16) -0.1275 ( 17)  0.2977 ( 18) -0.2923 ( 22) -0.2932 ( 23)
           0.2542 ( 26)  0.1101 ( 28)  0.1058 ( 31)  0.1055 ( 33)  0.1101 ( 34)
           0.1886 ( 39)  0.1117 ( 40) -0.1121 ( 41) -0.1756 ( 42)  0.1752 ( 43)
           0.1097 ( 49) -0.1096 ( 61)
 CRD  4=   0.2600 (  5)  0.2603 (  6) -0.1946 (  7) -0.3147 ( 10) -0.2727 ( 11)
          -0.3150 ( 12) -0.1945 ( 13)  0.3051 ( 19)  0.3054 ( 20) -0.1490 ( 21)
          -0.1495 ( 24)  0.1468 ( 25) -0.1559 ( 28)  0.2549 ( 29) -0.1274 ( 30)
          -0.1538 ( 31) -0.1540 ( 33) -0.1561 ( 34) -0.1275 ( 35)  0.1471 ( 36)
 CRD  5=   0.1146 (  5) -0.1154 (  6) -0.2107 (  7) -0.1180 (  8) -0.2430 ( 10)
           0.2411 ( 12)  0.2118 ( 13)  0.1179 ( 15) -0.1151 ( 19)  0.1142 ( 20)
          -0.1322 ( 21)  0.1871 ( 22) -0.1872 ( 23)  0.1316 ( 24) -0.2458 ( 28)
          -0.2515 ( 30)  0.2467 ( 34)  0.2513 ( 35)  0.1794 ( 37) -0.1794 ( 38)
           0.1569 ( 49)  0.2620 ( 50)  0.1569 ( 54)  0.1568 ( 61)  0.2619 ( 63)
           0.1568 ( 64)
 CRD  6=   0.2598 (  7)  0.1168 (  9)  0.1577 ( 10) -0.1597 ( 12) -0.2588 ( 13)
          -0.1174 ( 14)  0.1506 ( 19) -0.1518 ( 20)  0.2258 ( 22) -0.2265 ( 23)
           0.1267 ( 25) -0.1336 ( 27)  0.1797 ( 28)  0.2304 ( 30)  0.1334 ( 32)
          -0.1785 ( 34) -0.2306 ( 35) -0.1248 ( 36)  0.1801 ( 37) -0.1807 ( 38)
           0.1725 ( 49)  0.2549 ( 50)  0.1725 ( 54)  0.1726 ( 61)  0.2550 ( 63)
           0.1725 ( 64)
 CRD  7=  -0.1419 (  3)  0.1424 (  4) -0.2491 (  5)  0.2468 (  6) -0.1195 (  7)
          -0.1818 (  9)  0.1264 ( 10) -0.1293 ( 12)  0.1222 ( 13)  0.1809 ( 14)
           0.1426 ( 21) -0.2799 ( 22)  0.2806 ( 23) -0.1427 ( 24) -0.2140 ( 25)
           0.2229 ( 27) -0.2226 ( 32)  0.2168 ( 36)  0.1318 ( 49)  0.2832 ( 50)
           0.1318 ( 54)  0.1318 ( 61)  0.2832 ( 63)  0.1318 ( 64)
 CRD  8=   0.2399 (  5)  0.2417 (  6) -0.1686 (  7)  0.1319 (  9)  0.3342 ( 10)
           0.3330 ( 12) -0.1675 ( 13)  0.1331 ( 14)  0.2232 ( 19)  0.2236 ( 20)
          -0.2666 ( 25) -0.2202 ( 28)  0.3102 ( 31)  0.3107 ( 33) -0.2205 ( 34)
          -0.2648 ( 36)
 CRD  9=  -0.2406 (  5) -0.2399 (  6) -0.2965 (  7) -0.2417 (  8) -0.2239 (  9)
          -0.2174 ( 10) -0.2169 ( 12) -0.2962 ( 13) -0.2246 ( 14) -0.2405 ( 15)
           0.1069 ( 16)  0.1067 ( 17)  0.1133 ( 21)  0.1149 ( 24) -0.2005 ( 25)
          -0.2136 ( 26) -0.1905 ( 28) -0.2144 ( 29)  0.1072 ( 30)  0.1006 ( 31)
           0.1004 ( 32)  0.1014 ( 33) -0.1904 ( 34)  0.1072 ( 35) -0.2009 ( 36)
 CRD 10=   0.1727 (  7) -0.2269 ( 10)  0.2274 ( 12) -0.1712 ( 13)  0.1556 ( 19)
          -0.1587 ( 20) -0.1681 ( 22)  0.1552 ( 23)  0.2901 ( 25)  0.2011 ( 28)
          -0.3503 ( 30)  0.3151 ( 31) -0.3180 ( 33) -0.1929 ( 34)  0.3453 ( 35)
          -0.2821 ( 36)
 CRD 11=   0.1468 (  2) -0.1224 (  3) -0.1237 (  4)  0.3459 ( 18) -0.1075 ( 22)
          -0.1047 ( 23) -0.1485 ( 37) -0.1477 ( 38)  0.1625 ( 39) -0.2181 ( 40)
           0.2174 ( 41)  0.3030 ( 42) -0.3027 ( 43) -0.1170 ( 44)  0.1162 ( 45)
          -0.1781 ( 48) -0.1818 ( 51) -0.1562 ( 52) -0.2627 ( 53)  0.2630 ( 55)
           0.1054 ( 56)  0.1820 ( 57) -0.1053 ( 60)  0.1564 ( 62)  0.1774 ( 65)
 CRD 12=  -0.1176 (  3)  0.1244 (  4) -0.2396 (  8)  0.1817 (  9) -0.1823 ( 14)
           0.2396 ( 15)  0.1920 ( 19) -0.1910 ( 20) -0.2663 ( 21) -0.3680 ( 22)
           0.3729 ( 23)  0.2675 ( 24) -0.2422 ( 27)  0.1045 ( 30) -0.1929 ( 31)
           0.2439 ( 32)  0.1934 ( 33) -0.1030 ( 35) -0.1257 ( 37)  0.1338 ( 38)
 CRD 13=   0.1940 (  1) -0.1118 (  5) -0.1120 (  6) -0.1589 (  7) -0.2532 (  8)
           0.2359 (  9) -0.4133 ( 11) -0.1590 ( 13)  0.2357 ( 14) -0.2531 ( 15)
          -0.1293 ( 19) -0.1292 ( 20)  0.1036 ( 21)  0.1444 ( 22)  0.1446 ( 23)
           0.1035 ( 24)  0.1152 ( 25) -0.2547 ( 27)  0.3023 ( 29) -0.1511 ( 30)
           0.1395 ( 31) -0.2547 ( 32)  0.1395 ( 33) -0.1512 ( 35)  0.1152 ( 36)
          -0.1333 ( 39)
 CRD 14=  -0.2250 (  3)  0.2268 (  4)  0.2343 ( 37) -0.2326 ( 38)  0.1422 ( 42)
           0.1423 ( 43) -0.2287 ( 44) -0.2288 ( 45) -0.2844 ( 46) -0.2845 ( 47)
           0.2061 ( 50)  0.1421 ( 51)  0.1422 ( 52)  0.1423 ( 53)  0.1422 ( 55)
           0.1422 ( 57) -0.2378 ( 58) -0.2380 ( 59)  0.1422 ( 62)  0.2060 ( 63)
          -0.1823 ( 66) -0.1822 ( 69)
 CRD 15=  -0.5071 (  2) -0.3478 (  3) -0.3453 (  4)  0.1244 (  8) -0.1360 (  9)
          -0.1359 ( 14)  0.1246 ( 15)  0.1139 ( 18) -0.1012 ( 21)  0.2827 ( 22)
           0.2826 ( 23) -0.1012 ( 24)  0.1371 ( 26) -0.2247 ( 37) -0.2271 ( 38)
          -0.2274 ( 39)
 CRD 16=   0.3314 (  3) -0.3331 (  4) -0.2919 ( 37)  0.2914 ( 38)  0.1085 ( 40)
           0.1086 ( 41) -0.1006 ( 44) -0.1005 ( 45) -0.1402 ( 46) -0.1402 ( 47)
           0.1085 ( 48)  0.2918 ( 49)  0.2918 ( 54) -0.1788 ( 58) -0.1787 ( 59)
           0.2918 ( 61)  0.2918 ( 64)  0.1086 ( 65) -0.1391 ( 66) -0.1391 ( 69)
 CRD 17=  -0.4911 (  2)  0.3865 (  3)  0.3863 (  4) -0.1835 ( 37) -0.1834 ( 38)
           0.4100 ( 39) -0.2430 ( 49)  0.2059 ( 54)  0.2431 ( 61) -0.2058 ( 64)
 CRD 18=   0.3044 (  2)  0.1028 ( 18)  0.1474 ( 42) -0.1472 ( 43) -0.2674 ( 44)
           0.2672 ( 45) -0.1054 ( 46)  0.1051 ( 47)  0.1707 ( 48)  0.2256 ( 51)
          -0.3876 ( 56) -0.2256 ( 57)  0.3877 ( 60) -0.1707 ( 65) -0.1114 ( 66)
           0.2125 ( 67) -0.2125 ( 68)  0.1109 ( 69)
 CRD 19=  -0.3253 (  1) -0.2512 (  2) -0.2786 (  3) -0.2785 (  4)  0.1685 (  7)
          -0.1999 (  8)  0.2586 (  9)  0.1218 ( 11)  0.1685 ( 13)  0.2587 ( 14)
          -0.2006 ( 15)  0.1269 ( 21) -0.1200 ( 22) -0.1200 ( 23)  0.1270 ( 24)
          -0.1860 ( 26) -0.2234 ( 28) -0.2233 ( 34)  0.1518 ( 39) -0.1282 ( 56)
           0.1283 ( 60)
 CRD 20=  -0.2245 ( 40)  0.2244 ( 41) -0.1065 ( 46)  0.1064 ( 47) -0.2945 ( 48)
           0.1456 ( 51)  0.3761 ( 52) -0.1456 ( 57)  0.3335 ( 58) -0.3336 ( 59)
          -0.3761 ( 62)  0.2944 ( 65) -0.1444 ( 66)  0.1870 ( 67) -0.1870 ( 68)
           0.1444 ( 69)
 CRD 21=  -0.1883 (  3)  0.1881 (  4)  0.1428 (  5) -0.1428 (  6)  0.4141 (  8)
           0.3386 (  9) -0.3386 ( 14) -0.4140 ( 15)  0.1875 ( 16) -0.1875 ( 17)
          -0.2158 ( 19)  0.2157 ( 20) -0.1154 ( 22)  0.1156 ( 23) -0.1758 ( 28)
          -0.1227 ( 30)  0.1758 ( 34)  0.1227 ( 35)
 CRD 22=   0.2472 (  7)  0.2595 (  8) -0.1263 ( 10) -0.6512 ( 11) -0.1262 ( 12)
           0.2471 ( 13)  0.2594 ( 15) -0.2198 ( 25) -0.1668 ( 26)  0.1714 ( 31)
           0.1714 ( 33) -0.2199 ( 36)
 CRD 23=  -0.1526 (  3)  0.1525 (  4)  0.1898 (  5) -0.1898 (  6) -0.3446 (  9)
          -0.1236 ( 10)  0.1236 ( 12)  0.3447 ( 14)  0.1461 ( 16) -0.1461 ( 17)
          -0.1504 ( 19)  0.1505 ( 20)  0.2438 ( 25) -0.1874 ( 28)  0.3413 ( 30)
           0.1950 ( 31) -0.1951 ( 33)  0.1873 ( 34) -0.3413 ( 35) -0.2437 ( 36)
 CRD 24=  -0.1952 (  5)  0.1952 (  6) -0.3418 (  8)  0.2985 (  9)  0.2110 ( 10)
          -0.2110 ( 12) -0.2985 ( 14)  0.3419 ( 15) -0.2524 ( 19)  0.2524 ( 20)
           0.1683 ( 25) -0.1573 ( 28)  0.2618 ( 31) -0.2617 ( 33)  0.1573 ( 34)
          -0.1683 ( 36)
 CRD 25=  -0.1644 (  1)  0.1620 (  2)  0.1586 (  3)  0.1588 (  4) -0.2931 (  5)
          -0.2932 (  6)  0.2780 (  8)  0.3881 (  9) -0.1759 ( 10)  0.1057 ( 11)
          -0.1759 ( 12)  0.3881 ( 14)  0.2781 ( 15)  0.1337 ( 19)  0.1337 ( 20)
           0.1557 ( 22)  0.1557 ( 23) -0.1213 ( 28) -0.1213 ( 34) -0.1157 ( 37)
          -0.1157 ( 38) -0.1642 ( 39)
 CRD 26=   0.4414 (  1) -0.1825 (  2) -0.1792 (  3) -0.1792 (  4) -0.2347 (  7)
           0.2456 (  8)  0.1647 (  9) -0.1717 ( 10)  0.3409 ( 11) -0.1716 ( 12)
          -0.2348 ( 13)  0.1647 ( 14)  0.2455 ( 15) -0.1072 ( 18) -0.1259 ( 19)
          -0.1259 ( 20) -0.1906 ( 22) -0.1907 ( 23)  0.1450 ( 37)  0.1450 ( 38)
           0.1985 ( 39)
 CRD 27=   0.3191 (  3) -0.3161 (  4) -0.3585 (  5)  0.3584 (  6)  0.2298 (  8)
          -0.2762 ( 10)  0.2763 ( 12) -0.2299 ( 15) -0.1119 ( 21)  0.1119 ( 24)
          -0.1271 ( 28)  0.2070 ( 30)  0.1271 ( 34) -0.2069 ( 35)  0.1381 ( 37)
          -0.1361 ( 38)  0.1158 ( 50)  0.1142 ( 63)
 CRD 28=  -0.3056 (  2)  0.1530 (  3)  0.1618 (  4)  0.1138 ( 37)  0.1176 ( 38)
          -0.2283 ( 39) -0.2186 ( 44)  0.2192 ( 45) -0.1812 ( 48)  0.2376 ( 49)
          -0.2691 ( 52) -0.1650 ( 56)  0.1270 ( 58) -0.1277 ( 59)  0.1645 ( 60)
          -0.2349 ( 61)  0.2690 ( 62)  0.1819 ( 65) -0.3166 ( 66)  0.3164 ( 69)
 CRD 29=   0.1014 (  3)  0.1532 (  5) -0.1533 (  6) -0.4899 (  7)  0.1840 (  8)
           0.1294 (  9)  0.1953 ( 10) -0.1952 ( 12)  0.4900 ( 13) -0.1295 ( 14)
          -0.1839 ( 15)  0.1916 ( 19) -0.1915 ( 20)  0.1561 ( 25)  0.2037 ( 31)
          -0.2036 ( 33) -0.1560 ( 36)
 CRD 30=  -0.2255 (  1)  0.2691 (  5)  0.2694 (  6) -0.2260 (  8)  0.2036 (  9)
          -0.2790 ( 10)  0.1706 ( 11) -0.2788 ( 12)  0.2034 ( 14) -0.2263 ( 15)
          -0.1049 ( 19) -0.1051 ( 20) -0.1496 ( 21) -0.1495 ( 24) -0.2674 ( 25)
           0.1405 ( 27)  0.2546 ( 28)  0.1271 ( 31)  0.1403 ( 32)  0.1269 ( 33)
           0.2545 ( 34) -0.2674 ( 36)
 CRD 31=   0.3818 (  1) -0.1809 (  8)  0.2171 (  9) -0.3147 ( 11)  0.2145 ( 14)
          -0.1822 ( 15) -0.1270 ( 16) -0.1241 ( 17)  0.1407 ( 19)  0.1394 ( 20)
          -0.2098 ( 21) -0.2094 ( 24)  0.2511 ( 26)  0.2282 ( 27) -0.2866 ( 29)
           0.1447 ( 30) -0.1786 ( 31)  0.2266 ( 32) -0.1798 ( 33)  0.1419 ( 35)
 CRD 32=   0.2750 (  3) -0.2758 (  4) -0.1003 (  6)  0.1040 (  7) -0.1764 (  9)
           0.2448 ( 10) -0.2444 ( 12) -0.1045 ( 13)  0.1817 ( 14)  0.1830 ( 16)
          -0.1858 ( 17) -0.1615 ( 22)  0.1598 ( 23) -0.1175 ( 27) -0.1845 ( 30)
           0.1229 ( 32)  0.1874 ( 35)  0.1208 ( 37) -0.1192 ( 38) -0.1392 ( 40)
          -0.1390 ( 41) -0.1463 ( 44) -0.1457 ( 45) -0.1401 ( 48)  0.1886 ( 50)
           0.1487 ( 56)  0.1427 ( 58)  0.1418 ( 59)  0.1491 ( 60)  0.1883 ( 63)
          -0.1391 ( 65)  0.1488 ( 67)  0.1491 ( 68)
 CRD 33=   0.1644 (  3) -0.1633 (  4) -0.1088 (  9)  0.1575 ( 10) -0.1566 ( 12)
           0.1056 ( 14) -0.1081 ( 30)  0.1068 ( 35)  0.2173 ( 40)  0.2173 ( 41)
           0.2453 ( 44)  0.2454 ( 45)  0.2170 ( 48) -0.1495 ( 49) -0.1499 ( 54)
          -0.2570 ( 56) -0.2288 ( 58) -0.2290 ( 59) -0.2570 ( 60) -0.1501 ( 61)
          -0.1496 ( 64)  0.2172 ( 65) -0.2570 ( 67) -0.2570 ( 68)
 CRD 34=   0.2776 (  1) -0.1881 (  5) -0.1866 (  6)  0.3538 (  7) -0.1140 (  8)
          -0.1083 (  9) -0.1720 ( 10)  0.2150 ( 11) -0.1734 ( 12)  0.3538 ( 13)
          -0.1074 ( 14) -0.1149 ( 15) -0.1249 ( 16) -0.1241 ( 17)  0.2165 ( 19)
           0.2164 ( 20) -0.1256 ( 21) -0.1246 ( 24)  0.2491 ( 26) -0.1135 ( 27)
           0.2273 ( 29) -0.1140 ( 30)  0.2017 ( 31) -0.1126 ( 32)  0.2018 ( 33)
          -0.1132 ( 35)
 CRD 35=   0.1601 (  3) -0.1611 (  4)  0.3196 (  5) -0.3204 (  6) -0.1879 (  8)
           0.1669 (  9) -0.2646 ( 10)  0.2638 ( 12) -0.1674 ( 14)  0.1875 ( 15)
           0.1971 ( 16) -0.1976 ( 17)  0.1963 ( 21) -0.1351 ( 22)  0.1353 ( 23)
          -0.1967 ( 24) -0.1711 ( 25)  0.1818 ( 27)  0.1721 ( 28)  0.1449 ( 30)
          -0.1823 ( 32) -0.1726 ( 34) -0.1454 ( 35)  0.1708 ( 36)
 CRD 36=   0.3656 (  2) -0.1765 (  3) -0.1757 (  4) -0.1503 ( 18) -0.1467 ( 37)
          -0.1463 ( 38)  0.2569 ( 39) -0.2142 ( 42)  0.2142 ( 43) -0.1820 ( 49)
          -0.2212 ( 52)  0.1499 ( 53)  0.2467 ( 54) -0.1499 ( 55)  0.1608 ( 58)
          -0.1608 ( 59)  0.1824 ( 61)  0.2212 ( 62) -0.2463 ( 64) -0.1950 ( 66)
          -0.1870 ( 67)  0.1870 ( 68)  0.1950 ( 69)
 CRD 37=  -0.2087 ( 40) -0.2087 ( 41)  0.1439 ( 42)  0.1439 ( 43) -0.2878 ( 46)
          -0.2879 ( 47) -0.2087 ( 48)  0.1438 ( 51)  0.1440 ( 52)  0.1439 ( 53)
           0.1439 ( 55) -0.1836 ( 56)  0.1440 ( 57) -0.1836 ( 60)  0.1439 ( 62)
          -0.2087 ( 65)  0.3922 ( 66) -0.1834 ( 67) -0.1837 ( 68)  0.3923 ( 69)
 CRD 38=  -0.1011 (  2) -0.1892 ( 40)  0.1891 ( 41)  0.1400 ( 42) -0.1399 ( 43)
           0.1697 ( 44) -0.1697 ( 45) -0.1181 ( 46)  0.1180 ( 47) -0.1200 ( 50)
           0.3359 ( 51) -0.1938 ( 54) -0.3358 ( 57)  0.1672 ( 58) -0.1672 ( 59)
           0.1198 ( 63)  0.1940 ( 64)  0.1207 ( 66) -0.3869 ( 67)  0.3867 ( 68)
          -0.1205 ( 69)
 CRD 39=   0.2920 ( 40) -0.2920 ( 41) -0.2746 ( 46)  0.2745 ( 47)  0.1173 ( 49)
           0.1691 ( 50)  0.2137 ( 51) -0.3354 ( 53)  0.2205 ( 54)  0.3355 ( 55)
          -0.2136 ( 57) -0.1174 ( 61) -0.1688 ( 63) -0.2206 ( 64)  0.2155 ( 66)
          -0.1575 ( 67)  0.1575 ( 68) -0.2154 ( 69)

 THE DETERMINANT OF THE G MATRIX IS 10**(   -19)


                     --------------------
                     INTERNAL COORDINATES
                     --------------------

                 - - ATOMS - -         COORDINATE      COORDINATE
 NO.   TYPE    I  J  K  L  M  N        (BOHR,RAD)       (ANG,DEG)
 ----------------------------------------------------------------
   1 STRETCH   1  2                     2.8476680       1.5069211
   2 STRETCH   1  8                     3.4072357       1.8030316
   3 STRETCH   1  9                     2.0598711       1.0900369
   4 STRETCH   1 10                     2.0597316       1.0899631
   5 STRETCH   2  3                     2.6122315       1.3823335
   6 STRETCH   2  7                     2.6123483       1.3823953
   7 STRETCH   3  4                     2.6121599       1.3822956
   8 STRETCH   3 11                     2.0408572       1.0799752
   9 STRETCH   4 12                     2.0409724       1.0800362
  10 STRETCH   4  5                     2.6122343       1.3823350
  11 STRETCH   5 13                     2.0408687       1.0799813
  12 STRETCH   5  6                     2.6123627       1.3824029
  13 STRETCH   6  7                     2.6123459       1.3823940
  14 STRETCH   6 14                     2.0408578       1.0799755
  15 STRETCH   7 15                     2.0408828       1.0799888
  16 BEND      1  2  7                  2.0943656     119.9983102
  17 BEND      1  2  3                  2.0944504     120.0031695
  18 BEND      2  1  8                  1.9106996     109.4750227
  19 BEND      2  7 15                  2.0944343     120.0022435
  20 BEND      2  3 11                  2.0943575     119.9978463
  21 BEND      2  7  6                  2.0943597     119.9979722
  22 BEND      2  1  9                  1.9106221     109.4705826
  23 BEND      2  1 10                  1.9106407     109.4716459
  24 BEND      2  3  4                  2.0944437     120.0027867
  25 BEND      3  4 12                  2.0944480     120.0030280
  26 BEND      3  2  7                  2.0943598     119.9979756
  27 BEND      3  4  5                  2.0944466     120.0029488
  28 BEND      4  3 11                  2.0943840     119.9993640
  29 BEND      4  5  6                  2.0943509     119.9974648
  30 BEND      4  5 13                  2.0945227     120.0073095
  31 BEND      5  6 14                  2.0944137     120.0010653
  32 BEND      5  6  7                  2.0943813     119.9992069
  33 BEND      5  4 12                  2.0942908     119.9940217
  34 BEND      6  7 15                  2.0943651     119.9982836
  35 BEND      6  5 13                  2.0943117     119.9952207
  36 BEND      7  6 14                  2.0943865     119.9995087
  37 BEND      8  1 10                  1.9106487     109.4721087
  38 BEND      8  1  9                  1.9106490     109.4721221
  39 BEND      9  1 10                  1.9105393     109.4658413
  40 TORSION   1  2  7 15               0.0040105       0.2297870
  41 TORSION   1  2  3 11              -0.0002566      -0.0146993
  42 TORSION   1  2  3  4              -3.1414973    -179.9945380
  43 TORSION   1  2  7  6               3.1378257     179.7841717
  44 TORSION   2  3  4 12               3.1409511     179.9632436
  45 TORSION   2  7  6 14              -3.1368255    -179.7268637
  46 TORSION   2  3  4  5              -0.0003961      -0.0226971
  47 TORSION   2  7  6  5               0.0077392       0.4434208
  48 TORSION   3  2  7 15               3.1409178     179.9613328
  49 TORSION   3  2  1  9              -2.6179852    -149.9995055
  50 TORSION   3  2  1  8               1.5707519      89.9974527
  51 TORSION   3  4  5  6              -0.0003172      -0.0181721
  52 TORSION   3  4  5 13               3.1408298     179.9562929
  53 TORSION   3  2  7  6              -0.0084523      -0.4842825
  54 TORSION   3  2  1 10              -0.5237074     -30.0062239
  55 TORSION   4  3  2  7               0.0047810       0.2739294
  56 TORSION   4  5  6 14               3.1412103     179.9780909
  57 TORSION   4  5  6  7              -0.0033545      -0.1921963
  58 TORSION   5  6  7 15               3.1415547     179.9978233
  59 TORSION   5  4  3 11               3.1415484     179.9974646
  60 TORSION   6  5  4 12               3.1415208     179.9958859
  61 TORSION   7  2  1 10               2.6131996     149.7253078
  62 TORSION   7  6  5 13               3.1386838     179.8333356
  63 TORSION   7  2  1  8              -1.5755264     -90.2710156
  64 TORSION   7  2  1  9               0.5189218      29.7320262
  65 TORSION   7  2  3 11              -3.1371636    -179.7462319
  66 TORSION  11  3  4 12              -0.0002896      -0.0165947
  67 TORSION  12  4  5 13              -0.0005175      -0.0296491
  68 TORSION  13  5  6 14               0.0000632       0.0036228
  69 TORSION  14  6  7 15              -0.0030100      -0.1724612

     ------------------------------------------
     THE POINT GROUP IS C1 , NAXIS= 1, ORDER= 1
     ------------------------------------------

     DIMENSIONS OF THE SYMMETRY SUBSPACES ARE
 A   =  202

 ..... DONE SETTING UP THE RUN .....
 STEP CPU TIME =     0.01 TOTAL CPU TIME =        0.0 (    0.0 MIN)
 TOTAL WALL CLOCK TIME=        0.0 SECONDS, CPU UTILIZATION IS  50.00%


          -----------------------------
          STATIONARY POINT LOCATION RUN
          -----------------------------

 OBTAINING INITIAL HESSIAN, HESS=GUESS   
 DIAGONAL GUESS HESSIAN IN INTERNAL COORDS IS
     1  0.3840     2  0.3312     3  0.3463     4  0.3464     5  0.4893
     6  0.4892     7  0.4893     8  0.3532     9  0.3531    10  0.4893
    11  0.3532    12  0.4892    13  0.4892    14  0.3532    15  0.3532
    16  0.2609    17  0.2609    18  0.2555    19  0.2338    20  0.2338
    21  0.2706    22  0.2255    23  0.2255    24  0.2706    25  0.2338
    26  0.2706    27  0.2706    28  0.2338    29  0.2706    30  0.2338
    31  0.2338    32  0.2706    33  0.2338    34  0.2338    35  0.2338
    36  0.2338    37  0.2286    38  0.2286    39  0.2034    40  0.2500
    41  0.2500    42  0.2500    43  0.2500    44  0.2500    45  0.2500
    46  0.2500    47  0.2500    48  0.2500    49  0.2500    50  0.2500
    51  0.2500    52  0.2500    53  0.2500    54  0.2500    55  0.2500
    56  0.2500    57  0.2500    58  0.2500    59  0.2500    60  0.2500
    61  0.2500    62  0.2500    63  0.2500    64  0.2500    65  0.2500
    66  0.2500    67  0.2500    68  0.2500    69  0.2500
 TRANSFORMING HESSIAN TO SYMMETRY COORDINATES

          PARAMETERS CONTROLLING GEOMETRY SEARCH ARE
          METHOD =QA                  UPHESS =BFGS    
          NNEG   =         0          NFRZ   =         3
          NSTEP  =        50          IFOLOW =         1
          HESS   =GUESS               RESTAR =         F
          IHREP  =         0          HSSEND =         F
          NPRT   =         0          NPUN   =         0
          OPTTOL = 5.000E-04          RMIN   = 1.500E-03
          RMAX   = 1.000E-01          RLIM   = 7.000E-02
          DXMAX  = 3.000E-01          PURIFY =         F
          MOVIE  =         F          TRUPD  =         T
          TRMAX  = 5.000E-01          TRMIN  = 5.000E-02
          ITBMAT =         5          STPT   =         F
          STSTEP = 1.000E-02          PROJCT=          F
          FROZEN COORD(S)=   1   2   3


      ***** EQUILIBRIUM GEOMETRY LOCATED *****
            (SUBJECT TO   3 CONSTRAINT(S))
 COORDINATES OF ALL ATOMS ARE (ANGS)
   ATOM   CHARGE       X              Y              Z
 ------------------------------------------------------------
 C           6.0   1.3497846170  -0.0023639988  -0.9508963485
 C           6.0  -0.0612991411  -0.0010739816  -0.4809341079
 C           6.0  -0.7130658455   1.2013704582  -0.2629373506
 C           6.0  -2.0232408264   1.2045581250   0.1776713394
 C           6.0  -2.6783685308   0.0011002151   0.3985124087
 C           6.0  -2.0247604140  -1.2034094465   0.1792434571
 C           6.0  -0.7147407896  -1.2023780911  -0.2620277218
 CL         17.0   2.4960223202   0.0009348255   0.4773361979
 H           1.0   1.5792153169  -0.8916781841  -1.5100365377
 H           1.0   1.5796217867   0.8840845272  -1.5144151729
 H           1.0  -0.1899116529   2.1253726602  -0.4388108232
 H           1.0  -2.5242071954   2.1408565419   0.3437655013
 H           1.0  -3.6966266765   0.0019866953   0.7389066262
 H           1.0  -2.5267049776  -2.1389199319   0.3468385984
 H           1.0  -0.1926736693  -2.1272450888  -0.4365102757


                     --------------------
                     INTERNAL COORDINATES
                     --------------------

                 - - ATOMS - -         COORDINATE      COORDINATE
 NO.   TYPE    I  J  K  L  M  N        (BOHR,RAD)       (ANG,DEG)
 ----------------------------------------------------------------
   1 STRETCH   1  2                     2.8105655       1.4872873
   2 STRETCH   1  8                     3.4606863       1.8313165
   3 STRETCH   1  9                     2.0319220       1.0752469
   4 STRETCH   1 10                     2.0319340       1.0752533
   5 STRETCH   2  3                     2.6172501       1.3849892
   6 STRETCH   2  7                     2.6171426       1.3849323
   7 STRETCH   3  4                     2.6121350       1.3822824
   8 STRETCH   3 11                     2.0338947       1.0762908
   9 STRETCH   4 12                     2.0310900       1.0748066
  10 STRETCH   4  5                     2.6227559       1.3879027
  11 STRETCH   5 13                     2.0288993       1.0736474
  12 STRETCH   5  6                     2.6226551       1.3878494
  13 STRETCH   6  7                     2.6122499       1.3823432
  14 STRETCH   6 14                     2.0310962       1.0748099
  15 STRETCH   7 15                     2.0338730       1.0762793
  16 BEND      1  2  7                  2.0907510     119.7912109
  17 BEND      1  2  3                  2.0909009     119.7997972
  18 BEND      2  1  8                  1.9255959     110.3285174
  19 BEND      2  7 15                  2.0839096     119.3992229
  20 BEND      2  3 11                  2.0839083     119.3991511
  21 BEND      2  7  6                  2.0923646     119.8836610
  22 BEND      2  1  9                  1.9470900     111.5600367
  23 BEND      2  1 10                  1.9473166     111.5730241
  24 BEND      2  3  4                  2.0923393     119.8822128
  25 BEND      3  4 12                  2.0863908     119.5413850
  26 BEND      3  2  7                  2.1015320     120.4089162
  27 BEND      3  4  5                  2.0899249     119.7438758
  28 BEND      4  3 11                  2.1069372     120.7186114
  29 BEND      4  5  6                  2.1003138     120.3391174
  30 BEND      4  5 13                  2.0914036     119.8286015
  31 BEND      5  6 14                  2.1069588     120.7198457
  32 BEND      5  6  7                  2.0898941     119.7421138
  33 BEND      5  4 12                  2.1068679     120.7146385
  34 BEND      6  7 15                  2.1069088     120.7169803
  35 BEND      6  5 13                  2.0914660     119.8321754
  36 BEND      7  6 14                  2.0863303     119.5379181
  37 BEND      8  1 10                  1.8477771     105.8698269
  38 BEND      8  1  9                  1.8478158     105.8720447
  39 BEND      9  1 10                  1.9430491     111.3285118
  40 TORSION   1  2  7 15              -0.0016090      -0.0921871
  41 TORSION   1  2  3 11               0.0023763       0.1361531
  42 TORSION   1  2  3  4              -3.1382262    -179.8071149
  43 TORSION   1  2  7  6               3.1376616     179.7747645
  44 TORSION   2  3  4 12              -3.1401205    -179.9156507
  45 TORSION   2  7  6 14               3.1410391     179.9682845
  46 TORSION   2  3  4  5              -0.0005284      -0.0302743
  47 TORSION   2  7  6  5               0.0016513       0.0946120
  48 TORSION   3  2  7 15              -3.1414520    -179.9919415
  49 TORSION   3  2  1  9              -2.6665926    -152.7845040
  50 TORSION   3  2  1  8               1.5678234      89.8296638
  51 TORSION   3  4  5  6               0.0000124       0.0007077
  52 TORSION   3  4  5 13              -3.1395124    -179.8808079
  53 TORSION   3  2  7  6              -0.0021815      -0.1249900
  54 TORSION   3  2  1 10              -0.4810388     -27.5614920
  55 TORSION   4  3  2  7               0.0016167       0.0926309
  56 TORSION   4  5  6 14              -3.1399366    -179.9051140
  57 TORSION   4  5  6  7              -0.0005753      -0.0329630
  58 TORSION   5  6  7 15               3.1408907     179.9597807
  59 TORSION   5  4  3 11              -3.1411176    -179.9727810
  60 TORSION   6  5  4 12               3.1395805     179.8847138
  61 TORSION   7  2  1 10               2.6622927     152.5381376
  62 TORSION   7  6  5 13               3.1389493     179.8485484
  63 TORSION   7  2  1  8              -1.5720304     -90.0707066
  64 TORSION   7  2  1  9               0.4767389      27.3151256
  65 TORSION   7  2  3 11              -3.1409661    -179.9641011
  66 TORSION  11  3  4 12               0.0024756       0.1418425
  67 TORSION  12  4  5 13               0.0000558       0.0031982
  68 TORSION  13  5  6 14              -0.0004119      -0.0236026
  69 TORSION  14  6  7 15              -0.0029068      -0.1665467

          INTERNUCLEAR DISTANCES (ANGS.)


 =====================================================
   GAMESS/COSab RESULTS
 =====================================================

   Dielectric Constant                  = INFTY
   Basic Grid Size                      =                 1082
   Number of Segments                   =                   92
   Number of Segments located on spheres=                  278
   Number of Segments of the cavity     =                  582
   Solvent Radius (rsolv)               = 1.40
   Outlying Charge Error Method         = double cavity

 =====================================================

  Total solvated Energy (a.u.)          =  -728.7356631207
  Total Energy corrected (a.u.)         =  -728.7358673613

  Outlying charge effect (a.u.)         =    -0.0002042405
  Outlying charge effect (kcal/mol)     =    -0.1281629745

  Dielectric Energy (a.u.)              =    -0.0121511516
  Dielectric energy corr. (a.u.)        =    -0.0123553922

  Sum of polarization charges           =     0.0235219594
  Sum of polarization charges(cor.)     =    -0.0235219594

  Total surface area of cavity (A**2)   =  158.47
  Total volume of cavity (A**3)         =  154.79

 =====================================================
 NPS=                   582
NR.  ATOM  (X, Y, Z)(a.u.)                  CHARGE(e)  AREA(A**2) SIGMA(e/A**2)
   1   1   1.233382  -0.160969  -5.335920  -0.000901   0.278737  -0.003234
   2   1   5.243666   0.492089  -4.401895  -0.000500   0.232280  -0.002153
   3   1   4.742884  -0.565637  -4.824121  -0.000704   0.371649  -0.001895
   4   1   1.905975  -0.908801  -5.409524  -0.001106   0.278737  -0.003967
   5   1   1.071113  -1.323939  -5.014706  -0.001524   0.278737  -0.005466
   6   1   2.367379  -0.110045  -5.570468  -0.000824   0.325193  -0.002535
   7   1   3.787493   0.314414  -5.354046  -0.000447   0.325193  -0.001374
   8   1   5.625980  -0.205937  -3.984750  -0.000613   0.325193  -0.001884
   9   1   0.865281   0.614687  -5.122625  -0.000759   0.232280  -0.003266
  10   1   1.745154   0.954856  -5.362752  -0.001100   0.278737  -0.003947
  11   1   4.545965   0.532943  -4.961508  -0.000267   0.278737  -0.000958
  12   1   5.688689   1.029163  -3.632444  -0.001096   0.325193  -0.003371
  13   1   5.657546  -1.100735  -3.649012  -0.000851   0.278737  -0.003054
  14   1   3.295872  -0.495056  -5.469591  -0.000548   0.278737  -0.001965
  15   1   1.120071   1.448003  -4.979361  -0.000845   0.139368  -0.006064
  16   1   2.709983   0.685253  -5.509512  -0.000683   0.232280  -0.002941
  17   2  -0.764582  -0.897325  -4.522956   0.000502   0.139368   0.003602
  18   2  -0.809696   0.657038  -4.565125   0.000781   0.232280   0.003364
  19   2  -0.893106  -0.184289  -4.603009   0.000559   0.185824   0.003008
  20   2  -1.563247  -0.392784  -4.378216   0.000504   0.139368   0.003616
  21   2  -0.275671  -0.053012   2.866888   0.000262   0.046456   0.005632
  22   2  -1.866747   0.234860  -4.249864   0.001520   0.232280   0.006543
  23   3  -0.584544   1.373457   3.094490   0.000850   0.092912   0.009153
  24   3  -0.844670   4.636843   2.406686   0.000929   0.325193   0.002858
  25   3  -1.700714   3.835202  -3.918926   0.001144   0.371649   0.003077
  26   3  -1.439941   4.716193  -3.376647   0.000255   0.232280   0.001098
  27   3  -0.402293   5.087111   1.838963   0.000236   0.232280   0.001015
  28   3  -2.242463   5.889020  -1.119637  -0.000308   0.092912  -0.003313
  29   3  -1.194466   5.489011   1.478076  -0.000152   0.185824  -0.000819
  30   3   0.123202   4.103353   2.463027   0.000731   0.278737   0.002623
  31   3  -0.805461   3.236812  -4.110212   0.000608   0.278737   0.002180
  32   3  -2.448507   4.615612  -3.248482   0.001129   0.371649   0.003038
  33   3  -2.391891   5.541272  -2.076099   0.000120   0.185824   0.000647
  34   3  -0.586770   3.484324   3.000491   0.001371   0.232280   0.005902
  35   3  -0.583580   2.207293   3.204032   0.001023   0.232280   0.004406
  36   3  -1.717988   2.527034  -4.249349   0.002456   0.511017   0.004807
  37   3  -2.788199   3.379723  -3.810142   0.001894   0.418105   0.004529
  38   3  -0.554583   4.193892  -3.652052   0.000165   0.232280   0.000711
  39   3   0.521656   4.529978   1.887268   0.000224   0.232280   0.000964
  40   3  -1.579249   5.790846   0.858108  -0.000047   0.092912  -0.000501
  41   3  -2.120290   5.220447  -2.729231   0.000244   0.185824   0.001310
  42   3  -2.847253   1.832118  -3.938249   0.003184   0.464561   0.006854
  43   3  -0.031902   3.240160   2.910870   0.000948   0.185824   0.005100
  44   4  -2.279427   1.464162   3.688508   0.000935   0.139368   0.006710
  45   4  -5.051685   3.069041   3.821024   0.001036   0.325193   0.003185
  46   4  -2.655935   4.871668   2.822791   0.000805   0.278737   0.002890
  47   4  -5.751083   3.649808  -2.610705   0.001246   0.371649   0.003353
  48   4  -6.014978   4.425048  -1.869683   0.000664   0.371649   0.001787
  49   4  -3.802735   5.653804  -1.360177  -0.000020   0.092912  -0.000210
  50   4  -2.920638   5.480582   2.125118   0.000250   0.278737   0.000897
  51   4  -5.183096   3.889503   3.471515   0.000346   0.278737   0.001241
  52   4  -7.387120   3.504691   0.609689  -0.000436   0.092912  -0.004697
  53   4  -6.086765   3.457995   3.122319   0.000110   0.185824   0.000592
  54   4  -4.122765   3.652333   3.843056   0.001035   0.325193   0.003183
  55   4  -3.042529   4.302984   3.428821   0.000711   0.232280   0.003063
  56   4  -4.182431   5.317781  -1.878885   0.000077   0.185824   0.000414
  57   4  -4.746566   4.424199  -2.633828   0.001450   0.418105   0.003468
  58   4  -6.777768   3.286501  -1.793868   0.001234   0.371649   0.003319
  59   4  -7.329139   3.471124  -0.416755   0.000395   0.185824   0.002125
  60   4  -3.779728   2.664283   4.094990   0.001843   0.325193   0.005668
  61   4  -2.880136   2.067910   3.989680   0.001167   0.232280   0.005024
  62   4  -2.297281   2.477229   3.787557   0.001781   0.232280   0.007668
  63   4  -2.288942   3.693806   3.485426   0.001097   0.278737   0.003934
  64   4  -4.812492   3.126538  -3.211490   0.002821   0.511017   0.005520
  65   4  -6.032128   2.547422  -2.719101   0.001939   0.418105   0.004637
  66   4  -4.960001   4.994889  -2.030999   0.000342   0.232280   0.001472
  67   4  -3.853027   4.555216   3.350699   0.000665   0.325193   0.002046
  68   4  -6.640608   3.460556   2.559493  -0.000160   0.092912  -0.001725
  69   4  -6.949750   3.790864  -1.152905   0.000250   0.232280   0.001076
  70   4  -4.810012   1.766149  -3.276798   0.003136   0.464561   0.006750
  71   4  -2.995996   3.315888   3.873969   0.001153   0.278737   0.004135
  72   5  -3.036380  -0.052661   3.943789   0.000979   0.139368   0.007026
  73   5  -5.846829  -1.588399   4.090398   0.001052   0.325193   0.003236
  74   5  -6.186275   1.552312   4.011254   0.000845   0.278737   0.003033
  75   5  -7.695705  -0.096500  -1.955219   0.001267   0.371649   0.003409
  76   5  -8.364872  -0.138579  -1.077612   0.000692   0.371649   0.001861
  77   5  -8.098459   2.150351   0.085695  -0.000012   0.092912  -0.000125
  78   5  -6.939967   1.826737   3.478121   0.000293   0.278737   0.001051
  79   5  -6.649112  -1.196474   3.966619   0.000411   0.278737   0.001474
  80   5  -8.085231  -2.235805   0.389159  -0.000048   0.092912  -0.000516
  81   5  -6.837758  -2.057718   3.377190  -0.000003   0.185824  -0.000015
  82   5  -5.820060  -0.540946   4.415564   0.001049   0.325193   0.003226
  83   5  -5.833782   0.785507   4.368868   0.000724   0.232280   0.003119
  84   5  -8.107272   1.815552  -0.557710   0.000128   0.185824   0.000688
  85   5  -7.792514   1.119846  -1.608233   0.001518   0.418105   0.003630
  86   5  -7.828079  -1.349094  -1.438712   0.001229   0.371649   0.003306
  87   5  -8.031080  -2.018776  -0.422192   0.000417   0.185824   0.002243
  88   5  -4.779492  -0.813551   4.432691   0.001852   0.325193   0.005694
  89   5  -3.814710  -0.335102   4.305033   0.001166   0.232280   0.005019
  90   5  -3.866897   0.403320   4.316292   0.001801   0.232280   0.007752
  91   5  -4.912855   1.092247   4.368845   0.001097   0.278737   0.003935
  92   5  -6.846291   0.587488  -2.526503   0.002818   0.511017   0.005514
  93   5  -6.955328  -0.840519  -2.407179   0.001930   0.418105   0.004616
  94   5  -8.286715   1.057150  -0.910752   0.000395   0.232280   0.001700
  95   5  -6.494365   0.262229   4.240652   0.000712   0.325193   0.002189
  96   5  -7.227409  -2.357520   2.759281  -0.000013   0.092912  -0.000140
  97   5  -8.298988  -1.316484  -0.683422   0.000165   0.185824   0.000887
  98   5  -5.732302  -0.061336  -2.965803   0.003201   0.464561   0.006891
  99   5  -4.925387   0.215059   4.524077   0.001169   0.278737   0.004195
 100   6  -2.188569  -1.513611   3.658945   0.000917   0.139368   0.006578
 101   6  -2.480221  -4.675461   2.928311   0.000838   0.278737   0.003008
 102   6  -5.213936  -3.343544   3.687569   0.000850   0.278737   0.003050
 103   6  -5.593947  -3.746696  -2.659778   0.001268   0.371649   0.003412
 104   6  -5.787348  -4.563014  -1.941466   0.000680   0.371649   0.001830
 105   6  -7.352047  -3.540153  -0.161318  -0.000032   0.092912  -0.000346
 106   6  -5.725057  -3.790875   3.233215   0.000106   0.185824   0.000572
 107   6  -3.203839  -5.064668   2.810487   0.000366   0.278737   0.001314
 108   6  -3.678361  -5.769741  -1.090611  -0.000143   0.092912  -0.001541
 109   6  -2.686536  -5.480468   1.983286  -0.000040   0.185824  -0.000216
 110   6  -3.225132  -4.182405   3.545166   0.001041   0.325193   0.003200
 111   6  -4.334447  -3.528654   3.867464   0.000706   0.232280   0.003041
 112   6  -7.179823  -3.533716  -0.865900   0.000167   0.185824   0.000900
 113   6  -6.623378  -3.433922  -1.922942   0.000993   0.325193   0.003053
 114   6  -4.634571  -4.579151  -2.545320   0.001025   0.325193   0.003153
 115   6  -4.005182  -5.109041  -2.154360   0.000358   0.139368   0.002568
 116   6  -2.432202  -3.462164   3.644686   0.001860   0.325193   0.005719
 117   6  -2.322594  -2.395112   3.804067   0.001185   0.232280   0.005101
 118   6  -2.958591  -2.078277   4.012008   0.001796   0.232280   0.007733
 119   6  -4.087267  -2.617597   4.093460   0.001113   0.278737   0.003994
 120   6  -5.671075  -2.575036  -2.946141   0.002116   0.418105   0.005062
 121   6  -4.647452  -3.376034  -3.182030   0.001906   0.418105   0.004560
 122   6  -6.705915  -3.956869  -1.438931   0.000374   0.232280   0.001612
 123   6  -6.449083  -3.417633   2.807976   0.000062   0.139368   0.000447
 124   6  -4.281278  -4.295710   3.499460   0.000692   0.325193   0.002128
 125   6  -2.746160  -5.778282   1.254400  -0.000064   0.092912  -0.000685
 126   6  -4.599870  -5.275363  -1.824210   0.000126   0.232280   0.000542
 127   6  -4.712225  -1.828507  -3.308303   0.003181   0.464561   0.006848
 128   6  -3.346224  -3.102224   3.994950   0.001155   0.278737   0.004144
 129   6  -6.412258  -2.626919  -2.394832   0.001255   0.232280   0.005403
 130   7  -2.903511  -1.373849  -3.821712   0.000623   0.092912   0.006701
 131   7  -2.702005  -4.637361  -3.115091   0.000946   0.325193   0.002910
 132   7   0.224069  -3.967845   2.493011   0.000509   0.185824   0.002742
 133   7   0.550597  -4.513059   1.881370   0.000304   0.278737   0.001092
 134   7  -1.914694  -5.057270  -2.987024   0.000286   0.278737   0.001025
 135   7  -1.695633  -5.890113   0.542032  -0.000480   0.092912  -0.005162
 136   7  -2.423213  -5.489706  -2.162911  -0.000134   0.185824  -0.000719
 137   7  -1.911809  -4.169497  -3.715340   0.000929   0.325193   0.002857
 138   7  -0.786690  -3.390661  -4.060999   0.000614   0.278737   0.002202
 139   7  -0.575766  -4.617965   2.365092   0.001111   0.371649   0.002990
 140   7  -1.238229  -5.542850   1.395418   0.000321   0.185824   0.001725
 141   7  -2.719591  -3.465258  -3.809804   0.001791   0.325193   0.005508
 142   7  -2.970043  -2.207606  -3.909500   0.001224   0.232280   0.005268
 143   7  -2.206662  -1.955311  -4.162740   0.001327   0.185824   0.007143
 144   7  -1.306086  -2.655895  -4.254822   0.000836   0.232280   0.003601
 145   7  -0.002387  -3.090911   2.939379   0.000947   0.185824   0.005097
 146   7  -0.593776  -3.486230   3.003043   0.001331   0.325193   0.004093
 147   7  -0.853529  -4.261071  -3.670287   0.000436   0.325193   0.001341
 148   7  -2.357391  -5.791443  -1.436175  -0.000083   0.092912  -0.000894
 149   7  -0.510952  -5.186963   1.759422   0.000120   0.232280   0.000517
 150   7  -0.632470  -1.866964   3.193232   0.002283   0.325193   0.007022
 151   7  -2.056496  -2.955008  -4.144793   0.001370   0.325193   0.004212
 152   8   7.108302   0.114434   3.947593  -0.001161   0.536887  -0.002163
 153   8   3.203860   0.638289   4.411073   0.003506   0.439271   0.007982
 154   8   5.362522   3.421811   2.603134   0.003840   0.488079   0.007869
 155   8   8.185628   1.661545   0.433349   0.003814   0.488079   0.007815
 156   8   7.812027  -2.326297   0.818226   0.003772   0.488079   0.007729
 157   8   4.680965  -3.082365   3.246028   0.002624   0.341655   0.007679
 158   8   5.832400   0.150539   4.608886  -0.000118   0.585695  -0.000202
 159   8   4.498860   0.490346   4.738865   0.001967   0.488079   0.004030
 160   8   6.666277   1.462279   3.914317  -0.000070   0.585695  -0.000119
 161   8   6.005814   2.590969   3.479219   0.001985   0.488079   0.004066
 162   8   7.920369   0.760400   2.943843  -0.000103   0.585695  -0.000176
 163   8   8.368454   1.055051   1.652594   0.002191   0.536887   0.004080
 164   8   7.783078  -0.821485   3.121849  -0.000297   0.536887  -0.000553
 165   8   7.955302  -1.733174   2.130627   0.001714   0.488079   0.003511
 166   8   6.596709  -1.268856   4.041921  -0.000338   0.683311  -0.000495
 167   8   5.648597  -2.339694   3.844272   0.002325   0.585695   0.003970
 168   8   3.793044   1.799312   4.207028   0.003569   0.488079   0.007311
 169   8   4.557021   2.788891   3.587896   0.004051   0.536887   0.007545
 170   8   6.503572   3.243795   2.043990   0.004693   0.634503   0.007396
 171   8   7.607466   2.564048   1.195448   0.004256   0.585695   0.007267
 172   8   8.544031   0.223762   0.344973   0.004484   0.585695   0.007656
 173   8   8.392585  -1.173390   0.563034   0.004304   0.585695   0.007349
 174   8   7.037987  -3.018904   1.605607   0.003956   0.536887   0.007368
 175   8   5.801893  -3.320773   2.572582   0.004344   0.585695   0.007418
 176   8   4.253577  -2.136701   4.098887   0.003662   0.536887   0.006820
 177   8   3.619370  -0.751932   4.540040   0.004090   0.585695   0.006984
 178   8   2.718993   1.527006   3.849899   0.002850   0.292848   0.009732
 179   8   4.002375   3.457615   2.500202   0.004589   0.488079   0.009402
 180   8   5.247304   3.807394   1.395134   0.003363   0.390463   0.008613
 181   8   5.184093   3.745322   0.021817   0.003830   0.536887   0.007134
 182   8   6.364857   3.026829  -0.870031   0.003484   0.488079   0.007139
 183   8   7.405171   2.428215  -0.473577   0.005177   0.585695   0.008839
 184   8   8.008689   1.001856  -0.878576   0.005779   0.634503   0.009108
 185   8   7.383410   0.165556  -1.903254   0.004129   0.585695   0.007049
 186   8   7.091406  -1.503717  -1.762936   0.003114   0.488079   0.006379
 187   8   7.685778  -1.982177  -0.600114   0.004810   0.536887   0.008959
 188   8   6.802077  -3.194786   0.237937   0.004248   0.488079   0.008703
 189   8   5.775893  -3.512477  -0.337231   0.003207   0.439271   0.007300
 190   8   4.764865  -3.858352   0.578640   0.002937   0.390463   0.007523
 191   8   4.385490  -3.685076   2.044345   0.005468   0.585695   0.009336
 192   8   3.605764  -2.992522   3.094593   0.003770   0.390463   0.009654
 193   8   2.463823  -0.240122   4.044183   0.004825   0.488079   0.009885
 194   8   5.252282   1.622177   4.379818   0.001822   0.585695   0.003111
 195   8   7.446513   2.109124   2.666991   0.001934   0.683311   0.002831
 196   8   8.451696  -0.420013   1.840109   0.001764   0.585695   0.003012
 197   8   6.986938  -2.402768   2.919974   0.002143   0.634503   0.003377
 198   8   5.008384  -1.039185   4.622097   0.001512   0.536887   0.002816
 199   8   3.274449   2.594316   3.393175   0.002494   0.292848   0.008515
 200   8   6.506729   3.417660   0.534392   0.005223   0.585695   0.008918
 201   8   8.070200  -0.683608  -0.912423   0.005311   0.585695   0.009068
 202   8   5.772592  -3.713805   1.197372   0.004726   0.536887   0.008803
 203   8   2.975118  -1.854958   3.822072   0.003883   0.439271   0.008840
 204   8   4.312416   3.841515   1.218585   0.002334   0.292848   0.007971
 205   8   7.012504   1.731059  -1.695383   0.003033   0.488079   0.006215
 206   8   6.679354  -2.723523  -1.028898   0.003325   0.439271   0.007569
 207   9   3.854048  -3.318151  -4.469564  -0.004375   0.431809  -0.010131
 208   9   3.731566  -4.004857  -2.545313  -0.002574   0.274788  -0.009368
 209   9   4.961420  -2.933893  -3.606109  -0.002921   0.314043  -0.009302
 210   9   4.105655  -2.151651  -4.988942  -0.002212   0.314043  -0.007045
 211   9   2.124342  -2.643783  -4.945532  -0.003058   0.372926  -0.008200
 212   9   3.315706  -3.983489  -3.654982  -0.004095   0.372926  -0.010980
 213   9   4.395468  -3.672883  -3.156945  -0.003066   0.353299  -0.008678
 214   9   4.776709  -2.458347  -4.344955  -0.002422   0.333671  -0.007257
 215   9   3.142041  -2.391856  -5.201020  -0.002896   0.392554  -0.007378
 216   9   2.550568  -3.516253  -4.432658  -0.003987   0.392554  -0.010157
 217  10   3.826341   3.317821  -4.478707  -0.004125   0.412182  -0.010009
 218  10   3.972269   3.902411  -2.579215  -0.003014   0.294415  -0.010239
 219  10   2.051576   2.729798  -4.872302  -0.002596   0.294415  -0.008819
 220  10   3.460088   2.090220  -5.235324  -0.002137   0.294415  -0.007257
 221  10   5.064677   2.455046  -3.908291  -0.002745   0.353299  -0.007769
 222  10   3.507704   3.985925  -3.495528  -0.004289   0.392554  -0.010925
 223  10   2.628407   3.634723  -4.293765  -0.004116   0.372926  -0.011037
 224  10   2.839132   2.671098  -5.100803  -0.002514   0.314043  -0.008006
 225  10   4.370396   2.342277  -4.776232  -0.003132   0.392554  -0.007978
 226  10   4.649185   3.365251  -3.489700  -0.003297   0.392554  -0.008398
 227  11   0.450987   6.332539  -0.949792  -0.004357   0.471065  -0.009249
 228  11   0.010540   6.061951   0.480046  -0.002381   0.392554  -0.006066
 229  11  -1.114206   6.294039  -1.355328  -0.002042   0.314043  -0.006503
 230  11   0.039005   5.406682  -2.815125  -0.002551   0.372926  -0.006841
 231  11  -0.666630   6.416870  -0.407371  -0.003407   0.431809  -0.007891
 232  11  -0.471010   6.096852  -2.130800  -0.003568   0.471065  -0.007573
 233  11   0.908731   5.740852  -2.035206  -0.004115   0.412182  -0.009984
 234  11   1.460815   5.666656  -0.847136  -0.004238   0.392554  -0.010797
 235  11   1.071077   5.643536   0.329487  -0.003752   0.471065  -0.007965
 236  12  -5.974018   6.159859   0.989745  -0.005749   0.608459  -0.009448
 237  12  -6.055896   5.040375   2.491432  -0.002538   0.412182  -0.006158
 238  12  -7.141927   4.679215   0.738835  -0.002145   0.353299  -0.006071
 239  12  -6.031578   5.581061  -0.794731  -0.001925   0.353299  -0.005449
 240  12  -4.243031   6.372792   0.065076  -0.002523   0.333671  -0.007561
 241  12  -4.143742   6.018226   1.973154  -0.001753   0.333671  -0.005253
 242  12  -6.780072   5.044179   1.648575  -0.003555   0.490692  -0.007246
 243  12  -6.724579   5.369984  -0.029411  -0.003492   0.490692  -0.007117
 244  12  -5.232711   6.227775  -0.379618  -0.003684   0.510320  -0.007219
 245  12  -4.504321   6.451278   1.070799  -0.003910   0.490692  -0.007968
 246  12  -5.229516   5.780113   2.327605  -0.003966   0.549575  -0.007217
 247  13  -9.332273  -0.044613   2.121505  -0.005677   0.608459  -0.009330
 248  13  -8.221846  -1.079142   3.222282  -0.002407   0.412182  -0.005839
 249  13  -8.783559  -1.667135   1.293490  -0.002312   0.353299  -0.006545
 250  13  -9.160435   0.118101   0.259604  -0.001809   0.353299  -0.005119
 251  13  -8.709689   1.745263   1.568872  -0.002359   0.333671  -0.007068
 252  13  -8.090502   1.111201   3.290485  -0.001621   0.314043  -0.005160
 253  13  -8.748162  -1.441268   2.313047  -0.003731   0.490692  -0.007604
 254  13  -9.245051  -0.769926   0.820644  -0.003384   0.490692  -0.006897
 255  13  -9.196197   0.980393   0.955249  -0.003565   0.510320  -0.006985
 256  13  -8.761705   1.289295   2.504447  -0.003787   0.490692  -0.007717
 257  13  -8.408501   0.012149   3.398916  -0.003836   0.549575  -0.006979
 258  14  -5.945030  -6.154537   1.105692  -0.005749   0.608459  -0.009448
 259  14  -6.915236  -5.028761  -0.037259  -0.002536   0.412182  -0.006151
 260  14  -6.719582  -4.674743   2.016490  -0.002157   0.353299  -0.006107
 261  14  -4.910351  -5.583204   2.563668  -0.001917   0.353299  -0.005425
 262  14  -4.007789  -6.371656   0.794846  -0.002516   0.333671  -0.007541
 263  14  -5.081469  -6.009123  -0.783799  -0.001768   0.333671  -0.005300
 264  14  -6.982416  -5.035961   1.071924  -0.003560   0.490692  -0.007255
 265  14  -5.924502  -5.368798   2.373808  -0.003496   0.490692  -0.007124
 266  14  -4.526788  -6.228322   1.747916  -0.003691   0.510320  -0.007233
 267  14  -4.824220  -6.445883   0.151540  -0.003901   0.490692  -0.007949
 268  14  -6.159957  -5.769330  -0.408831  -0.003962   0.549575  -0.007210
 269  15   0.371864  -6.344857  -1.121578  -0.003784   0.412182  -0.009181
 270  15  -0.873880  -6.043134  -2.121708  -0.002348   0.392554  -0.005982
 271  15  -0.653721  -6.296879   0.050674  -0.001979   0.314043  -0.006301
 272  15   0.956568  -5.569574   0.549686  -0.002905   0.412182  -0.007049
 273  15   0.134393  -5.399614  -2.795412  -0.002441   0.314043  -0.007772
 274  15  -0.867656  -6.419657  -0.975577  -0.003449   0.431809  -0.007986
 275  15   0.258246  -6.163252   0.201679  -0.002768   0.372926  -0.007423
 276  15   1.411289  -5.707438  -0.637023  -0.004663   0.451437  -0.010330
 277  15   1.123845  -5.686374  -1.846628  -0.003692   0.353299  -0.010450
 278  15   0.129046  -6.006328  -2.183560  -0.002221   0.274788  -0.008082
 279   1   0.186416   1.506896  -4.494134  -0.000316   0.051532  -0.006128
 280   2  -0.284971   1.520164  -4.379422  -0.000052   0.051532  -0.001017
 281   3  -0.494885   1.904831  -4.269903   0.000057   0.051532   0.001103
 282   1   0.184061  -1.514084  -4.493038  -0.000357   0.051536  -0.006926
 283   2  -0.287346  -1.526520  -4.378310  -0.000061   0.051536  -0.001178
 284   7  -0.497791  -1.910793  -4.268509   0.000035   0.051536   0.000683
 285   2  -0.227123   0.814316  -4.592702  -0.000434   0.225958  -0.001919
 286   2  -0.228416  -0.820910  -4.592105  -0.000452   0.225958  -0.001998
 287   1   0.448198  -0.003894  -4.762384  -0.003283   0.462859  -0.007093
 288   1   0.892542   2.186521  -4.453382  -0.000640   0.067334  -0.009510
 289   3   0.224521   2.557704  -4.157356  -0.000378   0.067334  -0.005618
 290  10   1.107616   2.394839  -4.449695  -0.000650   0.067334  -0.009659
 291   3  -0.370529   2.464988  -4.280020   0.000182   0.192889   0.000944
 292   1   0.523744   1.780909  -4.626842  -0.000663   0.192889  -0.003435
 293   1   0.895308  -2.203865  -4.448250  -0.000596   0.067364  -0.008849
 294   7   0.226624  -2.573626  -4.152082  -0.000378   0.067364  -0.005607
 295   9   1.109895  -2.412648  -4.443180  -0.000841   0.067364  -0.012487
 296   7  -0.447877  -2.357109  -4.300181   0.000265   0.196030   0.001351
 297   1   0.601030  -1.912089  -4.600524  -0.000659   0.196030  -0.003364
 298   1   5.666645  -1.867428  -2.896436  -0.000328   0.036292  -0.009029
 299   8   6.011140  -1.849740  -2.412726  -0.000145   0.036292  -0.004003
 300   9   5.503098  -2.085151  -3.017039  -0.000338   0.036292  -0.009306
 301   1   5.667514   1.851515  -2.905719  -0.000300   0.036297  -0.008266
 302   8   6.012003   1.836085  -2.421926  -0.000141   0.036297  -0.003872
 303  10   5.504070   2.068734  -3.027387  -0.000431   0.036297  -0.011875
 304   8   6.477653  -1.334672  -2.322747   0.000228   0.248191   0.000921
 305   8   6.542165   0.588175  -2.378965  -0.000098   0.499548  -0.000196
 306   1   5.992481  -0.599585  -3.025104  -0.002005   0.496322  -0.004039
 307   1   5.928382   1.312690  -2.978081  -0.000819   0.244974  -0.003341
 308   9   1.667031  -2.232809  -4.846915  -0.000748   0.073714  -0.010141
 309   9   2.692207  -1.731608  -5.223421  -0.001614   0.167460  -0.009635
 310   9   4.100297  -1.534203  -4.959621  -0.001564   0.167460  -0.009341
 311   9   5.085441  -1.903788  -3.967566  -0.001674   0.167460  -0.009997
 312   1   1.831583  -1.671759  -5.043428  -0.001686   0.158003  -0.010673
 313   1   3.357175  -1.153559  -5.241639  -0.001412   0.158003  -0.008935
 314   1   4.791719  -1.256766  -4.488858  -0.001394   0.158003  -0.008820
 315   1   5.472227  -1.731467  -3.454617  -0.000724   0.090058  -0.008035
 316  10   5.302367   2.087257  -3.567381  -0.000544   0.064682  -0.008418
 317  10   4.822683   1.669643  -4.419960  -0.001255   0.142681  -0.008795
 318  10   3.765489   1.489821  -5.134023  -0.001269   0.142681  -0.008895
 319  10   2.508799   1.759801  -5.221887  -0.001332   0.142681  -0.009332
 320  10   1.635289   2.230141  -4.838286  -0.000685   0.064682  -0.010585
 321   1   5.307633   1.550569  -3.786010  -0.001275   0.142598  -0.008940
 322   1   4.415006   1.112958  -4.838469  -0.001129   0.142598  -0.007915
 323   1   3.048012   1.166221  -5.312230  -0.001210   0.142598  -0.008487
 324   1   1.728985   1.690006  -5.026267  -0.001432   0.142598  -0.010043
 325   2  -3.097739   0.205047  -3.383554   0.000687   0.102445   0.006710
 326   3  -3.320908   0.597017  -3.328724   0.000679   0.102445   0.006624
 327   5  -3.952599   0.208775  -3.054625   0.000553   0.102445   0.005402
 328   2  -0.998250   0.210359   2.864102   0.000536   0.102445   0.005235
 329   3  -1.209443   0.602359   2.954570   0.000627   0.102445   0.006124
 330   5  -1.878269   0.214023   3.118162   0.000540   0.102445   0.005271
 331   2   0.331150   0.465976   2.858259   0.000775   0.106196   0.007300
 332   3   0.118481   0.866129   2.879335   0.000922   0.106196   0.008682
 333   8   1.199500   0.467774   3.082556   0.000978   0.106196   0.009208
 334   3  -1.302921   1.838227  -4.239007   0.000857   0.210865   0.004065
 335   3  -2.656839   1.025229  -3.802590   0.001403   0.210865   0.006654
 336   2  -1.659180   0.869686  -4.072898   0.002350   0.433607   0.005420
 337   3  -0.680391   0.864954   2.990543   0.000654   0.083886   0.007792
 338   2  -0.278159   0.355977   2.889512   0.000623   0.083886   0.007430
 339   2  -1.224317  -0.211610   2.898670   0.000499   0.102626   0.004863
 340   5  -2.079227  -0.207917   3.227490   0.000683   0.102626   0.006657
 341   6  -1.855434  -0.600576   3.172280   0.000717   0.102626   0.006984
 342   2  -3.098027  -0.206749  -3.383401   0.000692   0.102441   0.006754
 343   5  -3.952890  -0.209019  -3.054468   0.000557   0.102441   0.005434
 344   7  -3.321740  -0.598344  -3.328276   0.000727   0.102441   0.007098
 345   5  -2.110741   0.000065   3.391984   0.000067   0.005747   0.011734
 346   2  -0.874078   0.002852   2.976410   0.000047   0.005747   0.008213
 347   2  -0.879472  -0.399600   2.875264   0.000320   0.047785   0.006703
 348   6  -1.526569  -0.795844   3.092911   0.000406   0.047785   0.008491
 349   7  -1.089433  -0.784478   2.983563   0.000383   0.047785   0.008018
 350   2   0.331241  -0.467019   2.858475   0.000715   0.106037   0.006739
 351   7   0.118010  -0.866826   2.879673   0.000923   0.106037   0.008708
 352   8   1.199627  -0.467493   3.082587   0.000991   0.106037   0.009344
 353   7  -0.582772  -0.918784   2.992091   0.000585   0.083706   0.006990
 354   2  -0.374912  -0.304672   2.888998   0.000554   0.083706   0.006615
 355   7  -2.658316  -1.027822  -3.801803   0.001655   0.210837   0.007848
 356   7  -1.305686  -1.842993  -4.237626   0.000970   0.210837   0.004601
 357   2  -1.660522  -0.873884  -4.072247   0.002586   0.433545   0.005965
 358   8   1.598158   0.054688   3.469367   0.001120   0.162366   0.006901
 359   2   0.408704  -0.055172   2.996857   0.000897   0.159740   0.005616
 360   3  -3.649404   0.792559  -3.249511   0.000404   0.047969   0.008412
 361   4  -4.086602   0.782554  -3.140328   0.000461   0.047969   0.009606
 362   5  -4.297102   0.397009  -3.031362   0.000453   0.047969   0.009439
 363   3  -1.517935   0.795290   3.088479   0.000403   0.047969   0.008400
 364   4  -1.932262   0.785315   3.265672   0.000472   0.047969   0.009845
 365   5  -2.165729   0.399741   3.306345   0.000436   0.047969   0.009080
 366   3  -2.434906   5.884271   0.397842  -0.000111   0.007256  -0.015239
 367   4  -2.857413   5.926135   0.546710  -0.000142   0.007256  -0.019579
 368  12  -3.140662   6.002624   0.592594  -0.000105   0.007256  -0.014508
 369   3  -2.760137   5.881807  -0.569229  -0.000094   0.007256  -0.013003
 370   4  -3.186804   5.923639  -0.432728  -0.000123   0.007256  -0.016972
 371  12  -3.440335   6.000354  -0.298481  -0.000116   0.007256  -0.015919
 372   4  -1.760951   1.466632   3.389972   0.001507   0.199485   0.007554
 373   4  -1.837427   3.478799   3.147988   0.002111   0.408089   0.005172
 374   4  -2.344255   5.349172   1.627361  -0.001227   0.408089  -0.003007
 375   3  -1.160101   2.243922   3.144946   0.002954   0.408089   0.007238
 376   3  -1.424409   4.557641   2.342247   0.000491   0.408089   0.001202
 377   3  -1.941257   5.764771   0.796633  -0.000729   0.199485  -0.003655
 378   4  -3.219390   5.761792  -0.977881  -0.000760   0.199038  -0.003820
 379   4  -3.739036   4.551061  -2.514294   0.000673   0.407094   0.001653
 380   4  -4.011172   2.239718  -3.306755   0.002870   0.407094   0.007049
 381   3  -2.817252   5.341553  -1.805110  -0.001197   0.407094  -0.002939
 382   3  -3.329377   3.469597  -3.314370   0.002013   0.407094   0.004946
 383   3  -3.413265   1.461051  -3.549258   0.001246   0.199038   0.006262
 384   3   1.521916   4.214412   1.191150  -0.000134   0.098501  -0.001360
 385   8   2.551505   3.693923   1.364373   0.000293   0.098501   0.002979
 386  11   1.532856   4.408308   0.960834  -0.000426   0.098501  -0.004325
 387   8   2.974243   3.513606   2.121175   0.002313   0.398084   0.005811
 388   8   2.311236   2.353886   3.114699   0.005418   0.794359   0.006820
 389   8   1.665642   0.870618   3.508071   0.002792   0.398084   0.007013
 390   3   1.186658   3.655161   2.160783   0.001921   0.779526   0.002465
 391   3   0.375816   2.017499   3.020138   0.004210   0.779526   0.005401
 392   3   0.446123   4.081416  -3.371845  -0.000481   0.081884  -0.005872
 393  10   1.297453   3.742603  -3.598638  -0.001038   0.081884  -0.012673
 394  11   0.555191   4.309660  -3.208888  -0.000633   0.081884  -0.007725
 395  10   1.399275   2.953551  -4.327540  -0.003283   0.350532  -0.009366
 396   3   0.200095   3.542956  -3.858490  -0.000738   0.494675  -0.001493
 397  11   0.006453   4.774987  -3.137541  -0.000484   0.066065  -0.007320
 398  11  -0.854380   5.329664  -2.784025  -0.000834   0.146253  -0.005704
 399  11  -1.514614   5.890777  -1.799988  -0.001086   0.146253  -0.007423
 400  11  -1.596620   6.137391  -0.748261  -0.000500   0.066065  -0.007573
 401   3  -0.567784   4.702240  -3.223522  -0.000730   0.145143  -0.005029
 402   3  -1.603111   5.431650  -2.471050  -0.000793   0.145143  -0.005461
 403   3  -1.975982   5.899026  -1.124691  -0.001132   0.145143  -0.007798
 404  11  -1.386434   6.134782  -0.136744  -0.000578   0.070094  -0.008241
 405  11  -0.629445   5.861200   0.677663  -0.001199   0.157178  -0.007629
 406  11   0.564139   5.248394   1.008562  -0.001036   0.157178  -0.006593
 407   3  -1.436414   5.885351   0.408479  -0.001271   0.152103  -0.008357
 408   3  -0.241578   5.369820   1.254158  -0.000838   0.152103  -0.005509
 409   3   0.861150   4.754511   1.301641  -0.000337   0.085635  -0.003930
 410  12  -3.336539   6.113404   0.478916  -0.000552   0.083106  -0.006645
 411   3  -2.305211   6.008799   0.088428  -0.000486   0.117295  -0.004146
 412  12  -3.494876   6.120238  -0.004338  -0.000593   0.085341  -0.006948
 413   3  -2.496456   6.000249  -0.469239  -0.000438   0.120448  -0.003639
 414   5  -2.809490   0.463289   3.742799   0.001611   0.204656   0.007873
 415   5  -4.583170   1.483814   4.042456   0.002194   0.419423   0.005230
 416   5  -6.651170   2.412449   2.968240  -0.001232   0.419423  -0.002937
 417   4  -3.172150   1.421364   3.812711   0.003133   0.419423   0.007470
 418   4  -5.383650   2.587816   3.608785   0.000518   0.419423   0.001236
 419   4  -6.896654   3.176331   2.327506  -0.000767   0.204656  -0.003748
 420   5  -7.783634   2.611692   0.694508  -0.000778   0.204190  -0.003809
 421   5  -7.347698   2.020456  -1.234213   0.000676   0.418376   0.001615
 422   5  -5.709208   0.854775  -2.725945   0.002991   0.418376   0.007150
 423   4  -7.360886   2.971144  -0.167831  -0.001210   0.418376  -0.002892
 424   4  -6.358988   2.040846  -2.265323   0.002073   0.418376   0.004954
 425   4  -4.766692   1.022042  -3.093691   0.001345   0.204190   0.006585
 426  12  -3.899324   6.086855  -0.403430  -0.000498   0.066796  -0.007455
 427  12  -4.729129   5.755805  -1.040065  -0.000952   0.148356  -0.006417
 428  12  -5.902946   5.149288  -1.161433  -0.000886   0.148356  -0.005971
 429  12  -6.844761   4.522416  -0.468283  -0.000867   0.148356  -0.005847
 430  12  -7.170621   4.130746   0.756809  -0.001074   0.148356  -0.007237
 431  12  -6.747684   4.133951   2.014407  -0.001101   0.148356  -0.007423
 432  12  -5.748368   4.530723   2.791826  -0.000902   0.148356  -0.006078
 433  12  -4.580066   5.159312   2.772134  -0.000797   0.148356  -0.005370
 434  12  -3.719061   5.763458   1.963358  -0.000968   0.148356  -0.006528
 435  12  -3.443093   6.090312   0.953169  -0.000455   0.066796  -0.006806
 436   4  -3.915187   5.794093  -0.913165  -0.000982   0.146274  -0.006715
 437   4  -5.160594   5.233707  -1.510514  -0.000665   0.146274  -0.004549
 438   4  -6.414611   4.502630  -1.171597  -0.000596   0.146274  -0.004072
 439   4  -7.166011   3.898901  -0.034581  -0.000861   0.146274  -0.005887
 440   4  -7.108470   3.668642   1.437006  -0.001191   0.146274  -0.008141
 441   4  -6.265445   3.905724   2.643239  -0.000875   0.146274  -0.005980
 442   4  -4.980614   4.513495   3.092373  -0.000564   0.146274  -0.003857
 443   4  -3.777766   5.244185   2.601308  -0.000658   0.146274  -0.004502
 444   4  -3.147266   5.799911   1.370237  -0.001065   0.146274  -0.007282
 445  13  -8.004427   2.259280   1.809232  -0.000975   0.140141  -0.006959
 446   4  -7.438867   3.161619   1.474014  -0.000569   0.197667  -0.002881
 447   5  -4.299409  -0.399564  -3.031116   0.000452   0.047970   0.009431
 448   6  -4.089412  -0.785509  -3.139580   0.000465   0.047970   0.009691
 449   7  -3.652261  -0.796178  -3.248964   0.000423   0.047970   0.008827
 450   6  -2.504770  -1.020821   3.640974   0.001621   0.204694   0.007918
 451   6  -4.280096  -2.038943   3.941806   0.002205   0.419509   0.005256
 452   6  -6.349440  -2.966383   2.868093  -0.001187   0.419509  -0.002829
 453   5  -3.479534  -0.852888   3.916995   0.003146   0.419509   0.007500
 454   5  -5.692875  -2.017006   3.714172   0.000493   0.419509   0.001175
 455   5  -7.206619  -2.605185   2.432970  -0.000822   0.204694  -0.004014
 456   6  -7.481369  -3.167143   0.596851  -0.000811   0.204164  -0.003972
 457   6  -7.045501  -2.579353  -1.332742   0.000665   0.418320   0.001590
 458   6  -5.406429  -1.417943  -2.826818   0.002996   0.418320   0.007163
 459   5  -7.670133  -2.402848  -0.060135  -0.001280   0.418320  -0.003060
 460   5  -6.668060  -1.476955  -2.159244   0.001999   0.418320   0.004779
 461   5  -5.075096  -0.461354  -2.989805   0.001392   0.204164   0.006819
 462  13  -7.942246  -2.036123   2.363912  -0.000503   0.072375  -0.006952
 463  13  -7.639556  -1.333201   3.267572  -0.001085   0.163867  -0.006621
 464  13  -7.482088   0.005033   3.735164  -0.000861   0.163867  -0.005254
 465  13  -7.637588   1.343131   3.266528  -0.001171   0.163867  -0.007148
 466  13  -7.939243   2.045792   2.362320  -0.000495   0.072375  -0.006835
 467   5  -7.469649  -2.013774   2.750817  -0.001091   0.155596  -0.007015
 468   5  -7.139094  -0.795866   3.736499  -0.000673   0.155596  -0.004327
 469   5  -7.137917   0.805426   3.735875  -0.000704   0.155596  -0.004523
 470   5  -7.466680   2.023050   2.749243  -0.001120   0.155596  -0.007199
 471  13  -8.330213   2.044216   1.192760  -0.000546   0.072271  -0.007550
 472  13  -8.632071   1.340399   0.291591  -0.001043   0.163572  -0.006374
 473  13  -8.788887   0.003316  -0.174051  -0.000989   0.163572  -0.006044
 474  13  -8.633563  -1.333081   0.294052  -0.001050   0.163572  -0.006416
 475  13  -8.332490  -2.035575   1.196515  -0.000464   0.072271  -0.006414
 476   5  -8.185157   2.020669   0.599963  -0.001070   0.155424  -0.006887
 477   5  -8.514688   0.802623  -0.382657  -0.000724   0.155424  -0.004661
 478   5  -8.515581  -0.796679  -0.381185  -0.000669   0.155424  -0.004302
 479   5  -8.187408  -2.013281   0.603677  -0.001077   0.155424  -0.006926
 480   6  -2.864132  -5.924659   0.555199  -0.000123   0.007272  -0.016950
 481   7  -2.441635  -5.883505   0.406051  -0.000097   0.007272  -0.013306
 482  14  -3.147462  -6.000779   0.601228  -0.000115   0.007272  -0.015798
 483   6  -3.194676  -5.923111  -0.426101  -0.000139   0.007272  -0.019125
 484   7  -2.768005  -5.881976  -0.562859  -0.000109   0.007272  -0.014960
 485  14  -3.448185  -5.999371  -0.291541  -0.000103   0.007272  -0.014210
 486   7  -2.615253  -5.761400  -1.177504  -0.000705   0.198989  -0.003542
 487   7  -3.134001  -4.552196  -2.714733   0.000516   0.406983   0.001267
 488   7  -3.403698  -2.242174  -3.510032   0.002981   0.406983   0.007325
 489   6  -3.437011  -5.343724  -1.592939  -0.001154   0.406983  -0.002836
 490   6  -3.947450  -3.473514  -3.103966   0.002006   0.406983   0.004929
 491   6  -4.029073  -1.465728  -3.341621   0.001341   0.198989   0.006737
 492   7  -1.149031  -1.465160   3.185330   0.001241   0.199355   0.006223
 493   7  -1.228350  -3.476157   2.945180   0.002022   0.407799   0.004958
 494   7  -1.737959  -5.346619   1.427931  -0.001269   0.407799  -0.003112
 495   6  -1.773452  -2.243919   3.352958   0.002978   0.407799   0.007304
 496   6  -2.041072  -4.556702   2.553091   0.000564   0.407799   0.001382
 497   6  -2.559796  -5.764532   1.010320  -0.000732   0.199355  -0.003673
 498  13  -8.052825  -2.249994   1.676109  -0.000955   0.139649  -0.006837
 499   6  -7.401495  -3.153664   1.602067  -0.000615   0.196973  -0.003122
 500  14  -3.449928  -6.087582   0.962015  -0.000497   0.066788  -0.007444
 501  14  -3.725355  -5.758928   1.971605  -0.000951   0.148331  -0.006413
 502  14  -4.585410  -5.152715   2.779562  -0.000871   0.148331  -0.005874
 503  14  -5.752860  -4.522890   2.798703  -0.000864   0.148331  -0.005828
 504  14  -6.751912  -4.126139   2.021227  -0.001135   0.148331  -0.007654
 505  14  -7.175402  -4.124156   0.763993  -0.001110   0.148331  -0.007485
 506  14  -6.850738  -4.517750  -0.460614  -0.000897   0.148331  -0.006048
 507  14  -5.910236  -5.146511  -1.153506  -0.000805   0.148331  -0.005427
 508  14  -4.737197  -5.754190  -1.032296  -0.000951   0.148331  -0.006414
 509  14  -3.907379  -6.085440  -0.396040  -0.000450   0.066788  -0.006744
 510   6  -3.153709  -5.796870   1.378539  -0.000971   0.146260  -0.006637
 511   6  -3.783307  -5.238666   2.608719  -0.000636   0.146260  -0.004346
 512   6  -4.985069  -4.506030   3.098964  -0.000593   0.146260  -0.004056
 513   6  -6.269217  -3.897549   2.649477  -0.000863   0.146260  -0.005903
 514   6  -7.112399  -3.661207   1.443445  -0.001232   0.146260  -0.008424
 515   6  -7.170976  -3.893326  -0.027615  -0.000870   0.146260  -0.005948
 516   6  -6.421075  -4.499306  -1.164173  -0.000614   0.146260  -0.004200
 517   6  -5.168318  -5.232181  -1.503025  -0.000631   0.146260  -0.004313
 518   6  -3.923264  -5.793267  -0.906074  -0.000981   0.146260  -0.006709
 519   7   1.521006  -4.212726   1.193070  -0.000148   0.098450  -0.001499
 520   8   2.550965  -3.690953   1.365738   0.000269   0.098450   0.002733
 521  15   1.531151  -4.407137   0.963183  -0.000431   0.098450  -0.004380
 522   8   1.666027  -0.869362   3.508261   0.002871   0.398058   0.007212
 523   8   2.311987  -2.351409   3.115156   0.005472   0.794299   0.006889
 524   8   2.974948  -3.510370   2.122406   0.002351   0.398058   0.005905
 525   7   0.375416  -2.017178   3.020793   0.004153   0.779456   0.005329
 526   7   1.186461  -3.653621   2.162078   0.001880   0.779456   0.002412
 527   7   0.442050  -4.089805  -3.366620  -0.000518   0.081835  -0.006330
 528   9   1.294016  -3.753402  -3.592371  -0.000933   0.081835  -0.011399
 529  15   0.550768  -4.318010  -3.203398  -0.000635   0.081835  -0.007756
 530   9   1.497099  -3.199389  -4.197971  -0.003204   0.348344  -0.009197
 531   7   0.108438  -3.342052  -3.965935  -0.000621   0.491577  -0.001263
 532  14  -3.534392  -6.110737  -0.079071  -0.000566   0.085266  -0.006635
 533   7  -2.475627  -6.008076  -0.388693  -0.000478   0.120341  -0.003976
 534  14  -3.366612  -6.119367   0.406960  -0.000575   0.082652  -0.006957
 535   7  -2.290430  -6.001538   0.172499  -0.000365   0.116654  -0.003128
 536  15   0.948169  -5.024943   0.989150  -0.000488   0.070144  -0.006963
 537  15  -0.051453  -5.584510   0.964247  -0.001013   0.157319  -0.006441
 538  15  -1.117732  -6.044800   0.213660  -0.001311   0.157319  -0.008331
 539   7   0.445009  -4.989790   1.317518  -0.000773   0.152185  -0.005082
 540   7  -0.897598  -5.678330   0.950006  -0.001040   0.152185  -0.006837
 541   7  -1.744505  -5.989221   0.063891  -0.000610   0.085697  -0.007118
 542  15  -1.604548  -6.139282  -0.742134  -0.000552   0.066055  -0.008359
 543  15  -1.521659  -5.894051  -1.794009  -0.001110   0.146231  -0.007588
 544  15  -0.860275  -5.335022  -2.778301  -0.000923   0.146231  -0.006311
 545  15   0.001339  -4.781920  -3.132064  -0.000553   0.066055  -0.008372
 546   7  -1.983388  -5.900904  -1.119021  -0.001172   0.145124  -0.008077
 547   7  -1.609242  -5.435663  -2.465618  -0.000787   0.145124  -0.005426
 548   7  -0.572725  -4.708552  -3.218414  -0.000735   0.145124  -0.005067
 549   8   3.631921  -3.676113  -0.649232  -0.001017   0.259027  -0.003926
 550   9   3.288724  -3.812816  -1.395702  -0.002857   0.259027  -0.011031
 551  15   2.484585  -4.250646  -0.950229  -0.002327   0.259027  -0.008983
 552   9   5.335758  -2.537719  -2.941207  -0.001922   0.224141  -0.008574
 553   9   4.456776  -3.438612  -2.131097  -0.004906   0.458153  -0.010708
 554   8   5.776021  -2.715931  -1.688936   0.000226   0.629436   0.000359
 555   8   4.654435  -3.628265  -0.761770   0.000543   0.323402   0.001679
 556   8   3.635451   3.672700  -0.666151  -0.000988   0.259269  -0.003809
 557  10   3.292046   3.805301  -1.413294  -0.002742   0.259269  -0.010575
 558  11   2.489024   4.245877  -0.966288  -0.002326   0.259269  -0.008971
 559  10   4.044720   3.694500  -1.839263  -0.002010   0.224037  -0.008973
 560  10   5.031639   2.907304  -2.642378  -0.004847   0.457928  -0.010585
 561   8   5.112874   3.309119  -1.129315   0.000266   0.629155   0.000423
 562   8   6.133460   2.283605  -2.053591   0.000330   0.323252   0.001020
 563  11   1.729193   4.777826   0.615600  -0.001131   0.315140  -0.003588
 564  11   2.125128   4.838718  -0.403987  -0.001782   0.315140  -0.005655
 565   8   3.548202   3.937286   0.683286   0.002530   0.948493   0.002667
 566  15   2.119778  -4.840737  -0.389521  -0.001782   0.312715  -0.005697
 567  15   1.725921  -4.777178   0.621254  -0.001094   0.312715  -0.003499
 568   8   3.546185  -3.936367   0.693543   0.002662   0.941632   0.002827
 569  15   0.819322  -4.668534  -3.117337  -0.000976   0.236591  -0.004127
 570  15   1.534245  -4.998442  -2.317041  -0.003334   0.473199  -0.007046
 571  15   2.081137  -4.932747  -1.338766  -0.001530   0.236591  -0.006465
 572   9   2.159476  -4.078203  -3.470137  -0.003656   0.473199  -0.007727
 573   9   2.946631  -4.243026  -2.360615  -0.003512   0.473199  -0.007423
 574  11   2.085513   4.925783  -1.355831  -0.001548   0.235821  -0.006563
 575  11   1.537981   4.988594  -2.329088  -0.003375   0.471652  -0.007156
 576  11   0.823689   4.659412  -3.124319  -0.000949   0.235821  -0.004023
 577  10   2.949356   4.231269  -2.377065  -0.003621   0.471652  -0.007676
 578  10   2.162172   4.065094  -3.480329  -0.003711   0.471652  -0.007868
 579  12  -3.248276   6.208492   0.149193   0.000023   0.034867   0.000661
 580  11  -1.855431   6.199194  -0.339524  -0.000086   0.034867  -0.002474
 581  15  -1.856109  -6.200243  -0.311078  -0.000060   0.036302  -0.001664
 582  14  -3.262188  -6.207263   0.138170   0.000021   0.036302   0.000585
 =====================================================


   1 warning(s) detected.
     A line exceeding 80 characters begins with "http://cactus.nci.ni".
 There may be a problem in your input file.

              3253819  WORDS OF DYNAMIC MEMORY USED
 EXECUTION OF GAMESS TERMINATED NORMALLY Wed Nov 23 18:55:02 2016
 DDI: 263640 bytes (0.3 MB / 0 MWords) used by master data server.

 ----------------------------------------
 CPU timing information for all processes
 ========================================
 0: 679.788 + 0.252 = 680.40
 ----------------------------------------
 ddikick.x: exited gracefully.
