----- GAMESS execution script -----

          ******************************************************
          *         GAMESS VERSION =  5 DEC 2014 (R1)          *
          *             FROM IOWA STATE UNIVERSITY             *
          * M.W.SCHMIDT, K.K.BALDRIDGE, J.A.BOATZ, S.T.ELBERT, *
          *   M.S.GORDON, J.H.JENSEN, S.KOSEKI, N.MATSUNAGA,   *
          *          K.A.NGUYEN, S.J.SU, T.L.WINDUS,           *
          *       TOGETHER WITH M.DUPUIS, J.A.MONTGOMERY       *
          *         J.COMPUT.CHEM.  14, 1347-1363(1993)        *
          **************** 64 BIT LINUX VERSION ****************

 EXECUTION OF GAMESS BEGUN Wed Nov 23 18:31:03 2016

            ECHO OF THE FIRST FEW INPUT CARDS -
 INPUT CARD>! SELECT RESTRICTED HARTREE-FOCK AS DEFAULT                                     
 INPUT CARD>$contrl scftyp=rhf $end                                                         
 INPUT CARD>                                                                                
 INPUT CARD>! THEORY: HF OR DFT                                                             
 INPUT CARD> $contrl mplevl=0 $end                                                          
 INPUT CARD>                                                                                
 INPUT CARD> $system timlim=10000 mwords=20 $end                                            
 INPUT CARD> $SCF DIRSCF=.TRUE. $end                                                        
 INPUT CARD>                                                                                
 INPUT CARD>                                                                                
 INPUT CARD>! BASIS SETS                                                                    
 INPUT CARD>! 6-311G(d,p)                                                                   
 INPUT CARD> $BASIS GBASIS=N311 NGAUSS=6 NDFUNC=1 NPFUNC=1 $END                             
 INPUT CARD>                                                                                
 INPUT CARD>! One of the following                                                          
 INPUT CARD> $guess guess=HUCKEL $end                                                       
 INPUT CARD>                                                                                
 INPUT CARD> $statpt projct=.FALSE. $end                                                    
 INPUT CARD> $STATPT IFREEZ(1)=1,2,3 $END                                                   
 INPUT CARD>                                                                                
 INPUT CARD>! Optimize the geometry with COSMO effects                                      
 INPUT CARD> $statpt opttol=0.0005 nstep=50 $end                                            
 INPUT CARD> $contrl nzvar=1 $end                                                           
 INPUT CARD> $zmat dlc=.t. auto=.t. $end                                                    
 INPUT CARD> $contrl runtyp=OPTIMIZE maxit=200 $end                                         
 INPUT CARD>                                                                                
 INPUT CARD>! Run COSMO on perfect conductor                                                
 INPUT CARD> $COSGMS PRFCND=.TRUE. $end                                                     
 INPUT CARD>                                                                                
 INPUT CARD>! Specifying RSOLV                                                              
 INPUT CARD> $COSGMS COSRAD = 1.4 $end                                                      
 INPUT CARD>                                                                                
 INPUT CARD>! available memory                                                              
 INPUT CARD> $SYSTEM MWORDS=40 $END                                                         
 INPUT CARD>                                                                                
 INPUT CARD> $DATA                                                                          
 INPUT CARD>Benzyl ethanoate, ID: C140114                                                   
 INPUT CARD>C1                                                                              
 INPUT CARD>O      8.0      0.8872000000    1.6672000000    1.6876000000                    
 INPUT CARD>C      6.0      1.3811000000    2.9837000000    1.4951000000                    
 INPUT CARD>C      6.0      2.8819000000    3.0450000000    1.4681000000                    
 INPUT CARD>C      6.0      0.7784000000    1.1685000000    2.9574000000                    
 INPUT CARD>C      6.0      3.5115000000    4.0008000000    2.2731000000                    
 INPUT CARD>C      6.0      3.6512000000    2.2199000000    0.6510000000                    
 INPUT CARD>C      6.0      0.9735000000    1.9769000000    4.2063000000                    
 INPUT CARD>O      8.0      0.4593000000    0.0000000000    2.8838000000                    
 INPUT CARD>C      6.0      4.8941000000    4.1275000000    2.2526000000                    
 INPUT CARD>C      6.0      5.0369000000    2.3470000000    0.6408000000                    
 INPUT CARD>C      6.0      5.6601000000    3.3004000000    1.4361000000                    
 INPUT CARD>H      1.0      0.9601000000    3.2417000000    0.5073000000                    
   40000000 WORDS OF MEMORY AVAILABLE

     BASIS OPTIONS
     -------------
     GBASIS=N311         IGAUSS=       6      POLAR=POPN311 
     NDFUNC=       1     NFFUNC=       0     DIFFSP=       F
     NPFUNC=       1      DIFFS=       F     BASNAM=        


     RUN TITLE
     ---------
 Benzyl ethanoate, ID: C140114                                                   

 THE POINT GROUP OF THE MOLECULE IS C1      
 THE ORDER OF THE PRINCIPAL AXIS IS     0

 ATOM      ATOMIC                      COORDINATES (BOHR)
           CHARGE         X                   Y                   Z
 O           8.0     1.6765648963        3.1505511667        3.1891015769
 C           6.0     2.6099005616        5.6383754296        2.8253293242
 C           6.0     5.4460013240        5.7542156326        2.7743067226
 C           6.0     1.4709627088        2.2081448167        5.5886756361
 C           6.0     6.6357728059        7.5604157317        4.2955361427
 C           6.0     6.8997675264        4.1950027201        1.2302116180
 C           6.0     1.8396482490        3.7357993051        7.9487544222
 O           8.0     0.8679511462        0.0000000000        5.4495918034
 C           6.0     9.2485079565        7.7998440143        4.2567967599
 C           6.0     9.5183608276        4.4351868932        1.2109364129
 C           6.0    10.6960380631        6.2368516499        2.7138354910
 H           1.0     1.8143259208        6.1259247344        0.9586579936
 H           1.0     1.8224517426        6.9545695800        4.2545290888
 H           1.0     5.5042048844        8.7947847469        5.5166770760
 H           1.0     5.9734238472        2.7724169966        0.0427078073
 H           1.0     0.0000000000        4.1951916927        8.7910052949
 H           1.0     2.9277524728        2.6620569989        9.3503641872
 H           1.0     2.8400691869        5.5248028977        7.5942418269
 H           1.0    10.1701273207        9.2167605599        5.4501587212
 H           1.0    10.6520074476        3.1976053438        0.0000000000
 H           1.0    12.7562173349        6.4277139746        2.6879462449

          INTERNUCLEAR DISTANCES (ANGS.)




     $CONTRL OPTIONS
     ---------------
 SCFTYP=RHF          RUNTYP=OPTIMIZE     EXETYP=RUN     
 MPLEVL=       0     CITYP =NONE         CCTYP =NONE         VBTYP =NONE    
 DFTTYP=NONE         TDDFT =NONE    
 MULT  =       1     ICHARG=       0     NZVAR =       1     COORD =UNIQUE  
 PP    =NONE         RELWFN=NONE         LOCAL =NONE         NUMGRD=       F
 ISPHER=      -1     NOSYM =       0     MAXIT =     200     UNITS =ANGS    
 PLTORB=       F     MOLPLT=       F     AIMPAC=       F     FRIEND=        
 NPRINT=       7     IREST =       0     GEOM  =INPUT   
 NORMF =       0     NORMP =       0     ITOL  =      20     ICUT  =       9
 INTTYP=BEST         GRDTYP=BEST         QMTTOL= 1.0E-06

     $SYSTEM OPTIONS
     ---------------
  REPLICATED MEMORY=    40000000 WORDS (ON EVERY NODE).
 DISTRIBUTED MEMDDI=           0 MILLION WORDS IN AGGREGATE,
 MEMDDI DISTRIBUTED OVER   1 PROCESSORS IS           0 WORDS/PROCESSOR.
 TOTAL MEMORY REQUESTED ON EACH PROCESSOR=    40000000 WORDS.
 TIMLIM=       10000.00 MINUTES, OR       6.9 DAYS.
 PARALL= F  BALTYP=  DLB     KDIAG=    0  COREFL= F
 MXSEQ2=     300 MXSEQ3=     150  mem10=         0

     $COSGMS OPTIONS
     ---------------
     EPSI  =   INFTY     NSPA  =      92     COSRAD=    1.40
     DISEX =   10.00     OUTCHG=DBLCAV       COSBUG=       F
     COSWRT=       F     DCOSMO=       F

     SYMMETRY COORDINATES WILL NOT BE USED FOR 
     THE COSMO CALCULATION, EVEN IF SPECIFIED:
         -- SWITCHING TO C1 POINT GROUP --


     DEFINITION OF CAVITY
     ---------------------------
     ATOM         COORDINATES           RADIUS 
     1    1.6766    3.1506    3.1891    1.7200
     2    2.6099    5.6384    2.8253    2.0000
     3    5.4460    5.7542    2.7743    2.0000
     4    1.4710    2.2081    5.5887    2.0000
     5    6.6358    7.5604    4.2955    2.0000
     6    6.8998    4.1950    1.2302    2.0000
     7    1.8396    3.7358    7.9488    2.0000
     8    0.8680    0.0000    5.4496    1.7200
     9    9.2485    7.7998    4.2568    2.0000
    10    9.5184    4.4352    1.2109    2.0000
    11   10.6960    6.2369    2.7138    2.0000
    12    1.8143    6.1259    0.9587    1.3000
    13    1.8225    6.9546    4.2545    1.3000
    14    5.5042    8.7948    5.5167    1.3000
    15    5.9734    2.7724    0.0427    1.3000
    16    0.0000    4.1952    8.7910    1.3000
    17    2.9278    2.6621    9.3504    1.3000
    18    2.8401    5.5248    7.5942    1.3000
    19   10.1701    9.2168    5.4502    1.3000
    20   10.6520    3.1976    0.0000    1.3000
    21   12.7562    6.4277    2.6879    1.3000

          ----------------
          PROPERTIES INPUT
          ----------------

     MOMENTS            FIELD           POTENTIAL          DENSITY
 IEMOM =       1   IEFLD =       0   IEPOT =       0   IEDEN =       0
 WHERE =COMASS     WHERE =NUCLEI     WHERE =NUCLEI     WHERE =NUCLEI  
 OUTPUT=BOTH       OUTPUT=BOTH       OUTPUT=BOTH       OUTPUT=BOTH    
 IEMINT=       0   IEFINT=       0                     IEDINT=       0
                                                       MORB  =       0
          EXTRAPOLATION IN EFFECT
          SOSCF IN EFFECT
 ORBITAL PRINTING OPTION: NPREO=     1   269     2     1

     -------------------------------
     INTEGRAL TRANSFORMATION OPTIONS
     -------------------------------
     NWORD  =            0
     CUTOFF = 1.0E-09     MPTRAN =       0
     DIRTRF =       T     AOINTS =DUP     

          ----------------------
          INTEGRAL INPUT OPTIONS
          ----------------------
 NOPK  =       1 NORDER=       0 SCHWRZ=       T


 -----------------------------------------------
  STATISTICS ON AUTOMATIC COORDINATE GENERATION 
 -----------------------------------------------
  NUMBER OF USER SPECIFIED BONDS                             0
  NUMBER OF BONDS                                           21
  NUMBER OF ANGLES                                          34
  NUMBER OF TORSIONS                                        41
  NUMBER OF EXTRA COORD.                                     0
  NUMBER OF EXTRA COORD. FOR CONSTRAINTS                     0
  NUMBER OF CONSTRAINED COORD.                               0

  TOTAL NUMBER OF PRIMITIVES                                96
 -----------------------------------------------

   --- ENCODED Z MATRIX ---
 COORD  TYPE   I   J   K   L   M   N
    1      1    1   4
    2      1    1   2
    3      1    2   3
    4      1    2  12
    5      1    2  13
    6      1    3   6
    7      1    3   5
    8      1    4   7
    9      1    4   8
   10      1    5  14
   11      1    5   9
   12      1    6  15
   13      1    6  10
   14      1    7  18
   15      1    7  17
   16      1    7  16
   17      1    9  11
   18      1    9  19
   19      1   10  11
   20      1   10  20
   21      1   11  21
   22      2    1   2   3
   23      2    1   4   8
   24      2    1   2  12
   25      2    1   4   7
   26      2    1   2  13
   27      2    2   3   5
   28      2    2   3   6
   29      2    2   1   4
   30      2    3   6  10
   31      2    3   6  15
   32      2    3   5  14
   33      2    3   2  13
   34      2    3   2  12
   35      2    3   5   9
   36      2    4   7  16
   37      2    4   7  17
   38      2    4   7  18
   39      2    5   3   6
   40      2    5   9  19
   41      2    5   9  11
   42      2    6  10  20
   43      2    6  10  11
   44      2    7   4   8
   45      2    9  11  10
   46      2    9   5  14
   47      2    9  11  21
   48      2   10   6  15
   49      2   10  11  21
   50      2   11   9  19
   51      2   11  10  20
   52      2   12   2  13
   53      2   16   7  17
   54      2   16   7  18
   55      2   17   7  18
   56      3    1   4   7  16
   57      3    1   2   3   5
   58      3    1   4   7  18
   59      3    1   2   3   6
   60      3    1   4   7  17
   61      3    2   3   5   9
   62      3    2   3   5  14
   63      3    2   1   4   7
   64      3    2   3   6  10
   65      3    2   3   6  15
   66      3    2   1   4   8
   67      3    3   6  10  20
   68      3    3   6  10  11
   69      3    3   5   9  19
   70      3    3   5   9  11
   71      3    3   2   1   4
   72      3    4   1   2  13
   73      3    4   1   2  12
   74      3    5   3   6  15
   75      3    5   9  11  21
   76      3    5   9  11  10
   77      3    5   3   6  10
   78      3    5   3   2  13
   79      3    5   3   2  12
   80      3    6  10  11  21
   81      3    6  10  11   9
   82      3    6   3   5   9
   83      3    6   3   2  13
   84      3    6   3   2  12
   85      3    6   3   5  14
   86      3    8   4   7  18
   87      3    8   4   7  17
   88      3    8   4   7  16
   89      3    9  11  10  20
   90      3   10  11   9  19
   91      3   11  10   6  15
   92      3   11   9   5  14
   93      3   14   5   9  19
   94      3   15   6  10  20
   95      3   19   9  11  21
   96      3   20  10  11  21

          INDEP./SYM. INTERNAL COORDINATES
          --------------------------------
 CRD  1=   0.1179 (  2)  0.2157 ( 22) -0.1635 ( 23) -0.1296 ( 24)  0.3081 ( 25)
           0.1360 ( 27)  0.7165 ( 29) -0.1524 ( 34) -0.1464 ( 44) -0.1913 ( 57)
          -0.1327 ( 59)  0.1167 ( 63)  0.2464 ( 71)
 CRD  2=   0.1077 ( 23) -0.1742 ( 25)  0.3256 ( 27) -0.2971 ( 28) -0.2600 ( 29)
           0.1946 ( 33) -0.1481 ( 34)  0.3814 ( 63)  0.3071 ( 66)  0.3768 ( 71)
           0.2390 ( 72)  0.2151 ( 73)  0.1125 ( 84)  0.1015 ( 86)
 CRD  3=  -0.1241 (  3) -0.6270 ( 22)  0.1046 ( 24)  0.1122 ( 25)  0.2930 ( 26)
           0.2224 ( 27) -0.2747 ( 28)  0.1906 ( 29)  0.1129 ( 33)  0.1880 ( 34)
          -0.1569 ( 59)  0.1346 ( 64)  0.1204 ( 66) -0.1754 ( 71) -0.1860 ( 73)
          -0.1638 ( 83)
 CRD  4=  -0.2117 (  1) -0.1562 (  6)  0.1878 (  7) -0.2059 (  8)  0.1012 ( 11)
           0.2166 ( 22)  0.1529 ( 23) -0.2020 ( 24) -0.3328 ( 25)  0.3211 ( 27)
          -0.3018 ( 28) -0.1588 ( 38)  0.1803 ( 44) -0.2357 ( 57) -0.1950 ( 59)
          -0.2363 ( 63) -0.2206 ( 66) -0.1497 ( 72) -0.1065 ( 79)
 CRD  5=   0.1555 (  2)  0.5391 (  3)  0.2601 (  6)  0.1943 (  7)  0.1671 ( 11)
           0.2114 ( 13)  0.1062 ( 23) -0.1058 ( 25)  0.2199 ( 28)  0.2065 ( 34)
           0.1217 ( 35) -0.2926 ( 39) -0.1222 ( 46) -0.1294 ( 48) -0.1062 ( 50)
          -0.1213 ( 51)  0.1121 ( 60) -0.1002 ( 61)  0.1098 ( 64)  0.1323 ( 66)
 CRD  6=  -0.2770 (  1)  0.1090 (  6) -0.1973 (  7) -0.2006 (  8) -0.1223 ( 11)
          -0.2281 ( 25)  0.2311 ( 26) -0.3055 ( 27)  0.2467 ( 28) -0.1009 ( 36)
           0.1869 ( 44) -0.2660 ( 57) -0.2282 ( 59)  0.1172 ( 61)  0.2465 ( 63)
           0.2386 ( 66)  0.1060 ( 71)  0.1177 ( 72) -0.1022 ( 78) -0.1435 ( 79)
          -0.1058 ( 84)
 CRD  7=   0.3206 (  1)  0.4409 (  2) -0.1491 (  3) -0.1435 (  8)  0.1274 (  9)
           0.3359 ( 23)  0.1209 ( 24) -0.2576 ( 25)  0.2166 ( 29) -0.1297 ( 33)
           0.1900 ( 37) -0.2812 ( 38)  0.1087 ( 54) -0.1511 ( 61)  0.1350 ( 64)
           0.1087 ( 65)  0.1129 ( 72)  0.1023 ( 77)  0.1070 ( 78) -0.1186 ( 82)
 CRD  8=   0.4556 (  8)  0.1174 (  9) -0.3298 ( 23) -0.1193 ( 25)  0.1179 ( 29)
           0.1883 ( 36)  0.4583 ( 37) -0.2570 ( 38)  0.4483 ( 44) -0.2417 ( 53)
          -0.1267 ( 55) -0.1137 ( 56)
 CRD  9=   0.2631 (  6)  0.2501 (  7) -0.2099 ( 11) -0.1775 ( 13) -0.3149 ( 17)
          -0.2965 ( 19) -0.2666 ( 21) -0.1526 ( 30)  0.3007 ( 31)  0.3119 ( 32)
          -0.1450 ( 35) -0.1010 ( 36)  0.1360 ( 40)  0.1518 ( 42)  0.2510 ( 45)
          -0.1670 ( 46) -0.1386 ( 47) -0.1481 ( 48) -0.1124 ( 49) -0.1484 ( 50)
          -0.1507 ( 51)
 CRD 10=  -0.1375 ( 10) -0.3162 ( 11)  0.1308 ( 12)  0.3350 ( 13) -0.2775 ( 17)
           0.2935 ( 19) -0.1079 ( 30) -0.1998 ( 31)  0.1785 ( 32)  0.1208 ( 35)
          -0.2993 ( 46) -0.3392 ( 47)  0.3078 ( 48)  0.3493 ( 49)
 CRD 11=  -0.1135 (  1) -0.1118 (  2) -0.1022 (  8) -0.1189 ( 16) -0.1008 ( 24)
           0.1427 ( 34) -0.5049 ( 36)  0.2272 ( 37)  0.1831 ( 38)  0.1077 ( 53)
           0.1200 ( 54) -0.1302 ( 55) -0.2660 ( 56) -0.1898 ( 58) -0.3096 ( 60)
          -0.1296 ( 61)  0.1401 ( 64) -0.2768 ( 66)  0.1752 ( 73)
 CRD 12=   0.1634 (  6)  0.2551 (  7) -0.1502 ( 11) -0.2089 ( 13)  0.2676 ( 17)
           0.1544 ( 18)  0.3420 ( 19)  0.2519 ( 31)  0.1894 ( 32) -0.2195 ( 40)
          -0.3357 ( 42) -0.2400 ( 46) -0.2190 ( 48)  0.3088 ( 50)  0.3117 ( 51)
 CRD 13=   0.2577 (  6) -0.1371 (  7)  0.1394 ( 10) -0.1706 ( 11) -0.1015 ( 12)
           0.1112 ( 13)  0.2572 ( 17) -0.1781 ( 18)  0.2424 ( 20)  0.1291 ( 24)
           0.2009 ( 30) -0.1075 ( 31)  0.2115 ( 32)  0.1948 ( 33) -0.1360 ( 34)
          -0.1892 ( 35) -0.3424 ( 40)  0.2581 ( 41)  0.2021 ( 42) -0.2690 ( 43)
          -0.1102 ( 63) -0.1170 ( 72)
 CRD 14=   0.2595 (  6)  0.2431 (  7)  0.2249 ( 10)  0.3082 ( 11)  0.2406 ( 12)
           0.2357 ( 13)  0.1911 ( 17)  0.2337 ( 18)  0.2906 ( 19)  0.2153 ( 20)
          -0.1132 ( 27) -0.1098 ( 30)  0.2002 ( 39)  0.2284 ( 40) -0.1050 ( 41)
           0.1996 ( 45)  0.1937 ( 46) -0.1665 ( 47)  0.1233 ( 48) -0.1234 ( 50)
 CRD 15=  -0.1086 (  1)  0.1125 (  7)  0.1873 ( 13)  0.2081 ( 17) -0.1045 ( 19)
           0.1393 ( 22) -0.1475 ( 24) -0.1363 ( 31) -0.1246 ( 33)  0.1489 ( 36)
          -0.1671 ( 37)  0.1089 ( 39) -0.1134 ( 40)  0.2898 ( 42)  0.1108 ( 45)
           0.1969 ( 47)  0.2328 ( 48) -0.3077 ( 49)  0.2014 ( 50) -0.2697 ( 51)
          -0.1514 ( 61) -0.1108 ( 62)  0.1628 ( 64)  0.1094 ( 65)  0.1109 ( 72)
           0.1297 ( 77) -0.1216 ( 82)
 CRD 16=   0.1036 (  1)  0.1240 (  4) -0.1418 ( 10)  0.1052 ( 12) -0.1382 ( 20)
          -0.1138 ( 22)  0.1007 ( 24) -0.1389 ( 30)  0.1946 ( 35) -0.2228 ( 36)
           0.2211 ( 37) -0.1502 ( 40) -0.1342 ( 41)  0.1936 ( 43) -0.1995 ( 46)
           0.2723 ( 47)  0.1139 ( 48) -0.2135 ( 49)  0.2846 ( 50) -0.2590 ( 51)
           0.1590 ( 61)  0.1221 ( 62) -0.1759 ( 64) -0.1138 ( 65) -0.1040 ( 76)
          -0.1467 ( 77)  0.1306 ( 82)
 CRD 17=   0.1228 (  2) -0.1509 (  5)  0.1749 (  8)  0.1200 (  9)  0.1688 ( 10)
          -0.1709 ( 12)  0.1625 ( 22) -0.1176 ( 24)  0.1573 ( 26)  0.1605 ( 30)
          -0.1549 ( 31)  0.1553 ( 32) -0.3905 ( 33)  0.1460 ( 34) -0.1605 ( 35)
          -0.2760 ( 36)  0.1833 ( 37)  0.2617 ( 38)  0.1244 ( 41) -0.1246 ( 43)
          -0.1957 ( 55)  0.1331 ( 56)  0.1606 ( 58)  0.1021 ( 60)  0.1070 ( 63)
           0.1313 ( 66) -0.2088 ( 71)  0.1315 ( 86)  0.1040 ( 88)
 CRD 18=   0.1000 (  1)  0.2089 (  2)  0.3001 (  8)  0.3326 (  9)  0.1215 ( 14)
           0.1252 ( 23)  0.1791 ( 24) -0.1608 ( 25)  0.1540 ( 33) -0.2425 ( 34)
          -0.1163 ( 37)  0.4432 ( 38) -0.2063 ( 54) -0.1666 ( 55) -0.1344 ( 57)
          -0.1083 ( 59) -0.1048 ( 68) -0.1129 ( 73) -0.1351 ( 78) -0.1952 ( 79)
          -0.1091 ( 83) -0.1692 ( 84)
 CRD 19=   0.1018 (  4)  0.2403 (  9) -0.1203 ( 15) -0.1602 ( 22) -0.1033 ( 24)
          -0.1827 ( 25)  0.2563 ( 26)  0.1511 ( 29) -0.1255 ( 33)  0.2538 ( 34)
           0.2021 ( 36) -0.2840 ( 37)  0.1932 ( 38)  0.1044 ( 44) -0.1107 ( 52)
          -0.1996 ( 54) -0.1939 ( 56) -0.2087 ( 58) -0.1908 ( 60) -0.1029 ( 64)
           0.1227 ( 72)  0.1976 ( 73) -0.1064 ( 76) -0.1216 ( 77)  0.1697 ( 78)
           0.1173 ( 79)  0.1512 ( 83) -0.1278 ( 86) -0.1099 ( 87) -0.1130 ( 88)
 CRD 20=   0.2273 (  3) -0.1089 (  7) -0.2803 ( 10) -0.1470 ( 11) -0.2604 ( 12)
          -0.1450 ( 13)  0.2530 ( 18)  0.2486 ( 20) -0.4115 ( 21)  0.1175 ( 30)
          -0.1203 ( 31) -0.1395 ( 32)  0.1307 ( 35)  0.1144 ( 40) -0.2598 ( 41)
           0.1134 ( 42) -0.2533 ( 43)  0.2986 ( 45) -0.1502 ( 47) -0.1483 ( 49)
           0.1454 ( 50)  0.1399 ( 51)
 CRD 21=  -0.1660 (  1) -0.2207 (  4)  0.1788 (  5) -0.1061 ( 25)  0.1318 ( 29)
           0.1038 ( 33) -0.1911 ( 34) -0.1615 ( 36)  0.1047 ( 38)  0.1963 ( 44)
           0.1194 ( 53)  0.1400 ( 56)  0.1443 ( 58)  0.1611 ( 60) -0.1464 ( 61)
           0.1868 ( 67)  0.2256 ( 68)  0.1959 ( 69)  0.2274 ( 70) -0.1870 ( 72)
          -0.2353 ( 73)  0.1434 ( 78)  0.1436 ( 79) -0.1453 ( 80) -0.1598 ( 81)
          -0.1612 ( 82)  0.1585 ( 83)  0.1587 ( 84) -0.1209 ( 89)  0.1458 ( 91)
           0.1492 ( 92)  0.1177 ( 93)  0.1070 ( 94) -0.1063 ( 96)
 CRD 22=  -0.2387 ( 14) -0.1725 ( 15) -0.1675 ( 16)  0.1102 ( 23) -0.1150 ( 29)
           0.1487 ( 36)  0.1457 ( 37) -0.1787 ( 44) -0.1730 ( 53) -0.1461 ( 57)
          -0.1433 ( 59) -0.1302 ( 62) -0.1034 ( 64) -0.1309 ( 65)  0.1535 ( 67)
           0.2022 ( 68)  0.1509 ( 69)  0.2026 ( 70) -0.1279 ( 74) -0.1024 ( 75)
          -0.1012 ( 76) -0.1003 ( 77) -0.2164 ( 78) -0.2036 ( 79) -0.1002 ( 80)
          -0.1014 ( 81) -0.1013 ( 82) -0.2136 ( 83) -0.2008 ( 84) -0.1328 ( 85)
           0.2300 ( 91)  0.2339 ( 92)  0.1823 ( 93)  0.1813 ( 94)
 CRD 23=   0.1688 (  4) -0.1543 (  5)  0.1247 (  8)  0.4329 ( 14)  0.4048 ( 15)
           0.4182 ( 16)  0.1107 ( 24) -0.1549 ( 36) -0.1908 ( 37) -0.1465 ( 38)
           0.1810 ( 53)  0.1511 ( 54)  0.1881 ( 55) -0.1431 ( 78) -0.1520 ( 79)
          -0.1476 ( 83) -0.1565 ( 84)  0.1055 ( 91)  0.1028 ( 92)
 CRD 24=   0.5213 (  4)  0.5211 (  5) -0.1413 (  9) -0.1128 ( 23) -0.1891 ( 33)
          -0.1799 ( 34)  0.3022 ( 52)  0.2086 ( 72) -0.1933 ( 73)
 CRD 25=  -0.1445 (  5) -0.5888 ( 14)  0.3166 ( 15)  0.1271 ( 16)  0.4075 ( 53)
          -0.2676 ( 54) -0.1224 ( 55) -0.2404 ( 56)  0.2004 ( 60)  0.1980 ( 87)
          -0.2428 ( 88)
 CRD 26=  -0.1221 ( 14) -0.4363 ( 15)  0.5773 ( 16)  0.2926 ( 54) -0.3753 ( 55)
          -0.2628 ( 58)  0.1695 ( 60) -0.2774 ( 86)  0.1549 ( 87)
 CRD 27=  -0.1294 (  1)  0.3872 (  4) -0.3288 (  5) -0.2390 (  8) -0.3510 ( 15)
          -0.2498 ( 16) -0.1605 ( 23)  0.2386 ( 24) -0.1324 ( 25) -0.2446 ( 26)
           0.2555 ( 29)  0.2931 ( 44)  0.2114 ( 57)  0.1711 ( 59)
 CRD 28=   0.1109 (  2) -0.1325 (  3) -0.1900 (  4) -0.3133 (  5) -0.1302 (  9)
           0.1130 ( 11) -0.1700 ( 12)  0.1636 ( 18)  0.1347 ( 20) -0.1283 ( 23)
           0.2021 ( 24)  0.1744 ( 26) -0.1253 ( 39) -0.1513 ( 46) -0.1042 ( 48)
          -0.1574 ( 52)  0.1656 ( 67) -0.1649 ( 69)  0.1386 ( 74)  0.1466 ( 76)
          -0.2002 ( 79) -0.1453 ( 81)  0.2022 ( 83) -0.1259 ( 85) -0.2529 ( 89)
           0.2497 ( 90)  0.1320 ( 95) -0.1350 ( 96)
 CRD 29=  -0.1087 (  2)  0.2276 (  3)  0.2709 (  4)  0.1053 (  9)  0.1094 ( 10)
          -0.1208 ( 11)  0.1566 ( 12) -0.1097 ( 13) -0.1873 ( 18) -0.1685 ( 20)
           0.1679 ( 34)  0.1285 ( 39)  0.1642 ( 46)  0.1389 ( 48)  0.1163 ( 61)
          -0.1198 ( 64)  0.2190 ( 67) -0.2169 ( 69)  0.1203 ( 74)  0.1702 ( 76)
          -0.1687 ( 81) -0.1057 ( 85) -0.3020 ( 89)  0.2985 ( 90) -0.1054 ( 93)
           0.1645 ( 95) -0.1677 ( 96)
 CRD 30=   0.1458 (  1) -0.4700 (  2) -0.2888 (  3) -0.1537 (  5)  0.3440 (  9)
          -0.2181 ( 10)  0.1077 ( 13)  0.1133 ( 18)  0.2241 ( 20)  0.1456 ( 21)
           0.2445 ( 23) -0.1178 ( 24) -0.1209 ( 25)  0.1545 ( 29)  0.1486 ( 31)
          -0.1233 ( 44) -0.1932 ( 48)  0.1634 ( 52) -0.1047 ( 78)  0.1208 ( 79)
           0.1352 ( 84)
 CRD 31=   0.2243 ( 62) -0.2225 ( 65)  0.1053 ( 68) -0.1051 ( 70) -0.2920 ( 74)
           0.3757 ( 75)  0.1452 ( 76) -0.3763 ( 80) -0.1454 ( 81)  0.2902 ( 85)
           0.3343 ( 91) -0.3307 ( 92) -0.1443 ( 93)  0.1466 ( 94)  0.1890 ( 95)
          -0.1879 ( 96)
 CRD 32=   0.2056 (  2)  0.1061 (  4) -0.1576 (  5)  0.1108 (  6) -0.1089 (  7)
          -0.1464 (  9) -0.3843 ( 10)  0.3962 ( 12) -0.3583 ( 18)  0.3469 ( 20)
           0.1749 ( 27) -0.1753 ( 28)  0.1963 ( 31) -0.2039 ( 32) -0.1412 ( 33)
           0.1664 ( 46)  0.1343 ( 47) -0.1572 ( 48) -0.1353 ( 49)
 CRD 33=   0.1475 (  2) -0.2466 ( 10) -0.2432 ( 11) -0.2479 ( 12) -0.2526 ( 13)
           0.1479 ( 17)  0.1051 ( 19)  0.6185 ( 21) -0.1065 ( 28)  0.1626 ( 39)
           0.1637 ( 40)  0.2478 ( 42) -0.1236 ( 50) -0.1933 ( 51)  0.1041 ( 73)
 CRD 34=  -0.1484 (  5)  0.1375 (  6) -0.1582 (  7)  0.2925 ( 18) -0.1211 ( 19)
          -0.2607 ( 20) -0.1226 ( 21)  0.1737 ( 27) -0.1393 ( 28)  0.1823 ( 31)
          -0.1922 ( 32) -0.2997 ( 40)  0.2201 ( 42)  0.2012 ( 46) -0.3276 ( 47)
          -0.2222 ( 48)  0.3462 ( 49)  0.2545 ( 50) -0.1970 ( 51)
 CRD 35=   0.2121 (  6) -0.2305 (  7) -0.3369 ( 10)  0.3628 ( 12)  0.2181 ( 17)
           0.3478 ( 18) -0.2345 ( 19) -0.3208 ( 20) -0.2188 ( 31)  0.2295 ( 32)
           0.1267 ( 40)  0.1019 ( 41) -0.1420 ( 42) -0.1359 ( 46)  0.1191 ( 48)
          -0.2286 ( 50)  0.2362 ( 51)
 CRD 36=   0.1242 (  2) -0.2357 (  3)  0.1314 (  4)  0.1433 (  5) -0.1496 (  6)
          -0.1120 (  7) -0.1801 (  9)  0.1740 ( 10)  0.1140 ( 16) -0.1123 ( 17)
           0.1450 ( 18)  0.2089 ( 20)  0.1312 ( 33)  0.1328 ( 34) -0.1164 ( 46)
          -0.1810 ( 52)  0.1216 ( 56)  0.1602 ( 58)  0.1162 ( 60) -0.1284 ( 63)
          -0.2795 ( 66)  0.1314 ( 71)  0.2550 ( 73)  0.3393 ( 86)  0.2954 ( 87)
           0.3008 ( 88)
 CRD 37=   0.3721 (  1) -0.1204 (  4)  0.1760 (  5)  0.3203 (  9)  0.1117 ( 12)
          -0.2311 ( 14) -0.2284 ( 15) -0.1966 ( 16) -0.3140 ( 23)  0.1639 ( 25)
          -0.2158 ( 29) -0.1970 ( 36) -0.2044 ( 37) -0.1992 ( 38)  0.1492 ( 44)
           0.2048 ( 53)  0.2038 ( 54)  0.2261 ( 55)
 CRD 38=  -0.1816 (  3)  0.2460 (  6)  0.2506 (  7) -0.3209 ( 10)  0.1460 ( 11)
          -0.3150 ( 12)  0.1429 ( 13)  0.1946 ( 17) -0.3591 ( 18)  0.1938 ( 19)
          -0.3553 ( 20) -0.2659 ( 21) -0.1756 ( 66)  0.1876 ( 86)  0.1355 ( 87)
           0.1582 ( 88)
 CRD 39=  -0.5493 (  1)  0.1247 (  4)  0.5429 (  9) -0.2507 ( 14)  0.1472 ( 15)
           0.1011 ( 24)  0.2124 ( 25) -0.2129 ( 44) -0.1524 ( 53)  0.1141 ( 54)
           0.1069 ( 83)  0.1192 ( 88)
 CRD 40=   0.1447 (  1) -0.2871 (  2)  0.1369 (  3)  0.2295 (  7) -0.1509 ( 11)
           0.1690 ( 12) -0.1093 ( 13) -0.1966 ( 15)  0.2070 ( 16) -0.2247 ( 19)
           0.2493 ( 21)  0.1257 ( 24)  0.1623 ( 26) -0.1537 ( 31) -0.1622 ( 32)
          -0.1247 ( 33) -0.1280 ( 34) -0.1532 ( 39)  0.1111 ( 45)  0.1334 ( 46)
          -0.1156 ( 47) -0.1413 ( 54)  0.1410 ( 55) -0.1176 ( 56) -0.1297 ( 60)
          -0.1864 ( 66) -0.1344 ( 73)  0.2902 ( 86)  0.1034 ( 88)
 CRD 41=  -0.1278 (  1) -0.2287 (  4)  0.1653 (  5) -0.2990 (  6)  0.2846 (  7)
          -0.1367 (  8) -0.1533 ( 10)  0.1449 ( 12)  0.1245 ( 16)  0.2477 ( 17)
          -0.2272 ( 19) -0.1596 ( 26) -0.1498 ( 47)  0.1552 ( 49)  0.1648 ( 57)
           0.1364 ( 67) -0.1490 ( 69) -0.1241 ( 74) -0.1767 ( 75)  0.1777 ( 80)
          -0.1575 ( 83)  0.1092 ( 85) -0.1021 ( 89)  0.1137 ( 90) -0.2037 ( 93)
           0.2070 ( 94)
 CRD 42=   0.1791 (  2) -0.1318 (  4) -0.1330 (  5)  0.3396 (  6) -0.2074 (  7)
           0.1546 ( 10) -0.1277 ( 13)  0.1423 ( 16) -0.2935 ( 17)  0.1683 ( 19)
           0.1118 ( 21)  0.1092 ( 27)  0.1108 ( 47)  0.1181 ( 48) -0.1674 ( 49)
           0.1876 ( 52) -0.1162 ( 60) -0.1021 ( 66)  0.1297 ( 67) -0.1388 ( 69)
          -0.1054 ( 73) -0.1177 ( 74) -0.1760 ( 75)  0.1393 ( 79)  0.1768 ( 80)
          -0.1517 ( 83)  0.1091 ( 85)  0.1449 ( 86)  0.1081 ( 90) -0.2024 ( 93)
           0.2040 ( 94)
 CRD 43=   0.2264 ( 10) -0.4944 ( 11) -0.2231 ( 12)  0.4874 ( 13)  0.1047 ( 17)
           0.1708 ( 18) -0.1196 ( 19) -0.1699 ( 20) -0.1060 ( 30)  0.1904 ( 31)
          -0.2077 ( 32)  0.1129 ( 35)  0.1421 ( 40) -0.1486 ( 42)  0.1018 ( 47)
          -0.1087 ( 49) -0.2061 ( 50)  0.2172 ( 51)
 CRD 44=   0.2316 (  3) -0.2211 (  6) -0.2607 (  7)  0.1186 ( 10)  0.1008 ( 12)
          -0.1737 ( 15)  0.2714 ( 16)  0.2175 ( 17)  0.2607 ( 19) -0.1229 ( 20)
          -0.2269 ( 21)  0.1432 ( 31)  0.1340 ( 32)  0.1080 ( 39)  0.1859 ( 40)
           0.1904 ( 42) -0.1072 ( 45) -0.1878 ( 46) -0.1889 ( 48) -0.1428 ( 50)
          -0.1331 ( 51) -0.1498 ( 54)  0.1624 ( 55) -0.1244 ( 56) -0.1976 ( 60)
          -0.1063 ( 71) -0.1495 ( 73)  0.2045 ( 86)
 CRD 45=   0.1023 (  3) -0.2112 (  8) -0.2580 ( 10) -0.2804 ( 12)  0.1962 ( 16)
          -0.1118 ( 17)  0.2687 ( 18)  0.2316 ( 20) -0.1396 ( 21) -0.1099 ( 28)
          -0.2429 ( 30) -0.2335 ( 35)  0.1884 ( 39) -0.1801 ( 40)  0.2398 ( 41)
          -0.1750 ( 42)  0.2187 ( 43) -0.1705 ( 45)  0.1701 ( 46)  0.1049 ( 47)
           0.1616 ( 48) -0.1316 ( 54) -0.1121 ( 60)
 CRD 46=   0.2317 (  1) -0.5958 (  8)  0.2338 (  9)  0.1136 ( 10)  0.1725 ( 14)
           0.2035 ( 15) -0.1323 ( 20) -0.2258 ( 23)  0.1077 ( 25) -0.1164 ( 29)
           0.1796 ( 36)  0.1399 ( 37)  0.1517 ( 38) -0.1067 ( 43)  0.1192 ( 44)
          -0.1486 ( 53) -0.1254 ( 54) -0.2229 ( 55)
 CRD 47=  -0.1001 (  8) -0.1040 ( 57)  0.2598 ( 62)  0.2442 ( 65)  0.2748 ( 67)
           0.2837 ( 69)  0.2556 ( 74) -0.1257 ( 78) -0.1141 ( 83)  0.2492 ( 85)
          -0.2869 ( 89) -0.2963 ( 90) -0.2688 ( 91) -0.2601 ( 92) -0.2873 ( 95)
          -0.2959 ( 96)
 CRD 48=   0.2416 (  2) -0.2046 (  3)  0.2356 ( 11)  0.1857 ( 13)  0.1716 ( 16)
          -0.2092 ( 18) -0.2988 ( 19)  0.2215 ( 21) -0.1830 ( 24) -0.1195 ( 26)
           0.1608 ( 33) -0.2038 ( 41) -0.1300 ( 42)  0.2120 ( 45) -0.1178 ( 46)
          -0.2010 ( 47)  0.1934 ( 50)  0.1556 ( 51)  0.1122 ( 55) -0.1221 ( 60)
           0.1139 ( 66) -0.2057 ( 72)  0.1056 ( 79)  0.1385 ( 84) -0.1569 ( 87)
 CRD 49=  -0.1622 (  5)  0.2170 (  6) -0.1411 (  7)  0.1694 ( 10) -0.1109 ( 11)
          -0.1015 ( 12) -0.1650 ( 13)  0.4048 ( 17) -0.1501 ( 18) -0.2353 ( 19)
           0.2649 ( 20) -0.1191 ( 21) -0.1301 ( 30)  0.1723 ( 35)  0.2034 ( 40)
          -0.1336 ( 41) -0.1264 ( 42)  0.2557 ( 43) -0.1177 ( 45) -0.1370 ( 46)
          -0.1307 ( 47)  0.1973 ( 48)  0.2484 ( 49) -0.1293 ( 51)
 CRD 50=   0.2097 (  2) -0.3423 (  3)  0.2268 (  7) -0.2469 ( 11)  0.1273 ( 12)
          -0.2570 ( 13) -0.1423 ( 14)  0.1013 ( 16)  0.1624 ( 19) -0.1331 ( 21)
          -0.1149 ( 24) -0.1490 ( 26)  0.1594 ( 28)  0.1477 ( 30) -0.1829 ( 31)
          -0.1678 ( 32)  0.1276 ( 33)  0.1171 ( 34) -0.2126 ( 39)  0.1042 ( 41)
          -0.1432 ( 45) -0.1299 ( 50) -0.1279 ( 51) -0.1021 ( 72) -0.1001 ( 78)
           0.1102 ( 84) -0.1480 ( 87)
 CRD 51=  -0.1690 (  1) -0.1394 (  3)  0.1580 (  9)  0.3821 ( 14) -0.3292 ( 15)
           0.2287 ( 25)  0.1981 ( 37) -0.2314 ( 38) -0.2296 ( 44)  0.2700 ( 53)
          -0.2278 ( 54) -0.3013 ( 56)  0.1145 ( 58)  0.1806 ( 60)  0.1476 ( 87)
          -0.3344 ( 88)
 CRD 52=   0.1125 (  1) -0.1806 (  2) -0.1815 (  3)  0.3362 (  4)  0.1109 ( 16)
           0.1640 ( 22)  0.1094 ( 26) -0.2523 ( 52) -0.1180 ( 57) -0.1431 ( 59)
          -0.1706 ( 61)  0.1735 ( 64)  0.1318 ( 66) -0.2727 ( 72) -0.1797 ( 75)
           0.1466 ( 77)  0.2277 ( 78)  0.1823 ( 80) -0.1444 ( 82)  0.2026 ( 83)
          -0.1072 ( 84) -0.1537 ( 87)  0.1390 ( 91) -0.1419 ( 92) -0.1472 ( 93)
           0.1549 ( 94) -0.1743 ( 95)  0.1663 ( 96)
 CRD 53=   0.1879 (  2)  0.1479 (  4) -0.3729 (  5) -0.2323 (  6)  0.1984 (  7)
          -0.1624 ( 22) -0.1855 ( 24)  0.1185 ( 26) -0.2306 ( 27)  0.2088 ( 28)
          -0.1687 ( 29)  0.1933 ( 33) -0.1471 ( 34) -0.1103 ( 35)  0.1597 ( 52)
          -0.1878 ( 57) -0.1855 ( 59) -0.1189 ( 66)  0.2455 ( 71) -0.1156 ( 73)
           0.2307 ( 79)  0.2330 ( 84)  0.1196 ( 87)
 CRD 54=  -0.1389 ( 61)  0.2248 ( 62) -0.1504 ( 64)  0.1870 ( 65)  0.2921 ( 68)
           0.2865 ( 70)  0.2100 ( 74) -0.1559 ( 75) -0.1226 ( 76) -0.1274 ( 77)
          -0.1338 ( 80) -0.1671 ( 81) -0.1609 ( 82)  0.2028 ( 85)  0.1790 ( 89)
           0.1879 ( 90) -0.3867 ( 93) -0.3921 ( 94)  0.1546 ( 95)  0.2124 ( 96)
 CRD 55=  -0.1088 ( 15)  0.1546 ( 16) -0.1563 ( 36)  0.1126 ( 37)  0.1047 ( 55)
           0.2347 ( 56)  0.4119 ( 58)  0.1673 ( 60) -0.4380 ( 63)  0.2387 ( 71)
           0.2681 ( 72)  0.1651 ( 73) -0.1109 ( 86) -0.3555 ( 87) -0.2881 ( 88)
 CRD 56=  -0.1051 (  4)  0.1784 ( 59)  0.1486 ( 61)  0.1545 ( 62) -0.1085 ( 63)
          -0.1403 ( 64) -0.1975 ( 65) -0.1582 ( 67)  0.1062 ( 68)  0.1576 ( 69)
          -0.1441 ( 70)  0.1181 ( 72)  0.3385 ( 76) -0.1947 ( 78) -0.3199 ( 81)
           0.1671 ( 84)  0.1637 ( 91) -0.1500 ( 92)  0.1517 ( 93) -0.1007 ( 94)
          -0.3799 ( 95)  0.3622 ( 96)
 CRD 57=   0.1206 ( 57) -0.2230 ( 59) -0.2816 ( 62)  0.3078 ( 65)  0.2765 ( 68)
          -0.2664 ( 70)  0.2055 ( 76) -0.3342 ( 77)  0.2285 ( 78)  0.1337 ( 79)
          -0.2105 ( 81)  0.3301 ( 82) -0.1151 ( 83) -0.2099 ( 84)  0.2029 ( 93)
          -0.2157 ( 94) -0.1503 ( 95)  0.1528 ( 96)

 THE DETERMINANT OF THE G MATRIX IS 10**(   -31)


                     --------------------
                     INTERNAL COORDINATES
                     --------------------

                 - - ATOMS - -         COORDINATE      COORDINATE
 NO.   TYPE    I  J  K  L  M  N        (BOHR,RAD)       (ANG,DEG)
 ----------------------------------------------------------------
   1 STRETCH   1  4                     2.5861859       1.3685508
   2 STRETCH   1  2                     2.6819238       1.4192131
   3 STRETCH   2  3                     2.8389241       1.5022940
   4 STRETCH   2 12                     2.0868889       1.1043341
   5 STRETCH   2 13                     2.0964386       1.1093876
   6 STRETCH   3  6                     2.6322634       1.3929339
   7 STRETCH   3  5                     2.6442492       1.3992765
   8 STRETCH   4  7                     2.8354240       1.5004419
   9 STRETCH   4  8                     2.2932228       1.2135213
  10 STRETCH   5 14                     2.0725101       1.0967252
  11 STRETCH   5  9                     2.6239687       1.3885445
  12 STRETCH   6 15                     2.0717210       1.0963076
  13 STRETCH   6 10                     2.6296560       1.3915541
  14 STRETCH   7 18                     2.0801575       1.1007720
  15 STRETCH   7 17                     2.0739825       1.0975043
  16 STRETCH   7 16                     2.0747852       1.0979291
  17 STRETCH   9 11                     2.6304026       1.3919492
  18 STRETCH   9 19                     2.0690934       1.0949172
  19 STRETCH  10 11                     2.6251905       1.3891911
  20 STRETCH  10 20                     2.0695724       1.0951706
  21 STRETCH  11 21                     2.0691634       1.0949542
  22 BEND      1  2  3                  1.9692055     112.8271616
  23 BEND      1  4  8                  1.8917927     108.3917362
  24 BEND      1  2 12                  1.7776402     101.8512788
  25 BEND      1  4  7                  2.1719905     124.4458877
  26 BEND      1  2 13                  1.9382077     111.0511236
  27 BEND      2  3  5                  2.0567274     117.8417994
  28 BEND      2  3  6                  2.1389904     122.5551199
  29 BEND      2  1  4                  2.0846597     119.4422033
  30 BEND      3  6 10                  2.0945808     120.0106406
  31 BEND      3  6 15                  2.0898249     119.7381478
  32 BEND      3  5 14                  2.0945487     120.0088028
  33 BEND      3  2 13                  1.9410732     111.2153024
  34 BEND      3  2 12                  1.9339641     110.8079831
  35 BEND      3  5  9                  2.0965380     120.1227764
  36 BEND      4  7 16                  1.9197266     109.9922344
  37 BEND      4  7 17                  1.9302839     110.5971232
  38 BEND      4  7 18                  1.9649688     112.5844207
  39 BEND      5  3  6                  2.0870025     119.5764329
  40 BEND      5  9 19                  2.0914942     119.8337904
  41 BEND      5  9 11                  2.0971601     120.1584253
  42 BEND      6 10 20                  2.0887861     119.6786272
  43 BEND      6 10 11                  2.1004182     120.3451005
  44 BEND      7  4  8                  2.2186294     127.1181018
  45 BEND      9 11 10                  2.0906411     119.7849107
  46 BEND      9  5 14                  2.0920928     119.8680889
  47 BEND      9 11 21                  2.0949117     120.0296007
  48 BEND     10  6 15                  2.0987570     120.2499195
  49 BEND     10 11 21                  2.0976321     120.1854649
  50 BEND     11  9 19                  2.0945213     120.0072316
  51 BEND     11 10 20                  2.0939789     119.9761549
  52 BEND     12  2 13                  1.8964417     108.6581061
  53 BEND     16  7 17                  1.8812363     107.7869013
  54 BEND     16  7 18                  1.8809326     107.7694996
  55 BEND     17  7 18                  1.8840030     107.9454179
  56 TORSION   1  4  7 16               1.7960298     102.9049260
  57 TORSION   1  2  3  5              -2.2804131    -130.6580489
  58 TORSION   1  4  7 18              -0.3018995     -17.2975690
  59 TORSION   1  2  3  6               0.8941247      51.2295719
  60 TORSION   1  4  7 17              -2.4111466    -138.1485257
  61 TORSION   2  3  5  9              -3.1057793    -177.9480443
  62 TORSION   2  3  5 14               0.0321508       1.8421057
  63 TORSION   2  1  4  7               0.1493294       8.5559423
  64 TORSION   2  3  6 10               3.1105070     178.2189245
  65 TORSION   2  3  6 15              -0.0382838      -2.1935029
  66 TORSION   2  1  4  8              -3.0319438    -173.7175855
  67 TORSION   3  6 10 20               3.1363227     179.6980519
  68 TORSION   3  6 10 11              -0.0074458      -0.4266132
  69 TORSION   3  5  9 19               3.1411190     179.9728601
  70 TORSION   3  5  9 11              -0.0051934      -0.2975624
  71 TORSION   3  2  1  4               1.4712978      84.2991529
  72 TORSION   4  1  2 13              -0.7215560     -41.3421151
  73 TORSION   4  1  2 12              -2.7379882    -156.8751699
  74 TORSION   5  3  6 15               3.1368051     179.7256930
  75 TORSION   5  9 11 21              -3.1404323    -179.9335142
  76 TORSION   5  9 11 10               0.0001844       0.0105651
  77 TORSION   5  3  6 10               0.0024107       0.1381204
  78 TORSION   5  3  2 13              -0.0891066      -5.1054319
  79 TORSION   5  3  2 12               2.0222798     115.8680965
  80 TORSION   6 10 11 21              -3.1364242    -179.7038714
  81 TORSION   6 10 11  9               0.0061460       0.3521376
  82 TORSION   6  3  5  9               0.0038847       0.2225744
  83 TORSION   6  3  2 13               3.0854313     176.7821889
  84 TORSION   6  3  2 12              -1.0863677     -62.2442827
  85 TORSION   6  3  5 14              -3.1413706    -179.9872756
  86 TORSION   8  4  7 18               2.8869193     165.4082917
  87 TORSION   8  4  7 17               0.7776722      44.5573351
  88 TORSION   8  4  7 16              -1.2983367     -74.3892132
  89 TORSION   9 11 10 20              -3.1376290    -179.7728992
  90 TORSION  10 11  9 19               3.1370491     179.7396711
  91 TORSION  11 10  6 15               3.1413823     179.9879462
  92 TORSION  11  9  5 14               3.1400566     179.9119910
  93 TORSION  14  5  9 19               0.0031837       0.1824135
  94 TORSION  15  6 10 20               0.0019654       0.1126112
  95 TORSION  19  9 11 21              -0.0035676      -0.2044082
  96 TORSION  20 10 11 21               0.0029861       0.1710919

     ------------------------------------------
     THE POINT GROUP IS C1 , NAXIS= 1, ORDER= 1
     ------------------------------------------

     DIMENSIONS OF THE SYMMETRY SUBSPACES ARE
 A   =  269

 ..... DONE SETTING UP THE RUN .....
 STEP CPU TIME =     0.02 TOTAL CPU TIME =        0.0 (    0.0 MIN)
 TOTAL WALL CLOCK TIME=        0.0 SECONDS, CPU UTILIZATION IS  66.67%


          -----------------------------
          STATIONARY POINT LOCATION RUN
          -----------------------------

 OBTAINING INITIAL HESSIAN, HESS=GUESS   
 DIAGONAL GUESS HESSIAN IN INTERNAL COORDS IS
     1  0.4058     2  0.3677     3  0.3875     4  0.3368     5  0.3336
     6  0.4793     7  0.4734     8  0.3889     9  0.5485    10  0.3419
    11  0.4834    12  0.3421    13  0.4806    14  0.3392    15  0.3414
    16  0.3411    17  0.4802    18  0.3431    19  0.4828    20  0.3429
    21  0.3430    22  0.2456    23  0.2569    24  0.2192    25  0.2492
    26  0.2189    27  0.2600    28  0.2605    29  0.2423    30  0.2690
    31  0.2321    32  0.2317    33  0.2246    34  0.2249    35  0.2688
    36  0.2254    37  0.2254    38  0.2252    39  0.2684    40  0.2324
    41  0.2694    42  0.2322    43  0.2693    44  0.2605    45  0.2693
    46  0.2323    47  0.2322    48  0.2322    49  0.2324    50  0.2322
    51  0.2324    52  0.2017    53  0.2026    54  0.2025    55  0.2025
    56  0.2500    57  0.2500    58  0.2500    59  0.2500    60  0.2500
    61  0.2500    62  0.2500    63  0.2500    64  0.2500    65  0.2500
    66  0.2500    67  0.2500    68  0.2500    69  0.2500    70  0.2500
    71  0.2500    72  0.2500    73  0.2500    74  0.2500    75  0.2500
    76  0.2500    77  0.2500    78  0.2500    79  0.2500    80  0.2500
    81  0.2500    82  0.2500    83  0.2500    84  0.2500    85  0.2500
    86  0.2500    87  0.2500    88  0.2500    89  0.2500    90  0.2500
    91  0.2500    92  0.2500    93  0.2500    94  0.2500    95  0.2500
    96  0.2500
 TRANSFORMING HESSIAN TO SYMMETRY COORDINATES

          PARAMETERS CONTROLLING GEOMETRY SEARCH ARE
          METHOD =QA                  UPHESS =BFGS    
          NNEG   =         0          NFRZ   =         3
          NSTEP  =        50          IFOLOW =         1
          HESS   =GUESS               RESTAR =         F
          IHREP  =         0          HSSEND =         F
          NPRT   =         0          NPUN   =         0
          OPTTOL = 5.000E-04          RMIN   = 1.500E-03
          RMAX   = 1.000E-01          RLIM   = 7.000E-02
          DXMAX  = 3.000E-01          PURIFY =         F
          MOVIE  =         F          TRUPD  =         T
          TRMAX  = 5.000E-01          TRMIN  = 5.000E-02
          ITBMAT =         5          STPT   =         F
          STSTEP = 1.000E-02          PROJCT=          F
          FROZEN COORD(S)=   1   2   3


      ***** EQUILIBRIUM GEOMETRY LOCATED *****
            (SUBJECT TO   3 CONSTRAINT(S))
 COORDINATES OF ALL ATOMS ARE (ANGS)
   ATOM   CHARGE       X              Y              Z
 ------------------------------------------------------------
 O           8.0   0.8958741337   1.6947680840   1.6966452016
 C           6.0   1.3448597172   3.0342197039   1.4842623226
 C           6.0   2.8537397566   3.1140324625   1.4810799073
 C           6.0   0.8183728711   1.1300662362   2.8930292962
 C           6.0   3.5234649733   4.0363375977   2.2701285310
 C           6.0   3.5895330044   2.2523208488   0.6719175823
 C           6.0   0.9503046872   1.9912469400   4.1190684431
 O           8.0   0.5994385110  -0.0383731544   2.9468601364
 C           6.0   4.9118929337   4.0939564063   2.2620981133
 C           6.0   4.9707738753   2.3063424526   0.6640806363
 C           6.0   5.6366394346   3.2276507794   1.4633390242
 H           1.0   0.9440691895   3.2942793157   0.5160872974
 H           1.0   0.9127144770   3.7025369584   2.2137205605
 H           1.0   2.9682594746   4.7092682200   2.9004647786
 H           1.0   3.0781489304   1.5354175496   0.0544208720
 H           1.0   0.0769424034   2.6306119724   4.1966690339
 H           1.0   1.0014038859   1.3469868844   4.9833529998
 H           1.0   1.8302582656   2.6176186122   4.0821933149
 H           1.0   5.4198953913   4.8078145176   2.8856254901
 H           1.0   5.5281688124   1.6326588505   0.0380868396
 H           1.0   6.7113431216   3.2642451005   1.4621074297


                     --------------------
                     INTERNAL COORDINATES
                     --------------------

                 - - ATOMS - -         COORDINATE      COORDINATE
 NO.   TYPE    I  J  K  L  M  N        (BOHR,RAD)       (ANG,DEG)
 ----------------------------------------------------------------
   1 STRETCH   1  4                     2.5043180       1.3252281
   2 STRETCH   1  2                     2.6996144       1.4285745
   3 STRETCH   2  3                     2.8553623       1.5109928
   4 STRETCH   2 12                     2.0402276       1.0796420
   5 STRETCH   2 13                     2.0401225       1.0795864
   6 STRETCH   3  6                     2.6311897       1.3923657
   7 STRETCH   3  5                     2.6196922       1.3862815
   8 STRETCH   4  7                     2.8422699       1.5040646
   9 STRETCH   4  8                     2.2487585       1.1899919
  10 STRETCH   5 14                     2.0339041       1.0762958
  11 STRETCH   5  9                     2.6260506       1.3896462
  12 STRETCH   6 15                     2.0324582       1.0755307
  13 STRETCH   6 10                     2.6122043       1.3823191
  14 STRETCH   7 18                     2.0423205       1.0807495
  15 STRETCH   7 17                     2.0393899       1.0791988
  16 STRETCH   7 16                     2.0506541       1.0851595
  17 STRETCH   9 11                     2.6142220       1.3833868
  18 STRETCH   9 19                     2.0321772       1.0753819
  19 STRETCH  10 11                     2.6259712       1.3896042
  20 STRETCH  10 20                     2.0321426       1.0753636
  21 STRETCH  11 21                     2.0320738       1.0753272
  22 BEND      1  2  3                  1.9430214     111.3269229
  23 BEND      1  4  8                  2.0600835     118.0340877
  24 BEND      1  2 12                  1.8157331     104.0338423
  25 BEND      1  4  7                  2.0792045     119.1296425
  26 BEND      1  2 13                  1.9328238     110.7426467
  27 BEND      2  3  5                  2.1134116     121.0895631
  28 BEND      2  3  6                  2.0900624     119.7517539
  29 BEND      2  1  4                  2.1557092     123.5130398
  30 BEND      3  6 10                  2.1026648     120.4738194
  31 BEND      3  6 15                  2.0885295     119.6639239
  32 BEND      3  5 14                  2.0945141     120.0068179
  33 BEND      3  2 13                  1.9481398     111.6201878
  34 BEND      3  2 12                  1.9348811     110.8605201
  35 BEND      3  5  9                  2.1024762     120.4630149
  36 BEND      4  7 16                  1.9018581     108.9684398
  37 BEND      4  7 17                  1.8914223     108.3705150
  38 BEND      4  7 18                  1.9556801     112.0522172
  39 BEND      5  3  6                  2.0797075     119.1584606
  40 BEND      5  9 19                  2.0899571     119.7457222
  41 BEND      5  9 11                  2.0953252     120.0532905
  42 BEND      6 10 20                  2.0906404     119.7848737
  43 BEND      6 10 11                  2.0960726     120.0961163
  44 BEND      7  4  8                  2.1429722     122.7832629
  45 BEND      9 11 10                  2.0900671     119.7520228
  46 BEND      9  5 14                  2.0861663     119.5285221
  47 BEND      9 11 21                  2.0977928     120.1946709
  48 BEND     10  6 15                  2.0919660     119.8608244
  49 BEND     10 11 21                  2.0953217     120.0530919
  50 BEND     11  9 19                  2.0978602     120.1985382
  51 BEND     11 10 20                  2.0964719     120.1189941
  52 BEND     12  2 13                  1.8841088     107.9514851
  53 BEND     16  7 17                  1.9098263     109.4249846
  54 BEND     16  7 18                  1.8925759     108.4366108
  55 BEND     17  7 18                  1.9121530     109.5582970
  56 TORSION   1  4  7 16               1.2021703      68.8792831
  57 TORSION   1  2  3  5              -2.2534098    -129.1108715
  58 TORSION   1  4  7 18              -0.8922756     -51.1236244
  59 TORSION   1  2  3  6               0.8912022      51.0621238
  60 TORSION   1  4  7 17              -3.0042054    -172.1282901
  61 TORSION   2  3  5  9               3.1359871     179.6788233
  62 TORSION   2  3  5 14               0.0025760       0.1475967
  63 TORSION   2  1  4  7               0.2120152      12.1475785
  64 TORSION   2  3  6 10              -3.1340053    -179.5652789
  65 TORSION   2  3  6 15              -0.0000215      -0.0012341
  66 TORSION   2  1  4  8              -2.9744916    -170.4258140
  67 TORSION   3  6 10 20               3.1369254     179.7325845
  68 TORSION   3  6 10 11              -0.0038664      -0.2215262
  69 TORSION   3  5  9 19              -3.1316850    -179.4323337
  70 TORSION   3  5  9 11              -0.0000079      -0.0004521
  71 TORSION   3  2  1  4               1.4182827      81.2616142
  72 TORSION   4  1  2 13              -0.7600124     -43.5455038
  73 TORSION   4  1  2 12              -2.7801551    -159.2911556
  74 TORSION   5  3  6 15              -3.1386533    -179.8315895
  75 TORSION   5  9 11 21              -3.1318711    -179.4429957
  76 TORSION   5  9 11 10               0.0067835       0.3886680
  77 TORSION   5  3  6 10               0.0105482       0.6043656
  78 TORSION   5  3  2 13              -0.0837308      -4.7974200
  79 TORSION   5  3  2 12               2.0174047     115.5887743
  80 TORSION   6 10 11 21               3.1338029     179.5536796
  81 TORSION   6 10 11  9              -0.0048559      -0.2782252
  82 TORSION   6  3  5  9              -0.0086073      -0.4931632
  83 TORSION   6  3  2 13               3.0608812     175.3755753
  84 TORSION   6  3  2 12              -1.1211686     -64.2382304
  85 TORSION   6  3  5 14               3.1411670     179.9756101
  86 TORSION   8  4  7 18               2.2964736     131.5782462
  87 TORSION   8  4  7 17               0.1845438      10.5735805
  88 TORSION   8  4  7 16              -1.8922658    -108.4188463
  89 TORSION   9 11 10 20               3.1375403     179.7678186
  90 TORSION  10 11  9 19               3.1384154     179.8179543
  91 TORSION  11 10  6 15              -3.1378352    -179.7847135
  92 TORSION  11  9  5 14               3.1334421     179.5330075
  93 TORSION  14  5  9 19               0.0017650       0.1011259
  94 TORSION  15  6 10 20               0.0029565       0.1693972
  95 TORSION  19  9 11 21              -0.0002393      -0.0137094
  96 TORSION  20 10 11 21              -0.0069861      -0.4002765

          INTERNUCLEAR DISTANCES (ANGS.)


 =====================================================
   GAMESS/COSab RESULTS
 =====================================================

   Dielectric Constant                  = INFTY
   Basic Grid Size                      =                 1082
   Number of Segments                   =                   92
   Number of Segments located on spheres=                  337
   Number of Segments of the cavity     =                  808
   Solvent Radius (rsolv)               = 1.40
   Outlying Charge Error Method         = double cavity

 =====================================================

  Total solvated Energy (a.u.)          =  -496.5073092610
  Total Energy corrected (a.u.)         =  -496.5070483500

  Outlying charge effect (a.u.)         =     0.0002609110
  Outlying charge effect (kcal/mol)     =     0.1637242698

  Dielectric Energy (a.u.)              =    -0.0248477232
  Dielectric energy corr. (a.u.)        =    -0.0245868121

  Sum of polarization charges           =     0.0219982314
  Sum of polarization charges(cor.)     =    -0.0219982314

  Total surface area of cavity (A**2)   =  187.77
  Total volume of cavity (A**3)         =  191.06

 =====================================================
 NPS=                   808
NR.  ATOM  (X, Y, Z)(a.u.)                  CHARGE(e)  AREA(A**2) SIGMA(e/A**2)
   1   1  -0.994126   2.898642   1.402917   0.003604   0.274871   0.013110
   2   1   1.570868   1.268136   0.597083   0.003334   0.206154   0.016170
   3   1  -0.476729   3.228326   0.786182   0.002679   0.206154   0.012996
   4   1   1.444391   2.106711   0.156302   0.002565   0.171795   0.014929
   5   1  -0.249354   2.193874   0.803181   0.005348   0.377948   0.014151
   6   1   0.692322   1.621660   0.548394   0.005178   0.343589   0.015069
   7   1  -1.214379   3.650971   1.823797   0.002149   0.206154   0.010422
   8   1  -0.917683   1.879861   1.792178   0.004948   0.377948   0.013091
   9   1   1.179130   0.759094   1.125395   0.003055   0.206154   0.014820
  10   1   2.019030   0.649410   1.221411   0.001741   0.137436   0.012668
  11   1  -1.528553   3.476027   2.871918   0.000327   0.068718   0.004758
  12   1  -1.413731   2.856126   2.315670   0.003019   0.240512   0.012554
  13   1   0.612086   2.670396   0.187402   0.003326   0.274871   0.012102
  14   1   0.012543   1.224016   1.250203   0.003851   0.274871   0.014010
  15   1  -1.442784   3.918955   2.738611   0.001315   0.171795   0.007653
  16   2  -1.207223   6.188874   2.647090  -0.000736   0.232280  -0.003168
  17   2   0.913629   9.111194   2.327348  -0.000961   0.371649  -0.002587
  18   2   3.079731   8.452457   0.235104  -0.000479   0.092912  -0.005151
  19   2   0.764863   8.783258   1.452394  -0.000867   0.278737  -0.003110
  20   2  -0.986090   6.488609   1.677343  -0.000930   0.325193  -0.002861
  21   2  -1.160930   5.515938   2.077246  -0.000508   0.185824  -0.002736
  22   2  -0.881216   7.315517   2.543855  -0.000663   0.371649  -0.001784
  23   2  -0.085182   8.415599   2.365108  -0.000326   0.325193  -0.001002
  24   2   2.049493   9.282024   1.599599  -0.001461   0.418105  -0.003493
  25   2   2.879768   9.081008   1.082577  -0.000929   0.185824  -0.005000
  26   2  -1.199112   5.900212   3.319635  -0.000899   0.185824  -0.004840
  27   2  -1.034992   6.796467   3.408465  -0.001089   0.232280  -0.004689
  28   2   1.972009   9.468029   2.679062  -0.001553   0.325193  -0.004777
  29   2   2.382843   8.908592   0.760334  -0.000677   0.139368  -0.004855
  30   2  -0.515951   7.763267   1.900324  -0.000532   0.278737  -0.001908
  31   2  -0.847107   5.375120   1.169766  -0.000586   0.185824  -0.003153
  32   3   5.946379   8.413707   0.045350   0.002381   0.371649   0.006406
  33   3   4.704774   8.886046   0.607360   0.000646   0.232280   0.002783
  34   3   4.926471   8.031556  -0.276489   0.001030   0.371649   0.002772
  35   4  -1.776842   1.418440   7.117958   0.000035   0.092912   0.000375
  36   4  -1.475542   1.231473   3.385149   0.000348   0.092912   0.003743
  37   4   4.757994   0.154757   5.250034  -0.000012   0.092912  -0.000125
  38   4  -2.079950   1.550389   6.356317  -0.000142   0.092912  -0.001533
  39   4  -1.993433   1.542086   4.283389  -0.000456   0.232280  -0.001965
  40   4   4.522241   0.487187   7.113910  -0.000183   0.185824  -0.000984
  41   4  -2.129674   2.165902   6.344055  -0.001820   0.278737  -0.006531
  42   4  -2.110537   3.068151   5.668536  -0.001885   0.232280  -0.008116
  43   4  -1.966063   3.314459   4.721176  -0.003386   0.418105  -0.008099
  44   4  -1.896257   2.217552   3.909797  -0.001045   0.278737  -0.003749
  45   4   4.981997   0.812579   6.322257  -0.002563   0.371649  -0.006895
  46   4  -2.222140   1.965630   5.237225  -0.002327   0.464561  -0.005008
  47   5   7.068893   9.403070   0.978823   0.000973   0.139368   0.006985
  48   5   6.981311  11.344015   3.683211   0.000952   0.325193   0.002927
  49   5   4.327077  10.518200   3.587355  -0.000027   0.139368  -0.000192
  50   5   6.288002  11.388703   4.257588   0.000282   0.278737   0.001011
  51   5   7.205933   9.388573   7.588916  -0.000300   0.092912  -0.003230
  52   5   7.052932  11.320795   4.989042  -0.000109   0.185824  -0.000584
  53   5   6.032413  11.178787   3.157950   0.000936   0.325193   0.002878
  54   5   4.789733  10.512781   2.718925   0.000823   0.325193   0.002532
  55   5   7.158088   7.585333   8.035956   0.000531   0.185824   0.002858
  56   5   7.220533   8.345122   7.957808   0.000286   0.092912   0.003083
  57   5   6.758358  10.906101   2.412272   0.001769   0.325193   0.005439
  58   5   6.964333  10.090345   1.439405   0.001195   0.232280   0.005146
  59   5   6.162166   9.876570   1.293245   0.001321   0.185824   0.007107
  60   5   5.283412  10.240244   1.930323   0.000906   0.232280   0.003900
  61   5   7.279257   6.799885   7.924987   0.000252   0.092912   0.002708
  62   5   5.149306  11.004907   3.514927   0.000561   0.278737   0.002012
  63   5   7.246990  11.078225   5.715006  -0.000074   0.092912  -0.000799
  64   5   6.715292   8.424610   7.983940   0.000024   0.185824   0.000130
  65   5   7.563399   4.676268   6.470507   0.000069   0.046456   0.001475
  66   5   6.022481  10.574847   2.010994   0.001395   0.325193   0.004290
  67   6   7.472656   0.577825   1.796982   0.000755   0.232280   0.003250
  68   6   6.126580   5.362983  -2.283893   0.000891   0.278737   0.003198
  69   6   5.740048   4.361567  -2.361373   0.000538   0.278737   0.001932
  70   6   6.905896   0.480496   1.156913   0.000114   0.185824   0.000614
  71   6   7.394487   2.550426  -2.047004  -0.000233   0.092912  -0.002508
  72   6   7.473069   0.610575   0.550502  -0.000060   0.185824  -0.000326
  73   6   6.634423   0.550990   1.999796   0.000819   0.325193   0.002518
  74   6   5.214093   5.402851  -1.971779   0.000750   0.278737   0.002692
  75   6   6.942685   4.496012  -2.498739   0.001203   0.371649   0.003238
  76   6   7.321453   3.330331  -2.354800   0.000457   0.185824   0.002461
  77   6   7.264709   0.979530   3.090556   0.001700   0.278737   0.006097
  78   6   7.527004   1.831955   4.072187   0.000746   0.139368   0.005350
  79   6   5.818178   6.469005  -1.638313   0.002479   0.511017   0.004851
  80   6   7.009753   5.849575  -2.149968   0.001977   0.418105   0.004728
  81   6   4.889304   4.519482  -1.990326   0.000163   0.232280   0.000700
  82   6   7.627165   0.869257  -0.179470  -0.000034   0.092912  -0.000366
  83   6   6.609930   3.670749  -2.460066   0.000145   0.185824   0.000780
  84   6   6.953975   7.093956  -1.220783   0.003269   0.464561   0.007036
  85   7   5.172994   2.083135   8.023334  -0.000441   0.139368  -0.003161
  86   7   3.991331   4.006370  10.850617   0.000191   0.325193   0.000586
  87   7  -1.471219   2.173415   8.825184  -0.000490   0.232280  -0.002108
  88   7   0.549613   4.257966  11.317481   0.000006   0.325193   0.000019
  89   7   2.418193   6.995791   9.640069  -0.000393   0.325193  -0.001208
  90   7   5.402257   2.636707   7.881613  -0.001086   0.232280  -0.004675
  91   7   4.384235   1.148641   8.649933  -0.000322   0.278737  -0.001155
  92   7   5.032832   2.075525   8.763072  -0.000093   0.278737  -0.000333
  93   7   5.043785   3.102230   9.600081   0.000436   0.371649   0.001172
  94   7   1.299822   7.059545   9.564466  -0.000196   0.278737  -0.000702
  95   7  -0.367633   4.702632  10.736981  -0.000016   0.371649  -0.000043
  96   7  -1.839263   3.037302   8.521433  -0.000586   0.371649  -0.001576
  97   7   4.453131   2.999065  10.360631   0.000029   0.232280   0.000125
  98   7   4.683408   4.185864  10.185405  -0.000010   0.371649  -0.000027
  99   7  -1.342130   2.670220   9.584903   0.000070   0.325193   0.000215
 100   7  -0.399812   3.621492  10.856930   0.000279   0.325193   0.000859
 101   7   0.699852   5.490736  10.961596  -0.000257   0.464561  -0.000553
 102   7   1.766479   6.442291  10.449291  -0.000303   0.371649  -0.000816
 103   7   1.807203   7.416167   8.752299  -0.000161   0.232280  -0.000693
 104   7  -0.841348   1.680567   9.514080  -0.000238   0.232280  -0.001023
 105   7   1.619778   4.679854  11.446211  -0.000269   0.418105  -0.000644
 106   7   2.957875   4.580599  11.286086  -0.000276   0.418105  -0.000660
 107   7   3.661346   5.286997  10.696157  -0.000315   0.464561  -0.000679
 108   7   3.030888   6.328927  10.268737  -0.000413   0.325193  -0.001269
 109   7   4.634727   1.896340   9.439444  -0.000246   0.278737  -0.000882
 110   7   5.422148   3.200580   8.688223  -0.000353   0.278737  -0.001267
 111   7   0.716335   6.372438  10.295738  -0.000432   0.278737  -0.001551
 112   7  -1.225323   3.561506  10.045854   0.000134   0.278737   0.000481
 113   7   1.167092   7.442957   8.372257  -0.000283   0.139368  -0.002028
 114   7  -0.762950   2.717908  10.361688   0.000118   0.232280   0.000510
 115   7   2.221292   5.669475  11.019369  -0.000447   0.418105  -0.001069
 116   8   0.553452  -3.261763   5.809073   0.005098   0.377948   0.013487
 117   8  -1.281156  -1.148303   7.460938   0.004656   0.309230   0.015056
 118   8   1.913302  -1.721648   8.258705   0.004349   0.240512   0.018083
 119   8   3.673021  -2.098182   5.477033   0.004423   0.343589   0.012873
 120   8   1.482020  -1.902592   2.905409   0.005550   0.309230   0.017947
 121   8  -1.618628  -1.058546   4.146719   0.004365   0.309230   0.014114
 122   8  -0.365500  -2.818305   6.452219   0.005721   0.412307   0.013876
 123   8  -0.879878  -2.062947   7.166295   0.005118   0.343589   0.014895
 124   8   0.973953  -3.033819   6.899221   0.006000   0.412307   0.014553
 125   8   1.423339  -2.435933   7.781113   0.005643   0.343589   0.016423
 126   8   1.759396  -3.259354   5.695407   0.005541   0.412307   0.013438
 127   8   2.807261  -2.850641   5.362057   0.005051   0.377948   0.013365
 128   8   0.896883  -3.187670   4.671652   0.005421   0.377948   0.014342
 129   8   1.119565  -2.705968   3.663670   0.005547   0.343589   0.016144
 130   8  -0.340807  -2.917573   5.022074   0.006661   0.481025   0.013847
 131   8  -1.128136  -2.153246   4.508800   0.005871   0.412307   0.014239
 132   8  -0.392385  -1.449245   8.087334   0.004634   0.274871   0.016859
 133   8   0.834345  -1.687772   8.373502   0.005993   0.309230   0.019381
 134   8   2.644974  -2.126480   7.583488   0.005311   0.343589   0.015457
 135   8   3.393092  -2.196819   6.539798   0.005584   0.412307   0.013543
 136   8   3.234683  -2.234116   4.354656   0.005352   0.377948   0.014160
 137   8   2.381085  -2.210288   3.462523   0.005467   0.343589   0.015912
 138   8   0.386508  -1.851362   2.952769   0.005377   0.309230   0.017389
 139   8  -0.832324  -1.602766   3.480371   0.004890   0.309230   0.015814
 140   8  -1.877455  -1.227461   5.157286   0.005880   0.446666   0.013164
 141   8  -1.746831  -1.268640   6.486294   0.005592   0.412307   0.013563
 142   8  -0.880935  -0.569705   8.071258   0.003880   0.240512   0.016130
 143   8   2.827325  -1.339685   8.036031   0.003012   0.171795   0.017535
 144   8   4.032766  -1.108362   6.608794   0.002400   0.206154   0.011642
 145   8   4.137490  -1.280334   5.847048   0.002739   0.240512   0.011388
 146   8   3.973011  -1.403149   4.716092   0.004241   0.309230   0.013715
 147   8   2.270394  -1.357341   2.808394   0.005186   0.274871   0.018868
 148   8   0.831902  -1.200218   2.535221   0.003692   0.206154   0.017908
 149   8  -1.326627  -0.415627   3.471555   0.004510   0.309230   0.014585
 150   8  -1.944721  -0.135063   4.524830   0.003222   0.274871   0.011723
 151   8  -1.754387  -0.178779   7.057963   0.004462   0.343589   0.012988
 152   8   0.157398  -2.402061   7.614867   0.006628   0.412307   0.016076
 153   8   2.301523  -2.877799   6.721605   0.006862   0.481025   0.014266
 154   8   2.084975  -2.929351   4.345481   0.006039   0.412307   0.014646
 155   8  -0.047201  -2.490677   3.745359   0.007158   0.446666   0.016025
 156   8  -1.300139  -2.209678   5.848329   0.005536   0.412307   0.013426
 157   8   0.176947  -1.112647   8.496084   0.002276   0.137436   0.016559
 158   8   3.526672  -1.276224   7.408587   0.004842   0.343589   0.014093
 159   8   3.205540  -1.552094   3.549092   0.004635   0.274871   0.016863
 160   8  -0.409810  -0.966190   2.850966   0.006147   0.343589   0.017890
 161   8  -2.101473  -0.164269   5.878479   0.004628   0.412307   0.011225
 162   9   8.802781   9.504862   0.969106   0.001331   0.185824   0.007162
 163   9  11.445609  10.356533   2.619794   0.001174   0.325193   0.003611
 164   9   8.826424  11.477295   3.987021   0.000811   0.278737   0.002909
 165   9  10.249699   6.511514   7.716774   0.001267   0.371649   0.003408
 166   9  10.699531   7.518687   7.771573   0.000728   0.371649   0.001958
 167   9   8.702557   9.153871   7.730077  -0.000024   0.092912  -0.000256
 168   9   8.865985  11.432066   4.948260   0.000235   0.278737   0.000845
 169   9  11.453428  10.716894   3.446028   0.000416   0.278737   0.001491
 170   9  12.746956   8.191474   5.714263  -0.000317   0.092912  -0.003416
 171   9  12.227031  10.010181   3.609887  -0.000015   0.185824  -0.000081
 172   9  10.550365  10.969274   2.783173   0.001067   0.325193   0.003282
 173   9   9.383133  11.377346   3.265762   0.000706   0.232280   0.003038
 174   9   8.923677   8.501893   7.958479   0.000145   0.185824   0.000780
 175   9   9.265045   7.250489   8.022784   0.001370   0.418105   0.003276
 176   9  11.475619   6.586278   7.129555   0.001267   0.371649   0.003410
 177   9  12.396392   7.514256   6.404594   0.000435   0.185824   0.002340
 178   9  10.315360  10.459115   1.865622   0.001911   0.325193   0.005877
 179   9   9.436347  10.108285   1.336217   0.001175   0.232280   0.005060
 180   9   8.811486  10.385533   1.620467   0.001765   0.232280   0.007599
 181   9   8.690822  11.095545   2.646496   0.001086   0.278737   0.003895
 182   9   9.189043   5.902071   7.577864   0.003017   0.511017   0.005903
 183   9  10.471600   5.594023   7.152133   0.001937   0.371649   0.005211
 184   9   9.631058   8.025513   8.026939   0.000356   0.232280   0.001533
 185   9  10.131245  11.370022   3.674302   0.000731   0.325193   0.002247
 186   9  12.595029   9.550203   4.135739  -0.000015   0.092912  -0.000159
 187   9  11.814332   7.344033   7.052912   0.000251   0.232280   0.001082
 188   9   9.202275   4.889584   6.759327   0.003082   0.418105   0.007372
 189   9   9.487640  10.939858   2.279677   0.001164   0.278737   0.004176
 190  10   9.084098   2.505855   4.534682   0.000964   0.139368   0.006914
 191  10  11.779747   1.930864   2.897162   0.001052   0.325193   0.003236
 192  10   9.245341   0.594498   1.564322   0.000865   0.278737   0.003104
 193  10  10.221359   5.639248  -2.203123   0.001247   0.371649   0.003356
 194  10  10.750676   4.671514  -2.258484   0.000704   0.371649   0.001894
 195  10   8.893278   2.880293  -2.187384  -0.000046   0.092912  -0.000493
 196  10   9.270728   0.637659   0.602509   0.000314   0.278737   0.001126
 197  10  11.807808   1.567921   2.072499   0.000356   0.278737   0.001278
 198  10  12.867962   4.177638  -0.221254  -0.000322   0.092912  -0.003469
 199  10  12.519811   2.334052   1.896857  -0.000063   0.185824  -0.000339
 200  10  10.935365   1.246806   2.746534   0.001009   0.325193   0.003103
 201  10   9.799879   0.743024   2.278854   0.000726   0.232280   0.003125
 202  10   9.058383   3.546805  -2.421137   0.000135   0.185824   0.000726
 203  10   9.296551   4.821373  -2.494811   0.001530   0.418105   0.003659
 204  10  11.455575   5.667093  -1.629336   0.001182   0.371649   0.003181
 205  10  12.456262   4.820569  -0.910617   0.000408   0.185824   0.002194
 206  10  10.669729   1.741150   3.664384   0.001804   0.325193   0.005549
 207  10   9.770955   2.022492   4.202033   0.001143   0.232280   0.004921
 208  10   9.167571   1.694063   3.926028   0.001813   0.232280   0.007807
 209  10   9.093744   0.971156   2.904574   0.001133   0.278737   0.004065
 210  10   9.116385   6.161566  -2.055054   0.002880   0.511017   0.005637
 211  10  10.411940   6.599206  -1.613080   0.001950   0.418105   0.004665
 212  10   9.724072   4.078509  -2.499624   0.000350   0.232280   0.001509
 213  10  10.540485   0.808704   1.861939   0.000726   0.325193   0.002234
 214  10  12.843642   2.819501   1.364884  -0.000002   0.092912  -0.000019
 215  10  11.855361   4.939661  -1.553128   0.000221   0.232280   0.000949
 216  10   9.047939   7.215403  -1.195012   0.003187   0.464561   0.006861
 217  10   9.879247   1.192784   3.261757   0.001172   0.278737   0.004206
 218  11   9.658221   8.470634  -0.004946   0.000952   0.139368   0.006831
 219  11  12.422886   6.915939  -0.472023   0.001080   0.325193   0.003322
 220  11  12.649134   9.145076   1.756273   0.000874   0.278737   0.003137
 221  11  12.373021   3.814256   5.235048   0.001264   0.371649   0.003401
 222  11  13.271797   4.226360   4.742989   0.000735   0.371649   0.001978
 223  11  13.305461   6.727124   5.382132  -0.000113   0.092912  -0.001211
 224  11  13.205610   8.872068   2.493425   0.000388   0.278737   0.001393
 225  11  13.143558   6.984638   0.065095   0.000388   0.278737   0.001393
 226  11  13.503506   3.814169   1.801301  -0.000338   0.092912  -0.003642
 227  11  13.170660   5.930409  -0.047253  -0.000047   0.185824  -0.000250
 228  11  12.468165   7.910227  -0.010562   0.001034   0.325193   0.003181
 229  11  12.435959   8.866422   0.909493   0.000741   0.232280   0.003191
 230  11  13.132338   6.062874   5.616519   0.000183   0.185824   0.000983
 231  11  12.538767   4.926266   5.822613   0.001616   0.418105   0.003864
 232  11  12.681419   3.188569   4.065988   0.001194   0.371649   0.003212
 233  11  13.303441   3.406628   2.724319   0.000414   0.185824   0.002226
 234  11  11.485596   7.904727  -0.448646   0.001825   0.325193   0.005611
 235  11  10.514914   8.352445  -0.266051   0.001174   0.232280   0.005055
 236  11  10.550518   8.900677   0.230226   0.001851   0.232280   0.007969
 237  11  11.548853   9.260248   0.897643   0.001139   0.278737   0.004087
 238  11  11.376999   4.109614   5.895664   0.002852   0.511017   0.005581
 239  11  11.550289   3.102339   4.885367   0.001954   0.418105   0.004674
 240  11  13.217827   5.238732   5.403223   0.000346   0.232280   0.001488
 241  11  13.041728   8.275569   0.806703   0.000763   0.325193   0.002346
 242  11  13.368045   5.240289   0.281829  -0.000003   0.092912  -0.000033
 243  11  13.288374   3.524732   3.604041   0.000229   0.232280   0.000985
 244  11  10.198803   3.543804   5.512722   0.003235   0.464561   0.006964
 245  11  11.627419   8.703883   0.206268   0.001201   0.278737   0.004309
 246  12   0.793778   6.864420  -1.180196  -0.005142   0.549575  -0.009356
 247  12   0.722228   4.935127  -0.825608  -0.002604   0.333671  -0.007805
 248  12   2.068635   6.081996  -1.460622  -0.002843   0.314043  -0.009052
 249  12   2.303673   7.925621  -0.720005  -0.002531   0.353299  -0.007165
 250  12   0.447125   8.114653   0.151789  -0.002369   0.372926  -0.006353
 251  12  -0.521028   6.289749   0.128115  -0.002317   0.372926  -0.006212
 252  12   1.349915   5.465629  -1.320283  -0.003801   0.431809  -0.008803
 253  12   2.170916   7.064619  -1.300901  -0.003619   0.392554  -0.009219
 254  12   1.327375   8.116334  -0.524910  -0.003791   0.471065  -0.008049
 255  12  -0.116187   7.289828  -0.160978  -0.003610   0.471065  -0.007664
 256  12  -0.015743   5.753112  -0.628782  -0.003984   0.471065  -0.008458
 257  13   0.981198   8.727433   5.760342  -0.003271   0.255160  -0.012818
 258  13   0.154112   8.877960   4.012337  -0.002025   0.314043  -0.006448
 259  13   1.159446   9.387132   4.141976  -0.002618   0.333671  -0.007845
 260  13  -0.461445   8.047533   4.572408  -0.003315   0.392554  -0.008444
 261  13   0.232264   8.738124   5.063763  -0.003087   0.314043  -0.009829
 262  13   1.219967   9.233866   5.064055  -0.002488   0.255160  -0.009752
 263  14   4.802832  10.640817   7.014619  -0.003722   0.412182  -0.009029
 264  14   5.716356  11.323757   5.862171  -0.001942   0.314043  -0.006182
 265  14   6.141556  10.105909   7.553668  -0.001952   0.294415  -0.006631
 266  14   4.126994  10.821641   5.103635  -0.002512   0.333671  -0.007528
 267  14   6.013314  10.903092   6.843540  -0.003601   0.431809  -0.008340
 268  14   5.317128   9.582045   7.822786  -0.004284   0.490692  -0.008731
 269  14   4.111502   9.777788   7.218942  -0.003744   0.314043  -0.011922
 270  14   3.920139  10.519300   6.227767  -0.003787   0.392554  -0.009647
 271  14   4.860543  11.232037   5.661572  -0.002812   0.392554  -0.007163
 272  15   5.154734   1.240081  -1.581286  -0.003918   0.431809  -0.009074
 273  15   6.048929   0.479483  -0.236186  -0.002328   0.372926  -0.006243
 274  15   6.466493   1.678687  -1.926374  -0.002309   0.353299  -0.006536
 275  15   4.733731   3.037120  -2.097965  -0.001977   0.314043  -0.006296
 276  15   6.282693   0.895442  -1.236452  -0.003360   0.412182  -0.008151
 277  15   5.575826   2.332493  -2.274803  -0.002997   0.451437  -0.006638
 278  15   4.194712   2.326891  -1.650311  -0.003930   0.412182  -0.009535
 279  15   4.367837   1.244495  -0.987889  -0.003410   0.353299  -0.009653
 280  15   5.087906   0.563191  -0.086686  -0.003710   0.412182  -0.009000
 281  16  -1.786007   6.400025   8.443378  -0.004084   0.431809  -0.009459
 282  16  -1.925872   5.674756   6.812598  -0.003185   0.314043  -0.010143
 283  16  -0.287338   7.139322   9.001427  -0.002251   0.353299  -0.006372
 284  16  -1.451211   5.438935   9.738046  -0.002355   0.372926  -0.006315
 285  16  -2.241724   4.425579   8.128175  -0.002169   0.353299  -0.006139
 286  16  -1.589843   6.621216   7.381705  -0.003855   0.372926  -0.010338
 287  16  -0.658560   7.287181   8.087566  -0.004046   0.431809  -0.009370
 288  16  -1.000037   6.475684   9.498786  -0.003529   0.471065  -0.007492
 289  16  -2.070204   5.153086   8.976034  -0.003499   0.451437  -0.007750
 290  16  -2.271300   5.286700   7.622273  -0.003672   0.412182  -0.008909
 291  17   1.766794   1.410739  11.592452  -0.004214   0.471065  -0.008946
 292  17   3.682607   1.895428  10.968843  -0.002264   0.412182  -0.005493
 293  17   3.359857   0.735602  10.195710  -0.003055   0.431809  -0.007074
 294  17   0.402877   1.983769  11.288287  -0.002558   0.431809  -0.005925
 295  17   2.133364   2.959864  11.826592  -0.002081   0.372926  -0.005581
 296  17   2.869686   1.075828  11.126048  -0.003235   0.392554  -0.008241
 297  17   1.842017   0.444817  10.689967  -0.004171   0.471065  -0.008854
 298  17   0.523433   0.958876  10.699347  -0.003765   0.510320  -0.007378
 299  17   1.172290   2.558681  11.765883  -0.002460   0.392554  -0.006268
 300  17   2.932602   2.400648  11.638004  -0.002882   0.412182  -0.006992
 301  18   5.664764   4.507897   8.702084  -0.000865   0.117766  -0.007345
 302  18   4.837555   5.900180   9.509911  -0.001285   0.196277  -0.006545
 303  18   5.306912   5.151102   9.319632  -0.001301   0.176649  -0.007366
 304  18   4.300213   6.631484   9.291586  -0.001766   0.196277  -0.008997
 305  19  11.448207  10.661010   6.901504  -0.005677   0.608459  -0.009331
 306  19  11.982872  10.784377   5.108762  -0.002437   0.412182  -0.005912
 307  19  12.525200   9.191518   6.353822  -0.002283   0.353299  -0.006463
 308  19  11.001321   9.068946   7.789369  -0.001920   0.353299  -0.005435
 309  19   9.520116  10.530282   7.304049  -0.002575   0.333671  -0.007718
 310  19   9.982327  11.516341   5.694581  -0.001680   0.333671  -0.005035
 311  19  12.433223  10.114241   5.872277  -0.003810   0.490692  -0.007766
 312  19  11.889736   9.282897   7.264524  -0.003471   0.490692  -0.007074
 313  19  10.342511   9.959397   7.746773  -0.003633   0.510320  -0.007118
 314  19  10.058401  11.191307   6.704710  -0.003804   0.490692  -0.007753
 315  19  11.128947  11.375088   5.531642  -0.003994   0.549575  -0.007268
 316  20  11.760745   1.604817  -1.382888  -0.005683   0.608459  -0.009340
 317  20  12.322970   1.534687   0.404287  -0.002476   0.412182  -0.006007
 318  20  12.721021   3.159562  -0.853820  -0.002291   0.353299  -0.006485
 319  20  11.176811   3.150729  -2.272750  -0.001925   0.353299  -0.005448
 320  20   9.824167   1.576897  -1.764403  -0.002548   0.333671  -0.007635
 321  20  10.382080   0.640078  -0.155851  -0.001670   0.333671  -0.005004
 322  20  12.709291   2.235000  -0.367186  -0.003827   0.490692  -0.007799
 323  20  12.085251   3.012193  -1.756938  -0.003472   0.490692  -0.007075
 324  20  10.592790   2.210111  -2.218834  -0.003630   0.510320  -0.007112
 325  20  10.420666   0.964816  -1.168200  -0.003801   0.490692  -0.007746
 326  20  11.515183   0.874548  -0.006384  -0.003982   0.549575  -0.007245
 327  21  15.139230   6.177125   2.768494  -0.005686   0.608459  -0.009345
 328  21  14.427229   6.312097   1.039377  -0.002451   0.412182  -0.005946
 329  21  14.409740   4.534584   2.144653  -0.002258   0.353299  -0.006391
 330  21  14.422789   5.133688   4.154362  -0.001885   0.353299  -0.005336
 331  21  14.339089   7.268012   4.205996  -0.002471   0.333671  -0.007406
 332  21  14.250812   8.028105   2.419714  -0.001702   0.333671  -0.005100
 333  21  14.670851   5.363944   1.565216  -0.003810   0.490692  -0.007766
 334  21  14.690004   4.816885   3.185471  -0.003454   0.490692  -0.007039
 335  21  14.641333   6.216641   4.244924  -0.003614   0.510320  -0.007083
 336  21  14.675196   7.519575   3.252234  -0.003695   0.490692  -0.007530
 337  21  14.631609   7.205396   1.685287  -0.003943   0.549575  -0.007174
 338   1  -1.276598   4.475260   3.678950   0.000056   0.049885   0.001116
 339   2  -1.175761   4.937370   3.616317  -0.000141   0.049885  -0.002829
 340   4  -1.352352   4.310287   4.080756  -0.000267   0.049885  -0.005348
 341   1   1.328966   3.484736  -0.123191   0.000053   0.019863   0.002681
 342   2   1.453857   3.899586  -0.321388  -0.000132   0.019863  -0.006632
 343  12   1.371496   4.156276  -0.451857  -0.000175   0.019863  -0.008808
 344   1  -0.420663   4.217254   0.797873   0.000165   0.019863   0.008288
 345   2  -0.372256   4.664125   0.639941  -0.000096   0.019863  -0.004814
 346  12  -0.287797   4.850972   0.421651  -0.000162   0.019863  -0.008166
 347   1   2.165750   3.034483  -0.133950   0.000431   0.136934   0.003145
 348   2   2.307173   3.460116  -0.309815  -0.000560   0.136934  -0.004093
 349  15   3.120848   3.003518  -0.589642  -0.000815   0.136934  -0.005950
 350   2   1.719216   3.672107  -0.315354  -0.000163   0.068692  -0.002376
 351   1   1.442440   3.084940  -0.070946   0.000484   0.062784   0.007712
 352   2  -0.724349   4.734327   1.218077  -0.000045   0.239577  -0.000190
 353   2  -1.177368   5.140123   2.819660  -0.000377   0.239577  -0.001575
 354   1  -0.985319   4.255906   2.181748   0.003273   0.470417   0.006958
 355   1  -0.930472   1.182312   2.654660   0.000421   0.032614   0.012911
 356   4  -1.060635   0.937636   2.996893   0.000325   0.032614   0.009953
 357   8  -1.039738   0.559447   3.101245   0.000383   0.032614   0.011747
 358   4  -1.634468   3.653996   4.085639  -0.000588   0.170527  -0.003446
 359   4  -1.474448   2.070336   3.348519   0.000514   0.333968   0.001539
 360   1  -1.460284   3.305046   3.248085   0.001864   0.335398   0.005557
 361   1  -1.162667   1.785146   2.549974   0.001417   0.159814   0.008869
 362   1   3.016241   0.552368   1.784581   0.003231   0.178301   0.018119
 363   8   2.870350   0.038527   2.343689   0.002327   0.178301   0.013052
[...]
 549  18   5.987228   4.302636   7.945112  -0.000048   0.050580  -0.000949
 550   5   7.176429   4.878085   7.177407   0.000326   0.072138   0.004523
 551  18   5.890187   5.213288   8.567413  -0.001658   0.233251  -0.007107
 552  18   5.280570   6.282425   8.834842  -0.004147   0.469879  -0.008825
 553   5   6.808695   6.391417   8.018628   0.001183   0.656854   0.001801
 554   5   6.036609   7.590560   8.236029   0.000159   0.332473   0.000478
 555   7   5.640186   2.582454   6.841690  -0.000061   0.094198  -0.000650
 556   6   6.989753   2.749243   5.109862   0.000492   0.094198   0.005220
 557   6   5.185297   0.711681   1.759125   0.000294   0.159178   0.001847
 558   8   4.012353   0.227999   2.706548   0.001348   0.159178   0.008466
 559  15   5.050381   0.720034   1.486518  -0.000265   0.159178  -0.001662
 560   8   3.867073  -0.737491   3.372574   0.002398   0.343142   0.006988
 561   8   4.373304  -0.606158   4.170185   0.001846   0.343142   0.005380
 562   6   5.782040   0.474361   2.527901   0.001828   0.797133   0.002293
 563   6   7.834010   7.740626  -0.078614   0.000676   0.102365   0.006600
 564   9   8.276277   8.323645   0.477086   0.000573   0.102365   0.005596
 565  10   8.286022   7.774368  -0.092506   0.000720   0.102365   0.007030
 566   6   8.212129   1.324910  -0.830597  -0.000105   0.006164  -0.016997
 567  10   8.660994   1.308113  -0.856425  -0.000059   0.006164  -0.009542
 568  20   8.946523   1.290579  -0.937047  -0.000097   0.006164  -0.015776
 569   6   8.185822   1.903785  -1.477004  -0.000100   0.006164  -0.016218
 570  10   8.634349   1.894418  -1.511129  -0.000068   0.006164  -0.010965
 571  20   8.922284   1.823955  -1.532647  -0.000122   0.006164  -0.019754
 572  10   8.498102   2.554401   4.444174   0.001597   0.201945   0.007906
 573  10   8.541583   1.217129   2.889995   0.002257   0.413582   0.005457
 574  10   8.539275   0.917672   0.419137  -0.001214   0.413582  -0.002935
 575   6   7.871404   1.971833   3.889579   0.003215   0.413582   0.007773
 576   6   7.904112   0.815774   1.685656   0.000611   0.413582   0.001478
 577   6   7.883997   1.034294  -0.353340  -0.000770   0.201945  -0.003812
 578  10   8.470356   2.357053  -1.806240  -0.000742   0.201758  -0.003678
 579  10   8.389658   4.356580  -2.246694   0.000752   0.413165   0.001820
 580  10   8.304290   6.670913  -1.340212   0.003063   0.413165   0.007414
 581   6   7.794233   3.086482  -2.028499  -0.001280   0.413165  -0.003099
 582   6   7.697200   5.571440  -2.001943   0.002164   0.413165   0.005236
 583   6   7.637688   7.261078  -0.844272   0.001401   0.201758   0.006943
 584   6   4.017048   4.343744  -1.388617  -0.000412   0.082612  -0.004984
 585  12   3.134298   4.796053  -1.108394  -0.000726   0.082612  -0.008788
 586  15   4.006837   4.043963  -1.395167  -0.000607   0.082612  -0.007344
 587  12   3.191404   6.685546  -1.122034  -0.001926   0.306091  -0.006291
 588  12   2.743843   5.522623  -1.299865  -0.002023   0.306091  -0.006608
 589   6   4.365738   5.599636  -1.430863  -0.000473   0.855936  -0.000552
 590   6   7.829133   1.837418  -1.458648  -0.000167   0.014470  -0.011512
 591  15   7.544268   1.754306  -1.466458  -0.000164   0.014470  -0.011319
 592  20   8.570058   1.823156  -1.438918  -0.000158   0.014470  -0.010928
 593   6   7.853869   1.312983  -0.870270  -0.000171   0.014470  -0.011799
 594  15   7.566462   1.283754  -0.938533  -0.000199   0.014470  -0.013736
 595  20   8.591817   1.361832  -0.921345  -0.000152   0.014470  -0.010508
 596  15   7.059588   0.988491  -0.809190  -0.000524   0.066306  -0.007897
 597  15   6.537855   0.606621   0.066245  -0.001030   0.146970  -0.007007
 598  15   5.735955   0.546981   0.799604  -0.000434   0.066306  -0.006541
 599   6   7.238291   0.879920  -0.261662  -0.001022   0.145490  -0.007021
 600   6   6.318744   0.573196   0.855991  -0.000715   0.145490  -0.004914
 601  15   4.569079   3.669544  -1.859281  -0.000567   0.076839  -0.007383
 602  15   5.666881   3.223785  -2.250936  -0.001060   0.176456  -0.006007
 603  15   6.746253   2.220676  -1.980249  -0.001370   0.176456  -0.007767
 604   6   5.122542   3.915346  -2.033545  -0.000920   0.163086  -0.005639
 605   6   6.560002   3.068682  -2.241050  -0.000974   0.163086  -0.005971
 606   6   7.369312   2.068760  -1.750403  -0.000630   0.093876  -0.006716
 607   6   7.978642   1.820635  -1.546213  -0.000027   0.006901  -0.003974
 608   7   3.532828   0.510330   8.774731  -0.000262   0.065007  -0.004037
 609   8   3.303021  -0.094108   8.287626   0.000385   0.065007   0.005921
 610  17   3.388930   0.492327   9.038636  -0.000387   0.065007  -0.005960
 611   7  -0.211783   0.873489   9.266805  -0.000137   0.065007  -0.002111
 612   8  -0.232803   0.248802   8.752264   0.000713   0.065007   0.010965
 613  17  -0.011206   0.822078   9.485443  -0.000296   0.065007  -0.004559
 614   8   3.625627  -0.399645   7.817829   0.000977   0.136505   0.007156
 615   7   3.828729   0.494757   8.539227  -0.000167   0.150675  -0.001107
 616   8  -0.886341   0.187896   8.151088   0.004412   0.422060   0.010454
 617   7  -1.031884   1.295847   8.607094  -0.000663   0.465736  -0.001423
 618   7   2.121031   7.793003   7.208436  -0.002140   0.288488  -0.007420
 619  13   2.100960   8.286010   6.424836  -0.003602   0.288488  -0.012485
 620  14   3.014008   8.651119   6.656552  -0.002919   0.288488  -0.010119
 621   7   0.955193   7.498840   7.555821  -0.000524   0.079561  -0.006583
 622  13   1.011956   7.848468   6.711498  -0.001073   0.079561  -0.013481
 623  16   0.652590   7.464304   7.570948  -0.000632   0.079561  -0.007946
 624  13   1.326822   8.273692   6.382448  -0.001263   0.117912  -0.010710
 625   7   1.382119   7.702420   7.611277  -0.000308   0.166332  -0.001855
 626   7   3.395774   7.262293   8.668207  -0.000765   0.070297  -0.010880
 627  14   4.175032   8.085477   7.943106  -0.000724   0.070297  -0.010303
 628  18   3.677762   7.307672   8.573524  -0.000853   0.070297  -0.012128
 629  14   3.537947   9.092956   7.172074  -0.001655   0.264744  -0.006253
 630  14   4.188477   8.871046   7.754368  -0.001304   0.264744  -0.004924
 631   7   2.629199   7.704101   8.354839  -0.001745   0.786216  -0.002220
 632  16  -2.084293   3.953591   7.791805  -0.000561   0.071146  -0.007886
 633  16  -1.869355   4.111905   8.906488  -0.001206   0.159081  -0.007580
 634  16  -1.237140   4.856561   9.886420  -0.001163   0.159081  -0.007313
 635  16  -0.416022   5.959298  10.042024  -0.001220   0.159081  -0.007671
 636  16   0.232255   6.934305   9.304750  -0.001306   0.159081  -0.008210
 637  16   0.467248   7.380234   8.275329  -0.000503   0.071146  -0.007069
 638   7  -1.900715   3.583366   8.235372  -0.001252   0.154902  -0.008081
 639   7  -1.426267   4.061487   9.635778  -0.000892   0.154902  -0.005761
 640   7  -0.561114   5.161219  10.311750  -0.000995   0.154902  -0.006421
 641   7   0.313600   6.398076   9.965488  -0.001062   0.154902  -0.006857
 642   7   0.812521   7.227161   8.749538  -0.001008   0.154902  -0.006508
 643  17   3.671839   0.859496   9.552566  -0.000475   0.069579  -0.006833
 644  17   4.016349   1.734014  10.184082  -0.001057   0.155444  -0.006802
 645  17   3.688171   2.789063  10.989936  -0.000950   0.155444  -0.006109
 646  17   2.607108   3.428716  11.530654  -0.001008   0.155444  -0.006486
 647  17   1.241189   3.376044  11.572140  -0.001022   0.155444  -0.006575
 648  17   0.181769   2.653852  11.096433  -0.000934   0.155444  -0.006011
 649  17  -0.112492   1.574801  10.309485  -0.000986   0.155444  -0.006342
 650   7   4.055181   1.309914   9.453963  -0.000978   0.151554  -0.006455
 651   7   4.197081   2.540176  10.362634  -0.000764   0.151554  -0.005041
 652   7   3.359013   3.548006  11.163433  -0.000866   0.151554  -0.005717
 653   7   1.903805   3.897081  11.509667  -0.000933   0.151554  -0.006156
 654   7   0.461468   3.436274  11.251439  -0.000777   0.151554  -0.005127
 655   7  -0.343560   2.365083  10.500544  -0.000784   0.151554  -0.005174
 656   7  -0.359752   1.362722   9.754323  -0.000407   0.085006  -0.004785
 657  18   3.573461   6.932831   9.155429  -0.000634   0.067584  -0.009386
 658  18   4.149592   6.154089   9.675503  -0.001230   0.149888  -0.008207
 659  18   4.918638   5.070503   9.620845  -0.001102   0.149888  -0.007355
 660  18   5.489975   4.218082   8.774956  -0.001275   0.149888  -0.008510
 661   7   3.440117   6.575920   9.608030  -0.001126   0.148258  -0.007595
 662   7   4.283633   5.415499  10.025315  -0.001004   0.148258  -0.006770
 663   7   5.077988   4.268158   9.491621  -0.000896   0.148258  -0.006045
 664   7   5.496220   3.625257   8.551198  -0.000481   0.082569  -0.005827
 665  15   4.810891   0.475250   0.987783  -0.000045   0.358406  -0.000124
 666   8   3.189125  -0.669731   2.591817   0.002877   0.484838   0.005934
 667  17   0.236997   0.561963   9.742377  -0.000528   0.220967  -0.002388
 668  17   1.336794   0.100662   9.839105  -0.001668   0.444690  -0.003751
 669  17   2.757268   0.156943   9.520443  -0.001722   0.444690  -0.003871
 670   8   0.322764  -0.549918   8.812616   0.006460   0.542413   0.011911
 671   8   1.880440  -0.914198   8.752967   0.006856   0.542413   0.012639
 672   8   3.086778  -0.651080   8.335867   0.002471   0.273283   0.009040
 673   9   8.616215   8.545366   0.538020   0.000428   0.048063   0.008910
 674  10   8.635672   7.956069   0.011446   0.000436   0.048063   0.009066
 675  11   8.841362   8.283300   0.247981   0.000501   0.048063   0.010434
 676  10   8.488836   7.892262  -0.176227   0.000047   0.005811   0.008113
 677   9   8.465468   8.733308   0.574162   0.000092   0.005811   0.015880
 678  11  13.180964   7.633516   5.100444  -0.000796   0.207784  -0.003833
 679  11  12.244333   5.994955   6.027752   0.000655   0.426684   0.001535
 680  11  10.257142   4.402313   5.952040   0.003139   0.426684   0.007357
 681   9  12.527191   7.407085   5.872234  -0.001463   0.426684  -0.003430
 682   9  10.994407   5.491403   6.559188   0.002298   0.426684   0.005385
 683   9   9.232017   4.439877   6.100563   0.001598   0.207784   0.007691
 684  11   9.374591   8.761119   0.423787   0.001625   0.208930   0.007779
 685  11  11.162431   9.402669   1.350155   0.002351   0.429283   0.005475
 686  11  12.791294   8.985982   3.280021  -0.001435   0.429283  -0.003342
 687   9   9.729275   9.457121   1.110139   0.003335   0.429283   0.007768
 688   9  11.775731   9.784215   2.612214   0.000509   0.429283   0.001187
 689   9  12.804627   9.074001   4.316058  -0.000814   0.208930  -0.003898
 690   9   8.230366  10.108850   7.041766  -0.000178   0.015795  -0.011284
 691  14   7.487710  10.126474   7.019466  -0.000180   0.015795  -0.011365
 692  19   8.514206  10.195320   7.048427  -0.000209   0.015795  -0.013239
 693   9   8.203392  10.684021   6.405251  -0.000174   0.015795  -0.011034
 694  14   7.463984  10.632373   6.459612  -0.000190   0.015795  -0.012057
 695  19   8.490003  10.711406   6.477299  -0.000165   0.015795  -0.010458
 696  14   6.974451  10.191494   7.174591  -0.000115   0.010206  -0.011308
 697   9   8.080790  10.116649   7.135985  -0.000043   0.014404  -0.002979
 698  14   6.947994  10.767467   6.538879  -0.000128   0.011814  -0.010824
 699   9   8.048526  10.780125   6.398252  -0.000051   0.016674  -0.003034
 700  18   6.110300   4.617174   8.178626  -0.000652   0.244474  -0.002666
 701   9   8.050165   5.371121   7.483733   0.001923   0.374385   0.005137
 702   9  12.911574   8.463885   5.101425  -0.000116   0.007935  -0.014581
 703  19  12.806619   8.683217   5.271401  -0.000110   0.007935  -0.013881
 704  21  13.309891   8.020749   4.656922  -0.000129   0.007935  -0.016311
 705   9  12.901471   8.751288   4.780621  -0.000115   0.007935  -0.014525
 706  19  12.797558   8.940991   4.983669  -0.000128   0.007935  -0.016076
 707  21  13.301009   8.273420   4.374886  -0.000130   0.007935  -0.016413
 708  19  12.642966   9.488994   5.118795  -0.000498   0.065484  -0.007604
 709  19  12.144876  10.292317   4.604913  -0.000952   0.144793  -0.006575
 710  19  11.134156  11.106580   4.496163  -0.000757   0.144793  -0.005226
 711  19   9.997761  11.443942   5.035791  -0.000824   0.144793  -0.005693
 712  19   9.180241  11.172428   6.012698  -0.001113   0.144793  -0.007684
 713   9  12.523779   9.574135   4.554738  -0.000966   0.144029  -0.006710
 714   9  11.636346  10.631035   4.067757  -0.000632   0.144029  -0.004387
 715   9  10.366385  11.312191   4.322610  -0.000555   0.144029  -0.003852
 716   9   9.210696  11.351138   5.219600  -0.000776   0.144029  -0.005385
 717   9   8.620639  10.944083   6.166359  -0.000570   0.080003  -0.007119
 718  19   9.040012  10.122355   7.329134  -0.000521   0.065074  -0.008003
 719  19   9.614595   9.332630   7.765127  -0.000898   0.143705  -0.006248
 720  19  10.668262   8.579520   7.768874  -0.000842   0.143705  -0.005862
 721  19  11.777819   8.331842   7.148436  -0.000786   0.143705  -0.005468
 722  19  12.514505   8.685306   6.143567  -0.001039   0.143705  -0.007228
 723   9   8.892729   9.586476   7.498949  -0.000925   0.143304  -0.006457
 724   9   9.864678   8.569396   7.871484  -0.000627   0.143304  -0.004374
 725   9  11.143379   7.977821   7.506952  -0.000579   0.143304  -0.004039
 726   9  12.234709   8.040353   6.546220  -0.000794   0.143304  -0.005537
 727   9  12.741836   8.513783   5.591034  -0.000454   0.079502  -0.005704
 728  11  13.265845   4.777679   0.392637  -0.000817   0.207936  -0.003928
 729  11  12.198131   6.336307  -0.514478   0.000334   0.426736   0.000783
 730  11  10.101606   7.766408  -0.416352   0.003177   0.426736   0.007445
 731  10  12.588284   4.951221  -0.371710  -0.001487   0.426736  -0.003485
 732  10  10.909971   6.738676  -1.033909   0.001987   0.426736   0.004655
 733  10   9.082328   7.647961  -0.559447   0.001455   0.207936   0.006998
 734  11   9.584392   3.346270   5.109571   0.001453   0.206996   0.007020
 735  11  11.388955   2.837848   4.192267   0.001959   0.424613   0.004614
 736  11  12.975040   3.344235   2.287216  -0.001464   0.424613  -0.003447
 737  10   9.975540   2.677641   4.425658   0.003108   0.424613   0.007319
 738  10  12.016321   2.489834   2.941996   0.000344   0.424613   0.000810
 739  10  12.994736   3.242710   1.259061  -0.000771   0.206996  -0.003727
 740  10  13.061827   3.917017   0.397855  -0.000127   0.008976  -0.014185
 741  20  12.973129   3.689132   0.229891  -0.000119   0.008976  -0.013298
 742  21  13.429933   4.385452   0.845212  -0.000146   0.008976  -0.016216
 743  10  13.074957   3.592164   0.759152  -0.000119   0.008976  -0.013271
 744  20  12.984905   3.397775   0.553934  -0.000140   0.008976  -0.015634
 745  21  13.441475   4.099898   1.162801  -0.000141   0.008976  -0.015671
 746  20  12.867576   2.839204   0.416694  -0.000494   0.065083  -0.007597
 747  20  12.425332   2.005428   0.920221  -0.000944   0.143733  -0.006569
 748  20  11.478440   1.127369   1.022059  -0.000748   0.143733  -0.005206
 749  20  10.374817   0.713570   0.484707  -0.000817   0.143733  -0.005688
 750  20   9.541100   0.923997  -0.484106  -0.001089   0.143733  -0.007575
 751  10  12.753083   2.744151   0.978471  -0.000973   0.143318  -0.006791
 752  10  11.942654   1.632291   1.453435  -0.000632   0.143318  -0.004411
 753  10  10.730553   0.868647   1.195994  -0.000559   0.143318  -0.003900
 754  10   9.585351   0.748430   0.305668  -0.000771   0.143318  -0.005376
 755  10   8.966589   1.108849  -0.633167  -0.000552   0.079513  -0.006948
 756  20   9.309267   1.933738  -1.777213  -0.000513   0.065257  -0.007858
 757  20   9.810218   2.767632  -2.228593  -0.000892   0.144194  -0.006186
 758  20  10.799746   3.608059  -2.251968  -0.000837   0.144194  -0.005807
 759  20  11.895465   3.951172  -1.645582  -0.000784   0.144194  -0.005439
 760  20  12.671575   3.663636  -0.645079  -0.001039   0.144194  -0.007207
 761  10   9.115365   2.454707  -1.949102  -0.000922   0.143627  -0.006420
 762  10   9.995379   3.549497  -2.343736  -0.000618   0.143627  -0.004302
 763  10  11.228334   4.249295  -1.999016  -0.000580   0.143627  -0.004040
 764  10  12.335100   4.282157  -1.048902  -0.000799   0.143627  -0.005561
 765  10  12.890653   3.855256  -0.094801  -0.000456   0.079726  -0.005725
 766  21  13.838575   4.354056   1.430151  -0.000104   0.008531  -0.012189
 767  10  13.216616   3.637865   0.849424  -0.000054   0.012039  -0.004501
 768  21  13.849977   7.450987   4.502674  -0.000533   0.066816  -0.007975
 769  21  13.885961   6.405520   4.831250  -0.000903   0.148356  -0.006085
 770  21  13.929561   5.115059   4.528558  -0.000865   0.148356  -0.005828
 771  21  13.957160   4.270050   3.506791  -0.000788   0.148356  -0.005310
 772  21  13.957528   4.214369   2.181758  -0.001067   0.148356  -0.007190
 773  11  13.533743   7.148296   4.895483  -0.000971   0.146362  -0.006631
 774  11  13.584392   5.665868   5.035874  -0.000649   0.146362  -0.004435
 775  11  13.626590   4.400210   4.250889  -0.000615   0.146362  -0.004199
 776  11  13.643166   3.866386   2.859980  -0.000816   0.146362  -0.005576
 777  11  13.635402   4.053866   1.664406  -0.000463   0.081630  -0.005676
 778  21  13.929209   5.005670   0.994563  -0.000510   0.066948  -0.007623
 779  21  13.892948   6.060028   0.688397  -0.000976   0.148712  -0.006566
 780  21  13.849554   7.345465   1.021241  -0.000752   0.148712  -0.005054
 781  21  13.822783   8.166901   2.065054  -0.000847   0.148712  -0.005697
 782  21  13.823571   8.188758   3.393414  -0.001091   0.148712  -0.007336
 783  11  13.591903   5.295355   0.608734  -0.001002   0.146593  -0.006836
 784  11  13.541109   6.783144   0.501285  -0.000636   0.146593  -0.004341
 785  11  13.499515   8.032107   1.317373  -0.000587   0.146593  -0.004003
 786  11  13.484112   8.532015   2.723608  -0.000821   0.146593  -0.005598
 787  11  13.492941   8.313182   3.916111  -0.000608   0.081792  -0.007428
 788  15   3.633411   3.508167  -1.389079  -0.000991   0.326432  -0.003036
 789  12   2.424382   4.703009  -1.177371  -0.001092   0.326432  -0.003346
 790  14   3.397200  10.202164   4.822037  -0.001257   0.262932  -0.004780
 791  14   3.226887   9.762925   5.975696  -0.004215   0.526155  -0.008011
 792  13   2.084742   9.461534   4.862607  -0.004065   0.526155  -0.007725
 793  13   1.972295   8.927058   5.982677  -0.001872   0.262932  -0.007119
 794  16   0.227957   7.593563   7.501051  -0.000930   0.236966  -0.003923
 795  16  -0.670809   7.229616   6.925500  -0.003381   0.473964  -0.007134
 796  16  -1.265305   6.514153   6.288173  -0.001474   0.236966  -0.006219
 797  13   0.370645   8.120402   6.101867  -0.003900   0.473964  -0.008229
 798  13  -0.560856   7.447063   5.345270  -0.003770   0.473964  -0.007955
 799  18   4.358299   7.231253   8.779962  -0.001845   0.366277  -0.005037
 800  14   4.866106   8.572574   8.031756  -0.001354   0.366277  -0.003697
 801  19   8.602862  10.659284   6.841014  -0.000722   0.260289  -0.002774
 802  14   7.138344  10.497199   6.963921  -0.000827   0.260289  -0.003179
 803  20   8.922135   1.375342  -1.293385  -0.000630   0.238748  -0.002639
 804  15   7.449408   1.410995  -1.388978  -0.000652   0.238748  -0.002732
 805  21  13.690958   8.063351   4.376950  -0.000273   0.130673  -0.002092
 806  19  12.918469   8.937349   5.287873  -0.000165   0.130673  -0.001264
 807  21  13.815732   4.350620   1.145789  -0.000287   0.147635  -0.001946
 808  20  13.103931   3.430468   0.227246  -0.000217   0.147635  -0.001471
 =====================================================

              6103791  WORDS OF DYNAMIC MEMORY USED
 EXECUTION OF GAMESS TERMINATED NORMALLY Wed Nov 23 20:26:54 2016
 DDI: 263640 bytes (0.3 MB / 0 MWords) used by master data server.

 ----------------------------------------
 CPU timing information for all processes
 ========================================
 0: 6946.224 + 1.992 = 6948.216
 ----------------------------------------
 ddikick.x: exited gracefully.
