----- GAMESS execution script -----

          ******************************************************
          *         GAMESS VERSION =  5 DEC 2014 (R1)          *
          *             FROM IOWA STATE UNIVERSITY             *
          * M.W.SCHMIDT, K.K.BALDRIDGE, J.A.BOATZ, S.T.ELBERT, *
          *   M.S.GORDON, J.H.JENSEN, S.KOSEKI, N.MATSUNAGA,   *
          *          K.A.NGUYEN, S.J.SU, T.L.WINDUS,           *
          *       TOGETHER WITH M.DUPUIS, J.A.MONTGOMERY       *
          *         J.COMPUT.CHEM.  14, 1347-1363(1993)        *
          **************** 64 BIT LINUX VERSION ****************

 EXECUTION OF GAMESS BEGUN Wed Nov 23 18:24:40 2016

            ECHO OF THE FIRST FEW INPUT CARDS -
 INPUT CARD>! SELECT RESTRICTED HARTREE-FOCK AS DEFAULT                                     
 INPUT CARD>$contrl scftyp=rhf $end                                                         
 INPUT CARD>                                                                                
 INPUT CARD>! THEORY: HF OR DFT                                                             
 INPUT CARD> $contrl mplevl=0 $end                                                          
 INPUT CARD>                                                                                
 INPUT CARD> $system timlim=10000 mwords=20 $end                                            
 INPUT CARD> $SCF DIRSCF=.TRUE. $end                                                        
 INPUT CARD>                                                                                
 INPUT CARD>                                                                                
 INPUT CARD>! BASIS SETS                                                                    
 INPUT CARD>! 6-311G(d,p)                                                                   
 INPUT CARD> $BASIS GBASIS=N311 NGAUSS=6 NDFUNC=1 NPFUNC=1 $END                             
 INPUT CARD>                                                                                
 INPUT CARD>! One of the following                                                          
 INPUT CARD> $guess guess=HUCKEL $end                                                       
 INPUT CARD>                                                                                
 INPUT CARD> $statpt projct=.FALSE. $end                                                    
 INPUT CARD> $STATPT IFREEZ(1)=1,2,3 $END                                                   
 INPUT CARD>                                                                                
 INPUT CARD>! Optimize the geometry with COSMO effects                                      
 INPUT CARD> $statpt opttol=0.0005 nstep=50 $end                                            
 INPUT CARD> $contrl nzvar=1 $end                                                           
 INPUT CARD> $zmat dlc=.t. auto=.t. $end                                                    
 INPUT CARD> $contrl runtyp=OPTIMIZE maxit=200 $end                                         
 INPUT CARD>                                                                                
 INPUT CARD>! Run COSMO on perfect conductor                                                
 INPUT CARD> $COSGMS PRFCND=.TRUE. $end                                                     
 INPUT CARD>                                                                                
 INPUT CARD>! Specifying RSOLV                                                              
 INPUT CARD> $COSGMS COSRAD = 1.4 $end                                                      
 INPUT CARD>                                                                                
 INPUT CARD>! available memory                                                              
 INPUT CARD> $SYSTEM MWORDS=40 $END                                                         
 INPUT CARD>                                                                                
 INPUT CARD> $DATA                                                                          
 INPUT CARD>7505 benzonitrile (http://www.chemspider.com/)                                  
 INPUT CARD>C1                                                                              
 INPUT CARD>N      7.0     -1.7742000000   -3.0731000000   -0.0000000000                    
 INPUT CARD>C      6.0     -0.5493000000   -0.9514000000   -0.0000000000                    
 INPUT CARD>C      6.0      0.8637000000   -0.9461000000    0.0000000000                    
 INPUT CARD>C      6.0     -1.2512000000    0.2749000000    0.0000000000                    
 INPUT CARD>C      6.0      1.5655000000    0.2742000000   -0.0000000000                    
 INPUT CARD>C      6.0     -0.5453000000    1.4928000000   -0.0000000000                    
 INPUT CARD>C      6.0      0.8620000000    1.4931000000    0.0000000000                    
 INPUT CARD>C      6.0     -1.2001000000   -2.0786000000   -0.0000000000                    
 INPUT CARD>H      1.0      1.3993000000   -1.8202000000    0.0000000000                    
 INPUT CARD>H      1.0     -2.2760000000    0.3018000000    0.0000000000                    
 INPUT CARD>H      1.0      2.5882000000    0.2752000000    0.0000000000                    
 INPUT CARD>H      1.0     -1.0558000000    2.3790000000    0.0000000000                    
   40000000 WORDS OF MEMORY AVAILABLE

     BASIS OPTIONS
     -------------
     GBASIS=N311         IGAUSS=       6      POLAR=POPN311 
     NDFUNC=       1     NFFUNC=       0     DIFFSP=       F
     NPFUNC=       1      DIFFS=       F     BASNAM=        


     RUN TITLE
     ---------
 7505 benzonitrile (http://www.chemspider.com/)                                  

 THE POINT GROUP OF THE MOLECULE IS C1      
 THE ORDER OF THE PRINCIPAL AXIS IS     0

 ATOM      ATOMIC                      COORDINATES (BOHR)
           CHARGE         X                   Y                   Z
 N           7.0    -3.3527518474       -5.8073169329       -0.0000000000
 C           6.0    -1.0380264851       -1.7978853047       -0.0000000000
 C           6.0     1.6321563356       -1.7878697570        0.0000000000
 C           6.0    -2.3644251558        0.5194856740        0.0000000000
 C           6.0     2.9583660338        0.5181628658       -0.0000000000
 C           6.0    -1.0304675811        2.8209829545       -0.0000000000
 C           6.0     1.6289438014        2.8215498723        0.0000000000
 C           6.0    -2.2678601579       -3.9279844381       -0.0000000000
 H           1.0     2.6442935746       -3.4396792429        0.0000000000
 H           1.0    -4.3010163481        0.5703193031        0.0000000000
 H           1.0     4.8909888014        0.5200525918        0.0000000000
 H           1.0    -1.9951726978        4.4956581248        0.0000000000
 H           1.0     2.5949717263        4.4947132618       -0.0000000000

          INTERNUCLEAR DISTANCES (ANGS.)




     $CONTRL OPTIONS
     ---------------
 SCFTYP=RHF          RUNTYP=OPTIMIZE     EXETYP=RUN     
 MPLEVL=       0     CITYP =NONE         CCTYP =NONE         VBTYP =NONE    
 DFTTYP=NONE         TDDFT =NONE    
 MULT  =       1     ICHARG=       0     NZVAR =       1     COORD =UNIQUE  
 PP    =NONE         RELWFN=NONE         LOCAL =NONE         NUMGRD=       F
 ISPHER=      -1     NOSYM =       0     MAXIT =     200     UNITS =ANGS    
 PLTORB=       F     MOLPLT=       F     AIMPAC=       F     FRIEND=        
 NPRINT=       7     IREST =       0     GEOM  =INPUT   
 NORMF =       0     NORMP =       0     ITOL  =      20     ICUT  =       9
 INTTYP=BEST         GRDTYP=BEST         QMTTOL= 1.0E-06

     $SYSTEM OPTIONS
     ---------------
  REPLICATED MEMORY=    40000000 WORDS (ON EVERY NODE).
 DISTRIBUTED MEMDDI=           0 MILLION WORDS IN AGGREGATE,
 MEMDDI DISTRIBUTED OVER   1 PROCESSORS IS           0 WORDS/PROCESSOR.
 TOTAL MEMORY REQUESTED ON EACH PROCESSOR=    40000000 WORDS.
 TIMLIM=       10000.00 MINUTES, OR       6.9 DAYS.
 PARALL= F  BALTYP=  DLB     KDIAG=    0  COREFL= F
 MXSEQ2=     300 MXSEQ3=     150  mem10=         0

     $COSGMS OPTIONS
     ---------------
     EPSI  =   INFTY     NSPA  =      92     COSRAD=    1.40
     DISEX =   10.00     OUTCHG=DBLCAV       COSBUG=       F
     COSWRT=       F     DCOSMO=       F

     SYMMETRY COORDINATES WILL NOT BE USED FOR 
     THE COSMO CALCULATION, EVEN IF SPECIFIED:
         -- SWITCHING TO C1 POINT GROUP --


     DEFINITION OF CAVITY
     ---------------------------
     ATOM         COORDINATES           RADIUS 
     1   -3.3528   -5.8073   -0.0000    1.8300
     2   -1.0380   -1.7979   -0.0000    2.0000
     3    1.6322   -1.7879    0.0000    2.0000
     4   -2.3644    0.5195    0.0000    2.0000
     5    2.9584    0.5182   -0.0000    2.0000
     6   -1.0305    2.8210   -0.0000    2.0000
     7    1.6289    2.8215    0.0000    2.0000
     8   -2.2679   -3.9280   -0.0000    2.0000
     9    2.6443   -3.4397    0.0000    1.3000
    10   -4.3010    0.5703    0.0000    1.3000
    11    4.8910    0.5201    0.0000    1.3000
    12   -1.9952    4.4957    0.0000    1.3000
    13    2.5950    4.4947   -0.0000    1.3000

          ----------------
          PROPERTIES INPUT
          ----------------

     MOMENTS            FIELD           POTENTIAL          DENSITY
 IEMOM =       1   IEFLD =       0   IEPOT =       0   IEDEN =       0
 WHERE =COMASS     WHERE =NUCLEI     WHERE =NUCLEI     WHERE =NUCLEI  
 OUTPUT=BOTH       OUTPUT=BOTH       OUTPUT=BOTH       OUTPUT=BOTH    
 IEMINT=       0   IEFINT=       0                     IEDINT=       0
                                                       MORB  =       0
          EXTRAPOLATION IN EFFECT
          SOSCF IN EFFECT
 ORBITAL PRINTING OPTION: NPREO=     1   182     2     1

     -------------------------------
     INTEGRAL TRANSFORMATION OPTIONS
     -------------------------------
     NWORD  =            0
     CUTOFF = 1.0E-09     MPTRAN =       0
     DIRTRF =       T     AOINTS =DUP     

          ----------------------
          INTEGRAL INPUT OPTIONS
          ----------------------
 NOPK  =       1 NORDER=       0 SCHWRZ=       T


 -----------------------------------------------
  STATISTICS ON AUTOMATIC COORDINATE GENERATION 
 -----------------------------------------------
  NUMBER OF USER SPECIFIED BONDS                             0
  NUMBER OF BONDS                                           13
  NUMBER OF ANGLES                                          19
  NUMBER OF TORSIONS                                        26
  NUMBER OF EXTRA COORD.                                     0
  NUMBER OF EXTRA COORD. FOR CONSTRAINTS                     0
  NUMBER OF CONSTRAINED COORD.                               0

  TOTAL NUMBER OF PRIMITIVES                                58
 -----------------------------------------------

   --- ENCODED Z MATRIX ---
 COORD  TYPE   I   J   K   L   M   N
    1      1    1   8
    2      1    2   3
    3      1    2   8
    4      1    2   4
    5      1    3   5
    6      1    3   9
    7      1    4  10
    8      1    4   6
    9      1    5  11
   10      1    5   7
   11      1    6   7
   12      1    6  12
   13      1    7  13
   14      2    1   8   2
   15      2    2   3   5
   16      2    2   3   9
   17      2    2   4   6
   18      2    2   4  10
   19      2    3   5   7
   20      2    3   5  11
   21      2    3   2   8
   22      2    3   2   4
   23      2    4   6  12
   24      2    4   6   7
   25      2    4   2   8
   26      2    5   3   9
   27      2    5   7  13
   28      2    5   7   6
   29      2    6   4  10
   30      2    6   7  13
   31      2    7   5  11
   32      2    7   6  12
   33      3    1   8   2   3
   34      3    1   8   2   4
   35      3    2   4   6  12
   36      3    2   3   5   7
   37      3    2   4   6   7
   38      3    2   3   5  11
   39      3    3   2   4  10
   40      3    3   5   7  13
   41      3    3   2   4   6
   42      3    3   5   7   6
   43      3    4   6   7  13
   44      3    4   6   7   5
   45      3    4   2   3   9
   46      3    4   2   3   5
   47      3    5   3   2   8
   48      3    5   7   6  12
   49      3    6   7   5  11
   50      3    6   4   2   8
   51      3    7   6   4  10
   52      3    7   5   3   9
   53      3    8   2   4  10
   54      3    8   2   3   9
   55      3    9   3   5  11
   56      3   10   4   6  12
   57      3   11   5   7  13
   58      3   12   6   7  13

          INDEP./SYM. INTERNAL COORDINATES
          --------------------------------
 CRD  1=  -0.1956 (  2)  0.1956 (  4) -0.1402 (  5)  0.1402 (  8) -0.4570 ( 14)
           0.1045 ( 15) -0.1200 ( 16) -0.1045 ( 17)  0.1199 ( 18) -0.5484 ( 21)
           0.5484 ( 25)
 CRD  2=  -0.2990 (  1) -0.2673 (  2) -0.5312 (  3) -0.2674 (  4) -0.2362 (  5)
          -0.2362 (  8)  0.1149 ( 10)  0.1149 ( 11) -0.1080 ( 15) -0.1080 ( 17)
          -0.1065 ( 19) -0.1693 ( 21)  0.3386 ( 22) -0.1065 ( 24) -0.1693 ( 25)
           0.1437 ( 26)  0.1437 ( 29)  0.1700 ( 31)  0.1700 ( 32)
 CRD  3=   0.2671 (  2)  0.2671 (  4) -0.2306 (  5)  0.1017 (  6)  0.1016 (  7)
          -0.2308 (  8) -0.2766 ( 10) -0.2768 ( 11) -0.3018 ( 13) -0.1609 ( 15)
           0.3045 ( 16) -0.1608 ( 17)  0.3045 ( 18)  0.1253 ( 20)  0.1253 ( 23)
          -0.1435 ( 26) -0.1448 ( 27)  0.2896 ( 28) -0.1437 ( 29) -0.1449 ( 30)
          -0.1039 ( 31) -0.1039 ( 32)
 CRD  4=  -0.3111 (  5) -0.1827 (  6)  0.1828 (  7)  0.3111 (  8) -0.3172 ( 10)
           0.3171 ( 11)  0.1848 ( 15)  0.1275 ( 16) -0.1849 ( 17) -0.1274 ( 18)
          -0.3123 ( 26) -0.3175 ( 27)  0.3123 ( 29)  0.3174 ( 30)
 CRD  5=   0.1547 ( 35) -0.1546 ( 38) -0.1090 ( 39) -0.1771 ( 40) -0.2618 ( 41)
          -0.1827 ( 42)  0.1771 ( 43)  0.1827 ( 44)  0.1091 ( 45)  0.2617 ( 46)
           0.4556 ( 47) -0.4556 ( 50) -0.1083 ( 51)  0.1083 ( 52) -0.3029 ( 53)
           0.3029 ( 54)
 CRD  6=  -0.1790 (  2)  0.1801 (  4) -0.2032 (  5)  0.1494 (  6) -0.1487 (  7)
           0.2033 (  8) -0.2745 (  9)  0.1120 ( 10) -0.1105 ( 11)  0.2753 ( 12)
          -0.2381 ( 15)  0.2304 ( 16)  0.2379 ( 17) -0.2300 ( 18)  0.3417 ( 19)
          -0.2855 ( 20)  0.2851 ( 23) -0.3420 ( 24)
 CRD  7=  -0.3257 (  2) -0.3251 (  4) -0.1865 (  6) -0.1870 (  7) -0.2345 (  9)
          -0.4230 ( 10) -0.4233 ( 11) -0.2336 ( 12) -0.1223 ( 16) -0.1231 ( 18)
           0.1289 ( 20) -0.1329 ( 22)  0.1299 ( 23) -0.1132 ( 28) -0.2129 ( 31)
          -0.2127 ( 32)
 CRD  8=  -0.3316 (  5) -0.1679 (  6) -0.1679 (  7) -0.3315 (  8) -0.1246 (  9)
          -0.1246 ( 12)  0.1126 ( 15)  0.1772 ( 16)  0.1126 ( 17)  0.1772 ( 18)
          -0.3100 ( 20) -0.1846 ( 22) -0.3100 ( 23) -0.2898 ( 26) -0.1862 ( 28)
          -0.2898 ( 29)  0.2371 ( 31)  0.2372 ( 32)
 CRD  9=  -0.1695 (  5)  0.1694 (  8)  0.2256 ( 10) -0.2256 ( 11)  0.1291 ( 15)
          -0.1290 ( 17) -0.1135 ( 19) -0.2484 ( 20)  0.2483 ( 23)  0.1135 ( 24)
          -0.1925 ( 26)  0.3717 ( 27)  0.1924 ( 29) -0.3717 ( 30)  0.3619 ( 31)
          -0.3618 ( 32)
 CRD 10=  -0.1741 (  1) -0.2443 (  3)  0.2870 (  6)  0.2870 (  7) -0.2739 (  9)
          -0.2739 ( 12)  0.3885 ( 13) -0.1519 ( 15)  0.1367 ( 16) -0.1519 ( 17)
           0.1367 ( 18)  0.2552 ( 19) -0.1227 ( 20) -0.1227 ( 23)  0.2552 ( 24)
           0.1413 ( 27) -0.2826 ( 28)  0.1413 ( 30) -0.1325 ( 31) -0.1325 ( 32)
 CRD 11=  -0.2814 ( 35) -0.3584 ( 36) -0.3583 ( 37) -0.2814 ( 38)  0.1016 ( 39)
           0.1792 ( 40)  0.1789 ( 41)  0.1792 ( 42)  0.1792 ( 43)  0.1792 ( 44)
           0.1016 ( 45)  0.1789 ( 46)  0.1789 ( 47)  0.1022 ( 48)  0.1023 ( 49)
           0.1788 ( 50) -0.2831 ( 51) -0.2831 ( 52)  0.1015 ( 53)  0.1016 ( 54)
          -0.2061 ( 55) -0.2062 ( 56)  0.1023 ( 57)  0.1022 ( 58)
 CRD 12=   0.3236 (  2) -0.3236 (  4)  0.2222 (  6) -0.2223 (  7) -0.6998 ( 14)
           0.2456 ( 16) -0.2456 ( 18) -0.1480 ( 26)  0.1479 ( 29)
 CRD 13=  -0.1524 ( 33)  0.1525 ( 34)  0.2254 ( 35) -0.2253 ( 38)  0.2829 ( 39)
           0.1108 ( 41)  0.2590 ( 42) -0.2590 ( 44) -0.2829 ( 45) -0.1108 ( 46)
           0.1922 ( 47) -0.4105 ( 48)  0.4105 ( 49) -0.1922 ( 50)  0.2017 ( 57)
          -0.2017 ( 58)
 CRD 14=   0.5207 (  1)  0.3892 (  3) -0.1739 (  5)  0.1954 (  6)  0.1954 (  7)
          -0.1739 (  8) -0.2692 (  9) -0.2692 ( 12) -0.1392 ( 13) -0.1241 ( 15)
          -0.1194 ( 16) -0.1240 ( 17) -0.1195 ( 18) -0.1010 ( 20)  0.1909 ( 22)
          -0.1010 ( 23)  0.2435 ( 26)  0.2435 ( 29)
 CRD 15=   0.1408 ( 36) -0.1408 ( 37)  0.3003 ( 39) -0.3549 ( 40)  0.1127 ( 41)
          -0.1681 ( 42)  0.3549 ( 43)  0.1681 ( 44) -0.3002 ( 45) -0.1127 ( 46)
          -0.3234 ( 51)  0.3234 ( 52)  0.2174 ( 53) -0.2174 ( 54)  0.1683 ( 55)
          -0.1684 ( 56) -0.1999 ( 57)  0.2000 ( 58)
 CRD 16=  -0.3395 (  6)  0.3395 (  7) -0.4615 (  9)  0.4615 ( 12) -0.2599 ( 14)
           0.1317 ( 20)  0.1365 ( 21) -0.1317 ( 23) -0.1365 ( 25)  0.2606 ( 27)
          -0.2606 ( 30) -0.1311 ( 31)  0.1311 ( 32)
 CRD 17=  -0.2487 (  1)  0.2349 (  5)  0.2631 (  6)  0.2631 (  7)  0.2349 (  8)
          -0.1108 ( 10) -0.1108 ( 11) -0.6530 ( 13) -0.2231 ( 20) -0.1635 ( 22)
          -0.2231 ( 23)  0.1744 ( 31)  0.1745 ( 32)
 CRD 18=   0.2025 (  2) -0.2025 (  4)  0.3993 (  6) -0.3992 (  7) -0.3283 (  9)
          -0.2266 ( 10)  0.2266 ( 11)  0.3283 ( 12)  0.1625 ( 14)  0.1147 ( 15)
          -0.1994 ( 16) -0.1147 ( 17)  0.1995 ( 18) -0.1103 ( 19)  0.1103 ( 24)
           0.2082 ( 31) -0.2082 ( 32)
 CRD 19=   0.1337 (  6) -0.1337 (  7)  0.3640 ( 14)  0.2392 ( 16) -0.2392 ( 18)
           0.2543 ( 20) -0.2824 ( 21) -0.2543 ( 23)  0.2824 ( 25) -0.2737 ( 26)
           0.2818 ( 27)  0.2736 ( 29) -0.2818 ( 30) -0.2254 ( 31)  0.2254 ( 32)
 CRD 20=  -0.4593 (  1)  0.2769 (  2)  0.1701 (  3)  0.2769 (  4) -0.2741 (  6)
          -0.2741 (  7) -0.3889 (  9)  0.1755 ( 10)  0.1755 ( 11) -0.3889 ( 12)
          -0.1300 ( 16) -0.1300 ( 18)  0.1188 ( 26)  0.1188 ( 29)
 CRD 21=  -0.5193 (  1)  0.4434 (  3) -0.2318 (  5)  0.2540 (  6)  0.2540 (  7)
          -0.2319 (  8)  0.1667 (  9) -0.1663 ( 10) -0.1663 ( 11)  0.1667 ( 12)
           0.3382 ( 13) -0.1189 ( 16) -0.1190 ( 18)
 CRD 22=   0.1577 ( 33) -0.1577 ( 34)  0.2896 ( 35) -0.2896 ( 38) -0.1789 ( 39)
          -0.3245 ( 40) -0.1242 ( 41)  0.3246 ( 43)  0.1788 ( 45)  0.1242 ( 46)
          -0.1891 ( 47) -0.2147 ( 48)  0.2147 ( 49)  0.1891 ( 50)  0.1034 ( 51)
          -0.1034 ( 52)  0.1345 ( 53) -0.1345 ( 54) -0.3428 ( 55)  0.3428 ( 56)
 CRD 23=  -0.3612 (  2)  0.3611 (  4)  0.3670 (  5) -0.3670 (  8) -0.3627 ( 10)
           0.3627 ( 11) -0.1442 ( 14)  0.1282 ( 16) -0.1282 ( 18) -0.1293 ( 20)
           0.1078 ( 21)  0.1293 ( 23) -0.1078 ( 25) -0.1259 ( 26)  0.1256 ( 27)
           0.1259 ( 29) -0.1256 ( 30)  0.1286 ( 31) -0.1286 ( 32)
 CRD 24=  -0.1757 (  2)  0.1756 (  4) -0.3401 (  5)  0.2335 (  6) -0.2335 (  7)
           0.3401 (  8)  0.2287 (  9) -0.1613 ( 10)  0.1614 ( 11) -0.2287 ( 12)
          -0.1616 ( 14)  0.1145 ( 15) -0.1774 ( 16) -0.1144 ( 17)  0.1775 ( 18)
           0.1064 ( 19)  0.2245 ( 21) -0.1065 ( 24) -0.2245 ( 25)  0.2431 ( 27)
          -0.2431 ( 30) -0.1808 ( 31)  0.1807 ( 32)
 CRD 25=  -0.2394 (  2) -0.2394 (  4)  0.2691 (  6)  0.2691 (  7) -0.2565 (  9)
           0.2428 ( 10)  0.2427 ( 11) -0.2564 ( 12)  0.1998 ( 15)  0.1998 ( 17)
          -0.1962 ( 19)  0.2748 ( 20)  0.2748 ( 23) -0.1962 ( 24) -0.2671 ( 26)
          -0.2671 ( 29)
 CRD 26=   0.2183 (  1)  0.1487 (  2) -0.4267 (  3)  0.1487 (  4)  0.1173 (  6)
           0.1173 (  7) -0.1486 (  9) -0.1610 ( 10) -0.1611 ( 11) -0.1486 ( 12)
           0.3487 ( 13)  0.1609 ( 15) -0.1776 ( 16)  0.1608 ( 17) -0.1776 ( 18)
          -0.1731 ( 19)  0.1274 ( 21) -0.2548 ( 22) -0.1731 ( 24)  0.1274 ( 25)
          -0.1397 ( 27)  0.2793 ( 28) -0.1397 ( 30)  0.2075 ( 31)  0.2075 ( 32)
 CRD 27=  -0.2876 ( 35) -0.2876 ( 38) -0.2918 ( 39) -0.2918 ( 45)  0.2881 ( 48)
           0.2881 ( 49)  0.2846 ( 51)  0.2846 ( 52) -0.2918 ( 53) -0.2918 ( 54)
           0.2881 ( 57)  0.2881 ( 58)
 CRD 28=  -0.3109 (  2)  0.3109 (  4)  0.1919 (  6) -0.1919 (  7) -0.1991 (  9)
           0.3218 ( 10) -0.3218 ( 11)  0.1991 ( 12) -0.1191 ( 14)  0.1992 ( 15)
          -0.1992 ( 17) -0.2049 ( 19)  0.1926 ( 20)  0.1557 ( 21) -0.1926 ( 23)
           0.2049 ( 24) -0.1558 ( 25) -0.1931 ( 26) -0.1889 ( 27)  0.1931 ( 29)
           0.1889 ( 30)
 CRD 29=   0.1883 (  2) -0.2588 (  3)  0.1883 (  4) -0.3595 (  5)  0.1048 (  6)
           0.1047 (  7) -0.3595 (  8)  0.1095 (  9)  0.1776 ( 10)  0.1775 ( 11)
           0.1095 ( 12) -0.2170 ( 13)  0.1175 ( 15) -0.2191 ( 16)  0.1174 ( 17)
          -0.2191 ( 18)  0.1141 ( 19)  0.1181 ( 21) -0.2362 ( 22)  0.1141 ( 24)
           0.1181 ( 25)  0.1017 ( 26)  0.1134 ( 27) -0.2269 ( 28)  0.1017 ( 29)
           0.1135 ( 30) -0.2111 ( 31) -0.2111 ( 32)
 CRD 30=  -0.1517 ( 33)  0.1517 ( 34) -0.1850 ( 35)  0.1849 ( 38) -0.2090 ( 40)
           0.2847 ( 41)  0.2032 ( 42)  0.2090 ( 43) -0.2032 ( 44) -0.2847 ( 46)
           0.2292 ( 51) -0.2292 ( 52) -0.2951 ( 53)  0.2951 ( 54) -0.3523 ( 57)
           0.3523 ( 58)
 CRD 31=  -0.2819 ( 36) -0.2819 ( 37) -0.2088 ( 39)  0.1409 ( 40)  0.1407 ( 41)
           0.1410 ( 42)  0.1409 ( 43)  0.1409 ( 44) -0.2088 ( 45)  0.1407 ( 46)
           0.1407 ( 47) -0.2044 ( 48) -0.2045 ( 49)  0.1407 ( 50) -0.2088 ( 53)
          -0.2088 ( 54)  0.4038 ( 55)  0.4037 ( 56) -0.2045 ( 57) -0.2044 ( 58)
 CRD 32=  -0.3025 ( 36)  0.3026 ( 37) -0.2719 ( 41)  0.3313 ( 42) -0.3314 ( 44)
           0.2719 ( 46)  0.1941 ( 53) -0.1940 ( 54)  0.2768 ( 55) -0.2768 ( 56)
          -0.3048 ( 57)  0.3049 ( 58)
 CRD 33=   0.7071 ( 33)  0.7071 ( 34)

 THE DETERMINANT OF THE G MATRIX IS 10**(    -8)


                     --------------------
                     INTERNAL COORDINATES
                     --------------------

                 - - ATOMS - -         COORDINATE      COORDINATE
 NO.   TYPE    I  J  K  L  M  N        (BOHR,RAD)       (ANG,DEG)
 ----------------------------------------------------------------
   1 STRETCH   1  8                     2.1699955       1.1483123
   2 STRETCH   2  3                     2.6702016       1.4130099
   3 STRETCH   2  8                     2.4596368       1.3015838
   4 STRETCH   2  4                     2.6701202       1.4129668
   5 STRETCH   3  5                     2.6601915       1.4077128
   6 STRETCH   3  9                     1.9372394       1.0251430
   7 STRETCH   4 10                     1.9372582       1.0251530
   8 STRETCH   4  6                     2.6601377       1.4076843
   9 STRETCH   5 11                     1.9326237       1.0227005
  10 STRETCH   5  7                     2.6595028       1.4073484
  11 STRETCH   6  7                     2.6594114       1.4073000
  12 STRETCH   6 12                     1.9326647       1.0227222
  13 STRETCH   7 13                     1.9320160       1.0223789
  14 BEND      1  8  2                  3.1415290     179.9963552
  15 BEND      2  3  5                  2.0964600     120.1183094
  16 BEND      2  3  9                  2.1167833     121.2827480
  17 BEND      2  4  6                  2.0964479     120.1176163
  18 BEND      2  4 10                  2.1168965     121.2892341
  19 BEND      3  5  7                  2.0962240     120.1047877
  20 BEND      3  5 11                  2.0936869     119.9594246
  21 BEND      3  2  8                  2.0981531     120.2153197
  22 BEND      3  2  4                  2.0869026     119.5707123
  23 BEND      4  6 12                  2.0936782     119.9589259
  24 BEND      4  6  7                  2.0962971     120.1089766
  25 BEND      4  2  8                  2.0981295     120.2139681
  26 BEND      5  3  9                  2.0699420     118.5989425
  27 BEND      5  7 13                  2.0945261     120.0075054
  28 BEND      5  7  6                  2.0940390     119.9795977
  29 BEND      6  4 10                  2.0698409     118.5931496
  30 BEND      6  7 13                  2.0946202     120.0128969
  31 BEND      7  5 11                  2.0932744     119.9357877
  32 BEND      7  6 12                  2.0932100     119.9320976
  33 TORSION   1  8  2  3               0.0000000       0.0000000
  34 TORSION   1  8  2  4               3.1415927     180.0000000
  35 TORSION   2  4  6 12               3.1415927     180.0000000
  36 TORSION   2  3  5  7               0.0000000       0.0000000
  37 TORSION   2  4  6  7               0.0000000       0.0000000
  38 TORSION   2  3  5 11               3.1415927     180.0000000
  39 TORSION   3  2  4 10               3.1415927     180.0000000
  40 TORSION   3  5  7 13               3.1415927     180.0000000
  41 TORSION   3  2  4  6               0.0000000       0.0000000
  42 TORSION   3  5  7  6               0.0000000       0.0000000
  43 TORSION   4  6  7 13               3.1415927     180.0000000
  44 TORSION   4  6  7  5               0.0000000       0.0000000
  45 TORSION   4  2  3  9               3.1415927     180.0000000
  46 TORSION   4  2  3  5               0.0000000       0.0000000
  47 TORSION   5  3  2  8               3.1415927     180.0000000
  48 TORSION   5  7  6 12               3.1415927     180.0000000
  49 TORSION   6  7  5 11               3.1415927     180.0000000
  50 TORSION   6  4  2  8               3.1415927     180.0000000
  51 TORSION   7  6  4 10               3.1415927     180.0000000
  52 TORSION   7  5  3  9               3.1415927     180.0000000
  53 TORSION   8  2  4 10               0.0000000       0.0000000
  54 TORSION   8  2  3  9               0.0000000       0.0000000
  55 TORSION   9  3  5 11               0.0000000       0.0000000
  56 TORSION  10  4  6 12               0.0000000       0.0000000
  57 TORSION  11  5  7 13               0.0000000       0.0000000
  58 TORSION  12  6  7 13               0.0000000       0.0000000

     ------------------------------------------
     THE POINT GROUP IS C1 , NAXIS= 1, ORDER= 1
     ------------------------------------------

     DIMENSIONS OF THE SYMMETRY SUBSPACES ARE
 A   =  182

 ..... DONE SETTING UP THE RUN .....
 STEP CPU TIME =     0.01 TOTAL CPU TIME =        0.0 (    0.0 MIN)
 TOTAL WALL CLOCK TIME=        0.0 SECONDS, CPU UTILIZATION IS  50.00%


          -----------------------------
          STATIONARY POINT LOCATION RUN
          -----------------------------

 OBTAINING INITIAL HESSIAN, HESS=GUESS   
 DIAGONAL GUESS HESSIAN IN INTERNAL COORDS IS
     1  0.6730     2  0.4609     3  0.5724     4  0.4610     5  0.4657
     6  0.3929     7  0.3929     8  0.4657     9  0.3948    10  0.4660
    11  0.4661    12  0.3948    13  0.3950    14  0.2874    15  0.2662
    16  0.2353    17  0.2662    18  0.2353    19  0.2666    20  0.2358
    21  0.2747    22  0.2658    23  0.2358    24  0.2666    25  0.2747
    26  0.2357    27  0.2359    28  0.2667    29  0.2357    30  0.2359
    31  0.2359    32  0.2359    33  0.2500    34  0.2500    35  0.2500
    36  0.2500    37  0.2500    38  0.2500    39  0.2500    40  0.2500
    41  0.2500    42  0.2500    43  0.2500    44  0.2500    45  0.2500
    46  0.2500    47  0.2500    48  0.2500    49  0.2500    50  0.2500
    51  0.2500    52  0.2500    53  0.2500    54  0.2500    55  0.2500
    56  0.2500    57  0.2500    58  0.2500
 TRANSFORMING HESSIAN TO SYMMETRY COORDINATES

          PARAMETERS CONTROLLING GEOMETRY SEARCH ARE
          METHOD =QA                  UPHESS =BFGS    
          NNEG   =         0          NFRZ   =         3
          NSTEP  =        50          IFOLOW =         1
          HESS   =GUESS               RESTAR =         F
          IHREP  =         0          HSSEND =         F
          NPRT   =         0          NPUN   =         0
          OPTTOL = 5.000E-04          RMIN   = 1.500E-03
          RMAX   = 1.000E-01          RLIM   = 7.000E-02
          DXMAX  = 3.000E-01          PURIFY =         F
          MOVIE  =         F          TRUPD  =         T
          TRMAX  = 5.000E-01          TRMIN  = 5.000E-02
          ITBMAT =         5          STPT   =         F
          STSTEP = 1.000E-02          PROJCT=          F
          FROZEN COORD(S)=   1   2   3


      ***** EQUILIBRIUM GEOMETRY LOCATED *****
            (SUBJECT TO   3 CONSTRAINT(S))
 COORDINATES OF ALL ATOMS ARE (ANGS)
   ATOM   CHARGE       X              Y              Z
 ------------------------------------------------------------
 N           7.0  -1.7857777377  -3.0931452638   0.0001378722
 C           6.0  -0.5103343589  -0.8839258773  -0.0002076890
 C           6.0   0.8760857213  -0.9237860180  -0.0000538568
 C           6.0  -1.2380736892   0.2968087887  -0.0000605002
 C           6.0   1.5575544724   0.2705748889   0.0000353969
 C           6.0  -0.5444749499   1.4841690784   0.0000415849
 C           6.0   0.8413250954   1.4572511703   0.0000717564
 C           6.0  -1.2217173915  -2.1161067914  -0.0000149709
 H           1.0   1.3987057669  -1.8638838575  -0.0000343243
 H           1.0  -2.3135317037   0.2793695407  -0.0000359505
 H           1.0   2.6306398933   0.2716918772   0.0001128270
 H           1.0  -1.0800648535   2.4140377767   0.0001175959
 H           1.0   1.3746408131   2.3810080192   0.0001660098


                     --------------------
                     INTERNAL COORDINATES
                     --------------------

                 - - ATOMS - -         COORDINATE      COORDINATE
 NO.   TYPE    I  J  K  L  M  N        (BOHR,RAD)       (ANG,DEG)
 ----------------------------------------------------------------
   1 STRETCH   1  8                     2.1319328       1.1281703
   2 STRETCH   2  3                     2.6210367       1.3869930
   3 STRETCH   2  8                     2.6886861       1.4227915
   4 STRETCH   2  4                     2.6210294       1.3869892
   5 STRETCH   3  5                     2.5985606       1.3750991
   6 STRETCH   3  9                     2.0325895       1.0756001
   7 STRETCH   4 10                     2.0325881       1.0755994
   8 STRETCH   4  6                     2.5985647       1.3751013
   9 STRETCH   5 11                     2.0278385       1.0730860
  10 STRETCH   5  7                     2.6192891       1.3860682
  11 STRETCH   6  7                     2.6192763       1.3860614
  12 STRETCH   6 12                     2.0278374       1.0730854
  13 STRETCH   7 13                     2.0156852       1.0666548
  14 BEND      1  8  2                  3.1415776     179.9991362
  15 BEND      2  3  5                  2.0605539     118.0610423
  16 BEND      2  3  9                  2.1069165     120.7174210
  17 BEND      2  4  6                  2.0605568     118.0612072
  18 BEND      2  4 10                  2.1069330     120.7183696
  19 BEND      3  5  7                  2.0800601     119.1786675
  20 BEND      3  5 11                  2.0903373     119.7675054
  21 BEND      3  2  8                  2.0656423     118.3525841
  22 BEND      3  2  4                  2.1518897     123.2941984
  23 BEND      4  6 12                  2.0903339     119.7673103
  24 BEND      4  6  7                  2.0800596     119.1786381
  25 BEND      4  2  8                  2.0656533     118.3532133
  26 BEND      5  3  9                  2.1157149     121.2215367
  27 BEND      5  7 13                  2.0749741     118.8872561
  28 BEND      5  7  6                  2.1332504     122.2262457
  29 BEND      6  4 10                  2.1156955     121.2204232
  30 BEND      6  7 13                  2.0749608     118.8864982
  31 BEND      7  5 11                  2.1127879     121.0538271
  32 BEND      7  6 12                  2.1127918     121.0540516
  33 TORSION   1  8  2  3               0.0018227       0.1044357
  34 TORSION   1  8  2  4               3.1394057     179.8746995
  35 TORSION   2  4  6 12               3.1415511     179.9976198
  36 TORSION   2  3  5  7               0.0000849       0.0048636
  37 TORSION   2  4  6  7              -0.0000642      -0.0036761
  38 TORSION   2  3  5 11              -3.1415476    -179.9974169
  39 TORSION   3  2  4 10              -3.1414268    -179.9904960
  40 TORSION   3  5  7 13               3.1415659     179.9984671
  41 TORSION   3  2  4  6               0.0001748       0.0100168
  42 TORSION   3  5  7  6               0.0000174       0.0009984
  43 TORSION   4  6  7 13              -3.1415766    -179.9990811
  44 TORSION   4  6  7  5              -0.0000281      -0.0016124
  45 TORSION   4  2  3  9               3.1414376     179.9911179
  46 TORSION   4  2  3  5              -0.0001854      -0.0106208
  47 TORSION   5  3  2  8              -3.1413645    -179.9869254
  48 TORSION   5  7  6 12               3.1415416     179.9970744
  49 TORSION   6  7  5 11              -3.1415349    -179.9966909
  50 TORSION   6  4  2  8               3.1413539     179.9863213
  51 TORSION   7  6  4 10               3.1415375     179.9968394
  52 TORSION   7  5  3  9              -3.1415383    -179.9968843
  53 TORSION   8  2  4 10              -0.0002477      -0.0141915
  54 TORSION   8  2  3  9               0.0002585       0.0148133
  55 TORSION   9  3  5 11               0.0000146       0.0008352
  56 TORSION  10  4  6 12              -0.0000325      -0.0018647
  57 TORSION  11  5  7 13               0.0000136       0.0007778
  58 TORSION  12  6  7 13              -0.0000069      -0.0003943

          INTERNUCLEAR DISTANCES (ANGS.)


 =====================================================
   GAMESS/COSab RESULTS
 =====================================================

   Dielectric Constant                  = INFTY
   Basic Grid Size                      =                 1082
   Number of Segments                   =                   92
   Number of Segments located on spheres=                  277
   Number of Segments of the cavity     =                  564
   Solvent Radius (rsolv)               = 1.40
   Outlying Charge Error Method         = double cavity

 =====================================================

  Total solvated Energy (a.u.)          =  -322.5202572486
  Total Energy corrected (a.u.)         =  -322.5202113119

  Outlying charge effect (a.u.)         =     0.0000459367
  Outlying charge effect (kcal/mol)     =     0.0288257345

  Dielectric Energy (a.u.)              =    -0.0160607331
  Dielectric energy corr. (a.u.)        =    -0.0160147964

  Sum of polarization charges           =     0.0197436258
  Sum of polarization charges(cor.)     =    -0.0197436258

  Total surface area of cavity (A**2)   =  144.15
  Total volume of cavity (A**3)         =  134.63

 =====================================================
 NPS=                   564
NR.  ATOM  (X, Y, Z)(a.u.)                  CHARGE(e)  AREA(A**2) SIGMA(e/A**2)
   1   1  -5.189344  -8.788948   0.017413   0.006841   0.427836   0.015990
   2   1  -5.899319  -6.176724  -2.339652   0.003849   0.388942   0.009895
   3   1  -6.641807  -5.749314   1.129616   0.003677   0.388942   0.009453
   4   1  -4.096847  -7.292065   3.057067   0.004041   0.388942   0.010390
   5   1  -1.684204  -8.746184   0.828458   0.003754   0.388942   0.009651
   6   1  -2.699299  -7.967731  -2.645112   0.003451   0.350048   0.009859
   7   1  -5.644496  -8.234857  -1.046827   0.006955   0.466730   0.014901
   8   1  -5.987458  -7.281742  -1.751488   0.004844   0.388942   0.012456
   9   1  -6.079248  -7.965726   0.384353   0.006888   0.466730   0.014759
  10   1  -6.590947  -6.896494   0.713830   0.004730   0.388942   0.012161
  11   1  -4.998052  -8.617405   1.280297   0.006999   0.466730   0.014996
  12   1  -4.412949  -8.206651   2.303420   0.005427   0.427836   0.012685
  13   1  -4.055751  -9.213115   0.390602   0.006502   0.427836   0.015197
  14   1  -2.854823  -9.218980   0.553940   0.004876   0.388942   0.012537
  15   1  -4.340516  -9.022326  -0.965191   0.008258   0.544519   0.015166
  16   1  -3.538892  -8.712691  -1.925798   0.005858   0.466730   0.012551
  17   1  -6.562900  -6.069004  -1.320335   0.003897   0.388942   0.010019
  18   1  -6.830291  -5.911471  -0.114260   0.004192   0.427836   0.009798
  19   1  -6.184777  -6.412896   1.934134   0.004481   0.427836   0.010474
  20   1  -5.167497  -6.915330   2.756984   0.004934   0.466730   0.010572
  21   1  -3.077271  -8.038242   2.657562   0.004869   0.466730   0.010431
  22   1  -2.282088  -8.572424   1.824469   0.004745   0.466730   0.010166
  23   1  -1.714689  -8.861056  -0.328965   0.004183   0.427836   0.009776
  24   1  -2.125605  -8.603332  -1.670621   0.004686   0.466730   0.010039
  25   1  -3.753323  -7.677693  -2.907962   0.005334   0.505625   0.010549
  26   1  -5.040195  -7.134227  -2.742636   0.004718   0.427836   0.011028
  27   1  -6.170093  -5.128982  -1.905404   0.002546   0.311154   0.008183
  28   1  -6.142505  -4.453377  -1.536237   0.001271   0.155577   0.008170
  29   1  -6.443414  -4.307924  -0.422167   0.001424   0.194471   0.007321
  30   1  -6.583785  -4.686098   0.563191   0.003345   0.388942   0.008599
  31   1  -6.199695  -4.859613   1.734242   0.003283   0.388942   0.008441
  32   1  -5.492036  -4.849009   2.546484   0.001948   0.233365   0.008347
  33   1  -4.678526  -5.588110   3.192880   0.001906   0.233365   0.008167
  34   1  -4.133658  -6.180392   3.357431   0.002794   0.311154   0.008978
  35   1  -3.010951  -6.956658   3.254717   0.002710   0.311154   0.008710
  36   1  -2.201620  -6.920029   3.070748   0.001594   0.194471   0.008196
  37   1  -1.031930  -7.854756   1.559936   0.003944   0.466730   0.008451
  38   1  -0.737072  -8.056480   0.335976   0.003225   0.388942   0.008292
  39   1  -0.627687  -7.836922  -0.667974   0.002353   0.272259   0.008642
  40   1  -1.045410  -7.603812  -1.854794   0.001615   0.233365   0.006922
  41   1  -1.687736  -7.522795  -2.509575   0.003653   0.388942   0.009393
  42   1  -2.551943  -6.934745  -3.177048   0.002918   0.350048   0.008336
  43   1  -3.272357  -6.128257  -3.444826   0.002212   0.233365   0.009478
  44   1  -4.417112  -5.524292  -3.281421   0.001723   0.233365   0.007383
  45   1  -5.053958  -6.099428  -3.012114   0.002885   0.311154   0.009273
  46   1  -6.504431  -7.182668  -0.611821   0.005972   0.466730   0.012795
  47   1  -5.744656  -7.660553   1.745700   0.007223   0.544519   0.013265
  48   1  -3.540801  -8.911957   1.589761   0.006133   0.466730   0.013141
  49   1  -2.907562  -9.197275  -0.710104   0.006396   0.505625   0.012649
  50   1  -4.842993  -8.141247  -2.128413   0.006175   0.466730   0.013231
  51   1  -6.628762  -4.979503  -0.787332   0.002662   0.311154   0.008554
  52   1  -5.580287  -5.731339   2.661308   0.003197   0.350048   0.009132
  53   1  -1.711969  -7.519862   2.528142   0.003830   0.427836   0.008953
  54   1  -1.177880  -8.235708  -1.190941   0.002392   0.272259   0.008784
  55   1  -3.997608  -6.566795  -3.323953   0.002850   0.311154   0.009160
  56   1  -3.305333  -6.098378   3.448474   0.001821   0.194471   0.009364
  57   1  -5.446853  -5.107257  -2.668164   0.002571   0.272259   0.009444
  58   2  -0.612388  -2.377174  -3.696449   0.000356   0.185824   0.001918
  59   2  -1.545144  -1.881336  -3.729000   0.000685   0.278737   0.002456
  60   2  -1.155710  -1.234769  -3.749783   0.000429   0.139368   0.003081
  61   2  -0.565253  -1.093715   3.713414   0.001713   0.371649   0.004609
  62   2  -0.535159  -2.464584   3.669653   0.000314   0.185824   0.001691
  63   2  -1.542499  -1.801599   3.732274   0.000932   0.371649   0.002508
  64   2  -0.448812  -1.281315  -3.724247   0.001077   0.232280   0.004637
  65   3   1.087424  -0.933476   3.647060   0.000393   0.092912   0.004230
  66   3   3.925742  -2.544975   2.913952   0.000537   0.325193   0.001651
  67   3   2.624199  -3.102190  -3.392140   0.000251   0.325193   0.000772
  68   3   3.065773  -3.838591  -2.813529  -0.000303   0.325193  -0.000930
  69   3   2.006959  -4.523267   2.538791  -0.000466   0.139368  -0.003345
  70   3   3.934085  -3.366383   2.542733  -0.000470   0.278737  -0.001685
  71   3   5.113491  -2.996611  -0.873131  -0.000601   0.092912  -0.006472
  72   3   4.681899  -2.940746   1.922763  -0.000410   0.185824  -0.002206
  73   3   3.048844  -3.122351   3.232219   0.000221   0.325193   0.000678
  74   3   1.744106  -3.810533   3.164224   0.000379   0.325193   0.001166
  75   3   1.805501  -3.792590  -3.173748   0.000338   0.325193   0.001040
  76   3   3.771285  -2.775434  -2.957734   0.000272   0.371649   0.000731
  77   3   4.731644  -2.963051  -1.827669  -0.000063   0.185824  -0.000341
  78   3   2.809808  -2.132051   3.577989   0.000974   0.325193   0.002996
  79   3   1.825923  -1.322014   3.751664   0.000846   0.232280   0.003641
  80   3   1.203604  -1.890564   3.749438   0.000748   0.185824   0.004027
  81   3   1.365465  -3.006271   3.551113   0.000297   0.232280   0.001277
  82   3   1.457701  -2.603518  -3.675594   0.001120   0.511017   0.002192
  83   3   2.774055  -2.031975  -3.598884   0.001187   0.418105   0.002840
  84   3   2.197110  -4.448006  -2.586325  -0.000529   0.232280  -0.002278
  85   3   2.696112  -3.954485   2.884832  -0.000214   0.278737  -0.000767
  86   3   5.027495  -2.947027   1.212801  -0.000459   0.092912  -0.004938
  87   3   4.135572  -3.280645  -2.403793  -0.000261   0.232280  -0.001123
  88   3   1.448998  -1.303516  -3.747904   0.001932   0.418105   0.004621
  89   3   1.999202  -2.511163   3.685041   0.000625   0.325193   0.001923
  90   4  -1.352269   0.475886  -3.647316   0.000392   0.092912   0.004216
  91   4  -4.167006   2.128007  -2.913709   0.000537   0.325193   0.001652
  92   4  -3.998585   0.720684   3.392032   0.000251   0.325193   0.000771
  93   4  -4.857133   0.735038   2.813454  -0.000303   0.325193  -0.000931
  94   4  -4.920848  -0.522947  -2.539173  -0.000465   0.139368  -0.003338
  95   4  -4.882524   1.724436  -2.542565  -0.000469   0.278737  -0.001684
  96   4  -5.151884   2.929879   0.873603  -0.000601   0.092912  -0.006466
  97   4  -4.887800   2.584728  -1.922384  -0.000410   0.185824  -0.002207
  98   4  -4.228587   1.079981  -3.232231   0.000221   0.325193   0.000679
  99   4  -4.172196  -0.394063  -3.164599   0.000379   0.325193   0.001164
 100   4  -4.187145  -0.333475   3.173389   0.000339   0.325193   0.001041
 101   4  -4.289166   1.877574   2.957920   0.000271   0.371649   0.000730
 102   4  -4.931865   2.615737   1.828057  -0.000064   0.185824  -0.000344
 103   4  -3.251456   1.368206  -3.577962   0.000975   0.325193   0.002997
 104   4  -2.058006   0.921200  -3.751787   0.000848   0.232280   0.003651
 105   4  -2.239223   0.097980  -3.749757   0.000752   0.185824   0.004047
 106   4  -3.286378  -0.319748  -3.551499   0.000297   0.232280   0.001277
 107   4  -2.983463  -0.040264   3.675267   0.001112   0.511017   0.002177
 108   4  -3.146674   1.385522   3.598912   0.001187   0.418105   0.002838
 109   4  -4.950577  -0.321897   2.585994  -0.000529   0.232280  -0.002278
 110   4  -4.772858   0.358353  -2.885002  -0.000213   0.278737  -0.000765
 111   4  -5.066014   2.880708  -1.212343  -0.000459   0.092912  -0.004936
 112   4  -4.908853   1.940585   2.404014  -0.000261   0.232280  -0.001122
 113   4  -1.853276   0.602184   3.747697   0.001926   0.418105   0.004606
 114   4  -3.174476   0.476670  -3.685236   0.000626   0.325193   0.001925
 115   5   2.034021   0.569584   3.668036   0.000758   0.139368   0.005438
 116   5   4.743172   2.109278   2.914076   0.000735   0.325193   0.002260
 117   5   5.045847  -1.031133   2.735868   0.000402   0.278737   0.001441
 118   5   4.583200   0.608128  -3.403720   0.000892   0.371649   0.002401
 119   5   5.495958   0.652777  -2.783533   0.000314   0.371649   0.000846
 120   5   5.616256  -1.634249  -1.592525  -0.000190   0.092912  -0.002049
 121   5   5.592196  -1.305601   1.991717   0.000075   0.278737   0.000268
 122   5   5.465576   1.718165   2.542935   0.000041   0.278737   0.000148
 123   5   5.714404   2.928598  -0.873026  -0.000609   0.092912  -0.006555
 124   5   5.456068   2.578515   1.922885  -0.000111   0.185824  -0.000598
 125   5   4.822791   1.062421   3.232444   0.000739   0.325193   0.002273
 126   5   4.823462  -0.264101   3.185686   0.000478   0.232280   0.002057
 127   5   5.420055  -1.300682  -2.206021  -0.000167   0.185824  -0.000900
 128   5   4.787255  -0.607419  -3.103589   0.001099   0.418105   0.002629
 129   5   4.870145   1.861889  -2.957580   0.000796   0.371649   0.002141
 130   5   5.499918   2.610854  -1.827548   0.000210   0.185824   0.001129
 131   5   3.840805   1.333697   3.578131   0.001408   0.325193   0.004329
 132   5   2.886195   0.853740   3.763543   0.000994   0.232280   0.004281
 133   5   2.940628   0.115410   3.758726   0.001412   0.232280   0.006081
 134   5   3.950585  -0.572045   3.478006   0.000921   0.278737   0.003306
 135   5   3.597776  -0.078073  -3.675335   0.002211   0.511017   0.004327
 136   5   3.736366   1.350304  -3.598749   0.001569   0.418105   0.003753
 137   5   5.476936  -0.542729  -2.598811   0.000118   0.232280   0.000510
 138   5   5.408372   0.259793   2.853954   0.000326   0.325193   0.001001
 139   5   5.629213   2.877633   1.212905  -0.000313   0.092912  -0.003370
 140   5   5.488605   1.935494  -2.403609  -0.000016   0.232280  -0.000071
 141   5   2.400784   0.568444  -3.739800   0.002618   0.464561   0.005636
 142   5   4.010049   0.305457   3.620018   0.000891   0.278737   0.003197
 143   6  -0.523845   2.046910  -3.668033   0.000758   0.139368   0.005436
 144   6  -0.545029   5.162827  -2.913563   0.000736   0.325193   0.002264
 145   6  -3.416022   3.854681  -2.735509   0.000402   0.278737   0.001442
 146   6  -1.764935   4.272665   3.404113   0.000893   0.371649   0.002403
 147   6  -2.182670   5.085557   2.784068   0.000314   0.371649   0.000846
 148   6  -4.223453   4.046395   1.592933  -0.000190   0.092912  -0.002048
 149   6  -3.926882   4.190472  -1.991292   0.000075   0.278737   0.000268
 150   6  -1.244943   5.592821  -2.542336   0.000042   0.278737   0.000151
 151   6  -0.321030   6.412983   0.873739  -0.000610   0.092912  -0.006568
 152   6  -0.495096   6.014670  -1.922233  -0.000109   0.185824  -0.000588
 153   6  -1.491445   4.708392  -3.231985   0.000739   0.325193   0.002273
 154   6  -2.640573   4.045690  -3.185311   0.000478   0.232280   0.002058
 155   6  -3.836462   4.043168   2.206420  -0.000167   0.185824  -0.000901
 156   6  -2.919658   3.841644   3.103935   0.001099   0.418105   0.002629
 157   6  -0.822638   5.148132   2.958097   0.000795   0.371649   0.002139
 158   6  -0.488938   6.068203   1.828208   0.000211   0.185824   0.001133
 159   6  -0.765518   3.993670  -3.577805   0.001410   0.325193   0.004336
 160   6  -0.703859   2.927006  -3.763392   0.000995   0.232280   0.004283
 161   6  -1.370483   2.604973  -3.758614   0.001412   0.232280   0.006080
 162   6  -2.470816   3.135834  -3.477785   0.000922   0.278737   0.003306
 163   6  -1.866470   3.076117   3.675535   0.002213   0.511017   0.004330
 164   6  -0.698766   3.910354   3.599061   0.001572   0.418105   0.003760
 165   6  -3.208494   4.471348   2.599266   0.000118   0.232280   0.000510
 166   6  -2.479325   4.814131  -2.853457   0.000326   0.325193   0.001001
 167   6  -0.322614   6.314064  -1.212208  -0.000313   0.092912  -0.003368
 168   6  -1.068144   5.720624   2.404225  -0.000018   0.232280  -0.000078
 169   6  -0.708064   2.362753   3.739859   0.002623   0.464561   0.005646
 170   6  -1.740619   3.626114  -3.619731   0.000891   0.278737   0.003196
 171   7   1.083804   1.995998   3.668087   0.000735   0.139368   0.005276
 172   7   1.156327   5.157701   2.884146   0.000537   0.278737   0.001927
 173   7   3.977866   3.800993   2.736032   0.000326   0.278737   0.001169
 174   7   2.327630   4.221545  -3.403643   0.000634   0.371649   0.001705
 175   7   2.746139   5.033925  -2.783449   0.000112   0.371649   0.000301
 176   7   4.948713   4.031488  -1.170329  -0.000234   0.092912  -0.002521
 177   7   4.489116   4.136378   1.991900   0.000010   0.278737   0.000035
 178   7   1.509018   5.783086   2.258699  -0.000315   0.278737  -0.001129
 179   7   1.026836   6.255124  -1.306751  -0.000278   0.092912  -0.002995
 180   7   2.042869   4.737971   3.184800   0.000588   0.371649   0.001582
 181   7   3.202578   3.992716   3.185809   0.000347   0.232280   0.001495
 182   7   4.465456   3.980703  -2.123544  -0.000266   0.232280  -0.001145
 183   7   3.481896   3.789317  -3.103449   0.000845   0.418105   0.002020
 184   7   1.461513   5.061454  -2.990268   0.000526   0.325193   0.001618
 185   7   1.214292   5.829093  -2.164524   0.000084   0.185824   0.000453
 186   7   1.327444   3.942527   3.578164   0.001181   0.325193   0.003631
 187   7   1.264698   2.875898   3.763589   0.000851   0.232280   0.003663
 188   7   1.930998   2.553194   3.758810   0.001242   0.232280   0.005348
 189   7   3.031885   3.082988   3.478135   0.000745   0.278737   0.002674
 190   7   2.427978   3.024935  -3.675235   0.001844   0.511017   0.003608
 191   7   1.261109   3.860337  -3.598719   0.001308   0.418105   0.003129
 192   7   3.771331   4.418656  -2.598667   0.000050   0.232280   0.000216
 193   7   2.958417   4.843061   2.836737   0.000166   0.371649   0.000447
 194   7   0.892163   6.329445   1.006208  -0.000097   0.046456  -0.002092
 195   7   1.859126   5.622142  -2.446161  -0.000075   0.139368  -0.000541
 196   7   1.268858   2.312748  -3.739745   0.002365   0.464561   0.005090
 197   7   2.302171   3.573983   3.620103   0.000675   0.278737   0.002423
 198   8  -4.454353  -3.787984  -3.104217   0.000464   0.232280   0.001999
 199   8  -0.642775  -5.991982  -2.745262   0.000300   0.139368   0.002154
 200   8   0.015756  -6.540638   1.555763   0.000204   0.092912   0.002193
 201   8  -2.892471  -4.642690   3.678158   0.000340   0.325193   0.001046
 202   8  -5.460795  -3.128216   1.894884   0.000422   0.325193   0.001298
 203   8  -5.985397  -3.128846  -0.096846   0.000208   0.046456   0.004486
 204   8  -4.922336  -3.094991  -2.576117  -0.000078   0.325193  -0.000238
 205   8  -3.546182  -3.912021  -3.570089   0.000374   0.325193   0.001149
 206   8  -2.626920  -3.373976  -3.713847  -0.000921   0.371649  -0.002478
 207   8  -1.260624  -4.261370  -3.621737  -0.000988   0.371649  -0.002657
 208   8  -1.191199  -5.318553  -3.360647   0.000346   0.371649   0.000930
 209   8  -0.035061  -6.119978  -2.148414   0.000291   0.278737   0.001044
 210   8   0.246884  -6.716386   0.606790   0.000230   0.092912   0.002470
 211   8  -0.266654  -6.094877   2.391832   0.000495   0.278737   0.001778
 212   8  -0.299264  -5.241468   2.949943  -0.000625   0.232280  -0.002689
 213   8  -1.037779  -4.470955   3.527884  -0.000915   0.371649  -0.002463
 214   8  -1.940575  -4.906255   3.650374   0.000490   0.371649   0.001317
 215   8  -3.606424  -3.989008   3.549647   0.000629   0.325193   0.001934
 216   8  -3.645320  -3.155451   3.433116  -0.000779   0.325193  -0.002396
 217   8  -3.814710  -3.026313  -3.327239  -0.000817   0.278737  -0.002930
 218   8  -0.332922  -5.405723  -2.898505  -0.000424   0.185824  -0.002284
 219   8  -2.316789  -3.575454   3.755633  -0.000983   0.371649  -0.002645
 220   8  -5.563533  -3.138926  -1.717854   0.000499   0.232280   0.002148
 221   8  -2.433832  -4.651779  -3.720544   0.000618   0.511017   0.001210
 222   8   0.170938  -6.685795  -0.957073   0.000275   0.139368   0.001974
 223   8  -1.081945  -5.638319   3.176689   0.000452   0.278737   0.001620
 224   8  -4.665127  -3.292066   2.869135  -0.000054   0.464561  -0.000117
 225   9   4.127987  -5.476971  -0.096843  -0.005465   0.490692  -0.011137
 226   9   4.452030  -4.460178   1.372290  -0.002897   0.372926  -0.007769
 227   9   4.916028  -4.170804  -0.669805  -0.002823   0.353299  -0.007990
 228   9   3.287290  -5.098211  -1.771070  -0.003088   0.392554  -0.007866
 229   9   2.798025  -5.451299   1.513134  -0.003123   0.333671  -0.009358
 230   9   4.889350  -4.452863   0.351609  -0.004115   0.431809  -0.009529
 231   9   4.274354  -4.836611  -1.283308  -0.004344   0.471065  -0.009222
 232   9   2.981818  -5.773361  -0.923526  -0.004571   0.451437  -0.010126
 233   9   3.084089  -5.911980   0.360120  -0.004527   0.412182  -0.010983
 234   9   3.765189  -5.188103   1.414503  -0.004443   0.471065  -0.009431
 235  10  -6.807201   0.836415   0.096857  -0.005465   0.490692  -0.011137
 236  10  -6.088704   1.625802  -1.372107  -0.002897   0.372926  -0.007767
 237  10  -6.070031   2.171824   0.670122  -0.002823   0.353299  -0.007990
 238  10  -6.058781   0.297321   1.770927  -0.003088   0.392554  -0.007865
 239  10  -6.120039  -0.302134  -1.513422  -0.003122   0.333671  -0.009356
 240  10  -6.300997   2.007940  -0.351324  -0.004115   0.431809  -0.009530
 241  10  -6.325779   1.283063   1.283415  -0.004344   0.471065  -0.009222
 242  10  -6.490768  -0.304593   0.923249  -0.004571   0.451437  -0.010125
 243  10  -6.661995  -0.285019  -0.360386  -0.004527   0.412182  -0.010983
 244  10  -6.375685   0.667029  -1.414545  -0.004442   0.471065  -0.009430
 245  11   7.426618   0.566253  -0.055889  -0.006246   0.608459  -0.010265
 246  11   6.720446   1.601452   1.338634  -0.002860   0.412182  -0.006938
 247  11   6.640737   2.186455  -0.669578  -0.002420   0.353299  -0.006849
 248  11   6.673778   0.399720  -1.767080  -0.002203   0.353299  -0.006235
 249  11   6.664287  -1.225499  -0.380147  -0.002753   0.333671  -0.008250
 250  11   6.621552  -0.588925   1.448056  -0.002010   0.314043  -0.006400
 251  11   6.930752   1.962511   0.308944  -0.003912   0.490692  -0.007973
 252  11   6.930217   1.288939  -1.263050  -0.003862   0.490692  -0.007871
 253  11   6.929792  -0.461180  -1.117421  -0.004074   0.510320  -0.007983
 254  11   7.009324  -0.767658   0.490050  -0.004249   0.490692  -0.008658
 255  11   6.955486   0.510750   1.448542  -0.004363   0.549575  -0.007938
 256  12  -3.223016   6.714742   0.056711  -0.006245   0.608459  -0.010264
 257  12  -1.973449   6.621022  -1.337853  -0.002859   0.412182  -0.006937
 258  12  -1.426929   6.844172   0.670384  -0.002420   0.353299  -0.006850
 259  12  -2.990773   5.979220   1.767777  -0.002203   0.353299  -0.006235
 260  12  -4.393527   5.158601   0.380740  -0.002753   0.333671  -0.008250
 261  12  -3.820912   5.440184  -1.447429  -0.002010   0.314043  -0.006400
 262  12  -1.765899   6.983516  -0.308108  -0.003912   0.490692  -0.007972
 263  12  -2.348925   6.646003   1.263843  -0.003863   0.490692  -0.007872
 264  12  -3.864352   5.770580   1.118102  -0.004074   0.510320  -0.007983
 265  12  -4.169569   5.686477  -0.489376  -0.004248   0.490692  -0.008658
 266  12  -3.035543   6.279226  -1.447794  -0.004363   0.549575  -0.007938
 267  13   3.780072   6.652632  -0.030146  -0.006249   0.628086  -0.009949
 268  13   2.532614   6.578420   1.307499  -0.002691   0.392554  -0.006856
 269  13   2.044964   6.808053  -0.632110  -0.002552   0.333671  -0.007647
 270  13   3.548995   5.916098  -1.766971  -0.002125   0.353299  -0.006014
 271  13   4.950825   5.093862  -0.379957  -0.002553   0.333671  -0.007652
 272  13   4.340556   5.491463   1.419276  -0.002305   0.353299  -0.006525
 273  13   2.329632   6.919161   0.329319  -0.003841   0.471065  -0.008154
 274  13   2.907784   6.583453  -1.262983  -0.003711   0.490692  -0.007563
 275  13   4.422318   5.706483  -1.117266  -0.003943   0.510320  -0.007726
 276  13   4.741645   5.594137   0.490494  -0.004070   0.490692  -0.008294
 277  13   3.540639   6.206845   1.493886  -0.003696   0.490692  -0.007532
 278   8  -3.369412  -4.955561  -3.493314   0.000901   0.140554   0.006409
 279   8  -4.728045  -4.171107  -2.770891   0.001638   0.278403   0.005884
 280   8  -5.806221  -3.548419  -1.060738   0.001499   0.278403   0.005386
 281   8  -5.807890  -3.547147   1.054640   0.001509   0.278403   0.005422
 282   8  -4.732414  -4.167776   2.767240   0.001748   0.278403   0.006280
 283   8  -2.990588  -5.173247   3.422907   0.001643   0.278403   0.005901
 284   8  -1.247732  -6.179505   2.771198   0.001600   0.278403   0.005747
 285   8  -0.169556  -6.802193   1.061045   0.001440   0.278403   0.005171
 286   8  -0.167887  -6.803466  -1.054333   0.001440   0.278403   0.005174
 287   8  -1.243363  -6.182837  -2.766933   0.001692   0.278403   0.006076
 288   8  -2.600854  -5.399254  -3.492441   0.000892   0.140554   0.006347
 289   1  -4.145020  -5.119027  -3.181249   0.002288   0.279380   0.008189
 290   1  -5.594055  -4.282313  -1.968069   0.002216   0.279380   0.007932
 291   1  -6.148722  -3.961813  -0.003070   0.002066   0.279380   0.007396
 292   1  -5.597156  -4.279948   1.963187   0.002141   0.279380   0.007664
 293   1  -4.150038  -5.115201   3.179656   0.002370   0.279380   0.008482
 294   1  -2.360117  -6.148534   3.181690   0.002302   0.279380   0.008241
 295   1  -0.911082  -6.985248   1.968510   0.002212   0.279380   0.007918
 296   1  -0.356416  -7.305748   0.003511   0.002132   0.279380   0.007630
 297   1  -0.907981  -6.987613  -1.962745   0.002151   0.279380   0.007701
 298   1  -2.355099  -6.152360  -3.179215   0.002297   0.279380   0.008224
 299   2   0.374755  -0.275853  -3.363297   0.000154   0.048635   0.003165
 300   3   0.825717  -0.278607  -3.398350   0.000181   0.048635   0.003717
 301   5   1.056016   0.104588  -3.363532   0.000185   0.048635   0.003807
 302   2   0.373984  -0.275907   3.362832   0.000138   0.048635   0.002835
 303   3   0.824937  -0.278663   3.397989   0.000213   0.048635   0.004377
 304   5   1.055244   0.104533   3.363230   0.000195   0.048635   0.004000
 305   2  -0.140741  -3.178717   3.381615  -0.000223   0.050189  -0.004443
 306   3   0.310191  -3.180923   3.345822  -0.000125   0.050189  -0.002496
 307   8  -0.381524  -3.573785   3.344865  -0.000347   0.050189  -0.006918
 308   2  -0.140011  -3.180238  -3.381552  -0.000212   0.050189  -0.004228
 309   3   0.310913  -3.182428  -3.345661  -0.000130   0.050189  -0.002585
 310   8  -0.380802  -3.575290  -3.344677  -0.000344   0.050189  -0.006847
 311   3   0.690836  -0.959599   3.562597   0.000735   0.199773   0.003681
 312   3   0.646180  -2.512885   3.554343   0.000357   0.199773   0.001787
 313   2   0.020769  -1.717370   3.511508   0.000922   0.408547   0.002258
 314   3   0.646957  -2.514139  -3.554412   0.000305   0.199903   0.001528
 315   3   0.691643  -0.959886  -3.562998   0.000610   0.199903   0.003052
 316   2   0.021551  -1.718130  -3.511831   0.000852   0.408837   0.002084
 317   2  -0.425969   0.185928   3.362835   0.000138   0.048635   0.002839
 318   4  -0.653837   0.575088   3.397991   0.000177   0.048635   0.003646
 319   6  -0.437137   0.966139   3.363233   0.000184   0.048635   0.003792
 320   2  -0.426271   0.186625  -3.363293   0.000156   0.048635   0.003215
 321   4  -0.654143   0.575791  -3.398348   0.000218   0.048635   0.004472
 322   6  -0.437439   0.966835  -3.363528   0.000196   0.048635   0.004028
 323   2  -2.684144  -1.711399  -3.381555  -0.000215   0.050190  -0.004277
 324   4  -2.911509  -1.321983  -3.345664  -0.000126   0.050190  -0.002511
 325   8  -2.905869  -2.117459  -3.344679  -0.000349   0.050190  -0.006947
 326   2  -2.682480  -1.711261   3.381609  -0.000223   0.050190  -0.004446
 327   4  -2.909862  -1.321846   3.345814  -0.000136   0.050190  -0.002701
 328   8  -2.904223  -2.117322   3.344859  -0.000354   0.050190  -0.007043
 329   4  -1.177107   0.119034  -3.562998   0.000781   0.199905   0.003906
 330   4  -2.500781  -0.696809  -3.554417   0.000354   0.199905   0.001770
 331   2  -1.498709  -0.840413  -3.511831   0.001008   0.408840   0.002465
 332   4  -2.499330  -0.696847   3.554337   0.000284   0.199773   0.001421
 333   4  -1.176489   0.118480   3.562596   0.000582   0.199773   0.002912
 334   2  -1.497688  -0.840705   3.511506   0.000950   0.408547   0.002326
 335   2   0.363218   0.123996  -3.276211   0.000092   0.101113   0.000914
 336   5   1.040343   0.509614  -3.331082   0.000313   0.101113   0.003091
 337   7   0.808761   0.900524  -3.314113   0.000265   0.101113   0.002621
 338   2   0.362711   0.123504   3.275892   0.000086   0.101113   0.000855
 339   5   1.039828   0.509113   3.330925   0.000332   0.101113   0.003283
 340   7   0.808248   0.900027   3.313979   0.000273   0.101113   0.002703
 341   5   1.129458   0.311902  -3.464030   0.000047   0.006476   0.007226
 342   2   0.155414  -0.226281  -3.463134   0.000055   0.006476   0.008434
 343   5   1.126422   0.315860   3.462803   0.000045   0.006337   0.007054
 344   2   0.157119  -0.230815   3.463677   0.000045   0.006337   0.007025
 345   2  -0.074414   0.375875   3.275892   0.000085   0.101113   0.000840
 346   6  -0.079034   1.155081   3.330925   0.000315   0.101113   0.003118
 347   7   0.375297   1.149988   3.313979   0.000275   0.101113   0.002716
 348   2  -0.074241   0.376560  -3.276211   0.000094   0.101113   0.000932
 349   6  -0.078859   1.155778  -3.331081   0.000333   0.101113   0.003295
 350   7   0.375471   1.150681  -3.314113   0.000273   0.101113   0.002695
 351   6  -0.294515   1.133376   3.463795   0.000046   0.006343   0.007287
 352   2  -0.273661   0.020735   3.462688   0.000045   0.006343   0.007156
 353   6  -0.289717   1.134166  -3.463017   0.000045   0.006472   0.007020
 354   2  -0.278589   0.021385  -3.464143   0.000054   0.006472   0.008379
 355   7   0.640634   1.089594  -3.456082   0.000136   0.029534   0.004615
 356   2  -0.014793  -0.005562  -3.456214   0.000143   0.029534   0.004845
 357   7   0.622950   1.098976   3.455952   0.000140   0.029415   0.004743
 358   2   0.002175  -0.016186   3.455820   0.000125   0.029415   0.004234
 359   8  -1.126238  -3.512497   3.552637  -0.000948   0.206004  -0.004604
 360   8  -2.478782  -2.731615   3.552634  -0.000948   0.206004  -0.004603
 361   2  -1.470117  -2.546327   3.505097  -0.001861   0.421012  -0.004420
 362   8  -2.480007  -2.732063  -3.552639  -0.000880   0.206238  -0.004265
 363   8  -1.125994  -3.513793  -3.552637  -0.000943   0.206238  -0.004573
 364   2  -1.470601  -2.547188  -3.505180  -0.001839   0.421531  -0.004362
 365   3   5.453899  -2.395061   0.435104  -0.000143   0.006125  -0.023352
 366   5   5.710113  -2.028142   0.440659  -0.000162   0.006125  -0.026413
 367  11   5.914775  -1.817841   0.400966  -0.000117   0.006125  -0.019162
 368   3   5.453964  -2.395034  -0.434776  -0.000119   0.006125  -0.019365
 369   5   5.710179  -2.028115  -0.440270  -0.000143   0.006125  -0.023271
 370  11   5.914834  -1.817816  -0.400533  -0.000145   0.006125  -0.023638
 371   5   5.508945  -2.078526  -0.969895  -0.001171   0.199214  -0.005876
 372   5   4.482399  -1.492688  -2.626740  -0.000311   0.407772  -0.000762
 373   5   2.478043  -0.348998  -3.511083   0.001810   0.407772   0.004440
 374   3   4.837444  -2.435010  -1.638786  -0.002336   0.407772  -0.005730
 375   3   3.231656  -1.518676  -3.278696   0.000847   0.407772   0.002076
 376   3   1.481332  -0.519973  -3.563471   0.000868   0.199214   0.004357
 377   5   1.798923   0.037966   3.563298   0.001027   0.199224   0.005155
 378   5   3.549388  -0.960775   3.278843   0.001111   0.407795   0.002725
 379   5   5.155544  -1.877078   1.639110  -0.002191   0.407795  -0.005372
 380   3   2.158910  -0.907099   3.511039   0.001692   0.407795   0.004150
 381   3   4.163529  -2.050808   2.627011  -0.000594   0.407795  -0.001457
 382   3   5.190406  -2.636591   0.970235  -0.001187   0.199224  -0.005956
 383   3   1.616465  -4.993788  -2.003301  -0.000696   0.062940  -0.011063
 384   8   0.900744  -5.335708  -1.954516  -0.000745   0.062940  -0.011841
 385   9   1.813054  -5.128395  -1.822180  -0.000771   0.062940  -0.012253
 386   3   1.616494  -4.993699   2.003252  -0.000677   0.062940  -0.010762
 387   8   0.900772  -5.335621   1.954492  -0.000783   0.062940  -0.012440
 388   9   1.813080  -5.128314   1.822133  -0.000616   0.062940  -0.009791
 389   8  -0.235422  -4.180640  -3.266347  -0.001369   0.323833  -0.004227
 390   8   0.375340  -5.255210  -2.493595  -0.001480   0.323833  -0.004570
 391   3   1.044685  -4.137196  -2.842822  -0.002790   0.650578  -0.004289
 392   8   0.375238  -5.254856   2.493750  -0.001448   0.324047  -0.004469
 393   8  -0.235990  -4.179413   3.266665  -0.001262   0.324047  -0.003894
 394   3   1.044339  -4.136388   2.842964  -0.002773   0.651018  -0.004259
 395   9   2.465768  -5.002679  -1.952026  -0.000709   0.067049  -0.010570
 396   9   3.421585  -4.471315  -2.067226  -0.001320   0.148958  -0.008861
 397   9   4.477489  -3.884296  -1.511370  -0.001489   0.148958  -0.009998
 398   9   5.022850  -3.581092  -0.336998  -0.001602   0.148958  -0.010753
 399   9   4.834477  -3.685790   0.975273  -0.001609   0.148958  -0.010802
 400   9   3.989463  -4.155542   1.888391  -0.001287   0.148958  -0.008640
 401   9   2.833632  -4.798101   2.028659  -0.001402   0.148958  -0.009413
 402   3   2.625790  -4.539590  -2.279135  -0.001166   0.146795  -0.007944
 403   3   3.924284  -3.817716  -2.121605  -0.001148   0.146795  -0.007822
 404   3   4.873612  -3.289938  -1.095821  -0.001401   0.146795  -0.009545
 405   3   5.085256  -3.172252   0.378411  -0.001752   0.146795  -0.011938
 406   3   4.472601  -3.512820   1.697757  -0.001333   0.146795  -0.009078
 407   3   3.286379  -4.172265   2.322268  -0.001125   0.146795  -0.007665
 408   3   2.230132  -4.759466   2.210085  -0.000603   0.081915  -0.007366
 409  11   6.075069  -1.728196   0.083853  -0.001346   0.162067  -0.008303
 410   3   5.438044  -2.625407  -0.075993  -0.001294   0.228636  -0.005662
 411   4  -4.801169   3.525714  -0.434966  -0.000143   0.006128  -0.023347
 412   6  -4.611519   3.931063  -0.440462  -0.000162   0.006128  -0.026405
 413  12  -4.531730   4.213452  -0.400706  -0.000117   0.006128  -0.019159
 414   4  -4.801160   3.525641   0.435306  -0.000119   0.006128  -0.019362
 415   6  -4.611509   3.930989   0.440865  -0.000143   0.006128  -0.023265
 416  12  -4.531721   4.213385   0.401155  -0.000145   0.006128  -0.023636
 417   6  -0.866916   1.577613  -3.563430   0.001028   0.199208   0.005163
 418   6  -2.606948   2.594049  -3.278699   0.001112   0.407760   0.002726
 419   6  -4.203433   3.526525  -1.638891  -0.002190   0.407760  -0.005371
 420   4  -1.865303   1.416791  -3.511139   0.001693   0.407760   0.004153
 421   4  -3.857928   2.580734  -2.626874  -0.000594   0.407760  -0.001456
 422   4  -4.878591   3.176837  -0.970119  -0.001186   0.199208  -0.005954
 423   6  -4.554506   3.731406   0.970466  -0.001171   0.199217  -0.005876
 424   6  -3.533735   3.134984   2.627139  -0.000311   0.407779  -0.000762
 425   6  -1.540981   1.970828   3.511091   0.001810   0.407779   0.004440
 426   4  -4.527417   2.971494   1.639217  -0.002336   0.407779  -0.005730
 427   4  -2.930793   2.038683   3.278837   0.000847   0.407779   0.002076
 428   4  -1.190671   1.022151   3.563256   0.000866   0.199217   0.004348
 429   4  -5.132941  -1.096968   2.003212  -0.000696   0.062939  -0.011057
 430   8  -5.071181  -1.887764   1.954453  -0.000744   0.062939  -0.011826
 431  10  -5.347811  -0.994026   1.822095  -0.000771   0.062939  -0.012250
 432   4  -5.132993  -1.097044  -2.003286  -0.000677   0.062939  -0.010760
 433   8  -5.071232  -1.887838  -1.954499  -0.000780   0.062939  -0.012397
 434  10  -5.347858  -0.994094  -1.822167  -0.000616   0.062939  -0.009789
 435   8  -3.501483  -2.294107   3.266654  -0.001358   0.324052  -0.004191
 436   8  -4.738468  -2.302506   2.493719  -0.001509   0.324052  -0.004656
 437   4  -4.104406  -1.163802   2.842940  -0.002791   0.651029  -0.004288
 438   8  -4.738812  -2.302603  -2.493583  -0.001503   0.323838  -0.004643
 439   8  -3.502811  -2.294239  -3.266348  -0.001279   0.323838  -0.003950
 440   4  -4.105263  -1.163915  -2.842816  -0.002781   0.650589  -0.004274
 441  10  -5.565298  -0.365896   1.951930  -0.000709   0.067049  -0.010568
 442  10  -5.583030   0.727556   2.067107  -0.001320   0.148958  -0.008861
 443  10  -5.602627   1.935496   1.511216  -0.001490   0.148958  -0.010000
 444  10  -5.612760   2.559360   0.336819  -0.001602   0.148958  -0.010755
 445  10  -5.609282   2.343824  -0.975450  -0.001609   0.148958  -0.010802
 446  10  -5.593616   1.377101  -1.888531  -0.001287   0.148958  -0.008639
 447  10  -5.572174   0.054830  -2.028736  -0.001402   0.148958  -0.009411
 448   4  -5.244256   0.004242   2.279022  -0.001166   0.146794  -0.007943
 449   4  -5.268349   1.489711   2.121456  -0.001149   0.146794  -0.007824
 450   4  -5.285975   2.575716   1.095635  -0.001401   0.146794  -0.009547
 451   4  -5.289920   2.817799  -0.378613  -0.001752   0.146794  -0.011937
 452   4  -5.278570   2.116883  -1.697936  -0.001332   0.146794  -0.009076
 453   4  -5.256571   0.759827  -2.322389  -0.001125   0.146794  -0.007664
 454   4  -5.236973  -0.448510  -2.210145  -0.000603   0.081915  -0.007366
 455  12  -4.534240   4.397044  -0.083420  -0.001346   0.162141  -0.008303
 456   4  -4.992715   3.396725   0.076344  -0.001295   0.228741  -0.005663
 457   5   5.336360   3.502697   0.604389  -0.000157   0.008595  -0.018302
 458   7   5.138666   3.908185   0.612061  -0.000169   0.008595  -0.019611
 459  13   5.061814   4.185564   0.557032  -0.000136   0.008595  -0.015869
 460   5   5.336432   3.502775  -0.603586  -0.000118   0.008595  -0.013768
 461   7   5.138739   3.908264  -0.611229  -0.000143   0.008595  -0.016672
 462  13   5.061879   4.185635  -0.556174  -0.000166   0.008595  -0.019352
 463   7   5.066153   3.700485  -1.129894  -0.000858   0.195541  -0.004386
 464   7   4.028225   3.074076  -2.703679  -0.000087   0.399204  -0.000217
 465   7   2.081290   1.899002  -3.519321   0.001779   0.399204   0.004457
 466   5   5.040186   2.928437  -1.766156  -0.001580   0.399204  -0.003957
 467   5   3.451180   1.969416  -3.312753   0.001178   0.399204   0.002951
 468   5   1.763584   0.950853  -3.559796   0.000861   0.195541   0.004401
 469   7   1.428415   1.504750   3.559833   0.001026   0.195546   0.005247
 470   7   3.116084   2.523371   3.313175   0.001140   0.399215   0.002856
 471   7   4.705329   3.482623   1.766888  -0.001671   0.399215  -0.004185
 472   5   2.415402   1.344065   3.519510   0.001988   0.399215   0.004979
 473   5   4.362491   2.519278   2.704288  -0.000095   0.399215  -0.000237
 474   5   5.400644   3.145913   1.130686  -0.000874   0.195546  -0.004470
 475  11   6.187042  -1.518134  -0.651897  -0.000620   0.067259  -0.009214
 476  11   6.186435  -0.866412  -1.546690  -0.001177   0.149777  -0.007858
 477  11   6.185202   0.365982  -2.068140  -0.001088   0.149777  -0.007263
 478  11   6.183842   1.660287  -1.728316  -0.001068   0.149777  -0.007128
 479  11   6.182920   2.477571  -0.668716  -0.001266   0.149777  -0.008453
 480  11   6.182820   2.477529   0.669457  -0.001325   0.149777  -0.008849
 481  11   6.183585   1.660179   1.729006  -0.001098   0.149777  -0.007331
 482  11   6.184896   0.365853   2.068749  -0.001008   0.149777  -0.006730
 483  11   6.186206  -0.866508   1.547223  -0.001288   0.149777  -0.008598
 484  11   6.186945  -1.518175   0.652389  -0.000554   0.067259  -0.008231
 485   5   5.861959  -1.514832  -1.144049  -0.001232   0.146896  -0.008388
 486   5   5.860876  -0.393447  -2.145163  -0.000893   0.146896  -0.006080
 487   5   5.859337   1.105924  -2.252941  -0.000809   0.146896  -0.005510
 488   5   5.857982   2.358965  -1.422507  -0.001108   0.146896  -0.007545
 489   5   5.857376   2.843925   0.000358  -0.001381   0.146896  -0.009404
 490   5   5.857771   2.358876   1.423193  -0.001094   0.146896  -0.007446
 491   5   5.859003   1.105783   2.253549  -0.000787   0.146896  -0.005357
 492   5   5.860558  -0.393581   2.145677  -0.000891   0.146896  -0.006068
 493   5   5.861789  -1.514903   1.144493  -0.001319   0.146896  -0.008980
 494  13   5.064055   4.367040   0.116566  -0.001854   0.225244  -0.008229
 495   5   5.529844   3.374812  -0.105340  -0.001353   0.317560  -0.004261
 496   6   0.365196   6.372848  -0.603806  -0.000154   0.008598  -0.017902
 497   7   0.815206   6.404389  -0.611452  -0.000161   0.008598  -0.018703
 498  13   1.093840   6.476523  -0.556377  -0.000130   0.008598  -0.015171
 499   6   0.365165   6.372748   0.604609  -0.000119   0.008598  -0.013808
 500   7   0.815174   6.404287   0.612284  -0.000146   0.008598  -0.017024
 501  13   1.093811   6.476430   0.557235  -0.000168   0.008598  -0.019484
 502   7   0.671503   6.237417   1.130909  -0.000882   0.195539  -0.004508
 503   7   0.647909   5.025000   2.704402  -0.000177   0.399199  -0.000443
 504   7   0.603712   2.751215   3.519538   0.001858   0.399199   0.004653
 505   6   0.015843   5.828761   1.767036  -0.001606   0.399199  -0.004023
 506   6  -0.020254   3.972806   3.313203   0.001193   0.399199   0.002989
 507   6  -0.058551   2.001993   3.559817   0.000886   0.195539   0.004533
 508   7   0.589097   1.990145  -3.559780   0.000891   0.195534   0.004555
 509   7   0.627380   3.960865  -3.312780   0.001054   0.399188   0.002641
 510   7   0.663395   5.816497  -1.766304  -0.001602   0.399188  -0.004014
 511   6  -0.043564   2.764500  -3.519350   0.001977   0.399188   0.004954
 512   6   0.000589   5.038081  -2.703792  -0.000088   0.399188  -0.000220
 513   6   0.024101   6.250191  -1.130117  -0.000857   0.195534  -0.004382
 514  12  -4.408278   4.598935   0.652565  -0.000620   0.067258  -0.009215
 515  12  -3.843508   4.924157   1.547335  -0.001177   0.149775  -0.007858
 516  12  -2.775600   5.539217   2.068784  -0.001088   0.149775  -0.007263
 517  12  -1.654067   6.185241   1.729001  -0.001068   0.149775  -0.007129
 518  12  -0.945875   6.593249   0.669458  -0.001266   0.149775  -0.008454
 519  12  -0.945889   6.593360  -0.668688  -0.001324   0.149775  -0.008843
 520  12  -1.654104   6.185530  -1.728284  -0.001098   0.149775  -0.007329
 521  12  -2.775644   5.539562  -2.068151  -0.001008   0.149775  -0.006730
 522  12  -3.843542   4.924416  -1.546782  -0.001288   0.149775  -0.008598
 523  12  -4.408292   4.599044  -0.652054  -0.000554   0.067258  -0.008231
 524   6  -4.242835   4.318987   1.144661  -0.001232   0.146896  -0.008388
 525   6  -3.271094   4.878612   2.145754  -0.000893   0.146896  -0.006079
 526   6  -1.971858   5.626951   2.253556  -0.000809   0.146896  -0.005509
 527   6  -0.886082   6.252424   1.423183  -0.001109   0.146896  -0.007549
 528   6  -0.465843   6.494606   0.000371  -0.001381   0.146896  -0.009399
 529   6  -0.886113   6.252661  -1.422471  -0.001093   0.146896  -0.007441
 530   6  -1.971907   5.627328  -2.252926  -0.000787   0.146896  -0.005356
 531   6  -3.271140   4.878971  -2.145221  -0.000891   0.146896  -0.006068
 532   6  -4.242859   4.319179  -1.144201  -0.001319   0.146896  -0.008979
 533  13   1.249856   6.569132  -0.115727  -0.001864   0.225326  -0.008273
 534   6   0.157664   6.476345   0.106188  -0.001349   0.317675  -0.004247
 535  13   4.918844   4.578746  -0.797129  -0.000564   0.066134  -0.008523
 536  13   4.302923   4.934421  -1.636470  -0.001081   0.147387  -0.007333
 537  13   3.212439   5.564036  -2.064826  -0.001052   0.147387  -0.007139
 538  13   2.121883   6.193609  -1.636592  -0.001089   0.147387  -0.007388
 539  13   1.505820   6.549200  -0.797319  -0.000514   0.066134  -0.007777
 540   7   4.724858   4.320966  -1.284961  -0.001090   0.144271  -0.007558
 541   7   3.699305   4.913142  -2.196031  -0.000879   0.144271  -0.006095
 542   7   2.405324   5.660201  -2.196103  -0.000835   0.144271  -0.005789
 543   7   1.379617   6.252287  -1.285148  -0.001121   0.144271  -0.007771
 544  13   1.505775   6.549070   0.798204  -0.000548   0.066132  -0.008284
 545  13   2.121769   6.193354   1.637436  -0.001147   0.147382  -0.007782
 546  13   3.212264   5.563732   2.065647  -0.000969   0.147382  -0.006577
 547  13   4.302759   4.934194   1.637315  -0.001171   0.147382  -0.007944
 548  13   4.918754   4.578642   0.798013  -0.000447   0.066132  -0.006761
 549   7   1.379535   6.252082   1.285968  -0.001164   0.144267  -0.008070
 550   7   2.405154   5.659868   2.196878  -0.000875   0.144267  -0.006067
 551   7   3.699102   4.912829   2.196806  -0.000876   0.144267  -0.006076
 552   7   4.724722   4.320793   1.285781  -0.001206   0.144267  -0.008361
 553   9   1.984619  -5.452593   1.551346  -0.001777   0.213434  -0.008327
 554   9   2.028502  -5.908606   0.385815  -0.005041   0.430890  -0.011700
 555   9   2.004528  -5.659689  -1.115825  -0.004545   0.430890  -0.010548
 556   8   0.701634  -6.107848   1.289321  -0.002063   0.594534  -0.003471
 557   8   0.729311  -6.395547  -0.445803  -0.001581   0.594534  -0.002659
 558   8   0.680268  -5.886170  -1.781067  -0.000879   0.301539  -0.002914
 559  10  -5.714449  -1.007666  -1.551372  -0.001777   0.213431  -0.008324
 560  10  -6.131260  -1.197624  -0.385839  -0.005041   0.430885  -0.011699
 561  10  -5.903671  -1.093874   1.115769  -0.004544   0.430885  -0.010545
 562   8  -5.640396  -2.446387  -1.289301  -0.002088   0.594527  -0.003512
 563   8  -5.903330  -2.566204   0.445809  -0.001561   0.594527  -0.002626
 564   8  -5.437653  -2.353942   1.781035  -0.000873   0.301536  -0.002895
 =====================================================

              2790912  WORDS OF DYNAMIC MEMORY USED
 EXECUTION OF GAMESS TERMINATED NORMALLY Wed Nov 23 18:31:00 2016
 DDI: 263640 bytes (0.3 MB / 0 MWords) used by master data server.

 ----------------------------------------
 CPU timing information for all processes
 ========================================
 0: 379.400 + 0.128 = 379.528
 ----------------------------------------
 ddikick.x: exited gracefully.
