----- GAMESS execution script -----

          ******************************************************
          *         GAMESS VERSION =  5 DEC 2014 (R1)          *
          *             FROM IOWA STATE UNIVERSITY             *
          * M.W.SCHMIDT, K.K.BALDRIDGE, J.A.BOATZ, S.T.ELBERT, *
          *   M.S.GORDON, J.H.JENSEN, S.KOSEKI, N.MATSUNAGA,   *
          *          K.A.NGUYEN, S.J.SU, T.L.WINDUS,           *
          *       TOGETHER WITH M.DUPUIS, J.A.MONTGOMERY       *
          *         J.COMPUT.CHEM.  14, 1347-1363(1993)        *
          **************** 64 BIT LINUX VERSION ****************

 EXECUTION OF GAMESS BEGUN Wed Nov 23 18:55:05 2016

            ECHO OF THE FIRST FEW INPUT CARDS -
 INPUT CARD>! SELECT RESTRICTED HARTREE-FOCK AS DEFAULT                                     
 INPUT CARD>$contrl scftyp=rhf $end                                                         
 INPUT CARD>                                                                                
 INPUT CARD>! THEORY: HF OR DFT                                                             
 INPUT CARD> $contrl mplevl=0 $end                                                          
 INPUT CARD>                                                                                
 INPUT CARD> $system timlim=10000 mwords=20 $end                                            
 INPUT CARD> $SCF DIRSCF=.TRUE. $end                                                        
 INPUT CARD>                                                                                
 INPUT CARD>                                                                                
 INPUT CARD>! BASIS SETS                                                                    
 INPUT CARD>! 6-311G(d,p)                                                                   
 INPUT CARD> $BASIS GBASIS=N311 NGAUSS=6 NDFUNC=1 NPFUNC=1 $END                             
 INPUT CARD>                                                                                
 INPUT CARD>! One of the following                                                          
 INPUT CARD> $guess guess=HUCKEL $end                                                       
 INPUT CARD>                                                                                
 INPUT CARD> $statpt projct=.FALSE. $end                                                    
 INPUT CARD> $STATPT IFREEZ(1)=1,2,3 $END                                                   
 INPUT CARD>                                                                                
 INPUT CARD>! Optimize the geometry with COSMO effects                                      
 INPUT CARD> $statpt opttol=0.0005 nstep=50 $end                                            
 INPUT CARD> $contrl nzvar=1 $end                                                           
 INPUT CARD> $zmat dlc=.t. auto=.t. $end                                                    
 INPUT CARD> $contrl runtyp=OPTIMIZE maxit=200 $end                                         
 INPUT CARD>                                                                                
 INPUT CARD>! Run COSMO on perfect conductor                                                
 INPUT CARD> $COSGMS PRFCND=.TRUE. $end                                                     
 INPUT CARD>                                                                                
 INPUT CARD>! Specifying RSOLV                                                              
 INPUT CARD> $COSGMS COSRAD = 1.4 $end                                                      
 INPUT CARD>                                                                                
 INPUT CARD>! available memory                                                              
 INPUT CARD> $SYSTEM MWORDS=40 $END                                                         
 INPUT CARD>                                                                                
 INPUT CARD> $DATA                                                                          
 INPUT CARD>file:/home/renata/açucares/beta-D-Fructofuranose.mol                           
 INPUT CARD>C1                                                                              
 INPUT CARD>O      8.0      3.0985000000   -0.9574000000    0.2820000000                    
 INPUT CARD>C      6.0      4.0131000000   -1.6612000000    1.1335000000                    
 INPUT CARD>C      6.0      3.3648000000   -1.7759000000    2.5240000000                    
 INPUT CARD>C      6.0      1.8857000000   -1.7848000000    2.1909000000                    
 INPUT CARD>C      6.0      1.8174000000   -0.8923000000    0.9434000000                    
 INPUT CARD>H      1.0      1.0648000000   -1.2756000000    0.2452000000                    
 INPUT CARD>C      6.0      1.4991000000    0.5693000000    1.2657000000                    
 INPUT CARD>H      1.0      1.2573000000   -1.4299000000    3.0125000000                    
 INPUT CARD>O      8.0      1.4775000000   -3.1210000000    1.8659000000                    
 INPUT CARD>H      1.0      3.7065000000   -2.6551000000    3.0779000000                    
 INPUT CARD>O      8.0      3.6618000000   -0.6114000000    3.3191000000                    
 INPUT CARD>O      8.0      5.2198000000   -0.8948000000    1.2712000000                    
   40000000 WORDS OF MEMORY AVAILABLE

     BASIS OPTIONS
     -------------
     GBASIS=N311         IGAUSS=       6      POLAR=POPN311 
     NDFUNC=       1     NFFUNC=       0     DIFFSP=       F
     NPFUNC=       1      DIFFS=       F     BASNAM=        


     RUN TITLE
     ---------
 file:/home/renata/açucares/beta-D-Fructofuranose.mol                           

 THE POINT GROUP OF THE MOLECULE IS C1      
 THE ORDER OF THE PRINCIPAL AXIS IS     0

 ATOM      ATOMIC                      COORDINATES (BOHR)
           CHARGE         X                   Y                   Z
 O           8.0     5.8553159730       -1.8092236606        0.5329027285
 C           6.0     7.5836593613       -3.1392128108        2.1420044071
 C           6.0     6.3585500035       -3.3559643816        4.7696683930
 C           6.0     3.5634562950       -3.3727829429        4.1402006665
 C           6.0     3.4343880101       -1.6862024988        1.7827674968
 H           1.0     2.0121802317       -2.4105344699        0.4633608122
 C           6.0     2.8328882282        1.0758210048        2.3918261827
 H           1.0     2.3759524844       -2.7021191898        5.6927995380
 O           8.0     2.7920701469       -5.8978348077        3.5260397205
 H           1.0     7.0042693735       -5.0174114700        5.8163876176
 O           8.0     6.9197986218       -1.1553784689        6.2721895258
 O           8.0     9.8639917107       -1.6909268138        2.4022196756
 C           6.0     8.1887496226       -5.7105629623        0.9000764880
 H           1.0    11.2232716137       -2.8514075429        1.9403706442
 H           1.0     8.7199515977       -5.4216238588       -1.0803563472
 H           1.0     6.5739787661       -6.9993560859        0.9255877888
 O           8.0    10.2946602633       -6.8717995818        2.1308550238
 H           1.0     2.9322878151        2.2151368028        0.6649945751
 H           1.0     4.1836643642        1.8851906454        3.7293742368
 O           8.0     0.3497882803        1.2831239457        3.4084987641
 H           1.0     0.1071474635        3.0560648673        3.8376555359
 H           1.0    10.4394132740       -8.5702852995        1.4343020247
 H           1.0     0.9590359388       -5.8485129594        3.3429252723
 H           1.0     8.5213413964       -0.5234540986        5.5794159787

          INTERNUCLEAR DISTANCES (ANGS.)




     $CONTRL OPTIONS
     ---------------
 SCFTYP=RHF          RUNTYP=OPTIMIZE     EXETYP=RUN     
 MPLEVL=       0     CITYP =NONE         CCTYP =NONE         VBTYP =NONE    
 DFTTYP=NONE         TDDFT =NONE    
 MULT  =       1     ICHARG=       0     NZVAR =       1     COORD =UNIQUE  
 PP    =NONE         RELWFN=NONE         LOCAL =NONE         NUMGRD=       F
 ISPHER=      -1     NOSYM =       0     MAXIT =     200     UNITS =ANGS    
 PLTORB=       F     MOLPLT=       F     AIMPAC=       F     FRIEND=        
 NPRINT=       7     IREST =       0     GEOM  =INPUT   
 NORMF =       0     NORMP =       0     ITOL  =      20     ICUT  =       9
 INTTYP=BEST         GRDTYP=BEST         QMTTOL= 1.0E-06

     $SYSTEM OPTIONS
     ---------------
  REPLICATED MEMORY=    40000000 WORDS (ON EVERY NODE).
 DISTRIBUTED MEMDDI=           0 MILLION WORDS IN AGGREGATE,
 MEMDDI DISTRIBUTED OVER   1 PROCESSORS IS           0 WORDS/PROCESSOR.
 TOTAL MEMORY REQUESTED ON EACH PROCESSOR=    40000000 WORDS.
 TIMLIM=       10000.00 MINUTES, OR       6.9 DAYS.
 PARALL= F  BALTYP=  DLB     KDIAG=    0  COREFL= F
 MXSEQ2=     300 MXSEQ3=     150  mem10=         0

     $COSGMS OPTIONS
     ---------------
     EPSI  =   INFTY     NSPA  =      92     COSRAD=    1.40
     DISEX =   10.00     OUTCHG=DBLCAV       COSBUG=       F
     COSWRT=       F     DCOSMO=       F

     SYMMETRY COORDINATES WILL NOT BE USED FOR 
     THE COSMO CALCULATION, EVEN IF SPECIFIED:
         -- SWITCHING TO C1 POINT GROUP --


     DEFINITION OF CAVITY
     ---------------------------
     ATOM         COORDINATES           RADIUS 
     1    5.8553   -1.8092    0.5329    1.7200
     2    7.5837   -3.1392    2.1420    2.0000
     3    6.3586   -3.3560    4.7697    2.0000
     4    3.5635   -3.3728    4.1402    2.0000
     5    3.4344   -1.6862    1.7828    2.0000
     6    2.0122   -2.4105    0.4634    1.3000
     7    2.8329    1.0758    2.3918    2.0000
     8    2.3760   -2.7021    5.6928    1.3000
     9    2.7921   -5.8978    3.5260    1.7200
    10    7.0043   -5.0174    5.8164    1.3000
    11    6.9198   -1.1554    6.2722    1.7200
    12    9.8640   -1.6909    2.4022    1.7200
    13    8.1887   -5.7106    0.9001    2.0000
    14   11.2233   -2.8514    1.9404    1.3000
    15    8.7200   -5.4216   -1.0804    1.3000
    16    6.5740   -6.9994    0.9256    1.3000
    17   10.2947   -6.8718    2.1309    1.7200
    18    2.9323    2.2151    0.6650    1.3000
    19    4.1837    1.8852    3.7294    1.3000
    20    0.3498    1.2831    3.4085    1.7200
    21    0.1071    3.0561    3.8377    1.3000
    22   10.4394   -8.5703    1.4343    1.3000
    23    0.9590   -5.8485    3.3429    1.3000
    24    8.5213   -0.5235    5.5794    1.3000

          ----------------
          PROPERTIES INPUT
          ----------------

     MOMENTS            FIELD           POTENTIAL          DENSITY
 IEMOM =       1   IEFLD =       0   IEPOT =       0   IEDEN =       0
 WHERE =COMASS     WHERE =NUCLEI     WHERE =NUCLEI     WHERE =NUCLEI  
 OUTPUT=BOTH       OUTPUT=BOTH       OUTPUT=BOTH       OUTPUT=BOTH    
 IEMINT=       0   IEFINT=       0                     IEDINT=       0
                                                       MORB  =       0
          EXTRAPOLATION IN EFFECT
          SOSCF IN EFFECT
 ORBITAL PRINTING OPTION: NPREO=     1   300     2     1

     -------------------------------
     INTEGRAL TRANSFORMATION OPTIONS
     -------------------------------
     NWORD  =            0
     CUTOFF = 1.0E-09     MPTRAN =       0
     DIRTRF =       T     AOINTS =DUP     

          ----------------------
          INTEGRAL INPUT OPTIONS
          ----------------------
 NOPK  =       1 NORDER=       0 SCHWRZ=       T


 -----------------------------------------------
  STATISTICS ON AUTOMATIC COORDINATE GENERATION 
 -----------------------------------------------
  NUMBER OF USER SPECIFIED BONDS                             0
  NUMBER OF BONDS                                           24
  NUMBER OF ANGLES                                          42
  NUMBER OF TORSIONS                                        66
  NUMBER OF EXTRA COORD.                                     0
  NUMBER OF EXTRA COORD. FOR CONSTRAINTS                     0
  NUMBER OF CONSTRAINED COORD.                               0

  TOTAL NUMBER OF PRIMITIVES                               132
 -----------------------------------------------

   --- ENCODED Z MATRIX ---
 COORD  TYPE   I   J   K   L   M   N
    1      1    1   2
    2      1    1   5
    3      1    2  13
    4      1    2  12
    5      1    2   3
    6      1    3   4
    7      1    3  11
    8      1    3  10
    9      1    4   5
   10      1    4   9
   11      1    4   8
   12      1    5   7
   13      1    5   6
   14      1    7  20
   15      1    7  19
   16      1    7  18
   17      1    9  23
   18      1   11  24
   19      1   12  14
   20      1   13  15
   21      1   13  17
   22      1   13  16
   23      1   17  22
   24      1   20  21
   25      2    1   2  13
   26      2    1   5   7
   27      2    1   2   3
   28      2    1   2  12
   29      2    1   5   4
   30      2    1   5   6
   31      2    2  13  17
   32      2    2   3  11
   33      2    2  13  15
   34      2    2   3  10
   35      2    2   3   4
   36      2    2   1   5
   37      2    2  12  14
   38      2    2  13  16
   39      2    3   2  12
   40      2    3  11  24
   41      2    3   4   8
   42      2    3   4   5
   43      2    3   4   9
   44      2    3   2  13
   45      2    4   9  23
   46      2    4   5   6
   47      2    4   5   7
   48      2    4   3  10
   49      2    4   3  11
   50      2    5   4   8
   51      2    5   4   9
   52      2    5   7  18
   53      2    5   7  19
   54      2    5   7  20
   55      2    6   5   7
   56      2    7  20  21
   57      2    8   4   9
   58      2   10   3  11
   59      2   12   2  13
   60      2   13  17  22
   61      2   15  13  16
   62      2   15  13  17
   63      2   16  13  17
   64      2   18   7  19
   65      2   18   7  20
   66      2   19   7  20
   67      3    1   5   7  19
   68      3    1   2  13  17
   69      3    1   5   7  20
   70      3    1   2   3  10
   71      3    1   2   3  11
   72      3    1   2  12  14
   73      3    1   2   3   4
   74      3    1   5   4   8
   75      3    1   5   4   3
   76      3    1   5   4   9
   77      3    1   2  13  16
   78      3    1   2  13  15
   79      3    1   5   7  18
   80      3    2   1   5   4
   81      3    2   3  11  24
   82      3    2  13  17  22
   83      3    2   1   5   7
   84      3    2   3   4   8
   85      3    2   1   5   6
   86      3    2   3   4   9
   87      3    2   3   4   5
   88      3    3   2  13  15
   89      3    3   2  13  16
   90      3    3   2  12  14
   91      3    3   2  13  17
   92      3    3   2   1   5
   93      3    3   4   9  23
   94      3    3   4   5   6
   95      3    3   4   5   7
   96      3    4   3  11  24
   97      3    4   5   7  18
   98      3    4   5   7  19
   99      3    4   5   7  20
  100      3    4   3   2  12
  101      3    4   3   2  13
  102      3    5   1   2  13
  103      3    5   7  20  21
  104      3    5   1   2  12
  105      3    5   4   9  23
  106      3    5   4   3  10
  107      3    5   4   3  11
  108      3    6   5   7  20
  109      3    6   5   7  19
  110      3    6   5   7  18
  111      3    6   5   4   8
  112      3    6   5   4   9
  113      3    7   5   4   8
  114      3    7   5   4   9
  115      3    8   4   3  10
  116      3    8   4   3  11
  117      3    8   4   9  23
  118      3    9   4   3  10
  119      3    9   4   3  11
  120      3   10   3  11  24
  121      3   10   3   2  12
  122      3   10   3   2  13
  123      3   11   3   2  12
  124      3   11   3   2  13
  125      3   12   2  13  15
  126      3   12   2  13  16
  127      3   12   2  13  17
  128      3   13   2  12  14
  129      3   15  13  17  22
  130      3   16  13  17  22
  131      3   18   7  20  21
  132      3   19   7  20  21

          INDEP./SYM. INTERNAL COORDINATES
          --------------------------------
 CRD  1=   0.1120 (  5)  0.1500 (  9) -0.1987 ( 25) -0.3040 ( 26)  0.1002 ( 30)
           0.1487 ( 31) -0.1133 ( 33)  0.2898 ( 44)  0.3787 ( 47) -0.1403 ( 52)
           0.2625 ( 54)  0.1022 ( 82)  0.2810 ( 83)  0.2647 (102)  0.1207 (104)
          -0.1696 (128)
 CRD  2=   0.2426 ( 25) -0.1896 ( 26)  0.1154 ( 29) -0.3376 ( 31)  0.1477 ( 35)
           0.1304 ( 38)  0.1085 ( 39) -0.1577 ( 42)  0.1673 ( 43) -0.1616 ( 49)
          -0.1332 ( 53)  0.2613 ( 54)  0.1537 ( 55) -0.1055 ( 56) -0.1452 ( 59)
           0.1370 ( 60)  0.1100 ( 63) -0.2051 ( 83) -0.1091 ( 85)  0.1106 ( 94)
           0.2316 ( 95) -0.1093 (100) -0.2394 (101)  0.1398 (102)  0.1196 (113)
           0.1072 (114) -0.1308 (122) -0.1173 (124)
 CRD  3=  -0.1491 (  3) -0.1430 (  5)  0.1252 (  9)  0.1177 ( 12)  0.1589 ( 27)
          -0.1105 ( 28) -0.1018 ( 29) -0.1146 ( 31)  0.1154 ( 32) -0.1254 ( 35)
           0.1016 ( 39) -0.3907 ( 44)  0.1320 ( 45)  0.2885 ( 47)  0.2656 ( 54)
           0.1958 ( 59)  0.1478 ( 76) -0.1217 ( 82)  0.1412 ( 83) -0.1330 ( 90)
          -0.2846 (102)  0.1406 (114)  0.1594 (128)
 CRD  4=   0.1515 (  1)  0.1352 (  2)  0.1445 (  6)  0.1008 (  9)  0.2267 ( 12)
           0.1092 ( 14)  0.1268 ( 25)  0.1376 ( 26) -0.1855 ( 29) -0.2979 ( 31)
           0.1668 ( 36) -0.1116 ( 37)  0.1363 ( 38)  0.1223 ( 39)  0.1158 ( 42)
           0.2042 ( 47)  0.1415 ( 53) -0.2141 ( 55)  0.1168 ( 56) -0.2351 ( 59)
           0.1560 ( 60)  0.2156 ( 83) -0.1890 ( 95) -0.1730 (101)  0.1029 (103)
          -0.1229 (113) -0.1628 (114) -0.1541 (122) -0.2139 (124)
 CRD  5=   0.1377 (  1)  0.1265 (  2)  0.4073 (  3)  0.1410 (  5)  0.1238 (  7)
           0.2645 ( 12)  0.1008 ( 21)  0.1227 ( 23)  0.1336 ( 25)  0.1166 ( 26)
          -0.1187 ( 27)  0.3627 ( 31)  0.2043 ( 32)  0.2205 ( 40) -0.1909 ( 49)
           0.2127 ( 54) -0.1691 ( 62) -0.1760 ( 63) -0.1109 ( 66)  0.1575 ( 71)
          -0.1141 ( 87)
 CRD  6=  -0.1767 (  2)  0.2465 (  5)  0.1516 (  7) -0.1073 ( 10) -0.2582 ( 12)
           0.2757 ( 32) -0.1495 ( 35)  0.1594 ( 39)  0.2684 ( 40)  0.1854 ( 43)
          -0.1908 ( 45) -0.1265 ( 49) -0.2344 ( 51) -0.2382 ( 54)  0.1138 ( 65)
           0.1105 ( 66)  0.1153 ( 72) -0.1037 ( 81) -0.1169 ( 86) -0.1217 (104)
           0.2284 (107)  0.1427 (116)
 CRD  7=   0.1583 (  3)  0.2228 (  4)  0.1574 (  6) -0.1390 (  7)  0.1431 ( 31)
           0.3844 ( 37) -0.1883 ( 40)  0.2126 ( 43) -0.1488 ( 44) -0.2408 ( 45)
           0.1164 ( 47) -0.1285 ( 51)  0.2092 ( 59) -0.2004 ( 76) -0.2224 (100)
           0.1879 (104) -0.1327 (112) -0.1797 (114) -0.1010 (119) -0.1151 (121)
          -0.1902 (123)
 CRD  8=   0.2179 (  1)  0.1157 (  2) -0.1055 (  5) -0.3084 (  9) -0.1978 ( 10)
          -0.1074 ( 25)  0.1495 ( 28) -0.1355 ( 39)  0.2092 ( 42) -0.2472 ( 45)
          -0.2433 ( 51) -0.1260 ( 53)  0.3152 ( 54) -0.1234 ( 56)  0.1078 ( 57)
          -0.1478 ( 66)  0.1261 ( 67)  0.1793 ( 69) -0.1109 ( 71)  0.1134 ( 79)
           0.1036 ( 85) -0.1474 ( 86)  0.1284 ( 99)  0.1728 (105) -0.1064 (118)
          -0.1252 (119)
 CRD  9=   0.1059 (  1)  0.1291 (  2)  0.1202 (  3) -0.4362 (  6)  0.1170 (  9)
          -0.1075 ( 18) -0.1726 ( 31)  0.1128 ( 32)  0.1177 ( 35) -0.1343 ( 36)
          -0.1588 ( 39)  0.1303 ( 40)  0.1353 ( 47) -0.2185 ( 49)  0.1115 ( 53)
          -0.2333 ( 54)  0.1058 ( 65)  0.1147 ( 68)  0.1273 ( 71)  0.1072 ( 83)
           0.1054 ( 88)  0.1392 ( 91) -0.1071 ( 93)  0.2102 (104)  0.1084 (107)
           0.1464 (119)  0.1321 (123)  0.1286 (124)
 CRD 10=   0.2888 (  3)  0.1739 (  4)  0.2238 (  5)  0.1085 (  6)  0.1645 (  7)
           0.1093 ( 22) -0.1012 ( 25) -0.3132 ( 31)  0.1311 ( 33)  0.1325 ( 34)
          -0.1409 ( 35)  0.3394 ( 37)  0.1466 ( 38) -0.1613 ( 39)  0.1591 ( 40)
          -0.1056 ( 43) -0.1208 ( 47)  0.1422 ( 49) -0.1378 ( 58)  0.1551 ( 59)
           0.2184 ( 60) -0.1409 ( 61)  0.1026 ( 63) -0.1449 ( 81) -0.1202 (121)
          -0.1788 (123)
 CRD 11=  -0.2772 (  2)  0.2447 (  3) -0.2829 (  4) -0.1275 (  5) -0.1311 (  6)
          -0.1104 (  7) -0.2105 ( 19)  0.1439 ( 21) -0.1280 ( 28) -0.1350 ( 35)
          -0.2132 ( 37) -0.2149 ( 40) -0.1688 ( 54)  0.1322 ( 57)  0.1462 ( 60)
          -0.1879 ( 68)  0.1172 ( 76) -0.1122 ( 77) -0.1146 ( 78)  0.1398 ( 82)
          -0.1467 (100)  0.1087 (104)  0.1376 (114) -0.1271 (119) -0.1018 (121)
          -0.1322 (123)
 CRD 12=  -0.2409 (  1) -0.1098 (  2)  0.1199 (  3) -0.1160 (  4) -0.1640 (  6)
          -0.3488 ( 10) -0.1149 ( 16) -0.1405 ( 17)  0.1082 ( 26) -0.1239 ( 30)
          -0.4355 ( 45)  0.1572 ( 46)  0.2097 ( 54) -0.1204 ( 56) -0.1436 ( 65)
          -0.1266 ( 67) -0.2180 ( 69)  0.1196 ( 71) -0.1175 ( 79) -0.1174 ( 97)
          -0.1265 ( 98) -0.2178 ( 99)  0.1318 (103) -0.1061 (108)
 CRD 13=  -0.1147 (  3)  0.1834 (  4)  0.2994 (  5) -0.2587 (  6) -0.3355 (  7)
          -0.1634 ( 10) -0.1297 ( 17) -0.1859 ( 18)  0.1327 ( 34)  0.2011 ( 37)
           0.1777 ( 39) -0.3963 ( 40)  0.1228 ( 42) -0.1677 ( 43) -0.1098 ( 81)
           0.1204 ( 86) -0.1107 (104)  0.1243 (119)
 CRD 14=  -0.1269 (  1) -0.1460 (  9)  0.1690 ( 12)  0.4372 ( 14) -0.2146 ( 21)
          -0.1094 ( 23)  0.1876 ( 24) -0.1246 ( 31)  0.1310 ( 37)  0.1289 ( 38)
          -0.1479 ( 52)  0.5850 ( 56) -0.2127 ( 60)
 CRD 15=  -0.1171 (  1)  0.1696 (  4) -0.3202 (  9) -0.1440 ( 12) -0.1282 ( 13)
          -0.1212 ( 16)  0.1189 ( 19)  0.2064 ( 21) -0.1080 ( 27)  0.1404 ( 37)
          -0.1049 ( 40)  0.2065 ( 45) -0.2491 ( 52)  0.2090 ( 53)  0.1010 ( 58)
           0.3361 ( 60) -0.1271 ( 86)  0.1374 ( 93)  0.1996 (103) -0.1599 (119)
           0.1083 (123)  0.1318 (124)
 CRD 16=   0.1399 (  3) -0.1176 (  9) -0.2390 ( 14) -0.3945 ( 21) -0.1630 ( 23)
          -0.1007 ( 24) -0.1245 ( 31)  0.1630 ( 33)  0.2462 ( 38)  0.1011 ( 45)
           0.2206 ( 53) -0.3121 ( 56) -0.5000 ( 60) -0.1076 ( 61) -0.1221 ( 63)
          -0.1006 ( 66)  0.1031 (129) -0.1251 (130)
 CRD 17=  -0.1158 (  2) -0.2285 (  3)  0.1730 (  4) -0.1510 (  5)  0.3422 ( 12)
          -0.1221 ( 14)  0.1213 ( 19) -0.1166 ( 20)  0.1358 ( 22) -0.1973 ( 33)
           0.2613 ( 37) -0.1007 ( 45)  0.2496 ( 52) -0.1439 ( 56)  0.1147 ( 63)
          -0.1110 ( 64) -0.1038 ( 65) -0.1712 ( 68) -0.1017 ( 78)  0.1942 ( 82)
          -0.1054 ( 88) -0.1749 ( 91)  0.1294 ( 96)  0.1256 (123)  0.1693 (124)
          -0.1664 (127)  0.1224 (131)
 CRD 18=   0.1401 (  1)  0.1363 (  4) -0.2452 (  5) -0.4443 ( 12) -0.1452 ( 20)
          -0.1407 ( 29) -0.1518 ( 33)  0.1728 ( 37)  0.1791 ( 38) -0.1097 ( 43)
           0.1373 ( 45)  0.1654 ( 46) -0.2299 ( 53) -0.1780 ( 55)  0.1034 ( 64)
           0.1776 ( 66)  0.1811 ( 82) -0.1442 ( 85) -0.1018 ( 91) -0.1268 ( 97)
          -0.1533 ( 99)  0.1563 (112) -0.1284 (127)  0.1574 (132)
 CRD 19=   0.4633 ( 33) -0.3919 ( 38) -0.3313 ( 62)  0.3261 ( 63) -0.1619 ( 68)
          -0.1284 ( 72) -0.1306 ( 82) -0.2026 ( 91) -0.1251 (125) -0.1387 (126)
          -0.2649 (127)  0.2152 (129)  0.1583 (130)
 CRD 20=   0.1202 (  3)  0.1227 (  5)  0.1540 ( 11)  0.1308 ( 20) -0.2319 ( 40)
           0.1006 ( 45) -0.1580 ( 51)  0.3818 ( 52) -0.3460 ( 53) -0.2471 ( 65)
           0.2734 ( 66)  0.1440 ( 68) -0.1019 ( 82) -0.1444 ( 86)  0.1339 ( 91)
           0.1147 ( 93) -0.1438 (103) -0.1144 (108) -0.1118 (118) -0.1413 (119)
           0.1356 (127)  0.1461 (131)  0.1327 (132)
 CRD 21=  -0.2039 (  7)  0.1074 (  8)  0.1428 (  9)  0.1973 ( 10) -0.1073 ( 15)
           0.2089 ( 17) -0.2244 ( 18)  0.1365 ( 26)  0.1416 ( 32) -0.2542 ( 40)
           0.2210 ( 45)  0.1580 ( 46) -0.1066 ( 47)  0.1855 ( 48) -0.1042 ( 49)
          -0.1830 ( 52)  0.1256 ( 54) -0.1079 ( 55) -0.1748 ( 66)  0.1439 ( 70)
           0.1073 ( 71) -0.1440 ( 85)  0.1047 (108) -0.1479 (113) -0.1733 (114)
           0.1108 (121)  0.1554 (122)  0.1188 (124)
 CRD 22=   0.1284 (  3)  0.2332 (  6)  0.1428 (  8)  0.2732 (  9) -0.1713 ( 10)
           0.2712 ( 11) -0.1214 ( 15)  0.1840 ( 16) -0.1795 ( 17)  0.1045 ( 19)
           0.1333 ( 41) -0.2100 ( 45) -0.1146 ( 52)  0.2412 ( 65) -0.1336 ( 66)
           0.1671 ( 69)  0.1200 ( 74)  0.1138 ( 81)  0.1193 ( 93)  0.1326 ( 96)
           0.1565 ( 99) -0.1385 (103)  0.2265 (108)  0.1157 (111)  0.1561 (113)
           0.1252 (114) -0.1192 (116) -0.1046 (119)  0.1015 (121) -0.1513 (131)
 CRD 23=  -0.1982 (  3) -0.1150 (  4)  0.5031 (  8)  0.1216 ( 13)  0.1129 ( 20)
          -0.1724 ( 22)  0.1064 ( 37) -0.1578 ( 38)  0.1911 ( 40)  0.1227 ( 42)
          -0.1161 ( 43)  0.1054 ( 48) -0.1193 ( 49) -0.1866 ( 50)  0.1308 ( 57)
           0.1109 ( 71) -0.1412 ( 82)  0.1769 ( 84)  0.1044 ( 91)  0.1796 ( 96)
          -0.1645 (100) -0.1368 (101)  0.1127 (105) -0.1247 (107)  0.1037 (112)
           0.1107 (127)
 CRD 24=  -0.1478 (  5)  0.3054 (  6) -0.1689 (  7) -0.1415 (  8) -0.2117 (  9)
          -0.1321 ( 10)  0.1900 ( 11)  0.1602 ( 13)  0.1558 ( 15) -0.1712 ( 18)
           0.1492 ( 32) -0.1705 ( 34)  0.1881 ( 41) -0.1237 ( 43)  0.1920 ( 48)
           0.1469 ( 55) -0.1124 ( 94)  0.1407 (106)  0.1925 (107)  0.1445 (113)
           0.1182 (114)  0.1554 (115)  0.2072 (116) -0.1042 (117)  0.1273 (118)
           0.1791 (119) -0.1765 (120)  0.1129 (121)
 CRD 25=   0.1102 (  1)  0.1054 (  5) -0.1123 (  8)  0.1445 (  9)  0.1021 ( 12)
           0.5425 ( 13)  0.2619 ( 15) -0.1287 ( 16) -0.1353 ( 40) -0.2036 ( 41)
           0.1103 ( 46)  0.1254 ( 50) -0.1232 ( 51) -0.1033 ( 52)  0.1717 ( 53)
          -0.1129 ( 74) -0.1431 ( 83) -0.1053 ( 84) -0.1122 ( 85) -0.1188 ( 86)
           0.1726 ( 95) -0.1480 ( 97) -0.1201 ( 98) -0.1856 ( 99)  0.1526 (103)
           0.1165 (114) -0.1098 (115)  0.1420 (117) -0.1232 (118)
 CRD 26=   0.1176 (  1)  0.1370 (  3)  0.1131 (  4)  0.1462 (  6) -0.1131 (  9)
          -0.5350 ( 11)  0.1169 ( 15) -0.1250 ( 37) -0.1444 ( 40) -0.1928 ( 45)
           0.1179 ( 47) -0.1602 ( 50)  0.1636 ( 51) -0.1046 ( 57)  0.1124 ( 66)
           0.1041 ( 75)  0.1079 ( 86) -0.1213 ( 87) -0.1281 ( 93)  0.1610 ( 94)
           0.1562 ( 95)  0.1000 (100) -0.1592 (106) -0.1326 (107)  0.1420 (111)
           0.1373 (113) -0.1280 (117)  0.1151 (121)
 CRD 27=  -0.1858 (  1) -0.1454 (  2) -0.1261 (  5) -0.2961 (  8) -0.1198 (  9)
          -0.1494 ( 11) -0.2525 ( 15)  0.2800 ( 16)  0.3064 ( 20) -0.2845 ( 22)
          -0.1066 ( 27) -0.1231 ( 29)  0.1816 ( 36)  0.1468 ( 37)  0.1051 ( 44)
           0.1297 ( 62)  0.1401 ( 65) -0.1200 ( 66) -0.1713 ( 82) -0.1337 ( 88)
          -0.1221 ( 89) -0.1792 ( 97) -0.1729 ( 98) -0.1546 (103) -0.1018 (109)
          -0.1082 (110) -0.1005 (125)
 CRD 28=  -0.1071 (  1) -0.1007 (  5) -0.1337 (  8) -0.1840 ( 11)  0.1051 ( 13)
           0.1803 ( 16) -0.2441 ( 20)  0.2874 ( 22) -0.1892 ( 62)  0.2038 ( 63)
           0.1546 ( 72)  0.2198 ( 77)  0.2317 ( 78)  0.2409 ( 88)  0.2290 ( 89)
           0.1847 ( 90) -0.1161 ( 97) -0.1075 ( 98) -0.1003 (110)  0.2807 (125)
           0.2688 (126)  0.1088 (128)
 CRD 29=   0.1632 (  3)  0.2779 (  4)  0.2254 (  8) -0.1265 (  9) -0.1051 ( 11)
           0.3269 ( 13)  0.1878 ( 16)  0.1090 ( 17) -0.1066 ( 20) -0.3518 ( 37)
           0.1237 ( 38)  0.1569 ( 45)  0.1114 ( 55)  0.1094 ( 58) -0.1036 ( 61)
          -0.1389 ( 70) -0.1025 ( 73) -0.1326 ( 74) -0.1302 ( 75) -0.1077 ( 76)
           0.1284 ( 85)  0.1145 ( 87) -0.1079 ( 88) -0.1192 ( 94) -0.1241 ( 97)
          -0.1246 ( 98) -0.1201 (102) -0.1363 (109) -0.1358 (110) -0.1215 (111)
 CRD 30=   0.5841 ( 20)  0.6317 ( 22) -0.1428 ( 33) -0.1008 ( 37) -0.1116 ( 38)
          -0.1849 ( 60)  0.2442 ( 61) -0.1041 ( 89) -0.1584 (129)  0.1456 (130)
 CRD 31=   0.6143 ( 15)  0.5946 ( 16) -0.1365 ( 52) -0.1336 ( 53) -0.1849 ( 56)
           0.2675 ( 64) -0.1579 (131)  0.1583 (132)
 CRD 32=  -0.1817 (  1)  0.1986 (  2)  0.1219 (  4) -0.2449 (  7) -0.2811 (  8)
           0.2546 ( 10)  0.2321 ( 11)  0.1648 ( 13) -0.2203 ( 19) -0.1053 ( 29)
           0.1228 ( 30) -0.2354 ( 37)  0.1971 ( 40) -0.2346 ( 45) -0.1010 ( 50)
          -0.1499 ( 55)  0.1175 ( 67)  0.1044 ( 69)  0.1438 ( 79) -0.1033 ( 85)
          -0.1421 ( 88)  0.1077 ( 90)  0.1204 ( 94) -0.1269 (106)  0.1094 (112)
           0.1065 (124)
 CRD 33=   0.1192 (  1)  0.2187 (  2)  0.1802 (  5) -0.1043 (  7)  0.1395 (  8)
           0.1819 ( 10)  0.1037 ( 11) -0.2681 ( 13) -0.1685 ( 15)  0.1852 ( 16)
          -0.1543 ( 17) -0.1176 ( 20) -0.1319 ( 36) -0.1882 ( 45) -0.2026 ( 67)
          -0.1561 ( 69) -0.1690 ( 72) -0.2436 ( 79) -0.1998 ( 90) -0.1688 ( 97)
          -0.1278 ( 98) -0.1240 (106) -0.1472 (108) -0.1937 (109) -0.2348 (110)
          -0.1065 (118) -0.1144 (128)
 CRD 34=  -0.1763 (  1)  0.4068 (  2)  0.1499 (  5)  0.3467 (  7) -0.2595 ( 10)
          -0.1298 ( 11) -0.2362 ( 19)  0.1809 ( 21) -0.1324 ( 23) -0.2851 ( 40)
           0.1828 ( 45) -0.1957 ( 60)  0.1248 ( 62) -0.1322 ( 78) -0.1113 ( 84)
          -0.1410 ( 88)  0.1361 (111) -0.1044 (121)
 CRD 35=   0.6330 ( 14) -0.1579 ( 24) -0.5431 ( 56) -0.2133 ( 64)  0.1501 ( 65)
           0.1636 ( 66)  0.1595 ( 67) -0.1298 ( 79) -0.1370 ( 97)  0.1523 ( 98)
           0.1825 (109) -0.1068 (110)
 CRD 36=   0.1696 (  1) -0.1861 (  2) -0.1158 (  7) -0.1005 ( 14)  0.1071 ( 19)
           0.6130 ( 21) -0.1088 ( 23) -0.5100 ( 60) -0.1897 ( 61)  0.1145 ( 62)
           0.1349 ( 63)  0.1451 ( 77)  0.1478 ( 89) -0.1276 (125)  0.1155 (126)
 CRD 37=   0.4681 (  7)  0.4920 ( 10)  0.1782 ( 11) -0.1293 ( 18) -0.3374 ( 40)
          -0.3482 ( 45) -0.1013 ( 50)  0.1148 ( 84)  0.1252 (106)  0.2374 (115)
           0.1327 (116)  0.1500 (118)
 CRD 38=  -0.2021 (  2)  0.5089 (  4)  0.1583 (  7) -0.3745 ( 13)  0.1779 ( 15)
          -0.1097 ( 16) -0.1953 ( 17) -0.1181 ( 19)  0.1034 ( 36) -0.2945 ( 37)
           0.1003 ( 46)  0.1161 ( 77)  0.1063 ( 78) -0.1311 ( 83) -0.1637 ( 85)
           0.1043 ( 92)  0.1000 (102)  0.1114 (104) -0.1173 (120) -0.1093 (132)
 CRD 39=  -0.1691 (  1) -0.2047 (  4) -0.1423 (  5)  0.3288 (  8) -0.1611 (  9)
           0.2324 ( 11) -0.1557 ( 16)  0.1093 ( 19) -0.1771 ( 24) -0.1009 ( 29)
           0.1030 ( 36) -0.1007 ( 41)  0.1033 ( 50) -0.1892 ( 81) -0.1481 ( 84)
          -0.3143 ( 93) -0.2014 ( 96) -0.1223 (103) -0.2964 (105) -0.1082 (106)
          -0.1840 (115) -0.1242 (116) -0.1870 (117) -0.1374 (120) -0.1317 (131)
 CRD 40=   0.2725 (  1) -0.1217 (  2)  0.1291 ( 17) -0.1181 ( 18) -0.2870 ( 19)
          -0.1574 ( 20) -0.1138 ( 21) -0.6364 ( 23) -0.3272 ( 24) -0.1077 ( 33)
          -0.1114 ( 38)  0.1469 ( 60)  0.1037 ( 61) -0.1037 ( 82) -0.1725 (129)
 CRD 41=   0.1330 (  2) -0.1074 ( 11)  0.1374 ( 12) -0.1466 ( 16)  0.1724 ( 18)
           0.1532 ( 20)  0.1929 ( 23) -0.7446 ( 24) -0.1133 ( 52) -0.1135 ( 53)
           0.1012 ( 54)  0.1558 ( 56)  0.1043 ( 64)  0.1406 ( 82)  0.1457 (129)
          -0.1376 (131)
 CRD 42=  -0.1544 (  2) -0.1244 (  3)  0.1829 ( 17) -0.2822 ( 18) -0.1951 ( 19)
          -0.2466 ( 20)  0.2695 ( 22)  0.4739 ( 23) -0.2087 ( 24)  0.1053 ( 36)
          -0.1436 ( 72) -0.2690 ( 82)  0.1368 ( 93)  0.1183 (105) -0.2366 (129)
          -0.2330 (130)
 CRD 43=  -0.1787 (  1)  0.1392 (  5) -0.1065 ( 17)  0.5851 ( 18)  0.2707 ( 19)
          -0.2410 ( 20)  0.1901 ( 22) -0.1618 ( 23) -0.1207 ( 72) -0.2867 ( 82)
          -0.2679 (129) -0.2428 (130)
 CRD 44=   0.1470 (  1) -0.1070 (  4)  0.1029 (  6) -0.1706 (  8)  0.1006 (  9)
          -0.1258 ( 13)  0.2683 ( 15) -0.2649 ( 16) -0.1333 ( 17) -0.2330 ( 19)
           0.1681 ( 23)  0.2178 ( 24)  0.1014 ( 72)  0.1724 ( 81)  0.1179 ( 85)
           0.1878 ( 96) -0.3368 (103) -0.1307 (109) -0.1217 (110)  0.1929 (120)
          -0.3086 (131) -0.2862 (132)
 CRD 45=  -0.1883 (  1)  0.1133 (  8)  0.1763 ( 15) -0.1670 ( 16)  0.3783 ( 17)
          -0.2493 ( 18)  0.3487 ( 19) -0.2273 ( 23) -0.1023 ( 90)  0.2444 ( 93)
          -0.1240 ( 96) -0.2556 (103)  0.2113 (105)  0.1892 (117) -0.1145 (120)
          -0.2108 (131) -0.2148 (132)
 CRD 46=  -0.2066 ( 11) -0.6624 ( 17) -0.4363 ( 18)  0.2428 ( 19) -0.1344 ( 23)
          -0.1003 ( 24)  0.1205 ( 40)  0.1263 ( 45) -0.1017 ( 76)  0.1126 ( 93)
          -0.1014 (114)
 CRD 47=   0.1457 (  1)  0.1426 (  7) -0.1861 (  8) -0.1803 ( 10)  0.1943 ( 11)
          -0.1560 ( 13)  0.1537 ( 17)  0.4514 ( 19) -0.1098 ( 24) -0.1558 ( 37)
          -0.1055 ( 39)  0.1122 ( 59)  0.2984 ( 72) -0.1023 ( 77) -0.1253 ( 82)
           0.2755 ( 90) -0.1075 ( 93)  0.1186 (104)  0.2563 (128)
 CRD 48=  -0.2186 (  1) -0.1057 (  8)  0.1107 ( 17) -0.2265 ( 18) -0.1014 ( 23)
           0.1180 ( 49) -0.1152 ( 71) -0.1933 ( 72)  0.3147 ( 81)  0.1048 ( 88)
          -0.2389 ( 90) -0.2385 ( 93)  0.3620 ( 96) -0.2101 (105) -0.2353 (117)
           0.3530 (120) -0.1019 (123) -0.1457 (124) -0.1843 (128)
 CRD 49=  -0.1843 (  2) -0.1102 (  4) -0.1129 (  9) -0.1393 ( 10)  0.1707 ( 11)
          -0.1076 ( 12)  0.2046 ( 14)  0.1046 ( 16) -0.1085 ( 17) -0.1983 ( 24)
          -0.1141 ( 26)  0.1319 ( 45)  0.1826 ( 52)  0.1384 ( 53)  0.1255 ( 54)
          -0.1513 ( 55)  0.1302 ( 56) -0.1114 ( 64) -0.2201 ( 65) -0.1350 ( 66)
          -0.1639 ( 72) -0.1467 ( 76)  0.1246 ( 82)  0.1230 ( 83)  0.1167 ( 94)
          -0.1425 (102) -0.1546 (103)  0.1018 (129)  0.1449 (130) -0.3203 (132)
 CRD 50=  -0.1699 (  3)  0.1058 (  8)  0.1124 ( 14) -0.2175 ( 19)  0.1105 ( 20)
           0.2299 ( 21)  0.1269 ( 22) -0.2055 ( 23) -0.1228 ( 24)  0.1402 ( 31)
           0.2029 ( 33)  0.1536 ( 37)  0.1794 ( 38)  0.1116 ( 52)  0.1206 ( 53)
          -0.1177 ( 59)  0.1487 ( 60) -0.1413 ( 61) -0.2104 ( 62) -0.1964 ( 63)
          -0.1017 ( 64) -0.1267 ( 66)  0.1814 ( 72) -0.1003 ( 82) -0.1168 ( 85)
           0.1355 (100) -0.1186 (104)  0.1021 (112)  0.1195 (121) -0.2878 (130)
           0.1464 (131)
 CRD 51=   0.1380 (  1) -0.2508 (  3) -0.1641 (  4) -0.1607 (  8)  0.1436 ( 11)
           0.2368 ( 12) -0.1315 ( 14)  0.1148 ( 20)  0.1810 ( 22) -0.1023 ( 23)
           0.1479 ( 33)  0.1153 ( 34)  0.1581 ( 38) -0.1019 ( 40)  0.1032 ( 45)
          -0.1296 ( 52) -0.1191 ( 53)  0.1446 ( 60) -0.2014 ( 61) -0.1366 ( 63)
           0.1279 ( 65)  0.1177 ( 66) -0.1298 ( 70) -0.1053 ( 90)  0.1005 (105)
          -0.1074 (121)  0.1328 (124) -0.1198 (128)  0.2309 (129) -0.1203 (130)
          -0.1085 (131)  0.1416 (132)
 CRD 52=   0.1631 (  1)  0.1227 (  2)  0.1547 (  3) -0.2397 (  4)  0.1947 (  6)
          -0.1163 (  7) -0.1246 ( 11) -0.1199 ( 12) -0.2557 ( 13)  0.1778 ( 15)
          -0.2285 ( 21)  0.1218 ( 39) -0.1083 ( 61)  0.1083 ( 62)  0.1091 ( 63)
          -0.1561 ( 64)  0.1245 ( 69) -0.1431 ( 70) -0.1084 ( 74)  0.1264 ( 77)
          -0.1379 ( 88) -0.1077 ( 97)  0.1196 (103)  0.1063 (106)  0.1056 (108)
           0.1166 (114)  0.1074 (117) -0.1311 (121)  0.2063 (126)  0.1120 (127)
          -0.1637 (128)  0.2579 (131)
 CRD 53=  -0.1583 (  1)  0.1474 (  2) -0.1128 (  4)  0.1662 (  5)  0.1059 (  6)
          -0.1521 (  9) -0.1631 ( 14) -0.1478 ( 20)  0.1104 ( 21)  0.1350 ( 28)
          -0.1281 ( 39)  0.1396 ( 46) -0.1572 ( 63)  0.1752 ( 68) -0.1195 ( 74)
           0.1572 ( 82) -0.1029 ( 89)  0.1319 ( 90) -0.1206 (102)  0.1497 (108)
           0.2330 (109) -0.1293 (111)  0.1060 (117)  0.1101 (120) -0.1414 (125)
          -0.2420 (126)  0.2176 (128)  0.2035 (129)  0.2236 (130)
 CRD 54=  -0.1884 (  2)  0.1284 (  8)  0.1187 ( 11) -0.1496 ( 12)  0.1623 ( 14)
          -0.1098 ( 16)  0.1216 ( 30)  0.1271 ( 32)  0.1519 ( 36) -0.1518 ( 46)
           0.1059 ( 50)  0.1146 ( 51) -0.1760 ( 57) -0.1478 ( 66)  0.1287 ( 69)
           0.1142 ( 79)  0.1060 ( 81) -0.1421 ( 84)  0.1175 ( 85)  0.1167 ( 93)
           0.1693 (105) -0.1024 (108) -0.2455 (109) -0.1169 (110) -0.1837 (115)
           0.2577 (117)  0.2263 (119)  0.2423 (120)  0.1280 (131)  0.1177 (132)
 CRD 55=  -0.2341 (  7)  0.2583 ( 10) -0.1675 ( 11) -0.1035 ( 12)  0.1459 ( 13)
          -0.1349 ( 30)  0.1864 ( 41) -0.1433 ( 48) -0.1308 ( 51)  0.1383 ( 58)
          -0.1266 ( 69) -0.2480 ( 70)  0.2902 ( 74)  0.1026 ( 76) -0.1043 ( 80)
          -0.1026 ( 84) -0.1310 ( 85) -0.1462 ( 86)  0.1058 ( 92)  0.1651 (104)
           0.1194 (106)  0.1854 (111)  0.1845 (113) -0.2239 (117) -0.2020 (121)
          -0.1689 (122) -0.1077 (132)
 CRD 56=   0.2789 (  3) -0.2373 (  5)  0.1944 (  8) -0.2324 (  9)  0.1456 ( 11)
           0.2802 ( 12) -0.1339 ( 14) -0.1090 ( 22) -0.1251 ( 36)  0.1241 ( 46)
          -0.1030 ( 48) -0.1224 ( 55)  0.1325 ( 63)  0.1486 ( 66) -0.1058 ( 69)
          -0.1051 ( 70) -0.1009 ( 71)  0.1188 ( 72)  0.1108 ( 81) -0.2044 ( 85)
           0.1173 ( 94)  0.1113 (100) -0.1266 (104)  0.1042 (105)  0.1105 (107)
           0.1237 (109)  0.1050 (117)  0.1787 (119)  0.1589 (120) -0.1546 (129)
          -0.1506 (131)
 CRD 57=  -0.1171 (  1) -0.1078 (  2)  0.2310 (  3)  0.1085 (  5) -0.1766 (  6)
           0.1585 (  9)  0.1877 ( 12) -0.1936 ( 16) -0.1733 ( 20)  0.1171 ( 28)
           0.1265 ( 30)  0.1007 ( 37)  0.1123 ( 43) -0.1040 ( 51)  0.1233 ( 62)
           0.1235 ( 65)  0.1130 ( 68)  0.1254 ( 69) -0.1033 ( 76)  0.1313 ( 84)
           0.1418 ( 94) -0.1067 ( 98)  0.1305 (100)  0.1197 (106) -0.1430 (109)
          -0.1024 (110)  0.1565 (111)  0.1950 (115) -0.1922 (117) -0.1095 (120)
           0.1025 (121) -0.1020 (126)  0.2059 (130)  0.1068 (131)  0.2165 (132)
 CRD 58=   0.1021 (  2) -0.1874 ( 14)  0.2279 ( 15)  0.1971 ( 21) -0.2286 ( 22)
           0.1714 ( 61) -0.1429 ( 62) -0.1867 ( 64)  0.1250 ( 65)  0.1089 ( 67)
          -0.1025 ( 68)  0.1460 ( 71) -0.1205 ( 76)  0.1363 ( 78) -0.1293 ( 79)
          -0.1450 ( 81)  0.2179 ( 88) -0.2117 ( 97) -0.1496 (110) -0.1490 (112)
          -0.1061 (114) -0.1043 (117)  0.1236 (123)  0.1171 (124)  0.1673 (125)
          -0.1799 (129)  0.1911 (131)
 CRD 59=  -0.3109 (  6)  0.1149 ( 11) -0.1273 ( 12) -0.2030 ( 14)  0.1421 ( 15)
           0.1224 ( 16) -0.1689 ( 21)  0.1764 ( 22)  0.1149 ( 26)  0.1005 ( 31)
           0.1290 ( 54) -0.1340 ( 57) -0.1105 ( 58) -0.1559 ( 61) -0.1964 ( 64)
           0.1401 ( 67)  0.1184 ( 70)  0.1339 ( 74) -0.1670 ( 78) -0.1446 ( 79)
           0.1252 ( 81) -0.1631 ( 88) -0.1640 ( 97)  0.1206 ( 98)  0.1093 (105)
          -0.1948 (110) -0.1386 (112) -0.1624 (114) -0.1173 (123) -0.1485 (124)
          -0.1623 (125)  0.1202 (129)
 CRD 60=  -0.1305 (  8) -0.1126 ( 15)  0.2205 ( 16) -0.2228 ( 20)  0.1179 ( 21)
          -0.1010 ( 25)  0.1032 ( 33) -0.1046 ( 35) -0.1254 ( 52)  0.1211 ( 58)
           0.1255 ( 61) -0.1244 ( 63)  0.1333 ( 66)  0.2033 ( 67) -0.1937 ( 77)
          -0.1357 ( 83)  0.1137 ( 86) -0.1450 ( 89)  0.1221 ( 91)  0.1433 ( 98)
          -0.1302 ( 99) -0.1150 (107) -0.2093 (108) -0.1712 (116)  0.1029 (117)
           0.1819 (118)  0.1752 (127) -0.1413 (128)  0.1942 (130) -0.1226 (131)
          -0.1936 (132)
 CRD 61=  -0.1079 (  1)  0.1519 (  3) -0.2219 (  5)  0.1077 (  7)  0.2850 (  9)
          -0.1319 ( 10) -0.1619 ( 12) -0.1053 ( 15)  0.1494 ( 34) -0.1131 ( 48)
          -0.1601 ( 50)  0.1067 ( 53)  0.1561 ( 55)  0.1304 ( 57) -0.1020 ( 58)
           0.1304 ( 79) -0.1186 ( 80) -0.1493 ( 83)  0.1995 ( 84)  0.1150 ( 92)
          -0.1079 ( 94) -0.1196 ( 96) -0.1104 ( 99)  0.1018 (100) -0.1814 (106)
          -0.1353 (111) -0.1004 (112)  0.2560 (116) -0.1405 (117) -0.2438 (118)
           0.1103 (120)  0.1006 (121) -0.1005 (132)
 CRD 62=  -0.1215 (  2) -0.1291 (  4)  0.2675 (  5)  0.1645 (  9)  0.1261 ( 16)
           0.1839 ( 20) -0.1405 ( 22)  0.1141 ( 28)  0.1183 ( 30) -0.1468 ( 33)
           0.1557 ( 36)  0.1284 ( 38) -0.1285 ( 44) -0.1009 ( 47) -0.1142 ( 52)
           0.1039 ( 59)  0.1101 ( 63)  0.1885 ( 67)  0.2447 ( 77)  0.1862 ( 78)
           0.1265 ( 79)  0.1001 ( 82) -0.1160 ( 83) -0.1605 ( 91) -0.1676 (102)
          -0.1945 (108)  0.1353 (115) -0.2390 (127)  0.1764 (128) -0.1202 (129)
          -0.1532 (130) -0.1014 (132)
 CRD 63=   0.1063 (  1) -0.1111 (  2) -0.1534 (  3) -0.1228 (  5)  0.1437 (  8)
           0.1720 (  9) -0.1215 ( 11)  0.1443 ( 12) -0.1240 ( 13) -0.1409 ( 28)
           0.1762 ( 30)  0.1221 ( 32)  0.1483 ( 44) -0.1500 ( 47) -0.1225 ( 51)
           0.1367 ( 67)  0.1642 ( 73) -0.1456 ( 75) -0.1182 ( 77)  0.2184 ( 80)
           0.1097 ( 81) -0.1894 ( 86) -0.2206 ( 92) -0.1025 (105)  0.1749 (107)
          -0.1495 (108)  0.1525 (111)  0.1644 (112)  0.1393 (116) -0.1158 (118)
          -0.1367 (121) -0.1592 (123)  0.1172 (127) -0.1150 (128)
 CRD 64=   0.1414 (  1)  0.1543 (  2) -0.1863 (  6)  0.1332 (  8)  0.1480 ( 11)
          -0.1006 ( 27) -0.1038 ( 29) -0.1486 ( 34)  0.1386 ( 43)  0.1077 ( 47)
           0.1420 ( 49) -0.1546 ( 50)  0.1020 ( 55)  0.1001 ( 73)  0.1269 ( 75)
           0.1566 ( 81) -0.1769 ( 87) -0.1840 ( 89) -0.1073 ( 91)  0.2027 ( 95)
          -0.1673 ( 98) -0.1059 ( 99)  0.2024 (101)  0.1474 (105)  0.1648 (110)
          -0.1250 (111) -0.2359 (112)  0.1093 (113)  0.1620 (115)  0.1001 (116)
           0.1212 (118)  0.1219 (122) -0.1864 (123)  0.1352 (125)
 CRD 65=  -0.1497 (  1)  0.1527 (  2)  0.1678 (  4) -0.1457 ( 13) -0.1093 ( 21)
           0.1336 ( 25) -0.1195 ( 26)  0.1092 ( 31) -0.1304 ( 35) -0.1191 ( 39)
           0.1150 ( 42)  0.1065 ( 46)  0.1036 ( 58)  0.1630 ( 71)  0.1022 ( 73)
          -0.1441 ( 76) -0.1642 ( 78)  0.1557 ( 79)  0.1600 ( 80) -0.1152 ( 81)
           0.2191 ( 89)  0.1626 ( 91) -0.1785 ( 92)  0.1482 ( 95) -0.1855 ( 98)
          -0.1574 ( 99) -0.1364 (101)  0.1016 (105)  0.1616 (110) -0.1204 (112)
           0.2150 (113)  0.1055 (118) -0.2536 (122) -0.1532 (125)
 CRD 66=   0.1024 (  4)  0.1867 (  6) -0.1914 (  7) -0.2060 ( 10)  0.1297 ( 13)
          -0.1023 ( 39) -0.1498 ( 41) -0.1067 ( 42) -0.1314 ( 46) -0.1447 ( 48)
           0.1096 ( 51)  0.1218 ( 57)  0.1074 ( 58)  0.1829 ( 73)  0.1985 ( 75)
           0.1048 ( 76) -0.1117 ( 79) -0.1010 ( 80) -0.1926 ( 87)  0.1096 ( 89)
           0.1060 ( 91)  0.1206 ( 94)  0.1415 ( 98)  0.1456 ( 99)  0.1096 (100)
          -0.1656 (111) -0.2645 (113)  0.2515 (115)  0.1430 (116)  0.1331 (118)
          -0.1560 (121) -0.2178 (122)

 THE DETERMINANT OF THE G MATRIX IS 10**(   -35)


                     --------------------
                     INTERNAL COORDINATES
                     --------------------

                 - - ATOMS - -         COORDINATE      COORDINATE
 NO.   TYPE    I  J  K  L  M  N        (BOHR,RAD)       (ANG,DEG)
 ----------------------------------------------------------------
   1 STRETCH   1  2                     2.7102122       1.4341826
   2 STRETCH   1  5                     2.7273042       1.4432273
   3 STRETCH   2 13                     2.9189657       1.5446502
   4 STRETCH   2 12                     2.7138828       1.4361250
   5 STRETCH   2  3                     2.9073170       1.5384860
   6 STRETCH   3  4                     2.8651460       1.5161701
   7 STRETCH   3 11                     2.7230770       1.4409904
   8 STRETCH   3 10                     2.0671190       1.0938724
   9 STRETCH   4  5                     2.9015002       1.5354079
  10 STRETCH   4  9                     2.7107411       1.4344625
  11 STRETCH   4  8                     2.0665233       1.0935571
  12 STRETCH   5  7                     2.8916307       1.5301852
  13 STRETCH   5  6                     2.0707887       1.0958143
  14 STRETCH   7 20                     2.6911676       1.4241047
  15 STRETCH   7 19                     2.0660857       1.0933256
  16 STRETCH   7 18                     2.0711997       1.0960318
  17 STRETCH   9 23                     1.8428179       0.9751773
  18 STRETCH  11 24                     1.8558564       0.9820770
  19 STRETCH  12 14                     1.8459853       0.9768534
  20 STRETCH  13 15                     2.0706945       1.0957644
  21 STRETCH  13 17                     2.7015081       1.4295766
  22 STRETCH  13 16                     2.0661857       1.0933785
  23 STRETCH  17 22                     1.8414650       0.9744614
  24 STRETCH  20 21                     1.8402091       0.9737968
  25 BEND      1  2 13                  1.8879668     108.1725298
  26 BEND      1  5  7                  1.9010238     108.9206404
  27 BEND      1  2  3                  1.8801771     107.7262133
  28 BEND      1  2 12                  1.9080348     109.3223409
  29 BEND      1  5  4                  1.8824568     107.8568293
  30 BEND      1  5  6                  1.8774521     107.5700834
  31 BEND      2 13 17                  1.9245404     110.2680444
  32 BEND      2  3 11                  1.9300741     110.5850977
  33 BEND      2 13 15                  1.9147169     109.7051972
  34 BEND      2  3 10                  1.9670337     112.7027299
  35 BEND      2  3  4                  1.7853971     102.2957202
  36 BEND      2  1  5                  1.8924373     108.4286694
  37 BEND      2 12 14                  1.8330283     105.0247860
  38 BEND      2 13 16                  1.9629860     112.4708140
  39 BEND      3  2 12                  1.8830420     107.8903591
  40 BEND      3 11 24                  1.8204431     104.3037045
  41 BEND      3  4  8                  1.9753649     113.1800708
  42 BEND      3  4  5                  1.7910588     102.6201076
  43 BEND      3  4  9                  1.9101238     109.4420311
  44 BEND      3  2 13                  1.9891097     113.9675880
  45 BEND      4  9 23                  1.8552549     106.2982744
  46 BEND      4  5  6                  1.9229349     110.1760558
  47 BEND      4  5  7                  1.9750638     113.1628201
  48 BEND      4  3 10                  1.9946418     114.2845565
  49 BEND      4  3 11                  1.9039621     109.0889916
  50 BEND      5  4  8                  1.9781941     113.3421726
  51 BEND      5  4  9                  1.9227370     110.1647126
  52 BEND      5  7 18                  1.9175316     109.8664698
  53 BEND      5  7 19                  1.9546998     111.9960506
  54 BEND      5  7 20                  1.9231214     110.1867396
  55 BEND      6  5  7                  1.9022804     108.9926381
  56 BEND      7 20 21                  1.8587371     106.4977898
  57 BEND      8  4  9                  1.8849421     107.9992259
  58 BEND     10  3 11                  1.8815199     107.8031484
  59 BEND     12  2 13                  1.9142286     109.6772173
  60 BEND     13 17 22                  1.8602389     106.5838365
  61 BEND     15 13 16                  1.8747892     107.4175113
  62 BEND     15 13 17                  1.8710204     107.2015741
  63 BEND     16 13 17                  1.9129077     109.6015383
  64 BEND     18  7 19                  1.8680367     107.0306197
  65 BEND     18  7 20                  1.8932318     108.4741944
  66 BEND     19  7 20                  1.9055035     109.1773087
  67 TORSION   1  5  7 19              -1.1132811     -63.7863099
  68 TORSION   1  2 13 17               2.9252313     167.6034099
  69 TORSION   1  5  7 20               3.0452354     174.4791380
  70 TORSION   1  2  3 10               2.6550823     152.1250082
  71 TORSION   1  2  3 11              -1.5207727     -87.1338575
  72 TORSION   1  2 12 14              -2.2100668    -126.6274998
  73 TORSION   1  2  3  4               0.5049575      28.9319326
  74 TORSION   1  5  4  8               2.5970796     148.8016977
  75 TORSION   1  5  4  3               0.4606580      26.3937576
  76 TORSION   1  5  4  9              -1.5719681     -90.0671357
  77 TORSION   1  2 13 16              -1.2170262     -69.7304660
  78 TORSION   1  2 13 15               0.8684020      49.7557718
  79 TORSION   1  5  7 18               0.9602488      55.0182039
  80 TORSION   2  1  5  4              -0.1494777      -8.5644433
  81 TORSION   2  3 11 24              -0.4588960     -26.2928024
  82 TORSION   2 13 17 22               3.0065380     172.2619408
  83 TORSION   2  1  5  7               2.0004379     114.6166500
  84 TORSION   2  3  4  8              -2.7029865    -154.8697157
  85 TORSION   2  1  5  6              -2.2233291    -127.3873762
  86 TORSION   2  3  4  9               1.4769959      84.6256296
  87 TORSION   2  3  4  5              -0.5646531     -32.3522399
  88 TORSION   3  2 13 15               2.9588934     169.5321046
  89 TORSION   3  2 13 16               0.8734652      50.0458668
  90 TORSION   3  2 12 14               2.0330665     116.4861276
  91 TORSION   3  2 13 17              -1.2674626     -72.6202574
  92 TORSION   3  2  1  5              -0.2238177     -12.8238083
  93 TORSION   3  4  9 23               3.0221306     173.1553286
  94 TORSION   3  4  5  6               2.5052452     143.5399769
  95 TORSION   3  4  5  7              -1.6434279     -94.1614823
  96 TORSION   4  3 11 24              -2.4094479    -138.0511949
  97 TORSION   4  5  7 18               3.0537514     174.9670673
  98 TORSION   4  5  7 19               0.9802215      56.1625535
  99 TORSION   4  5  7 20              -1.1444473     -65.5719986
 100 TORSION   4  3  2 12               2.5630160     146.8499974
 101 TORSION   4  3  2 13              -1.5899219     -91.0958146
 102 TORSION   5  1  2 13               1.9338754     110.8029000
 103 TORSION   5  7 20 21               3.0917569     177.1446236
 104 TORSION   5  1  2 12              -2.2656807    -129.8139411
 105 TORSION   5  4  9 23              -1.3042956     -74.7306358
 106 TORSION   5  4  3 10              -2.6960531    -154.4724640
 107 TORSION   5  4  3 11               1.4798851      84.7911681
 108 TORSION   6  5  7 20               1.0015435      57.3842150
 109 TORSION   6  5  7 19               3.1262122     179.1187671
 110 TORSION   6  5  7 18              -1.0834431     -62.0767191
 111 TORSION   6  5  4  8              -1.6415185     -94.0520830
 112 TORSION   6  5  4  9               0.4726192      27.0790836
 113 TORSION   7  5  4  8               0.4929937      28.2464578
 114 TORSION   7  5  4  9               2.6071314     149.3776244
 115 TORSION   8  4  3 10               1.4487989      83.0100602
 116 TORSION   8  4  3 11              -0.6584483     -37.7263077
 117 TORSION   8  4  9 23               0.8646667      49.5417526
 118 TORSION   9  4  3 10              -0.6544041     -37.4945944
 119 TORSION   9  4  3 11              -2.7616513    -158.2309624
 120 TORSION  10  3 11 24               1.6986013      97.3226883
 121 TORSION  10  3  2 12              -1.5700446     -89.9569270
 122 TORSION  10  3  2 13               0.5602029      32.0972609
 123 TORSION  11  3  2 12               0.5372858      30.7842073
 124 TORSION  11  3  2 13               2.6675332     152.8383953
 125 TORSION  12  2 13 15              -1.2113141     -69.4031857
 126 TORSION  12  2 13 16               2.9864429     171.1105764
 127 TORSION  12  2 13 17               0.8455152      48.4444523
 128 TORSION  13  2 12 14              -0.1427383      -8.1783010
 129 TORSION  15 13 17 22              -1.1930866     -68.3588247
 130 TORSION  16 13 17 22               0.8365081      47.9283830
 131 TORSION  18  7 20 21              -1.0917392     -62.5520483
 132 TORSION  19  7 20 21               0.9381496      53.7520146

     ------------------------------------------
     THE POINT GROUP IS C1 , NAXIS= 1, ORDER= 1
     ------------------------------------------

     DIMENSIONS OF THE SYMMETRY SUBSPACES ARE
 A   =  300

 ..... DONE SETTING UP THE RUN .....
 STEP CPU TIME =     0.02 TOTAL CPU TIME =        0.0 (    0.0 MIN)
 TOTAL WALL CLOCK TIME=        0.0 SECONDS, CPU UTILIZATION IS 100.00%


          -----------------------------
          STATIONARY POINT LOCATION RUN
          -----------------------------

 OBTAINING INITIAL HESSIAN, HESS=GUESS   
 DIAGONAL GUESS HESSIAN IN INTERNAL COORDS IS
     1  0.3572     2  0.3510     3  0.3569     4  0.3558     5  0.3612
     6  0.3772     7  0.3525     8  0.3438     9  0.3633    10  0.3570
    11  0.3440    12  0.3670    13  0.3425    14  0.3643    15  0.3441
    16  0.3423    17  0.3496    18  0.3450    19  0.3485    20  0.3425
    21  0.3604    22  0.3441    23  0.3501    24  0.3506    25  0.2417
    26  0.2420    27  0.2421    28  0.2369    29  0.2417    30  0.2183
    31  0.2420    32  0.2416    33  0.2229    34  0.2233    35  0.2489
    36  0.2364    37  0.2134    38  0.2230    39  0.2419    40  0.2128
    41  0.2247    42  0.2491    43  0.2436    44  0.2469    45  0.2136
    46  0.2234    47  0.2481    48  0.2247    49  0.2431    50  0.2235
    51  0.2423    52  0.2237    53  0.2239    54  0.2433    55  0.2237
    56  0.2142    57  0.2189    58  0.2185    59  0.2415    60  0.2139
    61  0.2029    62  0.2191    63  0.2192    64  0.2029    65  0.2194
    66  0.2195    67  0.2500    68  0.2500    69  0.2500    70  0.2500
    71  0.2500    72  0.2500    73  0.2500    74  0.2500    75  0.2500
    76  0.2500    77  0.2500    78  0.2500    79  0.2500    80  0.2500
    81  0.2500    82  0.2500    83  0.2500    84  0.2500    85  0.2500
    86  0.2500    87  0.2500    88  0.2500    89  0.2500    90  0.2500
    91  0.2500    92  0.2500    93  0.2500    94  0.2500    95  0.2500
    96  0.2500    97  0.2500    98  0.2500    99  0.2500   100  0.2500
   101  0.2500   102  0.2500   103  0.2500   104  0.2500   105  0.2500
   106  0.2500   107  0.2500   108  0.2500   109  0.2500   110  0.2500
   111  0.2500   112  0.2500   113  0.2500   114  0.2500   115  0.2500
   116  0.2500   117  0.2500   118  0.2500   119  0.2500   120  0.2500
   121  0.2500   122  0.2500   123  0.2500   124  0.2500   125  0.2500
   126  0.2500   127  0.2500   128  0.2500   129  0.2500   130  0.2500
   131  0.2500   132  0.2500
 TRANSFORMING HESSIAN TO SYMMETRY COORDINATES

          PARAMETERS CONTROLLING GEOMETRY SEARCH ARE
          METHOD =QA                  UPHESS =BFGS    
          NNEG   =         0          NFRZ   =         3
          NSTEP  =        50          IFOLOW =         1
          HESS   =GUESS               RESTAR =         F
          IHREP  =         0          HSSEND =         F
          NPRT   =         0          NPUN   =         0
          OPTTOL = 5.000E-04          RMIN   = 1.500E-03
          RMAX   = 1.000E-01          RLIM   = 7.000E-02
          DXMAX  = 3.000E-01          PURIFY =         F
          MOVIE  =         F          TRUPD  =         T
          TRMAX  = 5.000E-01          TRMIN  = 5.000E-02
          ITBMAT =         5          STPT   =         F
          STSTEP = 1.000E-02          PROJCT=          F
          FROZEN COORD(S)=   1   2   3


      ***** EQUILIBRIUM GEOMETRY LOCATED *****
            (SUBJECT TO   3 CONSTRAINT(S))
 COORDINATES OF ALL ATOMS ARE (ANGS)
   ATOM   CHARGE       X              Y              Z
 ------------------------------------------------------------
 O           8.0   3.0925330064  -0.9765524087   0.3386880145
 C           6.0   4.0257130821  -1.6635712355   1.1187959799
 C           6.0   3.3743858142  -1.8125399417   2.5094662755
 C           6.0   1.8852699348  -1.7689849471   2.2006104550
 C           6.0   1.8216771331  -0.8702639186   0.9615402532
 H           1.0   1.0730077297  -1.2358041654   0.2685374499
 C           6.0   1.5255745852   0.5875537168   1.2698609647
 H           1.0   1.3277092707  -1.3530313416   3.0284196886
 O           8.0   1.4586807037  -3.0793338616   1.9229727884
 H           1.0   3.6580879984  -2.7450501579   2.9796697630
 O           8.0   3.6892918193  -0.7260626204   3.3346447709
 O           8.0   5.1770850016  -0.8827090486   1.1799250554
 C           6.0   4.3425895017  -2.9974089401   0.4592494832
 H           1.0   5.9341947442  -1.4488476783   1.1975492688
 H           1.0   4.6152367364  -2.8076940802  -0.5743035063
 H           1.0   3.4682450022  -3.6340179573   0.4867971900
 O           8.0   5.4170406728  -3.5644602339   1.1674586438
 H           1.0   1.6606077804   1.1738168555   0.3656557654
 H           1.0   2.2075578252   0.9568405721   2.0268810834
 O           8.0   0.1929792793   0.6502842985   1.7170630634
 H           1.0   0.0083411358   1.5201135875   2.0293529952
 H           1.0   5.6361011298  -4.4035015600   0.7978066575
 H           1.0   0.5400922792  -3.0721534268   1.7096645120
 H           1.0   4.5556715976  -0.4237327932   3.1099897659


                     --------------------
                     INTERNAL COORDINATES
                     --------------------

                 - - ATOMS - -         COORDINATE      COORDINATE
 NO.   TYPE    I  J  K  L  M  N        (BOHR,RAD)       (ANG,DEG)
 ----------------------------------------------------------------
   1 STRETCH   1  2                     2.6397980       1.3969210
   2 STRETCH   1  5                     2.6820244       1.4192663
   3 STRETCH   2 13                     2.8749529       1.5213597
   4 STRETCH   2 12                     2.6315001       1.3925300
   5 STRETCH   2  3                     2.9155617       1.5428489
   6 STRETCH   3  4                     2.8750894       1.5214319
   7 STRETCH   3 11                     2.6459662       1.4001851
   8 STRETCH   3 10                     2.0450586       1.0821985
   9 STRETCH   4  5                     2.8950692       1.5320047
  10 STRETCH   4  9                     2.6564435       1.4057295
  11 STRETCH   4  8                     2.0433168       1.0812768
  12 STRETCH   5  7                     2.8708730       1.5192007
  13 STRETCH   5  6                     2.0478723       1.0836874
  14 STRETCH   7 20                     2.6589023       1.4070306
  15 STRETCH   7 19                     2.0480248       1.0837681
  16 STRETCH   7 18                     2.0523551       1.0860596
  17 STRETCH   9 23                     1.7821195       0.9430571
  18 STRETCH  11 24                     1.7852532       0.9447154
  19 STRETCH  12 14                     1.7868043       0.9455362
  20 STRETCH  13 15                     2.0515150       1.0856150
  21 STRETCH  13 17                     2.6574363       1.4062549
  22 STRETCH  13 16                     2.0444951       1.0819003
  23 STRETCH  17 22                     1.7813817       0.9426667
  24 STRETCH  20 21                     1.7809795       0.9424538
  25 BEND      1  2 13                  1.9052236     109.1612693
  26 BEND      1  5  7                  1.9128844     109.6002016
  27 BEND      1  2  3                  1.8429836     105.5951812
  28 BEND      1  2 12                  1.8766108     107.5218760
  29 BEND      1  5  4                  1.8481798     105.8929015
  30 BEND      1  5  6                  1.8888404     108.2225857
  31 BEND      2 13 17                  1.8695656     107.1182188
  32 BEND      2  3 11                  1.9405008     111.1825074
  33 BEND      2 13 15                  1.8879155     108.1695880
  34 BEND      2  3 10                  1.9435292     111.3560193
  35 BEND      2  3  4                  1.8002521     103.1468497
  36 BEND      2  1  5                  1.9713471     112.9498684
  37 BEND      2 12 14                  1.9040516     109.0941181
  38 BEND      2 13 16                  1.9140195     109.6652419
  39 BEND      3  2 12                  1.9429519     111.3229462
  40 BEND      3 11 24                  1.8906538     108.3264818
  41 BEND      3  4  8                  1.9393793     111.1182494
  42 BEND      3  4  5                  1.7942603     102.8035440
  43 BEND      3  4  9                  1.8864393     108.0850110
  44 BEND      3  2 13                  1.9758195     113.2061182
  45 BEND      4  9 23                  1.9104565     109.4610940
  46 BEND      4  5  6                  1.9262434     110.3656179
  47 BEND      4  5  7                  1.9898269     114.0086853
  48 BEND      4  3 10                  1.9492198     111.6820675
  49 BEND      4  3 11                  1.8939404     108.5147894
  50 BEND      5  4  8                  1.9520923     111.8466472
  51 BEND      5  4  9                  1.9546439     111.9928474
  52 BEND      5  7 18                  1.9015931     108.9532589
  53 BEND      5  7 19                  1.9241948     110.2482406
  54 BEND      5  7 20                  1.8669905     106.9706754
  55 BEND      6  5  7                  1.8952739     108.5911941
  56 BEND      7 20 21                  1.9092331     109.3909981
  57 BEND      8  4  9                  1.9319039     110.6899421
  58 BEND     10  3 11                  1.9322186     110.7079694
  59 BEND     12  2 13                  1.9160649     109.7824321
  60 BEND     13 17 22                  1.9166259     109.8145772
  61 BEND     15 13 16                  1.9071358     109.2708339
  62 BEND     15 13 17                  1.9369651     110.9799281
  63 BEND     16 13 17                  1.9469860     111.5540820
  64 BEND     18  7 19                  1.8958624     108.6249135
  65 BEND     18  7 20                  1.9372464     110.9960453
  66 BEND     19  7 20                  1.9377564     111.0252622
  67 TORSION   1  5  7 19              -1.1667136     -66.8477657
  68 TORSION   1  2 13 17               2.9971512     171.7241142
  69 TORSION   1  5  7 20               3.0077036     172.3287213
  70 TORSION   1  2  3 10               2.5481013     145.9954484
  71 TORSION   1  2  3 11              -1.5714549     -90.0377331
  72 TORSION   1  2 12 14              -2.5368032    -145.3481152
  73 TORSION   1  2  3  4               0.4552067      26.0814243
  74 TORSION   1  5  4  8               2.5178718     144.2634251
  75 TORSION   1  5  4  3               0.4359251      24.9766669
  76 TORSION   1  5  4  9              -1.5850346     -90.8157936
  77 TORSION   1  2 13 16              -1.1703955     -67.0587230
  78 TORSION   1  2 13 15               0.9080845      52.0294084
  79 TORSION   1  5  7 18               0.9122788      52.2697269
  80 TORSION   2  1  5  4              -0.1575047      -9.0243532
  81 TORSION   2  3 11 24              -0.5682926     -32.5607650
  82 TORSION   2 13 17 22               3.1246743     179.0306478
  83 TORSION   2  1  5  7               1.9961986     114.3737543
  84 TORSION   2  3  4  8              -2.6223663    -150.2505220
  85 TORSION   2  1  5  6              -2.2229042    -127.3630267
  86 TORSION   2  3  4  9               1.5378240      88.1108267
  87 TORSION   2  3  4  5              -0.5315906     -30.4578983
  88 TORSION   3  2 13 15               2.9553378     169.3283844
  89 TORSION   3  2 13 16               0.8768578      50.2402530
  90 TORSION   3  2 12 14               1.7356568      99.4458080
  91 TORSION   3  2 13 17              -1.2387808     -70.9769099
  92 TORSION   3  2  1  5              -0.1888328     -10.8193214
  93 TORSION   3  4  9 23              -3.1198307    -178.7531331
  94 TORSION   3  4  5  6               2.4762996     141.8815140
  95 TORSION   3  4  5  7              -1.6684754     -95.5965962
  96 TORSION   4  3 11 24              -2.5364843    -145.3298467
  97 TORSION   4  5  7 18               2.9801077     170.7475952
  98 TORSION   4  5  7 19               0.9011153      51.6301026
  99 TORSION   4  5  7 20              -1.2076528     -69.1934104
 100 TORSION   4  3  2 12               2.4866168     142.4726481
 101 TORSION   4  3  2 13              -1.6281790     -93.2877846
 102 TORSION   5  1  2 13               1.9406603     111.1916451
 103 TORSION   5  7 20 21               3.0081181     172.3524704
 104 TORSION   5  1  2 12              -2.2648639    -129.7671417
 105 TORSION   5  4  9 23              -1.1556533     -66.2140544
 106 TORSION   5  4  3 10              -2.6205676    -150.1474617
 107 TORSION   5  4  3 11               1.5279728      87.5463948
 108 TORSION   6  5  7 20               0.9476226      54.2947731
 109 TORSION   6  5  7 19               3.0563907     175.1182861
 110 TORSION   6  5  7 18              -1.1478022     -65.7642213
 111 TORSION   6  5  4  8              -1.7249391     -98.8317279
 112 TORSION   6  5  4  9               0.4553399      26.0890535
 113 TORSION   7  5  4  8               0.4134713      23.6901619
 114 TORSION   7  5  4  9               2.5937503     148.6109433
 115 TORSION   8  4  3 10               1.5718420      90.0599146
 116 TORSION   8  4  3 11              -0.5628029     -32.2462289
 117 TORSION   8  4  9 23               1.0357494      59.3440703
 118 TORSION   9  4  3 10              -0.5511529     -31.5787368
 119 TORSION   9  4  3 11              -2.6857978    -153.8848802
 120 TORSION  10  3 11 24               1.6017479      91.7733933
 121 TORSION  10  3  2 12              -1.7036740     -97.6133278
 122 TORSION  10  3  2 13               0.4647155      26.6262395
 123 TORSION  11  3  2 12               0.4599552      26.3534907
 124 TORSION  11  3  2 13               2.6283447     150.5930580
 125 TORSION  12  2 13 15              -1.1448756     -65.5965382
 126 TORSION  12  2 13 16               3.0598297     175.3153304
 127 TORSION  12  2 13 17               0.9441911      54.0981676
 128 TORSION  13  2 12 14              -0.4661025     -26.7057054
 129 TORSION  15 13 17 22              -1.1011934     -63.0937344
 130 TORSION  16 13 17 22               1.0299859      59.0138431
 131 TORSION  18  7 20 21              -1.2026421     -68.9063189
 132 TORSION  19  7 20 21               0.9079945      52.0242520

          INTERNUCLEAR DISTANCES (ANGS.)


 =====================================================
   GAMESS/COSab RESULTS
 =====================================================

   Dielectric Constant                  = INFTY
   Basic Grid Size                      =                 1082
   Number of Segments                   =                   92
   Number of Segments located on spheres=                  323
   Number of Segments of the cavity     =                  752
   Solvent Radius (rsolv)               = 1.40
   Outlying Charge Error Method         = double cavity

 =====================================================

  Total solvated Energy (a.u.)          =  -683.5651775911
  Total Energy corrected (a.u.)         =  -683.5654292588

  Outlying charge effect (a.u.)         =    -0.0002516678
  Outlying charge effect (kcal/mol)     =    -0.1579240409

  Dielectric Energy (a.u.)              =    -0.0337772102
  Dielectric energy corr. (a.u.)        =    -0.0340288779

  Sum of polarization charges           =     0.0163182095
  Sum of polarization charges(cor.)     =    -0.0163182095

  Total surface area of cavity (A**2)   =  184.47
  Total volume of cavity (A**3)         =  193.61

 =====================================================
 NPS=                   752
NR.  ATOM  (X, Y, Z)(a.u.)                  CHARGE(e)  AREA(A**2) SIGMA(e/A**2)
   1   1   5.490731  -2.684300  -2.480252   0.004944   0.274871   0.017988
   2   1   6.888632   0.021072  -1.807363   0.004808   0.274871   0.017491
   3   1   4.666468  -1.366125  -2.351339   0.001291   0.137436   0.009391
   4   1   4.880941  -1.998950  -2.460545   0.003774   0.240512   0.015690
   5   1   4.990024  -0.370861  -2.127824   0.002748   0.206154   0.013331
   6   1   5.959150   0.066140  -1.986256   0.004813   0.274871   0.017510
   7   1   6.091322  -1.772208  -2.600063   0.006618   0.343589   0.019260
   8   1   6.507576  -0.741117  -2.344085   0.004752   0.274871   0.017288
   9   1   6.814097   0.658953  -1.190758   0.004148   0.206154   0.020120
  10   1   4.717219  -3.111074  -2.133612   0.004584   0.274871   0.016676
  11   1   7.695402  -0.762933  -1.802385   0.004341   0.309230   0.014037
  12   1   7.550403   0.186208  -1.237603   0.002883   0.171795   0.016783
  13   1   5.467775  -0.930022  -2.455963   0.004368   0.274871   0.015891
  14   1   7.142638  -1.383422  -2.303594   0.004149   0.240512   0.017249
  15   1   7.204357   0.905573  -0.430596   0.002913   0.137436   0.021197
  16   3   9.754525  -3.932169   6.360005  -0.000609   0.092912  -0.006559
  17   3   6.934148  -4.584305   8.296074   0.000203   0.139368   0.001456
  18   3   9.316932  -4.559981   6.828197  -0.000493   0.139368  -0.003541
  19   3   9.244378  -4.124756   7.102522  -0.000019   0.046456  -0.000404
  20   3   5.961928  -4.421383   8.364348  -0.000055   0.232280  -0.000236
  21   3   5.138232  -4.835154   8.022852  -0.000355   0.139368  -0.002546
  22   3   5.485575  -5.189805   7.963456  -0.000553   0.185824  -0.002976
  23   3   8.971377  -4.373065   7.321600   0.000011   0.046456   0.000243
  24   3   4.989825  -4.152597   8.181956  -0.000013   0.139368  -0.000091
  25   4   1.648915  -4.759447   7.093748   0.000041   0.139368   0.000297
  26   4  -0.039096  -3.225236   5.297838  -0.000419   0.046456  -0.009023
  27   4   2.746295  -5.092665   7.407584   0.000078   0.325193   0.000238
  28   4   3.511142  -4.656061   7.702175  -0.000119   0.139368  -0.000855
  29   4   3.021762  -4.287382   7.777906  -0.000630   0.185824  -0.003392
  30   5   3.243319  -0.575383  -1.802547  -0.000250   0.139368  -0.001792
  31   5   2.705266  -1.046743  -1.841285  -0.000886   0.278737  -0.003179
  32   6   0.646362  -3.006111  -1.410112  -0.002998   0.412182  -0.007273
  33   6   2.081862  -3.517789  -1.645209  -0.002571   0.412182  -0.006237
  34   6   1.235213  -1.593925  -1.696495  -0.002362   0.412182  -0.005731
  35   6  -0.328051  -2.715499  -0.076504  -0.003324   0.431809  -0.007697
  36   6   0.220510  -3.555119  -0.624480  -0.002854   0.333671  -0.008553
  37   6   1.434785  -4.136563  -1.054310  -0.003361   0.431809  -0.007783
  38   6   1.715588  -2.545508  -1.920202  -0.002037   0.392554  -0.005190
  39   6   0.202526  -1.856721  -1.065688  -0.003376   0.490692  -0.006879
  40   7   2.919714   4.886834   2.543704  -0.000598   0.278737  -0.002146
  41   7   5.979616   3.248211   2.047408  -0.000164   0.278737  -0.000587
  42   7   5.501537   3.622084   1.342293   0.000115   0.185824   0.000620
  43   7   3.486674   4.788829   1.776621   0.000003   0.232280   0.000012
  44   7   0.617331   2.394772  -0.339201   0.000311   0.092912   0.003348
  45   7   1.441705   0.997929  -1.092380  -0.000375   0.185824  -0.002020
  46   7   2.567355   2.318870   5.966765  -0.000105   0.046456  -0.002266
  47   7   0.620005   1.059190  -0.627004   0.000005   0.139368   0.000038
  48   7   0.910011   3.875900   0.743374  -0.000047   0.046456  -0.001013
  49   7   2.418740   4.798684   1.718025  -0.000163   0.185824  -0.000876
  50   7   3.964611   4.712852   2.768287   0.000191   0.278737   0.000684
  51   7   5.327165   3.987100   2.215332   0.000635   0.325193   0.001954
  52   7   5.918164   2.899890   1.032592  -0.000080   0.185824  -0.000431
  53   7   3.325254   4.688722   3.532620  -0.000620   0.325193  -0.001907
  54   7   2.601639   1.694351   6.123129   0.000017   0.092912   0.000179
  55   7   4.516212   4.482594   1.905427   0.000387   0.278737   0.001387
  56   7   1.818574   4.556840   1.271491  -0.000409   0.092912  -0.004401
  57   7   0.715011   1.721129  -0.635329   0.000111   0.139368   0.000794
  58   7   3.119219   4.338910   4.350208   0.000024   0.139368   0.000169
  59   7   4.754392   4.351782   2.923790   0.000124   0.185824   0.000668
  60   8   1.097998  -1.853357   7.606842  -0.003032   0.353299  -0.008581
  61   8   2.529945  -2.935332   8.150118  -0.001801   0.274788  -0.006553
  62   8   1.000665  -3.500220   7.417032  -0.001717   0.333671  -0.005146
  63   8   0.264489  -3.070333   6.579415  -0.001939   0.294415  -0.006586
  64   8   2.025442  -1.111245   7.649410  -0.002533   0.274788  -0.009217
  65   8   2.124380  -1.940726   8.069709  -0.002578   0.333671  -0.007727
  66   8   1.671904  -3.113151   7.964525  -0.002272   0.372926  -0.006093
  67   8   0.531683  -2.453619   7.177084  -0.002350   0.294415  -0.007982
  68   9   4.007179  -8.606285   4.743840   0.007117   0.343589   0.020713
  69   9   3.166889  -6.907430   6.668975   0.002529   0.137436   0.018399
  70   9   1.631820  -8.493311   2.168202   0.001013   0.240512   0.004211
  71   9   0.816467  -7.620881   5.519210   0.002737   0.343589   0.007967
  72   9   4.070882  -8.786355   3.813813   0.004437   0.240512   0.018446
  73   9   3.724669  -8.187493   5.638374   0.004922   0.240512   0.020464
  74   9   3.323890  -7.536323   6.334598   0.003068   0.171795   0.017859
  75   9   1.259236  -8.672120   3.206081   0.000397   0.274871   0.001445
  76   9   0.966491  -8.395105   4.485136   0.001330   0.309230   0.004302
  77   9   0.744415  -6.769239   6.003140   0.001951   0.240512   0.008112
  78   9   0.567796  -5.924804   6.034518   0.000779   0.171795   0.004535
  79   9   1.818580  -6.917870   0.722259   0.001114   0.171795   0.006483
  80   9   1.697333  -7.824932   1.305936   0.001128   0.240512   0.004690
  81   9   2.491137  -8.478229   1.783708   0.003747   0.309230   0.012117
  82   9   2.250530  -8.969605   3.015134   0.003483   0.377948   0.009217
  83   9   3.132247  -9.038508   3.876353   0.003968   0.274871   0.014437
  84   9   2.861788  -8.773626   4.984540   0.006618   0.412307   0.016051
  85   9   1.793736  -8.347782   5.434839   0.006145   0.446666   0.013757
  86   9   1.683212  -7.331336   6.303307   0.005749   0.377948   0.015211
  87   9   2.369006  -6.742617   6.726071   0.004597   0.274871   0.016724
  88   9   2.337040  -6.596645   0.505939   0.001754   0.137436   0.012759
  89   9   3.197065  -8.947659   2.870620   0.004628   0.274871   0.016836
  90   9   2.720415  -7.975901   6.065247   0.006166   0.343589   0.017945
  91   9   1.895916  -8.903711   4.189878   0.004107   0.412307   0.009961
  92   9   1.405093  -6.301590   6.550313   0.002243   0.206154   0.010880
  93   9   2.350479  -7.561126   0.920023   0.002388   0.206154   0.011582
  94  10   7.610033  -7.128728   6.964985  -0.002968   0.353299  -0.008401
  95  10   5.993778  -6.504808   7.489494  -0.001635   0.274788  -0.005949
  96  10   7.635265  -5.830289   7.889028  -0.001658   0.314043  -0.005278
  97  10   8.625277  -5.690114   7.318877  -0.001774   0.294415  -0.006026
  98  10   6.882007  -7.593366   6.126184  -0.002450   0.274788  -0.008915
  99  10   6.531727  -7.243767   6.919634  -0.002486   0.333671  -0.007449
 100  10   6.817660  -6.304221   7.816785  -0.002272   0.372926  -0.006093
 101  10   8.251535  -6.501788   7.216701  -0.002272   0.294415  -0.007717
 102  11   5.897383  -0.634114   9.279121   0.005565   0.309230   0.017998
 103  11   6.977620  -3.044824   9.088413   0.002910   0.206154   0.014118
 104  11   7.754883   1.588546   7.390653   0.000861   0.240512   0.003581
 105  11   9.181039  -1.402246   8.685423   0.002759   0.343589   0.008029
 106  11   4.998218  -1.036462   8.862273   0.005142   0.274871   0.018708
 107  11   5.211472   0.791205   7.970799   0.003762   0.206154   0.018250
 108  11   5.378787   0.068691   8.741106   0.004917   0.274871   0.017887
 109  11   6.128664  -1.535976   9.436373   0.006290   0.343589   0.018308
 110  11   6.257672  -2.582984   9.232171   0.005698   0.309230   0.018426
 111  11   8.304916   0.959531   8.132129   0.000654   0.274871   0.002380
 112  11   8.829896  -0.150145   8.671976   0.001206   0.309230   0.003899
 113  11   9.357778  -2.291635   8.308032   0.002038   0.240512   0.008475
 114  11   9.555406  -2.812518   7.648582   0.000660   0.171795   0.003840
 115  11   7.653027   1.799158   6.510901   0.000879   0.137436   0.006396
 116  11   6.779700   1.652248   7.476845   0.004228   0.343589   0.012307
 117  11   7.204250   1.105542   8.392511   0.004092   0.412307   0.009926
 118  11   6.450976   0.361899   9.000977   0.005222   0.343589   0.015198
 119  11   7.048295  -0.592659   9.456139   0.006619   0.412307   0.016053
 120  11   8.189102  -1.037617   9.296704   0.006143   0.446666   0.013753
 121  11   8.476726  -2.318895   9.022451   0.005702   0.377948   0.015088
 122  11   7.891527  -3.115482   8.885975   0.004510   0.274871   0.016409
 123  11   4.750687   0.170277   8.105097   0.004573   0.206154   0.022182
 124  11   5.372535  -2.227261   8.998941   0.005006   0.309230   0.016189
 125  11   5.989643   1.084582   8.189687   0.005620   0.343589   0.016356
 126  11   7.350327  -1.992104   9.469673   0.007500   0.412307   0.018190
 127  11   7.851624   0.248492   8.978180   0.004011   0.412307   0.009729
 128  11   8.817135  -3.104806   8.340393   0.002393   0.206154   0.011607
 129  12   9.905388   0.836646   0.161861   0.003209   0.206154   0.015564
 130  12  10.507938   1.358819   3.166452   0.003920   0.240512   0.016298
 131  12  12.588692  -0.176319   1.544974   0.000880   0.274871   0.003203
 132  12  12.096193  -1.297309   4.483080   0.000398   0.137436   0.002894
 133  12  11.432777  -1.918363  -0.559723   0.001334   0.206154   0.006469
 134  12   9.386968   1.234029   0.820696   0.004060   0.206154   0.019695
 135  12   9.594549   1.533985   2.754970   0.004766   0.240512   0.019816
 136  12  10.132277   1.356850   1.092775   0.005216   0.309230   0.016869
 137  12  10.311748   1.538044   2.151129   0.003823   0.240512   0.015894
 138  12   9.779665   0.350133  -0.318099   0.003463   0.206154   0.016796
 139  12  12.703355  -0.310391   2.670677   0.000316   0.274871   0.001148
 140  12  12.435701  -0.688226   3.832591   0.000579   0.240512   0.002406
 141  12  11.893182  -1.364658  -0.223999   0.001733   0.240512   0.007204
 142  12  12.370075  -0.734269   0.497379   0.001275   0.309230   0.004124
 143  12  10.956392   0.780737   0.443191   0.006016   0.377948   0.015917
 144  12  11.938284   0.329182   0.839949   0.003977   0.377948   0.010524
 145  12  12.087182   0.621698   2.113247   0.003899   0.412307   0.009458
 146  12  11.255108   1.198654   2.654252   0.004336   0.309230   0.014021
 147  12  11.402209   0.772427   3.639575   0.003822   0.274871   0.013904
 148  12  11.946499  -0.146716   4.119327   0.001694   0.171795   0.009861
 149  12  11.008079  -1.092284  -0.725415   0.003205   0.240512   0.013325
 150  12  10.586313  -0.007007  -0.446194   0.004673   0.274871   0.017001
 151  12   9.370381   1.532954   1.845542   0.003659   0.206154   0.017750
 152  12  11.133865   1.201988   1.520315   0.005036   0.343589   0.014656
 153  12  10.233420  -0.758208  -0.858002   0.004567   0.240512   0.018987
 154  12  12.170272   0.291798   3.242538   0.002689   0.343589   0.007826
 155  12  11.547401  -0.253199  -0.104913   0.004801   0.377948   0.012703
 156  13   8.399219  -8.728578  -1.336044  -0.001324   0.325193  -0.004073
 157  13   5.439052  -6.226930  -1.644115  -0.000713   0.325193  -0.002192
 158  13   6.330163  -6.295021  -2.351856  -0.000011   0.232280  -0.000047
 159  13   8.408720  -7.973784  -2.117030  -0.000212   0.278737  -0.000760
 160  13  11.129374  -6.598894  -1.338164  -0.000114   0.046456  -0.002452
 161  13   7.362674  -9.055820   2.306592  -0.000303   0.092912  -0.003264
 162  13   9.254863  -8.001151  -1.911334  -0.000465   0.185824  -0.002501
 163  13   7.545591  -8.218375  -1.838500  -0.000068   0.278737  -0.000243
 164  13   6.220967  -7.046635  -2.035903   0.000211   0.325193   0.000649
 165  13   6.008094  -5.496743  -2.202010  -0.000236   0.232280  -0.001016
 166  13   7.459837  -8.919908  -0.900747  -0.000441   0.325193  -0.001355
 167  13   7.184667  -8.713156   2.854011  -0.000030   0.046456  -0.000650
 168  13   7.220091  -7.497785  -2.286498   0.000112   0.278737   0.000401
 169  13   9.951594  -7.644595  -1.837078  -0.000380   0.092912  -0.004089
 170  13  11.416948  -5.038141  -1.025310  -0.000088   0.139368  -0.000631
 171  13   7.576351  -9.259190  -0.114006  -0.000741   0.139368  -0.005320
 172  13   6.598973  -7.941923  -1.684223   0.000065   0.232280   0.000282
 173  14  13.584718  -3.377992   2.191538  -0.006542   0.314043  -0.020832
 174  14  13.041166  -2.340552   3.856358  -0.004759   0.314043  -0.015152
 175  14  13.489106  -1.959869   1.759457  -0.007065   0.431809  -0.016362
 176  14  12.724997  -3.059299   0.352887  -0.005483   0.314043  -0.017459
 177  14  13.608460  -2.757102   2.811942  -0.006249   0.333671  -0.018728
 178  14  13.379987  -3.097789   1.161185  -0.006219   0.333671  -0.018638
 179  14  13.148400  -3.336350   3.654120  -0.005382   0.294415  -0.018280
 180  14  13.361369  -1.770696   2.961867  -0.004604   0.314043  -0.014660
 181  14  13.027209  -2.199541   0.695404  -0.003119   0.255160  -0.012225
 182  14  12.441225  -3.033281   4.370600  -0.004444   0.235532  -0.018866
 183  15   9.415427  -5.033246  -3.426071  -0.003927   0.529948  -0.007410
 184  15  10.821505  -5.665341  -2.308341  -0.001423   0.314043  -0.004531
[...]
 493  23  -0.723671  -4.414306   1.789600  -0.003653   0.240665  -0.015179
 494  23  -0.226487  -5.138421   1.050761  -0.006091   0.481402  -0.012652
 495  23   0.641021  -5.741814   0.602694  -0.001799   0.240665  -0.007477
 496   6  -0.241331  -3.595920   0.630986  -0.003350   0.481402  -0.006958
 497   6   0.609847  -4.423907  -0.109306  -0.002940   0.481402  -0.006107
 498   7   3.070397   0.596681   6.389430   0.000109   0.262783   0.000414
 499   8   2.997068  -0.221139   6.870426  -0.000871   0.262783  -0.003313
 500  11   3.873592   0.106504   7.046873   0.003185   0.262783   0.012121
 501   7   2.313020   0.920206   6.212504   0.000370   0.129646   0.002857
 502   8   2.252425   0.055868   6.586605  -0.000071   0.129646  -0.000544
 503  20   1.841705   0.933209   6.259508   0.001365   0.129646   0.010531
 504   8   2.496801  -0.288926   6.977171  -0.000148   0.016702  -0.008831
 505   7   2.571556   0.960010   6.368422   0.000029   0.023608   0.001243
 506   7   3.426013   1.437870   6.247100  -0.000281   0.083104  -0.003379
 507  11   4.253234   0.910535   6.825951   0.001444   0.083104   0.017374
 508  19   3.702395   1.553580   6.299413  -0.000181   0.083104  -0.002180
 509  11   4.298164   0.595219   7.349600   0.001677   0.126721   0.013230
 510   7   3.102597   1.251710   6.437316   0.000213   0.142994   0.001490
 511   7   6.579430   2.348951   2.668345  -0.000235   0.136288  -0.001726
 512  12   7.742980   1.576568   2.633757   0.001256   0.136288   0.009213
 513  19   6.599355   2.362351   2.975144  -0.000491   0.136288  -0.003599
 514  12   8.484506   1.473587   1.534923   0.006783   0.636414   0.010657
 515   7   6.676178   2.426481   1.839341   0.000821   0.732488   0.001121
 516  18   2.028580   1.480581  -1.373816  -0.000271   0.067824  -0.004001
 517  18   1.388813   2.266417  -0.959832  -0.000690   0.150023  -0.004598
 518  18   1.257408   3.381162  -0.256671  -0.000791   0.150023  -0.005271
 519  18   1.936684   4.286258   0.431621  -0.000846   0.150023  -0.005642
 520  18   3.155072   4.619854   0.829871  -0.000697   0.150023  -0.004649
 521  18   4.425471   4.248582   0.778861  -0.000560   0.150023  -0.003732
 522  18   5.239987   3.320874   0.298985  -0.000823   0.150023  -0.005486
 523   7   1.524482   1.456561  -1.062485  -0.000632   0.149210  -0.004233
 524   7   0.919941   2.636962  -0.387411  -0.000573   0.149210  -0.003839
 525   7   1.244353   3.832976   0.436514  -0.000727   0.149210  -0.004872
 526   7   2.368022   4.566445   1.079890  -0.000757   0.149210  -0.005075
 527   7   3.841714   4.544136   1.285502  -0.000478   0.149210  -0.003204
 528   7   5.076260   3.774968   0.971148  -0.000486   0.149210  -0.003259
 529   7   5.621972   2.835130   0.443265  -0.000293   0.082862  -0.003533
 530   7   2.754447   3.802203   5.064217  -0.000326   0.019213  -0.016989
 531  19   3.030831   3.716926   5.147798  -0.000215   0.019213  -0.011197
 532  21   2.106541   3.928205   5.126704  -0.000538   0.019213  -0.028001
 533   7   2.513286   2.857667   5.742236  -0.000178   0.019213  -0.009270
 534  19   2.813808   2.866928   5.757955  -0.000203   0.019213  -0.010544
 535  21   1.892610   3.090317   5.728167  -0.000276   0.019213  -0.014357
 536  19   6.125153   3.122336   3.130572  -0.000365   0.069031  -0.005288
 537  19   5.358097   3.863947   3.459828  -0.000748   0.153479  -0.004877
 538  19   4.310762   4.168559   4.254759  -0.000859   0.153479  -0.005599
 539  19   3.593296   3.858714   5.052260  -0.000436   0.069031  -0.006312
 540   7   5.743347   3.468968   2.828531  -0.000637   0.151096  -0.004215
 541   7   4.608896   4.240041   3.474395  -0.000565   0.151096  -0.003738
 542   7   3.516632   4.116596   4.518614  -0.000996   0.151096  -0.006590
 543  19   3.295033   2.457079   6.004703  -0.000554   0.096407  -0.005743
 544   7   2.918748   2.161706   6.010869  -0.000518   0.117782  -0.004395
 545   7   2.028822   2.565161   5.877020  -0.000186   0.038320  -0.004857
 546  20   1.569049   2.561538   5.971859  -0.000176   0.038320  -0.004601
 547  21   1.430771   2.849353   5.932248  -0.000405   0.038320  -0.010574
 548   7   0.522690   3.925218   1.198221  -0.000159   0.038320  -0.004137
 549  20   0.091156   3.896097   1.380780  -0.000181   0.038320  -0.004729
 550  21   0.043796   4.101810   1.623610  -0.000476   0.038320  -0.012409
 551  20  -0.012873   3.480310   0.944578   0.000659   0.182111   0.003618
 552  20  -0.323387   1.801278   0.254845   0.005427   0.381616   0.014220
 553   7   0.447922   2.895205   0.314167   0.001271   0.391139   0.003249
 554   7   0.175666   1.089108  -0.243739   0.001136   0.199238   0.005699
 555  20   1.661529   1.799614   6.169776   0.001041   0.165046   0.006307
 556   7   2.328290   2.015004   6.040810   0.000060   0.180577   0.000330
 557  21   1.438602   3.100127   5.956070  -0.000403   0.062020  -0.006491
 558   7   2.322012   2.770054   5.863431  -0.000189   0.075771  -0.002492
 559  21   1.719310   4.363187   4.965945  -0.003018   0.191497  -0.015761
 560  21   1.403861   4.882668   3.697906  -0.007551   0.398034  -0.018971
 561  21   0.546309   4.663167   2.254298  -0.005903   0.398034  -0.014830
 562   7   2.498558   4.395688   4.220019  -0.004624   0.452661  -0.010215
 563   7   1.832908   4.736228   2.472105  -0.004378   0.452661  -0.009672
 564   7   0.945809   4.251751   1.294831  -0.000929   0.233956  -0.003973
 565  11   4.144433  -0.268027   7.870740   0.004363   0.338075   0.012906
 566  11   4.457156  -1.727695   8.447576   0.007009   0.669108   0.010476
 567   8   3.018407  -1.253349   7.779882  -0.002275   0.553910  -0.004107
 568   8   3.334678  -2.635261   8.170153  -0.000846   0.273741  -0.003091
 569  20  -0.924810  -1.233320   5.306259   0.004398   0.298054   0.014754
 570  20  -0.371618  -0.364349   6.155075   0.009016   0.591852   0.015234
 571  20   0.888637   0.604136   6.544088   0.007009   0.591852   0.011843
 572   8   0.074580  -1.973430   6.253503  -0.000993   0.481533  -0.002062
 573   8   0.923090  -1.005397   6.998112  -0.001472   0.481533  -0.003058
 574   8   1.966192  -0.370008   7.066168  -0.000819   0.239470  -0.003418
 575   9   5.770460  -7.756040   4.340333   0.001946   0.303458   0.006414
 576  10   6.605689  -7.602730   4.770050  -0.001725   0.303458  -0.005683
 577  17   7.268509  -7.923405   4.048930   0.000790   0.303458   0.002604
 578  10   5.268701  -6.635945   7.001984  -0.000699   0.271018  -0.002578
 579  10   5.892756  -7.436231   5.956234  -0.002036   0.548226  -0.003713
 580   9   4.261598  -7.328782   6.188880   0.008571   0.662542   0.012937
 581   9   4.959315  -8.065044   4.969553   0.004755   0.334720   0.014205
 582   9   5.334324  -8.284612   3.379514   0.001164   0.078210   0.014887
 583  13   6.363037  -8.408763   2.935723  -0.000433   0.078210  -0.005530
 584  16   6.095760  -8.472014   2.807987  -0.000307   0.078210  -0.003928
 585   9   5.874061  -7.941833   3.807961   0.000444   0.087489   0.005077
 586  13   6.912857  -8.162998   3.445345  -0.000260   0.087489  -0.002974
 587  17   7.356643  -8.220967   3.581698   0.000412   0.087489   0.004711
 588  13   6.599735  -8.421139   3.343401   0.000133   0.186018   0.000712
 589   9   5.088654  -8.375763   3.937834   0.002419   0.164998   0.014663
 590  16   5.794478  -8.733773   2.570513  -0.000327   0.239489  -0.001364
 591  16   5.042941  -8.803685   1.545928  -0.001317   0.482365  -0.002729
 592  16   4.394263  -8.067230   0.353830  -0.001375   0.482365  -0.002851
 593  16   4.243935  -6.973416  -0.278975  -0.000590   0.239489  -0.002464
 594   9   4.385981  -8.707925   3.029202   0.008450   0.588363   0.014362
 595   9   3.461782  -8.438435   1.631936   0.008445   0.588363   0.014353
 596   9   3.045417  -7.185961   0.565601   0.007463   0.588363   0.012685
 597  23   0.929919  -6.530887   0.891398  -0.000939   0.086556  -0.010854
 598  23   0.747457  -7.553500   1.642729  -0.002431   0.189307  -0.012843
 599  23   0.414915  -8.097841   3.056458  -0.002521   0.189307  -0.013317
 600  23   0.086756  -7.595203   4.486559  -0.002226   0.189307  -0.011760
 601  23  -0.087444  -6.274692   5.281183  -0.002022   0.189307  -0.010683
 602   9   1.305890  -7.046227   1.087749  -0.001025   0.184519  -0.005553
 603   9   1.008338  -8.130709   2.332618  -0.001638   0.184519  -0.008877
 604   9   0.628735  -8.154669   3.966528  -0.001510   0.184519  -0.008185
 605   9   0.340106  -7.107187   5.244734  -0.000977   0.184519  -0.005296
 606   9   0.246187  -5.815432   5.692671  -0.000445   0.099104  -0.004487
 607  17  10.411370  -6.413922   5.647395   0.003983   0.302695   0.013157
 608  17   9.693135  -7.543227   5.460898   0.008929   0.601000   0.014857
 609  17   8.485936  -8.327496   4.643795   0.007074   0.601000   0.011770
 610  10   9.055840  -6.329540   6.432228  -0.001170   0.488993  -0.002392
 611  10   8.108380  -7.416873   6.004265  -0.001664   0.488993  -0.003403
 612  10   7.180858  -7.770982   5.264116  -0.000723   0.243143  -0.002974
 613  11   7.519077   1.773445   5.493940   0.000457   0.064907   0.007041
 614  19   6.784676   2.191188   4.966975   0.000525   0.064907   0.008081
 615  24   7.822976   1.684006   5.432592  -0.000055   0.064907  -0.000840
 616  19   3.988481   1.856881   6.442707   0.000049   0.220550   0.000221
 617  19   4.924273   2.480958   6.185531  -0.000670   0.443283  -0.001511
 618  19   6.006832   2.773706   5.335694  -0.001012   0.443283  -0.002282
 619  11   5.105487   1.296035   7.280330   0.008005   0.544087   0.014713
 620  11   6.375177   1.952870   6.686996   0.006476   0.544087   0.011902
 621  11   7.256042   2.033012   5.792089   0.002128   0.273882   0.007770
 622  24   8.434745   1.645461   5.937056  -0.000807   0.083973  -0.009611
 623  24   8.855000   1.263700   7.043995  -0.002455   0.182499  -0.013451
 624  24   9.456021   0.166257   7.884935  -0.002164   0.182499  -0.011856
 625  24   9.933537  -1.261466   7.805124  -0.001846   0.182499  -0.010114
 626  24  10.113667  -2.285380   7.121880  -0.000621   0.083973  -0.007398
 627  11   8.161050   1.571780   6.530251  -0.001196   0.179681  -0.006655
 628  11   8.772628   0.773189   7.814077  -0.001518   0.179681  -0.008449
 629  11   9.389965  -0.672176   8.249735  -0.000938   0.179681  -0.005221
 630  11   9.749012  -2.146098   7.650885  -0.000741   0.179681  -0.004121
 631  12  11.407077  -2.854216  -0.424548  -0.000366   0.098047  -0.003731
 632  14  11.616813  -3.048875  -0.267987  -0.001116   0.098047  -0.011380
 633  15  10.996732  -3.635059  -0.949519  -0.000680   0.098047  -0.006938
 634  12  11.604821  -1.982248   4.925117   0.000009   0.029260   0.000314
 635  14  11.778982  -2.195703   4.758741  -0.000147   0.029260  -0.005027
 636  24  11.161340  -1.758605   5.531498  -0.000329   0.029260  -0.011240
 637  14  12.167783  -2.546697   0.009410  -0.001032   0.082101  -0.012565
 638  14  12.747933  -1.748678   0.721997  -0.002327   0.177677  -0.013096
 639  14  13.081576  -1.260379   2.074907  -0.002657   0.177677  -0.014952
 640  14  12.851013  -1.524059   3.509282  -0.002456   0.177677  -0.013825
 641  14  12.329452  -2.194408   4.380944  -0.000891   0.082101  -0.010855
 642  12  12.128491  -1.901849   0.083659  -0.001173   0.176129  -0.006657
 643  12  12.753769  -1.028842   1.266465  -0.001625   0.176129  -0.009226
 644  12  12.812618  -0.900603   2.857765  -0.001789   0.176129  -0.010155
 645  12  12.281004  -1.569511   4.207614  -0.001315   0.176129  -0.007468
 646  15   9.704320  -3.063872  -1.988756  -0.001190   0.301443  -0.003948
 647  15  10.654953  -3.647896  -1.652354  -0.001205   0.301443  -0.003998
 648  12  10.584755  -2.212114  -0.979687   0.003897   0.743754   0.005239
 649  12   8.482452   1.292245   3.638114   0.002472   0.316675   0.007805
 650  19   7.182011   1.827706   3.949874   0.000941   0.316675   0.002971
 651  24   8.256908   1.364933   4.401240  -0.001043   0.316675  -0.003295
 652  19   6.795210   2.560161   3.489214  -0.000271   0.241823  -0.001121
 653  12   8.625925   1.703010   2.882823   0.002354   0.316564   0.007437
 654  24  11.107608  -1.290299   5.983269  -0.002711   0.187891  -0.014431
 655  24  10.988593  -0.120855   5.666857  -0.005587   0.379871  -0.014709
 656  24  10.162940   0.989894   5.136892  -0.004943   0.379871  -0.013012
 657  24   9.105379   1.403296   4.698091  -0.001790   0.187891  -0.009528
 658  12  11.640006  -1.068826   4.903540   0.001671   0.453695   0.003682
 659  12  11.175116   0.403771   4.403680   0.003875   0.453695   0.008541
 660  12   9.922460   1.241786   3.801093   0.005212   0.453695   0.011489
 661  13  11.220059  -4.122597  -0.862961  -0.000253   0.036581  -0.006921
 662  14  11.580227  -3.597687  -0.338165  -0.000591   0.036581  -0.016144
 663  15  11.067597  -4.159609  -1.121210  -0.000315   0.036581  -0.008599
 664  13  11.789855  -4.756456  -0.234606  -0.000036   0.106699  -0.000339
 665  14  12.160351  -4.170932   0.219434  -0.001334   0.106699  -0.012505
 666  17  12.084941  -4.979423   0.059165   0.000694   0.106699   0.006504
 667  14  12.198500  -3.570265   0.079898  -0.002174   0.154118  -0.014108
 668  13  11.548554  -4.303197  -0.667642  -0.000548   0.216731  -0.002528
 669  15  11.028620  -4.635360  -1.597270  -0.000446   0.068962  -0.006470
 670  15  10.973244  -5.725611  -1.812006  -0.001056   0.153109  -0.006895
 671  15  10.248081  -6.790488  -2.198767  -0.001112   0.153109  -0.007263
 672  15   9.014285  -7.155382  -2.591210  -0.000911   0.153109  -0.005950
 673  15   7.782390  -6.669303  -2.826946  -0.000752   0.153109  -0.004912
 674  15   7.062141  -5.533385  -2.808430  -0.001023   0.153109  -0.006684
 675  13  11.204021  -5.115365  -1.287765  -0.000844   0.151166  -0.005585
 676  13  10.823399  -6.532606  -1.648320  -0.001052   0.151166  -0.006962
 677  13   9.661324  -7.380761  -2.110552  -0.001007   0.151166  -0.006663
 678  13   8.198650  -7.308873  -2.483195  -0.000721   0.151166  -0.004769
 679  13   7.040618  -6.346687  -2.612052  -0.000689   0.151166  -0.004559
 680  13   6.592258  -5.207134  -2.521146  -0.000383   0.084252  -0.004546
 681  16   4.932355  -6.746573  -0.917847  -0.000566   0.071667  -0.007895
 682  16   5.599597  -7.671940  -1.124707  -0.001020   0.160881  -0.006337
 683  16   6.373091  -8.711506  -0.598321  -0.001131   0.160881  -0.007029
 684  16   6.791747  -9.233357   0.629878  -0.001348   0.160881  -0.008381
 685  16   6.665835  -9.000994   2.003277  -0.001226   0.160881  -0.007621
 686  13   5.405732  -6.848889  -1.285858  -0.000890   0.155419  -0.005724
 687  13   6.330728  -8.116412  -1.218832  -0.000864   0.155419  -0.005560
 688  13   7.041581  -9.047451  -0.172611  -0.001127   0.155419  -0.007253
 689  13   7.216138  -9.220067   1.378665  -0.001201   0.155419  -0.007728
 690  13   6.948870  -8.801955   2.558042  -0.000433   0.087557  -0.004943
 691  13   8.017926  -9.296105   2.177208  -0.000276   0.038157  -0.007240
 692  17   8.405089  -9.431750   2.404886  -0.000236   0.038157  -0.006177
 693  22   8.599552  -9.616935   2.227482  -0.000435   0.038157  -0.011408
 694  13  11.299782  -7.041153  -0.996222  -0.000234   0.038157  -0.006132
 695  17  11.625622  -7.218934  -0.709246  -0.000258   0.038157  -0.006765
 696  22  11.621701  -7.540426  -0.694821  -0.000531   0.038157  -0.013919
 697  17  11.842295  -6.384052  -0.488487   0.001281   0.294561   0.004348
 698  13  11.515126  -5.745984  -0.796672   0.000318   0.322128   0.000986
 699  17   8.080891  -8.908235   3.196899   0.001073   0.219632   0.004887
 700  13   7.563425  -8.901672   2.671784  -0.000115   0.240261  -0.000479
 701  22   8.646635  -9.836700   1.849340  -0.002027   0.180036  -0.011262
 702  22   8.968117  -9.850527   0.563677  -0.006582   0.372307  -0.017678
 703  22   9.886907  -9.290895  -0.622390  -0.007293   0.372307  -0.019589
 704  22  11.080005  -8.263961  -0.915714  -0.005617   0.372307  -0.015088
 705  13   7.929694  -9.431021   1.171870  -0.003653   0.427049  -0.008554
 706  13   8.626269  -9.185101  -0.468096  -0.004785   0.427049  -0.011204
 707  13   9.880951  -8.242516  -1.347008  -0.004274   0.427049  -0.010009
 708  13  10.954703  -7.249493  -1.325206  -0.001081   0.219953  -0.004913
 709  15  11.089019  -4.020336  -1.390094  -0.000005   0.075577  -0.000069
 710  14  11.903794  -3.237158  -0.310903  -0.000204   0.075577  -0.002700
 711  17  12.559063  -5.112971   0.349755   0.001917   0.236514   0.008103
 712  17  13.140353  -5.271426   1.500067   0.004791   0.468395   0.010229
 713  17  13.095281  -5.283111   3.096355   0.005029   0.468395   0.010736
 714  17  12.146100  -5.069097   4.362671   0.004802   0.468395   0.010251
 715  14  12.900763  -3.998385   0.915325  -0.005617   0.390087  -0.014399
 716  14  13.299558  -4.115731   2.311846  -0.005998   0.390087  -0.015377
 717  14  12.822555  -4.018662   3.685208  -0.005461   0.390087  -0.014000
 718  14  11.943587  -3.814966   4.470293  -0.002410   0.193262  -0.012468
 719  24  10.860644  -2.214805   6.032785  -0.002663   0.351396  -0.007578
 720  14  11.789375  -2.662261   4.862475  -0.001623   0.351396  -0.004618
 721  22  12.060662  -7.789216  -0.427312  -0.000685   0.084254  -0.008128
 722  22  12.810487  -8.022496   0.546548  -0.002034   0.183387  -0.011089
 723  22  12.978052  -8.592919   1.940601  -0.002430   0.183387  -0.013249
 724  22  12.199145  -9.281973   3.043030  -0.002426   0.183387  -0.013226
 725  22  10.811165  -9.791181   3.376294  -0.002111   0.183387  -0.011512
 726  22   9.415348  -9.899966   2.796031  -0.001969   0.183387  -0.010737
 727  17  12.411407  -7.413560  -0.015610  -0.000891   0.180099  -0.004946
 728  17  13.103934  -7.857551   1.402569  -0.001124   0.180099  -0.006243
 729  17  12.753756  -8.578982   2.832558  -0.001695   0.180099  -0.009409
 730  17  11.512560  -9.265348   3.654925  -0.001443   0.180099  -0.008013
 731  17   9.917997  -9.619335   3.513444  -0.000884   0.180099  -0.004907
 732  17   8.797885  -9.590109   2.783309  -0.000423   0.096468  -0.004384
 733  21   1.723430   3.613949   5.661314  -0.003101   0.334688  -0.009266
 734  19   3.077714   3.447338   5.538389  -0.001227   0.334688  -0.003665
 735  24   8.182428   1.767060   5.007235  -0.000113   0.277648  -0.000407
 736  19   6.705551   2.645153   4.471401  -0.000219   0.277648  -0.000789
 737  21  -0.492998   4.156649   1.807950  -0.000592   0.083968  -0.007051
 738  21  -1.570814   3.754657   2.290431  -0.001803   0.182672  -0.009869
 739  21  -2.319877   3.173142   3.467329  -0.002197   0.182672  -0.012026
 740  21  -2.114882   2.705896   4.890004  -0.002217   0.182672  -0.012137
 741  21  -1.044104   2.554127   5.945819  -0.001908   0.182672  -0.010443
 742  21   0.431356   2.783190   6.180116  -0.001753   0.182672  -0.009597
 743  20  -0.912113   3.673350   1.656454  -0.000665   0.179540  -0.003702
 744  20  -2.131547   3.085348   2.573322  -0.000881   0.179540  -0.004906
 745  20  -2.443084   2.484821   4.061853  -0.001453   0.179540  -0.008095
 746  20  -1.712568   2.130369   5.481051  -0.001237   0.179540  -0.006891
 747  20  -0.254577   2.174628   6.219777  -0.000670   0.179540  -0.003734
 748  20   1.045138   2.468751   6.168948  -0.000334   0.096141  -0.003472
 749  23  -0.912736  -4.031315   4.083991  -0.002967   0.277947  -0.010676
 750  23  -1.018735  -4.039038   2.997430  -0.006946   0.555059  -0.012514
 751  20  -1.398520  -1.859740   3.727440   0.006444   0.730223   0.008825
 752  20  -1.417057  -1.859058   2.515630   0.002727   0.367062   0.007430
 =====================================================

              7617189  WORDS OF DYNAMIC MEMORY USED
 EXECUTION OF GAMESS TERMINATED NORMALLY Wed Nov 23 20:28:21 2016
 DDI: 263640 bytes (0.3 MB / 0 MWords) used by master data server.

 ----------------------------------------
 CPU timing information for all processes
 ========================================
 0: 5592.632 + 1.412 = 5594.44
 ----------------------------------------
 ddikick.x: exited gracefully.
