----- GAMESS execution script -----

          ******************************************************
          *         GAMESS VERSION =  5 DEC 2014 (R1)          *
          *             FROM IOWA STATE UNIVERSITY             *
          * M.W.SCHMIDT, K.K.BALDRIDGE, J.A.BOATZ, S.T.ELBERT, *
          *   M.S.GORDON, J.H.JENSEN, S.KOSEKI, N.MATSUNAGA,   *
          *          K.A.NGUYEN, S.J.SU, T.L.WINDUS,           *
          *       TOGETHER WITH M.DUPUIS, J.A.MONTGOMERY       *
          *         J.COMPUT.CHEM.  14, 1347-1363(1993)        *
          **************** 64 BIT LINUX VERSION ****************

 EXECUTION OF GAMESS BEGUN Wed Nov 23 18:49:17 2016

            ECHO OF THE FIRST FEW INPUT CARDS -
 INPUT CARD>! SELECT RESTRICTED HARTREE-FOCK AS DEFAULT                                     
 INPUT CARD>$contrl scftyp=rhf $end                                                         
 INPUT CARD>                                                                                
 INPUT CARD>! THEORY: HF OR DFT                                                             
 INPUT CARD> $contrl mplevl=0 $end                                                          
 INPUT CARD>                                                                                
 INPUT CARD> $system timlim=10000 mwords=20 $end                                            
 INPUT CARD> $SCF DIRSCF=.TRUE. $end                                                        
 INPUT CARD>                                                                                
 INPUT CARD>                                                                                
 INPUT CARD>! BASIS SETS                                                                    
 INPUT CARD>! 6-311G(d,p)                                                                   
 INPUT CARD> $BASIS GBASIS=N311 NGAUSS=6 NDFUNC=1 NPFUNC=1 $END                             
 INPUT CARD>                                                                                
 INPUT CARD>! One of the following                                                          
 INPUT CARD> $guess guess=HUCKEL $end                                                       
 INPUT CARD>                                                                                
 INPUT CARD> $statpt projct=.FALSE. $end                                                    
 INPUT CARD> $STATPT IFREEZ(1)=1,2,3 $END                                                   
 INPUT CARD>                                                                                
 INPUT CARD>! Optimize the geometry with COSMO effects                                      
 INPUT CARD> $statpt opttol=0.0005 nstep=50 $end                                            
 INPUT CARD> $contrl nzvar=1 $end                                                           
 INPUT CARD> $zmat dlc=.t. auto=.t. $end                                                    
 INPUT CARD> $contrl runtyp=OPTIMIZE maxit=200 $end                                         
 INPUT CARD>                                                                                
 INPUT CARD>! Run COSMO on perfect conductor                                                
 INPUT CARD> $COSGMS PRFCND=.TRUE. $end                                                     
 INPUT CARD>                                                                                
 INPUT CARD>! Specifying RSOLV                                                              
 INPUT CARD> $COSGMS COSRAD = 1.4 $end                                                      
 INPUT CARD>                                                                                
 INPUT CARD>! available memory                                                              
 INPUT CARD> $SYSTEM MWORDS=40 $END                                                         
 INPUT CARD>                                                                                
 INPUT CARD> $DATA                                                                          
 INPUT CARD>                                                                                
 INPUT CARD>C1                                                                              
 INPUT CARD>O      8.0     -0.6152000000    3.1327000000    4.9243000000                    
 INPUT CARD>C      6.0     -1.1369000000    4.1070000000    4.0329000000                    
 INPUT CARD>C      6.0     -0.1701000000    2.0391000000    4.1323000000                    
 INPUT CARD>C      6.0     -1.3282000000    3.4101000000    2.6843000000                    
 INPUT CARD>C      6.0     -0.0918000000    2.5631000000    2.6857000000                    
 INPUT CARD>C      6.0      1.2004000000    1.5523000000    4.6349000000                    
 INPUT CARD>C      6.0     -2.4353000000    4.7080000000    4.5799000000                    
 INPUT CARD>H      1.0     -0.3681000000    4.9089000000    3.9413000000                    
 INPUT CARD>O      8.0     -2.9150000000    5.7173000000    3.7321000000                    
 INPUT CARD>H      1.0     -2.2380000000    5.1574000000    5.5761000000                    
 INPUT CARD>H      1.0     -3.2045000000    3.9156000000    4.7335000000                    
 INPUT CARD>H      1.0     -3.5299000000    5.2834000000    3.0848000000                    
   40000000 WORDS OF MEMORY AVAILABLE

     BASIS OPTIONS
     -------------
     GBASIS=N311         IGAUSS=       6      POLAR=POPN311 
     NDFUNC=       1     NFFUNC=       0     DIFFSP=       F
     NPFUNC=       1      DIFFS=       F     BASNAM=        


     RUN TITLE
     ---------
                                                                                 

 THE POINT GROUP OF THE MOLECULE IS C1      
 THE ORDER OF THE PRINCIPAL AXIS IS     0

 ATOM      ATOMIC                      COORDINATES (BOHR)
           CHARGE         X                   Y                   Z
 O           8.0    -1.1625594276        5.9199446017        9.3055776813
 C           6.0    -2.1484294754        7.7611046316        7.6210759359
 C           6.0    -0.3214423905        3.8533402616        7.8089146991
 C           6.0    -2.5099340569        6.4441545907        5.0725914688
 C           6.0    -0.1734768457        4.8435566791        5.0752370852
 C           6.0     2.2684270757        2.9334216507        8.7586909805
 C           6.0    -4.6020496979        8.8968299502        8.6547560512
 H           1.0    -0.6956081361        9.2764759011        7.4479770354
 O           8.0    -5.5085512542       10.8041303896        7.0526463588
 H           1.0    -4.2292067605        9.7460728091       10.5373010801
 H           1.0    -6.0556269277        7.3994110775        8.9450179629
 H           1.0    -6.6705437641        9.9841782835        5.8294267269
 O           8.0     2.0616910526        2.1344455031       11.2741052427
 H           1.0     2.9311539796        1.3341465473        7.5641951837
 H           1.0     3.6483049919        4.5172010011        8.6375595447
 H           1.0     3.7785071124        1.5813227065       11.7873548210
 O           8.0    -2.1338785853        1.9097570832        8.0269890780
 H           1.0    -1.5100800368        0.4202750597        7.0719215639
 O           8.0    -2.7040089158        8.0889720904        2.9950267179
 H           1.0    -4.2074749117        5.1971244114        5.1417554400
 H           1.0    -1.1982752488        9.2076898752        3.0006958959
 O           8.0    -0.2373495841        2.9536417188        3.2180143845
 H           1.0     1.4639707227        2.1667598175        3.2081878094
 H           1.0     1.5021431876        6.1051377485        4.8180453783

          INTERNUCLEAR DISTANCES (ANGS.)




     $CONTRL OPTIONS
     ---------------
 SCFTYP=RHF          RUNTYP=OPTIMIZE     EXETYP=RUN     
 MPLEVL=       0     CITYP =NONE         CCTYP =NONE         VBTYP =NONE    
 DFTTYP=NONE         TDDFT =NONE    
 MULT  =       1     ICHARG=       0     NZVAR =       1     COORD =UNIQUE  
 PP    =NONE         RELWFN=NONE         LOCAL =NONE         NUMGRD=       F
 ISPHER=      -1     NOSYM =       0     MAXIT =     200     UNITS =ANGS    
 PLTORB=       F     MOLPLT=       F     AIMPAC=       F     FRIEND=        
 NPRINT=       7     IREST =       0     GEOM  =INPUT   
 NORMF =       0     NORMP =       0     ITOL  =      20     ICUT  =       9
 INTTYP=BEST         GRDTYP=BEST         QMTTOL= 1.0E-06

     $SYSTEM OPTIONS
     ---------------
  REPLICATED MEMORY=    40000000 WORDS (ON EVERY NODE).
 DISTRIBUTED MEMDDI=           0 MILLION WORDS IN AGGREGATE,
 MEMDDI DISTRIBUTED OVER   1 PROCESSORS IS           0 WORDS/PROCESSOR.
 TOTAL MEMORY REQUESTED ON EACH PROCESSOR=    40000000 WORDS.
 TIMLIM=       10000.00 MINUTES, OR       6.9 DAYS.
 PARALL= F  BALTYP=  DLB     KDIAG=    0  COREFL= F
 MXSEQ2=     300 MXSEQ3=     150  mem10=         0

     $COSGMS OPTIONS
     ---------------
     EPSI  =   INFTY     NSPA  =      92     COSRAD=    1.40
     DISEX =   10.00     OUTCHG=DBLCAV       COSBUG=       F
     COSWRT=       F     DCOSMO=       F

     SYMMETRY COORDINATES WILL NOT BE USED FOR 
     THE COSMO CALCULATION, EVEN IF SPECIFIED:
         -- SWITCHING TO C1 POINT GROUP --


     DEFINITION OF CAVITY
     ---------------------------
     ATOM         COORDINATES           RADIUS 
     1   -1.1626    5.9199    9.3056    1.7200
     2   -2.1484    7.7611    7.6211    2.0000
     3   -0.3214    3.8533    7.8089    2.0000
     4   -2.5099    6.4442    5.0726    2.0000
     5   -0.1735    4.8436    5.0752    2.0000
     6    2.2684    2.9334    8.7587    2.0000
     7   -4.6020    8.8968    8.6548    2.0000
     8   -0.6956    9.2765    7.4480    1.3000
     9   -5.5086   10.8041    7.0526    1.7200
    10   -4.2292    9.7461   10.5373    1.3000
    11   -6.0556    7.3994    8.9450    1.3000
    12   -6.6705    9.9842    5.8294    1.3000
    13    2.0617    2.1344   11.2741    1.7200
    14    2.9312    1.3341    7.5642    1.3000
    15    3.6483    4.5172    8.6376    1.3000
    16    3.7785    1.5813   11.7874    1.3000
    17   -2.1339    1.9098    8.0270    1.7200
    18   -1.5101    0.4203    7.0719    1.3000
    19   -2.7040    8.0890    2.9950    1.7200
    20   -4.2075    5.1971    5.1418    1.3000
    21   -1.1983    9.2077    3.0007    1.3000
    22   -0.2373    2.9536    3.2180    1.7200
    23    1.4640    2.1668    3.2082    1.3000
    24    1.5021    6.1051    4.8180    1.3000

          ----------------
          PROPERTIES INPUT
          ----------------

     MOMENTS            FIELD           POTENTIAL          DENSITY
 IEMOM =       1   IEFLD =       0   IEPOT =       0   IEDEN =       0
 WHERE =COMASS     WHERE =NUCLEI     WHERE =NUCLEI     WHERE =NUCLEI  
 OUTPUT=BOTH       OUTPUT=BOTH       OUTPUT=BOTH       OUTPUT=BOTH    
 IEMINT=       0   IEFINT=       0                     IEDINT=       0
                                                       MORB  =       0
          EXTRAPOLATION IN EFFECT
          SOSCF IN EFFECT
 ORBITAL PRINTING OPTION: NPREO=     1   300     2     1

     -------------------------------
     INTEGRAL TRANSFORMATION OPTIONS
     -------------------------------
     NWORD  =            0
     CUTOFF = 1.0E-09     MPTRAN =       0
     DIRTRF =       T     AOINTS =DUP     

          ----------------------
          INTEGRAL INPUT OPTIONS
          ----------------------
 NOPK  =       1 NORDER=       0 SCHWRZ=       T


 -----------------------------------------------
  STATISTICS ON AUTOMATIC COORDINATE GENERATION 
 -----------------------------------------------
  NUMBER OF USER SPECIFIED BONDS                             0
  NUMBER OF BONDS                                           24
  NUMBER OF ANGLES                                          42
  NUMBER OF TORSIONS                                        66
  NUMBER OF EXTRA COORD.                                     0
  NUMBER OF EXTRA COORD. FOR CONSTRAINTS                     0
  NUMBER OF CONSTRAINED COORD.                               0

  TOTAL NUMBER OF PRIMITIVES                               132
 -----------------------------------------------

   --- ENCODED Z MATRIX ---
 COORD  TYPE   I   J   K   L   M   N
    1      1    1   2
    2      1    1   3
    3      1    2   4
    4      1    2   7
    5      1    2   8
    6      1    3  17
    7      1    3   5
    8      1    3   6
    9      1    4  20
   10      1    4  19
   11      1    4   5
   12      1    5  24
   13      1    5  22
   14      1    6  15
   15      1    6  14
   16      1    6  13
   17      1    7  11
   18      1    7  10
   19      1    7   9
   20      1    9  12
   21      1   13  16
   22      1   17  18
   23      1   19  21
   24      1   22  23
   25      2    1   3   6
   26      2    1   2   4
   27      2    1   2   7
   28      2    1   3  17
   29      2    1   2   8
   30      2    1   3   5
   31      2    2   7  11
   32      2    2   4  19
   33      2    2   1   3
   34      2    2   4   5
   35      2    2   7  10
   36      2    2   7   9
   37      2    2   4  20
   38      2    3   6  13
   39      2    3   6  15
   40      2    3   5   4
   41      2    3   5  22
   42      2    3   5  24
   43      2    3  17  18
   44      2    3   6  14
   45      2    4  19  21
   46      2    4   2   8
   47      2    4   2   7
   48      2    4   5  22
   49      2    4   5  24
   50      2    5   4  19
   51      2    5   4  20
   52      2    5   3   6
   53      2    5   3  17
   54      2    5  22  23
   55      2    6  13  16
   56      2    6   3  17
   57      2    7   2   8
   58      2    7   9  12
   59      2    9   7  10
   60      2    9   7  11
   61      2   10   7  11
   62      2   13   6  14
   63      2   13   6  15
   64      2   14   6  15
   65      2   19   4  20
   66      2   22   5  24
   67      3    1   3   6  14
   68      3    1   3  17  18
   69      3    1   2   4  19
   70      3    1   2   4  20
   71      3    1   2   7   9
   72      3    1   2   7  10
   73      3    1   2   7  11
   74      3    1   3   5  22
   75      3    1   3   6  13
   76      3    1   3   5  24
   77      3    1   3   5   4
   78      3    1   2   4   5
   79      3    1   3   6  15
   80      3    2   1   3   6
   81      3    2   1   3  17
   82      3    2   4  19  21
   83      3    2   7   9  12
   84      3    2   4   5  22
   85      3    2   4   5  24
   86      3    2   4   5   3
   87      3    2   1   3   5
   88      3    3   1   2   8
   89      3    3   5   4  19
   90      3    3   5   4  20
   91      3    3   6  13  16
   92      3    3   1   2   4
   93      3    3   1   2   7
   94      3    3   5  22  23
   95      3    4   5   3   6
   96      3    4   5   3  17
   97      3    4   5  22  23
   98      3    4   2   7   9
   99      3    4   2   7  11
  100      3    4   2   7  10
  101      3    5   3   6  15
  102      3    5   3   6  13
  103      3    5   4  19  21
  104      3    5   3   6  14
  105      3    5   4   2   8
  106      3    5   3  17  18
  107      3    5   4   2   7
  108      3    6   3  17  18
  109      3    6   3   5  24
  110      3    6   3   5  22
  111      3    7   2   4  19
  112      3    7   2   4  20
  113      3    8   2   4  19
  114      3    8   2   4  20
  115      3    8   2   7  11
  116      3    8   2   7   9
  117      3    8   2   7  10
  118      3   10   7   9  12
  119      3   11   7   9  12
  120      3   13   6   3  17
  121      3   14   6  13  16
  122      3   14   6   3  17
  123      3   15   6  13  16
  124      3   15   6   3  17
  125      3   17   3   5  22
  126      3   17   3   5  24
  127      3   19   4   5  24
  128      3   19   4   5  22
  129      3   20   4   5  24
  130      3   20   4   5  22
  131      3   20   4  19  21
  132      3   23  22   5  24

          INDEP./SYM. INTERNAL COORDINATES
          --------------------------------
 CRD  1=  -0.1492 (  1) -0.1308 (  2)  0.1225 (  3)  0.1089 ( 11) -0.2268 ( 25)
          -0.2798 ( 27)  0.1140 ( 28)  0.1044 ( 29) -0.1312 ( 35)  0.2275 ( 36)
          -0.3169 ( 38)  0.1132 ( 44)  0.3250 ( 47)  0.2882 ( 52) -0.1073 ( 53)
           0.1174 ( 55)  0.2505 ( 80)  0.1021 ( 81)  0.2336 ( 93)  0.1149 (107)
          -0.1675 (108)
 CRD  2=   0.1742 (  3)  0.2416 (  4) -0.1399 (  7)  0.1032 ( 25) -0.1016 ( 27)
          -0.1452 ( 35)  0.3563 ( 36)  0.2844 ( 38)  0.3316 ( 47) -0.2687 ( 52)
          -0.1242 ( 55) -0.1316 ( 59) -0.1220 ( 60)  0.1075 ( 69) -0.1037 ( 71)
          -0.2007 ( 80)  0.1327 ( 83)  0.2212 ( 93)  0.1195 (108)
 CRD  3=  -0.1176 (  2)  0.1481 (  3) -0.1245 (  7) -0.1052 (  8) -0.2329 ( 25)
           0.1033 ( 27)  0.1152 ( 31) -0.2956 ( 36) -0.1524 ( 39)  0.1098 ( 48)
          -0.1049 ( 49)  0.1004 ( 51)  0.1806 ( 56) -0.1417 ( 57)  0.1084 ( 58)
           0.1485 ( 60) -0.1737 ( 71) -0.1111 ( 73) -0.2124 ( 80)  0.1607 ( 91)
           0.1137 ( 92)  0.2194 ( 93)  0.2777 ( 95)  0.1319 ( 96) -0.1126 ( 98)
          -0.1070 (105) -0.1951 (107)  0.1614 (109)  0.1546 (110) -0.1079 (112)
          -0.1099 (120)
 CRD  4=  -0.2588 (  1) -0.1960 (  2) -0.2100 (  4) -0.2354 (  8) -0.1393 ( 11)
          -0.1346 ( 19)  0.1304 ( 26) -0.2071 ( 27) -0.1413 ( 28)  0.1619 ( 30)
          -0.1106 ( 31) -0.1390 ( 33) -0.1082 ( 39) -0.1197 ( 40)  0.1545 ( 43)
          -0.2230 ( 52)  0.2402 ( 56)  0.1662 ( 57) -0.1676 ( 58) -0.1033 ( 75)
          -0.1386 ( 80) -0.1006 ( 86) -0.1548 ( 93)  0.2052 (107)  0.1061 (110)
           0.1795 (111)  0.1368 (112)
 CRD  5=  -0.1363 (  4) -0.3445 (  7) -0.2431 (  8) -0.1895 ( 13)  0.1070 ( 32)
          -0.1705 ( 36) -0.1407 ( 38) -0.2433 ( 41) -0.1342 ( 43)  0.1032 ( 45)
           0.1264 ( 48) -0.2987 ( 54) -0.1156 ( 58) -0.1673 ( 74)  0.1032 ( 75)
          -0.1077 ( 77) -0.1208 ( 84)  0.1759 ( 89)  0.1352 ( 90) -0.1239 ( 91)
          -0.1622 ( 95)  0.1029 ( 97)  0.1639 (102) -0.1024 (106) -0.2218 (110)
 CRD  6=  -0.1620 (  2) -0.2171 (  4)  0.2063 (  7)  0.2288 (  8)  0.2642 ( 10)
           0.1794 ( 11)  0.1033 ( 21)  0.1341 ( 26) -0.1426 ( 27) -0.2085 ( 34)
          -0.1101 ( 36)  0.3538 ( 38)  0.1160 ( 43)  0.3698 ( 45)  0.2039 ( 50)
          -0.1138 ( 54) -0.1432 ( 62) -0.1414 ( 63) -0.1556 ( 65) -0.1652 ( 69)
 CRD  7=  -0.1156 (  6) -0.1228 (  7)  0.2414 (  8) -0.1827 ( 11) -0.1233 ( 25)
           0.1576 ( 32) -0.1118 ( 33)  0.2568 ( 38) -0.1771 ( 43) -0.1441 ( 50)
           0.1360 ( 52) -0.3651 ( 53)  0.1254 ( 54)  0.1960 ( 56) -0.1198 ( 62)
          -0.1119 ( 63) -0.1313 ( 68)  0.1260 ( 74)  0.2699 ( 81)  0.1176 ( 89)
           0.1445 (101)  0.1323 (102)  0.1455 (104) -0.1277 (108)  0.1480 (110)
           0.1198 (111)
 CRD  8=   0.1970 (  3)  0.1163 (  4)  0.1703 ( 10) -0.1227 ( 29) -0.1489 ( 31)
           0.2316 ( 32) -0.1357 ( 37) -0.2503 ( 38) -0.1013 ( 41)  0.2546 ( 45)
           0.1658 ( 46) -0.1734 ( 47)  0.1001 ( 54)  0.2266 ( 58) -0.1208 ( 59)
          -0.1292 ( 71) -0.1012 ( 72) -0.2115 ( 84) -0.1428 ( 85) -0.1258 ( 86)
          -0.1269 ( 88)  0.1172 ( 89) -0.1687 ( 93) -0.1998 ( 98) -0.1327 ( 99)
          -0.1717 (100)  0.1142 (107)  0.1001 (127)
 CRD  9=  -0.1806 (  3) -0.2184 (  7)  0.1176 (  8)  0.3318 ( 11)  0.1051 ( 19)
          -0.2440 ( 32)  0.1485 ( 36) -0.1334 ( 41)  0.1023 ( 44) -0.1018 ( 47)
           0.1773 ( 48)  0.2569 ( 50) -0.1358 ( 53)  0.1573 ( 56)  0.1108 ( 58)
          -0.1890 ( 69)  0.1640 ( 81) -0.1087 ( 84) -0.1372 ( 89)  0.1060 ( 94)
           0.1084 ( 95)  0.1571 ( 97) -0.1099 (103) -0.1747 (111) -0.1498 (113)
          -0.2545 (128) -0.1105 (130) -0.2025 (131)
 CRD 10=  -0.1100 (  2) -0.2483 (  3) -0.2424 (  4) -0.1246 (  6) -0.1180 (  8)
          -0.1268 ( 11) -0.1314 ( 13)  0.1345 ( 26)  0.1457 ( 28) -0.1152 ( 30)
          -0.1740 ( 31) -0.1441 ( 34) -0.1901 ( 35)  0.2914 ( 36)  0.1833 ( 40)
          -0.2762 ( 43) -0.1454 ( 45) -0.1292 ( 47) -0.1155 ( 49) -0.1048 ( 54)
          -0.1577 ( 56)  0.1130 ( 57)  0.1291 ( 58)  0.1189 ( 61)  0.1177 ( 66)
          -0.1640 ( 81)  0.1086 ( 94)  0.1658 ( 96)  0.1368 (125)  0.1018 (126)
          -0.1057 (128)
 CRD 11=  -0.1059 (  3)  0.2264 (  6)  0.2534 (  8) -0.1392 ( 10) -0.1585 ( 11)
          -0.2799 ( 13)  0.1266 ( 19)  0.1378 ( 36) -0.1709 ( 38)  0.3897 ( 43)
           0.1181 ( 44) -0.1382 ( 45) -0.1042 ( 50) -0.3743 ( 54)  0.1634 ( 55)
           0.1185 ( 56)  0.1939 ( 58) -0.1515 ( 96) -0.1604 (125) -0.1316 (126)
 CRD 12=  -0.1486 (  1) -0.1174 (  2) -0.1455 (  4) -0.1834 (  6) -0.1276 (  8)
          -0.2012 ( 10)  0.1919 ( 19) -0.1176 ( 22) -0.1254 ( 23) -0.1095 ( 31)
           0.1859 ( 38) -0.1840 ( 40)  0.1240 ( 41) -0.1505 ( 43) -0.1863 ( 44)
          -0.1409 ( 45)  0.1077 ( 49) -0.1209 ( 55)  0.3829 ( 58)  0.1659 ( 60)
          -0.1132 ( 66) -0.1212 ( 69) -0.1014 ( 70) -0.1399 ( 71) -0.1028 ( 78)
           0.1186 ( 80) -0.1148 ( 91) -0.1366 ( 94) -0.1306 ( 95) -0.1069 ( 96)
          -0.1874 ( 98) -0.1018 (100) -0.1280 (116)
 CRD 13=  -0.1008 (  2) -0.1017 (  4) -0.1392 (  6) -0.1790 (  7)  0.2008 (  8)
          -0.1432 ( 11)  0.1484 ( 16) -0.1154 ( 22)  0.1049 ( 25)  0.1721 ( 31)
          -0.1367 ( 35) -0.1621 ( 36)  0.1293 ( 37) -0.1535 ( 38)  0.1195 ( 40)
          -0.1693 ( 42) -0.1040 ( 43)  0.1622 ( 47) -0.2280 ( 48)  0.1216 ( 50)
          -0.1024 ( 51) -0.1223 ( 52)  0.1498 ( 54)  0.2952 ( 55)  0.1161 ( 58)
           0.1056 ( 59)  0.1435 ( 66) -0.1230 ( 71)  0.1425 ( 74) -0.1045 ( 82)
           0.1016 ( 83) -0.1091 ( 90)  0.1306 ( 93) -0.1001 ( 95) -0.1458 ( 96)
 CRD 14=  -0.1478 (  1) -0.2240 (  6)  0.2295 (  8) -0.1116 ( 10)  0.1514 ( 11)
           0.1685 ( 16) -0.1474 ( 19)  0.1042 ( 33)  0.1431 ( 35) -0.1375 ( 36)
          -0.2775 ( 43) -0.3287 ( 45)  0.1526 ( 48) -0.2835 ( 54)  0.1987 ( 55)
          -0.1338 ( 58) -0.1508 ( 75) -0.1166 ( 79) -0.1160 (102) -0.1353 (110)
           0.1232 (111)  0.1047 (112) -0.1201 (125)
 CRD 15=  -0.1711 (  8)  0.4419 ( 16)  0.1779 ( 21)  0.1153 ( 38) -0.2520 ( 39)
          -0.2237 ( 44)  0.5854 ( 55)  0.1028 ( 62)  0.1467 ( 63)  0.1101 ( 64)
           0.1171 ( 67)  0.1046 (104)  0.1264 (121) -0.1617 (123)
 CRD 16=   0.2330 (  4) -0.1869 (  6) -0.1211 (  8)  0.1403 ( 10) -0.1039 ( 11)
          -0.2203 ( 13) -0.1350 ( 14)  0.1142 ( 19) -0.1083 ( 24)  0.1324 ( 31)
          -0.1833 ( 39)  0.1420 ( 41) -0.2791 ( 43)  0.1095 ( 44)  0.3350 ( 45)
          -0.2704 ( 54)  0.1094 ( 58) -0.1196 ( 60) -0.1789 ( 75)  0.1219 ( 84)
           0.2191 ( 91) -0.1763 (102) -0.1689 (120)  0.1135 (128)
 CRD 17=   0.1217 (  2)  0.1069 (  3)  0.1315 (  6) -0.1733 ( 11) -0.1478 ( 13)
           0.1305 ( 18)  0.1446 ( 22) -0.1417 ( 24) -0.1037 ( 26)  0.1341 ( 29)
          -0.2727 ( 31)  0.3352 ( 35) -0.1458 ( 36) -0.1405 ( 39)  0.1534 ( 47)
          -0.1796 ( 51)  0.1726 ( 58) -0.1218 ( 59)  0.2828 ( 60)  0.1032 ( 73)
          -0.2256 ( 83)  0.1135 (105)  0.1383 (107)  0.1239 (125)
 CRD 18=  -0.1827 (  3)  0.1108 (  4)  0.1520 ( 10)  0.1612 ( 17)  0.2681 ( 19)
           0.2054 ( 20)  0.1902 ( 23)  0.2056 ( 31) -0.1125 ( 35) -0.2473 ( 36)
          -0.1515 ( 37) -0.1372 ( 46)  0.1310 ( 48) -0.1003 ( 50)  0.1085 ( 57)
           0.3889 ( 58)  0.2240 ( 59) -0.1123 ( 61)  0.1197 ( 65) -0.1158 ( 84)
          -0.1038 ( 85)  0.1267 ( 99)  0.1497 (111)
 CRD 19=   0.1713 (  6)  0.1955 ( 22)  0.3758 ( 39)  0.1117 ( 43) -0.4534 ( 44)
           0.3162 ( 62) -0.3147 ( 63) -0.1720 ( 75) -0.1260 ( 91) -0.1756 (102)
          -0.2239 (120)  0.2080 (121)  0.1682 (123)
 CRD 20=   0.2926 (  4)  0.1087 (  9)  0.1178 ( 11)  0.1056 ( 18)  0.1599 ( 26)
          -0.1575 ( 31) -0.1079 ( 33) -0.1974 ( 34)  0.2997 ( 35)  0.1138 ( 37)
           0.1651 ( 39) -0.1252 ( 42) -0.1207 ( 44) -0.1912 ( 46)  0.1484 ( 51)
           0.2333 ( 57) -0.1687 ( 59) -0.1290 ( 65) -0.1401 ( 83)  0.1192 ( 84)
           0.2421 ( 88) -0.1137 ( 91)  0.1200 ( 98)  0.1203 ( 99)  0.1257 (100)
           0.1137 (103) -0.1349 (105)  0.1344 (118)
 CRD 21=  -0.2124 (  2)  0.3366 (  4) -0.1308 (  8) -0.1329 ( 11) -0.1403 ( 13)
          -0.1661 ( 15)  0.1059 ( 17) -0.1326 ( 19) -0.1178 ( 20) -0.1457 ( 24)
           0.2357 ( 31)  0.1431 ( 43) -0.1663 ( 54) -0.1249 ( 60) -0.1023 ( 62)
           0.1340 ( 75) -0.1068 ( 84) -0.1188 ( 91)  0.1676 (102) -0.1349 (113)
          -0.1288 (114)  0.1032 (118) -0.1176 (119)  0.1990 (120) -0.1107 (123)
          -0.1091 (128)
 CRD 22=  -0.1137 (  4) -0.1657 (  5)  0.1093 (  9)  0.2419 ( 10) -0.2039 ( 11)
          -0.2675 ( 12)  0.1313 ( 14) -0.1050 ( 20)  0.2938 ( 23) -0.1803 ( 31)
          -0.1467 ( 32)  0.1489 ( 34)  0.1002 ( 35)  0.1338 ( 39)  0.2712 ( 45)
           0.1027 ( 48) -0.1061 ( 51) -0.1831 ( 54) -0.1569 ( 59)  0.1812 ( 65)
          -0.1624 ( 89) -0.1310 ( 91)  0.1288 (102) -0.1177 (112) -0.1544 (127)
 CRD 23=  -0.4613 (  3) -0.1739 (  5) -0.1184 (  7)  0.1520 ( 12)  0.1232 ( 17)
          -0.1906 ( 18) -0.2076 ( 19) -0.2612 ( 20)  0.1179 ( 35) -0.1265 ( 37)
           0.1439 ( 45) -0.1552 ( 46)  0.2240 ( 54) -0.1869 ( 59)  0.1112 ( 60)
          -0.1487 ( 71)  0.1521 ( 88)  0.1775 ( 90) -0.1212 ( 98) -0.1036 (115)
          -0.2249 (116)  0.1347 (129)
 CRD 24=   0.1000 (  3)  0.1124 (  5) -0.3761 ( 11)  0.1757 ( 13) -0.1370 ( 14)
           0.1210 ( 15)  0.2127 ( 24) -0.1668 ( 41)  0.1081 ( 42) -0.2563 ( 49)
           0.1984 ( 54)  0.1181 ( 66) -0.1198 ( 70) -0.1410 ( 74) -0.2586 ( 76)
          -0.1111 ( 82) -0.2607 (109) -0.1431 (110) -0.1048 (112) -0.1353 (114)
          -0.1430 (125) -0.2606 (126) -0.1098 (129) -0.1352 (130)  0.1196 (132)
 CRD 25=   0.1017 (  2)  0.4890 (  5) -0.1139 (  7) -0.4555 ( 12)  0.1027 ( 14)
           0.2511 ( 17) -0.1716 ( 18) -0.1121 ( 20)  0.1022 ( 24)  0.1285 ( 31)
           0.1502 ( 84)  0.1024 ( 85) -0.1507 ( 97) -0.1361 ( 98)  0.1371 (107)
           0.1249 (128)  0.1116 (130) -0.1055 (132)
 CRD 26=  -0.1060 (  3) -0.2048 (  5)  0.1030 (  8) -0.7147 (  9) -0.1936 ( 10)
          -0.2233 ( 12) -0.2630 ( 23) -0.1525 ( 43) -0.1056 ( 69) -0.1009 (111)
           0.1146 (128)
 CRD 27=   0.2671 (  1)  0.1626 (  2)  0.1088 (  3)  0.1939 (  5)  0.2303 (  7)
          -0.2224 ( 14)  0.2788 ( 15)  0.1883 ( 17) -0.2687 ( 18) -0.1158 ( 20)
          -0.1542 ( 33) -0.1031 ( 59)  0.2134 ( 62) -0.1494 ( 63)  0.1723 ( 67)
           0.1629 ( 79)  0.1349 ( 91)  0.1083 ( 99)  0.1246 (100)  0.1981 (101)
           0.2074 (104)  0.1745 (122)  0.1651 (124)
 CRD 28=  -0.1688 (  2) -0.1426 (  3)  0.1470 (  5) -0.2050 (  6) -0.2055 (  7)
          -0.2492 ( 12) -0.2452 ( 14)  0.1930 ( 15)  0.2626 ( 18) -0.1913 ( 22)
          -0.1205 ( 26)  0.1269 ( 33)  0.1690 ( 43)  0.1166 ( 59)  0.1240 ( 62)
          -0.1690 ( 63)  0.1619 ( 67)  0.1704 ( 79) -0.1457 ( 99) -0.1640 (100)
           0.1569 (101)  0.1484 (104)  0.1321 (106) -0.1004 (115) -0.1187 (117)
           0.2121 (122)  0.2207 (124)
 CRD 29=  -0.3021 (  5) -0.2954 (  6) -0.2022 (  8) -0.1537 (  9) -0.3339 ( 12)
          -0.1600 ( 14) -0.2530 ( 18)  0.3758 ( 43) -0.1335 ( 45)  0.1393 ( 52)
           0.1126 ( 70)  0.1150 ( 78)  0.1508 ( 80)  0.1223 ( 99)  0.1229 (100)
           0.1008 (105) -0.1065 (108)  0.1048 (115)  0.1054 (117)
 CRD 30=   0.6082 ( 14)  0.6048 ( 15) -0.1415 ( 39) -0.1349 ( 44) -0.1822 ( 55)
           0.2643 ( 64)  0.1630 (121) -0.1663 (123)
 CRD 31=   0.1072 (  5) -0.6811 ( 17) -0.4264 ( 18) -0.1012 ( 19)  0.1031 ( 20)
           0.1536 ( 31)  0.1532 ( 35)  0.1957 ( 58) -0.2810 ( 61) -0.1214 (100)
          -0.1063 (117)  0.1922 (118) -0.1492 (119)
 CRD 32=   0.4682 (  1)  0.1983 (  7) -0.1370 (  8)  0.2235 ( 10) -0.1027 ( 13)
          -0.1458 ( 15) -0.1874 ( 17)  0.1970 ( 18) -0.1208 ( 21) -0.2389 ( 45)
          -0.1756 ( 68) -0.1459 ( 72) -0.1483 ( 73) -0.1144 ( 97) -0.1214 ( 99)
          -0.1190 (100)  0.1041 (105) -0.1489 (106) -0.1396 (108) -0.2164 (115)
          -0.1262 (116) -0.2140 (117)
 CRD 33=  -0.2661 (  1)  0.3593 (  2) -0.2570 (  5) -0.2105 ( 12) -0.1556 ( 13)
          -0.1945 ( 14)  0.2157 ( 15)  0.3180 ( 22)  0.1495 ( 26) -0.1097 ( 27)
          -0.1059 ( 29) -0.1353 ( 33)  0.1205 ( 43)  0.1412 ( 54)  0.1492 ( 57)
          -0.1020 ( 66) -0.1195 ( 71) -0.1592 ( 72) -0.1645 ( 73) -0.1134 (105)
          -0.1133 (113) -0.1267 (114)  0.1291 (126)
 CRD 34=  -0.1268 (  4)  0.3481 ( 18) -0.5549 ( 19)  0.1091 ( 20)  0.1030 ( 31)
           0.4940 ( 58) -0.1577 ( 59) -0.1923 ( 60)  0.1474 ( 61)  0.1795 ( 72)
          -0.1076 ( 73) -0.1135 ( 99)  0.1736 (100) -0.1249 (115)  0.1622 (117)
 CRD 35=  -0.1813 (  2)  0.1911 (  6)  0.2420 ( 10) -0.1936 ( 12) -0.5192 ( 13)
           0.1070 ( 17)  0.1291 ( 42) -0.1789 ( 43) -0.2151 ( 45)  0.4167 ( 54)
           0.1197 ( 72)  0.1014 ( 73) -0.1125 ( 85)  0.1121 (115)  0.1304 (117)
 CRD 36=   0.1127 ( 13) -0.6268 ( 16)  0.1474 ( 21)  0.5265 ( 55) -0.1552 ( 62)
          -0.1529 ( 63)  0.2242 ( 64) -0.1570 ( 67)  0.1348 ( 79)  0.1488 (101)
          -0.1430 (104) -0.1472 (122)  0.1445 (124)
 CRD 37=  -0.1558 (  1)  0.1022 (  6)  0.5217 ( 10)  0.3102 ( 13)  0.1213 ( 16)
          -0.1121 ( 42) -0.3938 ( 45) -0.2125 ( 54)  0.1207 ( 65) -0.1452 ( 70)
           0.1217 ( 85)  0.1255 ( 90) -0.1526 (112) -0.1748 (114)  0.1402 (127)
           0.2426 (129)  0.1495 (130)
 CRD 38=   0.1745 (  2)  0.3698 (  5) -0.4524 (  6) -0.2230 (  9)  0.2117 ( 10)
           0.1547 ( 12)  0.1250 ( 14) -0.1010 ( 15) -0.2228 ( 24)  0.2628 ( 43)
          -0.1062 ( 80) -0.1065 ( 87)  0.1552 ( 88)  0.1173 ( 92)  0.1499 ( 93)
          -0.1428 ( 94) -0.1246 ( 97) -0.1329 (131)
 CRD 39=  -0.1853 (  1)  0.2187 (  6)  0.1139 ( 11) -0.1987 ( 14) -0.4008 ( 21)
          -0.1378 ( 22)  0.1805 ( 23) -0.3310 ( 24)  0.1285 ( 33) -0.1005 ( 43)
          -0.1172 ( 44) -0.1022 ( 49) -0.1465 ( 68)  0.1027 ( 81) -0.1220 ( 91)
          -0.2534 ( 94) -0.2900 ( 97) -0.1774 (123) -0.1048 (126) -0.1750 (132)
 CRD 40=   0.1912 (  2)  0.1024 (  8)  0.2347 (  9) -0.1725 ( 12)  0.1036 ( 14)
          -0.2341 ( 15) -0.5384 ( 21) -0.2460 ( 22) -0.3997 ( 23) -0.1035 ( 39)
           0.1057 ( 55)  0.1700 ( 91)  0.1521 ( 94)  0.1615 ( 97)  0.2163 (121)
           0.1036 (123)  0.1641 (132)
 CRD 41=  -0.2861 (  2)  0.1574 (  5) -0.1362 (  6)  0.1166 (  7)  0.1498 (  8)
          -0.1718 ( 14)  0.1271 ( 15)  0.1078 ( 19) -0.4823 ( 21)  0.4489 ( 22)
           0.1998 ( 24)  0.1232 ( 55)  0.1293 ( 83) -0.1467 ( 91)  0.1147 ( 94)
           0.1365 ( 97)  0.1868 (118)  0.1114 (119) -0.1312 (121) -0.1582 (123)
 CRD 42=  -0.2226 (  9)  0.2378 ( 12) -0.1409 ( 15) -0.1179 ( 18) -0.2546 ( 21)
           0.3669 ( 23)  0.5519 ( 24) -0.1442 ( 83)  0.1407 ( 91) -0.1984 (118)
           0.1323 (121)  0.1139 (123) -0.1069 (132)
 CRD 43=   0.1109 (  1) -0.1718 (  2)  0.1307 ( 17) -0.2799 ( 18) -0.2024 ( 19)
           0.6244 ( 20)  0.2155 ( 22) -0.1685 ( 23) -0.1172 ( 24)  0.1124 ( 61)
          -0.2542 ( 83) -0.2869 (118) -0.1671 (119) -0.1027 (121)
 CRD 44=  -0.1229 (  4)  0.1056 (  9)  0.1247 ( 14) -0.1101 ( 15)  0.1858 ( 17)
           0.4020 ( 20)  0.1150 ( 21)  0.1237 ( 22) -0.1441 ( 23)  0.1735 ( 24)
           0.1798 ( 35) -0.1308 ( 58) -0.1444 ( 61) -0.1020 ( 68)  0.2454 ( 83)
           0.1907 ( 91) -0.1523 ( 94) -0.1805 ( 97)  0.3880 (118)  0.1722 (119)
           0.1668 (121)  0.1577 (123) -0.1322 (132)
 CRD 45=   0.1190 (  2) -0.1557 (  9) -0.1038 ( 10) -0.1416 ( 12)  0.3631 ( 20)
          -0.1989 ( 22)  0.5193 ( 23) -0.2599 ( 24) -0.1173 ( 58) -0.1051 ( 71)
           0.2103 ( 94)  0.2389 ( 97)  0.1378 (118)  0.1007 (127)  0.1632 (132)
 CRD 46=  -0.1784 (  2) -0.1044 ( 12)  0.1238 ( 13)  0.1459 ( 14) -0.1020 ( 15)
          -0.1384 ( 20)  0.4706 ( 22)  0.1804 ( 23) -0.3585 ( 24)  0.1469 ( 68)
           0.2896 ( 91)  0.1286 (108)  0.2254 (121)  0.2881 (123) -0.1014 (125)
 CRD 47=   0.1133 (  1) -0.1196 (  7)  0.1229 ( 12) -0.1159 ( 21) -0.1229 ( 23)
          -0.1235 ( 25)  0.1071 ( 30) -0.1229 ( 33)  0.1053 ( 37)  0.3587 ( 68)
           0.2625 ( 82) -0.1290 ( 91) -0.1304 ( 94) -0.1316 ( 97)  0.2583 (103)
           0.2530 (106)  0.2478 (108) -0.1245 (115) -0.1038 (116) -0.1029 (117)
          -0.1399 (121) -0.1077 (130)  0.3456 (131) -0.1205 (132)
 CRD 48=  -0.1708 (  1) -0.1092 (  6) -0.1028 ( 24)  0.1123 ( 33)  0.1031 ( 37)
          -0.1123 ( 51) -0.3424 ( 68)  0.1026 ( 79)  0.3399 ( 82)  0.3446 (103)
          -0.2643 (106) -0.2551 (108) -0.1060 (114)  0.4355 (131)
 CRD 49=   0.1451 (  7)  0.1218 (  8) -0.2880 ( 16)  0.2482 ( 21)  0.1480 ( 24)
          -0.1355 ( 38) -0.1504 ( 39) -0.1627 ( 44) -0.1239 ( 53) -0.1197 ( 55)
           0.1282 ( 56)  0.2014 ( 62)  0.2065 ( 63)  0.1003 ( 67) -0.1249 ( 69)
           0.1238 ( 74)  0.1151 ( 81)  0.1119 ( 82) -0.1376 ( 83)  0.1101 (103)
           0.2229 (106)  0.2147 (108) -0.2090 (119)  0.1485 (121) -0.1510 (123)
          -0.1382 (124) -0.1444 (126)  0.1547 (132)
 CRD 50=  -0.1581 ( 11) -0.1126 ( 13)  0.1275 ( 16)  0.1322 ( 19) -0.1289 ( 21)
          -0.1209 ( 27)  0.1294 ( 31) -0.1250 ( 33)  0.1239 ( 35)  0.1292 ( 36)
           0.1153 ( 39)  0.1007 ( 44)  0.1212 ( 46) -0.1623 ( 57) -0.1376 ( 59)
          -0.1444 ( 60) -0.1121 ( 61) -0.1013 ( 62) -0.1195 ( 63) -0.1298 ( 69)
          -0.1223 ( 81) -0.2371 ( 83) -0.1889 ( 88)  0.1449 (105) -0.1467 (106)
          -0.1058 (108)  0.2064 (114) -0.3929 (119) -0.1299 (121)  0.1469 (129)
          -0.1313 (131)
 CRD 51=  -0.3768 (  4)  0.1484 ( 13)  0.1961 ( 17)  0.2435 ( 19) -0.1341 ( 20)
           0.1612 ( 31)  0.1036 ( 32)  0.1260 ( 33)  0.1688 ( 35)  0.1153 ( 36)
           0.1261 ( 37) -0.2765 ( 60) -0.1120 ( 66)  0.1622 ( 71) -0.1450 ( 82)
          -0.1262 ( 83)  0.1330 ( 88)  0.1134 ( 89) -0.1499 (103) -0.1717 (115)
          -0.2189 (119)  0.1064 (126)  0.1069 (128) -0.1872 (129)
 CRD 52=   0.2092 (  1) -0.1482 (  2) -0.1149 (  3)  0.1234 (  4) -0.1828 (  5)
           0.1148 (  7) -0.1189 (  8)  0.1848 (  9) -0.1944 ( 10) -0.1038 ( 12)
           0.1722 ( 13)  0.1033 ( 14)  0.1139 ( 15) -0.1938 ( 19) -0.1590 ( 22)
           0.1262 ( 23)  0.1326 ( 43)  0.1045 ( 46) -0.1037 ( 51) -0.1583 ( 64)
          -0.1350 ( 69) -0.1805 ( 70)  0.1315 ( 73)  0.1076 (108) -0.1244 (113)
          -0.1699 (114)  0.2124 (115)  0.1526 (116) -0.1274 (120) -0.1157 (121)
          -0.1799 (124)  0.1010 (125)  0.1499 (126)
 CRD 53=  -0.1232 (  2) -0.2033 (  3)  0.2406 (  5)  0.2790 (  6) -0.1560 ( 12)
           0.2064 ( 13) -0.1276 ( 14) -0.1915 ( 17)  0.1184 ( 18)  0.1359 ( 19)
          -0.1223 ( 22)  0.1056 ( 26)  0.1190 ( 49) -0.1272 ( 58) -0.1749 ( 59)
          -0.1057 ( 62) -0.1624 ( 67) -0.1538 ( 71)  0.1035 ( 74)  0.1764 ( 76)
          -0.1061 ( 79) -0.1264 ( 84) -0.1139 ( 85)  0.1182 ( 91)  0.1114 ( 93)
           0.1746 (100)  0.1367 (117) -0.1323 (118) -0.1430 (119)  0.1681 (121)
          -0.1153 (122)  0.1281 (123)  0.1544 (126) -0.1138 (129) -0.1263 (130)
          -0.1172 (132)
 CRD 54=   0.1468 (  1)  0.3848 (  8) -0.1913 ( 10) -0.1172 ( 14) -0.1364 ( 15)
          -0.1000 ( 38) -0.1434 ( 39) -0.1098 ( 41) -0.1381 ( 42) -0.1362 ( 44)
           0.1231 ( 48)  0.1070 ( 49)  0.1340 ( 54) -0.1326 ( 55)  0.1111 ( 62)
           0.1735 ( 64)  0.1396 ( 65) -0.1273 ( 70) -0.1206 ( 74) -0.1268 ( 81)
          -0.1491 (114)  0.1516 (121) -0.1875 (123)  0.1315 (126)  0.1976 (129)
          -0.3269 (132)
 CRD 55=   0.2071 (  2)  0.1682 (  9)  0.1326 ( 11) -0.2109 ( 12) -0.1866 ( 15)
           0.1990 ( 16)  0.1303 ( 22)  0.1193 ( 23)  0.1051 ( 24) -0.2003 ( 28)
          -0.1491 ( 43)  0.1149 ( 53) -0.1244 ( 54) -0.1573 ( 63)  0.1357 ( 64)
           0.1502 ( 66) -0.1382 ( 67) -0.1291 ( 69)  0.1972 ( 74) -0.1545 ( 75)
          -0.1015 ( 81) -0.1118 ( 84)  0.1382 ( 88)  0.1309 ( 89) -0.1411 ( 94)
          -0.1075 ( 96) -0.1244 (102) -0.1080 (104)  0.1446 (110) -0.1365 (113)
          -0.1698 (123)  0.2428 (124) -0.1630 (126)
 CRD 56=  -0.1926 (  1) -0.1009 (  2)  0.1559 (  3)  0.1918 (  4)  0.1180 (  8)
           0.1592 (  9) -0.1869 ( 11) -0.2516 ( 18)  0.1316 ( 19)  0.1960 ( 29)
          -0.1198 ( 46)  0.2184 ( 61) -0.1067 ( 65) -0.1642 ( 69)  0.1353 ( 71)
           0.1411 ( 72) -0.1075 ( 81)  0.1226 ( 82) -0.1048 ( 84) -0.1234 ( 94)
          -0.1097 ( 99)  0.1167 (105) -0.1248 (111)  0.1862 (114) -0.2721 (115)
           0.2626 (119)  0.1156 (125) -0.1337 (132)
 CRD 57=  -0.1852 (  3)  0.1780 (  4) -0.2662 (  7)  0.2538 (  8)  0.2175 ( 10)
          -0.1566 ( 11)  0.1615 ( 13) -0.1421 ( 15) -0.1776 ( 19)  0.1195 ( 37)
           0.1347 ( 42) -0.1021 ( 45)  0.1424 ( 64) -0.1920 ( 65) -0.1707 ( 66)
          -0.1029 ( 69) -0.1307 ( 81)  0.1229 ( 84) -0.1216 (100)  0.1736 (114)
          -0.1014 (117) -0.1429 (123)  0.1122 (126)  0.1464 (128) -0.2395 (129)
           0.1341 (132)
 CRD 58=  -0.1043 (  1)  0.1170 (  2) -0.1433 (  3)  0.1395 (  4) -0.1452 (  6)
           0.2561 ( 14) -0.1580 ( 15) -0.2321 ( 17)  0.1175 ( 19)  0.1095 ( 26)
          -0.1038 ( 30)  0.1085 ( 32) -0.1056 ( 58) -0.1193 ( 59)  0.1276 ( 61)
           0.1786 ( 62) -0.1219 ( 63)  0.1934 ( 67) -0.1411 ( 71) -0.1102 ( 74)
          -0.1522 ( 88)  0.1109 ( 89)  0.1608 (100) -0.1969 (102) -0.1017 (103)
           0.1062 (113)  0.1281 (117) -0.1101 (118) -0.1348 (120) -0.2553 (121)
           0.1371 (122) -0.1981 (123)
 CRD 59=  -0.1368 (  4)  0.1249 ( 10)  0.1113 ( 14)  0.1065 ( 15) -0.2160 ( 16)
           0.2218 ( 18) -0.1429 ( 19)  0.1246 ( 27)  0.1025 ( 34)  0.1173 ( 36)
           0.1182 ( 38)  0.1128 ( 60) -0.1566 ( 61) -0.1665 ( 64) -0.1150 ( 65)
           0.1197 ( 66)  0.1258 ( 70)  0.2114 ( 73) -0.1861 ( 79)  0.1090 ( 80)
           0.1694 ( 99) -0.1293 (101)  0.1420 (104) -0.1443 (108) -0.1804 (116)
          -0.1480 (117) -0.1569 (119)  0.2010 (122)  0.1343 (127) -0.1784 (130)
          -0.1010 (132)
 CRD 60=  -0.1092 (  5) -0.1155 (  6) -0.1206 (  7)  0.1270 (  8)  0.1399 (  9)
          -0.1054 ( 10)  0.1374 ( 11) -0.1517 ( 14)  0.1224 ( 15) -0.2076 ( 17)
           0.1050 ( 18)  0.1099 ( 19) -0.1137 ( 25)  0.1329 ( 31) -0.1028 ( 44)
          -0.1769 ( 49) -0.1364 ( 51)  0.1223 ( 57) -0.1020 ( 58) -0.1379 ( 59)
           0.1002 ( 63)  0.2029 ( 72)  0.1370 ( 75) -0.1628 ( 76)  0.1266 ( 83)
          -0.1468 ( 93)  0.1545 ( 95)  0.1206 ( 96) -0.1345 ( 98)  0.1197 (100)
          -0.1309 (103)  0.1775 (107)  0.1100 (110) -0.1147 (116)  0.1395 (117)
           0.1389 (120)  0.1378 (121)  0.1893 (128)  0.1116 (130)  0.1449 (132)
 CRD 61=   0.1231 (  2) -0.2861 (  3)  0.1983 (  4)  0.1411 (  7)  0.1036 ( 11)
          -0.1334 ( 13) -0.1008 ( 14)  0.1289 ( 15)  0.1002 ( 26)  0.1153 ( 32)
           0.1626 ( 37) -0.1000 ( 42)  0.1221 ( 48) -0.1608 ( 50) -0.1407 ( 57)
          -0.1244 ( 70) -0.1049 ( 78) -0.1833 ( 82)  0.1567 ( 85) -0.1621 ( 90)
           0.1016 ( 92)  0.1297 ( 95) -0.2014 (103)  0.1851 (113)  0.1342 (120)
           0.1091 (123)  0.2435 (127) -0.2191 (130) -0.1077 (132)
 CRD 62=   0.1060 (  1) -0.2721 (  7)  0.1138 (  8)  0.1969 ( 11)  0.1211 ( 14)
          -0.1957 ( 16) -0.1393 ( 18)  0.1232 ( 30) -0.1449 ( 33)  0.1295 ( 38)
          -0.1037 ( 48)  0.1068 ( 53) -0.1410 ( 56) -0.1364 ( 64) -0.1763 ( 73)
          -0.1360 ( 75) -0.1026 ( 76) -0.2240 ( 79)  0.1490 ( 80) -0.1060 ( 81)
          -0.1103 ( 99)  0.1615 (104) -0.1353 (106) -0.1854 (108)  0.1758 (116)
           0.1005 (117)  0.2386 (122)  0.1227 (125) -0.1044 (127)  0.1379 (132)
 CRD 63=  -0.1704 (  1) -0.1149 (  2)  0.1316 (  3)  0.1118 (  4)  0.1042 (  8)
          -0.1219 (  9)  0.2868 ( 11) -0.1141 ( 12)  0.1385 ( 29) -0.1420 ( 34)
          -0.1671 ( 47) -0.1086 ( 48) -0.1306 ( 52)  0.1438 ( 65) -0.1685 ( 70)
           0.1352 ( 73) -0.1360 ( 76) -0.1607 ( 82) -0.1453 ( 94)  0.1460 ( 99)
           0.1094 (105) -0.1228 (106) -0.1398 (109) -0.1843 (112)  0.2660 (113)
          -0.1561 (116) -0.1733 (117)  0.2123 (125) -0.1091 (128)
 CRD 64=  -0.1295 (  1)  0.1486 (  2)  0.1657 (  3) -0.1763 (  7) -0.1385 (  8)
          -0.1089 ( 10)  0.1078 ( 13) -0.1578 ( 28)  0.1543 ( 29) -0.1244 ( 34)
           0.1669 ( 40) -0.1001 ( 43) -0.1200 ( 47)  0.1597 ( 52) -0.1415 ( 66)
          -0.1508 ( 70)  0.1423 ( 73)  0.2047 ( 76) -0.1549 ( 79) -0.1058 ( 85)
          -0.1851 ( 87)  0.1133 ( 88)  0.1571 ( 92)  0.1537 ( 94) -0.1287 ( 96)
           0.1067 ( 99) -0.1211 (101)  0.1430 (105)  0.1246 (106) -0.1067 (108)
           0.1505 (109) -0.1086 (112)  0.1448 (113) -0.1444 (116) -0.1247 (117)
           0.1280 (120)  0.1401 (122) -0.2113 (125) -0.1308 (127)  0.1611 (130)
 CRD 65=   0.1306 (  2)  0.1739 (  5) -0.1809 (  6)  0.1202 ( 13) -0.1268 ( 25)
           0.1048 ( 27) -0.1161 ( 37)  0.1253 ( 42)  0.1132 ( 53) -0.1811 ( 72)
           0.1697 ( 75) -0.1503 ( 77)  0.1250 ( 78)  0.1050 ( 81) -0.1487 ( 85)
           0.2155 ( 87) -0.1086 ( 88)  0.1652 ( 90) -0.2118 ( 92)  0.1616 ( 98)
           0.1351 ( 99) -0.1768 (101) -0.1875 (104)  0.1865 (109)  0.1768 (110)
          -0.1643 (111) -0.1426 (112) -0.1064 (117)  0.1218 (120)
 CRD 66=  -0.1471 (  5) -0.1048 (  6) -0.1769 (  9)  0.1192 ( 10) -0.1554 ( 12)
           0.1223 ( 13) -0.1430 ( 32)  0.1000 ( 37) -0.1255 ( 41)  0.1219 ( 46)
           0.1546 ( 49)  0.1535 ( 51)  0.1295 ( 72) -0.1620 ( 77) -0.1919 ( 78)
           0.1016 ( 85)  0.2305 ( 86) -0.1567 ( 96) -0.1837 ( 98) -0.1678 ( 99)
          -0.1440 (101)  0.1444 (103) -0.1514 (104) -0.1637 (105)  0.1618 (109)
           0.1482 (110)  0.1932 (111)  0.1852 (112)  0.1143 (117) -0.1337 (127)
          -0.2048 (128) -0.1132 (130)

 THE DETERMINANT OF THE G MATRIX IS 10**(   -35)


                     --------------------
                     INTERNAL COORDINATES
                     --------------------

                 - - ATOMS - -         COORDINATE      COORDINATE
 NO.   TYPE    I  J  K  L  M  N        (BOHR,RAD)       (ANG,DEG)
 ----------------------------------------------------------------
   1 STRETCH   1  2                     2.6831616       1.4198681
   2 STRETCH   1  3                     2.6866953       1.4217380
   3 STRETCH   2  4                     2.8913346       1.5300285
   4 STRETCH   2  7                     2.8945844       1.5317482
   5 STRETCH   2  8                     2.1064195       1.1146693
   6 STRETCH   3 17                     2.6664578       1.4110288
   7 STRETCH   3  5                     2.9112567       1.5405708
   8 STRETCH   3  6                     2.9078771       1.5387824
   9 STRETCH   4 20                     2.1074897       1.1152356
  10 STRETCH   4 19                     2.6569465       1.4059957
  11 STRETCH   4  5                     2.8321287       1.4986981
  12 STRETCH   5 24                     2.1131580       1.1182352
  13 STRETCH   5 22                     2.6504970       1.4025827
  14 STRETCH   6 15                     2.1040658       1.1134238
  15 STRETCH   6 14                     2.1032613       1.1129980
  16 STRETCH   6 13                     2.6473405       1.4009123
  17 STRETCH   7 11                     2.1069889       1.1149706
  18 STRETCH   7 10                     2.0986188       1.1105413
  19 STRETCH   7  9                     2.6507160       1.4026986
  20 STRETCH   9 12                     1.8758503       0.9926573
  21 STRETCH  13 16                     1.8753206       0.9923770
  22 STRETCH  17 18                     1.8761224       0.9928013
  23 STRETCH  19 21                     1.8758453       0.9926546
  24 STRETCH  22 23                     1.8745054       0.9919456
  25 BEND      1  3  6                  1.9179472     109.8902806
  26 BEND      1  2  4                  1.8616322     106.6636702
  27 BEND      1  2  7                  1.9353099     110.8850918
  28 BEND      1  3 17                  1.8779153     107.5966186
  29 BEND      1  2  8                  1.8669266     106.9670164
  30 BEND      1  3  5                  1.8518481     106.1030807
  31 BEND      2  7 11                  1.9338531     110.8016213
  32 BEND      2  4 19                  2.0002530     114.6060563
  33 BEND      2  1  3                  1.8682842     107.0448014
  34 BEND      2  4  5                  1.7248525      98.8267682
  35 BEND      2  7 10                  1.9055332     109.1790078
  36 BEND      2  7  9                  1.9351739     110.8772988
  37 BEND      2  4 20                  1.9190933     109.9559440
  38 BEND      3  6 13                  1.9137499     109.6497905
  39 BEND      3  6 15                  1.9040970     109.0967234
  40 BEND      3  5  4                  1.7225543      98.6950920
  41 BEND      3  5 22                  1.9978729     114.4696835
  42 BEND      3  5 24                  1.9365480     110.9560264
  43 BEND      3 17 18                  1.8870944     108.1225474
  44 BEND      3  6 14                  1.9131317     109.6143707
  45 BEND      4 19 21                  1.8840984     107.9508879
  46 BEND      4  2  8                  1.9192861     109.9669949
  47 BEND      4  2  7                  1.9687076     112.7986345
  48 BEND      4  5 22                  1.9632377     112.4852348
  49 BEND      4  5 24                  1.8929891     108.4602856
  50 BEND      5  4 19                  1.9941921     114.2587881
  51 BEND      5  4 20                  1.9071691     109.2727374
  52 BEND      5  3  6                  1.9487662     111.6560802
  53 BEND      5  3 17                  1.9382778     111.0551372
  54 BEND      5 22 23                  1.8557602     106.3272244
  55 BEND      6 13 16                  1.8520627     106.1153737
  56 BEND      6  3 17                  1.9263178     110.3698780
  57 BEND      7  2  8                  1.9089206     109.3730963
  58 BEND      7  9 12                  1.8665375     106.9447211
  59 BEND      9  7 10                  1.8878398     108.1652551
  60 BEND      9  7 11                  1.9376787     111.0208100
  61 BEND     10  7 11                  1.8614532     106.6534150
  62 BEND     13  6 14                  1.9121313     109.5570559
  63 BEND     13  6 15                  1.9103747     109.4564048
  64 BEND     14  6 15                  1.9102959     109.4518906
  65 BEND     19  4 20                  1.9104218     109.4591075
  66 BEND     22  5 24                  1.9385503     111.0707499
  67 TORSION   1  3  6 14              -3.1274693    -179.1907893
  68 TORSION   1  3 17 18              -3.0820765    -176.5899764
  69 TORSION   1  2  4 19              -2.8085160    -160.9161110
  70 TORSION   1  2  4 20               1.3141880      75.2974275
  71 TORSION   1  2  7  9               3.0901771     177.0541068
  72 TORSION   1  2  7 10               1.0119457      57.9802196
  73 TORSION   1  2  7 11              -1.0331532     -59.1953166
  74 TORSION   1  3  5 22              -2.7750437    -158.9982920
  75 TORSION   1  3  6 13               1.0560176      60.5053489
  76 TORSION   1  3  5 24               1.2972550      74.3272364
  77 TORSION   1  3  5  4              -0.6867924     -39.3503065
  78 TORSION   1  2  4  5              -0.6809743     -39.0169505
  79 TORSION   1  3  6 15              -1.0359606     -59.3561713
  80 TORSION   2  1  3  6               2.3783643     136.2702387
  81 TORSION   2  1  3 17              -1.8068672    -103.5258674
  82 TORSION   2  4 19 21               0.9501755      54.4410486
  83 TORSION   2  7  9 12               1.5896461      91.0800149
  84 TORSION   2  4  5 22               2.9009387     166.2115438
  85 TORSION   2  4  5 24              -1.2310215     -70.5323360
  86 TORSION   2  4  5  3               0.7870277      45.0933654
  87 TORSION   2  1  3  5               0.2689824      15.4115588
  88 TORSION   3  1  2  8              -1.7981554    -103.0267175
  89 TORSION   3  5  4 19               2.9189716     167.2447551
  90 TORSION   3  5  4 20              -1.2174244     -69.7532815
  91 TORSION   3  6 13 16              -3.1325937    -179.4843966
  92 TORSION   3  1  2  4               0.2551385      14.6183620
  93 TORSION   3  1  2  7               2.4048731     137.7890796
  94 TORSION   3  5 22 23              -1.3301519     -76.2120877
  95 TORSION   4  5  3  6              -2.7761555    -159.0619959
  96 TORSION   4  5  3 17               1.3488761      77.2849101
  97 TORSION   4  5 22 23               3.0052440     172.1877994
  98 TORSION   4  2  7  9              -1.1063165     -63.3872676
  99 TORSION   4  2  7 11               1.0535385      60.3633089
 100 TORSION   4  2  7 10               3.0986374     177.5388452
 101 TORSION   5  3  6 15               1.0139807      58.0968147
 102 TORSION   5  3  6 13               3.1059589     177.9583349
 103 TORSION   5  4 19 21              -1.0228839     -58.6069292
 104 TORSION   5  3  6 14              -1.0775279     -61.7378034
 105 TORSION   5  4  2  8               1.3374680      76.6312724
 106 TORSION   5  3 17 18               1.1815030      67.6951349
 107 TORSION   5  4  2  7              -2.8097520    -160.9869313
 108 TORSION   6  3 17 18              -0.9894259     -56.6899296
 109 TORSION   6  3  5 24              -0.7921081     -45.3844531
 110 TORSION   6  3  5 22               1.4187785      81.2900185
 111 TORSION   7  2  4 19               1.3458916      77.1139083
 112 TORSION   7  2  4 20              -0.8145897     -46.6725532
 113 TORSION   8  2  4 19              -0.7900737     -45.2678880
 114 TORSION   8  2  4 20              -2.9505550    -169.0543495
 115 TORSION   8  2  7 11              -3.0878761    -176.9222710
 116 TORSION   8  2  7  9               1.0354541      59.3271524
 117 TORSION   8  2  7 10              -1.0427772     -59.7467348
 118 TORSION  10  7  9 12              -2.6046866    -149.2375517
 119 TORSION  11  7  9 12              -0.5680161     -32.5449267
 120 TORSION  13  6  3 17              -1.0123292     -58.0021914
 121 TORSION  14  6 13 16               1.0502846      60.1768733
 122 TORSION  14  6  3 17               1.0873693      62.3016703
 123 TORSION  15  6 13 16              -1.0444566     -59.8429565
 124 TORSION  15  6  3 17              -3.1043074    -177.8637116
 125 TORSION  17  3  5 22              -0.7393751     -42.3630754
 126 TORSION  17  3  5 24              -2.9502618    -169.0375470
 127 TORSION  19  4  5 24               0.9009224      51.6190537
 128 TORSION  19  4  5 22              -1.2503027     -71.6370665
 129 TORSION  20  4  5 24               3.0477117     174.6210171
 130 TORSION  20  4  5 22               0.8964866      51.3648969
 131 TORSION  20  4 19 21               3.1152760     178.4921664
 132 TORSION  23 22  5 24               0.8797008      50.4031419

     ------------------------------------------
     THE POINT GROUP IS C1 , NAXIS= 1, ORDER= 1
     ------------------------------------------

     DIMENSIONS OF THE SYMMETRY SUBSPACES ARE
 A   =  300

 ..... DONE SETTING UP THE RUN .....
 STEP CPU TIME =     0.02 TOTAL CPU TIME =        0.0 (    0.0 MIN)
 TOTAL WALL CLOCK TIME=        0.0 SECONDS, CPU UTILIZATION IS  66.67%


          -----------------------------
          STATIONARY POINT LOCATION RUN
          -----------------------------

 OBTAINING INITIAL HESSIAN, HESS=GUESS   
 DIAGONAL GUESS HESSIAN IN INTERNAL COORDS IS
     1  0.3673     2  0.3659     3  0.3671     4  0.3659     5  0.3301
     6  0.3736     7  0.3597     8  0.3610     9  0.3298    10  0.3773
    11  0.3902    12  0.3279    13  0.3798    14  0.3309    15  0.3312
    16  0.3810    17  0.3300    18  0.3328    19  0.3797    20  0.3379
    21  0.3381    22  0.3379    23  0.3380    24  0.3384    25  0.2429
    26  0.2436    27  0.2435    28  0.2393    29  0.2185    30  0.2428
    31  0.2225    32  0.2446    33  0.2388    34  0.2507    35  0.2228
    36  0.2447    37  0.2226    38  0.2443    39  0.2222    40  0.2500
    41  0.2441    42  0.2218    43  0.2139    44  0.2222    45  0.2142
    46  0.2226    47  0.2484    48  0.2470    49  0.2243    50  0.2467
    51  0.2244    52  0.2471    53  0.2435    54  0.2144    55  0.2145
    56  0.2436    57  0.2225    58  0.2144    59  0.2198    60  0.2195
    61  0.2011    62  0.2197    63  0.2197    64  0.2011    65  0.2193
    66  0.2193    67  0.2500    68  0.2500    69  0.2500    70  0.2500
    71  0.2500    72  0.2500    73  0.2500    74  0.2500    75  0.2500
    76  0.2500    77  0.2500    78  0.2500    79  0.2500    80  0.2500
    81  0.2500    82  0.2500    83  0.2500    84  0.2500    85  0.2500
    86  0.2500    87  0.2500    88  0.2500    89  0.2500    90  0.2500
    91  0.2500    92  0.2500    93  0.2500    94  0.2500    95  0.2500
    96  0.2500    97  0.2500    98  0.2500    99  0.2500   100  0.2500
   101  0.2500   102  0.2500   103  0.2500   104  0.2500   105  0.2500
   106  0.2500   107  0.2500   108  0.2500   109  0.2500   110  0.2500
   111  0.2500   112  0.2500   113  0.2500   114  0.2500   115  0.2500
   116  0.2500   117  0.2500   118  0.2500   119  0.2500   120  0.2500
   121  0.2500   122  0.2500   123  0.2500   124  0.2500   125  0.2500
   126  0.2500   127  0.2500   128  0.2500   129  0.2500   130  0.2500
   131  0.2500   132  0.2500
 TRANSFORMING HESSIAN TO SYMMETRY COORDINATES

          PARAMETERS CONTROLLING GEOMETRY SEARCH ARE
          METHOD =QA                  UPHESS =BFGS    
          NNEG   =         0          NFRZ   =         3
          NSTEP  =        50          IFOLOW =         1
          HESS   =GUESS               RESTAR =         F
          IHREP  =         0          HSSEND =         F
          NPRT   =         0          NPUN   =         0
          OPTTOL = 5.000E-04          RMIN   = 1.500E-03
          RMAX   = 1.000E-01          RLIM   = 7.000E-02
          DXMAX  = 3.000E-01          PURIFY =         F
          MOVIE  =         F          TRUPD  =         T
          TRMAX  = 5.000E-01          TRMIN  = 5.000E-02
          ITBMAT =         5          STPT   =         F
          STSTEP = 1.000E-02          PROJCT=          F
          FROZEN COORD(S)=   1   2   3


      ***** EQUILIBRIUM GEOMETRY LOCATED *****
            (SUBJECT TO   3 CONSTRAINT(S))
 COORDINATES OF ALL ATOMS ARE (ANGS)
   ATOM   CHARGE       X              Y              Z
 ------------------------------------------------------------
 O           8.0  -0.5627463463   3.1782081231   4.8301373008
 C           6.0  -1.1734282015   4.1365410010   3.9771826237
 C           6.0  -0.1484749378   2.0474121935   4.1313874575
 C           6.0  -1.2569170172   3.4655817611   2.6030418727
 C           6.0  -0.0929330907   2.4936192684   2.6654045801
 C           6.0   1.1993711118   1.5776899591   4.6431258495
 C           6.0  -2.4951330452   4.5747267574   4.5868688554
 H           1.0  -0.5215069396   5.0034771207   3.9112455998
 O           8.0  -3.0284570719   5.6908062397   3.9189451160
 H           1.0  -2.3224837058   4.8777635296   5.6113538823
 H           1.0  -3.1985354699   3.7462800779   4.5921767174
 H           1.0  -3.2800386659   5.4529206185   3.0418232298
 O           8.0   1.0937816988   1.1600240709   5.9749656054
 H           1.0   1.5397022836   0.7617754653   4.0087823779
 H           1.0   1.9018344676   2.4003096768   4.5484513625
 H           1.0   1.9432269414   0.8699169131   6.2637160848
 O           8.0  -1.1368841433   1.0763701985   4.2980226094
 H           1.0  -1.0162162798   0.3993496410   3.6498042528
 O           8.0  -1.2383283871   4.3551850737   1.5257714513
 H           1.0  -2.1756983955   2.9006443484   2.5080610861
 H           1.0  -0.4542931952   4.8809200421   1.5526762229
 O           8.0  -0.2360168761   1.4357585419   1.7647529969
 H           1.0   0.6108581904   1.1001936277   1.5206915590
 H           1.0   0.8327284056   3.0319451294   2.4839378156


                     --------------------
                     INTERNAL COORDINATES
                     --------------------

                 - - ATOMS - -         COORDINATE      COORDINATE
 NO.   TYPE    I  J  K  L  M  N        (BOHR,RAD)       (ANG,DEG)
 ----------------------------------------------------------------
   1 STRETCH   1  2                     2.6850512       1.4208680
   2 STRETCH   1  3                     2.6311145       1.3923260
   3 STRETCH   2  4                     2.8940705       1.5314762
   4 STRETCH   2  7                     2.8725251       1.5200749
   5 STRETCH   2  8                     2.0535742       1.0867048
   6 STRETCH   3 17                     2.6372632       1.3955797
   7 STRETCH   3  5                     2.8976910       1.5333921
   8 STRETCH   3  6                     2.8654155       1.5163127
   9 STRETCH   4 20                     2.0460897       1.0827441
  10 STRETCH   4 19                     2.6403815       1.3972298
  11 STRETCH   4  5                     2.8680654       1.5177150
  12 STRETCH   5 24                     2.0523974       1.0860820
  13 STRETCH   5 22                     2.6393429       1.3966802
  14 STRETCH   6 15                     2.0520033       1.0858735
  15 STRETCH   6 14                     2.0561864       1.0880870
  16 STRETCH   6 13                     2.6452054       1.3997825
  17 STRETCH   7 11                     2.0537479       1.0867967
  18 STRETCH   7 10                     2.0451067       1.0822239
  19 STRETCH   7  9                     2.6565206       1.4057703
  20 STRETCH   9 12                     1.7819882       0.9429876
  21 STRETCH  13 16                     1.7818585       0.9429190
  22 STRETCH  17 18                     1.7858707       0.9450421
  23 STRETCH  19 21                     1.7845981       0.9443687
  24 STRETCH  22 23                     1.7821300       0.9430627
  25 BEND      1  3  6                  1.9248486     110.2857028
  26 BEND      1  2  4                  1.8406286     105.4602480
  27 BEND      1  2  7                  1.9043015     109.1084388
  28 BEND      1  3 17                  1.8696752     107.1244998
  29 BEND      1  2  8                  1.8929990     108.4608550
  30 BEND      1  3  5                  1.8278571     104.7284957
  31 BEND      2  7 11                  1.9230149     110.1806397
  32 BEND      2  4 19                  1.9955848     114.3385881
  33 BEND      2  1  3                  1.9545379     111.9867720
  34 BEND      2  4  5                  1.7740882     101.6477681
  35 BEND      2  7 10                  1.8983163     108.7655101
  36 BEND      2  7  9                  1.9478310     111.6024976
  37 BEND      2  4 20                  1.9321723     110.7053199
  38 BEND      3  6 13                  1.9246202     110.2726173
  39 BEND      3  6 15                  1.8869725     108.1155599
  40 BEND      3  5  4                  1.7699703     101.4118269
  41 BEND      3  5 22                  1.9740261     113.1033631
  42 BEND      3  5 24                  1.9122355     109.5630230
  43 BEND      3 17 18                  1.9030059     109.0342041
  44 BEND      3  6 14                  1.8897443     108.2743748
  45 BEND      4 19 21                  1.9214679     110.0919998
  46 BEND      4  2  8                  1.9047416     109.1336560
  47 BEND      4  2  7                  2.0250322     116.0257984
  48 BEND      4  5 22                  1.9605809     112.3330082
  49 BEND      4  5 24                  1.9064226     109.2299709
  50 BEND      5  4 19                  2.0144270     115.4181654
  51 BEND      5  4 20                  1.8967937     108.6782719
  52 BEND      5  3  6                  1.9612402     112.3707850
  53 BEND      5  3 17                  1.9201382     110.0158145
  54 BEND      5 22 23                  1.9223897     110.1448183
  55 BEND      6 13 16                  1.8914782     108.3737186
  56 BEND      6  3 17                  1.9538065     111.9448670
  57 BEND      7  2  8                  1.8922925     108.4203732
  58 BEND      7  9 12                  1.9207740     110.0522448
  59 BEND      9  7 10                  1.8629283     106.7379270
  60 BEND      9  7 11                  1.9411790     111.2213628
  61 BEND     10  7 11                  1.8881768     108.1845615
  62 BEND     13  6 14                  1.9332219     110.7654536
  63 BEND     13  6 15                  1.9367022     110.9648609
  64 BEND     14  6 15                  1.8911466     108.3547183
  65 BEND     19  4 20                  1.8502781     106.0131289
  66 BEND     22  5 24                  1.9336962     110.7926296
  67 TORSION   1  3  6 14              -3.0384661    -174.0912861
  68 TORSION   1  3 17 18               2.8607480     163.9087878
  69 TORSION   1  2  4 19              -2.6561147    -152.1841639
  70 TORSION   1  2  4 20               1.5388539      88.1698350
  71 TORSION   1  2  7  9               2.9547338     169.2937781
  72 TORSION   1  2  7 10               0.9040524      51.7983898
  73 TORSION   1  2  7 11              -1.1628818     -66.6282198
  74 TORSION   1  3  5 22              -2.7114015    -155.3518607
  75 TORSION   1  3  6 13               1.1270675      64.5762114
  76 TORSION   1  3  5 24               1.4051760      80.5106552
  77 TORSION   1  3  5  4              -0.6082493     -34.8501197
  78 TORSION   1  2  4  5              -0.4736467     -27.1379580
  79 TORSION   1  3  6 15              -0.9931040     -56.9006693
  80 TORSION   2  1  3  6               2.4390041     139.7446436
  81 TORSION   2  1  3 17              -1.7138471     -98.1962029
  82 TORSION   2  4 19 21               1.0083444      57.7738780
  83 TORSION   2  7  9 12               1.1708749      67.0861920
  84 TORSION   2  4  5 22               2.7556391     157.8864898
  85 TORSION   2  4  5 24              -1.3746859     -78.7637023
  86 TORSION   2  4  5  3               0.6430334      36.8430996
  87 TORSION   2  1  3  5               0.3251939      18.6322359
  88 TORSION   3  1  2  8              -1.9436708    -111.3641358
  89 TORSION   3  5  4 19               2.8128752     161.1658769
  90 TORSION   3  5  4 20              -1.3953715     -79.9488986
  91 TORSION   3  6 13 16               3.1361335     179.6872120
  92 TORSION   3  1  2  4               0.0948537       5.4347190
  93 TORSION   3  1  2  7               2.2814534     130.7176484
  94 TORSION   3  5 22 23              -1.6186033     -92.7391357
  95 TORSION   4  5  3  6              -2.6978577    -154.5758592
  96 TORSION   4  5  3 17               1.3957566      79.9709605
  97 TORSION   4  5 22 23               2.6737351     153.1937392
  98 TORSION   4  2  7  9              -1.2534453     -71.8171275
  99 TORSION   4  2  7 11               0.9121243      52.2608746
 100 TORSION   4  2  7 10               2.9790586     170.6874842
 101 TORSION   5  3  6 15               1.0391337      59.5379764
 102 TORSION   5  3  6 13              -3.1238801    -178.9851429
 103 TORSION   5  4 19 21              -1.0407780     -59.6321896
 104 TORSION   5  3  6 14              -1.0062284     -57.6526404
 105 TORSION   5  4  2  8               1.5568857      89.2029823
 106 TORSION   5  3 17 18               0.8834774      50.6195242
 107 TORSION   5  4  2  7              -2.5831482    -148.0034926
 108 TORSION   6  3 17 18              -1.3103261     -75.0761555
 109 TORSION   6  3  5 24              -0.6844323     -39.2150844
 110 TORSION   6  3  5 22               1.4821755      84.9223997
 111 TORSION   7  2  4 19               1.5175690      86.9503016
 112 TORSION   7  2  4 20              -0.5706476     -32.6956995
 113 TORSION   8  2  4 19              -0.6255823     -35.8432235
 114 TORSION   8  2  4 20              -2.7137989    -155.4892246
 115 TORSION   8  2  7 11               3.0617980     175.4281037
 116 TORSION   8  2  7  9               0.8962283      51.3501016
 117 TORSION   8  2  7 10              -1.1544530     -66.1452867
 118 TORSION  10  7  9 12              -3.0404132    -174.2028416
 119 TORSION  11  7  9 12              -0.9844351     -56.4039754
 120 TORSION  13  6  3 17              -0.9528013     -54.5914942
 121 TORSION  14  6 13 16               1.0445620      59.8489917
 122 TORSION  14  6  3 17               1.1648503      66.7410083
 123 TORSION  15  6 13 16              -1.0567011     -60.5445118
 124 TORSION  15  6  3 17              -3.0729729    -176.0683749
 125 TORSION  17  3  5 22              -0.7073956     -40.5307806
 126 TORSION  17  3  5 24              -2.8740034    -164.6682647
 127 TORSION  19  4  5 24               0.7951559      45.5590749
 128 TORSION  19  4  5 22              -1.3577044     -77.7907330
 129 TORSION  20  4  5 24               2.8700945     164.4442994
 130 TORSION  20  4  5 22               0.7172342      41.0944915
 131 TORSION  20  4 19 21              -3.1412768    -179.9819044
 132 TORSION  23 22  5 24               0.5362234      30.7233390

          INTERNUCLEAR DISTANCES (ANGS.)


 =====================================================
   GAMESS/COSab RESULTS
 =====================================================

   Dielectric Constant                  = INFTY
   Basic Grid Size                      =                 1082
   Number of Segments                   =                   92
   Number of Segments located on spheres=                  319
   Number of Segments of the cavity     =                  733
   Solvent Radius (rsolv)               = 1.40
   Outlying Charge Error Method         = double cavity

 =====================================================

  Total solvated Energy (a.u.)          =  -683.5616895106
  Total Energy corrected (a.u.)         =  -683.5615398994

  Outlying charge effect (a.u.)         =     0.0001496112
  Outlying charge effect (kcal/mol)     =     0.0938825329

  Dielectric Energy (a.u.)              =    -0.0511124891
  Dielectric energy corr. (a.u.)        =    -0.0509628779

  Sum of polarization charges           =     0.0157916119
  Sum of polarization charges(cor.)     =    -0.0157916119

  Total surface area of cavity (A**2)   =  189.27
  Total volume of cavity (A**3)         =  197.79

 =====================================================
 NPS=                   733
NR.  ATOM  (X, Y, Z)(a.u.)                  CHARGE(e)  AREA(A**2) SIGMA(e/A**2)
   1   1   0.962244   7.384112  11.263490   0.003908   0.206154   0.018959
   2   1  -1.707332   5.756786  12.303780   0.005415   0.274871   0.019698
   3   1  -0.334837   8.144805  11.464084   0.001988   0.137436   0.014464
   4   1   0.275003   8.054654  11.266784   0.003663   0.274871   0.013325
   5   1  -1.445894   6.623871  12.295673   0.003077   0.171795   0.017909
   6   1   0.366250   7.056072  11.851203   0.004142   0.240512   0.017222
   7   1  -0.634643   6.493090  12.312507   0.004981   0.240512   0.020710
   8   1  -2.367250   5.483460  12.058788   0.002077   0.103077   0.020148
   9   1   0.926284   8.145297  10.551991   0.002421   0.171795   0.014093
  10   1  -2.265960   4.956868  11.959237   0.002110   0.103077   0.020470
  11   1   1.318669   7.652282  10.604036   0.003155   0.171795   0.018363
  12   1  -0.517294   7.422862  12.001421   0.004720   0.274871   0.017172
  13   1  -2.832455   4.863078  11.603321   0.003709   0.206154   0.017994
  14   1   1.389362   8.038948   9.772076   0.001320   0.068718   0.019209
  15   2  -0.685239   9.515387  10.524398  -0.000310   0.139368  -0.002227
  16   2  -0.553330  10.089366  10.035886  -0.000631   0.185824  -0.003393
  17   2   0.140920   9.494032   9.946750  -0.000146   0.139368  -0.001051
  18   4  -4.542462   5.275615   2.096656  -0.000068   0.046456  -0.001469
  19   4  -4.202790   5.070438   1.959626  -0.000046   0.046456  -0.000985
  20   4  -4.187904   4.705890   2.161974  -0.000173   0.046456  -0.003729
  21   5   1.957317   5.363930   1.985628  -0.000366   0.092912  -0.003936
  22   5   1.446588   5.655487   1.756180  -0.000559   0.185824  -0.003008
  23   5   1.618661   6.146685   2.035677  -0.000370   0.046456  -0.007971
  24   6   5.907986   2.853138   7.770570   0.000072   0.325193   0.000221
  25   6   2.844401   5.917532  11.082783   0.000127   0.046456   0.002740
  26   6   3.654818   5.561380  11.161805   0.000067   0.092912   0.000717
  27   6   4.950154   0.323131   8.899922  -0.000357   0.092912  -0.003843
  28   6   5.565546   2.167426   7.119553   0.000107   0.278737   0.000383
  29   6   1.676394  -0.751277   8.718314  -0.000091   0.185824  -0.000487
  30   6   4.390435   5.054638  11.114061  -0.000124   0.046456  -0.002670
  31   6   4.789158   3.365513   5.986238  -0.000353   0.139368  -0.002530
  32   6   5.506465   3.213572   6.842146   0.000166   0.278737   0.000594
  33   6   5.878456   1.918135   8.446449  -0.000332   0.418105  -0.000793
  34   6   5.578250   1.181230   9.049709  -0.000549   0.185824  -0.002956
  35   6   6.043891   3.099961   8.736044  -0.000355   0.232280  -0.001528
  36   6   5.866473   3.475344   9.813659  -0.000220   0.139368  -0.001577
  37   6   3.150846   6.014397  10.848626  -0.000034   0.092912  -0.000369
  38   6   5.484353   1.024032   8.460663  -0.000522   0.139368  -0.003744
  39   6   4.954988   2.820765   6.122728  -0.000363   0.185824  -0.001954
  40   6   2.752456  -0.750303   9.124157  -0.000037   0.139368  -0.000268
  41   6   4.942809   3.950026   6.287590  -0.000408   0.139368  -0.002925
  42   6   5.982004   2.668590   9.391784  -0.001159   0.232280  -0.004989
  43   7  -7.782857   9.200798  10.804337  -0.000147   0.278737  -0.000528
  44   7  -5.613842   6.216582  11.421007  -0.000268   0.371649  -0.000722
  45   7  -5.610643   7.077924  11.988563   0.000044   0.185824   0.000239
  46   7  -7.139435   9.096582  11.532006  -0.000028   0.418105  -0.000067
  47   7  -2.382893  11.088150  10.363763  -0.000480   0.139368  -0.003444
  48   7  -2.924475  11.784494   9.773027  -0.000107   0.139368  -0.000765
  49   7  -7.345936  10.148274  10.926930   0.000228   0.232280   0.000982
  50   7  -7.545826   7.971474  11.079920   0.000153   0.371649   0.000412
  51   7  -6.553496   7.072693  11.571808   0.000564   0.325193   0.001735
  52   7  -4.821503   6.580196  11.831725  -0.000087   0.232280  -0.000373
  53   7  -8.163929   9.385403  10.025014   0.000078   0.232280   0.000335
  54   7  -8.214718   8.445262  10.081127  -0.000011   0.325193  -0.000034
  55   7  -6.727465   7.938745  11.788171   0.000257   0.278737   0.000922
  56   7  -6.750234  10.555317  11.216083  -0.000394   0.185824  -0.002118
  57   7  -3.248336  11.739239  10.267397  -0.000403   0.185824  -0.002169
  58   7  -8.478295   8.485291   8.979745   0.000264   0.185824   0.001419
  59   8   0.554335  11.337189   7.740579  -0.002926   0.412182  -0.007099
  60   8   1.283351  10.014085   8.149476  -0.002631   0.372926  -0.007056
  61   8  -0.117517  11.072118   9.024365  -0.001973   0.353299  -0.005585
  62   8  -0.559263  11.824429   6.901135  -0.003299   0.431809  -0.007640
  63   8   0.544971  11.264183   6.742895  -0.002843   0.353299  -0.008046
  64   8   1.287550  10.288398   6.973994  -0.003502   0.451437  -0.007757
  65   8   0.721473  10.580329   8.753313  -0.001969   0.392554  -0.005017
  66   8  -0.547411  11.722229   8.230082  -0.002702   0.412182  -0.006555
  67   9  -7.926194  12.372216   9.164139   0.006440   0.343589   0.018742
  68   9  -5.193063  13.911929   7.964125   0.006109   0.343589   0.017780
  69   9  -7.705417  12.883040   5.955910   0.001380   0.274871   0.005022
  70   9  -4.408925  12.803377   5.252056   0.001930   0.171795   0.011235
  71   9  -8.874450  10.159347   6.877513   0.002045   0.240512   0.008504
  72   9  -6.255791  12.513709  10.086107   0.002291   0.171795   0.013338
  73   9  -7.076641  12.293955   9.927822   0.005184   0.309230   0.016764
  74   9  -5.059139  12.859785   9.791098   0.003522   0.274871   0.012815
  75   9  -5.129648  13.503326   9.034916   0.005683   0.343589   0.016541
  76   9  -7.214509  13.217052   8.913593   0.006844   0.377948   0.018109
  77   9  -6.226211  13.758574   8.539026   0.006696   0.377948   0.017717
  78   9  -4.214407  13.581954   7.946121   0.006995   0.377948   0.018509
  79   9  -3.482415  13.024995   8.028257   0.004890   0.240512   0.020331
  80   9  -8.002269  11.445313   9.617417   0.005186   0.343589   0.015094
  81   9  -6.732774  13.110481   5.407671   0.000456   0.274871   0.001660
  82   9  -5.439954  12.996547   5.069953   0.001368   0.309230   0.004424
  83   9  -8.631679   9.346219   7.056587   0.000844   0.137436   0.006140
  84   9  -8.864539  11.091702   6.643437   0.001927   0.240512   0.008011
  85   9  -8.490685  12.020324   6.265155   0.001754   0.309230   0.005674
  86   9  -8.086665  12.870364   8.112011   0.006493   0.377948   0.017181
  87   9  -8.108568  12.916591   6.961875   0.004539   0.377948   0.012009
  88   9  -6.976715  13.601618   6.465403   0.005067   0.481025   0.010534
  89   9  -6.116991  13.976278   7.242095   0.005829   0.377948   0.015422
  90   9  -4.928741  13.847481   6.801833   0.006731   0.412307   0.016324
  91   9  -4.514135  13.361915   5.888314   0.004754   0.343589   0.013836
  92   9  -3.666874  12.888336   6.070781   0.004122   0.206154   0.019994
  93   9  -8.837935   9.910940   7.793880   0.002436   0.206154   0.011817
  94   9  -8.965356  10.854367   7.609232   0.003808   0.274871   0.013855
  95   9  -8.643634  11.626061   8.534409   0.008272   0.446666   0.018520
  96   9  -6.163519  13.135148   9.573918   0.005482   0.343589   0.015954
  97   9  -4.035848  13.021363   9.011257   0.004924   0.343589   0.014331
  98   9  -7.187018  13.634191   7.760818   0.006045   0.377948   0.015994
  99   9  -3.669292  13.222278   6.900682   0.006376   0.343589   0.018558
 100   9  -8.688934  10.554191   8.720134   0.005350   0.309230   0.017301
 101   9  -5.778540  13.633981   5.899849   0.004112   0.412307   0.009974
 102   9  -8.724789  11.999943   7.367768   0.005357   0.377948   0.014175
 103  10  -4.095898   9.968812  12.924474  -0.004038   0.529948  -0.007620
 104  10  -4.420073  11.355432  11.813847  -0.002044   0.372926  -0.005482
 105  10  -2.646418  10.546406  11.714498  -0.002153   0.353299  -0.006093
 106  10  -4.980883   8.239308  12.778187  -0.001775   0.372926  -0.004761
 107  10  -5.865677  10.041421  12.385891  -0.001897   0.412182  -0.004602
 108  10  -3.440693  10.992644  12.012969  -0.002721   0.451437  -0.006027
 109  10  -2.925510   9.569028  12.545628  -0.003519   0.471065  -0.007470
 110  10  -3.839027   8.484856  12.883348  -0.003791   0.529948  -0.007154
 111  10  -5.358023   9.212108  12.861293  -0.002659   0.471065  -0.005645
 112  10  -5.082464  10.789933  12.359438  -0.003019   0.451437  -0.006687
 113  11  -7.689229   5.280627   8.984229  -0.003452   0.451437  -0.007648
 114  11  -7.966534   6.490587   7.266011  -0.002165   0.353299  -0.006127
 115  11  -8.496310   6.928161   8.690641  -0.001471   0.353299  -0.004163
 116  11  -7.458221   6.074192  10.417382  -0.001571   0.372926  -0.004212
 117  11  -7.500418   5.258710   7.903394  -0.003301   0.392554  -0.008408
 118  11  -8.271385   6.220451   8.096922  -0.001953   0.353299  -0.005529
 119  11  -8.215727   6.409655   9.611590  -0.002456   0.471065  -0.005214
 120  11  -6.956412   5.255809  10.048236  -0.003023   0.451437  -0.006697
 121  12  -7.415694   9.778556   3.680224  -0.006835   0.333671  -0.020485
 122  12  -6.106414  11.904266   3.886095  -0.005554   0.314043  -0.017687
 123  12  -7.871668  11.563878   4.463981  -0.006204   0.412182  -0.015051
 124  12  -8.402807   9.313762   5.307796  -0.006007   0.431809  -0.013911
 125  12  -7.036623  11.019569   3.552500  -0.008176   0.412182  -0.019835
 126  12  -8.090157  10.343551   4.181450  -0.007109   0.412182  -0.017248
 127  12  -7.800963   8.918589   4.504842  -0.009081   0.431809  -0.021031
 128  12  -6.944545  12.053350   4.192589  -0.003390   0.274788  -0.012339
 129  12  -8.542171  10.602067   5.075002  -0.004186   0.333671  -0.012546
 130  13   0.875321   4.149151  13.596402   0.004826   0.240512   0.020067
 131  13  -0.411656   0.941241  12.981124   0.004177   0.240512   0.017369
 132  13   2.372333   1.940766  14.517212   0.001375   0.274871   0.005004
 133  13   2.276208  -0.884693  12.317692   0.002878   0.343589   0.008378
 134  13   3.974626   4.415828  12.698376   0.001871   0.240512   0.007780
 135  13  -0.672620   1.753773  12.984318   0.003783   0.171795   0.022019
 136  13  -0.006750   3.286542  13.541956   0.006530   0.343589   0.019005
 137  13  -0.424417   2.284026  13.376522   0.005968   0.309230   0.019301
 138  13  -0.080894   0.067014  12.489061   0.004089   0.206154   0.019834
 139  13   2.305638   0.838477  14.236424   0.000494   0.274871   0.001796
 140  13   2.204735  -0.238836  13.444191   0.001432   0.309230   0.004632
 141  13   2.511882  -1.026514  11.374815   0.002148   0.240512   0.008929
 142  13   2.994960  -0.862090  10.678502   0.000974   0.171795   0.005668
 143  13   3.495884   3.847380  13.695814   0.002431   0.309230   0.007863
 144  13   2.950330   2.981307  14.317833   0.001758   0.309230   0.005685
 145  13   1.058836   3.448107  14.114306   0.004552   0.274871   0.016561
 146  13   1.769634   2.840401  14.462154   0.004521   0.377948   0.011961
 147  13   1.325985   1.501306  14.379461   0.005023   0.481025   0.010442
 148  13   0.267235   1.255606  13.830439   0.005801   0.377948   0.015350
 149  13   0.353051   0.210283  13.214433   0.005479   0.343589   0.015946
 150  13   1.189309  -0.564654  12.772428   0.006266   0.446666   0.014029
 151  13   1.476675  -0.991758  11.572234   0.004611   0.309230   0.014911
 152  13   0.980908  -0.847733  10.911071   0.003776   0.240512   0.015700
 153  13   3.336982   4.867768  12.629927   0.003032   0.240512   0.012607
 154  13   2.891458   4.555678  13.364312   0.003907   0.274871   0.014215
 155  13   1.788656   4.585315  13.472745   0.005709   0.309230   0.018461
 156  13   0.458339   2.447150  14.103856   0.005985   0.377948   0.015835
 157  13   0.399948  -0.539212  11.861561   0.005652   0.274871   0.020562
 158  13   2.413085   5.068380  12.764811   0.003368   0.171795   0.019605
 159  13   1.323290   0.297451  13.825163   0.004182   0.412307   0.010143
 160  13   1.953184  -0.976276  10.574864   0.002611   0.206154   0.012666
 161  13   2.259814   3.841544  14.085116   0.005385   0.377948   0.014248
 162  14   3.906155  -0.388858   6.272061  -0.004055   0.490692  -0.008265
 163  14   2.650673  -0.996084   7.764699  -0.001480   0.314043  -0.004713
 164  14   4.476944  -0.425052   7.894680  -0.001905   0.353299  -0.005393
 165  14   5.084149   1.007476   6.517295  -0.000987   0.235532  -0.004191
 166  14   2.694998  -0.830944   6.662296  -0.003613   0.412182  -0.008766
 167  14   3.650680  -0.902212   7.621594  -0.002451   0.431809  -0.005676
 168  14   4.923132   0.119177   7.088183  -0.002421   0.451437  -0.005364
 169  14   4.624896   0.809903   5.933416  -0.002847   0.353299  -0.008058
 170  15   5.440925   6.148400   8.749298  -0.003521   0.490692  -0.007176
 171  15   4.771138   5.978714  10.197734  -0.001963   0.392554  -0.005001
 172  15   5.535001   4.953659   7.148648  -0.001788   0.333671  -0.005359
 173  15   5.982964   4.790476   9.108044  -0.001712   0.372926  -0.004591
 174  15   4.194215   6.699396   9.592432  -0.003172   0.490692  -0.006464
 175  15   4.398276   6.840344   8.316322  -0.003939   0.451437  -0.008725
 176  15   5.196981   6.064845   7.533353  -0.003227   0.412182  -0.007829
 177  15   5.963958   4.909517   8.067548  -0.002146   0.412182  -0.005207
 178  15   5.545818   5.412932   9.802040  -0.001865   0.372926  -0.005000
 179  16   5.896573   0.981156  12.641636  -0.009121   0.471065  -0.019362
 180  16   4.052262  -0.494533  12.984619  -0.006750   0.471065  -0.014329
 181  16   4.369697   1.596191  14.191753  -0.006765   0.451437  -0.014984
 182  16   5.327148   3.214877  12.746757  -0.005939   0.431809  -0.013754
 183  16   6.111780   1.631364  11.548120  -0.006594   0.372926  -0.017681
 184  16   5.030521  -0.291708  11.170807  -0.005863   0.353299  -0.016594
 185  16   5.006842   0.484240  13.542261  -0.008556   0.471065  -0.018163
 186  16   5.533454   1.863957  13.424879  -0.008842   0.490692  -0.018019
 187  16   5.949768   2.503272  12.167095  -0.007507   0.431809  -0.017384
 188  16   5.809468   0.551949  11.312558  -0.007998   0.431809  -0.018521
[...]
 474  15   5.185487   4.523707   6.724845  -0.000509   0.069701  -0.007308
 475   6   3.723152   5.793553  10.747487  -0.000690   0.152483  -0.004524
 476   6   4.880804   4.801556  10.717476  -0.001079   0.152483  -0.007074
 477   6   5.727089   3.968789   9.760702  -0.001155   0.152483  -0.007577
 478   6   5.904879   3.646677   8.280922  -0.000778   0.152483  -0.005102
 479   6   5.339147   3.971150   6.902597  -0.000785   0.152483  -0.005146
 480  16   4.276441  -0.408178  10.482469  -0.001838   0.180014  -0.010210
 481  16   5.285749   0.471640  10.403445  -0.006725   0.372940  -0.018033
 482  16   5.867911   1.936287  10.775900  -0.007190   0.372940  -0.019280
 483  16   5.465805   3.297882  11.555129  -0.005515   0.372940  -0.014789
 484   6   4.482609   0.009502   9.531933  -0.003577   0.426370  -0.008390
 485   6   5.609771   1.433288   9.636385  -0.004652   0.426370  -0.010910
 486   6   5.716900   3.114825  10.321606  -0.004261   0.426370  -0.009993
 487   6   5.089542   4.213856  11.089556  -0.001064   0.219927  -0.004838
 488   6   0.402989  -0.559425   8.700618  -0.000064   0.072995  -0.000883
 489  17  -0.398752  -0.719692   8.585588  -0.000035   0.072995  -0.000485
 490  18  -0.432360  -0.825041   8.280719  -0.000605   0.072995  -0.008283
 491  17  -0.368523  -0.766428   8.804241   0.000095   0.033738   0.002818
 492   6   0.791459  -0.660049   9.021668   0.000052   0.037274   0.001400
 493  18  -0.286523  -1.026667   7.807116  -0.001565   0.170681  -0.009168
 494   6   0.927189  -0.758052   8.531559  -0.000130   0.241735  -0.000536
 495   6   3.827298   3.443343   5.069105  -0.003181   0.258043  -0.012329
 496  23   3.409054   3.217301   3.976691  -0.005613   0.258043  -0.021751
 497  24   3.550204   4.029200   4.371714  -0.003773   0.258043  -0.014622
 498  23   3.624399   2.579505   3.682644  -0.003291   0.197503  -0.016663
 499   6   4.327001   2.750149   5.275173  -0.000784   0.287403  -0.002727
 500  24   3.979339   4.881048   4.733465  -0.002162   0.248870  -0.008687
 501   6   4.461687   3.911417   5.627201  -0.001290   0.351483  -0.003670
 502   7  -2.602281  11.813882   8.909060   0.000052   0.094308   0.000546
 503   8  -1.959014  11.684726   8.560913  -0.000367   0.094308  -0.003895
 504   9  -2.867221  12.097380   8.642295   0.000804   0.094308   0.008529
 505   8  -1.278954  11.397344   8.891381  -0.001609   0.231811  -0.006939
 506   7  -2.141173  11.360773   9.613899  -0.000817   0.326673  -0.002501
 507   7  -5.843428  11.455087  10.934596  -0.000009   0.013398  -0.000646
 508   9  -5.990886  11.752498  10.604251   0.000121   0.013398   0.008996
 509  10  -5.674352  11.348330  11.159022  -0.000097   0.013398  -0.007220
 510   7  -4.435482  11.906050  10.563925   0.000011   0.013398   0.000840
 511   9  -4.642284  12.184453  10.249203   0.000166   0.013398   0.012395
 512  10  -4.395764  11.757860  10.822407  -0.000057   0.013398  -0.004254
 513   7  -8.101105   8.414301   6.817748  -0.000201   0.038074  -0.005274
 514   9  -8.228567   8.816417   6.612742  -0.000222   0.038074  -0.005834
 515  12  -8.175475   8.822373   6.295235  -0.000520   0.038074  -0.013652
 516   9  -4.131345  12.440973   9.525414   0.002974   0.309699   0.009602
 517   7  -3.497697  11.987076   9.654797   0.000782   0.338660   0.002310
 518   9  -8.414113   8.948248   7.108841   0.000330   0.156114   0.002114
 519   9  -8.513111   9.733070   8.499318   0.003923   0.322179   0.012177
 520   9  -7.733854  10.911359   9.845999   0.004292   0.322179   0.013323
 521   9  -6.521915  11.809376  10.378859   0.001627   0.156114   0.010421
 522   7  -8.360136   8.653032   7.966236   0.000806   0.335558   0.002402
 523   7  -8.113028   9.775659   9.644822   0.002163   0.335558   0.006447
 524   7  -6.815244  10.989010  10.636054   0.001534   0.335558   0.004570
 525  10  -2.603601  10.832335  11.084589  -0.000350   0.070732  -0.004951
 526  10  -3.582207  11.426344  11.073803  -0.000985   0.158270  -0.006224
 527   7  -2.867811  11.187828  10.673282  -0.000912   0.153865  -0.005926
 528   7  -3.997755  11.752600  10.696650  -0.000271   0.086415  -0.003132
 529  10  -5.750186  11.018944  11.559675  -0.000367   0.074516  -0.004919
 530  10  -6.212987   9.979285  11.945199  -0.000953   0.168814  -0.005647
 531  10  -5.947491   8.604301  12.307175  -0.000815   0.168814  -0.004825
 532  10  -4.828326   7.691643  12.388529  -0.001091   0.168814  -0.006464
 533   7  -6.234970  10.669635  11.394021  -0.000789   0.160226  -0.004922
 534   7  -6.505901   9.147411  11.889952  -0.000745   0.160226  -0.004651
 535   7  -5.676432   7.777020  12.155525  -0.000677   0.160226  -0.004222
 536   7  -4.499385   7.167034  12.137594  -0.000394   0.091037  -0.004326
 537   7  -5.235805   5.204462  10.436272  -0.000228   0.126826  -0.001798
 538  11  -5.470894   5.092475  10.270471  -0.000400   0.126826  -0.003156
 539  17  -4.637051   4.058709  10.127919   0.001984   0.126826   0.015644
 540   7  -7.073986   6.851363   6.217962  -0.000779   0.085641  -0.009100
 541  11  -7.154593   6.622391   6.404493  -0.000690   0.085641  -0.008056
 542  20  -6.652909   6.274706   5.565922  -0.000874   0.085641  -0.010202
 543  11  -6.095875   5.586111  10.627606  -0.000459   0.069359  -0.006616
 544  11  -6.939887   6.303635  10.768026  -0.000748   0.154059  -0.004854
 545  11  -7.883309   7.101174  10.223923  -0.000731   0.154059  -0.004743
 546  11  -8.379433   7.514816   9.038628  -0.000887   0.154059  -0.005759
 547  11  -8.221718   7.372357   7.705589  -0.000880   0.154059  -0.005713
 548  11  -7.676713   6.904129   6.850812  -0.000529   0.069359  -0.007633
 549   7  -6.155092   6.078525  10.963725  -0.000629   0.151984  -0.004141
 550   7  -7.307122   7.055837  10.832880  -0.000542   0.151984  -0.003569
 551   7  -8.161356   7.774558   9.806647  -0.000672   0.151984  -0.004420
 552   7  -8.362170   7.935479   8.312254  -0.000758   0.151984  -0.004989
 553   7  -7.825963   7.471608   6.971830  -0.001069   0.151984  -0.007032
 554   7  -7.023303   7.295482   5.869802  -0.002350   0.194823  -0.012063
 555  12  -7.112259   7.792449   5.424101  -0.003685   0.194823  -0.018914
 556  20  -6.598349   6.724211   5.209328  -0.002183   0.194823  -0.011204
 557  12  -7.815896   8.389478   5.709235  -0.003548   0.246339  -0.014402
 558   7  -7.823145   7.896700   6.553967  -0.001702   0.300957  -0.005656
 559  17  -4.125691   3.474462  10.660920   0.002858   0.248439   0.011504
 560   7  -4.989051   5.196211  10.873210   0.000396   0.284505   0.001392
 561  20  -6.625205   6.081283   5.019963  -0.000237   0.017745  -0.013329
 562   7  -7.169503   6.955529   6.008639   0.000116   0.025132   0.004625
 563   8  -1.662046  11.415575   5.796507  -0.002113   0.316147  -0.006685
 564   9  -2.627785  11.709512   5.758989   0.002082   0.316147   0.006587
 565  21  -1.643341  11.262896   4.808572  -0.002066   0.316147  -0.006535
 566   9  -2.856794  12.485264   8.244745   0.002705   0.293623   0.009212
 567   9  -2.858265  12.494899   6.904624   0.007074   0.582897   0.012135
 568   8  -1.533274  11.927416   7.702507  -0.001663   0.475611  -0.003498
 569   8  -1.561584  11.837875   6.477124  -0.000735   0.236418  -0.003110
 570   8   1.752764   8.207836   7.100799  -0.003136   0.397793  -0.007884
 571  15   2.850316   7.089555   7.380276  -0.003060   0.397793  -0.007693
 572  24   2.454040   7.449393   6.505985  -0.004804   0.397793  -0.012077
 573  15   3.381522   7.316710   8.046441  -0.000348   0.253083  -0.001374
 574  15   3.250065   7.355334   8.704176  -0.000190   0.253083  -0.000751
 575   8   1.728501   9.008067   7.959880  -0.000468   0.504949  -0.000926
 576   8   1.152864   9.337942   5.635523  -0.004164   0.299937  -0.013882
 577  21   1.211857   9.300075   4.637142  -0.006795   0.299937  -0.022656
 578  24   1.725859   8.491911   5.026095  -0.004518   0.299937  -0.015063
 579  21  -0.815765  11.462080   4.348101  -0.003032   0.251765  -0.012042
 580  21   0.302340  11.003313   4.403806  -0.007846   0.503760  -0.015575
 581  21   1.108185  10.103600   4.473524  -0.003774   0.251765  -0.014992
 582   8  -0.414957  11.390733   5.777810  -0.003820   0.503760  -0.007582
 583   8   0.784500  10.543810   5.856003  -0.004083   0.503760  -0.008105
 584  24   2.362540   8.142211   5.594804  -0.002576   0.397286  -0.006485
 585   8   1.592239   9.248132   6.638069  -0.001975   0.397286  -0.004971
 586  10  -4.856915  11.597268  11.123189  -0.001285   0.318133  -0.004040
 587   9  -5.525839  12.147073  10.398851   0.002529   0.387612   0.006524
 588   9  -4.721347  11.930372   4.390010  -0.000455   0.099009  -0.004594
 589  12  -4.863577  11.761405   4.151883  -0.000862   0.099009  -0.008704
 590  19  -4.067669  11.351682   3.565774   0.000845   0.099009   0.008535
 591  12  -8.402609   9.260999   6.005400  -0.000674   0.084758  -0.007948
 592  12  -8.573891  10.474861   5.725313  -0.001938   0.184658  -0.010492
 593  12  -7.987129  11.779615   5.203145  -0.002320   0.184658  -0.012565
 594  12  -6.688777  12.371003   4.670347  -0.002416   0.184658  -0.013081
 595  12  -5.479673  12.201034   4.369637  -0.001007   0.084758  -0.011880
 596   9  -8.568198   9.797631   6.352986  -0.000774   0.181083  -0.004272
 597   9  -8.450666  11.374768   5.891533  -0.000958   0.181083  -0.005288
 598   9  -7.370203  12.461552   5.286873  -0.001552   0.181083  -0.008569
 599   9  -5.799816  12.582208   4.803716  -0.001332   0.181083  -0.007355
 600   9  -3.176975  11.699866   4.792217   0.000746   0.088306   0.008450
 601  19  -2.469952  11.392987   3.876601   0.000606   0.088306   0.006866
 602  21  -2.147444  11.385776   3.854400  -0.000212   0.088306  -0.002396
 603  19  -3.240467  11.538377   3.414494   0.003780   0.503772   0.007504
 604   9  -3.973175  12.266432   4.819498   0.002471   0.503772   0.004905
 605  21  -1.751093  11.612242   3.966420  -0.000634   0.233695  -0.002713
 606   9  -3.118181  12.297849   5.414668   0.002136   0.305830   0.006985
 607  11  -6.065587   4.561792   7.355046  -0.001414   0.348493  -0.004057
 608  17  -5.345047   3.431800   7.188448   0.004306   0.348493   0.012355
 609  20  -5.678998   4.159993   6.464133  -0.001922   0.348493  -0.005516
 610  17  -4.822473   3.194123  10.207428   0.003936   0.367724   0.010704
 611  17  -5.435168   2.841885   9.110311   0.009089   0.731340   0.012428
 612  17  -5.628740   2.834601   7.819726   0.004258   0.367724   0.011578
 613  11  -6.131500   4.685724   9.833622  -0.001146   0.569194  -0.002014
 614  11  -6.586493   4.482838   8.486193  -0.001752   0.569194  -0.003077
 615  20  -6.260907   4.489027   5.976758  -0.001179   0.233784  -0.005044
 616  20  -6.632957   5.359395   5.441013  -0.002747   0.467492  -0.005877
 617  11  -7.039001   5.314475   7.016528  -0.002283   0.467492  -0.004884
 618  11  -7.335867   6.225192   6.501309  -0.000668   0.233784  -0.002859
 619  19  -5.802189   8.262816   2.567772   0.002539   0.334255   0.007595
 620  19  -5.391568   9.567570   2.176023   0.007763   0.663590   0.011698
 621  19  -4.384461  10.933013   2.543636   0.007435   0.663590   0.011204
 622  12  -6.653192   9.402701   3.393785  -0.008444   0.537168  -0.015720
 623  12  -5.995011  10.827526   3.248492  -0.007065   0.537168  -0.013153
 624  12  -5.156297  11.682970   3.758603  -0.002052   0.267114  -0.007682
 625  20  -6.663012   6.431508   4.538591  -0.001103   0.261652  -0.004216
 626  20  -6.371350   6.707657   3.821570  -0.000894   0.261652  -0.003416
 627  12  -7.168153   8.130462   4.516434  -0.006586   0.522847  -0.012596
 628  16   4.833696   3.704143  12.488951  -0.000613   0.083244  -0.007361
 629  16   4.322589   3.219320  13.505419  -0.001798   0.180780  -0.009948
 630  16   3.689291   2.044446  14.188054  -0.002200   0.180780  -0.012169
 631  16   3.281980   0.620547  13.955682  -0.002200   0.180780  -0.012172
 632  16   3.272893  -0.450272  12.906562  -0.001909   0.180780  -0.010557
 633  16   3.665870  -0.715207  11.484323  -0.001765   0.180780  -0.009763
 634  13   4.301795   3.846284  12.843076  -0.000691   0.178178  -0.003877
 635  13   3.601200   2.928823  13.982308  -0.000891   0.178178  -0.004999
 636  13   3.005959   1.442293  14.239864  -0.001451   0.178178  -0.008144
 637  13   2.767775   0.015285  13.506835  -0.001239   0.178178  -0.006954
 638  13   2.987364  -0.748783  12.093188  -0.000778   0.178178  -0.004369
 639  13   3.419251  -0.727783  10.843763  -0.000401   0.095312  -0.004204
 640  17  -0.640183  -0.746294   9.442612   0.003178   0.349276   0.009100
 641  17  -1.557108  -0.085376  10.629344   0.012536   0.699098   0.017931
 642  17  -2.222409   1.608357  11.429839   0.012093   0.699098   0.017297
 643  13   0.153387  -0.492521  10.782351   0.011898   0.699098   0.017019
 644  13  -0.827770   0.706933  12.027658   0.013597   0.699098   0.019449
 645  13  -1.172575   2.263155  12.408686   0.005347   0.349276   0.015309
 646  14   1.293867  -0.204095   5.953884  -0.003118   0.278544  -0.011195
 647  18   0.219225  -0.407615   5.782412  -0.004714   0.278544  -0.016922
 648  22   0.598512  -0.123064   5.038377  -0.001043   0.278544  -0.003744
 649  18   0.107037  -0.919341   6.329788  -0.002937   0.264700  -0.011097
 650  18   0.009774  -1.094146   7.198768  -0.002371   0.264700  -0.008958
 651  14   1.594125  -0.760964   6.985609  -0.002894   0.529256  -0.005468
 652  14   1.781126  -0.056219   5.385266  -0.001358   0.108931  -0.012470
 653  22   1.095006  -0.047146   4.471197  -0.000689   0.108931  -0.006324
 654  23   1.386878  -0.031209   4.327135  -0.001448   0.108931  -0.013296
 655  22   0.933731  -0.287224   4.594553   0.000127   0.059249   0.002142
 656  14   1.913689  -0.433450   5.922722  -0.000303   0.046944  -0.006453
 657  23   3.699871   1.786918   3.735080  -0.003639   0.260875  -0.013950
 658  23   3.268150   0.748685   3.755028  -0.007516   0.521485  -0.014412
 659  23   2.196564  -0.055159   4.045730  -0.006053   0.521485  -0.011606
 660  14   4.121899   1.175159   5.235569  -0.003432   0.521485  -0.006582
 661  14   3.356068   0.046015   5.367881  -0.003704   0.521485  -0.007103
 662  14   2.372292  -0.404875   5.673810  -0.001521   0.260875  -0.005829
 663  24   3.220376   7.252734   6.122299  -0.001553   0.238134  -0.006520
 664  24   3.892395   6.540930   5.556526  -0.003612   0.476300  -0.007583
 665  24   4.196343   5.553574   5.097053  -0.001325   0.238134  -0.005563
 666  15   4.136410   6.624426   7.138292  -0.002997   0.476300  -0.006291
 667  15   4.745212   5.564501   6.498749  -0.002630   0.476300  -0.005521
 668  17  -3.903640   1.331822   5.355774  -0.000281   0.079808  -0.003521
 669  18  -3.755711   1.085671   5.204058  -0.000740   0.079808  -0.009276
 670  22  -3.521541   1.476920   4.461957   0.000518   0.079808   0.006485
 671  18  -1.052570  -1.158598   8.170276  -0.000865   0.079261  -0.010911
 672  18  -2.220574  -1.296447   8.096815  -0.002044   0.170591  -0.011983
 673  18  -3.480628  -0.956873   7.507594  -0.002333   0.170591  -0.013677
 674  18  -4.114942  -0.129874   6.525787  -0.002120   0.170591  -0.012426
 675  18  -4.053900   0.689653   5.681228  -0.000752   0.079261  -0.009482
 676  17  -1.526761  -1.063287   8.588728  -0.000975   0.170612  -0.005714
 677  17  -3.042628  -1.028018   8.269705  -0.001329   0.170612  -0.007791
 678  17  -4.120372  -0.364332   7.375915  -0.001481   0.170612  -0.008678
 679  17  -4.348257   0.674221   6.248817  -0.001017   0.170612  -0.005963
 680  17  -4.031976   1.960682   5.178181   0.000960   0.268924   0.003571
 681  20  -4.356770   2.769951   4.548022  -0.000813   0.268924  -0.003023
 682  22  -3.717156   2.083953   4.245229   0.001957   0.268924   0.007279
 683  20  -5.112318   3.060727   4.861119  -0.001401   0.310301  -0.004515
 684  20  -5.653476   3.606876   5.731803  -0.001213   0.310301  -0.003910
 685  17  -4.951238   2.222018   6.262132   0.008010   0.769266   0.010413
 686  22  -3.646901   1.609629   4.033716   0.000098   0.006799   0.014458
 687  17  -4.113988   1.427829   5.343449   0.000043   0.006799   0.006366
 688  22   0.072571  -0.473719   4.409546   0.001044   0.253805   0.004113
 689  22  -1.141759  -0.507917   3.888148   0.004270   0.502971   0.008489
 690  22  -2.596671   0.176849   3.662461   0.005630   0.502971   0.011194
 691  22  -3.436184   1.177705   3.865268   0.002712   0.253805   0.010686
 692  18  -0.872967  -0.875284   5.299326  -0.006471   0.416944  -0.015521
 693  18  -2.264517  -0.652606   4.845808  -0.005981   0.416944  -0.014345
 694  18  -3.388587   0.308713   4.909102  -0.004318   0.416944  -0.010355
 695  20  -5.799015   6.362842   3.063918  -0.001040   0.182608  -0.005698
 696  20  -5.345635   5.714225   2.536128  -0.000868   0.182608  -0.004756
 697  19  -5.222824   6.818559   2.141654   0.002181   0.439583   0.004961
 698  21   0.555860   8.300251   1.153445  -0.000940   0.082250  -0.011429
 699  21  -0.060478   9.243446   0.683400  -0.002243   0.178141  -0.012593
 700  21  -0.882047  10.458075   0.889988  -0.002535   0.178141  -0.014233
 701  21  -1.485805  11.304495   1.944515  -0.002270   0.178141  -0.012743
 702  21  -1.677104  11.529161   3.129151  -0.000860   0.082250  -0.010454
 703  19   0.036804   8.348062   0.763723  -0.001048   0.176351  -0.005945
 704  19  -0.833043   9.660449   0.466883  -0.001489   0.176351  -0.008441
 705  19  -1.647094  10.837583   1.187148  -0.001628   0.176351  -0.009233
 706  19  -2.070512  11.395282   2.628256  -0.001114   0.176351  -0.006319
 707  22  -2.627154   4.013737   0.964978   0.003946   0.356888   0.011056
 708  22  -1.226639   4.459008   0.530610   0.008753   0.713208   0.012273
 709  22   0.198393   4.968059   0.772551   0.002603   0.356888   0.007293
 710  19  -2.626190   5.704336   0.633832   0.008556   0.713208   0.011997
 711  19  -0.863495   6.299683   0.513788   0.008251   0.713208   0.011569
 712  22  -3.826703   2.197448   3.307800   0.003778   0.390661   0.009670
 713  22  -3.663025   2.974164   2.204196   0.004001   0.390661   0.010242
 714  20  -4.631180   3.547687   3.301517  -0.003368   0.639928  -0.005263
 715  24   2.121899   7.057976   2.455807  -0.001487   0.260638  -0.005704
 716  24   2.481467   7.770141   3.372849  -0.004525   0.521428  -0.008678
 717  24   2.377180   8.256208   4.482038  -0.002023   0.260638  -0.007761
 718  21   1.515940   8.448162   2.231021  -0.006916   0.521428  -0.013263
 719  21   1.675092   9.195185   3.494249  -0.008782   0.521428  -0.016842
 720  23   1.110677  -0.267866   3.584226  -0.001117   0.084453  -0.013222
 721  23   0.781154  -0.220768   2.376069  -0.002634   0.183867  -0.014323
 722  23   0.721426   0.569977   1.081658  -0.002635   0.183867  -0.014331
 723  23   1.088728   1.922001   0.497307  -0.002309   0.183867  -0.012559
 724  23   1.723413   3.247653   0.877000  -0.002178   0.183867  -0.011844
 725  22   0.538316  -0.311451   3.259948  -0.001307   0.180504  -0.007242
 726  22   0.240100   0.076136   1.692298  -0.001892   0.180504  -0.010481
 727  22   0.416313   1.303759   0.615927  -0.001631   0.180504  -0.009038
 728  22   0.990366   2.837839   0.498676  -0.001138   0.180504  -0.006303
 729  22   1.576224   3.891513   1.082874  -0.000532   0.096696  -0.005505
 730  24   3.616141   4.400850   3.722932  -0.001768   0.207741  -0.008510
 731  24   3.160641   4.885380   2.856151  -0.003712   0.415656  -0.008930
 732  23   3.334735   3.439372   2.808612  -0.007028   0.415656  -0.016909
 733  23   2.802796   3.913430   1.980439  -0.002393   0.207741  -0.011519
 =====================================================

              7617189  WORDS OF DYNAMIC MEMORY USED
 EXECUTION OF GAMESS TERMINATED NORMALLY Wed Nov 23 20:51:47 2016
 DDI: 263640 bytes (0.3 MB / 0 MWords) used by master data server.

 ----------------------------------------
 CPU timing information for all processes
 ========================================
 0: 7345.784 + 2.00 = 7347.784
 ----------------------------------------
 ddikick.x: exited gracefully.
