----- GAMESS execution script -----

          ******************************************************
          *         GAMESS VERSION =  5 DEC 2014 (R1)          *
          *             FROM IOWA STATE UNIVERSITY             *
          * M.W.SCHMIDT, K.K.BALDRIDGE, J.A.BOATZ, S.T.ELBERT, *
          *   M.S.GORDON, J.H.JENSEN, S.KOSEKI, N.MATSUNAGA,   *
          *          K.A.NGUYEN, S.J.SU, T.L.WINDUS,           *
          *       TOGETHER WITH M.DUPUIS, J.A.MONTGOMERY       *
          *         J.COMPUT.CHEM.  14, 1347-1363(1993)        *
          **************** 64 BIT LINUX VERSION ****************

 EXECUTION OF GAMESS BEGUN Wed Nov 23 18:54:23 2016

            ECHO OF THE FIRST FEW INPUT CARDS -
 INPUT CARD>! SELECT RESTRICTED HARTREE-FOCK AS DEFAULT                                     
 INPUT CARD>$contrl scftyp=rhf $end                                                         
 INPUT CARD>                                                                                
 INPUT CARD>! THEORY: HF OR DFT                                                             
 INPUT CARD> $contrl mplevl=0 $end                                                          
 INPUT CARD>                                                                                
 INPUT CARD> $system timlim=10000 mwords=20 $end                                            
 INPUT CARD> $SCF DIRSCF=.TRUE. $end                                                        
 INPUT CARD>                                                                                
 INPUT CARD>                                                                                
 INPUT CARD>! BASIS SETS                                                                    
 INPUT CARD>! 6-311G(d,p)                                                                   
 INPUT CARD> $BASIS GBASIS=N311 NGAUSS=6 NDFUNC=1 NPFUNC=1 $END                             
 INPUT CARD>                                                                                
 INPUT CARD>! One of the following                                                          
 INPUT CARD> $guess guess=HUCKEL $end                                                       
 INPUT CARD>                                                                                
 INPUT CARD> $statpt projct=.FALSE. $end                                                    
 INPUT CARD> $STATPT IFREEZ(1)=1,2,3 $END                                                   
 INPUT CARD>                                                                                
 INPUT CARD>! Optimize the geometry with COSMO effects                                      
 INPUT CARD> $statpt opttol=0.0005 nstep=50 $end                                            
 INPUT CARD> $contrl nzvar=1 $end                                                           
 INPUT CARD> $zmat dlc=.t. auto=.t. $end                                                    
 INPUT CARD> $contrl runtyp=OPTIMIZE maxit=200 $end                                         
 INPUT CARD>                                                                                
 INPUT CARD>! Run COSMO on perfect conductor                                                
 INPUT CARD> $COSGMS PRFCND=.TRUE. $end                                                     
 INPUT CARD>                                                                                
 INPUT CARD>! Specifying RSOLV                                                              
 INPUT CARD> $COSGMS COSRAD = 1.4 $end                                                      
 INPUT CARD>                                                                                
 INPUT CARD>! available memory                                                              
 INPUT CARD> $SYSTEM MWORDS=40 $END                                                         
 INPUT CARD>                                                                                
 INPUT CARD> $DATA                                                                          
 INPUT CARD>                                                                                
 INPUT CARD>C1                                                                              
 INPUT CARD>O      8.0     -0.7912000000    1.1072000000   -0.6341000000                    
 INPUT CARD>C      6.0     -2.0610000000    1.1203000000    0.0028000000                    
 INPUT CARD>C      6.0     -2.4380000000   -0.2763000000    0.5198000000                    
 INPUT CARD>H      1.0     -2.8222000000    1.4461000000   -0.7371000000                    
 INPUT CARD>H      1.0     -2.0893000000    1.8722000000    0.8225000000                    
 INPUT CARD>C      6.0     -1.3601000000   -0.7220000000    1.5208000000                    
 INPUT CARD>C      6.0      0.0283000000   -0.6494000000    0.8572000000                    
 INPUT CARD>C      6.0      0.2589000000    0.7756000000    0.2760000000                    
 INPUT CARD>C      6.0      1.5911000000    0.7979000000   -0.4997000000                    
 INPUT CARD>O      8.0     -2.5047000000   -1.1803000000   -0.5543000000                    
 INPUT CARD>H      1.0     -3.4207000000   -0.2448000000    1.0454000000                    
 INPUT CARD>H      1.0     -3.3679000000   -1.0137000000   -1.0158000000                    
   40000000 WORDS OF MEMORY AVAILABLE

     BASIS OPTIONS
     -------------
     GBASIS=N311         IGAUSS=       6      POLAR=POPN311 
     NDFUNC=       1     NFFUNC=       0     DIFFSP=       F
     NPFUNC=       1      DIFFS=       F     BASNAM=        


     RUN TITLE
     ---------
                                                                                 

 THE POINT GROUP OF THE MOLECULE IS C1      
 THE ORDER OF THE PRINCIPAL AXIS IS     0

 ATOM      ATOMIC                      COORDINATES (BOHR)
           CHARGE         X                   Y                   Z
 O           8.0    -1.4951512015        2.0923046136       -1.1982752488
 C           6.0    -3.8947252607        2.1170600240        0.0052912328
 C           6.0    -4.6071519581       -0.5221312904        0.9822795684
 H           1.0    -5.3331846825        2.7327327508       -1.3929170255
 H           1.0    -3.9482045061        3.5379449942        1.5542996249
 C           6.0    -2.5702163159       -1.3643821631        2.8738952821
 C           6.0     0.0534792455       -1.2271880564        1.6198731167
 C           6.0     0.4892500582        1.4656714761        0.5215643726
 C           6.0     3.0067430191        1.5078123656       -0.9442960761
 O           8.0    -4.7331966814       -2.2304435833       -1.0474751150
 H           1.0    -6.4641856862       -0.4626049218        1.9755195476
 H           1.0    -6.3644081540       -1.9156152338       -1.9195836583
 O           8.0    -3.0793084970       -3.7898454684        3.8348209469
 H           1.0    -2.5938378907       -0.0268341090        4.4971699056
 H           1.0    -2.9082882951       -5.0191122234        2.4282978942
 O           8.0     1.9163711241       -1.8317113999        3.4164356132
 H           1.0     0.0742662313       -2.6225617258        0.0342040404
 H           1.0     3.2178254119       -2.8657694604        2.5467837137
 O           8.0     0.6234206033        3.2342660280        2.5139024815
 H           1.0     0.5378160161        4.9499482522        1.7591459220
 O           8.0     3.4037744491        3.9037959454       -2.0006529032
 H           1.0     4.5933569584        1.0516325122        0.3594258829
 H           1.0     2.9288863084        0.0772897929       -2.4861235094
 H           1.0     5.0323403053        3.8032625229       -2.9251068564

          INTERNUCLEAR DISTANCES (ANGS.)




     $CONTRL OPTIONS
     ---------------
 SCFTYP=RHF          RUNTYP=OPTIMIZE     EXETYP=RUN     
 MPLEVL=       0     CITYP =NONE         CCTYP =NONE         VBTYP =NONE    
 DFTTYP=NONE         TDDFT =NONE    
 MULT  =       1     ICHARG=       0     NZVAR =       1     COORD =UNIQUE  
 PP    =NONE         RELWFN=NONE         LOCAL =NONE         NUMGRD=       F
 ISPHER=      -1     NOSYM =       0     MAXIT =     200     UNITS =ANGS    
 PLTORB=       F     MOLPLT=       F     AIMPAC=       F     FRIEND=        
 NPRINT=       7     IREST =       0     GEOM  =INPUT   
 NORMF =       0     NORMP =       0     ITOL  =      20     ICUT  =       9
 INTTYP=BEST         GRDTYP=BEST         QMTTOL= 1.0E-06

     $SYSTEM OPTIONS
     ---------------
  REPLICATED MEMORY=    40000000 WORDS (ON EVERY NODE).
 DISTRIBUTED MEMDDI=           0 MILLION WORDS IN AGGREGATE,
 MEMDDI DISTRIBUTED OVER   1 PROCESSORS IS           0 WORDS/PROCESSOR.
 TOTAL MEMORY REQUESTED ON EACH PROCESSOR=    40000000 WORDS.
 TIMLIM=       10000.00 MINUTES, OR       6.9 DAYS.
 PARALL= F  BALTYP=  DLB     KDIAG=    0  COREFL= F
 MXSEQ2=     300 MXSEQ3=     150  mem10=         0

     $COSGMS OPTIONS
     ---------------
     EPSI  =   INFTY     NSPA  =      92     COSRAD=    1.40
     DISEX =   10.00     OUTCHG=DBLCAV       COSBUG=       F
     COSWRT=       F     DCOSMO=       F

     SYMMETRY COORDINATES WILL NOT BE USED FOR 
     THE COSMO CALCULATION, EVEN IF SPECIFIED:
         -- SWITCHING TO C1 POINT GROUP --


     DEFINITION OF CAVITY
     ---------------------------
     ATOM         COORDINATES           RADIUS 
     1   -1.4952    2.0923   -1.1983    1.7200
     2   -3.8947    2.1171    0.0053    2.0000
     3   -4.6072   -0.5221    0.9823    2.0000
     4   -5.3332    2.7327   -1.3929    1.3000
     5   -3.9482    3.5379    1.5543    1.3000
     6   -2.5702   -1.3644    2.8739    2.0000
     7    0.0535   -1.2272    1.6199    2.0000
     8    0.4893    1.4657    0.5216    2.0000
     9    3.0067    1.5078   -0.9443    2.0000
    10   -4.7332   -2.2304   -1.0475    1.7200
    11   -6.4642   -0.4626    1.9755    1.3000
    12   -6.3644   -1.9156   -1.9196    1.3000
    13   -3.0793   -3.7898    3.8348    1.7200
    14   -2.5938   -0.0268    4.4972    1.3000
    15   -2.9083   -5.0191    2.4283    1.3000
    16    1.9164   -1.8317    3.4164    1.7200
    17    0.0743   -2.6226    0.0342    1.3000
    18    3.2178   -2.8658    2.5468    1.3000
    19    0.6234    3.2343    2.5139    1.7200
    20    0.5378    4.9499    1.7591    1.3000
    21    3.4038    3.9038   -2.0007    1.7200
    22    4.5934    1.0516    0.3594    1.3000
    23    2.9289    0.0773   -2.4861    1.3000
    24    5.0323    3.8033   -2.9251    1.3000

          ----------------
          PROPERTIES INPUT
          ----------------

     MOMENTS            FIELD           POTENTIAL          DENSITY
 IEMOM =       1   IEFLD =       0   IEPOT =       0   IEDEN =       0
 WHERE =COMASS     WHERE =NUCLEI     WHERE =NUCLEI     WHERE =NUCLEI  
 OUTPUT=BOTH       OUTPUT=BOTH       OUTPUT=BOTH       OUTPUT=BOTH    
 IEMINT=       0   IEFINT=       0                     IEDINT=       0
                                                       MORB  =       0
          EXTRAPOLATION IN EFFECT
          SOSCF IN EFFECT
 ORBITAL PRINTING OPTION: NPREO=     1   300     2     1

     -------------------------------
     INTEGRAL TRANSFORMATION OPTIONS
     -------------------------------
     NWORD  =            0
     CUTOFF = 1.0E-09     MPTRAN =       0
     DIRTRF =       T     AOINTS =DUP     

          ----------------------
          INTEGRAL INPUT OPTIONS
          ----------------------
 NOPK  =       1 NORDER=       0 SCHWRZ=       T


 -----------------------------------------------
  STATISTICS ON AUTOMATIC COORDINATE GENERATION 
 -----------------------------------------------
  NUMBER OF USER SPECIFIED BONDS                             0
  NUMBER OF BONDS                                           24
  NUMBER OF ANGLES                                          42
  NUMBER OF TORSIONS                                        66
  NUMBER OF EXTRA COORD.                                     0
  NUMBER OF EXTRA COORD. FOR CONSTRAINTS                     0
  NUMBER OF CONSTRAINED COORD.                               0

  TOTAL NUMBER OF PRIMITIVES                               132
 -----------------------------------------------

   --- ENCODED Z MATRIX ---
 COORD  TYPE   I   J   K   L   M   N
    1      1    1   2
    2      1    1   8
    3      1    2   3
    4      1    2   5
    5      1    2   4
    6      1    3  11
    7      1    3  10
    8      1    3   6
    9      1    6  14
   10      1    6  13
   11      1    6   7
   12      1    7   8
   13      1    7  17
   14      1    7  16
   15      1    8  19
   16      1    8   9
   17      1    9  22
   18      1    9  21
   19      1    9  23
   20      1   10  12
   21      1   13  15
   22      1   16  18
   23      1   19  20
   24      1   21  24
   25      2    1   8   9
   26      2    1   2   4
   27      2    1   8   7
   28      2    1   2   5
   29      2    1   2   3
   30      2    1   8  19
   31      2    2   3  11
   32      2    2   3   6
   33      2    2   3  10
   34      2    2   1   8
   35      2    3   2   4
   36      2    3   6   7
   37      2    3   6  14
   38      2    3  10  12
   39      2    3   2   5
   40      2    3   6  13
   41      2    4   2   5
   42      2    6   3  11
   43      2    6   7  17
   44      2    6   7   8
   45      2    6  13  15
   46      2    6   3  10
   47      2    6   7  16
   48      2    7   8  19
   49      2    7   8   9
   50      2    7   6  13
   51      2    7   6  14
   52      2    7  16  18
   53      2    8   7  16
   54      2    8   7  17
   55      2    8   9  23
   56      2    8   9  21
   57      2    8   9  22
   58      2    8  19  20
   59      2    9  21  24
   60      2    9   8  19
   61      2   10   3  11
   62      2   13   6  14
   63      2   16   7  17
   64      2   21   9  23
   65      2   21   9  22
   66      2   22   9  23
   67      3    1   8   9  21
   68      3    1   8   7   6
   69      3    1   2   3   6
   70      3    1   2   3  10
   71      3    1   2   3  11
   72      3    1   8   9  22
   73      3    1   8   7  16
   74      3    1   8   7  17
   75      3    1   8  19  20
   76      3    1   8   9  23
   77      3    2   1   8  19
   78      3    2   3  10  12
   79      3    2   1   8   9
   80      3    2   1   8   7
   81      3    2   3   6   7
   82      3    2   3   6  13
   83      3    2   3   6  14
   84      3    3   6  13  15
   85      3    3   2   1   8
   86      3    3   6   7  16
   87      3    3   6   7  17
   88      3    3   6   7   8
   89      3    4   2   3  10
   90      3    4   2   3   6
   91      3    4   2   1   8
   92      3    4   2   3  11
   93      3    5   2   3  10
   94      3    5   2   3   6
   95      3    5   2   1   8
   96      3    5   2   3  11
   97      3    6   3  10  12
   98      3    6   7  16  18
   99      3    6   7   8   9
  100      3    6   7   8  19
  101      3    7   8   9  23
  102      3    7   8   9  21
  103      3    7   8   9  22
  104      3    7   8  19  20
  105      3    7   6   3  10
  106      3    7   6   3  11
  107      3    7   6  13  15
  108      3    8   9  21  24
  109      3    8   7  16  18
  110      3    8   7   6  13
  111      3    8   7   6  14
  112      3    9   8  19  20
  113      3    9   8   7  16
  114      3    9   8   7  17
  115      3   10   3   6  13
  116      3   10   3   6  14
  117      3   11   3   6  13
  118      3   11   3  10  12
  119      3   11   3   6  14
  120      3   13   6   7  17
  121      3   13   6   7  16
  122      3   14   6   7  17
  123      3   14   6   7  16
  124      3   14   6  13  15
  125      3   16   7   8  19
  126      3   17   7  16  18
  127      3   17   7   8  19
  128      3   19   8   9  22
  129      3   19   8   9  21
  130      3   19   8   9  23
  131      3   22   9  21  24
  132      3   23   9  21  24

          INDEP./SYM. INTERNAL COORDINATES
          --------------------------------
 CRD  1=   0.1327 (  1) -0.1239 ( 11) -0.1983 ( 12)  0.2616 ( 25) -0.1077 ( 29)
          -0.1300 ( 30)  0.1607 ( 48) -0.4298 ( 49) -0.1176 ( 55)  0.4168 ( 56)
          -0.1415 ( 57) -0.1750 ( 59)  0.1194 ( 60) -0.1005 ( 64) -0.1065 ( 65)
          -0.3233 ( 79) -0.1197 (104)  0.2358 (112)
 CRD  2=   0.1832 (  1)  0.1634 (  2) -0.1131 (  8)  0.1076 ( 12)  0.1531 ( 16)
           0.2438 ( 25) -0.1275 ( 28)  0.1672 ( 29) -0.1216 ( 32) -0.1089 ( 34)
           0.1704 ( 36) -0.1040 ( 38) -0.1362 ( 40)  0.1117 ( 43) -0.1439 ( 51)
           0.1496 ( 55) -0.1160 ( 57) -0.1138 ( 58) -0.2252 ( 60) -0.1198 ( 70)
           0.1663 ( 79) -0.3258 ( 99) -0.1247 (100)  0.1326 (102)  0.1563 (105)
          -0.1139 (107) -0.1812 (108) -0.2112 (113) -0.1991 (114)  0.1216 (129)
 CRD  3=   0.1027 (  8) -0.1689 ( 11) -0.1093 ( 15) -0.2013 ( 16)  0.1150 ( 27)
          -0.1626 ( 30) -0.2156 ( 33) -0.1471 ( 34) -0.1255 ( 37) -0.2011 ( 38)
           0.1534 ( 40)  0.2783 ( 46)  0.1059 ( 48) -0.1811 ( 50)  0.1506 ( 52)
           0.1176 ( 53) -0.2723 ( 56) -0.1820 ( 58)  0.1217 ( 65) -0.1200 ( 67)
          -0.1083 ( 70) -0.1173 ( 72)  0.1142 ( 80)  0.1210 ( 82) -0.1517 ( 85)
          -0.1138 ( 86) -0.1148 ( 87) -0.1712 ( 88) -0.1171 ( 89)
 CRD  4=  -0.1532 (  1) -0.3692 ( 12) -0.3776 ( 16) -0.1206 ( 18) -0.1106 ( 24)
           0.1196 ( 27)  0.1179 ( 33) -0.1191 ( 44)  0.1890 ( 47) -0.1511 ( 49)
          -0.1768 ( 52) -0.1676 ( 53) -0.2663 ( 56)  0.1501 ( 64)  0.1228 ( 65)
          -0.1277 ( 68) -0.1774 ( 73)  0.1072 ( 85)  0.1630 ( 98) -0.1248 ( 99)
           0.1314 (102) -0.1069 (104)  0.1206 (110) -0.1745 (113)
 CRD  5=  -0.2058 (  8) -0.1536 ( 11)  0.1035 ( 12) -0.1756 ( 16) -0.1014 ( 20)
           0.1294 ( 25) -0.1225 ( 27)  0.1024 ( 28) -0.1555 ( 29)  0.1663 ( 32)
           0.1189 ( 38) -0.1378 ( 45) -0.2214 ( 46) -0.1110 ( 47)  0.2905 ( 48)
          -0.1254 ( 52)  0.1345 ( 53) -0.2084 ( 56) -0.2390 ( 58) -0.2140 ( 60)
           0.1546 ( 70) -0.2204 ( 77)  0.1457 ( 86)  0.1040 ( 93) -0.1279 ( 98)
          -0.1081 (101) -0.1210 (103) -0.1380 (110)  0.1080 (129)
 CRD  6=  -0.2162 (  8) -0.2635 ( 10) -0.2315 ( 11)  0.1030 ( 14)  0.1421 ( 33)
           0.2028 ( 36) -0.1909 ( 40) -0.1805 ( 44) -0.3737 ( 45) -0.1358 ( 46)
          -0.1244 ( 47) -0.1135 ( 48)  0.1665 ( 52)  0.2334 ( 53)  0.1269 ( 58)
           0.1748 ( 60)  0.1490 ( 62)  0.1833 ( 77)  0.1190 ( 86) -0.1529 (109)
          -0.1312 (110)  0.1573 (113)  0.1441 (115)
 CRD  7=   0.2327 (  1)  0.1616 (  2)  0.1169 (  8) -0.1434 ( 10) -0.1823 ( 11)
          -0.1498 ( 12)  0.1169 ( 16)  0.1202 ( 30) -0.1145 ( 32)  0.1821 ( 40)
          -0.1401 ( 43)  0.1334 ( 44) -0.1975 ( 45) -0.1007 ( 48)  0.1304 ( 49)
          -0.3203 ( 50)  0.1003 ( 51) -0.1098 ( 53) -0.1542 ( 56) -0.1154 ( 60)
           0.1177 ( 73) -0.1222 ( 75) -0.1461 ( 80)  0.1517 ( 82)  0.1077 ( 88)
           0.1320 (100) -0.1146 (106)  0.1620 (110)  0.1589 (115)  0.1231 (117)
           0.1277 (124)  0.1498 (125)
 CRD  8=  -0.1318 (  1) -0.2537 ( 11)  0.1551 ( 12) -0.1566 ( 14)  0.1487 ( 32)
          -0.1169 ( 36)  0.2806 ( 40)  0.1852 ( 45) -0.2002 ( 47) -0.1032 ( 48)
          -0.1494 ( 50) -0.1990 ( 52)  0.1832 ( 53)  0.1884 ( 56) -0.1242 ( 57)
          -0.1433 ( 68)  0.1295 ( 77)  0.1045 ( 79)  0.1061 ( 85)  0.1133 ( 95)
          -0.1670 ( 99) -0.1815 (100)  0.1146 (102) -0.1412 (109)  0.1706 (110)
           0.2546 (121)  0.1047 (123)  0.1399 (124)
 CRD  9=   0.1782 (  2) -0.3109 (  3) -0.2824 (  7) -0.1121 ( 10)  0.1181 ( 15)
           0.1388 ( 26) -0.1030 ( 27)  0.1130 ( 30)  0.1589 ( 32) -0.2406 ( 33)
          -0.1631 ( 35) -0.3988 ( 38) -0.1765 ( 45) -0.2014 ( 52)  0.1873 ( 58)
          -0.1314 ( 70) -0.1371 ( 73)  0.1387 ( 78)  0.1933 ( 91) -0.1218 ( 93)
          -0.1324 (105) -0.1079 (113)
 CRD 10=  -0.1149 (  1) -0.3136 (  2) -0.1092 (  3) -0.1516 (  5) -0.3421 (  8)
          -0.1602 ( 11) -0.1707 ( 12) -0.3332 ( 14)  0.1126 ( 16) -0.1646 ( 22)
          -0.1222 ( 26)  0.1792 ( 29)  0.1045 ( 31) -0.1331 ( 32) -0.1482 ( 34)
           0.1499 ( 44) -0.1395 ( 45)  0.1221 ( 46)  0.1040 ( 49) -0.3322 ( 52)
          -0.1081 ( 53)  0.1417 ( 69) -0.1213 ( 80)  0.1036 ( 94)  0.1021 (104)
 CRD 11=   0.2447 (  3)  0.1589 ( 10) -0.1460 ( 11)  0.1292 ( 12)  0.3406 ( 15)
          -0.2206 ( 16)  0.1253 ( 23) -0.1668 ( 28)  0.1071 ( 30)  0.1050 ( 31)
          -0.1283 ( 38)  0.1134 ( 39)  0.1100 ( 44)  0.1639 ( 45) -0.1174 ( 47)
          -0.1005 ( 51)  0.4013 ( 58) -0.1005 ( 77)  0.1472 ( 81) -0.1265 (102)
           0.1758 (105)  0.1190 (115)  0.1123 (125)
 CRD 12=  -0.1227 (  3)  0.2279 (  7)  0.2217 (  8) -0.1710 ( 10)  0.1021 ( 11)
           0.1897 ( 12)  0.1418 ( 20)  0.1326 ( 22)  0.1012 ( 29) -0.1730 ( 32)
           0.2115 ( 38) -0.1506 ( 44) -0.1809 ( 45)  0.1136 ( 46)  0.1539 ( 47)
           0.1139 ( 48) -0.1050 ( 50) -0.2957 ( 52)  0.1152 ( 54)  0.1146 ( 56)
          -0.1948 ( 63) -0.1097 ( 67) -0.1303 ( 73) -0.1107 ( 85)  0.1786 ( 86)
          -0.1190 ( 95) -0.1294 (102) -0.1095 (113)  0.1680 (121)  0.1230 (123)
          -0.1222 (125)
 CRD 13=   0.1397 (  3) -0.1080 ( 14)  0.1418 ( 15)  0.3920 ( 16)  0.1465 ( 17)
           0.1309 ( 18) -0.1018 ( 29) -0.1752 ( 30) -0.1659 ( 49) -0.2164 ( 52)
           0.1018 ( 55) -0.2837 ( 56)  0.1667 ( 57)  0.1462 ( 58)  0.3314 ( 59)
           0.1915 ( 60)  0.1054 ( 65) -0.1545 ( 66) -0.1000 ( 67)  0.1303 ( 77)
          -0.1462 (100) -0.1041 (102)  0.1581 (112) -0.1849 (125) -0.1142 (127)
 CRD 14=   0.3579 (  3) -0.1999 (  7)  0.1505 ( 11) -0.1862 ( 15) -0.1157 ( 26)
           0.1867 ( 35) -0.2697 ( 38)  0.1611 ( 39) -0.1752 ( 45)  0.1298 ( 47)
          -0.1223 ( 52) -0.1115 ( 55)  0.1445 ( 56) -0.2849 ( 58) -0.1053 ( 73)
           0.1155 ( 79)  0.1659 ( 82)  0.1212 ( 83) -0.1368 ( 90) -0.1034 ( 91)
           0.1294 ( 95)  0.1810 (115)  0.1363 (116)
 CRD 15=   0.1314 ( 16) -0.4818 ( 18) -0.2030 ( 24)  0.2260 ( 55) -0.1509 ( 56)
           0.2673 ( 57) -0.6206 ( 59) -0.1185 ( 64) -0.1080 ( 65) -0.1177 ( 66)
          -0.1081 ( 72) -0.1323 (131)  0.1473 (132)
 CRD 16=   0.1071 (  3)  0.2801 (  7)  0.1007 (  8)  0.1352 ( 20) -0.2326 ( 28)
          -0.1987 ( 33) -0.1421 ( 35)  0.4006 ( 38)  0.3356 ( 39) -0.1110 ( 42)
          -0.2189 ( 45)  0.1046 ( 55) -0.1321 ( 57)  0.1220 ( 77)  0.1390 ( 79)
           0.1209 ( 81)  0.1075 ( 82)  0.1897 ( 95) -0.1054 (121) -0.1078 (123)
 CRD 17=   0.1874 (  2) -0.1019 (  3)  0.1366 (  8) -0.1354 ( 11) -0.1870 ( 12)
          -0.1600 ( 14) -0.2177 ( 15)  0.1061 ( 17) -0.1272 ( 19) -0.1175 ( 22)
          -0.1503 ( 23)  0.1447 ( 26) -0.1034 ( 35)  0.1022 ( 37)  0.1968 ( 45)
          -0.1065 ( 47) -0.1481 ( 51) -0.1775 ( 52) -0.3532 ( 55)  0.2594 ( 57)
          -0.2968 ( 58)  0.1277 ( 64) -0.1164 ( 65) -0.1174 ( 70)  0.2435 (108)
 CRD 18=  -0.1755 (  8)  0.1396 ( 10) -0.1013 ( 19)  0.1348 ( 21) -0.1574 ( 23)
          -0.1048 ( 29)  0.1442 ( 36) -0.1642 ( 37)  0.2402 ( 45)  0.1185 ( 47)
          -0.1175 ( 52)  0.1407 ( 55) -0.2489 ( 57)  0.1103 ( 62) -0.2348 ( 64)
           0.1896 ( 65) -0.2546 ( 67) -0.1166 ( 72) -0.1128 ( 76)  0.1325 ( 79)
           0.1257 (100) -0.2083 (102) -0.1181 (128) -0.2561 (129) -0.1143 (130)
           0.1683 (131)  0.1278 (132)
 CRD 19=  -0.3507 (  8)  0.1560 ( 12)  0.1510 ( 26) -0.1339 ( 28) -0.1868 ( 35)
           0.1033 ( 36) -0.2381 ( 37)  0.2078 ( 39) -0.1449 ( 42)  0.1672 ( 47)
           0.1274 ( 51)  0.1626 ( 54) -0.2192 ( 55)  0.2266 ( 57)  0.1831 ( 64)
          -0.1842 ( 65)  0.1323 ( 67)  0.1316 ( 84) -0.1190 ( 87)  0.1138 ( 90)
           0.1147 ( 91)  0.1088 ( 94)  0.1121 ( 95)  0.1269 (102)  0.1282 (111)
           0.1452 (129) -0.1145 (131) -0.1144 (132)
 CRD 20=  -0.1543 (  2) -0.2937 (  3) -0.1643 (  5)  0.1998 (  6) -0.1029 (  7)
           0.1384 ( 10)  0.1755 ( 21)  0.1093 ( 29) -0.1402 ( 31) -0.2162 ( 35)
           0.1438 ( 38)  0.1251 ( 40)  0.1072 ( 41)  0.2472 ( 42) -0.1924 ( 46)
          -0.1285 ( 50)  0.1745 ( 52)  0.1243 ( 70)  0.1109 ( 71)  0.1202 ( 81)
           0.1931 ( 82) -0.1513 ( 90)  0.1279 ( 91) -0.1281 ( 94)  0.1227 ( 97)
           0.1665 (106)  0.1454 (115)  0.2394 (117)  0.1137 (124)
 CRD 21=  -0.2050 (  8) -0.1134 ( 10)  0.3693 ( 11) -0.1875 ( 12) -0.1876 ( 21)
          -0.1016 ( 23)  0.1341 ( 31)  0.1791 ( 43) -0.1324 ( 47)  0.1782 ( 51)
           0.1321 ( 52)  0.1359 ( 53) -0.1783 ( 54) -0.1254 ( 62)  0.1707 ( 83)
           0.1030 ( 84)  0.1554 ( 86)  0.1576 ( 87)  0.1134 (107)  0.1018 (110)
           0.1235 (116)  0.2006 (120)  0.1984 (121)  0.1601 (122)  0.1578 (123)
          -0.1582 (126) -0.1193 (129)
 CRD 22=  -0.1682 (  9) -0.1696 ( 10)  0.3302 ( 13)  0.2061 ( 17) -0.2249 ( 19)
          -0.2084 ( 21)  0.1354 ( 35)  0.1005 ( 40) -0.1681 ( 45)  0.2165 ( 52)
          -0.1610 ( 53) -0.1681 ( 55)  0.1800 ( 57) -0.1013 ( 60) -0.1566 ( 67)
          -0.1375 ( 86) -0.1020 ( 91) -0.1657 ( 99) -0.1532 (102)  0.2049 (108)
           0.1509 (110) -0.1471 (114) -0.1347 (123) -0.1268 (129)
 CRD 23=  -0.1476 (  1) -0.1279 (  2)  0.1970 (  4) -0.1700 (  5) -0.2796 (  6)
          -0.1039 ( 10) -0.2100 ( 11)  0.1024 ( 14)  0.1221 ( 16) -0.1260 ( 21)
           0.1241 ( 22)  0.1163 ( 26)  0.1499 ( 33) -0.2162 ( 35) -0.2045 ( 38)
           0.2662 ( 39) -0.1351 ( 43)  0.1647 ( 52)  0.1133 ( 55) -0.1578 ( 58)
          -0.1472 ( 61) -0.1092 ( 74) -0.1249 ( 82)  0.1677 ( 91)  0.1692 ( 95)
          -0.1356 (127)
 CRD 24=  -0.1288 (  1) -0.2407 (  4) -0.1298 (  8)  0.2263 (  9)  0.1120 ( 10)
          -0.1411 ( 11) -0.1184 ( 12) -0.2427 ( 13)  0.2097 ( 14)  0.1078 ( 17)
           0.1703 ( 21)  0.2757 ( 22)  0.1291 ( 31)  0.1449 ( 35) -0.1482 ( 39)
          -0.1311 ( 42) -0.1367 ( 43)  0.1825 ( 45)  0.1970 ( 52) -0.1088 ( 71)
          -0.1370 ( 73) -0.1630 ( 74)  0.1248 ( 82)  0.1136 ( 86)  0.1037 ( 87)
          -0.1057 ( 98) -0.1525 (113) -0.1785 (114) -0.1416 (125) -0.1676 (127)
 CRD 25=   0.1100 (  2)  0.1246 (  5) -0.4645 (  6)  0.1141 (  9)  0.1010 ( 10)
           0.1082 ( 11)  0.1271 ( 12)  0.1265 ( 20) -0.1425 ( 31)  0.1533 ( 32)
          -0.1019 ( 34) -0.1329 ( 36) -0.1521 ( 39)  0.1146 ( 40) -0.2140 ( 45)
           0.1135 ( 51)  0.1352 ( 90) -0.2213 ( 97)  0.2057 (105)  0.1560 (106)
           0.1232 (107)  0.1986 (115)  0.2383 (116)  0.1489 (117) -0.1147 (118)
           0.1886 (119)
 CRD 26=   0.1029 (  2) -0.2476 (  4)  0.1194 (  5)  0.2605 (  6) -0.4072 (  9)
          -0.1875 ( 13)  0.1652 ( 17) -0.1166 ( 19) -0.1247 ( 21) -0.1014 ( 28)
           0.1015 ( 29)  0.1162 ( 55) -0.2438 ( 58) -0.1871 ( 64)  0.1975 ( 65)
           0.1846 ( 72)  0.1795 ( 76) -0.1197 ( 79)  0.1492 (101)  0.1543 (103)
           0.1691 (128)  0.1640 (130)
 CRD 27=  -0.4821 (  9) -0.4066 ( 13) -0.2123 ( 17)  0.1689 ( 19) -0.1523 ( 21)
          -0.1167 ( 54)  0.1178 ( 58)  0.1371 ( 64) -0.1799 ( 65) -0.1508 ( 72)
          -0.1403 ( 76) -0.1160 ( 88) -0.1240 (101) -0.1344 (103)  0.1154 (105)
           0.1337 (106) -0.1083 (108)  0.1204 (120)  0.1031 (121) -0.1526 (128)
          -0.1421 (130)
 CRD 28=  -0.2386 (  1) -0.1686 (  3) -0.2852 (  4) -0.1882 (  6) -0.1803 ( 12)
           0.2512 ( 13)  0.2656 ( 15)  0.1313 ( 16) -0.1886 ( 17)  0.1247 ( 20)
          -0.1056 ( 22)  0.1013 ( 23) -0.1017 ( 29)  0.1691 ( 34)  0.1941 ( 35)
          -0.1150 ( 41)  0.1005 ( 45)  0.1269 ( 48)  0.1080 ( 55) -0.2076 ( 58)
          -0.1100 ( 69) -0.1250 ( 70) -0.1445 ( 71)  0.1134 ( 80) -0.1660 ( 91)
          -0.1003 ( 92)  0.1107 ( 98)
 CRD 29=  -0.1026 (  5)  0.5800 ( 17)  0.6185 ( 19) -0.1200 ( 55) -0.1334 ( 57)
          -0.1712 ( 59)  0.2475 ( 66)  0.1525 (131) -0.1521 (132)
 CRD 30=   0.4981 (  4) -0.1377 (  8) -0.2751 (  9) -0.1218 ( 19)  0.2774 ( 20)
          -0.1630 ( 26)  0.1757 ( 28)  0.1357 ( 38) -0.1490 ( 39)  0.1352 ( 41)
          -0.2754 ( 89) -0.2723 ( 90)  0.1370 ( 91) -0.2793 ( 92) -0.1879 ( 93)
          -0.1849 ( 94) -0.1918 ( 96)
 CRD 31=   0.2765 (  4)  0.6700 (  5)  0.1499 ( 13)  0.1668 ( 15)  0.2462 ( 19)
          -0.1244 ( 28) -0.1205 ( 35)  0.2348 ( 41) -0.1799 ( 58)  0.1741 ( 93)
           0.1599 ( 94) -0.1650 ( 95)  0.1521 ( 96) -0.1115 (103)
 CRD 32=   0.1334 (  1)  0.1029 (  3) -0.1571 (  4) -0.2619 (  5)  0.1509 (  6)
           0.1887 ( 12)  0.2791 ( 13)  0.1112 ( 15) -0.2948 ( 17)  0.2281 ( 19)
          -0.2763 ( 23)  0.1005 ( 29) -0.1201 ( 34) -0.1068 ( 35) -0.3001 ( 58)
           0.1222 ( 60)  0.1013 ( 64) -0.1066 ( 74) -0.1362 ( 76) -0.1667 ( 79)
           0.1459 ( 91) -0.1633 (101) -0.1250 (128) -0.1894 (130)
 CRD 33=  -0.3078 (  1)  0.2357 (  2)  0.2302 (  4) -0.1398 (  5)  0.1086 (  6)
           0.2789 (  7)  0.1598 ( 10)  0.1070 ( 15)  0.1664 ( 16) -0.1222 ( 23)
          -0.1582 ( 26) -0.1134 ( 34) -0.2418 ( 38)  0.1223 ( 43) -0.1680 ( 45)
           0.1012 ( 57) -0.1260 ( 58) -0.1496 ( 75) -0.1030 ( 83) -0.2608 (104)
          -0.1275 (112)  0.1735 (127)
 CRD 34=  -0.2048 (  1)  0.1747 (  2)  0.1019 (  4) -0.1325 (  6) -0.3133 (  7)
          -0.2363 ( 10)  0.1936 ( 13)  0.3925 ( 14) -0.1240 ( 15)  0.1154 ( 17)
          -0.1291 ( 26)  0.2280 ( 38)  0.1271 ( 41)  0.2114 ( 45) -0.3078 ( 52)
           0.1157 ( 71)  0.1246 ( 96) -0.1479 (104) -0.1183 (111)
 CRD 35=  -0.2243 (  6) -0.4331 (  7) -0.2122 ( 13) -0.4447 ( 14)  0.1020 ( 15)
           0.3231 ( 38)  0.3397 ( 52)  0.1127 ( 54) -0.1066 ( 58) -0.1368 ( 63)
          -0.1205 ( 87) -0.1107 (106) -0.1033 (117) -0.1103 (119) -0.1121 (120)
          -0.1259 (122)  0.1056 (127)
 CRD 36=   0.1074 (  1) -0.6019 ( 18)  0.1680 ( 24)  0.5181 ( 59) -0.1631 ( 64)
          -0.1639 ( 65)  0.2257 ( 66) -0.1681 ( 72)  0.1279 ( 76)  0.1413 (101)
          -0.1547 (103) -0.1432 (128)  0.1528 (130)
 CRD 37=  -0.1725 (  6) -0.2087 (  7) -0.1561 (  9)  0.5312 ( 10)  0.1692 ( 13)
           0.2339 ( 14) -0.1370 ( 18)  0.1487 ( 38) -0.3917 ( 45) -0.1005 ( 51)
          -0.1635 ( 52)  0.1005 ( 59)  0.1208 ( 62) -0.1436 ( 83)  0.1372 (111)
          -0.1613 (116) -0.1880 (119)  0.1742 (122)  0.1436 (123)
 CRD 38=   0.3488 (  1)  0.1160 (  4) -0.1034 (  5) -0.1289 (  7)  0.1567 (  9)
          -0.1440 ( 11)  0.1138 ( 14)  0.2088 ( 15)  0.2215 ( 18)  0.2401 ( 22)
           0.2296 ( 23)  0.1190 ( 24) -0.1776 ( 25)  0.1097 ( 28) -0.1627 ( 34)
          -0.1066 ( 41)  0.1104 ( 43) -0.1233 ( 54) -0.1314 ( 59) -0.1364 ( 68)
          -0.1414 ( 73)  0.1156 ( 79)  0.2036 ( 98) -0.1274 (104)  0.2174 (109)
          -0.2211 (112)
 CRD 39=   0.3267 (  2)  0.2346 (  4) -0.1576 (  5) -0.1088 ( 12)  0.4832 ( 15)
          -0.1563 ( 19) -0.2130 ( 20) -0.1575 ( 22) -0.1160 ( 24) -0.2551 ( 58)
           0.1401 ( 75)  0.1034 ( 77) -0.1590 ( 91) -0.1361 ( 98)  0.2057 (104)
           0.1542 (112) -0.1160 (132)
 CRD 40=   0.1086 (  1)  0.1414 (  3)  0.1300 (  5) -0.2883 (  6) -0.1329 (  8)
          -0.2768 ( 10)  0.1497 ( 20)  0.2950 ( 21)  0.1543 ( 22) -0.1996 ( 23)
          -0.1624 ( 24) -0.1005 ( 31) -0.1046 ( 41)  0.1298 ( 42)  0.1100 ( 45)
           0.3725 ( 78)  0.4144 ( 97)  0.1041 (117)  0.2530 (118)
 CRD 41=   0.1922 (  9)  0.1614 ( 12) -0.1434 ( 13)  0.1253 ( 16) -0.1865 ( 17)
          -0.2623 ( 21) -0.6374 ( 24) -0.1106 ( 55)  0.1326 ( 59)  0.2411 ( 98)
           0.1128 (108)  0.2326 (109)  0.1892 (126)  0.1708 (131)
 CRD 42=  -0.2567 (  2)  0.1137 (  6)  0.1119 ( 13)  0.1308 ( 15)  0.1273 ( 16)
           0.2010 ( 17) -0.2500 ( 19)  0.2550 ( 22) -0.3014 ( 23) -0.4254 ( 24)
          -0.1761 ( 78) -0.1878 ( 97) -0.1195 (104) -0.2609 (108) -0.1161 (112)
          -0.1481 (118) -0.2380 (131) -0.2572 (132)
 CRD 43=   0.1347 (  6) -0.1192 (  7) -0.1054 (  8)  0.2069 (  9)  0.1228 ( 12)
          -0.2097 ( 13)  0.1247 ( 15)  0.1784 ( 17) -0.1391 ( 19)  0.4155 ( 20)
          -0.3369 ( 21) -0.3859 ( 22) -0.2268 ( 23)  0.1937 ( 24)  0.1085 ( 98)
          -0.1916 (108)  0.1044 (126) -0.1820 (131) -0.1621 (132)
 CRD 44=   0.1226 (  2)  0.1980 (  6) -0.1016 (  7) -0.1686 ( 12)  0.5308 ( 20)
           0.4531 ( 23) -0.3082 ( 24)  0.1246 ( 71)  0.1230 ( 92)  0.1081 ( 96)
          -0.1386 ( 98) -0.1380 (104) -0.1471 (109) -0.1219 (112) -0.1039 (124)
          -0.1274 (126)
 CRD 45=   0.1662 (  2)  0.1541 (  6) -0.1167 ( 11)  0.1400 ( 13) -0.1077 ( 14)
           0.3503 ( 20) -0.1332 ( 21)  0.5212 ( 22) -0.2362 ( 23)  0.1568 ( 24)
           0.1347 ( 75) -0.1134 ( 91)  0.2071 (104)  0.1263 (108)  0.1121 (109)
           0.1660 (112)  0.1373 (131)
 CRD 46=  -0.1113 (  1)  0.1637 (  2) -0.1785 (  9) -0.1222 ( 14)  0.4933 ( 21)
           0.1911 ( 23)  0.1896 ( 75)  0.1392 ( 84)  0.1214 ( 87)  0.2331 ( 98)
           0.1867 (104) -0.1049 (106)  0.1596 (107) -0.1651 (108)  0.2323 (109)
           0.1604 (112) -0.1240 (117) -0.1081 (119)  0.1060 (120)  0.1645 (124)
           0.1600 (126) -0.1159 (131) -0.1448 (132)
 CRD 47=  -0.1247 (  2) -0.1234 ( 13)  0.1007 ( 14)  0.1199 ( 15)  0.1062 ( 20)
           0.3629 ( 21) -0.3398 ( 22) -0.3837 ( 23) -0.1021 ( 45) -0.1144 ( 97)
           0.2572 (108) -0.1044 (113)  0.1117 (129)  0.1132 (130)  0.2134 (131)
           0.2391 (132)
 CRD 48=  -0.1061 ( 21)  0.1368 ( 37) -0.1167 ( 40)  0.1060 ( 50) -0.1350 ( 51)
           0.4448 ( 84) -0.1635 ( 98)  0.4384 (107) -0.1422 (109) -0.1212 (111)
          -0.1151 (122) -0.1100 (123)  0.5436 (124) -0.1325 (126)
 CRD 49=   0.1489 (  1) -0.2091 (  3)  0.1087 ( 12)  0.1547 ( 16) -0.2428 ( 18)
           0.1661 ( 23)  0.2119 ( 24) -0.1473 ( 26) -0.1533 ( 28)  0.1372 ( 35)
           0.1594 ( 39) -0.1110 ( 48) -0.1597 ( 55) -0.1406 ( 56) -0.1408 ( 57)
          -0.1359 ( 58) -0.1253 ( 59)  0.1016 ( 60)  0.1789 ( 64)  0.1889 ( 65)
          -0.2534 ( 75) -0.1318 ( 78) -0.1128 ( 91)  0.1452 ( 95) -0.1084 (104)
          -0.1117 (112) -0.1704 (118)  0.1268 (126) -0.1255 (130)  0.1295 (131)
          -0.1832 (132)
 CRD 50=  -0.1109 (  1)  0.1096 (  4)  0.1129 (  5)  0.2417 (  6) -0.1788 (  7)
           0.1006 (  9) -0.1119 ( 10) -0.1701 ( 11) -0.1321 ( 14) -0.2224 ( 20)
          -0.1419 ( 31) -0.1814 ( 37)  0.2266 ( 38) -0.1202 ( 40) -0.1600 ( 41)
           0.1467 ( 46)  0.1781 ( 50)  0.1338 ( 51)  0.1110 ( 63) -0.1694 ( 70)
          -0.1023 ( 74) -0.1319 ( 82)  0.1257 ( 84) -0.1140 ( 89) -0.2450 ( 93)
           0.1007 ( 95)  0.1212 (106)  0.1136 (107)  0.1514 (111)  0.1134 (116)
          -0.1306 (118)  0.1642 (119)  0.2189 (122)  0.1580 (123) -0.1574 (124)
          -0.1106 (127)
 CRD 51=  -0.2849 (  1)  0.2036 (  3)  0.1148 (  9) -0.1386 ( 13)  0.1755 ( 15)
           0.2354 ( 16) -0.1440 ( 19)  0.1019 ( 22)  0.1177 ( 24)  0.1824 ( 26)
           0.1322 ( 28)  0.1468 ( 34) -0.1631 ( 35) -0.1325 ( 39) -0.1687 ( 55)
          -0.1349 ( 57) -0.1349 ( 59)  0.1543 ( 64)  0.1554 ( 66)  0.1439 ( 73)
           0.1198 ( 74)  0.1131 ( 79)  0.1514 ( 91) -0.1360 ( 95)  0.1702 (118)
           0.2352 (131) -0.1020 (132)
 CRD 52=   0.1631 (  2)  0.2007 (  7) -0.2424 (  9)  0.1378 ( 10)  0.2147 ( 13)
          -0.2112 ( 14)  0.1858 ( 16) -0.1196 ( 17) -0.1491 ( 21) -0.1093 ( 40)
           0.1013 ( 45)  0.1361 ( 52) -0.1155 ( 57) -0.1009 ( 59) -0.1268 ( 61)
           0.1364 ( 66)  0.1354 ( 71) -0.1190 ( 73) -0.1017 ( 74)  0.1073 ( 96)
          -0.1003 (104) -0.1289 (106)  0.1139 (109) -0.1537 (110) -0.1663 (112)
           0.1111 (118) -0.1566 (125) -0.1393 (127)  0.1268 (130)  0.1029 (131)
          -0.1446 (132)
 CRD 53=   0.1315 (  3) -0.2768 (  4)  0.2467 (  5)  0.2036 (  7) -0.1796 (  8)
           0.1829 ( 15) -0.1122 ( 20) -0.1259 ( 26)  0.1652 ( 28)  0.1651 ( 42)
          -0.1195 ( 61)  0.1056 ( 62)  0.1087 ( 69)  0.2902 ( 71) -0.1471 ( 89)
           0.1422 ( 91) -0.1620 ( 93) -0.1133 ( 94)  0.1045 ( 95)  0.1029 (107)
          -0.1218 (116) -0.2751 (118) -0.1189 (119) -0.1046 (121) -0.1069 (126)
           0.1297 (131)  0.1209 (132)
 CRD 54=  -0.1236 (  2)  0.2205 ( 10) -0.1106 ( 12)  0.1251 ( 15) -0.1820 ( 16)
           0.1347 ( 17) -0.1479 ( 47)  0.1123 ( 51)  0.1500 ( 53)  0.1443 ( 54)
          -0.1069 ( 58) -0.1088 ( 61) -0.1244 ( 62)  0.1175 ( 73) -0.1115 ( 75)
           0.1224 ( 77)  0.1145 ( 78)  0.1355 ( 83) -0.1077 ( 87)  0.1112 ( 97)
           0.1638 ( 98)  0.1358 (109)  0.2039 (116)  0.1738 (118) -0.1511 (120)
          -0.2114 (122)  0.3859 (126) -0.1136 (130)  0.1822 (132)
 CRD 55=   0.1027 (  1)  0.1667 (  2) -0.1249 (  4) -0.1036 (  6)  0.1245 ( 11)
          -0.1459 ( 13)  0.1186 ( 15) -0.2212 ( 16) -0.1095 ( 17)  0.2478 ( 18)
           0.1218 ( 22) -0.1031 ( 23) -0.2076 ( 30)  0.1318 ( 41) -0.1155 ( 52)
           0.1736 ( 63) -0.1435 ( 64)  0.1224 ( 66) -0.1049 ( 67) -0.1714 ( 72)
           0.1922 ( 73) -0.1321 ( 75) -0.1470 ( 90)  0.1347 ( 91) -0.1315 ( 92)
           0.1170 ( 93) -0.1321 (100)  0.1074 (101) -0.1081 (103) -0.1367 (112)
           0.1097 (113) -0.1056 (114) -0.1123 (115) -0.2286 (127)  0.2147 (130)
 CRD 56=  -0.1953 (  1)  0.2188 (  2)  0.1869 (  5)  0.1187 (  6) -0.3083 (  8)
           0.1011 ( 11) -0.1214 ( 12)  0.1021 ( 14) -0.2146 ( 17)  0.1014 ( 18)
           0.1103 ( 19)  0.1279 ( 28)  0.1354 ( 37)  0.1003 ( 40) -0.1449 ( 41)
           0.1076 ( 54) -0.1566 ( 64)  0.1231 ( 71)  0.1392 ( 76) -0.1029 ( 84)
           0.1149 ( 92) -0.1958 ( 93) -0.1025 ( 94) -0.1693 (102) -0.1304 (107)
           0.1411 (110)  0.1232 (121) -0.1809 (122)  0.1666 (130) -0.1625 (131)
          -0.2174 (132)
 CRD 57=  -0.1687 (  1)  0.3143 (  3) -0.1251 (  5) -0.1067 (  6) -0.1423 ( 10)
           0.2472 ( 11) -0.1405 ( 16) -0.1077 ( 18)  0.1154 ( 19)  0.1604 ( 26)
          -0.1407 ( 33)  0.1182 ( 34) -0.1638 ( 39) -0.1079 ( 43)  0.1305 ( 62)
          -0.1299 ( 66)  0.1407 ( 72) -0.1834 ( 75)  0.1919 ( 77) -0.1088 ( 78)
           0.1079 ( 82)  0.1034 ( 89)  0.1224 ( 92) -0.2312 ( 95) -0.1902 (116)
           0.1265 (117) -0.2020 (118)  0.1203 (123)  0.1647 (126) -0.1301 (127)
 CRD 58=  -0.1717 (  3)  0.1166 (  7)  0.2487 ( 12) -0.1258 ( 13) -0.1600 ( 16)
          -0.1870 ( 18)  0.2394 ( 19)  0.1175 ( 31) -0.1151 ( 53)  0.1036 ( 56)
          -0.1141 ( 61)  0.1434 ( 63)  0.1214 ( 65) -0.1992 ( 66)  0.1922 ( 72)
          -0.1343 ( 75)  0.1334 ( 77)  0.1045 ( 79) -0.1703 ( 86)  0.1588 (103)
          -0.1646 (106) -0.1610 (117)  0.1745 (118) -0.1581 (119)  0.1338 (120)
          -0.1035 (121)  0.1073 (122) -0.1300 (123) -0.1908 (126)  0.1708 (128)
          -0.1976 (131)
 CRD 59=  -0.1966 (  1) -0.1664 (  3)  0.1726 (  4)  0.1021 (  5) -0.1146 (  9)
           0.1422 ( 11)  0.1473 ( 12) -0.1387 ( 14) -0.1608 ( 16)  0.1163 ( 17)
           0.1057 ( 18) -0.1762 ( 19)  0.1222 ( 29) -0.1918 ( 41) -0.1211 ( 42)
          -0.1283 ( 50) -0.1099 ( 54)  0.1087 ( 55)  0.1213 ( 60) -0.1502 ( 65)
           0.1025 ( 67)  0.1166 ( 68) -0.1174 ( 72) -0.1367 ( 75) -0.1370 ( 79)
          -0.1560 ( 80)  0.1330 ( 82) -0.1537 ( 84)  0.1179 ( 87)  0.1413 ( 89)
           0.1798 ( 90)  0.1388 ( 95) -0.1401 ( 96)  0.1208 (102)  0.1727 (115)
          -0.1040 (119) -0.1210 (128)  0.1384 (131)  0.1396 (132)
 CRD 60=  -0.1992 ( 11)  0.1916 ( 12)  0.1430 ( 14) -0.1908 ( 16) -0.1559 ( 17)
           0.1739 ( 18)  0.1795 ( 25) -0.1363 ( 27)  0.1391 ( 34)  0.1338 ( 43)
           0.1228 ( 44) -0.1332 ( 48) -0.1011 ( 56)  0.1343 ( 57) -0.1076 ( 58)
          -0.1289 ( 63) -0.1352 ( 64)  0.1031 ( 66)  0.2343 ( 74) -0.1697 ( 75)
           0.2154 ( 76)  0.1805 ( 77) -0.1293 ( 95) -0.1031 ( 99) -0.1114 (100)
           0.1563 (101)  0.1042 (107)  0.1111 (112) -0.1462 (113) -0.1320 (120)
          -0.1545 (125) -0.1124 (126) -0.1798 (128) -0.1793 (129)
 CRD 61=   0.1235 (  2)  0.1181 (  3) -0.1642 (  4) -0.1085 (  7) -0.1267 (  8)
           0.1407 (  9) -0.1543 ( 11)  0.1569 ( 13) -0.1408 ( 16)  0.1500 ( 17)
          -0.1161 ( 29) -0.1154 ( 31)  0.1152 ( 41)  0.1385 ( 47)  0.1019 ( 55)
           0.1358 ( 60) -0.1273 ( 62)  0.1615 ( 67)  0.1234 ( 68) -0.1391 ( 75)
           0.1715 ( 77) -0.1396 ( 82) -0.1446 ( 85) -0.1469 ( 89) -0.1602 ( 92)
          -0.1089 ( 95)  0.1744 ( 99)  0.1130 (106) -0.1555 (107) -0.1139 (111)
          -0.1088 (112)  0.1285 (114)  0.1109 (119)  0.1503 (120)  0.1750 (121)
          -0.2006 (125)  0.1277 (129)  0.1297 (132)
 CRD 62=  -0.1294 (  4)  0.2059 (  5)  0.2820 (  8) -0.1633 ( 10)  0.1546 ( 28)
           0.1117 ( 33) -0.1693 ( 35) -0.1236 ( 42) -0.1149 ( 46)  0.1210 ( 61)
           0.1404 ( 69)  0.2725 ( 70)  0.1235 ( 76) -0.1427 ( 78) -0.2401 ( 85)
          -0.1083 ( 87) -0.1860 ( 92) -0.1543 ( 94) -0.3074 ( 96)  0.1247 (118)
           0.1793 (123)
 CRD 63=   0.1262 (  7) -0.1407 (  8)  0.1086 (  9)  0.1558 ( 11)  0.1280 ( 12)
          -0.1767 ( 15)  0.1176 ( 16)  0.1066 ( 18) -0.1208 ( 19)  0.1545 ( 30)
           0.1473 ( 32)  0.1250 ( 40) -0.1743 ( 49) -0.1160 ( 56) -0.1407 ( 61)
           0.1024 ( 66)  0.1716 ( 67) -0.2037 ( 74)  0.1882 ( 76)  0.1049 ( 78)
           0.1835 ( 80) -0.1073 ( 86) -0.1007 ( 91) -0.1655 ( 95)  0.1828 ( 96)
           0.1031 (100) -0.1410 (103)  0.1264 (105) -0.1105 (109)  0.1066 (112)
           0.1258 (113) -0.1387 (117) -0.1843 (119)  0.1020 (120)  0.1486 (125)
          -0.1885 (128)
 CRD 64=  -0.1179 (  1)  0.1482 (  3) -0.1968 (  6)  0.1909 ( 10) -0.1348 ( 11)
           0.2116 ( 12) -0.1396 ( 32) -0.1062 ( 33)  0.1794 ( 36)  0.1304 ( 42)
          -0.1197 ( 44)  0.1066 ( 51)  0.1026 ( 61) -0.1501 ( 62)  0.1157 ( 76)
          -0.1532 ( 78)  0.2567 ( 83)  0.1133 ( 84)  0.1621 ( 87)  0.1722 ( 89)
          -0.1824 ( 94)  0.1068 ( 97) -0.2145 (105) -0.1208 (111) -0.2131 (115)
           0.2045 (119)  0.1308 (120) -0.1917 (123) -0.1129 (128)
 CRD 65=  -0.1710 (  2)  0.1172 (  6) -0.1621 (  7)  0.1279 ( 11) -0.1614 ( 14)
           0.1018 ( 15) -0.1118 ( 17) -0.1264 ( 31)  0.1441 ( 37) -0.1066 ( 44)
           0.1172 ( 46) -0.1118 ( 50)  0.1035 ( 57)  0.1501 ( 69) -0.1792 ( 81)
          -0.1232 ( 83) -0.1427 ( 84)  0.1906 ( 87) -0.1390 ( 89) -0.1577 ( 92)
           0.1608 ( 94)  0.1409 (100)  0.1927 (101)  0.1485 (103) -0.1694 (111)
           0.1163 (112) -0.1156 (113) -0.2239 (114)  0.1111 (115)  0.1827 (117)
           0.1012 (120) -0.1600 (129)
 CRD 66=  -0.1192 (  7) -0.1652 (  9) -0.1782 ( 13)  0.1128 ( 14) -0.1502 ( 15)
          -0.1086 ( 27)  0.1243 ( 43)  0.1061 ( 48)  0.1138 ( 51) -0.1113 ( 53)
           0.1068 ( 54)  0.1232 ( 67) -0.2226 ( 68)  0.1470 ( 69)  0.1586 ( 80)
          -0.1994 ( 81) -0.1363 ( 85)  0.2543 ( 88) -0.1164 ( 92)  0.1004 ( 94)
          -0.1681 (100) -0.1460 (101) -0.1645 (103) -0.1187 (105)  0.1414 (107)
          -0.1092 (109)  0.1499 (111)  0.1829 (113)  0.1393 (114)  0.1658 (117)
          -0.1323 (120) -0.1953 (121)

 THE DETERMINANT OF THE G MATRIX IS 10**(   -34)


                     --------------------
                     INTERNAL COORDINATES
                     --------------------

                 - - ATOMS - -         COORDINATE      COORDINATE
 NO.   TYPE    I  J  K  L  M  N        (BOHR,RAD)       (ANG,DEG)
 ----------------------------------------------------------------
   1 STRETCH   1  2                     2.6846118       1.4206355
   2 STRETCH   1  8                     2.6996973       1.4286184
   3 STRETCH   2  3                     2.9029965       1.5361997
   4 STRETCH   2  5                     2.1026652       1.1126826
   5 STRETCH   2  4                     2.0983815       1.1104157
   6 STRETCH   3 11                     2.1068088       1.1148753
   7 STRETCH   3 10                     2.6559598       1.4054735
   8 STRETCH   3  6                     2.9046004       1.5370484
   9 STRETCH   6 14                     2.1034765       1.1131119
  10 STRETCH   6 13                     2.6580868       1.4065990
  11 STRETCH   6  7                     2.9112149       1.5405487
  12 STRETCH   7  8                     2.9406922       1.5561474
  13 STRETCH   7 17                     2.1123083       1.1177855
  14 STRETCH   7 16                     2.6577155       1.4064026
  15 STRETCH   8 19                     2.6674594       1.4115588
  16 STRETCH   8  9                     2.9134676       1.5417408
  17 STRETCH   9 22                     2.1036004       1.1131775
  18 STRETCH   9 21                     2.6484450       1.4014968
  19 STRETCH   9 23                     2.1046825       1.1137501
  20 STRETCH  10 12                     1.8763105       0.9929008
  21 STRETCH  13 15                     1.8758070       0.9926344
  22 STRETCH  16 18                     1.8759941       0.9927334
  23 STRETCH  19 20                     1.8763132       0.9929022
  24 STRETCH  21 24                     1.8753530       0.9923941
  25 BEND      1  8  9                  1.8873223     108.1356012
  26 BEND      1  2  4                  1.8930477     108.4636418
  27 BEND      1  8  7                  1.9193683     109.9717012
  28 BEND      1  2  5                  1.9382467     111.0533579
  29 BEND      1  2  3                  1.9410491     111.2139187
  30 BEND      1  8 19                  1.9378753     111.0320756
  31 BEND      2  3 11                  1.9276104     110.4439414
  32 BEND      2  3  6                  1.8867187     108.1010207
  33 BEND      2  3 10                  1.9168627     109.8281403
  34 BEND      2  1  8                  1.9536195     111.9341538
  35 BEND      3  2  4                  1.8994390     108.8298356
  36 BEND      3  6  7                  1.9154013     109.7444117
  37 BEND      3  6 14                  1.8863199     108.0781696
  38 BEND      3 10 12                  1.8635053     106.7709900
  39 BEND      3  2  5                  1.9392527     111.1109954
  40 BEND      3  6 13                  1.9451964     111.4515458
  41 BEND      4  2  5                  1.8495641     105.9722145
  42 BEND      6  3 11                  1.8957921     108.6208890
  43 BEND      6  7 17                  1.8766400     107.5235521
  44 BEND      6  7  8                  1.9151485     109.7299290
  45 BEND      6 13 15                  1.8854060     108.0258067
  46 BEND      6  3 10                  1.9224731     110.1495956
  47 BEND      6  7 16                  1.9068980     109.2572069
  48 BEND      7  8 19                  1.9130839     109.6116340
  49 BEND      7  8  9                  1.9062574     109.2205027
  50 BEND      7  6 13                  1.9512423     111.7979483
  51 BEND      7  6 14                  1.8886969     108.2143593
  52 BEND      7 16 18                  1.8736896     107.3545060
  53 BEND      8  7 16                  1.9357330     110.9093287
  54 BEND      8  7 17                  1.8997910     108.8500075
  55 BEND      8  9 23                  1.9036954     109.0737121
  56 BEND      8  9 21                  1.9212255     110.0781120
  57 BEND      8  9 22                  1.9142815     109.6802532
  58 BEND      8 19 20                  1.8791845     107.6693386
  59 BEND      9 21 24                  1.8528236     106.1589708
  60 BEND      9  8 19                  1.8994185     108.8286624
  61 BEND     10  3 11                  1.9141334     109.6717662
  62 BEND     13  6 14                  1.8745395     107.4032021
  63 BEND     16  7 17                  1.9286762     110.5050068
  64 BEND     21  9 23                  1.9052448     109.1624847
  65 BEND     21  9 22                  1.9074308     109.2877362
  66 BEND     22  9 23                  1.9118945     109.5434856
  67 TORSION   1  8  9 21               1.0283844      58.9220882
  68 TORSION   1  8  7  6              -0.9805247     -56.1799270
  69 TORSION   1  2  3  6               1.0381799      59.4833279
  70 TORSION   1  2  3 10              -1.0598094     -60.7226082
  71 TORSION   1  2  3 11               3.1100394     178.1921339
  72 TORSION   1  8  9 22               3.1276763     179.2026504
  73 TORSION   1  8  7 16              -3.0889462    -176.9835785
  74 TORSION   1  8  7 17               1.0687683      61.2359116
  75 TORSION   1  8 19 20              -0.8134692     -46.6083548
  76 TORSION   1  8  9 23              -1.0615974     -60.8250531
  77 TORSION   2  1  8 19              -1.0509804     -60.2167424
  78 TORSION   2  3 10 12              -1.3542859     -77.5948686
  79 TORSION   2  1  8  9              -3.1336263    -179.5435617
  80 TORSION   2  1  8  7               1.0694121      61.2728004
  81 TORSION   2  3  6  7              -0.9588288     -54.9368428
  82 TORSION   2  3  6 13              -3.1299712    -179.3341419
  83 TORSION   2  3  6 14               1.0973051      62.8709489
  84 TORSION   3  6 13 15               1.1672680      66.8795281
  85 TORSION   3  2  1  8              -1.1155828     -63.9181881
  86 TORSION   3  6  7 16               3.0708319     175.9457066
  87 TORSION   3  6  7 17              -1.1186310     -64.0928371
  88 TORSION   3  6  7  8               0.9450705      54.1485496
  89 TORSION   4  2  3 10               1.0245657      58.7032905
  90 TORSION   4  2  3  6               3.1225551     178.9092266
  91 TORSION   4  2  1  8               3.0794208     176.4378131
  92 TORSION   4  2  3 11              -1.0887707     -62.3819674
  93 TORSION   5  2  3 10               3.0546463     175.0183397
  94 TORSION   5  2  3  6              -1.1305497     -64.7757241
  95 TORSION   5  2  1  8               1.0537158      60.3734672
  96 TORSION   5  2  3 11               0.9413099      53.9330818
  97 TORSION   6  3 10 12               2.8527549     163.4508129
  98 TORSION   6  7 16 18               2.4614310     141.0296098
  99 TORSION   6  7  8  9              -3.0490522    -174.6978242
 100 TORSION   6  7  8 19               1.1546119      66.1543916
 101 TORSION   7  8  9 23               1.0268261      58.8328029
 102 TORSION   7  8  9 21               3.1168080     178.5799443
 103 TORSION   7  8  9 22              -1.0670855     -61.1394936
 104 TORSION   7  8 19 20              -2.9375385    -168.3085582
 105 TORSION   7  6  3 10               1.1356407      65.0674205
 106 TORSION   7  6  3 11              -3.0508158    -174.7988678
 107 TORSION   7  6 13 15              -0.9835786     -56.3549006
 108 TORSION   8  9 21 24              -3.1322276    -179.4634224
 109 TORSION   8  7 16 18              -1.7084611     -97.8876110
 110 TORSION   8  7  6 13               3.1126990     178.3445141
 111 TORSION   8  7  6 14              -1.1095836     -63.5744594
 112 TORSION   9  8 19 20               1.2619181      72.3025825
 113 TORSION   9  8  7 16               1.1257116      64.4985244
 114 TORSION   9  8  7 17              -0.9997593     -57.2819856
 115 TORSION  10  3  6 13              -1.0355017     -59.3298786
 116 TORSION  10  3  6 14              -3.0914107    -177.1247878
 117 TORSION  11  3  6 13               1.0612271      60.8038331
 118 TORSION  11  3 10 12               0.7671382      43.9537817
 119 TORSION  11  3  6 14              -0.9946819     -56.9910762
 120 TORSION  13  6  7 17               1.0489975      60.1031274
 121 TORSION  13  6  7 16              -1.0447249     -59.8583289
 122 TORSION  14  6  7 17               3.1099002     178.1841538
 123 TORSION  14  6  7 16               1.0161778      58.2226976
 124 TORSION  14  6 13 15              -3.0529195    -174.9194052
 125 TORSION  16  7  8 19              -0.9538095     -54.6492599
 126 TORSION  17  7 16 18               0.4000155      22.9192019
 127 TORSION  17  7  8 19              -3.0792804    -176.4297698
 128 TORSION  19  8  9 22               1.0208942      58.4929317
 129 TORSION  19  8  9 21              -1.0783976     -61.7876305
 130 TORSION  19  8  9 23               3.1148058     178.4652282
 131 TORSION  22  9 21 24               1.0475344      60.0192994
 132 TORSION  23  9 21 24              -1.0431865     -59.7701854

     ------------------------------------------
     THE POINT GROUP IS C1 , NAXIS= 1, ORDER= 1
     ------------------------------------------

     DIMENSIONS OF THE SYMMETRY SUBSPACES ARE
 A   =  300

 ..... DONE SETTING UP THE RUN .....
 STEP CPU TIME =     0.02 TOTAL CPU TIME =        0.0 (    0.0 MIN)
 TOTAL WALL CLOCK TIME=        0.0 SECONDS, CPU UTILIZATION IS  66.67%


          -----------------------------
          STATIONARY POINT LOCATION RUN
          -----------------------------

 OBTAINING INITIAL HESSIAN, HESS=GUESS   
 DIAGONAL GUESS HESSIAN IN INTERNAL COORDS IS
     1  0.3667     2  0.3611     3  0.3628     4  0.3314     5  0.3329
     6  0.3300     7  0.3777     8  0.3622     9  0.3312    10  0.3769
    11  0.3597    12  0.3490    13  0.3282    14  0.3770    15  0.3732
    16  0.3589    17  0.3311    18  0.3806    19  0.3307    20  0.3378
    21  0.3380    22  0.3379    23  0.3378    24  0.3381    25  0.2422
    26  0.2187    27  0.2413    28  0.2186    29  0.2431    30  0.2389
    31  0.2222    32  0.2476    33  0.2442    34  0.2383    35  0.2225
    36  0.2473    37  0.2223    38  0.2142    39  0.2224    40  0.2440
    41  0.2013    42  0.2222    43  0.2218    44  0.2459    45  0.2141
    46  0.2441    47  0.2438    48  0.2424    49  0.2459    50  0.2438
    51  0.2221    52  0.2142    53  0.2428    54  0.2209    55  0.2220
    56  0.2441    57  0.2220    58  0.2139    59  0.2144    60  0.2434
    61  0.2193    62  0.2194    63  0.2191    64  0.2196    65  0.2197
    66  0.2011    67  0.2500    68  0.2500    69  0.2500    70  0.2500
    71  0.2500    72  0.2500    73  0.2500    74  0.2500    75  0.2500
    76  0.2500    77  0.2500    78  0.2500    79  0.2500    80  0.2500
    81  0.2500    82  0.2500    83  0.2500    84  0.2500    85  0.2500
    86  0.2500    87  0.2500    88  0.2500    89  0.2500    90  0.2500
    91  0.2500    92  0.2500    93  0.2500    94  0.2500    95  0.2500
    96  0.2500    97  0.2500    98  0.2500    99  0.2500   100  0.2500
   101  0.2500   102  0.2500   103  0.2500   104  0.2500   105  0.2500
   106  0.2500   107  0.2500   108  0.2500   109  0.2500   110  0.2500
   111  0.2500   112  0.2500   113  0.2500   114  0.2500   115  0.2500
   116  0.2500   117  0.2500   118  0.2500   119  0.2500   120  0.2500
   121  0.2500   122  0.2500   123  0.2500   124  0.2500   125  0.2500
   126  0.2500   127  0.2500   128  0.2500   129  0.2500   130  0.2500
   131  0.2500   132  0.2500
 TRANSFORMING HESSIAN TO SYMMETRY COORDINATES

          PARAMETERS CONTROLLING GEOMETRY SEARCH ARE
          METHOD =QA                  UPHESS =BFGS    
          NNEG   =         0          NFRZ   =         3
          NSTEP  =        50          IFOLOW =         1
          HESS   =GUESS               RESTAR =         F
          IHREP  =         0          HSSEND =         F
          NPRT   =         0          NPUN   =         0
          OPTTOL = 5.000E-04          RMIN   = 1.500E-03
          RMAX   = 1.000E-01          RLIM   = 7.000E-02
          DXMAX  = 3.000E-01          PURIFY =         F
          MOVIE  =         F          TRUPD  =         T
          TRMAX  = 5.000E-01          TRMIN  = 5.000E-02
          ITBMAT =         5          STPT   =         F
          STSTEP = 1.000E-02          PROJCT=          F
          FROZEN COORD(S)=   1   2   3


      ***** EQUILIBRIUM GEOMETRY LOCATED *****
            (SUBJECT TO   3 CONSTRAINT(S))
 COORDINATES OF ALL ATOMS ARE (ANGS)
   ATOM   CHARGE       X              Y              Z
 ------------------------------------------------------------
 O           8.0  -0.7889659143   1.0923504319  -0.6027283885
 C           6.0  -2.0681134667   1.1208594274  -0.0026659523
 C           6.0  -2.4358127782  -0.2437855774   0.5504888896
 H           1.0  -2.7640939856   1.4093532894  -0.7786249585
 H           1.0  -2.1038696875   1.8653695146   0.7844183961
 C           6.0  -1.3502178386  -0.7392851037   1.5000125817
 C           6.0   0.0340412921  -0.6071716450   0.8797471900
 C           6.0   0.2624454754   0.7807461237   0.2632541863
 C           6.0   1.5472057753   0.7549502048  -0.5467395388
 O           8.0  -2.5489684831  -1.1953355856  -0.4845014384
 H           1.0  -3.3732541541  -0.1761065385   1.0941930696
 H           1.0  -3.3393417679  -1.0333858758  -0.9731258071
 O           8.0  -1.5871953937  -2.0636056334   1.8948792357
 H           1.0  -1.3785289168  -0.1394495707   2.4007364132
 H           1.0  -1.6909840578  -2.5871473820   1.1155786569
 O           8.0   0.9892463400  -0.8829506936   1.8701328980
 H           1.0   0.1137221689  -1.3247354411   0.0699732358
 H           1.0   1.6951177112  -1.3898293719   1.5092541700
 O           8.0   0.3395416595   1.7212544269   1.2820409194
 H           1.0   0.5980508914   2.5460139759   0.8969076290
 O           8.0   1.8272163878   2.0444071812  -1.0204950507
 H           1.0   2.3406785066   0.4125101023   0.1072700640
 H           1.0   1.4344590112   0.0513024999  -1.3653499965
 H           1.0   2.7039382730   2.0508881033  -1.3678592078


                     --------------------
                     INTERNAL COORDINATES
                     --------------------

                 - - ATOMS - -         COORDINATE      COORDINATE
 NO.   TYPE    I  J  K  L  M  N        (BOHR,RAD)       (ANG,DEG)
 ----------------------------------------------------------------
   1 STRETCH   1  2                     2.6705420       1.4131901
   2 STRETCH   1  8                     2.6405423       1.3973149
   3 STRETCH   2  3                     2.8680532       1.5177085
   4 STRETCH   2  5                     2.0484800       1.0840090
   5 STRETCH   2  4                     2.0438153       1.0815406
   6 STRETCH   3 11                     2.0518900       1.0858135
   7 STRETCH   3 10                     2.6654226       1.4104810
   8 STRETCH   3  6                     2.8818361       1.5250021
   9 STRETCH   6 14                     2.0457168       1.0825468
  10 STRETCH   6 13                     2.6495973       1.4021066
  11 STRETCH   6  7                     2.8773252       1.5226150
  12 STRETCH   7  8                     2.9021588       1.5357564
  13 STRETCH   7 17                     2.0501399       1.0848874
  14 STRETCH   7 16                     2.6519089       1.4033298
  15 STRETCH   8 19                     2.6242206       1.3886778
  16 STRETCH   8  9                     2.8704958       1.5190011
  17 STRETCH   9 22                     2.0480591       1.0837863
  18 STRETCH   9 21                     2.6493591       1.4019806
  19 STRETCH   9 23                     2.0509883       1.0853364
  20 STRETCH  10 12                     1.7824348       0.9432239
  21 STRETCH  13 15                     1.7849434       0.9445514
  22 STRETCH  16 18                     1.7781647       0.9409643
  23 STRETCH  19 20                     1.7881472       0.9462468
  24 STRETCH  21 24                     1.7821079       0.9430510
  25 BEND      1  8  9                  1.8857055     108.0429675
  26 BEND      1  2  4                  1.8579345     106.4518070
  27 BEND      1  8  7                  1.9160233     109.7800494
  28 BEND      1  2  5                  1.9305242     110.6108868
  29 BEND      1  2  3                  1.9346864     110.8493676
  30 BEND      1  8 19                  1.9234744     110.2069632
  31 BEND      2  3 11                  1.9130641     109.6104967
  32 BEND      2  3  6                  1.9247557     110.2803773
  33 BEND      2  3 10                  1.9375494     111.0134015
  34 BEND      2  1  8                  2.0069152     114.9877696
  35 BEND      3  2  4                  1.9234900     110.2078597
  36 BEND      3  6  7                  1.9447988     111.4287640
  37 BEND      3  6 14                  1.8959009     108.6271192
  38 BEND      3 10 12                  1.9087101     109.3610352
  39 BEND      3  2  5                  1.9229494     110.1768823
  40 BEND      3  6 13                  1.9411285     111.2184686
  41 BEND      4  2  5                  1.8928415     108.4518268
  42 BEND      6  3 11                  1.8997650     108.8485156
  43 BEND      6  7 17                  1.8896181     108.2671411
  44 BEND      6  7  8                  1.9575170     112.1574650
  45 BEND      6 13 15                  1.8857199     108.0437912
  46 BEND      6  3 10                  1.8700356     107.1451466
  47 BEND      6  7 16                  1.8904863     108.3168837
  48 BEND      7  8 19                  1.9026830     109.0157037
  49 BEND      7  8  9                  1.9012789     108.9352539
  50 BEND      7  6 13                  1.9287260     110.5078598
  51 BEND      7  6 14                  1.8908798     108.3394336
  52 BEND      7 16 18                  1.9238925     110.2309232
  53 BEND      8  7 16                  1.9387109     111.0799499
  54 BEND      8  7 17                  1.8620922     106.6900263
  55 BEND      8  9 23                  1.9021699     108.9863098
  56 BEND      8  9 21                  1.9108089     109.4812880
  57 BEND      8  9 22                  1.8784388     107.6266155
  58 BEND      8 19 20                  1.8827130     107.8715099
  59 BEND      9 21 24                  1.8927995     108.4494246
  60 BEND      9  8 19                  1.9345137     110.8394712
  61 BEND     10  3 11                  1.9179459     109.8902070
  62 BEND     13  6 14                  1.8593997     106.5357527
  63 BEND     16  7 17                  1.9249539     110.2917359
  64 BEND     21  9 23                  1.9413822     111.2330070
  65 BEND     21  9 22                  1.9265520     110.3832958
  66 BEND     22  9 23                  1.9032420     109.0477349
  67 TORSION   1  8  9 21               1.1483183      65.7937909
  68 TORSION   1  8  7  6              -0.9026947     -51.7205985
  69 TORSION   1  2  3  6               0.9500204      54.4321576
  70 TORSION   1  2  3 10              -1.1198478     -64.1625538
  71 TORSION   1  2  3 11               3.0412814     174.2525893
  72 TORSION   1  8  9 22              -3.0404176    -174.2030964
  73 TORSION   1  8  7 16              -3.0210920    -173.0958209
  74 TORSION   1  8  7 17               1.1635463      66.6662895
  75 TORSION   1  8 19 20              -1.1717254     -67.1349219
  76 TORSION   1  8  9 23              -0.9786839     -56.0744591
  77 TORSION   2  1  8 19              -1.0532539     -60.3470052
  78 TORSION   2  3 10 12              -1.2722351     -72.8937009
  79 TORSION   2  1  8  9               3.1139387     178.4155437
  80 TORSION   2  1  8  7               1.0426819      59.7412704
  81 TORSION   2  3  6  7              -0.8544027     -48.9536713
  82 TORSION   2  3  6 13              -3.0148827    -172.7400560
  83 TORSION   2  3  6 14               1.2273201      70.3202638
  84 TORSION   3  6 13 15               0.9383618      53.7641710
  85 TORSION   3  2  1  8              -1.0864136     -62.2469169
  86 TORSION   3  6  7 16               2.9857601     171.0714511
  87 TORSION   3  6  7 17              -1.2099810     -69.3268041
  88 TORSION   3  6  7  8               0.8399018      48.1228268
  89 TORSION   4  2  3 10               0.9324559      53.4257882
  90 TORSION   4  2  3  6               3.0023241     172.0204997
  91 TORSION   4  2  1  8               3.1048290     177.8935950
  92 TORSION   4  2  3 11              -1.1896002     -68.1590687
  93 TORSION   5  2  3 10               3.0206015     173.0677165
  94 TORSION   5  2  3  6              -1.1927156     -68.3375720
  95 TORSION   5  2  1  8               1.0519263      60.2709370
  96 TORSION   5  2  3 11               0.8985454      51.4828597
  97 TORSION   6  3 10 12               2.9083586     166.6366731
  98 TORSION   6  7 16 18               2.4442371     140.0444695
  99 TORSION   6  7  8  9              -2.9643197    -169.8430099
 100 TORSION   6  7  8 19               1.2058433      69.0897335
 101 TORSION   7  8  9 23               1.1019402      63.1365241
 102 TORSION   7  8  9 21              -3.0542429    -174.9952259
 103 TORSION   7  8  9 22              -0.9597934     -54.9921132
 104 TORSION   7  8 19 20               3.0074914     172.3165650
 105 TORSION   7  6  3 10               1.2563074      71.9811093
 106 TORSION   7  6  3 11              -2.9536825    -169.2335399
 107 TORSION   7  6 13 15              -1.2312339     -70.5445083
 108 TORSION   8  9 21 24               2.9449450     168.7329206
 109 TORSION   8  7 16 18              -1.6817324     -96.3561665
 110 TORSION   8  7  6 13               3.0073931     172.3109324
 111 TORSION   8  7  6 14              -1.2448047     -71.3220569
 112 TORSION   9  8 19 20               0.9148952      52.4196333
 113 TORSION   9  8  7 16               1.2004683      68.7817677
 114 TORSION   9  8  7 17              -0.8980787     -51.4561219
 115 TORSION  10  3  6 13              -0.9041726     -51.8052753
 116 TORSION  10  3  6 14              -2.9451551    -168.7449555
 117 TORSION  11  3  6 13               1.1690228      66.9800755
 118 TORSION  11  3 10 12               0.8469610      48.5272907
 119 TORSION  11  3  6 14              -0.8719596     -49.9596047
 120 TORSION  13  6  7 17               0.9575103      54.8613016
 121 TORSION  13  6  7 16              -1.1299339     -64.7404433
 122 TORSION  14  6  7 17               2.9884978     171.2283123
 123 TORSION  14  6  7 16               0.9010536      51.6265674
 124 TORSION  14  6 13 15               3.0014935     171.9729110
 125 TORSION  16  7  8 19              -0.9125539     -52.2854889
 126 TORSION  17  7 16 18               0.3791277      21.7224146
 127 TORSION  17  7  8 19              -3.0111010    -172.5233785
 128 TORSION  19  8  9 22               1.1336417      64.9528845
 129 TORSION  19  8  9 21              -0.9608077     -55.0502282
 130 TORSION  19  8  9 23              -3.0878100    -176.9184782
 131 TORSION  22  9 21 24               0.8802086      50.4322379
 132 TORSION  23  9 21 24              -1.2349570     -70.7578223

          INTERNUCLEAR DISTANCES (ANGS.)


 =====================================================
   GAMESS/COSab RESULTS
 =====================================================

   Dielectric Constant                  = INFTY
   Basic Grid Size                      =                 1082
   Number of Segments                   =                   92
   Number of Segments located on spheres=                  311
   Number of Segments of the cavity     =                  746
   Solvent Radius (rsolv)               = 1.40
   Outlying Charge Error Method         = double cavity

 =====================================================

  Total solvated Energy (a.u.)          =  -683.5671805134
  Total Energy corrected (a.u.)         =  -683.5670739009

  Outlying charge effect (a.u.)         =     0.0001066125
  Outlying charge effect (kcal/mol)     =     0.0669004254

  Dielectric Energy (a.u.)              =    -0.0440837859
  Dielectric energy corr. (a.u.)        =    -0.0439771734

  Sum of polarization charges           =     0.0160187194
  Sum of polarization charges(cor.)     =    -0.0160187194

  Total surface area of cavity (A**2)   =  182.40
  Total volume of cavity (A**3)         =  193.20

 =====================================================
 NPS=                   746
NR.  ATOM  (X, Y, Z)(a.u.)                  CHARGE(e)  AREA(A**2) SIGMA(e/A**2)
   1   1  -1.382102   4.777783  -2.924907   0.002262   0.137436   0.016462
   2   1  -1.454614   1.544050  -4.347228   0.005156   0.274871   0.018756
   3   1  -0.988110   2.202598  -4.347220   0.003621   0.171795   0.021079
   4   1  -1.314820   3.793017  -3.885807   0.004221   0.240512   0.017552
   5   1  -1.291249   2.876760  -4.279792   0.004178   0.240512   0.017370
   6   1  -1.335900   0.809367  -4.133313   0.002988   0.171795   0.017391
   7   1  -1.765931   4.423184  -3.358094   0.004186   0.206154   0.020307
   8   1  -2.355526   4.151388  -3.475858   0.001831   0.137436   0.013324
   9   1  -2.447588   2.949712  -4.116477   0.002390   0.171795   0.013910
  10   1  -2.297681   2.247284  -4.282290   0.004761   0.309230   0.015395
  11   1  -2.327258   1.176420  -4.151800   0.004903   0.309230   0.015857
  12   1  -1.535853   5.210639  -1.953108   0.003151   0.171795   0.018344
  13   1  -2.092537   3.526822  -3.978638   0.003355   0.206154   0.016273
  14   1  -1.522127   0.196503  -3.798932   0.002170   0.103077   0.021050
  15   1  -1.888481   4.920108  -2.639196   0.001224   0.103077   0.011874
  16   2  -7.298818   3.200386   1.266339  -0.000845   0.232280  -0.003636
  17   2  -5.081913   5.706733  -0.173402   0.000338   0.418105   0.000809
  18   2  -3.900469   4.685959  -2.778189  -0.000232   0.139368  -0.001663
  19   2  -5.656789   5.356146  -0.866252  -0.000013   0.278737  -0.000047
  20   2  -7.444895   3.436608   0.188256  -0.000832   0.278737  -0.002983
  21   2  -4.250217   1.322000  -3.683829  -0.000030   0.092912  -0.000323
  22   2  -7.668089   2.501779  -0.010586  -0.000803   0.232280  -0.003458
  23   2  -7.062492   4.038027   0.800187  -0.000345   0.278737  -0.001239
  24   2  -6.138808   5.160951   0.217658   0.000264   0.278737   0.000947
  25   2  -4.321113   5.649524  -1.286773  -0.000157   0.464561  -0.000337
  26   2  -3.540408   5.233886  -2.112395   0.000110   0.278737   0.000396
  27   2  -6.788692   3.665490   1.890330  -0.000796   0.278737  -0.002857
  28   2  -3.770793   5.892271  -0.150221  -0.000167   0.371649  -0.000450
  29   2  -4.409091   5.219571  -2.106056  -0.000180   0.139368  -0.001290
  30   2  -6.798494   4.551136   0.098099  -0.000072   0.278737  -0.000259
  31   2  -4.030378   1.892525  -3.775776  -0.000105   0.046456  -0.002267
  32   2  -6.416803   4.735361   1.063127  -0.000217   0.185824  -0.001168
  33   2  -3.104108   5.687019  -0.954052  -0.000076   0.325193  -0.000233
  34   3  -7.616085  -2.712275   1.409220  -0.000040   0.092912  -0.000426
  35   3  -8.151394   0.436988   0.098205  -0.000245   0.092912  -0.002633
  36   3  -5.713378   1.515752   4.064352  -0.000483   0.092912  -0.005202
  37   3  -7.991992   0.902729   0.070620  -0.000477   0.092912  -0.005129
  38   3  -7.225196  -3.013058   1.985753   0.000034   0.139368   0.000247
  39   3  -5.920681   1.744893   3.812175  -0.000210   0.046456  -0.004523
  40   4  -6.731186   3.727734  -3.092678  -0.003975   0.490692  -0.008100
  41   4  -5.248114   2.321115  -3.903949  -0.002136   0.314043  -0.006800
  42   4  -5.143525   4.131189  -3.439626  -0.002189   0.392554  -0.005576
  43   4  -6.618946   4.632626  -1.928812  -0.001940   0.372926  -0.005202
  44   4  -7.670278   2.873641  -1.531323  -0.002638   0.412182  -0.006401
  45   4  -6.495648   2.524157  -3.568304  -0.003866   0.451437  -0.008563
  46   4  -5.479374   3.302258  -3.829618  -0.002823   0.412182  -0.006849
  47   4  -5.826866   4.689712  -2.722193  -0.002414   0.431809  -0.005590
  48   4  -7.303963   3.944828  -1.724325  -0.002414   0.412182  -0.005857
  49   4  -7.392640   2.696182  -2.623928  -0.003607   0.431809  -0.008352
  50   5  -4.292870   5.270433   3.181795  -0.003529   0.451437  -0.007817
  51   5  -5.338408   3.964501   3.478612  -0.002689   0.392554  -0.006850
  52   5  -5.550377   5.327942   2.034771  -0.001389   0.294415  -0.004718
  53   5  -3.846850   5.975625   1.367652  -0.001356   0.255160  -0.005313
  54   5  -4.300125   4.338361   3.777636  -0.003016   0.372926  -0.008086
  55   5  -5.601686   4.768227   2.840976  -0.002328   0.431809  -0.005391
  56   5  -4.772661   5.814877   1.878181  -0.002163   0.412182  -0.005247
  57   5  -3.755988   5.826666   2.312615  -0.002162   0.294415  -0.007344
  58   6  -5.388778  -1.573029   5.325251   0.000073   0.092912   0.000782
  59   6  -1.647853  -1.856788   6.475517   0.000002   0.046456   0.000044
  60   6  -4.912499  -1.146930   5.775272  -0.000470   0.278737  -0.001685
  61   7   0.991038  -4.793384   1.298814  -0.000224   0.046456  -0.004816
  62   9   3.856450   1.369089  -4.695304  -0.000220   0.092912  -0.002364
  63   9   5.412641  -0.880471  -2.696634   0.000098   0.325193   0.000300
  64   9   1.314521   1.879807  -4.422754   0.000108   0.046456   0.002334
  65   9   2.137471   1.720700  -4.718224   0.000210   0.092912   0.002257
  66   9   5.730238  -1.045125  -1.579463   0.000149   0.371649   0.000401
  67   9   5.182988   3.103480   1.490415  -0.000173   0.185824  -0.000929
  68   9   3.011155   1.551783  -4.809558  -0.000115   0.046456  -0.002472
  69   9   4.224807  -2.102612  -1.401796  -0.000321   0.092912  -0.003451
  70   9   4.925055  -1.685111  -1.805262   0.000180   0.371649   0.000484
  71   9   6.136744  -0.120228  -2.285526  -0.000584   0.418105  -0.001396
  72   9   6.431196   0.652505  -2.209231  -0.000611   0.139368  -0.004385
  73   9   5.373653  -0.113253  -3.464468  -0.000416   0.232280  -0.001791
  74   9   4.845941   0.810423  -4.228475  -0.001049   0.185824  -0.005645
  75   9   1.449597   1.516640  -4.512111  -0.000062   0.092912  -0.000671
  76   9   6.604453   0.671790  -1.442068  -0.000561   0.185824  -0.003017
  77   9   5.749373   3.055079   0.876945   0.000020   0.092912   0.000211
  78   9   3.978413  -2.131692  -1.747454  -0.000374   0.092912  -0.004023
  79   9   5.811707   0.442345  -3.263735  -0.000681   0.185824  -0.003667
  80  10  -4.929031  -3.733005  -3.810225   0.001284   0.274871   0.004670
  81  10  -6.974332  -4.687246  -1.028767   0.002841   0.343589   0.008269
  82  10  -2.923690  -3.792577  -3.066938   0.003328   0.171795   0.019369
  83  10  -3.158368  -4.809287  -2.059883   0.005334   0.274871   0.019407
  84  10  -5.655438  -4.387089  -3.224703   0.000560   0.274871   0.002037
  85  10  -6.384516  -4.809323  -2.181352   0.001209   0.309230   0.003908
  86  10  -7.324415  -4.214243  -0.242393   0.002092   0.240512   0.008699
  87  10  -7.673045  -3.434603   0.096526   0.000456   0.137436   0.003320
  88  10  -4.577800  -1.405761  -4.042839   0.002242   0.274871   0.008156
  89  10  -4.658336  -2.605091  -4.143531   0.001690   0.309230   0.005465
  90  10  -2.873976  -3.085497  -3.386734   0.005746   0.274871   0.020905
  91  10  -3.883024  -3.448067  -3.792806   0.004426   0.377948   0.011712
  92  10  -4.479255  -4.570603  -3.175344   0.004912   0.481025   0.010212
  93  10  -4.024687  -5.102602  -2.275824   0.004881   0.309230   0.015785
  94  10  -4.798596  -5.430844  -1.624677   0.004120   0.274871   0.014988
  95  10  -6.002136  -5.273261  -1.185952   0.005784   0.377948   0.015304
  96  10  -6.632068  -4.811171  -0.046507   0.003607   0.240512   0.014997
  97  10  -3.781083  -1.589941  -3.922973   0.002791   0.171795   0.016244
  98  10  -3.043783  -2.230943  -3.639574   0.003019   0.137436   0.021966
  99  10  -3.278704  -4.325485  -2.897459   0.004446   0.274871   0.016174
 100  10  -5.391679  -5.111547  -2.363469   0.003669   0.377948   0.009709
 101  10  -7.142866  -4.020934   0.515967   0.002219   0.171795   0.012916
 102  10  -3.693663  -2.476209  -3.957930   0.003286   0.240512   0.013663
 103  11  -8.502871  -0.152451   3.281297  -0.004076   0.529948  -0.007691
 104  11  -7.940284   1.379267   2.875404  -0.001754   0.294415  -0.005959
 105  11  -6.948641   0.646304   4.246458  -0.001993   0.294415  -0.006770
 106  11  -7.760578  -1.206163   3.898363  -0.002305   0.353299  -0.006524
 107  11  -8.408767  -1.709483   2.109318  -0.001881   0.333671  -0.005636
 108  11  -8.652533   0.203216   1.320408  -0.002160   0.372926  -0.005793
 109  11  -7.619624   1.042227   3.678365  -0.002821   0.431809  -0.006532
 110  11  -7.507675  -0.259204   4.246186  -0.002695   0.412182  -0.006539
 111  11  -8.130428  -1.717814   3.084423  -0.002682   0.431809  -0.006211
 112  11  -8.797532  -0.734576   2.015391  -0.002963   0.490692  -0.006038
 113  11  -8.548397   0.800056   2.229104  -0.002724   0.490692  -0.005551
 114  12  -8.445494  -1.748146  -3.036763  -0.007876   0.412182  -0.019109
 115  12  -7.937873  -3.717569  -2.360663  -0.006570   0.451437  -0.014553
 116  12  -6.721369  -2.874229  -4.078853  -0.006610   0.431809  -0.015307
 117  12  -6.608405  -0.936556  -4.055590  -0.006128   0.333671  -0.018365
 118  12  -8.704819  -2.017334  -1.293116  -0.008032   0.431809  -0.018602
 119  12  -7.962319  -2.831438  -3.430925  -0.007546   0.412182  -0.018308
 120  12  -7.475876  -1.787559  -3.995222  -0.007131   0.392554  -0.018165
 121  12  -7.861688  -0.812677  -3.364994  -0.008339   0.392554  -0.021243
 122  12  -8.516820  -0.890710  -2.036336  -0.010564   0.490692  -0.021528
 123  12  -8.637272  -2.583837  -2.310940  -0.007399   0.412182  -0.017952
 124  12  -7.179304  -3.687975  -3.345383  -0.004954   0.353299  -0.014022
 125  12  -6.231304  -1.786896  -4.288693  -0.004640   0.353299  -0.013133
 126  12  -8.336130  -3.187311  -1.200417  -0.004961   0.392554  -0.012637
 127  13  -1.138405  -5.160932   5.928274   0.005625   0.240512   0.023389
 128  13  -4.267377  -5.099802   6.322396   0.006112   0.343589   0.017788
 129  13  -2.739449  -7.101977   4.072907   0.001379   0.274871   0.005015
 130  13  -5.756328  -5.618128   3.478019   0.002897   0.309230   0.009370
 131  13  -2.168562  -3.450021   6.690817   0.002917   0.206154   0.014149
 132  13  -1.511415  -4.181438   6.456774   0.003079   0.206154   0.014936
 133  13  -3.282630  -3.334507   6.769053   0.003262   0.240512   0.013564
 134  13  -3.700391  -4.193767   6.740963   0.005855   0.343589   0.017040
 135  13  -1.998233  -5.204933   6.384116   0.005521   0.309230   0.017855
 136  13  -3.103995  -5.249988   6.535496   0.006725   0.377948   0.017792
 137  13  -4.984818  -4.321626   6.119395   0.007665   0.412307   0.018590
 138  13  -5.528952  -3.433223   5.567805   0.007286   0.377948   0.019277
 139  13  -3.866256  -7.012816   3.929079   0.000603   0.274871   0.002195
 140  13  -5.046465  -6.421881   3.691761   0.001342   0.309230   0.004340
 141  13  -5.991216  -5.043009   3.027502   0.001679   0.171795   0.009771
 142  13  -0.823766  -6.215076   2.895050   0.001876   0.240512   0.007799
 143  13  -1.657116  -6.859846   3.597002   0.001710   0.309230   0.005530
 144  13  -1.580168  -6.029176   5.584703   0.005972   0.343589   0.017380
 145  13  -2.022806  -6.776688   4.735623   0.004066   0.343589   0.011834
 146  13  -3.359054  -6.807660   4.987463   0.005009   0.481025   0.010414
 147  13  -3.849555  -6.082607   5.833898   0.005801   0.377948   0.015349
 148  13  -4.984226  -5.602418   5.510948   0.006728   0.412307   0.016319
 149  13  -5.604625  -5.581018   4.555574   0.005450   0.377948   0.014421
 150  13  -6.146275  -4.634182   3.930061   0.004552   0.274871   0.016559
 151  13  -6.040871  -4.061173   4.715571   0.004275   0.206154   0.020736
 152  13  -0.741609  -6.226724   3.808692   0.003767   0.240512   0.015663
 153  13  -0.827605  -5.839656   5.024576   0.003347   0.206154   0.016236
 154  13  -2.478994  -4.241265   6.770959   0.005670   0.343589   0.016502
 155  13  -4.469972  -3.271501   6.410519   0.005428   0.377948   0.014363
 156  13  -2.616300  -6.177488   5.867570   0.006036   0.377948   0.015971
 157  13  -5.732577  -4.599200   5.194719   0.005643   0.309230   0.018247
 158  13  -4.613175  -6.489369   4.700421   0.004169   0.412307   0.010112
 159  13  -1.154632  -6.410650   4.506269   0.003405   0.240512   0.014156
 160  14  -2.781322   0.837382   6.725807  -0.003190   0.412182  -0.007739
 161  14  -2.595892  -0.807985   6.932274  -0.002031   0.333671  -0.006086
 162  14  -4.335266   0.033221   6.255278  -0.002000   0.353299  -0.005661
 163  14  -3.060479   1.647163   6.012181  -0.003222   0.353299  -0.009121
 164  14  -1.717636   0.832447   6.548315  -0.003006   0.333671  -0.009010
 165  14  -1.772666  -0.215174   6.847563  -0.002485   0.372926  -0.006663
 166  14  -3.446542  -0.217369   6.844303  -0.003019   0.451437  -0.006687
 167  14  -4.012488   1.095480   6.022436  -0.003508   0.451437  -0.007771
 168  15  -3.252938  -6.682320   0.430116  -0.005740   0.294415  -0.019495
 169  15  -5.095321  -6.427807   1.867656  -0.005943   0.392554  -0.015140
 170  15  -2.987503  -7.335647   2.183690  -0.005412   0.372926  -0.014513
 171  15  -1.556781  -6.532946   1.303715  -0.004209   0.274788  -0.015319
 172  15  -3.727407  -7.162599   1.344674  -0.005483   0.314043  -0.017459
 173  15  -2.575319  -7.029876   1.075144  -0.005296   0.314043  -0.016863
 174  15  -2.184578  -6.324831   0.390151  -0.005318   0.274788  -0.019354
[...]
 487  11  -6.579047  -0.730718   4.466760  -0.002174   0.291205  -0.007466
 488   6  -5.605063  -0.757880   5.061036  -0.001189   0.409869  -0.002902
 489   6  -2.293995  -2.007842   6.558700  -0.000037   0.013999  -0.002629
 490  13  -2.392679  -2.464342   6.558443   0.000126   0.013999   0.009010
 491  14  -2.334147  -1.715087   6.614699  -0.000119   0.013999  -0.008486
 492   6  -3.861659  -1.786053   6.361717   0.000025   0.013999   0.001755
 493  13  -3.894438  -2.251877   6.369742   0.000223   0.013999   0.015908
 494  14  -3.757896  -1.513659   6.435800  -0.000058   0.013999  -0.004156
 495   6  -1.083642  -2.362802   6.234002   0.000616   0.106636   0.005773
 496  13  -1.207672  -2.816325   6.246749   0.001389   0.106636   0.013021
 497  16  -0.273015  -2.385469   6.195586   0.001903   0.106636   0.017848
 498  13  -1.923413  -2.935561   6.510523   0.001427   0.128243   0.011125
 499   6  -1.932717  -2.238929   6.496517   0.000299   0.140330   0.002133
 500  13  -4.609373  -2.616584   5.968353   0.003497   0.297377   0.011759
 501   6  -4.890962  -1.963077   5.646303   0.001192   0.325214   0.003667
 502   6  -1.055574  -1.546697   6.342033   0.000031   0.063631   0.000482
 503  14  -1.163846  -1.273811   6.415261  -0.000225   0.063631  -0.003532
 504  16  -0.246883  -1.582131   6.300410   0.000892   0.063631   0.014012
 505  14  -2.012769  -1.300203   6.677381  -0.000503   0.075534  -0.006657
 506   6  -1.756721  -1.648803   6.518303  -0.000390   0.092282  -0.004226
 507  14  -4.654283  -0.182570   5.850063  -0.000592   0.093462  -0.006333
 508  14  -4.002275  -0.976797   6.399466  -0.000462   0.093462  -0.004947
 509   6  -4.492212  -0.863349   5.909241  -0.001461   0.189449  -0.007710
 510  16   0.172218  -1.933330   6.440750   0.001651   0.117331   0.014068
 511   6  -0.993195  -1.972375   6.390871   0.000389   0.129519   0.003001
 512   7  -0.042090  -5.139110   1.756430  -0.000158   0.074193  -0.002123
 513  13  -0.602650  -5.624527   2.111613  -0.000013   0.074193  -0.000174
 514  15  -0.780979  -5.722044   1.858971  -0.000522   0.074193  -0.007035
 515   7   0.875792  -4.825310   2.230951   0.000013   0.128229   0.000100
 516  13   0.216363  -5.140293   2.607194   0.001088   0.128229   0.008486
 517  18   1.490726  -4.767753   2.482663  -0.000352   0.128229  -0.002742
 518  13  -0.369029  -5.641748   2.369117   0.000635   0.119865   0.005294
 519   7   0.546988  -5.037503   1.926836  -0.000031   0.132399  -0.000237
 520   7   0.231526  -4.957394   1.199869  -0.000548   0.083096  -0.006596
 521  15  -0.581755  -5.420394   1.338660  -0.000769   0.083096  -0.009249
 522  17   0.214817  -4.957030   0.895268  -0.000652   0.083096  -0.007849
 523  15  -0.849487  -5.868745   1.606187  -0.000409   0.051017  -0.008020
 524   7   0.320654  -5.118074   1.460615   0.000004   0.072129   0.000053
 525   7   1.487431  -4.638495   1.203843  -0.000467   0.042811  -0.010913
 526  17   1.421668  -4.632464   0.908528  -0.000534   0.042811  -0.012485
 527  18   2.076749  -4.627078   1.513130  -0.000772   0.042811  -0.018025
 528  17   0.949720  -4.800366   0.651412  -0.000552   0.051917  -0.010634
 529   7   0.890762  -4.802742   1.095132  -0.000484   0.063428  -0.007630
 530  18   2.209642  -4.860982   2.143222  -0.001596   0.148779  -0.010726
 531   7   1.405596  -4.773233   1.627688  -0.000931   0.181767  -0.005122
 532   9   3.360815  -2.548858  -0.698022  -0.002729   0.241240  -0.011311
 533  17   2.707054  -3.167000  -0.426642  -0.003233   0.241240  -0.013400
 534  18   3.356827  -3.176093   0.195886  -0.004637   0.241240  -0.019222
 535   9   3.235703  -2.350842  -1.655982  -0.000662   0.081847  -0.008085
 536  17   2.535662  -2.867563  -1.323690  -0.000997   0.081847  -0.012185
 537  23   3.128762  -2.351495  -1.941865  -0.000660   0.081847  -0.008069
 538  17   2.403556  -3.324055  -0.970001  -0.000691   0.079184  -0.008723
 539   9   3.435298  -2.502185  -1.365978  -0.000244   0.111827  -0.002179
 540   9   5.110266  -1.677440  -0.216691  -0.000717   0.087161  -0.008229
 541  18   4.931097  -2.293799   0.657238  -0.002031   0.087161  -0.023301
 542  22   5.272579  -1.603343   0.030308  -0.000843   0.087161  -0.009669
 543  18   4.245141  -3.157942   0.590612  -0.007799   0.419007  -0.018614
 544   9   4.605381  -2.136406  -0.612877  -0.002534   0.600151  -0.004222
 545   9   4.552838   3.801698   1.495545   0.000279   0.109779   0.002541
 546  19   4.010254   4.063523   2.051968   0.000318   0.109779   0.002896
 547  21   4.582968   4.195912   1.240219   0.000952   0.109779   0.008670
 548   9   4.688394   2.757351   2.070597  -0.000075   0.056493  -0.001331
 549  19   4.132514   3.041642   2.599159   0.000537   0.056493   0.009507
 550  22   4.842555   2.498152   2.094667  -0.000237   0.056493  -0.004187
 551  19   3.957521   3.654278   2.799184   0.001754   0.217478   0.008065
 552   9   4.657245   3.373977   1.882491   0.000292   0.240161   0.001216
 553   9   6.157246   3.258957   0.022755  -0.000276   0.038546  -0.007164
 554  21   6.197229   3.684582  -0.166973  -0.000238   0.038546  -0.006183
 555  24   6.399231   3.684407  -0.417769  -0.000479   0.038546  -0.012417
 556   9   4.339958   1.959476  -4.588202  -0.000230   0.038546  -0.005955
 557  21   4.414425   2.409759  -4.690435  -0.000235   0.038546  -0.006087
 558  24   4.725739   2.487749  -4.663878  -0.000526   0.038546  -0.013645
 559  21   5.418961   4.065851   0.575418   0.001800   0.254449   0.007074
 560   9   5.620577   3.348656   0.696536  -0.000109   0.278321  -0.000391
 561  21   3.734486   2.452915  -4.810184   0.000643   0.212834   0.003023
 562  21   2.133998   2.846424  -4.685121   0.002686   0.212834   0.012621
 563   9   2.791843   2.020492  -4.590303   0.001442   0.458945   0.003143
 564   9   6.702992   1.717994  -0.976006  -0.000479   0.025337  -0.018897
 565  22   6.702624   1.569110  -0.714080  -0.000372   0.025337  -0.014691
 566  24   6.822309   2.257204  -1.332260  -0.000655   0.025337  -0.025834
 567   9   6.271922   2.789702   0.108146  -0.000270   0.025337  -0.010652
 568  22   6.314344   2.534435   0.262454  -0.000307   0.025337  -0.012112
 569  24   6.439401   3.209170  -0.369240  -0.000393   0.025337  -0.015521
 570  22   5.712858  -1.204545  -0.431630  -0.000589   0.077299  -0.007624
 571  22   6.385319  -0.204455  -0.723822  -0.001214   0.176567  -0.006875
 572  22   6.747347   0.968606  -0.548817  -0.000602   0.077299  -0.007787
 573   9   5.833488  -0.881570  -0.960930  -0.001021   0.164992  -0.006188
 574   9   6.551317   0.626373  -1.042246  -0.001286   0.164992  -0.007792
 575  22   6.169224   2.348706   0.875223  -0.000578   0.086682  -0.006663
 576  22   5.487487   2.373863   1.715502  -0.000529   0.086682  -0.006107
 577   9   5.641126   2.673819   1.134102  -0.001328   0.179652  -0.007391
 578  23   1.636812   0.855123  -4.654548  -0.000325   0.069754  -0.004661
 579  23   2.744955   0.897562  -4.843652  -0.000955   0.155272  -0.006147
 580  23   3.986374   0.404736  -4.591019  -0.001080   0.155272  -0.006957
 581  23   4.635311  -0.543795  -3.865075  -0.000948   0.155272  -0.006105
 582  23   4.416880  -1.546239  -2.973326  -0.000796   0.155272  -0.005129
 583  23   3.689132  -2.144690  -2.358686  -0.000521   0.069754  -0.007475
 584   9   2.032304   1.307154  -4.654349  -0.000648   0.152518  -0.004250
 585   9   3.546608   1.116377  -4.698931  -0.000865   0.152518  -0.005674
 586   9   4.669421   0.260255  -4.117686  -0.000990   0.152518  -0.006492
 587   9   4.925128  -0.898564  -3.156826  -0.000785   0.152518  -0.005150
 588   9   4.205413  -1.869213  -2.223365  -0.000821   0.152518  -0.005381
 589  24   6.592094   3.638854  -0.505189  -0.000228   0.037216  -0.006137
 590   9   6.284161   2.999586   0.108509  -0.000146   0.045467  -0.003207
 591  24   7.027192   2.380319  -1.878525  -0.002846   0.180565  -0.015762
 592  24   6.601742   1.991531  -3.091470  -0.007432   0.374073  -0.019869
 593  24   5.538848   2.173039  -4.302334  -0.005736   0.374073  -0.015334
 594   9   6.593714   1.415750  -1.955089  -0.004785   0.427693  -0.011189
 595   9   5.741684   1.168615  -3.545407  -0.004455   0.427693  -0.010415
 596   9   4.652802   1.551506  -4.475050  -0.001023   0.220600  -0.004639
 597  12  -5.529350  -1.046695  -3.982817  -0.000804   0.080979  -0.009932
 598  12  -5.682350  -2.232952  -4.128519  -0.002001   0.175017  -0.011435
 599  12  -6.233862  -3.502891  -3.657329  -0.002320   0.175017  -0.013255
 600  12  -7.021296  -4.110012  -2.584817  -0.002016   0.175017  -0.011518
 601  12  -7.729310  -3.811182  -1.340492  -0.001731   0.175017  -0.009888
 602  12  -8.080235  -3.013456  -0.508428  -0.000771   0.080979  -0.009518
 603  10  -5.120463  -1.546086  -4.009287  -0.000845   0.173840  -0.004861
 604  10  -5.489019  -3.082572  -3.922394  -0.001314   0.173840  -0.007560
 605  10  -6.252633  -4.153078  -3.042006  -0.001396   0.173840  -0.008030
 606  10  -7.105502  -4.328899  -1.720690  -0.000942   0.173840  -0.005416
 607  10  -7.706079  -3.539625  -0.487593  -0.000750   0.173840  -0.004317
 608  10  -6.063394  -4.724829   1.233746   0.000802   0.079776   0.010050
 609  13  -5.766439  -5.074193   2.101650  -0.000171   0.079776  -0.002147
 610  15  -5.676094  -5.227372   1.830119  -0.000496   0.079776  -0.006223
 611  13  -6.124725  -4.741628   2.419339   0.000974   0.226459   0.004303
 612  10  -6.565066  -4.404255   1.125698   0.002194   0.226459   0.009686
 613  10  -2.375065  -4.695804  -1.028489   0.002280   0.249793   0.009126
 614  15  -2.118327  -5.149911  -0.319509  -0.003652   0.249793  -0.014619
 615  17  -1.361013  -4.590960  -0.739837  -0.001590   0.249793  -0.006365
 616  15  -5.585921  -5.566150   1.464609  -0.001709   0.237022  -0.007211
 617  15  -4.703709  -6.084984   0.540264  -0.006069   0.479688  -0.012652
 618  15  -3.191029  -5.937215  -0.142310  -0.007332   0.479688  -0.015285
 619  10  -5.903611  -5.185459   0.197676   0.007341   0.575522   0.012756
 620  10  -4.481897  -5.556192  -0.887130   0.007355   0.575522   0.012779
 621  10  -3.093199  -5.159722  -1.286896   0.003397   0.290967   0.011676
 622  10  -1.369548  -2.271814  -2.509673   0.002588   0.304192   0.008507
 623  17  -0.331869  -2.364108  -2.346163  -0.002486   0.304192  -0.008172
 624  23   0.271703  -1.694369  -2.787689  -0.001820   0.304192  -0.005981
 625  17  -0.873655  -4.391474  -1.347351  -0.001070   0.240628  -0.004447
 626  17  -0.675493  -3.463079  -2.082281  -0.001978   0.483481  -0.004090
 627  10  -2.237800  -4.147692  -2.114556   0.007734   0.596948   0.012956
 628  10  -2.035845  -3.069378  -2.832709   0.004484   0.300475   0.014923
 629  23   0.553478  -1.343324  -3.618231  -0.000414   0.243730  -0.001700
 630  10  -1.997345  -2.132945  -3.298034   0.002908   0.332860   0.008737
 631  12  -8.366268  -2.158737  -0.219300  -0.002278   0.251092  -0.009071
 632  12  -8.516749  -1.273187  -0.588986  -0.002740   0.251092  -0.010911
 633  11  -8.430726  -1.200628   0.825905  -0.003035   0.502731  -0.006038
 634  13  -6.042352  -2.842371   4.827192   0.003818   0.397138   0.009614
 635  13  -6.430234  -3.617622   3.864884   0.004051   0.397138   0.010201
 636  11  -7.032554  -2.080118   3.740630  -0.002160   0.642763  -0.003361
 637  14  -4.999207   0.549778   5.357822  -0.000617   0.220124  -0.002802
 638  11  -6.216787   0.402762   4.617578  -0.000640   0.220124  -0.002906
 639  14  -3.190778  -1.460488   6.617583  -0.001420   0.332474  -0.004272
 640  13  -3.050191  -2.580572   6.603851   0.002697   0.405012   0.006659
 641  15  -1.177487  -6.286290   2.039795  -0.000787   0.080641  -0.009757
 642  15  -2.033616  -6.925026   2.582935  -0.001949   0.174074  -0.011196
 643  15  -3.436862  -7.130257   2.907715  -0.002232   0.174074  -0.012824
 644  15  -4.771096  -6.582295   2.717300  -0.001855   0.174074  -0.010654
 645  15  -5.492084  -5.746104   2.251569  -0.000696   0.080641  -0.008625
 646  13  -1.293380  -6.432335   2.656987  -0.000740   0.173259  -0.004270
 647  13  -2.615825  -7.049276   3.247596  -0.001221   0.173259  -0.007049
 648  13  -4.176042  -6.853938   3.324176  -0.001269   0.173259  -0.007326
 649  13  -5.356717  -5.923607   2.856428  -0.000823   0.173259  -0.004751
 650  13   0.387090  -5.117118   2.871662   0.000366   0.021420   0.017066
 651  16   1.372236  -4.837067   2.825014   0.000187   0.021420   0.008716
 652  18   1.674589  -4.814498   2.726068  -0.000061   0.021420  -0.002828
 653  16   0.277500  -2.799539   6.359349   0.005289   0.348629   0.015172
 654  16   0.865886  -4.099397   5.602040   0.013109   0.697592   0.018792
 655  16   1.232610  -4.936040   3.866782   0.008408   0.697592   0.012052
 656  13  -0.823996  -3.929359   6.122397   0.011307   0.697592   0.016209
 657  13  -0.218991  -5.276650   4.832298   0.013200   0.697592   0.018923
 658  13  -0.062016  -5.651970   3.269020   0.004162   0.348629   0.011938
 659  18   1.892160  -5.023134   2.597140  -0.000010   0.023351  -0.000407
 660  13   0.051875  -5.635892   2.754636   0.000093   0.030175   0.003093
 661  14  -0.450486   0.846953   5.788352  -0.000129   0.272197  -0.000472
 662  16   0.509199   0.641207   5.715718   0.003690   0.272197   0.013556
 663  19   0.271074   1.590049   5.481775   0.004282   0.272197   0.015732
 664  16   0.546473  -0.075719   6.268837   0.003794   0.343602   0.011043
 665  16   0.244738  -1.216683   6.521113   0.003588   0.343602   0.010444
 666  14  -0.968435  -0.277787   6.429735  -0.001819   0.560505  -0.003245
 667  19  -1.624813   3.370173   5.056355   0.004420   0.332953   0.013276
 668  19  -0.513986   2.653694   5.570641   0.008978   0.661025   0.013582
 669  14  -2.120499   1.953626   5.726605  -0.002131   0.535081  -0.003982
 670  14  -1.103414   1.237613   6.097697  -0.000788   0.266088  -0.002963
 671  17   0.082137  -5.130206   0.400218  -0.001525   0.327105  -0.004661
 672  17  -0.586719  -4.936673  -0.520562  -0.002002   0.327105  -0.006119
 673  15  -1.349281  -5.750510   0.585966  -0.008479   0.655632  -0.012933
 674  16   5.091699  -0.833336   3.339412  -0.000213   0.091859  -0.002321
 675  18   5.214459  -1.083546   3.174257  -0.000955   0.091859  -0.010402
 676  22   5.412754  -0.339222   2.546175  -0.000741   0.091859  -0.008070
 677  18   5.231893  -1.589526   3.757375  -0.000910   0.085402  -0.010654
 678  18   4.913779  -2.564852   4.505059  -0.002564   0.186497  -0.013747
 679  18   4.088593  -3.847444   4.692494  -0.002285   0.186497  -0.012254
 680  18   3.074260  -4.732575   3.951699  -0.001805   0.186497  -0.009681
 681  18   2.389987  -4.938481   2.902480  -0.000757   0.085402  -0.008868
 682  16   4.941587  -1.649044   4.350447  -0.001360   0.182191  -0.007464
 683  16   4.314708  -3.020207   5.050171  -0.001625   0.182191  -0.008918
 684  16   3.259076  -4.264185   4.732618  -0.000936   0.182191  -0.005138
 685  16   2.246534  -4.824944   3.539728  -0.000719   0.182191  -0.003944
 686  16   3.997319   1.068052   3.611900   0.004830   0.267223   0.018074
 687  19   3.753434   2.018730   3.392896   0.004022   0.267223   0.015053
 688  22   4.441195   1.491337   2.824912   0.000017   0.267223   0.000064
 689  19   1.003726   2.076847   5.624445   0.004839   0.306521   0.015786
 690  19   2.376213   2.309226   5.137185   0.011364   0.613132   0.018534
 691  19   3.468393   2.358166   4.147291   0.005063   0.306521   0.016517
 692  16   1.873974   0.828403   5.777361   0.010957   0.613132   0.017870
 693  16   3.411531   1.003901   4.855854   0.011770   0.613132   0.019196
 694  22   5.149174   1.103410   2.691210  -0.000893   0.234278  -0.003810
 695  22   5.624370   0.314002   2.475394  -0.001211   0.234278  -0.005168
 696  16   4.784570   0.044279   3.687668   0.004346   0.576862   0.007534
 697  18   2.622955  -4.650003   1.338728  -0.003817   0.299497  -0.012744
 698  18   3.295308  -3.960946   0.631143  -0.004548   0.299497  -0.015186
 699  17   2.001595  -4.227899   0.150623  -0.005936   0.601639  -0.009866
 700  23   2.953436  -2.534581  -2.315862  -0.000855   0.235445  -0.003630
 701  23   2.063893  -2.387621  -2.993497  -0.002798   0.470939  -0.005942
 702  23   1.128260  -1.883800  -3.371422  -0.001280   0.235445  -0.005436
 703  17   1.831794  -3.324956  -1.731380  -0.003040   0.470939  -0.006455
 704  17   0.693264  -2.919004  -2.389830  -0.003107   0.470939  -0.006598
 705  22   5.916484  -0.280293   2.122113  -0.001417   0.238306  -0.005948
 706  22   6.003735  -1.001402   1.235261  -0.003817   0.476702  -0.008007
 707  22   5.629755  -1.580107   0.319097  -0.001303   0.238306  -0.005466
 708  18   5.592713  -1.638195   2.628419  -0.005390   0.476702  -0.011307
 709  18   5.413877  -2.448902   1.503859  -0.007253   0.476702  -0.015214
 710  19   3.647604   4.728927   2.248300  -0.000362   0.081770  -0.004427
 711  20   3.614649   5.003293   2.076469  -0.000824   0.081770  -0.010078
 712  21   4.135997   4.822522   1.379507   0.000491   0.081770   0.006008
 713  20  -0.525551   6.417338   2.534504  -0.000785   0.082098  -0.009566
 714  20   0.436766   6.462182   3.276454  -0.002467   0.177617  -0.013888
 715  20   1.852279   6.142724   3.542426  -0.002327   0.177617  -0.013103
 716  20   3.040942   5.495854   2.954967  -0.001867   0.177617  -0.010512
 717  19  -0.406978   6.179263   3.127930  -0.001256   0.176161  -0.007129
 718  19   1.009287   6.075763   3.856890  -0.001579   0.176161  -0.008964
 719  19   2.495871   5.524139   3.673370  -0.001254   0.176161  -0.007121
 720  19   3.386995   4.908964   2.954076  -0.000409   0.094000  -0.004353
 721  21   4.634068   4.673519   1.218601   0.000915   0.130991   0.006987
 722  19   3.892021   4.431872   2.418033   0.000327   0.130991   0.002496
 723  22   4.958990   2.164885   2.365870  -0.000484   0.245578  -0.001971
 724  19   3.970662   2.824712   3.270257   0.002618   0.305845   0.008559
 725  21   1.184656   6.344040  -1.389285   0.003336   0.284548   0.011725
 726  21   2.390209   6.784093  -0.731575   0.006591   0.563374   0.011699
 727  21   3.772355   6.345461   0.269211   0.007007   0.563374   0.012438
 728  21   4.464804   5.303065   0.985808   0.003015   0.284548   0.010596
 729  20   1.030199   6.621468  -0.024059  -0.007236   0.467596  -0.015475
 730  20   2.394400   6.776042   0.810037  -0.006723   0.467596  -0.014378
 731  20   3.392156   5.871887   1.686190  -0.005082   0.467596  -0.010868
 732  24   4.871721   2.997772  -4.863401  -0.000658   0.083348  -0.007890
 733  24   4.837332   4.233621  -4.927164  -0.001866   0.181037  -0.010306
 734  24   5.086841   5.560677  -4.272682  -0.002282   0.181037  -0.012605
 735  24   5.587112   6.175521  -2.998564  -0.002290   0.181037  -0.012651
 736  24   6.126172   5.817633  -1.644676  -0.002017   0.181037  -0.011141
 737  24   6.475611   4.638655  -0.784685  -0.001883   0.181037  -0.010401
 738  21   4.391858   3.436836  -4.940918  -0.000786   0.178386  -0.004408
 739  21   4.473399   5.040958  -4.705213  -0.000966   0.178386  -0.005414
 740  21   4.902332   6.151876  -3.601904  -0.001545   0.178386  -0.008658
 741  21   5.496910   6.298875  -2.098481  -0.001348   0.178386  -0.007558
 742  21   6.005201   5.419668  -0.831970  -0.000888   0.178386  -0.004981
 743  21   6.230586   4.235707  -0.285178  -0.000456   0.095431  -0.004778
 744  24   6.801940   3.254887  -0.667779  -0.002011   0.221621  -0.009076
 745  24   7.036811   2.670962  -1.258484  -0.002342   0.221621  -0.010570
 746  22   6.679706   1.985377  -0.092099  -0.002638   0.443431  -0.005948
 =====================================================

              7617189  WORDS OF DYNAMIC MEMORY USED
 EXECUTION OF GAMESS TERMINATED NORMALLY Wed Nov 23 20:37:19 2016
 DDI: 263640 bytes (0.3 MB / 0 MWords) used by master data server.

 ----------------------------------------
 CPU timing information for all processes
 ========================================
 0: 6171.628 + 1.640 = 6173.268
 ----------------------------------------
 ddikick.x: exited gracefully.
