----- GAMESS execution script -----

          ******************************************************
          *         GAMESS VERSION =  5 DEC 2014 (R1)          *
          *             FROM IOWA STATE UNIVERSITY             *
          * M.W.SCHMIDT, K.K.BALDRIDGE, J.A.BOATZ, S.T.ELBERT, *
          *   M.S.GORDON, J.H.JENSEN, S.KOSEKI, N.MATSUNAGA,   *
          *          K.A.NGUYEN, S.J.SU, T.L.WINDUS,           *
          *       TOGETHER WITH M.DUPUIS, J.A.MONTGOMERY       *
          *         J.COMPUT.CHEM.  14, 1347-1363(1993)        *
          **************** 64 BIT LINUX VERSION ****************

 EXECUTION OF GAMESS BEGUN Wed Nov 23 20:26:57 2016

            ECHO OF THE FIRST FEW INPUT CARDS -
 INPUT CARD>! SELECT RESTRICTED HARTREE-FOCK AS DEFAULT                                     
 INPUT CARD>$contrl scftyp=rhf $end                                                         
 INPUT CARD>                                                                                
 INPUT CARD>! THEORY: HF OR DFT                                                             
 INPUT CARD> $contrl mplevl=0 $end                                                          
 INPUT CARD>                                                                                
 INPUT CARD> $system timlim=10000 mwords=20 $end                                            
 INPUT CARD> $SCF DIRSCF=.TRUE. $end                                                        
 INPUT CARD>                                                                                
 INPUT CARD>                                                                                
 INPUT CARD>! BASIS SETS                                                                    
 INPUT CARD>! 6-311G(d,p)                                                                   
 INPUT CARD> $BASIS GBASIS=N311 NGAUSS=6 NDFUNC=1 NPFUNC=1 $END                             
 INPUT CARD>                                                                                
 INPUT CARD>! One of the following                                                          
 INPUT CARD> $guess guess=HUCKEL $end                                                       
 INPUT CARD>                                                                                
 INPUT CARD> $statpt projct=.FALSE. $end                                                    
 INPUT CARD> $STATPT IFREEZ(1)=1,2,3 $END                                                   
 INPUT CARD>                                                                                
 INPUT CARD>! Optimize the geometry with COSMO effects                                      
 INPUT CARD> $statpt opttol=0.0005 nstep=50 $end                                            
 INPUT CARD> $contrl nzvar=1 $end                                                           
 INPUT CARD> $zmat dlc=.t. auto=.t. $end                                                    
 INPUT CARD> $contrl runtyp=OPTIMIZE maxit=200 $end                                         
 INPUT CARD>                                                                                
 INPUT CARD>! Run COSMO on perfect conductor                                                
 INPUT CARD> $COSGMS PRFCND=.TRUE. $end                                                     
 INPUT CARD>                                                                                
 INPUT CARD>! Specifying RSOLV                                                              
 INPUT CARD> $COSGMS COSRAD = 1.4 $end                                                      
 INPUT CARD>                                                                                
 INPUT CARD>! available memory                                                              
 INPUT CARD> $SYSTEM MWORDS=40 $END                                                         
 INPUT CARD>                                                                                
 INPUT CARD> $DATA                                                                          
 INPUT CARD>Biphenyl, ID: C92524                                                            
 INPUT CARD>C1                                                                              
 INPUT CARD>C      6.0      2.4570000000    0.4200000000    3.8788000000                    
 INPUT CARD>C      6.0      3.7055000000    0.5862000000    3.2689000000                    
 INPUT CARD>C      6.0      1.3209000000    0.3173000000    3.0680000000                    
 INPUT CARD>C      6.0      2.3409000000    0.3545000000    5.3426000000                    
 INPUT CARD>C      6.0      3.8141000000    0.6479000000    1.8858000000                    
 INPUT CARD>C      6.0      1.4317000000    0.3793000000    1.6851000000                    
 INPUT CARD>C      6.0      1.0920000000    0.1905000000    5.9523000000                    
 INPUT CARD>C      6.0      3.4771000000    0.4547000000    6.1535000000                    
 INPUT CARD>C      6.0      2.6779000000    0.5447000000    1.0901000000                    
 INPUT CARD>C      6.0      0.9835000000    0.1286000000    7.3354000000                    
 INPUT CARD>C      6.0      3.3662000000    0.3926000000    7.5365000000                    
 INPUT CARD>C      6.0      2.1196000000    0.2294000000    8.1313000000                    
   40000000 WORDS OF MEMORY AVAILABLE

     BASIS OPTIONS
     -------------
     GBASIS=N311         IGAUSS=       6      POLAR=POPN311 
     NDFUNC=       1     NFFUNC=       0     DIFFSP=       F
     NPFUNC=       1      DIFFS=       F     BASNAM=        


     RUN TITLE
     ---------
 Biphenyl, ID: C92524                                                            

 THE POINT GROUP OF THE MOLECULE IS C1      
 THE ORDER OF THE PRINCIPAL AXIS IS     0

 ATOM      ATOMIC                      COORDINATES (BOHR)
           CHARGE         X                   Y                   Z
 C           6.0     4.6430567518        0.7936849148        7.3298691612
 C           6.0     7.0023796475        1.1077573740        6.1773252813
 C           6.0     2.4961390572        0.5996100559        5.7976793303
 C           6.0     4.4236595647        0.6699078626       10.0960500620
 C           6.0     7.2076038898        1.2243534674        3.5636452676
 C           6.0     2.7055206966        0.7167730671        3.1843772619
 C           6.0     2.0635807786        0.3599928007       11.2482159967
 C           6.0     6.5707662319        0.8592584066       11.6284288654
 C           6.0     5.0604972225        1.0293337455        2.0599902992
 C           6.0     1.8585455089        0.2430187620       13.8618960103
 C           6.0     6.3611956199        0.7419064228       14.2419199065
 C           6.0     4.0054632036        0.4335031416       15.3659289240
 H           1.0     8.6993535845        1.2617700420        7.3701203247
 H           1.0     0.6338140963        0.3524338967        6.6900079417
 H           1.0     9.0655824809        1.4707737362        2.6871903545
 H           1.0     1.0096805952        0.5620045087        2.0089676975
 H           1.0     0.3658509512        0.2093816394       10.0561768437
 H           1.0     8.4336581106        1.1028440864       10.7361002540
 H           1.0     5.2237695479        1.1211744285        0.0000000000
 H           1.0     0.0000000000        0.0000000000       14.7379729782
 H           1.0     8.0570357213        0.8927065566       15.4177074160
 H           1.0     3.8421908782        0.3410955408       17.4259192232

          INTERNUCLEAR DISTANCES (ANGS.)




     $CONTRL OPTIONS
     ---------------
 SCFTYP=RHF          RUNTYP=OPTIMIZE     EXETYP=RUN     
 MPLEVL=       0     CITYP =NONE         CCTYP =NONE         VBTYP =NONE    
 DFTTYP=NONE         TDDFT =NONE    
 MULT  =       1     ICHARG=       0     NZVAR =       1     COORD =UNIQUE  
 PP    =NONE         RELWFN=NONE         LOCAL =NONE         NUMGRD=       F
 ISPHER=      -1     NOSYM =       0     MAXIT =     200     UNITS =ANGS    
 PLTORB=       F     MOLPLT=       F     AIMPAC=       F     FRIEND=        
 NPRINT=       7     IREST =       0     GEOM  =INPUT   
 NORMF =       0     NORMP =       0     ITOL  =      20     ICUT  =       9
 INTTYP=BEST         GRDTYP=BEST         QMTTOL= 1.0E-06

     $SYSTEM OPTIONS
     ---------------
  REPLICATED MEMORY=    40000000 WORDS (ON EVERY NODE).
 DISTRIBUTED MEMDDI=           0 MILLION WORDS IN AGGREGATE,
 MEMDDI DISTRIBUTED OVER   1 PROCESSORS IS           0 WORDS/PROCESSOR.
 TOTAL MEMORY REQUESTED ON EACH PROCESSOR=    40000000 WORDS.
 TIMLIM=       10000.00 MINUTES, OR       6.9 DAYS.
 PARALL= F  BALTYP=  DLB     KDIAG=    0  COREFL= F
 MXSEQ2=     300 MXSEQ3=     150  mem10=         0

     $COSGMS OPTIONS
     ---------------
     EPSI  =   INFTY     NSPA  =      92     COSRAD=    1.40
     DISEX =   10.00     OUTCHG=DBLCAV       COSBUG=       F
     COSWRT=       F     DCOSMO=       F

     SYMMETRY COORDINATES WILL NOT BE USED FOR 
     THE COSMO CALCULATION, EVEN IF SPECIFIED:
         -- SWITCHING TO C1 POINT GROUP --


     DEFINITION OF CAVITY
     ---------------------------
     ATOM         COORDINATES           RADIUS 
     1    4.6431    0.7937    7.3299    2.0000
     2    7.0024    1.1078    6.1773    2.0000
     3    2.4961    0.5996    5.7977    2.0000
     4    4.4237    0.6699   10.0961    2.0000
     5    7.2076    1.2244    3.5636    2.0000
     6    2.7055    0.7168    3.1844    2.0000
     7    2.0636    0.3600   11.2482    2.0000
     8    6.5708    0.8593   11.6284    2.0000
     9    5.0605    1.0293    2.0600    2.0000
    10    1.8585    0.2430   13.8619    2.0000
    11    6.3612    0.7419   14.2419    2.0000
    12    4.0055    0.4335   15.3659    2.0000
    13    8.6994    1.2618    7.3701    1.3000
    14    0.6338    0.3524    6.6900    1.3000
    15    9.0656    1.4708    2.6872    1.3000
    16    1.0097    0.5620    2.0090    1.3000
    17    0.3659    0.2094   10.0562    1.3000
    18    8.4337    1.1028   10.7361    1.3000
    19    5.2238    1.1212    0.0000    1.3000
    20    0.0000    0.0000   14.7380    1.3000
    21    8.0570    0.8927   15.4177    1.3000
    22    3.8422    0.3411   17.4259    1.3000

          ----------------
          PROPERTIES INPUT
          ----------------

     MOMENTS            FIELD           POTENTIAL          DENSITY
 IEMOM =       1   IEFLD =       0   IEPOT =       0   IEDEN =       0
 WHERE =COMASS     WHERE =NUCLEI     WHERE =NUCLEI     WHERE =NUCLEI  
 OUTPUT=BOTH       OUTPUT=BOTH       OUTPUT=BOTH       OUTPUT=BOTH    
 IEMINT=       0   IEFINT=       0                     IEDINT=       0
                                                       MORB  =       0
          EXTRAPOLATION IN EFFECT
          SOSCF IN EFFECT
 ORBITAL PRINTING OPTION: NPREO=     1   288     2     1

     -------------------------------
     INTEGRAL TRANSFORMATION OPTIONS
     -------------------------------
     NWORD  =            0
     CUTOFF = 1.0E-09     MPTRAN =       0
     DIRTRF =       T     AOINTS =DUP     

          ----------------------
          INTEGRAL INPUT OPTIONS
          ----------------------
 NOPK  =       1 NORDER=       0 SCHWRZ=       T


 -----------------------------------------------
  STATISTICS ON AUTOMATIC COORDINATE GENERATION 
 -----------------------------------------------
  NUMBER OF USER SPECIFIED BONDS                             0
  NUMBER OF BONDS                                           23
  NUMBER OF ANGLES                                          36
  NUMBER OF TORSIONS                                        52
  NUMBER OF EXTRA COORD.                                     0
  NUMBER OF EXTRA COORD. FOR CONSTRAINTS                     0
  NUMBER OF CONSTRAINED COORD.                               0

  TOTAL NUMBER OF PRIMITIVES                               111
 -----------------------------------------------

   --- ENCODED Z MATRIX ---
 COORD  TYPE   I   J   K   L   M   N
    1      1    1   2
    2      1    1   4
    3      1    1   3
    4      1    2   5
    5      1    2  13
    6      1    3   6
    7      1    3  14
    8      1    4   8
    9      1    4   7
   10      1    5  15
   11      1    5   9
   12      1    6   9
   13      1    6  16
   14      1    7  10
   15      1    7  17
   16      1    8  11
   17      1    8  18
   18      1    9  19
   19      1   10  12
   20      1   10  20
   21      1   11  12
   22      1   11  21
   23      1   12  22
   24      2    1   3  14
   25      2    1   2  13
   26      2    1   3   6
   27      2    1   4   7
   28      2    1   2   5
   29      2    1   4   8
   30      2    2   5  15
   31      2    2   5   9
   32      2    2   1   4
   33      2    2   1   3
   34      2    3   6   9
   35      2    3   1   4
   36      2    3   6  16
   37      2    4   7  17
   38      2    4   8  18
   39      2    4   8  11
   40      2    4   7  10
   41      2    5   9  19
   42      2    5   9   6
   43      2    5   2  13
   44      2    6   3  14
   45      2    6   9  19
   46      2    7  10  20
   47      2    7  10  12
   48      2    7   4   8
   49      2    8  11  21
   50      2    8  11  12
   51      2    9   6  16
   52      2    9   5  15
   53      2   10   7  17
   54      2   10  12  22
   55      2   10  12  11
   56      2   11   8  18
   57      2   11  12  22
   58      2   12  11  21
   59      2   12  10  20
   60      3    1   2   5  15
   61      3    1   3   6   9
   62      3    1   4   7  10
   63      3    1   4   7  17
   64      3    1   4   8  18
   65      3    1   4   8  11
   66      3    1   3   6  16
   67      3    1   2   5   9
   68      3    2   1   3  14
   69      3    2   5   9  19
   70      3    2   5   9   6
   71      3    2   1   3   6
   72      3    2   1   4   7
   73      3    2   1   4   8
   74      3    3   1   2   5
   75      3    3   1   4   7
   76      3    3   6   9  19
   77      3    3   6   9   5
   78      3    3   1   4   8
   79      3    3   1   2  13
   80      3    4   7  10  20
   81      3    4   7  10  12
   82      3    4   1   2   5
   83      3    4   8  11  21
   84      3    4   8  11  12
   85      3    4   1   3   6
   86      3    4   1   2  13
   87      3    4   1   3  14
   88      3    5   9   6  16
   89      3    6   9   5  15
   90      3    7   4   8  11
   91      3    7   4   8  18
   92      3    7  10  12  22
   93      3    7  10  12  11
   94      3    8   4   7  10
   95      3    8   4   7  17
   96      3    8  11  12  22
   97      3    8  11  12  10
   98      3    9   5   2  13
   99      3    9   6   3  14
  100      3   10  12  11  21
  101      3   11  12  10  20
  102      3   12  11   8  18
  103      3   12  10   7  17
  104      3   13   2   5  15
  105      3   14   3   6  16
  106      3   15   5   9  19
  107      3   16   6   9  19
  108      3   17   7  10  20
  109      3   18   8  11  21
  110      3   20  10  12  22
  111      3   21  11  12  22

          INDEP./SYM. INTERNAL COORDINATES
          --------------------------------
 CRD  1=   0.4685 ( 27) -0.4685 ( 29) -0.4685 ( 32)  0.4685 ( 35)
 CRD  2=   0.2061 (  1)  0.5621 (  2)  0.2061 (  3)  0.1711 (  4)  0.1711 (  6)
           0.2061 (  8)  0.2061 (  9)  0.1711 ( 14)  0.1711 ( 16)  0.1085 ( 26)
           0.1361 ( 27)  0.1084 ( 28)  0.1361 ( 29)  0.1361 ( 32) -0.2722 ( 33)
           0.1361 ( 35)  0.1084 ( 39)  0.1085 ( 40) -0.1107 ( 43) -0.1107 ( 44)
          -0.2722 ( 48) -0.1107 ( 53) -0.1107 ( 56)
 CRD  3=  -0.1014 ( 61) -0.1014 ( 67) -0.4569 ( 72) -0.4570 ( 73) -0.4571 ( 75)
          -0.4572 ( 78) -0.1014 ( 81) -0.1014 ( 84)
 CRD  4=  -0.1063 ( 60)  0.3473 ( 62)  0.2282 ( 63) -0.2283 ( 64) -0.3473 ( 65)
           0.1062 ( 66) -0.1225 ( 71) -0.2294 ( 72)  0.1225 ( 74)  0.2288 ( 78)
          -0.1063 ( 80)  0.3473 ( 82)  0.1062 ( 83) -0.3472 ( 85)  0.2283 ( 86)
          -0.2283 ( 87) -0.1225 ( 90)  0.1226 ( 94)
 CRD  5=   0.2877 (  1) -0.2877 (  3)  0.1149 (  4) -0.1149 (  6) -0.2877 (  8)
           0.2877 (  9)  0.1149 ( 14) -0.1149 ( 16) -0.1254 ( 24)  0.1254 ( 25)
           0.3344 ( 27) -0.3343 ( 29)  0.3343 ( 32) -0.3343 ( 35)  0.1254 ( 37)
          -0.1254 ( 38)
 CRD  6=   0.2115 (  1)  0.2116 (  3) -0.2112 (  8) -0.2113 (  9) -0.2353 ( 11)
          -0.2355 ( 12) -0.1635 ( 18)  0.2352 ( 19)  0.2349 ( 21)  0.1631 ( 23)
           0.2137 ( 24)  0.2137 ( 25)  0.1183 ( 30)  0.1183 ( 36) -0.2134 ( 37)
          -0.2132 ( 38)  0.1543 ( 42) -0.1241 ( 43) -0.1243 ( 44) -0.1180 ( 46)
          -0.1181 ( 49) -0.1429 ( 51) -0.1430 ( 52)  0.1242 ( 53) -0.1540 ( 55)
           0.1238 ( 56)  0.1428 ( 58)  0.1427 ( 59)
 CRD  7=   0.1827 (  1)  0.1827 (  3) -0.1466 (  4) -0.1464 (  6)  0.1829 (  8)
           0.1830 (  9) -0.2144 ( 11) -0.2142 ( 12) -0.1469 ( 14) -0.1464 ( 16)
          -0.1941 ( 18) -0.2149 ( 19) -0.2145 ( 21) -0.1944 ( 23)  0.2248 ( 24)
           0.2249 ( 25) -0.1098 ( 26) -0.1097 ( 28)  0.2253 ( 37)  0.2251 ( 38)
          -0.1100 ( 39) -0.1098 ( 40)  0.1834 ( 42) -0.1152 ( 43) -0.1150 ( 44)
          -0.1003 ( 51) -0.1003 ( 52) -0.1156 ( 53)  0.1836 ( 55) -0.1151 ( 56)
          -0.1006 ( 58) -0.1005 ( 59)
 CRD  8=  -0.2338 (  4) -0.1013 (  5)  0.2340 (  6)  0.1013 (  7) -0.2070 ( 11)
           0.2071 ( 12) -0.2349 ( 14) -0.1018 ( 15)  0.2352 ( 16)  0.1016 ( 17)
          -0.2077 ( 19)  0.2082 ( 21) -0.1232 ( 24)  0.1232 ( 25)  0.1236 ( 37)
          -0.1242 ( 38) -0.2401 ( 41) -0.2202 ( 43)  0.2202 ( 44)  0.2400 ( 45)
          -0.2210 ( 53) -0.2410 ( 54)  0.2213 ( 56)  0.2413 ( 57)
 CRD  9=  -0.2429 (  4)  0.2430 (  6) -0.1850 ( 11)  0.1851 ( 12)  0.2418 ( 14)
          -0.2419 ( 16)  0.1840 ( 19) -0.1841 ( 21) -0.1441 ( 24)  0.1441 ( 25)
          -0.1434 ( 37)  0.1436 ( 38) -0.2399 ( 41) -0.2033 ( 43)  0.2033 ( 44)
           0.2398 ( 45)  0.2022 ( 53)  0.2387 ( 54) -0.2023 ( 56) -0.2388 ( 57)
 CRD 10=   0.1418 (  1)  0.1417 (  3) -0.1671 (  4) -0.1672 (  6) -0.1410 (  8)
          -0.1411 (  9)  0.2059 ( 11)  0.2059 ( 12)  0.1666 ( 14)  0.1667 ( 16)
          -0.2048 ( 19) -0.2051 ( 21)  0.1745 ( 24)  0.1745 ( 25) -0.1944 ( 30)
          -0.1944 ( 36) -0.1738 ( 37) -0.1739 ( 38) -0.1630 ( 43) -0.1630 ( 44)
           0.1934 ( 46)  0.1937 ( 49)  0.2303 ( 51)  0.2304 ( 52)  0.1623 ( 53)
           0.1623 ( 56) -0.2295 ( 58) -0.2294 ( 59)
 CRD 11=  -0.1533 (  1) -0.1534 (  3)  0.1189 (  4)  0.1190 (  6) -0.1539 (  8)
          -0.1539 (  9) -0.2315 ( 11) -0.2315 ( 12)  0.1196 ( 14)  0.1197 ( 16)
          -0.2323 ( 19) -0.2325 ( 21) -0.1565 ( 24) -0.1565 ( 25)  0.2059 ( 30)
           0.2059 ( 36) -0.1571 ( 37) -0.1573 ( 38)  0.1676 ( 43)  0.1676 ( 44)
           0.2066 ( 46)  0.2068 ( 49) -0.2269 ( 51) -0.2270 ( 52)  0.1682 ( 53)
           0.1683 ( 56) -0.2280 ( 58) -0.2279 ( 59)
 CRD 12=  -0.1088 (  1)  0.1089 (  3) -0.1111 (  4)  0.1063 (  5)  0.1113 (  6)
          -0.1061 (  7) -0.1089 (  8)  0.1087 (  9) -0.1373 ( 10)  0.1926 ( 11)
          -0.1923 ( 12)  0.1374 ( 13)  0.1111 ( 14) -0.1060 ( 15) -0.1109 ( 16)
           0.1060 ( 17) -0.1923 ( 19)  0.1371 ( 20)  0.1920 ( 21) -0.1372 ( 22)
          -0.1366 ( 24)  0.1366 ( 25)  0.1374 ( 26) -0.1374 ( 28) -0.2455 ( 30)
           0.1683 ( 31) -0.1684 ( 34)  0.2456 ( 36) -0.1363 ( 37)  0.1362 ( 38)
          -0.1372 ( 39)  0.1372 ( 40)  0.1608 ( 41) -0.1609 ( 45)  0.2453 ( 46)
          -0.1680 ( 47) -0.2451 ( 49)  0.1681 ( 50) -0.1605 ( 54)  0.1606 ( 57)
 CRD 13=   0.1183 (  4) -0.1119 (  5) -0.1188 (  6)  0.1115 (  7)  0.1365 ( 10)
          -0.1670 ( 11)  0.1664 ( 12) -0.1369 ( 13)  0.1189 ( 14) -0.1119 ( 15)
          -0.1186 ( 16)  0.1119 ( 17) -0.1671 ( 19)  0.1369 ( 20)  0.1669 ( 21)
          -0.1370 ( 22)  0.1969 ( 24) -0.1968 ( 25) -0.1481 ( 26)  0.1482 ( 28)
           0.2387 ( 30) -0.1728 ( 31)  0.1730 ( 34) -0.2389 ( 36) -0.1971 ( 37)
           0.1970 ( 38) -0.1484 ( 39)  0.1484 ( 40) -0.1290 ( 41)  0.1291 ( 45)
           0.2393 ( 46) -0.1732 ( 47) -0.2391 ( 49)  0.1732 ( 50) -0.1293 ( 54)
           0.1293 ( 57)
 CRD 14=   0.1723 (  1)  0.1722 (  3)  0.1878 (  4)  0.1637 (  5)  0.1876 (  6)
           0.1641 (  7) -0.1937 (  8) -0.1938 (  9)  0.1585 ( 10)  0.1659 ( 11)
           0.1660 ( 12)  0.1580 ( 13) -0.2111 ( 14) -0.1849 ( 15) -0.2113 ( 16)
          -0.1849 ( 17) -0.1865 ( 19) -0.1784 ( 20) -0.1865 ( 21) -0.1785 ( 22)
           0.1201 ( 30)  0.1481 ( 33)  0.1198 ( 36)  0.1474 ( 42)  0.1162 ( 43)
           0.1162 ( 44) -0.1359 ( 46) -0.1680 ( 48) -0.1361 ( 49) -0.1317 ( 53)
          -0.1672 ( 55) -0.1319 ( 56)
 CRD 15=   0.1885 (  1)  0.1883 (  3)  0.2065 (  4)  0.1837 (  5)  0.2063 (  6)
           0.1840 (  7)  0.1663 (  8)  0.1663 (  9)  0.1775 ( 10)  0.1811 ( 11)
           0.1811 ( 12)  0.1770 ( 13)  0.1822 ( 14)  0.1627 ( 15)  0.1823 ( 16)
           0.1629 ( 17)  0.1596 ( 19)  0.1569 ( 20)  0.1598 ( 21)  0.1568 ( 22)
           0.1407 ( 30)  0.1738 ( 33)  0.1406 ( 36)  0.1730 ( 42)  0.1363 ( 43)
           0.1365 ( 44)  0.1252 ( 46)  0.1547 ( 48)  0.1252 ( 49)  0.1213 ( 53)
           0.1541 ( 55)  0.1214 ( 56)
 CRD 16=  -0.1273 (  5)  0.1269 (  7)  0.1210 ( 10) -0.1214 ( 13) -0.1272 ( 15)
           0.1271 ( 17)  0.1212 ( 20) -0.1213 ( 22) -0.1726 ( 26)  0.1728 ( 28)
          -0.1689 ( 31)  0.1690 ( 34) -0.1727 ( 39)  0.1728 ( 40)  0.2279 ( 41)
          -0.1355 ( 43)  0.1353 ( 44) -0.2277 ( 45) -0.1690 ( 47)  0.1690 ( 50)
          -0.2570 ( 51)  0.2571 ( 52) -0.1356 ( 53)  0.2280 ( 54)  0.1355 ( 56)
          -0.2279 ( 57) -0.2572 ( 58)  0.2573 ( 59)
 CRD 17=  -0.1348 (  5)  0.1344 (  7)  0.1221 ( 10) -0.1224 ( 13)  0.1345 ( 15)
          -0.1345 ( 17) -0.1221 ( 20)  0.1222 ( 22) -0.1703 ( 26)  0.1704 ( 28)
          -0.1663 ( 31)  0.1664 ( 34)  0.1702 ( 39) -0.1703 ( 40)  0.2074 ( 41)
          -0.1623 ( 43)  0.1622 ( 44) -0.2073 ( 45)  0.1662 ( 47) -0.1662 ( 50)
          -0.2513 ( 51)  0.2513 ( 52)  0.1622 ( 53) -0.2073 ( 54) -0.1622 ( 56)
           0.2073 ( 57)  0.2511 ( 58) -0.2512 ( 59)
 CRD 18=  -0.2158 ( 62) -0.1707 ( 63)  0.1707 ( 64)  0.2158 ( 65) -0.1956 ( 68)
          -0.1303 ( 69) -0.1707 ( 70) -0.2407 ( 71)  0.2407 ( 74)  0.1303 ( 76)
           0.1707 ( 77)  0.1956 ( 79)  0.2158 ( 82) -0.2158 ( 85)  0.1707 ( 86)
          -0.1707 ( 87)  0.1202 ( 88) -0.1202 ( 89)  0.2407 ( 90)  0.1956 ( 91)
           0.1303 ( 92)  0.1707 ( 93) -0.2407 ( 94) -0.1956 ( 95) -0.1303 ( 96)
          -0.1707 ( 97) -0.1202 (100)  0.1202 (101)
 CRD 19=  -0.1356 (  1) -0.1356 (  3) -0.1867 (  4) -0.1296 (  5) -0.1867 (  6)
          -0.1297 (  7)  0.1356 (  8)  0.1356 (  9)  0.1050 ( 10)  0.1051 ( 13)
           0.1867 ( 14)  0.1297 ( 15)  0.1867 ( 16)  0.1296 ( 17) -0.3140 ( 18)
          -0.1050 ( 20) -0.1050 ( 22)  0.3139 ( 23) -0.1814 ( 31)  0.1159 ( 33)
          -0.1815 ( 34) -0.1214 ( 41)  0.2427 ( 42) -0.1213 ( 45)  0.1814 ( 47)
          -0.1159 ( 48)  0.1813 ( 50)  0.1213 ( 54) -0.2426 ( 55)  0.1213 ( 57)
 CRD 20=  -0.1898 (  2)  0.2083 (  5)  0.2083 (  7) -0.1969 ( 10) -0.1969 ( 13)
           0.2084 ( 15)  0.2084 ( 17)  0.2901 ( 18) -0.1970 ( 20) -0.1969 ( 22)
           0.2903 ( 23) -0.1085 ( 26) -0.1085 ( 28)  0.1837 ( 31)  0.1837 ( 34)
          -0.1085 ( 39) -0.1085 ( 40)  0.1039 ( 41) -0.2077 ( 42)  0.1038 ( 45)
           0.1838 ( 47)  0.1837 ( 50) -0.1015 ( 51) -0.1015 ( 52)  0.1039 ( 54)
          -0.2078 ( 55)  0.1039 ( 57) -0.1015 ( 58) -0.1015 ( 59)
 CRD 21=   0.2009 ( 60)  0.2460 ( 61)  0.1226 ( 62)  0.1227 ( 65)  0.2010 ( 66)
           0.2460 ( 67) -0.1224 ( 69) -0.1224 ( 70) -0.1228 ( 71) -0.1227 ( 74)
          -0.1223 ( 76) -0.1223 ( 77) -0.2007 ( 80) -0.2457 ( 81) -0.1228 ( 82)
          -0.2008 ( 83) -0.2458 ( 84) -0.1227 ( 85)  0.1226 ( 90)  0.1222 ( 92)
           0.1222 ( 93)  0.1227 ( 94)  0.1223 ( 96)  0.1223 ( 97)  0.2014 ( 98)
           0.2013 ( 99) -0.2012 (102) -0.2012 (103)  0.1563 (104)  0.1563 (105)
          -0.1562 (108) -0.1562 (109)
 CRD 22=  -0.1801 ( 60) -0.2269 ( 61)  0.1133 ( 62)  0.1134 ( 65) -0.1802 ( 66)
          -0.2270 ( 67)  0.1129 ( 69)  0.1129 ( 70)  0.1132 ( 71)  0.1143 ( 72)
           0.1143 ( 73)  0.1133 ( 74)  0.1143 ( 75)  0.1128 ( 76)  0.1129 ( 77)
           0.1143 ( 78) -0.1804 ( 80) -0.2271 ( 81)  0.1133 ( 82) -0.1804 ( 83)
          -0.2272 ( 84)  0.1132 ( 85)  0.1134 ( 90)  0.1129 ( 92)  0.1130 ( 93)
           0.1133 ( 94)  0.1130 ( 96)  0.1130 ( 97) -0.2131 ( 98) -0.2130 ( 99)
          -0.2133 (102) -0.2132 (103) -0.1663 (104) -0.1663 (105) -0.1665 (108)
          -0.1665 (109)
 CRD 23=   0.1521 (  4) -0.2074 (  5)  0.1521 (  6) -0.2075 (  7)  0.2438 ( 10)
           0.2438 ( 13) -0.1521 ( 14)  0.2074 ( 15) -0.1521 ( 16)  0.2074 ( 17)
          -0.2438 ( 20) -0.2438 ( 22)  0.1730 ( 26) -0.1235 ( 27)  0.1730 ( 28)
          -0.1235 ( 29)  0.1235 ( 32) -0.2471 ( 33)  0.1235 ( 35) -0.1730 ( 39)
          -0.1730 ( 40) -0.1842 ( 43) -0.1842 ( 44)  0.2471 ( 48)  0.1842 ( 53)
           0.1842 ( 56)
 CRD 24=  -0.1343 ( 60)  0.1343 ( 66)  0.1842 ( 68)  0.2113 ( 70)  0.1018 ( 71)
          -0.1438 ( 72) -0.1018 ( 74) -0.2113 ( 77)  0.1438 ( 78) -0.1843 ( 79)
          -0.1343 ( 80)  0.1342 ( 83) -0.2916 ( 88)  0.2915 ( 89)  0.1018 ( 90)
           0.1843 ( 91)  0.2113 ( 93) -0.1018 ( 94) -0.1843 ( 95) -0.2113 ( 97)
          -0.2915 (100)  0.2916 (101)  0.1717 (106) -0.1718 (107)  0.1718 (110)
          -0.1717 (111)
 CRD 25=   0.2254 (  1) -0.2254 (  3)  0.2757 (  5) -0.2756 (  7)  0.2254 (  8)
          -0.2254 (  9)  0.1469 ( 10) -0.1469 ( 13) -0.2757 ( 15)  0.2756 ( 17)
          -0.1469 ( 20)  0.1469 ( 22) -0.2281 ( 24)  0.2281 ( 25) -0.2280 ( 37)
           0.2281 ( 38) -0.1723 ( 43)  0.1723 ( 44)  0.1722 ( 53) -0.1723 ( 56)
 CRD 26=  -0.2576 ( 60) -0.1614 ( 62)  0.1614 ( 65)  0.2575 ( 66)  0.1019 ( 68)
           0.1138 ( 70) -0.1155 ( 73)  0.1154 ( 75) -0.1138 ( 77) -0.1019 ( 79)
           0.2576 ( 80)  0.1614 ( 82) -0.2576 ( 83) -0.1613 ( 85) -0.2901 ( 88)
           0.2901 ( 89) -0.1019 ( 91) -0.1139 ( 93)  0.1019 ( 95)  0.1138 ( 97)
           0.2901 (100) -0.2901 (101) -0.1059 (104)  0.1058 (105)  0.1247 (106)
          -0.1247 (107)  0.1059 (108) -0.1058 (109) -0.1247 (110)  0.1247 (111)
 CRD 27=   0.1308 ( 63) -0.1307 ( 64)  0.1912 ( 68) -0.2676 ( 69) -0.1301 ( 70)
           0.2676 ( 76)  0.1302 ( 77) -0.1912 ( 79) -0.1309 ( 86)  0.1310 ( 87)
          -0.1910 ( 91)  0.2674 ( 92)  0.1301 ( 93)  0.1911 ( 95) -0.2673 ( 96)
          -0.1300 ( 97)  0.2370 ( 98) -0.2370 ( 99)  0.2368 (102) -0.2368 (103)
           0.1239 (104) -0.1240 (105) -0.1542 (106)  0.1543 (107) -0.1239 (108)
           0.1238 (109)  0.1542 (110) -0.1541 (111)
 CRD 28=   0.1853 ( 63) -0.1853 ( 64) -0.2091 ( 68)  0.2605 ( 69) -0.2606 ( 76)
           0.2091 ( 79)  0.1852 ( 86) -0.1852 ( 87) -0.2093 ( 91)  0.2608 ( 92)
           0.2093 ( 95) -0.2608 ( 96) -0.2284 ( 98)  0.2285 ( 99)  0.2287 (102)
          -0.2287 (103) -0.1012 (104)  0.1013 (105)  0.1330 (106) -0.1331 (107)
          -0.1013 (108)  0.1013 (109)  0.1333 (110) -0.1332 (111)
 CRD 29=   0.4016 (  2)  0.1769 (  5)  0.1769 (  7) -0.2045 ( 10) -0.2045 ( 13)
           0.1769 ( 15)  0.1768 ( 17) -0.3069 ( 18) -0.2045 ( 20) -0.2044 ( 22)
          -0.3070 ( 23) -0.1364 ( 24) -0.1363 ( 25) -0.1353 ( 30) -0.1354 ( 36)
          -0.1364 ( 37) -0.1363 ( 38)  0.1687 ( 43)  0.1688 ( 44) -0.1353 ( 46)
          -0.1353 ( 49)  0.1275 ( 51)  0.1274 ( 52)  0.1688 ( 53)  0.1687 ( 56)
           0.1275 ( 58)  0.1275 ( 59)
 CRD 30=  -0.2641 (  5)  0.2638 (  7) -0.3262 ( 10)  0.3262 ( 13) -0.2639 ( 15)
           0.2641 ( 17) -0.3262 ( 20)  0.3262 ( 22)  0.1116 ( 27) -0.1116 ( 29)
           0.1116 ( 32) -0.1116 ( 35)  0.1778 ( 41) -0.1779 ( 45)  0.1778 ( 54)
          -0.1778 ( 57)
 CRD 31=   0.1144 (  1) -0.1143 (  3)  0.1144 (  8) -0.1143 (  9) -0.2954 ( 10)
           0.2954 ( 13)  0.2954 ( 20) -0.2955 ( 22)  0.1735 ( 30) -0.1734 ( 36)
           0.2549 ( 41) -0.2550 ( 45) -0.1734 ( 46)  0.1735 ( 49)  0.1551 ( 51)
          -0.1552 ( 52) -0.2550 ( 54)  0.2550 ( 57) -0.1552 ( 58)  0.1552 ( 59)
 CRD 32=  -0.1737 (  4) -0.1905 (  5) -0.1737 (  6) -0.1910 (  7)  0.1736 ( 14)
           0.1908 ( 15)  0.1736 ( 16)  0.1906 ( 17)  0.4749 ( 18) -0.4747 ( 23)
           0.1605 ( 30)  0.1202 ( 33)  0.1607 ( 36) -0.1606 ( 46) -0.1202 ( 48)
          -0.1606 ( 49) -0.1275 ( 51) -0.1272 ( 52)  0.1273 ( 58)  0.1274 ( 59)
 CRD 33=  -0.1040 (  1) -0.3215 (  2) -0.1022 (  3)  0.2164 (  4)  0.1662 (  5)
           0.2165 (  6)  0.1692 (  7) -0.1024 (  8) -0.1037 (  9)  0.1608 ( 10)
          -0.1064 ( 11) -0.1081 ( 12)  0.1585 ( 13)  0.2165 ( 14)  0.1668 ( 15)
           0.2165 ( 16)  0.1687 ( 17) -0.3395 ( 18) -0.1066 ( 19)  0.1606 ( 20)
          -0.1079 ( 21)  0.1586 ( 22) -0.3397 ( 23) -0.1026 ( 30) -0.1044 ( 36)
          -0.1030 ( 46) -0.1042 ( 49)
 CRD 34=  -0.1337 (  1)  0.1349 (  3) -0.2209 (  5)  0.2189 (  7)  0.1350 (  8)
          -0.1339 (  9)  0.2005 ( 10)  0.1367 ( 11) -0.1354 ( 12) -0.2022 ( 13)
          -0.2210 ( 15)  0.2193 ( 17)  0.1368 ( 19)  0.2007 ( 20) -0.1356 ( 21)
          -0.2025 ( 22) -0.1931 ( 24)  0.1926 ( 25)  0.1359 ( 30) -0.1346 ( 36)
           0.1928 ( 37) -0.1934 ( 38) -0.1326 ( 43)  0.1337 ( 44)  0.1359 ( 46)
          -0.1348 ( 49)  0.1934 ( 51) -0.1941 ( 52) -0.1327 ( 53)  0.1338 ( 56)
           0.1937 ( 58) -0.1943 ( 59)
 CRD 35=  -0.1547 (  1)  0.1548 (  3) -0.2416 (  5)  0.2411 (  7) -0.1546 (  8)
           0.1547 (  9)  0.2282 ( 10)  0.1568 ( 11) -0.1566 ( 12) -0.2284 ( 13)
           0.2410 ( 15) -0.2413 ( 17) -0.1565 ( 19) -0.2282 ( 20)  0.1566 ( 21)
           0.2280 ( 22) -0.1635 ( 24)  0.1634 ( 25)  0.1075 ( 30) -0.1073 ( 36)
          -0.1633 ( 37)  0.1632 ( 38) -0.1071 ( 46)  0.1073 ( 49)  0.1753 ( 51)
          -0.1755 ( 52) -0.1752 ( 58)  0.1751 ( 59)
 CRD 36=  -0.2247 (  5)  0.2247 (  7)  0.1188 ( 10)  0.1251 ( 11) -0.1250 ( 12)
          -0.1189 ( 13) -0.2247 ( 15)  0.2247 ( 17)  0.1249 ( 19)  0.1188 ( 20)
          -0.1250 ( 21) -0.1188 ( 22)  0.1139 ( 24) -0.1139 ( 25)  0.2127 ( 27)
          -0.2127 ( 29) -0.1472 ( 30)  0.2127 ( 32) -0.2127 ( 35)  0.1472 ( 36)
          -0.1139 ( 37)  0.1139 ( 38) -0.1985 ( 41)  0.1744 ( 43) -0.1744 ( 44)
           0.1985 ( 45) -0.1472 ( 46)  0.1472 ( 49)  0.1744 ( 53) -0.1985 ( 54)
          -0.1744 ( 56)  0.1985 ( 57)
 CRD 37=  -0.2270 (  1) -0.2269 (  3)  0.2382 (  5)  0.2383 (  7)  0.2270 (  8)
           0.2269 (  9)  0.3021 ( 10) -0.1460 ( 11) -0.1460 ( 12)  0.3021 ( 13)
          -0.2383 ( 15) -0.2382 ( 17)  0.1468 ( 18)  0.1460 ( 19) -0.3021 ( 20)
           0.1460 ( 21) -0.3021 ( 22) -0.1468 ( 23)
 CRD 38=  -0.1309 (  1)  0.2993 (  2) -0.1309 (  3) -0.1743 (  4)  0.2507 (  5)
          -0.1744 (  6)  0.2507 (  7) -0.1309 (  8) -0.1309 (  9)  0.2343 ( 10)
          -0.1568 ( 11) -0.1567 ( 12)  0.2343 ( 13) -0.1744 ( 14)  0.2507 ( 15)
          -0.1743 ( 16)  0.2507 ( 17)  0.2702 ( 18) -0.1568 ( 19)  0.2343 ( 20)
          -0.1568 ( 21)  0.2343 ( 22)  0.2703 ( 23)
 CRD 39=   0.2147 ( 60) -0.2149 ( 66)  0.1483 ( 68)  0.2204 ( 69)  0.1048 ( 71)
          -0.1765 ( 72) -0.1049 ( 74) -0.2204 ( 76)  0.1766 ( 78) -0.1485 ( 79)
           0.2148 ( 80) -0.2148 ( 83)  0.1502 ( 88) -0.1499 ( 89)  0.1048 ( 90)
           0.1484 ( 91)  0.2205 ( 92) -0.1048 ( 94) -0.1484 ( 95) -0.2205 ( 96)
           0.1501 (100) -0.1501 (101)  0.2589 (104) -0.2589 (105)  0.2589 (108)
          -0.2589 (109)
 CRD 40=  -0.3130 (  1)  0.3130 (  3)  0.1766 (  5) -0.1768 (  7) -0.3130 (  8)
           0.3130 (  9) -0.2471 ( 11)  0.2472 ( 12) -0.1767 ( 15)  0.1768 ( 17)
           0.2471 ( 19) -0.2472 ( 21)  0.1709 ( 41) -0.1709 ( 45) -0.1709 ( 54)
           0.1708 ( 57)
 CRD 41=   0.1843 (  1)  0.1846 (  3) -0.1102 (  4) -0.1107 (  6) -0.1844 (  8)
          -0.1844 (  9) -0.1737 ( 11) -0.1734 ( 12)  0.1106 ( 14)  0.1103 ( 16)
           0.2891 ( 18)  0.1735 ( 19)  0.1735 ( 21) -0.2890 ( 23) -0.1920 ( 24)
          -0.1918 ( 25) -0.1964 ( 33)  0.1920 ( 37)  0.1919 ( 38)  0.1481 ( 42)
           0.1236 ( 43)  0.1238 ( 44)  0.1964 ( 48)  0.1205 ( 51)  0.1207 ( 52)
          -0.1237 ( 53) -0.1481 ( 55) -0.1237 ( 56) -0.1206 ( 58) -0.1205 ( 59)
 CRD 42=  -0.1944 (  1)  0.1942 (  3)  0.3291 (  4) -0.3290 (  6)  0.1944 (  8)
          -0.1942 (  9) -0.2124 ( 11)  0.2127 ( 12)  0.3291 ( 14) -0.3292 ( 16)
          -0.2127 ( 19)  0.2125 ( 21) -0.1154 ( 24)  0.1156 ( 25) -0.1059 ( 30)
           0.1059 ( 36)  0.1154 ( 37) -0.1156 ( 38) -0.1060 ( 46)  0.1059 ( 49)
          -0.1238 ( 51)  0.1236 ( 52) -0.1237 ( 58)  0.1238 ( 59)
 CRD 43=   0.3531 (  4) -0.1593 (  5) -0.3530 (  6)  0.1592 (  7) -0.1179 ( 10)
           0.1179 ( 13) -0.3530 ( 14)  0.1591 ( 15)  0.3530 ( 16) -0.1593 ( 17)
           0.1179 ( 20) -0.1179 ( 22) -0.1416 ( 24)  0.1415 ( 25) -0.1047 ( 30)
           0.1047 ( 36) -0.1416 ( 37)  0.1415 ( 38)  0.1046 ( 46) -0.1048 ( 49)
          -0.1502 ( 51)  0.1502 ( 52)  0.1503 ( 58) -0.1502 ( 59)
 CRD 44=   0.1827 (  1) -0.1417 (  2)  0.1827 (  3) -0.1821 (  5) -0.1822 (  7)
           0.1830 (  8)  0.1829 (  9)  0.1635 ( 10) -0.1916 ( 11) -0.1915 ( 12)
           0.1635 ( 13) -0.1826 ( 15) -0.1826 ( 17) -0.1917 ( 19)  0.1638 ( 20)
          -0.1918 ( 21)  0.1639 ( 22) -0.1276 ( 26) -0.1276 ( 28) -0.1935 ( 30)
           0.1193 ( 31)  0.1192 ( 34) -0.1935 ( 36) -0.1279 ( 39) -0.1279 ( 40)
           0.1821 ( 43)  0.1821 ( 44) -0.1938 ( 46)  0.1196 ( 47) -0.1938 ( 49)
           0.1196 ( 50)  0.1824 ( 53)  0.1824 ( 56)
 CRD 45=   0.1065 (  1)  0.1067 (  3) -0.2205 (  5) -0.2206 (  7) -0.1062 (  8)
          -0.1064 (  9)  0.2002 ( 10) -0.1198 ( 11) -0.1196 ( 12)  0.2001 ( 13)
           0.2203 ( 15)  0.2201 ( 17)  0.1192 ( 19) -0.1997 ( 20)  0.1195 ( 21)
          -0.1999 ( 22) -0.1824 ( 26) -0.1824 ( 28) -0.1716 ( 30)  0.1729 ( 31)
           0.1119 ( 33)  0.1728 ( 34) -0.1715 ( 36)  0.1821 ( 39)  0.1822 ( 40)
           0.1591 ( 43)  0.1590 ( 44)  0.1712 ( 46) -0.1725 ( 47) -0.1118 ( 48)
           0.1712 ( 49) -0.1727 ( 50) -0.1586 ( 53) -0.1587 ( 56)
 CRD 46=   0.2048 ( 60) -0.2036 ( 63) -0.2037 ( 64)  0.2047 ( 66)  0.2039 ( 68)
           0.2038 ( 79) -0.2044 ( 80) -0.2045 ( 83)  0.2038 ( 86)  0.2039 ( 87)
          -0.2040 ( 88) -0.2040 ( 89) -0.2035 ( 91) -0.2038 ( 95) -0.2051 ( 98)
          -0.2050 ( 99)  0.2038 (100)  0.2036 (101)  0.2047 (102)  0.2048 (103)
          -0.2041 (106) -0.2039 (107)  0.2037 (110)  0.2037 (111)
 CRD 47=   0.1609 (  1) -0.1608 (  3)  0.1431 (  4) -0.1139 (  5) -0.1430 (  6)
           0.1137 (  7) -0.1609 (  8)  0.1609 (  9) -0.1833 ( 10)  0.2253 ( 11)
          -0.2255 ( 12)  0.1834 ( 13)  0.1431 ( 14) -0.1136 ( 15) -0.1431 ( 16)
           0.1139 ( 17)  0.2254 ( 19) -0.1835 ( 20) -0.2255 ( 21)  0.1832 ( 22)
          -0.1935 ( 27)  0.1936 ( 29) -0.1041 ( 31) -0.1935 ( 32)  0.1042 ( 34)
           0.1935 ( 35) -0.1929 ( 41)  0.1929 ( 45) -0.1043 ( 47)  0.1040 ( 50)
          -0.1930 ( 54)  0.1929 ( 57)
 CRD 48=  -0.3601 (  2) -0.1427 ( 10) -0.1089 ( 11) -0.1089 ( 12) -0.1427 ( 13)
           0.2591 ( 18) -0.1090 ( 19) -0.1426 ( 20) -0.1087 ( 21) -0.1428 ( 22)
           0.2591 ( 23)  0.1231 ( 26)  0.1232 ( 28) -0.1544 ( 31) -0.1656 ( 33)
          -0.1545 ( 34)  0.1232 ( 39)  0.1232 ( 40) -0.1141 ( 41)  0.2282 ( 42)
          -0.1142 ( 45) -0.1544 ( 47) -0.1657 ( 48) -0.1545 ( 50)  0.1596 ( 51)
           0.1595 ( 52) -0.1140 ( 54)  0.2282 ( 55) -0.1142 ( 57)  0.1595 ( 58)
           0.1595 ( 59)
 CRD 49=   0.2032 ( 60)  0.1797 ( 63)  0.1796 ( 64)  0.2032 ( 66)  0.1792 ( 68)
          -0.1264 ( 72) -0.1262 ( 73) -0.1266 ( 75) -0.1263 ( 78)  0.1794 ( 79)
           0.2036 ( 80)  0.2033 ( 83)  0.1793 ( 86)  0.1794 ( 87) -0.2127 ( 88)
          -0.2124 ( 89)  0.1798 ( 91)  0.1795 ( 95) -0.1904 ( 98) -0.1899 ( 99)
          -0.2126 (100) -0.2130 (101) -0.1907 (102) -0.1902 (103) -0.2128 (106)
          -0.2123 (107) -0.2125 (110) -0.2131 (111)
 CRD 50=   0.2015 ( 62) -0.2015 ( 65) -0.1087 ( 68) -0.2443 ( 69)  0.1315 ( 73)
          -0.1310 ( 75)  0.2443 ( 76)  0.1080 ( 79) -0.2015 ( 82)  0.2015 ( 85)
          -0.1066 ( 88)  0.1073 ( 89)  0.1081 ( 91)  0.2443 ( 92) -0.1086 ( 95)
          -0.2443 ( 96) -0.1540 ( 98)  0.1547 ( 99)  0.1072 (100) -0.1067 (101)
          -0.1541 (102)  0.1545 (103) -0.2447 (104)  0.2446 (105) -0.1535 (106)
           0.1542 (107)  0.2445 (108) -0.2446 (109)  0.1541 (110) -0.1536 (111)
 CRD 51=  -0.1754 (  1)  0.1750 (  3)  0.1214 (  5) -0.1217 (  7) -0.1750 (  8)
           0.1755 (  9) -0.1684 ( 10)  0.2589 ( 11) -0.2595 ( 12)  0.1681 ( 13)
          -0.1215 ( 15)  0.1217 ( 17) -0.2589 ( 19)  0.1685 ( 20)  0.2595 ( 21)
          -0.1680 ( 22) -0.1349 ( 26)  0.1347 ( 28)  0.1392 ( 30) -0.1618 ( 31)
           0.1615 ( 34) -0.1395 ( 36)  0.1349 ( 39) -0.1347 ( 40) -0.1517 ( 41)
          -0.1423 ( 43)  0.1421 ( 44)  0.1514 ( 45) -0.1392 ( 46)  0.1619 ( 47)
           0.1395 ( 49) -0.1614 ( 50)  0.1424 ( 53)  0.1518 ( 54) -0.1421 ( 56)
          -0.1513 ( 57)
 CRD 52=   0.2659 (  4)  0.2660 (  6) -0.1506 ( 11) -0.1496 ( 12) -0.2658 ( 14)
          -0.2659 ( 16)  0.2033 ( 18)  0.1507 ( 19)  0.1495 ( 21) -0.2033 ( 23)
           0.1202 ( 24)  0.1201 ( 25) -0.1045 ( 31)  0.1234 ( 33) -0.1051 ( 34)
          -0.1201 ( 37) -0.1201 ( 38) -0.1018 ( 41)  0.2042 ( 42) -0.1024 ( 45)
           0.1045 ( 47) -0.1233 ( 48)  0.1052 ( 50)  0.1754 ( 51)  0.1753 ( 52)
           0.1018 ( 54) -0.2043 ( 55)  0.1024 ( 57) -0.1754 ( 58) -0.1753 ( 59)
 CRD 53=  -0.2649 (  1)  0.2502 (  3)  0.1411 (  5) -0.1487 (  7)  0.2501 (  8)
          -0.2649 (  9) -0.1191 ( 10)  0.1788 ( 11) -0.1882 ( 12)  0.1135 ( 13)
           0.1411 ( 15) -0.1486 ( 17)  0.1787 ( 19) -0.1191 ( 20) -0.1882 ( 21)
           0.1134 ( 22) -0.1559 ( 26)  0.1792 ( 27)  0.1464 ( 28) -0.1886 ( 29)
           0.1216 ( 30) -0.1332 ( 31)  0.1792 ( 32)  0.1273 ( 34) -0.1886 ( 35)
          -0.1266 ( 36) -0.1559 ( 39)  0.1464 ( 40) -0.1006 ( 41) -0.1280 ( 43)
           0.1222 ( 44)  0.1216 ( 46) -0.1332 ( 47) -0.1266 ( 49)  0.1273 ( 50)
          -0.1280 ( 53) -0.1006 ( 54)  0.1221 ( 56)
 CRD 54=   0.1480 (  1) -0.3679 (  2)  0.1717 (  3) -0.2340 (  4) -0.2332 (  6)
           0.1718 (  8)  0.1479 (  9)  0.1116 ( 11) -0.2341 ( 14) -0.2333 ( 16)
          -0.1199 ( 18)  0.1117 ( 19) -0.1200 ( 23) -0.1656 ( 24) -0.1680 ( 25)
           0.1106 ( 27)  0.1104 ( 28)  0.1106 ( 32) -0.2042 ( 33) -0.1681 ( 37)
          -0.1657 ( 38)  0.1104 ( 40) -0.1298 ( 42) -0.2042 ( 48) -0.1176 ( 51)
          -0.1171 ( 52) -0.1299 ( 55) -0.1177 ( 58) -0.1171 ( 59)
 CRD 55=   0.1362 ( 60)  0.1617 ( 63) -0.1615 ( 64) -0.1361 ( 66) -0.1425 ( 69)
           0.1653 ( 70)  0.2024 ( 71) -0.1858 ( 72) -0.2022 ( 74)  0.1427 ( 76)
          -0.1651 ( 77)  0.1858 ( 78)  0.1361 ( 80) -0.1361 ( 83)  0.1614 ( 86)
          -0.1617 ( 87)  0.2023 ( 90) -0.1426 ( 92)  0.1651 ( 93) -0.2023 ( 94)
           0.1425 ( 96) -0.1652 ( 97) -0.1634 ( 98)  0.1635 ( 99)  0.1634 (102)
          -0.1635 (103) -0.2589 (106)  0.2587 (107) -0.2587 (110)  0.2587 (111)
 CRD 56=   0.2098 ( 61)  0.1048 ( 62) -0.1388 ( 63) -0.1390 ( 64)  0.1048 ( 65)
           0.2098 ( 67)  0.1388 ( 68) -0.1044 ( 69) -0.1042 ( 70) -0.1046 ( 71)
          -0.1048 ( 74) -0.1043 ( 76) -0.1045 ( 77)  0.1388 ( 79) -0.2100 ( 81)
          -0.1047 ( 82) -0.2100 ( 84) -0.1047 ( 85)  0.1389 ( 86)  0.1387 ( 87)
           0.1427 ( 88)  0.1428 ( 89)  0.1049 ( 90) -0.1389 ( 91)  0.1044 ( 92)
           0.1045 ( 93)  0.1046 ( 94) -0.1390 ( 95)  0.1045 ( 96)  0.1043 ( 97)
          -0.1429 (100) -0.1428 (101) -0.2832 (104) -0.2830 (105)  0.1426 (106)
           0.1429 (107)  0.2832 (108)  0.2833 (109) -0.1430 (110) -0.1427 (111)
 CRD 57=  -0.2059 ( 61)  0.1026 ( 62) -0.1459 ( 63) -0.1457 ( 64)  0.1027 ( 65)
          -0.2059 ( 67) -0.1459 ( 68)  0.1024 ( 69)  0.1024 ( 70)  0.1027 ( 71)
           0.1100 ( 72)  0.1099 ( 73)  0.1028 ( 74)  0.1101 ( 75)  0.1024 ( 76)
           0.1024 ( 77)  0.1100 ( 78) -0.1459 ( 79) -0.2057 ( 81)  0.1028 ( 82)
          -0.2058 ( 84)  0.1027 ( 85) -0.1458 ( 86) -0.1459 ( 87) -0.1277 ( 88)
          -0.1278 ( 89)  0.1026 ( 90) -0.1458 ( 91)  0.1024 ( 92)  0.1022 ( 93)
           0.1027 ( 94) -0.1458 ( 95)  0.1023 ( 96)  0.1025 ( 97) -0.1276 (100)
          -0.1276 (101)  0.2754 (104)  0.2752 (105) -0.1277 (106) -0.1277 (107)
           0.2749 (108)  0.2751 (109) -0.1274 (110) -0.1278 (111)
 CRD 58=   0.1141 ( 60)  0.1139 ( 61) -0.1278 ( 62) -0.1216 ( 63)  0.1217 ( 64)
           0.1277 ( 65) -0.1141 ( 66) -0.1137 ( 67)  0.2602 ( 70) -0.1640 ( 73)
           0.1639 ( 75) -0.2603 ( 77) -0.1142 ( 80)  0.1139 ( 81)  0.1278 ( 82)
           0.1141 ( 83) -0.1137 ( 84) -0.1278 ( 85)  0.1216 ( 86) -0.1215 ( 87)
          -0.2603 ( 93)  0.2602 ( 97) -0.1075 ( 98)  0.1075 ( 99) -0.1076 (102)
           0.1076 (103)  0.1203 (104) -0.1205 (105) -0.2813 (106)  0.2815 (107)
          -0.1205 (108)  0.1203 (109)  0.2815 (110) -0.2814 (111)
 CRD 59=   0.2217 ( 61) -0.1201 ( 63)  0.1200 ( 64) -0.2217 ( 67)  0.2302 ( 70)
          -0.2083 ( 71)  0.1345 ( 72)  0.2083 ( 74) -0.2302 ( 77) -0.1345 ( 78)
          -0.2218 ( 81)  0.2217 ( 84) -0.1201 ( 86)  0.1200 ( 87) -0.2083 ( 90)
           0.2303 ( 93)  0.2083 ( 94) -0.2302 ( 97)  0.1892 (104) -0.1891 (105)
          -0.1949 (106)  0.1949 (107)  0.1891 (108) -0.1891 (109) -0.1950 (110)
           0.1949 (111)
 CRD 60=   0.1775 ( 61)  0.2605 ( 63) -0.2604 ( 64) -0.1775 ( 67)  0.1137 ( 70)
          -0.2362 ( 71)  0.3094 ( 73)  0.2363 ( 74) -0.3093 ( 75) -0.1137 ( 77)
           0.1775 ( 81) -0.1775 ( 84) -0.2604 ( 86)  0.2604 ( 87)  0.2362 ( 90)
          -0.1137 ( 93) -0.2362 ( 94)  0.1137 ( 97)  0.1244 (104) -0.1243 (105)
          -0.1243 (108)  0.1243 (109)

 THE DETERMINANT OF THE G MATRIX IS 10**(   -29)


                     --------------------
                     INTERNAL COORDINATES
                     --------------------

                 - - ATOMS - -         COORDINATE      COORDINATE
 NO.   TYPE    I  J  K  L  M  N        (BOHR,RAD)       (ANG,DEG)
 ----------------------------------------------------------------
   1 STRETCH   1  2                     2.6445044       1.3994116
   2 STRETCH   1  4                     2.7776272       1.4698571
   3 STRETCH   1  3                     2.6447167       1.3995239
   4 STRETCH   2  5                     2.6243161       1.3887284
   5 STRETCH   2 13                     2.0799520       1.1006633
   6 STRETCH   3  6                     2.6242933       1.3887163
   7 STRETCH   3 14                     2.0798078       1.1005870
   8 STRETCH   4  8                     2.6446371       1.3994818
   9 STRETCH   4  7                     2.6445237       1.3994218
  10 STRETCH   5 15                     2.0690531       1.0948958
  11 STRETCH   5  9                     2.6285125       1.3909490
  12 STRETCH   6  9                     2.6282798       1.3908259
  13 STRETCH   6 16                     2.0691579       1.0949513
  14 STRETCH   7 10                     2.6243181       1.3887294
  15 STRETCH   7 17                     2.0798864       1.1006286
  16 STRETCH   8 11                     2.6245050       1.3888284
  17 STRETCH   8 18                     2.0798919       1.1006315
  18 STRETCH   9 19                     2.0684904       1.0945981
  19 STRETCH  10 12                     2.6282418       1.3908058
  20 STRETCH  10 20                     2.0689999       1.0948676
  21 STRETCH  11 12                     2.6283044       1.3908389
  22 STRETCH  11 21                     2.0690796       1.0949099
  23 STRETCH  12 22                     2.0685157       1.0946114
  24 BEND      1  3 14                  2.0795036     119.1467812
  25 BEND      1  2 13                  2.0791600     119.1270924
  26 BEND      1  3  6                  2.1046667     120.5885211
  27 BEND      1  4  7                  2.1055141     120.6370735
  28 BEND      1  2  5                  2.1049400     120.6041776
  29 BEND      1  4  8                  2.1056590     120.6453739
  30 BEND      2  5 15                  2.0913954     119.8281287
  31 BEND      2  5  9                  2.0973559     120.1696406
  32 BEND      2  1  4                  2.1057391     120.6499616
  33 BEND      2  1  3                  2.0719737     118.7153495
  34 BEND      3  6  9                  2.0976432     120.1861018
  35 BEND      3  1  4                  2.1054725     120.6346889
  36 BEND      3  6 16                  2.0908795     119.7985680
  37 BEND      4  7 17                  2.0797343     119.1599960
  38 BEND      4  8 18                  2.0794048     119.1411188
  39 BEND      4  8 11                  2.1047801     120.5950150
  40 BEND      4  7 10                  2.1046596     120.5881139
  41 BEND      5  9 19                  2.0966295     120.1280239
  42 BEND      5  9  6                  2.0897911     119.7362095
  43 BEND      5  2 13                  2.0990853     120.2687300
  44 BEND      6  3 14                  2.0990149     120.2646975
  45 BEND      6  9 19                  2.0967647     120.1357657
  46 BEND      7 10 20                  2.0910854     119.8103702
  47 BEND      7 10 12                  2.0977322     120.1911993
  48 BEND      7  4  8                  2.0720122     118.7175517
  49 BEND      8 11 21                  2.0911363     119.8132847
  50 BEND      8 11 12                  2.0974901     120.1773298
  51 BEND      9  6 16                  2.0946627     120.0153296
  52 BEND      9  5 15                  2.0944340     120.0022300
  53 BEND     10  7 17                  2.0987914     120.2518901
  54 BEND     10 12 22                  2.0969200     120.1446668
  55 BEND     10 12 11                  2.0896965     119.7307900
  56 BEND     11  8 18                  2.0990004     120.2638659
  57 BEND     11 12 22                  2.0965688     120.1245432
  58 BEND     12 11 21                  2.0945589     120.0093852
  59 BEND     12 10 20                  2.0943677     119.9984304
  60 TORSION   1  2  5 15               3.1414853     179.9938486
  61 TORSION   1  3  6  9               0.0000274       0.0015719
  62 TORSION   1  4  7 10               3.1414700     179.9929745
  63 TORSION   1  4  7 17              -0.0000842      -0.0048219
  64 TORSION   1  4  8 18              -0.0000472      -0.0027032
  65 TORSION   1  4  8 11              -3.1415278    -179.9962823
  66 TORSION   1  3  6 16               3.1414654     179.9927071
  67 TORSION   1  2  5  9               0.0000598       0.0034274
  68 TORSION   2  1  3 14              -3.1415289    -179.9963462
  69 TORSION   2  5  9 19              -3.1414641    -179.9926360
  70 TORSION   2  5  9  6              -0.0000559      -0.0032038
  71 TORSION   2  1  3  6              -0.0000237      -0.0013582
  72 TORSION   2  1  4  7               3.1397465     179.8942216
  73 TORSION   2  1  4  8              -0.0020359      -0.1166484
  74 TORSION   3  1  2  5              -0.0000198      -0.0011369
  75 TORSION   3  1  4  7              -0.0018782      -0.1076127
  76 TORSION   3  6  9 19               3.1414207     179.9901487
  77 TORSION   3  6  9  5               0.0000125       0.0007173
  78 TORSION   3  1  4  8               3.1395247     179.8815172
  79 TORSION   3  1  2 13              -3.1415717    -179.9987979
  80 TORSION   4  7 10 20              -3.1415472    -179.9973949
  81 TORSION   4  7 10 12              -0.0000037      -0.0002120
  82 TORSION   4  1  2  5               3.1415414     179.9970635
  83 TORSION   4  8 11 21              -3.1415867    -179.9996575
  84 TORSION   4  8 11 12               0.0001194       0.0068419
  85 TORSION   4  1  3  6              -3.1415850    -179.9995589
  86 TORSION   4  1  2 13              -0.0000104      -0.0005976
  87 TORSION   4  1  3 14               0.0000952       0.0054532
  88 TORSION   5  9  6 16              -3.1414251    -179.9903986
  89 TORSION   6  9  5 15              -3.1414811    -179.9936083
  90 TORSION   7  4  8 11              -0.0001212      -0.0069468
  91 TORSION   7  4  8 18               3.1413593     179.9866323
  92 TORSION   7 10 12 22              -3.1415797    -179.9992577
  93 TORSION   7 10 12 11               0.0000000       0.0000000
  94 TORSION   8  4  7 10               0.0000635       0.0036381
  95 TORSION   8  4  7 17              -3.1414907    -179.9941584
  96 TORSION   8 11 12 22               3.1415221     179.9959602
  97 TORSION   8 11 12 10              -0.0000576      -0.0033015
  98 TORSION   9  5  2 13              -3.1415741    -179.9989383
  99 TORSION   9  6  3 14               3.1415316     179.9965037
 100 TORSION  10 12 11 21              -3.1415366    -179.9967893
 101 TORSION  11 12 10 20               3.1415435     179.9971814
 102 TORSION  12 11  8 18              -3.1413599    -179.9866651
 103 TORSION  12 10  7 17               3.1415501     179.9975603
 104 TORSION  13  2  5 15              -0.0001487      -0.0085171
 105 TORSION  14  3  6 16              -0.0002157      -0.0123611
 106 TORSION  15  5  9 19               0.0002960       0.0169595
 107 TORSION  16  6  9 19              -0.0000169      -0.0009672
 108 TORSION  17  7 10 20               0.0000066       0.0003774
 109 TORSION  18  8 11 21               0.0001193       0.0068356
 110 TORSION  20 10 12 22              -0.0000363      -0.0020801
 111 TORSION  21 11 12 22               0.0000431       0.0024723

     ------------------------------------------
     THE POINT GROUP IS C1 , NAXIS= 1, ORDER= 1
     ------------------------------------------

     DIMENSIONS OF THE SYMMETRY SUBSPACES ARE
 A   =  288

 ..... DONE SETTING UP THE RUN .....
 STEP CPU TIME =     0.01 TOTAL CPU TIME =        0.0 (    0.0 MIN)
 TOTAL WALL CLOCK TIME=        0.0 SECONDS, CPU UTILIZATION IS  50.00%


          -----------------------------
          STATIONARY POINT LOCATION RUN
          -----------------------------

 OBTAINING INITIAL HESSIAN, HESS=GUESS   
 DIAGONAL GUESS HESSIAN IN INTERNAL COORDS IS
     1  0.4733     2  0.4127     3  0.4732     4  0.4832     5  0.3393
     6  0.4832     7  0.3393     8  0.4732     9  0.4733    10  0.3431
    11  0.4811    12  0.4812    13  0.3431    14  0.4832    15  0.3393
    16  0.4831    17  0.3393    18  0.3433    19  0.4813    20  0.3431
    21  0.4812    22  0.3431    23  0.3433    24  0.2314    25  0.2314
    26  0.2687    27  0.2625    28  0.2688    29  0.2624    30  0.2324
    31  0.2694    32  0.2625    33  0.2679    34  0.2694    35  0.2624
    36  0.2324    37  0.2314    38  0.2314    39  0.2687    40  0.2688
    41  0.2323    42  0.2693    43  0.2321    44  0.2321    45  0.2323
    46  0.2324    47  0.2694    48  0.2679    49  0.2324    50  0.2694
    51  0.2323    52  0.2323    53  0.2321    54  0.2323    55  0.2693
    56  0.2321    57  0.2323    58  0.2323    59  0.2323    60  0.2500
    61  0.2500    62  0.2500    63  0.2500    64  0.2500    65  0.2500
    66  0.2500    67  0.2500    68  0.2500    69  0.2500    70  0.2500
    71  0.2500    72  0.2500    73  0.2500    74  0.2500    75  0.2500
    76  0.2500    77  0.2500    78  0.2500    79  0.2500    80  0.2500
    81  0.2500    82  0.2500    83  0.2500    84  0.2500    85  0.2500
    86  0.2500    87  0.2500    88  0.2500    89  0.2500    90  0.2500
    91  0.2500    92  0.2500    93  0.2500    94  0.2500    95  0.2500
    96  0.2500    97  0.2500    98  0.2500    99  0.2500   100  0.2500
   101  0.2500   102  0.2500   103  0.2500   104  0.2500   105  0.2500
   106  0.2500   107  0.2500   108  0.2500   109  0.2500   110  0.2500
   111  0.2500
 TRANSFORMING HESSIAN TO SYMMETRY COORDINATES

          PARAMETERS CONTROLLING GEOMETRY SEARCH ARE
          METHOD =QA                  UPHESS =BFGS    
          NNEG   =         0          NFRZ   =         3
          NSTEP  =        50          IFOLOW =         1
          HESS   =GUESS               RESTAR =         F
          IHREP  =         0          HSSEND =         F
          NPRT   =         0          NPUN   =         0
          OPTTOL = 5.000E-04          RMIN   = 1.500E-03
          RMAX   = 1.000E-01          RLIM   = 7.000E-02
          DXMAX  = 3.000E-01          PURIFY =         F
          MOVIE  =         F          TRUPD  =         T
          TRMAX  = 5.000E-01          TRMIN  = 5.000E-02
          ITBMAT =         5          STPT   =         F
          STSTEP = 1.000E-02          PROJCT=          F
          FROZEN COORD(S)=   1   2   3


      ***** EQUILIBRIUM GEOMETRY LOCATED *****
            (SUBJECT TO   3 CONSTRAINT(S))
 COORDINATES OF ALL ATOMS ARE (ANGS)
   ATOM   CHARGE       X              Y              Z
 ------------------------------------------------------------
 C           6.0   2.4574683971   0.4202960690   3.8726266310
 C           6.0   3.6968766173   0.5854381923   3.2631617762
 C           6.0   1.3304537492   0.3185719170   3.0637200214
 C           6.0   2.3404199152   0.3542307689   5.3487678368
 C           6.0   3.8073858344   0.6470024489   1.8892544188
 C           6.0   1.4376658053   0.3798104602   1.6895439396
 C           6.0   1.1006886809   0.1913056051   5.9581876677
 C           6.0   3.4676224282   0.4534767198   6.1577361801
 C           6.0   2.6776218001   0.5444892496   1.0940184569
 C           6.0   0.9900121690   0.1294565285   7.3320577278
 C           6.0   3.3602236807   0.3920601072   7.5319011838
 C           6.0   2.1199394364   0.2295541667   8.1273518536
 H           1.0   4.5872527334   0.6675126638   3.8534114176
 H           1.0   0.3589718060   0.1907855280   3.4970436346
 H           1.0   4.7801823555   0.7752373982   1.4513370686
 H           1.0   0.5466748697   0.2977134677   1.0946107268
 H           1.0   0.2101355441   0.1110599915   5.3679492559
 H           1.0   4.4394026120   0.5794576442   5.7244926839
 H           1.0   2.7622659456   0.5921210864   0.0257040438
 H           1.0   0.0169360005   0.0029724716   7.7698584589
 H           1.0   4.2513434055   0.4721222483   8.1269203192
 H           1.0   2.0351905616   0.1816099789   9.1956426469


                     --------------------
                     INTERNAL COORDINATES
                     --------------------

                 - - ATOMS - -         COORDINATE      COORDINATE
 NO.   TYPE    I  J  K  L  M  N        (BOHR,RAD)       (ANG,DEG)
 ----------------------------------------------------------------
   1 STRETCH   1  2                     2.6285892       1.3909896
   2 STRETCH   1  4                     2.8010417       1.4822476
   3 STRETCH   1  3                     2.6285808       1.3909852
   4 STRETCH   2  5                     2.6072904       1.3797188
   5 STRETCH   2 13                     2.0246547       1.0714012
   6 STRETCH   3  6                     2.6072771       1.3797117
   7 STRETCH   3 14                     2.0246330       1.0713897
   8 STRETCH   4  8                     2.6285980       1.3909943
   9 STRETCH   4  7                     2.6286018       1.3909963
  10 STRETCH   5 15                     2.0305094       1.0744994
  11 STRETCH   5  9                     2.6179874       1.3853794
  12 STRETCH   6  9                     2.6179769       1.3853738
  13 STRETCH   6 16                     2.0305106       1.0745000
  14 STRETCH   7 10                     2.6072696       1.3797078
  15 STRETCH   7 17                     2.0246592       1.0714036
  16 STRETCH   8 11                     2.6072987       1.3797231
  17 STRETCH   8 18                     2.0246788       1.0714139
  18 STRETCH   9 19                     2.0271477       1.0727204
  19 STRETCH  10 12                     2.6179682       1.3853692
  20 STRETCH  10 20                     2.0305059       1.0744975
  21 STRETCH  11 12                     2.6179865       1.3853789
  22 STRETCH  11 21                     2.0305122       1.0745009
  23 STRETCH  12 22                     2.0271451       1.0727191
  24 BEND      1  3 14                  2.1038829     120.5436081
  25 BEND      1  2 13                  2.1038762     120.5432277
  26 BEND      1  3  6                  2.1094680     120.8636145
  27 BEND      1  4  7                  2.1082062     120.7913192
  28 BEND      1  2  5                  2.1094388     120.8619402
  29 BEND      1  4  8                  2.1083174     120.7976891
  30 BEND      2  5 15                  2.0756481     118.9258750
  31 BEND      2  5  9                  2.0978438     120.1975956
  32 BEND      2  1  4                  2.1083080     120.7971485
  33 BEND      2  1  3                  2.0666875     118.4124721
  34 BEND      3  6  9                  2.0978247     120.1965029
  35 BEND      3  1  4                  2.1081898     120.7903794
  36 BEND      3  6 16                  2.0756005     118.9231459
  37 BEND      4  7 17                  2.1039192     120.5456926
  38 BEND      4  8 18                  2.1039131     120.5453393
  39 BEND      4  8 11                  2.1094467     120.8623903
  40 BEND      4  7 10                  2.1094822     120.8644282
  41 BEND      5  9 19                  2.0990547     120.2669733
  42 BEND      5  9  6                  2.0851078     119.4678746
  43 BEND      5  2 13                  2.0698703     118.5948320
  44 BEND      6  3 14                  2.0698344     118.5927773
  45 BEND      6  9 19                  2.0990229     120.2651517
  46 BEND      7 10 20                  2.0756113     118.9237694
  47 BEND      7 10 12                  2.0978305     120.1968350
  48 BEND      7  4  8                  2.0666617     118.4109911
  49 BEND      8 11 21                  2.0756276     118.9246994
  50 BEND      8 11 12                  2.0978500     120.1979504
  51 BEND      9  6 16                  2.1097601     120.8803508
  52 BEND      9  5 15                  2.1096934     120.8765290
  53 BEND     10  7 17                  2.0697838     118.5898790
  54 BEND     10 12 22                  2.0990558     120.2670358
  55 BEND     10 12 11                  2.0850996     119.4674048
  56 BEND     11  8 18                  2.0698256     118.5922703
  57 BEND     11 12 22                  2.0990300     120.2655594
  58 BEND     12 11 21                  2.1097077     120.8773500
  59 BEND     12 10 20                  2.1097435     120.8793956
  60 TORSION   1  2  5 15               3.1415372     179.9968238
  61 TORSION   1  3  6  9               0.0000184       0.0010548
  62 TORSION   1  4  7 10               3.1414559     179.9921631
  63 TORSION   1  4  7 17              -0.0000674      -0.0038607
  64 TORSION   1  4  8 18               0.0000099       0.0005662
  65 TORSION   1  4  8 11              -3.1415146    -179.9955286
  66 TORSION   1  3  6 16               3.1414948     179.9943955
  67 TORSION   1  2  5  9               0.0000595       0.0034095
  68 TORSION   2  1  3 14              -3.1415078    -179.9951358
  69 TORSION   2  5  9 19              -3.1414960    -179.9944613
  70 TORSION   2  5  9  6              -0.0000327      -0.0018726
  71 TORSION   2  1  3  6               0.0000075       0.0004299
  72 TORSION   2  1  4  7               3.1397211     179.8927651
  73 TORSION   2  1  4  8              -0.0020311      -0.1163711
  74 TORSION   3  1  2  5              -0.0000464      -0.0026602
  75 TORSION   3  1  4  7              -0.0019158      -0.1097691
  76 TORSION   3  6  9 19               3.1414574     179.9922494
  77 TORSION   3  6  9  5              -0.0000059      -0.0003394
  78 TORSION   3  1  4  8               3.1395174     179.8810946
  79 TORSION   3  1  2 13              -3.1415653    -179.9984343
  80 TORSION   4  7 10 20              -3.1415336    -179.9966141
  81 TORSION   4  7 10 12               0.0000233       0.0013323
  82 TORSION   4  1  2  5               3.1415030     179.9948646
  83 TORSION   4  8 11 21              -3.1415837    -179.9994876
  84 TORSION   4  8 11 12               0.0000943       0.0054054
  85 TORSION   4  1  3  6              -3.1415420    -179.9970951
  86 TORSION   4  1  2 13              -0.0000159      -0.0009095
  87 TORSION   4  1  3 14               0.0001281       0.0073392
  88 TORSION   5  9  6 16              -3.1414800    -179.9935479
  89 TORSION   6  9  5 15              -3.1415081    -179.9951567
  90 TORSION   7  4  8 11              -0.0000777      -0.0044517
  91 TORSION   7  4  8 18               3.1414468     179.9916431
  92 TORSION   7 10 12 22              -3.1415917    -179.9999443
  93 TORSION   7 10 12 11              -0.0000077      -0.0004409
  94 TORSION   8  4  7 10               0.0000189       0.0010857
  95 TORSION   8  4  7 17              -3.1415043    -179.9949382
  96 TORSION   8 11 12 22               3.1415334     179.9966058
  97 TORSION   8 11 12 10              -0.0000506      -0.0028976
  98 TORSION   9  5  2 13               3.1415798     179.9992644
  99 TORSION   9  6  3 14               3.1415351     179.9967053
 100 TORSION  10 12 11 21              -3.1415561    -179.9979077
 101 TORSION  11 12 10 20               3.1415484     179.9974648
 102 TORSION  12 11  8 18              -3.1414315    -179.9907642
 103 TORSION  12 10  7 17               3.1415478     179.9974324
 104 TORSION  13  2  5 15              -0.0001278      -0.0073213
 105 TORSION  14  3  6 16              -0.0001737      -0.0099540
 106 TORSION  15  5  9 19               0.0002139       0.0122546
 107 TORSION  16  6  9 19              -0.0000167      -0.0009591
 108 TORSION  17  7 10 20              -0.0000090      -0.0005140
 109 TORSION  18  8 11 21               0.0000758       0.0043428
 110 TORSION  20 10 12 22              -0.0000356      -0.0020386
 111 TORSION  21 11 12 22               0.0000278       0.0015956

          INTERNUCLEAR DISTANCES (ANGS.)


 =====================================================
   GAMESS/COSab RESULTS
 =====================================================

   Dielectric Constant                  = INFTY
   Basic Grid Size                      =                 1082
   Number of Segments                   =                   92
   Number of Segments located on spheres=                  362
   Number of Segments of the cavity     =                  852
   Solvent Radius (rsolv)               = 1.40
   Outlying Charge Error Method         = double cavity

 =====================================================

  Total solvated Energy (a.u.)          =  -460.3489778013
  Total Energy corrected (a.u.)         =  -460.3491481249

  Outlying charge effect (a.u.)         =    -0.0001703235
  Outlying charge effect (kcal/mol)     =    -0.1068797134

  Dielectric Energy (a.u.)              =    -0.0123025072
  Dielectric energy corr. (a.u.)        =    -0.0124728307

  Sum of polarization charges           =     0.0276718743
  Sum of polarization charges(cor.)     =    -0.0276718743

  Total surface area of cavity (A**2)   =  196.44
  Total volume of cavity (A**3)         =  199.11

 =====================================================
 NPS=                   852
NR.  ATOM  (X, Y, Z)(a.u.)                  CHARGE(e)  AREA(A**2) SIGMA(e/A**2)
   1   1   4.141934  -2.935901   7.662144   0.000716   0.139368   0.005137
   2   1   5.691109  -2.813547   7.732437   0.001100   0.232280   0.004735
   3   1   4.868204  -2.967377   7.608399   0.000721   0.185824   0.003878
   4   1   4.704454  -2.960381   6.889908   0.000526   0.139368   0.003778
   5   1   4.299732   4.515261   6.752717   0.002429   0.371649   0.006536
   6   1   4.968041   4.506251   7.950792   0.000979   0.185824   0.005269
   7   1   3.715972   4.427402   7.790680   0.001724   0.418105   0.004124
   8   1   5.343837  -2.850561   6.604158   0.001471   0.232280   0.006332
   9   2   5.692428   4.642115   5.836667   0.000674   0.092912   0.007251
  10   2   8.974122   4.318023   6.036659   0.000700   0.232280   0.003013
  11   2   8.866101  -2.126813   6.711202   0.000940   0.278737   0.003373
  12   2   9.516127  -1.474214   7.272847   0.000469   0.325193   0.001443
  13   2   9.735678   3.693011   6.348055   0.000202   0.278737   0.000724
  14   2  10.640267   0.226801   5.769386  -0.000266   0.092912  -0.002861
  15   2   8.617879   4.459025   6.783562   0.001061   0.325193   0.003264
  16   2   7.825360   4.510227   7.578290   0.001010   0.325193   0.003107
  17   2   8.514015  -2.068961   7.532989   0.000656   0.232280   0.002822
  18   2   9.625483  -1.597178   6.071607   0.001167   0.325193   0.003589
  19   2  10.305788  -0.680600   5.900404   0.000346   0.185824   0.001861
  20   2   7.768764   4.803282   6.102776   0.002004   0.325193   0.006161
  21   2   6.509366   4.841709   5.844331   0.001309   0.232280   0.005637
  22   2   6.224937   4.778516   6.635306   0.001407   0.185824   0.007570
  23   2   6.786190   4.614086   7.559241   0.000870   0.185824   0.004683
  24   2   7.630394  -2.547080   6.888887   0.002673   0.511017   0.005231
  25   2   8.499702  -2.340365   5.829328   0.002022   0.371649   0.005440
  26   2   8.756940   4.134224   7.573621   0.000229   0.232280   0.000986
  27   2  10.096907  -1.010573   6.521246   0.000074   0.139368   0.000534
  28   2   6.996107  -2.642649   5.687439   0.003406   0.464561   0.007332
  29   2   7.132579   4.837733   6.748941   0.001362   0.278737   0.004886
  30   3   3.868296  -2.899693   5.355134   0.000673   0.092912   0.007239
  31   3   0.593775  -2.571458   5.064748   0.000700   0.232280   0.003014
  32   3   0.549358   3.787304   6.316449   0.000939   0.278737   0.003370
  33   3  -0.176290   3.092096   6.708858   0.000469   0.325193   0.001441
  34   3  -0.211612  -1.971148   5.306729   0.000202   0.278737   0.000724
  35   3  -1.038213   1.539004   4.902610  -0.000266   0.092912  -0.002863
  36   3   0.829165  -2.780615   5.842887   0.001062   0.325193   0.003266
  37   3   1.487252  -2.907643   6.744599   0.001011   0.325193   0.003109
  38   3   0.768290   3.654360   7.174960   0.000655   0.232280   0.002820
  39   3  -0.096328   3.321813   5.521048   0.001166   0.325193   0.003587
  40   3  -0.734839   2.428838   5.164481   0.000346   0.185824   0.001861
  41   3   1.777121  -3.069159   5.276228   0.002005   0.325193   0.006165
  42   3   3.061725  -3.093411   5.216573   0.001314   0.232280   0.005657
  43   3   3.217840  -3.102582   6.044872   0.001413   0.185824   0.007603
  44   3   2.517199  -3.016734   6.879996   0.000872   0.185824   0.004693
  45   3   1.738805   4.181441   6.722700   0.002663   0.511017   0.005211
  46   3   1.048317   4.075588   5.525573   0.002020   0.371649   0.005434
  47   3   0.565380  -2.526144   6.626907   0.000229   0.232280   0.000985
  48   3  -0.628454   2.701004   5.837211   0.000074   0.139368   0.000532
  49   3   2.553372   4.378643   5.649145   0.003395   0.464561   0.007308
  50   3   2.304055  -3.165233   6.008728   0.001364   0.278737   0.004892
  51   4   5.753071  -2.816667   9.506203   0.000571   0.139368   0.004099
  52   4   4.215884  -3.043403   9.432023   0.000968   0.232280   0.004169
  53   4   5.053216  -3.015373   9.551655   0.000824   0.185824   0.004433
  54   4   5.216860  -3.022109  10.270172   0.000529   0.139368   0.003798
  55   4   3.920496   4.322502  10.936481   0.002443   0.371649   0.006575
  56   4   3.262027   4.246873   9.735315   0.000893   0.185824   0.004807
  57   4   4.500696   4.442319   9.899720   0.001686   0.418105   0.004031
  58   4   4.571513  -3.080218  10.557702   0.001477   0.232280   0.006358
  59   5   5.925888   4.754701   4.015786   0.000857   0.139368   0.006146
  60   5   7.838456   4.306475   1.482056   0.000865   0.325193   0.002661
  61   5   9.413958   4.212362   4.219662   0.000912   0.278737   0.003272
  62   5   9.032020  -1.962269   2.695254   0.001291   0.371649   0.003475
  63   5   9.769278  -1.238365   2.305171   0.000742   0.371649   0.001998
  64   5  10.674137  -0.007635   4.386034   0.000011   0.092912   0.000122
  65   5  10.106311   3.542859   4.221894   0.000196   0.278737   0.000703
  66   5   8.694976   4.030013   1.532313   0.000458   0.278737   0.001643
  67   5   8.819314   0.650505   0.205919  -0.000174   0.092912  -0.001872
  68   5   8.406729   3.400532   0.728931   0.000190   0.185824   0.001025
  69   5   8.300955   4.647598   2.416581   0.001085   0.325193   0.003337
  70   5   8.847978   4.620984   3.625673   0.000769   0.232280   0.003310
  71   5  10.430890  -0.645046   4.139708   0.000139   0.185824   0.000746
  72   5   9.678127  -1.621898   3.732540   0.001474   0.418105   0.003526
  73   5   8.729282  -1.503779   1.449688   0.001099   0.371649   0.002957
  74   5   8.864350  -0.317956   0.549625   0.000197   0.185824   0.001061
  75   5   7.261114   4.869609   2.580381   0.001917   0.325193   0.005896
  76   5   6.570894   4.946942   3.413226   0.001340   0.232280   0.005768
  77   5   6.921891   4.959632   4.064960   0.001852   0.232280   0.007973
  78   5   8.149343   4.811643   4.272013   0.001143   0.278737   0.004102
  79   5   8.450541  -2.339258   3.712834   0.002943   0.511017   0.005759
  80   5   7.984685  -2.267935   2.355180   0.002457   0.418105   0.005877
  81   5  10.218419  -1.039473   3.410808   0.000387   0.232280   0.001666
  82   5   9.202230   4.353639   2.897894   0.000745   0.325193   0.002290
  83   5   8.523169   2.711906   0.360477   0.000074   0.092912   0.000797
  84   5   9.195774  -0.881147   1.150508   0.000311   0.232280   0.001338
  85   5   7.110050  -2.555652   3.607062   0.002951   0.464561   0.006351
  86   5   7.828979   4.946669   3.451740   0.001204   0.278737   0.004320
  87   6   3.924915  -2.848683   3.517345   0.000857   0.139368   0.006151
  88   6   2.431045  -2.164241   0.764436   0.000864   0.325193   0.002657
  89   6   0.444397  -2.302158   3.217956   0.000912   0.278737   0.003272
  90   6   1.017575   3.980474   2.325902   0.001291   0.371649   0.003473
  91   6   0.355874   3.299176   1.762222   0.000742   0.371649   0.001996
  92   6  -0.855967   1.895190   3.557694   0.000011   0.092912   0.000120
  93   6  -0.244408  -1.630661   3.170725   0.000196   0.278737   0.000703
  94   6   1.575340  -1.887335   0.703811   0.000458   0.278737   0.001641
  95   6   1.637124   1.597236  -0.320785  -0.000174   0.092912  -0.001878
  96   6   1.981780  -1.191147   0.014693   0.000191   0.185824   0.001027
  97   6   1.829887  -2.583620   1.580731   0.001085   0.325193   0.003337
  98   6   1.099531  -2.660467   2.686408   0.000769   0.232280   0.003311
  99   6  -0.581539   2.550210   3.410127   0.000138   0.185824   0.000745
 100   6   0.218943   3.554019   3.214493   0.001473   0.418105   0.003524
 101   6   1.515459   3.632099   1.107689   0.001096   0.371649   0.002949
 102   6   1.531827   2.531706   0.096055   0.000198   0.185824   0.001065
 103   6   2.832620  -2.826547   1.885529   0.001921   0.325193   0.005906
 104   6   3.383953  -2.982234   2.806295   0.001343   0.232280   0.005783
 105   6   2.935024  -3.050192   3.391069   0.001853   0.232280   0.007977
 106   6   1.689273  -2.912555   3.415003   0.001144   0.278737   0.004104
 107   6   1.429297   4.261694   3.451561   0.002942   0.511017   0.005757
 108   6   2.103151   4.307748   2.183045   0.002449   0.418105   0.005859
 109   6  -0.259978   3.006204   2.761528   0.000387   0.232280   0.001665
 110   6   0.862140  -2.327186   1.938611   0.000745   0.325193   0.002291
 111   6   1.919823  -0.471772  -0.304968   0.000071   0.092912   0.000765
 112   6   1.106160   3.041718   0.684936   0.000309   0.232280   0.001331
 113   6   2.768202   4.477228   3.577305   0.002944   0.464561   0.006338
 114   6   2.135470  -2.976573   2.646548   0.001204   0.278737   0.004321
 115   7   2.542483   4.066154  11.847512   0.000673   0.092912   0.007245
 116   7  -0.582212   3.022672  11.598547   0.000699   0.232280   0.003007
 117   7   0.976173  -3.166663  10.473312   0.000944   0.278737   0.003387
 118   7   0.190837  -2.640258   9.953689   0.000493   0.325193   0.001515
 119   7  -1.185028   2.265020  11.237784   0.000198   0.278737   0.000709
 120   7  -1.277013  -1.347868  11.563870  -0.000267   0.092912  -0.002873
 121   7  -0.273124   3.292819  10.866331   0.001058   0.325193   0.003253
 122   7   0.480847   3.577822  10.083643   0.000968   0.325193   0.002976
 123   7   1.299429  -2.972971   9.660518   0.000599   0.232280   0.002578
 124   7   0.121782  -2.868966  11.142377   0.001164   0.325193   0.003578
 125   7  -0.746914  -2.144505  11.372082   0.000345   0.185824   0.001855
 126   7   0.481480   3.771546  11.576524   0.002002   0.325193   0.006156
 127   7   1.701535   4.075717  11.847263   0.001308   0.232280   0.005631
 128   7   1.986534   4.134334  11.056140   0.001407   0.185824   0.007572
 129   7   1.469667   3.912561  10.118396   0.000769   0.185824   0.004136
 130   7   2.273466  -3.282802  10.276561   0.002590   0.511017   0.005069
 131   7   1.388455  -3.353243  11.340932   0.002025   0.371649   0.005448
 132   7  -0.341398   3.001375  10.054281   0.000261   0.232280   0.001124
 133   7  -0.473759  -2.374133  10.731289   0.000071   0.139368   0.000510
 134   7   2.922536  -3.316613  11.473430   0.003412   0.464561   0.007344
 135   7   1.088159   3.994446  10.939576   0.001361   0.278737   0.004883
 136   8   6.029260  -2.881902  11.812911   0.000673   0.092912   0.007242
 137   8   9.146889  -1.842851  12.152488   0.000699   0.232280   0.003008
 138   8   7.742137   4.432997  11.350619   0.000943   0.278737   0.003384
 139   8   8.603091   3.949228  10.916350   0.000492   0.325193   0.001514
 140   8   9.793701  -1.060481  11.959860   0.000198   0.278737   0.000709
 141   8   9.808178   2.508389  12.616140  -0.000266   0.092912  -0.002868
 142   8   8.958762  -2.044646  11.359682   0.001059   0.325193   0.003255
 143   8   8.339354  -2.253565  10.445906   0.000969   0.325193   0.002981
 144   8   7.552170   4.314613  10.483127   0.000598   0.232280   0.002575
 145   8   8.482633   4.070910  12.116657   0.001163   0.325193   0.003577
 146   8   9.309356   3.322696  12.414894   0.000345   0.185824   0.001854
 147   8   8.105134  -2.579162  11.896889   0.002003   0.325193   0.006160
 148   8   6.859813  -2.897432  11.944149   0.001312   0.232280   0.005648
 149   8   6.703279  -2.883478  11.115996   0.001414   0.185824   0.007609
 150   8   7.359730  -2.582971  10.294737   0.000771   0.185824   0.004151
 151   8   6.491198   4.575454  10.963287   0.002580   0.511017   0.005049
 152   8   7.197171   4.544697  12.155658   0.002023   0.371649   0.005443
 153   8   9.151958  -1.682697  10.597648   0.000262   0.232280   0.001126
 154   8   9.138862   3.610306  11.762076   0.000071   0.139368   0.000510
 155   8   5.661644   4.507437  12.041315   0.003401   0.464561   0.007321
 156   8   7.607812  -2.740230  11.155152   0.001364   0.278737   0.004892
 157   9   4.508313   4.623461   3.096662   0.000989   0.139368   0.007093
 158   9   3.286933   3.823560   0.242367   0.001310   0.325193   0.004027
 159   9   6.441108   4.010459   0.199965   0.000977   0.278737   0.003506
 160   9   5.486143  -2.288142   0.306838   0.001452   0.371649   0.003907
 161   9   5.443669  -1.636867  -0.584109   0.000813   0.371649   0.002186
 162   9   7.662095   0.243642  -0.558725  -0.000238   0.092912  -0.002562
 163   9   6.842019   3.326592  -0.347016   0.000094   0.278737   0.000336
 164   9   3.774574   3.530840  -0.456993   0.000470   0.278737   0.001687
 165   9   2.988276   0.015613  -0.926849  -0.000320   0.092912  -0.003440
 166   9   2.993144   2.818868  -0.541946   0.000176   0.185824   0.000949
 167   9   4.293289   4.259957   0.262672   0.001223   0.325193   0.003759
 168   9   5.612183   4.361563   0.372409   0.000833   0.232280   0.003587
 169   9   7.359696  -0.759194  -0.340525   0.000264   0.232280   0.001136
 170   9   6.671571  -1.845501   0.216838   0.001747   0.418105   0.004179
 171   9   4.216416  -1.972360  -0.069153   0.001432   0.371649   0.003853
 172   9   3.395377  -0.906082  -0.719907   0.000102   0.185824   0.000549
 173   9   3.906479   4.529242   1.229756   0.001405   0.325193   0.004322
 174   9   4.284107   4.724441   2.227409   0.001826   0.232280   0.007859
 175   9   5.020076   4.804451   2.235398   0.001825   0.232280   0.007856
 176   9   5.813745   4.647338   1.277893   0.001321   0.278737   0.004738
 177   9   6.118013  -2.525023   1.336564   0.002756   0.511017   0.005394
 178   9   4.705973  -2.602193   1.080594   0.002128   0.418105   0.005089
 179   9   6.604676  -1.320947  -0.457709   0.000461   0.232280   0.001984
 180   9   5.178302   3.999773  -0.265937   0.000823   0.325193   0.002531
 181   9   2.792353   2.088349  -0.764536  -0.000236   0.092912  -0.002542
 182   9   4.129350  -1.403129  -0.671805   0.000346   0.232280   0.001491
 183   9   5.389573  -2.714339   2.471670   0.003644   0.464561   0.007843
 184   9   4.933321   4.693064   1.149541   0.001296   0.278737   0.004650
 185  10   2.303629   3.994633  13.669875   0.000856   0.139368   0.006144
 186  10   0.562301   2.947919  16.149951   0.000865   0.325193   0.002661
 187  10  -0.972551   2.692358  13.399593   0.000911   0.278737   0.003269
 188  10   0.809588  -3.326982  14.489214   0.001291   0.371649   0.003472
 189  10  -0.069327  -2.818084  14.923129   0.000741   0.371649   0.001995
 190  10  -1.245764  -1.680934  12.926545   0.000011   0.092912   0.000118
 191  10  -1.495326   1.885345  13.344582   0.000195   0.278737   0.000698
 192  10  -0.209746   2.488948  16.073314   0.000457   0.278737   0.001641
 193  10   0.444833  -0.915662  17.157753  -0.000174   0.092912  -0.001872
 194  10   0.219883   1.886162  16.832803   0.000190   0.185824   0.001023
 195  10   0.027207   3.240342  15.237937   0.001085   0.325193   0.003335
 196  10  -0.509118   3.175690  14.025492   0.000768   0.232280   0.003307
 197  10  -0.862570  -2.262425  13.129447   0.000138   0.185824   0.000743
 198  10   0.095018  -3.069633  13.473128   0.001473   0.418105   0.003523
 199  10   1.010481  -2.900643  15.766388   0.001098   0.371649   0.002954
 200  10   0.617535  -1.842528  16.746450   0.000197   0.185824   0.001059
 201  10   0.988446   3.702978  15.098738   0.001916   0.325193   0.005893
 202  10   1.636627   3.992968  14.279115   0.001340   0.232280   0.005769
 203  10   1.286736   3.971674  13.627012   0.001851   0.232280   0.007969
 204  10   0.123074   3.564560  13.399944   0.001143   0.278737   0.004101
 205  10   1.453267  -3.489985  13.452481   0.002942   0.511017   0.005756
 206  10   1.901585  -3.410728  14.815589   0.002456   0.418105   0.005874
 207  10  -0.560558  -2.648776  13.830542   0.000386   0.232280   0.001664
 208  10  -0.787874   2.784563  14.729725   0.000744   0.325193   0.002288
 209  10   0.265303   1.164888  17.150957   0.000074   0.092912   0.000793
 210  10   0.417504  -2.422429  16.104743   0.000310   0.232280   0.001336
 211  10   2.808733  -3.404147  13.553837   0.002949   0.464561   0.006348
 212  10   0.411014   3.710567  14.230296   0.001203   0.278737   0.004317
 213  11   5.977910  -2.974540  13.648808   0.000857   0.139368   0.006149
 214  11   7.299798  -2.165095  16.455232   0.000864   0.325193   0.002656
 215  11   9.246631  -1.676840  14.014537   0.000911   0.278737   0.003270
 216  11   7.273272   4.234281  15.341285   0.001290   0.371649   0.003471
 217  11   8.076452   3.682526  15.861109   0.000741   0.371649   0.001994
 218  11   9.560406   2.719130  13.981426   0.000011   0.092912   0.000119
 219  11   9.765910  -0.871891  14.114527   0.000195   0.278737   0.000699
 220  11   8.071064  -1.706657  16.542221   0.000457   0.278737   0.001640
 221  11   7.230224   1.592567  17.808695  -0.000174   0.092912  -0.001877
 222  11   7.523048  -1.170774  17.275202   0.000190   0.185824   0.001024
 223  11   7.973807  -2.379038  15.616456   0.001085   0.325193   0.003335
 224  11   8.693834  -2.210613  14.514167   0.000769   0.232280   0.003309
 225  11   9.146006   3.282989  14.172409   0.000138   0.185824   0.000742
 226  11   8.140653   4.063247  14.431523   0.001473   0.418105   0.003522
 227  11   6.876820   3.697455  16.527851   0.001095   0.371649   0.002947
[...]
 593  14  -1.085287   0.810106   4.597701  -0.000195   0.023734  -0.008232
 594  16  -1.049383   0.861328   3.588797  -0.000266   0.023734  -0.011196
 595   6  -0.858904  -0.380099   3.830005  -0.000214   0.023734  -0.009022
 596  14  -0.952295  -0.338144   4.556983  -0.000229   0.023734  -0.009629
 597  16  -0.913814  -0.309171   3.547291  -0.000216   0.023734  -0.009087
 598  14  -1.285949   0.826203   5.087806  -0.000062   0.006387  -0.009667
 599   6  -1.093791   0.978553   4.019079  -0.000011   0.009021  -0.001165
 600  14  -1.142280  -0.427295   5.042454  -0.000086   0.006224  -0.013820
 601   6  -0.925004  -0.468415   3.968484  -0.000016   0.008791  -0.001856
 602  16  -1.139860   1.148199   3.055995  -0.000501   0.064969  -0.007709
 603  16  -0.844597   2.009295   2.494970  -0.000839   0.143506  -0.005843
 604  16  -0.221419   2.535160   1.489111  -0.000798   0.143506  -0.005559
 605  16   0.498775   2.262440   0.448161  -0.000793   0.143506  -0.005524
 606  16   1.037475   1.296601  -0.225331  -0.000959   0.143506  -0.006681
 607  16   1.186359   0.011148  -0.270913  -0.000984   0.143506  -0.006856
 608  16   0.887849  -1.096815   0.329041  -0.000818   0.143506  -0.005699
 609  16   0.257384  -1.598820   1.342520  -0.000689   0.143506  -0.004799
 610  16  -0.461224  -1.300735   2.377596  -0.000844   0.143506  -0.005884
 611  16  -0.940721  -0.571161   2.995026  -0.000437   0.064969  -0.006729
 612   6  -0.902002   1.652041   3.219350  -0.000880   0.143034  -0.006150
 613   6  -0.365051   2.625606   2.280845  -0.000589   0.143034  -0.004120
 614   6   0.429058   2.775248   1.070913  -0.000523   0.143034  -0.003660
 615   6   1.173229   2.043098   0.057453  -0.000739   0.143034  -0.005167
 616   6   1.579681   0.712289  -0.367614  -0.001053   0.143034  -0.007364
 617   6   1.491232  -0.702533  -0.039908  -0.000763   0.143034  -0.005338
 618   6   0.942087  -1.654235   0.913843  -0.000497   0.143034  -0.003473
 619   6   0.144608  -1.774779   2.124807  -0.000564   0.143034  -0.003944
 620   6  -0.592806  -1.017547   3.124686  -0.000948   0.143034  -0.006631
 621   7   4.031716  -2.790127  12.242275   0.000711   0.101737   0.006990
 622   8   4.804389  -2.645540  12.302248   0.000613   0.101737   0.006029
 623  10   3.988935  -2.791928  12.692837   0.000786   0.101737   0.007729
 624   7   3.677118   3.778442  12.500931   0.000604   0.101738   0.005939
 625   8   4.448561   3.922331  12.576409   0.000704   0.101738   0.006920
 626  11   4.419875   3.883737  13.026445   0.000783   0.101738   0.007692
 627   8   4.424211   4.067010  12.351698   0.000083   0.013102   0.006319
 628   7   3.311246   3.941252  12.267632   0.000152   0.013102   0.011617
 629   8   5.203578  -2.789551  12.115750   0.000156   0.013195   0.011829
 630   7   4.092174  -2.914441  12.012019   0.000086   0.013195   0.006517
 631   7   3.262645   3.763530  12.703459   0.000746   0.101898   0.007323
 632  10   3.228548   3.762533  13.154776   0.000787   0.101898   0.007727
 633  11   4.014317   3.790577  13.226148   0.000627   0.101898   0.006154
 634   7  -1.648780   0.655988  11.817444  -0.000100   0.010335  -0.009676
 635  10  -1.644436   0.631249  12.265846  -0.000126   0.010335  -0.012165
 636  17  -1.700941   0.593747  11.533465  -0.000158   0.010335  -0.015325
 637   7  -1.482847  -0.801345  11.765208  -0.000098   0.010335  -0.009450
 638  10  -1.480560  -0.808018  12.214258  -0.000124   0.010335  -0.011992
 639  17  -1.549934  -0.732493  11.485928  -0.000131   0.010335  -0.012680
 640  10  -1.303950  -1.325278  12.543653  -0.000593   0.191955  -0.003091
 641  10   0.097049  -2.697091  12.594758   0.001012   0.391521   0.002586
 642  10   2.424349  -3.202403  12.759489   0.003050   0.391521   0.007791
 643   7  -0.752798  -1.859527  11.916657  -0.000716   0.391521  -0.001829
 644   7   1.269161  -3.124146  12.022611   0.002403   0.391521   0.006137
 645   7   3.224245  -3.118090  12.180377   0.001399   0.191955   0.007287
 646  10   2.369826   3.906196  13.075094   0.001671   0.191967   0.008705
 647  10   0.461943   3.484403  12.902416   0.002348   0.391549   0.005996
 648  10  -1.225414   1.808813  12.691062  -0.000729   0.391549  -0.001861
 649   7   1.679466   3.825460  12.368503   0.003165   0.391549   0.008083
 650   7  -0.476400   2.823549  12.149734   0.000987   0.391549   0.002521
 651   7  -1.534105   1.179271  11.990511  -0.000652   0.191967  -0.003395
 652   7   0.073903  -2.013831   8.961841  -0.000461   0.061946  -0.007437
 653  14  -0.068370  -1.763790   8.088196  -0.000808   0.061946  -0.013036
 654  17  -0.157794  -1.860878   8.855581  -0.000577   0.061946  -0.009318
 655  17  -1.765504   0.849461  11.109526  -0.000569   0.070368  -0.008081
 656  17  -1.416066   1.742221  10.460910  -0.001140   0.158508  -0.007191
 657  17  -0.867437   2.231224   9.566643  -0.000468   0.070368  -0.006651
 658   7  -1.504037   1.378770  11.230920  -0.001059   0.151988  -0.006969
 659   7  -0.880485   2.338165  10.159655  -0.000762   0.151988  -0.005016
 660  17  -0.389690  -1.998521   9.420852  -0.000549   0.070187  -0.007817
 661  17  -1.025145  -1.707672  10.340102  -0.001106   0.158002  -0.007002
 662  17  -1.559159  -0.965009  11.044870  -0.000465   0.070187  -0.006622
 663   7  -0.373334  -2.146370  10.004139  -0.000799   0.151685  -0.005269
 664   7  -1.185346  -1.428759  11.131764  -0.000985   0.151685  -0.006492
 665   8   5.181679  -2.651634  12.567947   0.000751   0.101900   0.007367
 666  10   4.357313  -2.719771  12.961315   0.000630   0.101900   0.006180
 667  11   5.144304  -2.691037  13.017286   0.000790   0.101900   0.007749
 668   8  10.149274   0.487507  12.746059  -0.000100   0.010328  -0.009677
 669  11  10.074227   0.472284  13.188593  -0.000126   0.010328  -0.012168
 670  18  10.245046   0.574341  12.480482  -0.000158   0.010328  -0.015330
 671   8   9.983712   1.943898  12.798215  -0.000098   0.010328  -0.009445
 672  11   9.910718   1.910619  13.240102  -0.000124   0.010328  -0.011999
 673  18  10.094378   1.899722  12.527946  -0.000131   0.010328  -0.012691
 674  11   6.005848  -2.833103  13.061293   0.001674   0.191966   0.008720
 675  11   7.914075  -2.411129  13.229289   0.002348   0.391546   0.005997
 676  11   9.601801  -0.735397  13.436091  -0.000729   0.391546  -0.001862
 677   8   6.798221  -2.694706  12.482186   0.003167   0.391546   0.008089
 678   8   8.954502  -1.692598  12.695498   0.000987   0.391546   0.002520
 679   8  10.012472  -0.048237  12.851679  -0.000652   0.191966  -0.003396
 680  11   9.680926   2.397866  13.582319  -0.000594   0.191992  -0.003093
 681  11   8.279783   3.770102  13.534148   0.001012   0.391602   0.002585
 682  11   5.951758   4.275556  13.374796   0.003049   0.391602   0.007786
 683   8   9.231627   2.989880  12.926445  -0.000717   0.391602  -0.001830
 684   8   7.209246   4.254889  12.824929   0.002403   0.391602   0.006136
 685   8   5.253468   4.248802  12.671805   0.001395   0.191992   0.007264
 686   8   8.878846   3.412568   9.903292  -0.000461   0.061969  -0.007439
 687  13   9.158507   3.240165   9.044004  -0.000808   0.061969  -0.013039
 688  18   9.125447   3.268003   9.821660  -0.000577   0.061969  -0.009319
 689  18  10.377312   0.356819  12.050948  -0.000569   0.070383  -0.008082
 690  18  10.140467  -0.472405  11.278566  -0.001140   0.158547  -0.007191
 691  18   9.742726  -0.876076  10.269044  -0.000468   0.070383  -0.006651
 692   8  10.103654  -0.179356  12.082127  -0.001060   0.152015  -0.006971
 693   8   9.663045  -1.035387  10.844904  -0.000762   0.152015  -0.005016
 694  18   9.264621   3.353234  10.426516  -0.000549   0.070211  -0.007819
 695  18   9.749637   2.977138  11.405044  -0.001107   0.158068  -0.007003
 696  18  10.171299   2.170585  12.116296  -0.000465   0.070211  -0.006626
 697   8   9.155701   3.448723  11.010888  -0.000800   0.151727  -0.005269
 698   8   9.785245   2.627562  12.184171  -0.000985   0.151727  -0.006493
 699  19   5.328056   3.307363  -1.064896  -0.000253   0.064297  -0.003938
 700  19   6.335721   2.979350  -0.999676  -0.000852   0.141888  -0.006005
 701  19   7.202607   2.029811  -0.973315  -0.000991   0.141888  -0.006981
 702  19   7.348787   0.752945  -1.018651  -0.001038   0.141888  -0.007314
 703  19   6.718426  -0.363528  -1.118367  -0.000752   0.141888  -0.005299
 704  19   5.552300  -0.893154  -1.234375  -0.000750   0.141888  -0.005284
 705  19   4.295829  -0.633633  -1.322363  -0.000767   0.141888  -0.005403
 706  19   3.428944   0.315907  -1.348724  -0.000943   0.141888  -0.006647
 707  19   3.282764   1.592773  -1.303387  -0.000969   0.141888  -0.006829
 708  19   3.913125   2.709246  -1.203671  -0.000794   0.141888  -0.005595
 709  19   4.821233   3.250856  -1.107574  -0.000206   0.064297  -0.003200
 710   9   5.752963   3.446191  -0.698857  -0.000490   0.141673  -0.003459
 711   9   7.007374   2.731916  -0.631303  -0.000812   0.141673  -0.005733
 712   9   7.605862   1.416626  -0.642514  -0.000628   0.141673  -0.004430
 713   9   7.319823   0.002717  -0.728206  -0.000719   0.141673  -0.005078
 714   9   6.258515  -0.969747  -0.855649  -0.000532   0.141673  -0.003756
 715   9   4.827321  -1.129316  -0.976163  -0.000490   0.141673  -0.003455
 716   9   3.572910  -0.415041  -1.043716  -0.000763   0.141673  -0.005386
 717   9   2.974422   0.900249  -1.032506  -0.000599   0.141673  -0.004228
 718   9   3.260461   2.314159  -0.946814  -0.000771   0.141673  -0.005445
 719   9   4.321769   3.286622  -0.819371  -0.000471   0.141673  -0.003325
 720  10   3.390230   3.799476  13.518345   0.000459   0.048150   0.009532
 721  11   4.171379   3.886021  13.584210   0.000487   0.048150   0.010112
 722  12   3.759567   3.868617  13.769135   0.000449   0.048150   0.009327
 723  10   4.146528  -2.845581  13.280243   0.000491   0.048150   0.010195
 724  11   4.927677  -2.759036  13.346108   0.000462   0.048150   0.009596
 725  12   4.523965  -2.847611  13.528483   0.000450   0.048150   0.009353
 726  12   3.285382   3.969911  14.220917   0.001381   0.179955   0.007673
 727  12   2.260079   3.654475  15.717311   0.002412   0.365283   0.006603
 728  12   1.353309   2.214161  17.186889   0.000020   0.365283   0.000054
 729  12   1.189824   0.029583  17.694127  -0.001879   0.365283  -0.005143
 730  12   1.835342  -2.021132  17.035133   0.000072   0.365283   0.000198
 731  12   3.030386  -3.113665  15.474799   0.002273   0.365283   0.006222
 732  12   4.088259  -3.084404  13.968151   0.001235   0.179955   0.006862
 733  10   2.358661   3.848449  14.425351   0.002907   0.365283   0.007959
 734  10   1.202882   3.027400  16.170760   0.001231   0.365283   0.003371
 735  10   0.638654   1.116392  17.212918  -0.001367   0.365283  -0.003742
 736  10   0.892778  -1.116413  17.132913  -0.001226   0.365283  -0.003355
 737  10   1.863103  -2.773503  15.962905   0.001279   0.365283   0.003500
 738  10   3.159593  -3.188783  14.173197   0.002739   0.365283   0.007497
 739  10  -1.554364  -0.760385  12.569189  -0.000212   0.023740  -0.008910
 740  17  -1.532428  -0.653314  11.843234  -0.000196   0.023740  -0.008239
 741  20  -1.653446  -0.714281  12.844932  -0.000266   0.023740  -0.011200
 742  10  -1.702799   0.543335  12.615916  -0.000214   0.023740  -0.009023
 743  17  -1.663226   0.495503  11.884409  -0.000229   0.023740  -0.009650
 744  20  -1.786779   0.456794  12.886904  -0.000216   0.023740  -0.009089
 745  17  -1.640749  -0.704021  11.327058  -0.000062   0.006443  -0.009622
 746  10  -1.599231  -0.830472  12.415429  -0.000011   0.009101  -0.001167
 747  17  -1.785146   0.550286  11.372644  -0.000088   0.006436  -0.013665
 748  10  -1.762741   0.618278  12.466783  -0.000017   0.009091  -0.001849
 749  20  -1.765573  -1.023924  13.360596  -0.000501   0.064969  -0.007712
 750  20  -1.385493  -1.809561  13.978401  -0.000839   0.143505  -0.005846
 751  20  -0.837212  -2.204579  15.082902  -0.000798   0.143505  -0.005561
 752  20  -0.376655  -1.800017  16.223422  -0.000793   0.143505  -0.005526
 753  20  -0.181915  -0.752318  16.958931  -0.000959   0.143505  -0.006686
 754  20  -0.328297   0.533380  17.005012  -0.000986   0.143505  -0.006872
 755  20  -0.759197   1.559906  16.343845  -0.000818   0.143505  -0.005702
 756  20  -1.307988   1.930307  15.231099  -0.000689   0.143505  -0.004800
 757  20  -1.762456   1.501353  14.097067  -0.000844   0.143505  -0.005885
 758  20  -1.961407   0.696119  13.422244  -0.000437   0.064969  -0.006731
 759  10  -1.399308  -1.460166  13.248078  -0.000880   0.143035  -0.006152
 760  10  -0.824573  -2.309538  14.280116  -0.000590   0.143035  -0.004122
 761  10  -0.228219  -2.303897  15.607214  -0.000524   0.143035  -0.003663
 762  10   0.159147  -1.445423  16.716190  -0.000739   0.143035  -0.005168
 763  10   0.187732  -0.066083  17.178210  -0.001057   0.143035  -0.007392
 764  10  -0.153516   1.300740  16.814615  -0.000764   0.143035  -0.005344
 765  10  -0.732640   2.126505  15.766003  -0.000497   0.143035  -0.003475
 766  10  -1.325696   2.091892  14.437867  -0.000564   0.143035  -0.003945
 767  10  -1.703352   1.210288  13.343789  -0.000949   0.143035  -0.006633
 768  12   4.921834  -2.992050  14.038437   0.001238   0.179956   0.006880
 769  12   5.696582  -2.818269  15.699612   0.002331   0.365286   0.006382
 770  12   6.350556  -1.520880  17.415855   0.000016   0.365286   0.000045
 771  12   6.416737   0.608684  18.134859  -0.001825   0.365286  -0.004996
 772  12   5.868522   2.714410  17.567611  -0.000089   0.365286  -0.000244
 773  12   4.926276   3.949867  15.942124   0.002370   0.365286   0.006488
 774  12   4.118957   4.062264  14.291203   0.001506   0.179956   0.008371
 775  11   5.803951  -2.895807  14.396167   0.002883   0.365286   0.007891
 776  11   6.664782  -2.241512  16.367780   0.001218   0.365286   0.003335
 777  11   7.044441  -0.434856  17.651619  -0.001324   0.365286  -0.003624
 778  11   6.790318   1.797948  17.731623  -0.001214   0.365286  -0.003324
 779  11   6.004561   3.559387  16.575635   0.001226   0.365286   0.003356
 780  11   5.003019   4.141423  14.648321   0.002720   0.365286   0.007447
 781  11   9.927909   1.831494  13.596525  -0.000211   0.023731  -0.008910
 782  18  10.021246   1.789594  12.869529  -0.000196   0.023731  -0.008238
 783  21   9.982655   1.760366  13.879222  -0.000266   0.023731  -0.011199
 784  11  10.076137   0.528268  13.549901  -0.000214   0.023731  -0.009024
 785  18  10.151862   0.641217  12.828444  -0.000229   0.023731  -0.009651
 786  21  10.115801   0.589737  13.837342  -0.000216   0.023731  -0.009090
 787  18  10.209211   1.884997  12.383431  -0.000062   0.006363  -0.009671
 788  11   9.996009   1.914462  13.458611  -0.000011   0.008988  -0.001170
 789  18  10.353214   0.631307  12.339420  -0.000088   0.006435  -0.013668
 790  11  10.159339   0.466483  13.405995  -0.000017   0.009089  -0.001850
 791  21  10.010080   2.022122  14.431574  -0.000501   0.064970  -0.007711
 792  21   9.532055   2.752510  15.049208  -0.000839   0.143509  -0.005845
 793  21   8.813997   3.051764  16.084348  -0.000798   0.143509  -0.005562
 794  21   8.182431   2.550736  17.097645  -0.000793   0.143509  -0.005526
 795  21   7.881599   1.443183  17.697231  -0.000959   0.143509  -0.006683
 796  21   8.027840   0.157425  17.651232  -0.000984   0.143509  -0.006859
 797  21   8.564600  -0.809303  16.977436  -0.000818   0.143509  -0.005701
 798  21   9.284299  -1.083145  15.936418  -0.000689   0.143509  -0.004800
 799  21   9.908613  -0.558199  14.930765  -0.000844   0.143509  -0.005884
 800  21  10.205668   0.302502  14.370053  -0.000437   0.064970  -0.006730
 801  11   9.663096   2.469273  14.302033  -0.000880   0.143036  -0.006152
 802  11   8.927186   3.227733  15.302115  -0.000590   0.143036  -0.004122
 803  11   8.129380   3.108458  16.513010  -0.000524   0.143036  -0.003663
 804  11   7.578210   2.157575  17.466436  -0.000739   0.143036  -0.005169
 805  11   7.486826   0.742813  17.793679  -0.001054   0.143036  -0.007367
 806  11   7.890570  -0.588703  17.368185  -0.000764   0.143036  -0.005340
 807  11   8.633302  -1.322044  16.354505  -0.000497   0.143036  -0.003475
 808  11   9.427791  -1.173608  15.144653  -0.000564   0.143036  -0.003945
 809  11   9.966788  -0.200799  14.206508  -0.000949   0.143036  -0.006633
 810  22   4.242607  -1.789543  18.532602  -0.000261   0.064297  -0.004065
 811  22   5.151211  -1.248816  18.628953  -0.000769   0.141887  -0.005419
 812  22   5.782605  -0.132970  18.729130  -0.000943   0.141887  -0.006649
 813  22   5.637610   1.144012  18.774948  -0.000968   0.141887  -0.006826
 814  22   4.771611   2.094366  18.748908  -0.000791   0.141887  -0.005574
 815  22   3.515390   2.355089  18.660956  -0.000630   0.141887  -0.004441
 816  22   2.348779   1.826594  18.544687  -0.000848   0.141887  -0.005980
 817  22   1.717386   0.710748  18.444511  -0.000989   0.141887  -0.006972
 818  22   1.862380  -0.566234  18.398692  -0.001039   0.141887  -0.007319
 819  22   2.728379  -1.516587  18.424732  -0.000754   0.141887  -0.005311
 820  22   3.735734  -1.845562  18.489878  -0.000277   0.064297  -0.004304
 821  12   4.742050  -1.825663  18.244413  -0.000496   0.141672  -0.003501
 822  12   5.804254  -0.854238  18.372282  -0.000763   0.141672  -0.005387
 823  12   6.091603   0.559369  18.458532  -0.000599   0.141672  -0.004226
 824  12   5.494340   1.875208  18.470216  -0.000771   0.141672  -0.005445
 825  12   4.240599   2.590674  18.402873  -0.000459   0.141672  -0.003241
 826  12   2.809267   2.432483  18.282226  -0.000486   0.141672  -0.003430
 827  12   1.747063   1.461059  18.154356  -0.000811   0.141672  -0.005727
 828  12   1.459714   0.047452  18.068107  -0.000628   0.141672  -0.004432
 829  12   2.056977  -1.268388  18.056423  -0.000721   0.141672  -0.005090
 830  12   3.310718  -1.983854  18.123765  -0.000535   0.141672  -0.003779
 831  15  10.976246   1.746852   4.475202  -0.001584   0.394202  -0.004019
 832  13  10.887805   1.448986   5.904649  -0.001672   0.394202  -0.004241
 833  18   9.994856  -0.531643   9.643398  -0.001599   0.215281  -0.007429
 834  18  10.586877   0.603571   9.743602  -0.005066   0.431632  -0.011738
 835  18  10.409060   2.150590   9.802351  -0.005184   0.431632  -0.012010
 836  18   9.574395   3.126384   9.782314  -0.001671   0.215281  -0.007761
 837  13  10.341887  -0.061095   8.576518  -0.004655   0.431632  -0.010784
 838  13  10.728295   1.445140   8.677933  -0.005289   0.431632  -0.012253
 839  13  10.009819   2.827913   8.686229  -0.004590   0.431632  -0.010634
 840  16  -1.155908   0.141850   3.442282  -0.001587   0.394512  -0.004022
 841  14  -1.295313   0.311419   4.888528  -0.001674   0.394512  -0.004244
 842  17  -1.015127   1.946046   8.881441  -0.001599   0.215262  -0.007429
 843  17  -1.607707   0.810510   8.785911  -0.005067   0.431596  -0.011740
 844  17  -1.430440  -0.737035   8.734069  -0.005185   0.431596  -0.012013
 845  17  -0.595977  -1.713137   8.758859  -0.001671   0.215262  -0.007762
 846  14  -1.186827   1.574652   7.735970  -0.004656   0.431596  -0.010787
 847  14  -1.573890   0.067946   7.640973  -0.005289   0.431596  -0.012255
 848  14  -0.855792  -1.315289   7.639158  -0.004590   0.431596  -0.010635
 849  20  -1.937954  -0.038362  12.958652  -0.001588   0.394619  -0.004025
 850  17  -1.795708  -0.207356  11.512632  -0.001676   0.394619  -0.004247
 851  21  10.250381   1.075269  13.975740  -0.001587   0.394471  -0.004023
 852  18  10.336371   1.373113  12.546143  -0.001675   0.394471  -0.004246
 =====================================================

              6937056  WORDS OF DYNAMIC MEMORY USED
 EXECUTION OF GAMESS TERMINATED NORMALLY Wed Nov 23 20:44:11 2016
 DDI: 263640 bytes (0.3 MB / 0 MWords) used by master data server.

 ----------------------------------------
 CPU timing information for all processes
 ========================================
 0: 1032.896 + 0.296 = 1033.192
 ----------------------------------------
 ddikick.x: exited gracefully.
