----- GAMESS execution script -----

          ******************************************************
          *         GAMESS VERSION =  5 DEC 2014 (R1)          *
          *             FROM IOWA STATE UNIVERSITY             *
          * M.W.SCHMIDT, K.K.BALDRIDGE, J.A.BOATZ, S.T.ELBERT, *
          *   M.S.GORDON, J.H.JENSEN, S.KOSEKI, N.MATSUNAGA,   *
          *          K.A.NGUYEN, S.J.SU, T.L.WINDUS,           *
          *       TOGETHER WITH M.DUPUIS, J.A.MONTGOMERY       *
          *         J.COMPUT.CHEM.  14, 1347-1363(1993)        *
          **************** 64 BIT LINUX VERSION ****************

 EXECUTION OF GAMESS BEGUN Wed Nov 23 20:59:52 2016

            ECHO OF THE FIRST FEW INPUT CARDS -
 INPUT CARD>! SELECT RESTRICTED HARTREE-FOCK AS DEFAULT                                     
 INPUT CARD>$contrl scftyp=rhf $end                                                         
 INPUT CARD>                                                                                
 INPUT CARD>! THEORY: HF OR DFT                                                             
 INPUT CARD> $contrl mplevl=0 $end                                                          
 INPUT CARD>                                                                                
 INPUT CARD> $system timlim=10000 mwords=20 $end                                            
 INPUT CARD> $SCF DIRSCF=.TRUE. $end                                                        
 INPUT CARD>                                                                                
 INPUT CARD>                                                                                
 INPUT CARD>! BASIS SETS                                                                    
 INPUT CARD>! 6-311G(d,p)                                                                   
 INPUT CARD> $BASIS GBASIS=N311 NGAUSS=6 NDFUNC=1 NPFUNC=1 $END                             
 INPUT CARD>                                                                                
 INPUT CARD>! One of the following                                                          
 INPUT CARD> $guess guess=HUCKEL $end                                                       
 INPUT CARD>                                                                                
 INPUT CARD> $statpt projct=.FALSE. $end                                                    
 INPUT CARD> $STATPT IFREEZ(1)=1,2,3 $END                                                   
 INPUT CARD>                                                                                
 INPUT CARD>! Optimize the geometry with COSMO effects                                      
 INPUT CARD> $statpt opttol=0.0005 nstep=50 $end                                            
 INPUT CARD> $contrl nzvar=1 $end                                                           
 INPUT CARD> $zmat dlc=.t. auto=.t. $end                                                    
 INPUT CARD> $contrl runtyp=OPTIMIZE maxit=200 $end                                         
 INPUT CARD>                                                                                
 INPUT CARD>! Run COSMO on perfect conductor                                                
 INPUT CARD> $COSGMS PRFCND=.TRUE. $end                                                     
 INPUT CARD>                                                                                
 INPUT CARD>! Specifying RSOLV                                                              
 INPUT CARD> $COSGMS COSRAD = 1.4 $end                                                      
 INPUT CARD>                                                                                
 INPUT CARD>! available memory                                                              
 INPUT CARD> $SYSTEM MWORDS=40 $END                                                         
 INPUT CARD>                                                                                
 INPUT CARD> $DATA                                                                          
 INPUT CARD>CClF3                                                                           
 INPUT CARD>C1                                                                              
 INPUT CARD>Cl    17.0     -1.4456000000   -0.0000000000    0.0000000000                    
 INPUT CARD>C      6.0      0.3574000000    0.0000000000   -0.0000000000                    
 INPUT CARD>F      9.0      0.8237000000    0.0000000000    1.3190000000                    
 INPUT CARD>F      9.0      0.8237000000   -1.1423000000   -0.6595000000                    
 INPUT CARD>F      9.0      0.8237000000    1.1423000000   -0.6595000000                    
 INPUT CARD> $END                                                                           
 INPUT CARD>                                                                                
 INPUT CARD>                                                                                
   40000000 WORDS OF MEMORY AVAILABLE

     BASIS OPTIONS
     -------------
     GBASIS=N311         IGAUSS=       6      POLAR=POPN311 
     NDFUNC=       1     NFFUNC=       0     DIFFSP=       F
     NPFUNC=       1      DIFFS=       F     BASNAM=        


     RUN TITLE
     ---------
 CClF3                                                                           

 THE POINT GROUP OF THE MOLECULE IS C1      
 THE ORDER OF THE PRINCIPAL AXIS IS     0

 ATOM      ATOMIC                      COORDINATES (BOHR)
           CHARGE         X                   Y                   Z
 CL         17.0    -2.7317878879       -0.0000000000        0.0000000000
 C           6.0     0.6753880680        0.0000000000       -0.0000000000
 F           9.0     1.5565672961        0.0000000000        2.4925485778
 F           9.0     1.5565672961       -2.1586339958       -1.2462742889
 F           9.0     1.5565672961        2.1586339958       -1.2462742889

          INTERNUCLEAR DISTANCES (ANGS.)




     $CONTRL OPTIONS
     ---------------
 SCFTYP=RHF          RUNTYP=OPTIMIZE     EXETYP=RUN     
 MPLEVL=       0     CITYP =NONE         CCTYP =NONE         VBTYP =NONE    
 DFTTYP=NONE         TDDFT =NONE    
 MULT  =       1     ICHARG=       0     NZVAR =       1     COORD =UNIQUE  
 PP    =NONE         RELWFN=NONE         LOCAL =NONE         NUMGRD=       F
 ISPHER=      -1     NOSYM =       0     MAXIT =     200     UNITS =ANGS    
 PLTORB=       F     MOLPLT=       F     AIMPAC=       F     FRIEND=        
 NPRINT=       7     IREST =       0     GEOM  =INPUT   
 NORMF =       0     NORMP =       0     ITOL  =      20     ICUT  =       9
 INTTYP=BEST         GRDTYP=BEST         QMTTOL= 1.0E-06

     $SYSTEM OPTIONS
     ---------------
  REPLICATED MEMORY=    40000000 WORDS (ON EVERY NODE).
 DISTRIBUTED MEMDDI=           0 MILLION WORDS IN AGGREGATE,
 MEMDDI DISTRIBUTED OVER   1 PROCESSORS IS           0 WORDS/PROCESSOR.
 TOTAL MEMORY REQUESTED ON EACH PROCESSOR=    40000000 WORDS.
 TIMLIM=       10000.00 MINUTES, OR       6.9 DAYS.
 PARALL= F  BALTYP=  DLB     KDIAG=    0  COREFL= F
 MXSEQ2=     300 MXSEQ3=     150  mem10=         0

     $COSGMS OPTIONS
     ---------------
     EPSI  =   INFTY     NSPA  =      92     COSRAD=    1.40
     DISEX =   10.00     OUTCHG=DBLCAV       COSBUG=       F
     COSWRT=       F     DCOSMO=       F

     SYMMETRY COORDINATES WILL NOT BE USED FOR 
     THE COSMO CALCULATION, EVEN IF SPECIFIED:
         -- SWITCHING TO C1 POINT GROUP --


     DEFINITION OF CAVITY
     ---------------------------
     ATOM         COORDINATES           RADIUS 
     1   -2.7318   -0.0000    0.0000    2.0500
     2    0.6754    0.0000   -0.0000    2.0000
     3    1.5566    0.0000    2.4925    1.7200
     4    1.5566   -2.1586   -1.2463    1.7200
     5    1.5566    2.1586   -1.2463    1.7200

          ----------------
          PROPERTIES INPUT
          ----------------

     MOMENTS            FIELD           POTENTIAL          DENSITY
 IEMOM =       1   IEFLD =       0   IEPOT =       0   IEDEN =       0
 WHERE =COMASS     WHERE =NUCLEI     WHERE =NUCLEI     WHERE =NUCLEI  
 OUTPUT=BOTH       OUTPUT=BOTH       OUTPUT=BOTH       OUTPUT=BOTH    
 IEMINT=       0   IEFINT=       0                     IEDINT=       0
                                                       MORB  =       0
          EXTRAPOLATION IN EFFECT
          SOSCF IN EFFECT
 ORBITAL PRINTING OPTION: NPREO=     1   103     2     1

     -------------------------------
     INTEGRAL TRANSFORMATION OPTIONS
     -------------------------------
     NWORD  =            0
     CUTOFF = 1.0E-09     MPTRAN =       0
     DIRTRF =       T     AOINTS =DUP     

          ----------------------
          INTEGRAL INPUT OPTIONS
          ----------------------
 NOPK  =       1 NORDER=       0 SCHWRZ=       T


 -----------------------------------------------
  STATISTICS ON AUTOMATIC COORDINATE GENERATION 
 -----------------------------------------------
  NUMBER OF USER SPECIFIED BONDS                             0
  NUMBER OF BONDS                                            4
  NUMBER OF ANGLES                                           6
  NUMBER OF TORSIONS                                         0
  NUMBER OF EXTRA COORD.                                     0
  NUMBER OF EXTRA COORD. FOR CONSTRAINTS                     0
  NUMBER OF CONSTRAINED COORD.                               0

  TOTAL NUMBER OF PRIMITIVES                                10
 -----------------------------------------------

   --- ENCODED Z MATRIX ---
 COORD  TYPE   I   J   K   L   M   N
    1      1    1   2
    2      1    2   4
    3      1    2   5
    4      1    2   3
    5      2    1   2   3
    6      2    1   2   4
    7      2    1   2   5
    8      2    3   2   5
    9      2    3   2   4
   10      2    4   2   5

          INDEP./SYM. INTERNAL COORDINATES
          --------------------------------
 CRD  1=  -0.1418 (  2)  0.1418 (  3) -0.6727 (  6)  0.6727 (  7) -0.1654 (  8)
           0.1654 (  9)
 CRD  2=   0.1638 (  4)  0.7768 (  5) -0.3884 (  6) -0.3884 (  7)  0.1909 ( 10)
 CRD  3=   0.1603 (  2)  0.1603 (  3) -0.3205 (  4) -0.1148 (  5) -0.3711 (  8)
          -0.3711 (  9)  0.7421 ( 10)
 CRD  4=   0.2776 (  2) -0.2776 (  3) -0.6427 (  8)  0.6427 (  9)
 CRD  5=  -0.4167 (  1)  0.1389 (  2)  0.1389 (  3)  0.1389 (  4) -0.3579 (  5)
          -0.3579 (  6) -0.3579 (  7)  0.3579 (  8)  0.3579 (  9)  0.3579 ( 10)
 CRD  6=  -0.5000 (  1) -0.5000 (  2) -0.5000 (  3) -0.5000 (  4)
 CRD  7=  -0.3664 (  2) -0.3664 (  3)  0.7329 (  4) -0.2238 (  5)  0.1119 (  6)
           0.1119 (  7) -0.1409 (  8) -0.1409 (  9)  0.2819 ( 10)
 CRD  8=   0.6347 (  2) -0.6347 (  3) -0.1938 (  6)  0.1938 (  7)  0.2441 (  8)
          -0.2441 (  9)
 CRD  9=   0.7592 (  1) -0.2530 (  2) -0.2530 (  3) -0.2531 (  4) -0.1964 (  5)
          -0.1964 (  6) -0.1964 (  7)  0.1964 (  8)  0.1964 (  9)  0.1964 ( 10)

 THE DETERMINANT OF THE G MATRIX IS 10**(   -12)

 THE DETERMINANT OF THE G MATRIX IS 10**(   -12)
 * * * WARNING * * *
 YOUR B MATRIX HAS A SMALL DETERMINANT.
 THIS SUGGESTS YOU MAY HAVE BADLY CHOSEN COORDINATES.


                     --------------------
                     INTERNAL COORDINATES
                     --------------------

                 - - ATOMS - -         COORDINATE      COORDINATE
 NO.   TYPE    I  J  K  L  M  N        (BOHR,RAD)       (ANG,DEG)
 ----------------------------------------------------------------
   1 STRETCH   1  2                     3.4071760       1.8030000
   2 STRETCH   2  4                     2.6437430       1.3990087
   3 STRETCH   2  5                     2.6437430       1.3990087
   4 STRETCH   2  3                     2.6437237       1.3989985
   5 BEND      1  2  3                  1.9106084     109.4697950
   6 BEND      1  2  4                  1.9106058     109.4696473
   7 BEND      1  2  5                  1.9106058     109.4696473
   8 BEND      3  2  5                  1.9106555     109.4724986
   9 BEND      3  2  4                  1.9106555     109.4724986
  10 BEND      4  2  5                  1.9106684     109.4732370

     ------------------------------------------
     THE POINT GROUP IS C1 , NAXIS= 1, ORDER= 1
     ------------------------------------------

     DIMENSIONS OF THE SYMMETRY SUBSPACES ARE
 A   =  103

 ..... DONE SETTING UP THE RUN .....
 STEP CPU TIME =     0.00 TOTAL CPU TIME =        0.0 (    0.0 MIN)
 TOTAL WALL CLOCK TIME=        0.0 SECONDS, CPU UTILIZATION IS   0.00%


          -----------------------------
          STATIONARY POINT LOCATION RUN
          -----------------------------

 OBTAINING INITIAL HESSIAN, HESS=GUESS   
 DIAGONAL GUESS HESSIAN IN INTERNAL COORDS IS
     1  0.3312     2  0.3274     3  0.3274     4  0.3274     5  0.2409
     6  0.2409     7  0.2409     8  0.2246     9  0.2246    10  0.2246
 TRANSFORMING HESSIAN TO SYMMETRY COORDINATES

          PARAMETERS CONTROLLING GEOMETRY SEARCH ARE
          METHOD =QA                  UPHESS =BFGS    
          NNEG   =         0          NFRZ   =         3
          NSTEP  =        50          IFOLOW =         1
          HESS   =GUESS               RESTAR =         F
          IHREP  =         0          HSSEND =         F
          NPRT   =         0          NPUN   =         0
          OPTTOL = 5.000E-04          RMIN   = 1.500E-03
          RMAX   = 1.000E-01          RLIM   = 7.000E-02
          DXMAX  = 3.000E-01          PURIFY =         F
          MOVIE  =         F          TRUPD  =         T
          TRMAX  = 5.000E-01          TRMIN  = 5.000E-02
          ITBMAT =         5          STPT   =         F
          STSTEP = 1.000E-02          PROJCT=          F
          FROZEN COORD(S)=   1   2   3


      ***** EQUILIBRIUM GEOMETRY LOCATED *****
            (SUBJECT TO   3 CONSTRAINT(S))
 COORDINATES OF ALL ATOMS ARE (ANGS)
   ATOM   CHARGE       X              Y              Z
 ------------------------------------------------------------
 CL         17.0  -1.4017024497  -0.0000003582  -0.0000001694
 C           6.0   0.3464567904  -0.0000013810   0.0000101518
 F           9.0   0.7990698735  -0.0000047091   1.2221634035
 F           9.0   0.7990708255  -1.0584360744  -0.6110802316
 F           9.0   0.7990726402   1.0584423151  -0.6110892722


                     --------------------
                     INTERNAL COORDINATES
                     --------------------

                 - - ATOMS - -         COORDINATE      COORDINATE
 NO.   TYPE    I  J  K  L  M  N        (BOHR,RAD)       (ANG,DEG)
 ----------------------------------------------------------------
   1 STRETCH   1  2                     3.3035419       1.7481592
   2 STRETCH   2  4                     2.4628683       1.3032939
   3 STRETCH   2  5                     2.4628913       1.3033061
   4 STRETCH   2  3                     2.4628264       1.3032717
   5 BEND      1  2  3                  1.9254818     110.3219799
   6 BEND      1  2  4                  1.9254679     110.3211854
   7 BEND      1  2  5                  1.9254649     110.3210141
   8 BEND      3  2  5                  1.8955696     108.6081391
   9 BEND      3  2  4                  1.8955620     108.6077046
  10 BEND      4  2  5                  1.8955611     108.6076490

          INTERNUCLEAR DISTANCES (ANGS.)


 =====================================================
   GAMESS/COSab RESULTS
 =====================================================

   Dielectric Constant                  = INFTY
   Basic Grid Size                      =                 1082
   Number of Segments                   =                   92
   Number of Segments located on spheres=                  194
   Number of Segments of the cavity     =                  299
   Solvent Radius (rsolv)               = 1.40
   Outlying Charge Error Method         = double cavity

 =====================================================

  Total solvated Energy (a.u.)          =  -795.7861134338
  Total Energy corrected (a.u.)         =  -795.7860879915

  Outlying charge effect (a.u.)         =     0.0000254423
  Outlying charge effect (kcal/mol)     =     0.0159653049

  Dielectric Energy (a.u.)              =    -0.0015595545
  Dielectric energy corr. (a.u.)        =    -0.0015341122

  Sum of polarization charges           =     0.0067001841
  Sum of polarization charges(cor.)     =    -0.0067001841

  Total surface area of cavity (A**2)   =   98.07
  Total volume of cavity (A**3)         =   82.64

 =====================================================
 NPS=                   299
NR.  ATOM  (X, Y, Z)(a.u.)                  CHARGE(e)  AREA(A**2) SIGMA(e/A**2)
   1   1  -6.521105   0.018744  -0.111872  -0.004642   0.536887  -0.008647
   2   1  -4.439700  -2.577528  -2.270815   0.000919   0.439271   0.002091
   3   1  -4.385810   1.265170  -3.223302   0.001080   0.488079   0.002212
   4   1  -4.457439   3.424060   0.109939   0.000946   0.488079   0.001938
   5   1  -4.516605   0.927269   3.264798   0.000915   0.488079   0.001874
   6   1  -4.329419  -2.963751   1.843690   0.001022   0.439271   0.002326
   7   1  -6.238316  -1.173343  -0.863869  -0.003842   0.585695  -0.006560
   8   1  -5.461114  -2.033493  -1.721455  -0.001061   0.536887  -0.001977
   9   1  -6.220907   0.429941  -1.436251  -0.003791   0.585695  -0.006473
  10   1  -5.470215   0.799208  -2.531496  -0.000953   0.488079  -0.001952
  11   1  -6.247720   1.433476  -0.022250  -0.003881   0.585695  -0.006627
  12   1  -5.521667   2.579661   0.315434  -0.001151   0.536887  -0.002144
  13   1  -6.297775   0.436716   1.225492  -0.003798   0.536887  -0.007074
  14   1  -5.630884   0.619680   2.393884  -0.001318   0.488079  -0.002701
  15   1  -6.271978  -1.082034   0.842246  -0.004715   0.683311  -0.006900
  16   1  -5.522481  -2.158079   1.446446  -0.001284   0.585695  -0.002192
  17   1  -4.651424  -1.479364  -2.967922   0.000699   0.488079   0.001431
  18   1  -4.648519  -0.128267  -3.315455   0.000899   0.536887   0.001675
  19   1  -4.773735   2.166293  -2.408185   0.000613   0.536887   0.001141
  20   1  -4.691543   3.087972  -1.139788   0.000876   0.585695   0.001496
  21   1  -4.610260   2.976395   1.516966   0.001029   0.585695   0.001757
  22   1  -4.683026   2.043053   2.587526   0.000847   0.585695   0.001447
  23   1  -4.644961  -0.369316   3.299454   0.000828   0.536887   0.001542
  24   1  -4.624881  -1.872218   2.756335   0.000949   0.585695   0.001621
  25   1  -4.638327  -3.258143   0.658653   0.001087   0.634503   0.001713
  26   1  -4.667804  -3.171049  -0.935755   0.000979   0.634503   0.001543
  27   1  -3.434743  -2.130905  -3.138322   0.001563   0.439271   0.003559
  28   1  -2.737745  -1.341557  -3.633153   0.000559   0.292848   0.001908
  29   1  -2.263238  -0.237132  -3.847410   0.000040   0.390463   0.000103
  30   1  -3.434936   0.494789  -3.760941   0.001477   0.439271   0.003363
  31   1  -3.217591   2.072566  -3.223105   0.001536   0.488079   0.003147
  32   1  -2.949697   2.998098  -2.434807   0.000800   0.292848   0.002731
  33   1  -3.214837   3.580630  -1.366051   0.001016   0.341655   0.002972
  34   1  -3.242037   3.807771  -0.395389   0.001567   0.439271   0.003568
  35   1  -3.475183   3.616788   1.115038   0.001638   0.488079   0.003356
  36   1  -2.222848   3.342847   1.910820   0.000065   0.488079   0.000133
  37   1  -2.591032   2.534869   2.928892   0.000645   0.292848   0.002202
  38   1  -3.322965   1.686881   3.421590   0.001703   0.536887   0.003171
  39   1  -3.316952   0.375689   3.797340   0.001611   0.488079   0.003300
  40   1  -3.042541  -0.748919   3.780403   0.000946   0.341655   0.002769
  41   1  -2.568884  -2.233928   3.163944   0.000517   0.341655   0.001514
  42   1  -3.350732  -2.760359   2.625858   0.001839   0.536887   0.003426
  43   1  -3.285168  -3.565881   1.373676   0.001385   0.439271   0.003152
  44   1  -2.458801  -3.774505   0.851136   0.000717   0.341655   0.002099
  45   1  -3.011694  -3.698197  -1.095049   0.000813   0.292848   0.002775
  46   1  -3.534097  -3.262108  -1.892730   0.001251   0.390463   0.003204
  47   1  -5.699209  -0.685859  -2.287404  -0.001774   0.585695  -0.003028
  48   1  -5.737637   1.954995  -1.282438  -0.002293   0.683311  -0.003356
  49   1  -5.717363   1.780083   1.556515  -0.001937   0.585695  -0.003307
  50   1  -5.639187  -0.796322   2.330448  -0.001767   0.634503  -0.002784
  51   1  -5.698449  -2.384946  -0.138808  -0.001902   0.585695  -0.003247
  52   1  -3.563246  -0.847359  -3.667874   0.001438   0.439271   0.003274
  53   1  -3.847881   2.939351  -2.220335   0.001159   0.390463   0.002969
  54   1  -3.457785   2.874968   2.467277   0.001661   0.488079   0.003402
  55   1  -3.610320  -1.442160   3.464543   0.001462   0.439271   0.003329
  56   1  -3.482164  -3.780287  -0.149785   0.001837   0.536887   0.003421
  57   1  -2.572393   1.170467  -3.692102   0.000845   0.390463   0.002163
  58   1  -2.600528   3.819726   0.643966   0.000447   0.292848   0.001527
  59   1  -2.137645  -3.201533   2.120443  -0.000273   0.390463  -0.000698
  60   1  -2.915929  -2.887911  -2.568290   0.000698   0.292848   0.002382
  61   2   4.430941   0.150818  -0.039851  -0.000599   0.046456  -0.012890
  62   3   2.605609   0.088489   5.368395   0.000304   0.377948   0.000805
  63   3  -0.414089   0.392373   4.899632   0.000745   0.206154   0.003615
  64   3   1.548053   2.805780   3.949891   0.000853   0.274871   0.003104
  65   3   4.416548   1.340348   2.875362   0.000953   0.309230   0.003082
  66   3   3.984580  -1.948537   3.112333   0.000928   0.309230   0.003002
  67   3   0.869732  -2.596317   4.157233   0.000716   0.240512   0.002977
  68   3   1.414495   0.113612   5.556496   0.000658   0.412307   0.001595
  69   3   0.317438   0.395371   5.307234   0.000991   0.343589   0.002885
  70   3   2.258269   1.218521   5.228449   0.000644   0.412307   0.001563
  71   3   1.844319   2.165682   4.710106   0.000996   0.343589   0.002898
  72   3   3.516148   0.635890   4.786592   0.000593   0.412307   0.001439
  73   3   4.214327   0.888804   3.878423   0.001028   0.377948   0.002720
  74   3   3.364717  -0.692281   4.887444   0.000502   0.377948   0.001328
  75   3   3.767602  -1.453196   4.141557   0.000903   0.343589   0.002628
  76   3   2.177789  -1.073557   5.303925   0.000705   0.481025   0.001465
  77   3   1.478935  -1.973319   4.892145   0.001172   0.412307   0.002844
  78   3  -0.107534   1.494043   4.700363   0.001228   0.343589   0.003574
  79   3   0.757084   2.305419   4.473512   0.001025   0.309230   0.003313
  80   3   2.609331   2.586802   3.941891   0.000862   0.274871   0.003135
  81   3   3.707722   2.148640   3.366913   0.001223   0.377948   0.003236
  82   3   4.703534   0.196515   2.881796   0.001327   0.412307   0.003218
  83   3   4.508981  -0.980079   3.090793   0.001113   0.343589   0.003240
  84   3   3.157394  -2.496227   3.582241   0.000972   0.309230   0.003143
  85   3   1.887029  -2.755215   3.992230   0.001187   0.343589   0.003455
  86   3   0.341464  -1.883182   4.687122   0.001053   0.309230   0.003407
  87   3  -0.312894  -0.655707   4.919482   0.001182   0.343589   0.003440
  88   3   0.547418   2.917986   3.369416   0.000189   0.309230   0.000612
  89   3   1.733606   3.098873   3.264295   0.000581   0.206154   0.002818
  90   3   4.071558   1.996449   2.440947   0.000470   0.206154   0.002279
  91   3   4.622116   0.890093   2.014297   0.000472   0.240512   0.001964
  92   3   4.665479   0.081029   1.534237  -0.000333   0.171795  -0.001936
  93   3   4.314052  -1.643055   2.260057   0.000671   0.274871   0.002440
  94   3   3.342896  -2.632755   2.832899   0.000371   0.137436   0.002698
  95   3   0.957437  -3.060382   3.254790   0.000265   0.309230   0.000857
  96   3   0.117928  -2.566466   3.737867   0.000496   0.240512   0.002064
  97   3   1.008763   1.347929   5.224421   0.001103   0.412307   0.002675
  98   3   3.208066   1.767484   4.444320   0.001212   0.481025   0.002519
  99   3   4.235578  -0.349302   4.045633   0.001009   0.412307   0.002448
 100   3   2.789586  -2.019971   4.511177   0.001184   0.446666   0.002650
 101   3   0.734342  -0.931674   5.325347   0.001094   0.412307   0.002654
 102   3  -0.008096   2.365401   3.941970   0.000386   0.240512   0.001604
 103   3   2.884434   2.843383   3.078123   0.000712   0.274871   0.002591
 104   3   4.689156  -0.609787   2.016487   0.000479   0.309230   0.001548
 105   3   2.340077  -3.008930   3.216246   0.000597   0.240512   0.002483
 106   3  -0.361489  -1.564467   4.457721   0.000559   0.171795   0.003255
 107   4   2.580322  -4.621144  -2.751475   0.000305   0.377948   0.000806
 108   4   2.864836  -1.529594  -4.071555   0.001033   0.343589   0.003005
 109   4  -0.103708  -3.031449  -3.780971   0.000997   0.309230   0.003224
 110   4  -0.187594  -4.765955  -0.972836   0.001063   0.309230   0.003439
 111   4   2.786815  -4.437928   0.574881   0.000996   0.309230   0.003221
 112   4   4.745671  -2.286526  -1.269471   0.000927   0.309230   0.002997
 113   4   2.996685  -3.740388  -3.462583   0.000611   0.412307   0.001481
 114   4   3.002362  -2.642073  -3.969986   0.001082   0.377948   0.002862
 115   4   1.678502  -4.290592  -3.454794   0.000658   0.412307   0.001597
 116   4   0.766611  -3.687508  -3.831482   0.001003   0.343589   0.002920
 117   4   1.583156  -5.067257  -2.228151   0.000640   0.412307   0.001553
 118   4   0.735755  -5.145694  -1.420716   0.001079   0.377948   0.002854
 119   4   2.775811  -4.956541  -1.626107   0.000515   0.377948   0.001363
 120   4   2.931978  -4.849299  -0.502824   0.000905   0.343589   0.002635
 121   4   3.636852  -4.194222  -2.262583   0.000665   0.481025   0.001382
 122   4   4.388998  -3.356770  -1.814828   0.001124   0.412307   0.002726
 123   4   1.887314  -2.044044  -4.382822   0.001108   0.343589   0.003225
 124   4   0.917333  -2.625435  -4.288833   0.001010   0.309230   0.003267
 125   4  -0.308049  -3.832450  -3.130104   0.001271   0.377948   0.003362
 126   4  -0.351417  -4.513497  -2.039530   0.001193   0.343589   0.003472
 127   4   0.759008  -5.011153  -0.188068   0.001120   0.343589   0.003259
 128   4   1.756740  -4.887269   0.317759   0.001258   0.377948   0.003327
 129   4   3.706405  -3.998282   0.167352   0.000977   0.309230   0.003158
 130   4   4.487358  -3.167048  -0.573023   0.001109   0.343589   0.003228
 131   4   4.547843  -2.302644  -2.270444   0.000995   0.309230   0.003219
 132   4   3.901104  -1.944833  -3.355734   0.001084   0.343589   0.003156
 133   4   1.930951  -1.165327  -4.267723   0.000420   0.171795   0.002444
 134   4   0.135119  -1.993986  -4.099974   0.000725   0.309230   0.002346
 135   4   0.035030  -4.598405   0.125135   0.000378   0.240512   0.001572
 136   4   2.030077  -4.243829   1.138724   0.000527   0.274871   0.001917
 137   4   3.407034  -3.728612   0.839824   0.000311   0.137436   0.002264
 138   4   4.658434  -1.974983  -0.347632   0.000196   0.309230   0.000632
 139   4   4.676039  -1.290827  -1.349151   0.000130   0.309230   0.000421
 140   4   3.579079  -1.184284  -3.524989   0.000451   0.171795   0.002623
 141   4   1.933604  -3.257289  -4.122056   0.001087   0.412307   0.002636
 142   4   0.571830  -4.656127  -2.776567   0.001264   0.481025   0.002627
 143   4   1.835201  -5.217965  -0.831382   0.001049   0.412307   0.002544
 144   4   3.863379  -4.228020  -0.903912   0.001167   0.446666   0.002613
 145   4   3.950327  -3.014879  -3.046813   0.001037   0.412307   0.002515
 146   4   0.921073  -1.377705  -4.290102   0.000230   0.274871   0.000836
 147   4   0.807959  -4.360754   0.966395   0.000246   0.343589   0.000716
 148   4   4.194334  -3.100442   0.310989   0.000642   0.240512   0.002670
 149   4   4.374653  -1.367185  -2.553992   0.000812   0.274871   0.002955
 150   5   2.605600   4.604959  -2.760860   0.000304   0.377948   0.000804
 151   5  -0.414096   4.047044  -2.789634   0.000746   0.206154   0.003617
 152   5   1.548046   2.017849  -4.404848   0.000848   0.274871   0.003084
 153   5   4.416551   1.820006  -2.598497   0.000936   0.309230   0.003027
 154   5   3.984591   3.669667   0.131278   0.000993   0.309230   0.003211
 155   5   0.869738   4.898455   0.169840   0.000721   0.240512   0.002999
 156   5   1.414485   4.755292  -2.876661   0.000657   0.412307   0.001594
 157   5   0.317429   4.398542  -2.996035   0.000991   0.343589   0.002885
 158   5   2.258259   3.918745  -3.669522   0.000644   0.412307   0.001561
 159   5   1.844309   2.996265  -4.230614   0.000994   0.343589   0.002893
 160   5   3.516142   3.827405  -2.944028   0.000593   0.412307   0.001438
 161   5   4.214326   2.914453  -2.708978   0.001029   0.377948   0.002721
 162   5   3.364714   4.578830  -1.844223   0.000502   0.377948   0.001329
 163   5   3.767605   4.313331  -0.812310   0.000896   0.343589   0.002609
 164   5   2.177785   5.130146  -1.722262   0.000704   0.481025   0.001464
 165   5   1.478935   5.223411  -0.737151   0.001175   0.412307   0.002849
 166   5  -0.107543   3.323639  -3.644076   0.001228   0.343589   0.003575
 167   5   0.757075   2.721496  -4.233327   0.001019   0.309230   0.003294
 168   5   2.609324   2.120414  -4.211213   0.000866   0.274871   0.003149
 169   5   3.707720   1.841553  -3.544271   0.001203   0.377948   0.003184
 170   5   4.703541   2.397495  -1.611127   0.001353   0.412307   0.003282
 171   5   4.508990   3.166787  -0.696664   0.001101   0.343589   0.003205
 172   5   3.157404   4.350461   0.370643   0.000981   0.309230   0.003171
 173   5   1.887037   4.835012   0.389946   0.001139   0.343589   0.003316
 174   5   0.341465   5.000784  -0.712694   0.001051   0.309230   0.003398
 175   5  -0.312898   4.588274  -1.891895   0.001182   0.343589   0.003441
 176   5   0.547414   1.459036  -4.211778   0.000242   0.309230   0.000782
 177   5   1.733602   1.277560  -4.315877   0.000378   0.206154   0.001833
 178   5   4.071562   1.115740  -2.949489   0.000513   0.206154   0.002488
 179   5   4.622126   1.299430  -1.778034   0.000219   0.240512   0.000911
 180   5   4.665494   1.288217  -0.837335  -0.000171   0.171795  -0.000995
 181   5   4.314068   2.778835   0.292859   0.000508   0.274871   0.001848
 182   5   3.342910   3.769776   0.863549   0.000311   0.137436   0.002261
 183   5   0.957451   4.348949   1.022953   0.000156   0.309230   0.000504
 184   5   0.117937   4.520345   0.353676   0.000526   0.240512   0.002187
 185   5   1.008752   3.850547  -3.779572   0.001103   0.412307   0.002674
 186   5   3.208058   2.965191  -3.752879   0.001211   0.481025   0.002517
 187   5   4.235578   3.678314  -1.720350   0.001007   0.412307   0.002441
 188   5   2.789589   4.916815  -0.506273   0.001185   0.446666   0.002653
 189   5   0.734336   5.077751  -1.855839   0.001094   0.412307   0.002654
 190   5  -0.008102   2.231173  -4.019499   0.000382   0.240512   0.001588
 191   5   2.884431   1.244080  -4.001536   0.000792   0.274871   0.002880
 192   5   4.689170   2.051265  -0.480195   0.000408   0.309230   0.001318
 193   5   2.340091   4.289848   0.997659   0.000649   0.240512   0.002699
 194   5  -0.361487   4.642756  -0.874005   0.000559   0.171795   0.003251
 195   1  -0.939695   2.989095   2.049510  -0.001279   0.061401  -0.020822
 196   2  -0.373339   3.019352   2.063995  -0.001287   0.061401  -0.020956
 197   3  -0.181538   2.903295   2.435154  -0.001000   0.061401  -0.016287
 198   1  -0.939705  -2.989121   2.049501  -0.001180   0.061401  -0.019225
 199   2  -0.373349  -3.019380   2.063985  -0.001285   0.061401  -0.020921
 200   3  -0.181547  -2.903324   2.435145  -0.001143   0.061401  -0.018615
 201   1  -0.939704  -3.269479   1.563909  -0.001277   0.061402  -0.020797
 202   2  -0.373348  -3.297148   1.582877  -0.001285   0.061402  -0.020936
 203   4  -0.181547  -3.560557   1.296788  -0.000993   0.061402  -0.016171
 204   1  -0.939662  -0.280351  -3.613394  -0.001181   0.061402  -0.019238
 205   2  -0.373305  -0.277763  -3.646834  -0.001285   0.061402  -0.020921
 206   4  -0.181506  -0.657229  -3.731907  -0.001143   0.061402  -0.018614
 207   1  -0.939660   0.280330  -3.613395  -0.001279   0.061404  -0.020837
 208   2  -0.373303   0.277740  -3.646834  -0.001286   0.061404  -0.020941
 209   5  -0.181501   0.657215  -3.731912  -0.000993   0.061404  -0.016167
 210   1  -0.939693   3.269455   1.563920  -0.001180   0.061404  -0.019212
 211   2  -0.373337   3.297122   1.582889  -0.001282   0.061404  -0.020878
 212   5  -0.181533   3.560540   1.296793  -0.001130   0.061404  -0.018404
 213   2  -0.476771  -0.019285  -3.682871  -0.000419   0.036051  -0.011633
 214   1  -1.287917   0.019110  -3.707008  -0.000396   0.036516  -0.010854
 215   2  -0.476806   3.199082   1.824771  -0.000419   0.036058  -0.011621
 216   1  -1.287952   3.200781   1.870086  -0.000395   0.036523  -0.010807
 217   2  -0.476817  -3.179835   1.858143  -0.000419   0.036059  -0.011626
 218   1  -1.287963  -3.219932   1.836946  -0.000387   0.036524  -0.010588
 219   3  -0.291142   2.742811   2.986079  -0.001663   0.293257  -0.005672
 220   3  -0.844276   1.498317   3.982104  -0.000543   0.592570  -0.000917
 221   3  -1.016520  -0.520245   4.292254   0.000098   0.592570   0.000166
 222   3  -0.520445  -2.296869   3.398963  -0.002447   0.592570  -0.004130
 223   1  -1.633308   2.418880   2.898748  -0.003279   0.655577  -0.005002
 224   1  -2.155747   0.547856   3.839497  -0.000806   0.655577  -0.001230
 225   1  -1.974358  -1.577959   3.512860  -0.001518   0.655577  -0.002316
 226   1  -1.396964  -2.886665   2.473138  -0.001915   0.330253  -0.005798
 227   4  -0.291151  -3.957436   0.882340  -0.001627   0.293259  -0.005549
 228   4  -0.844280  -4.197782  -0.693450  -0.000615   0.592575  -0.001037
 229   4  -1.016508  -3.457096  -2.596668   0.000070   0.592575   0.000118
 230   4  -0.520413  -1.795156  -3.688621  -0.002503   0.592575  -0.004224
 231   1  -1.633316  -3.719842   0.645459  -0.003325   0.655582  -0.005071
 232   1  -2.155744  -3.599049  -1.445289  -0.000811   0.655582  -0.001238
 233   1  -1.974335  -2.253254  -3.122989  -0.001515   0.655582  -0.002312
 234   1  -1.396923  -0.698462  -3.736492  -0.001951   0.330256  -0.005906
 235   5  -0.291111   1.214580  -3.868404  -0.001650   0.293262  -0.005627
 236   5  -0.844268   2.699431  -3.288665  -0.000546   0.592582  -0.000922
 237   5  -1.016526   3.977331  -1.695601   0.000103   0.592582   0.000175
 238   5  -0.520441   4.092024   0.289670  -0.002434   0.592582  -0.004108
 239   1  -1.633289   1.300912  -3.544211  -0.003324   0.655590  -0.005070
 240   1  -2.155753   3.051163  -2.394234  -0.000829   0.655590  -0.001265
 241   1  -1.974366   3.831204  -0.389882  -0.001564   0.655590  -0.002385
 242   1  -1.396957   3.585118   1.263370  -0.001955   0.330260  -0.005920
 243   2   0.152914  -3.254506   1.878997  -0.000869   0.043700  -0.019882
 244   3   0.342532  -3.139422   2.250945  -0.000828   0.043700  -0.018943
 245   4   0.342532  -3.519083   1.593354  -0.000716   0.043700  -0.016384
 246   2   4.395743  -0.533009   0.307731  -0.000904   0.043700  -0.020696
 247   3   4.423030  -0.522050   0.739796  -0.000808   0.043700  -0.018487
 248   4   4.423030  -0.901711   0.082206  -0.000697   0.043700  -0.015952
 249   2   4.395741   0.533000   0.307731  -0.000879   0.043701  -0.020107
 250   3   4.423028   0.522038   0.739796  -0.000794   0.043701  -0.018177
 251   5   4.423028   0.901711   0.082200  -0.000703   0.043701  -0.016097
 252   2   0.152923   3.254479   1.879005  -0.000868   0.043701  -0.019856
 253   3   0.342541   3.139392   2.250952  -0.000812   0.043701  -0.018579
 254   5   0.342543   3.519064   1.593356  -0.000723   0.043701  -0.016546
 255   3   4.528630  -0.073390   1.030260  -0.000820   0.099718  -0.008221
 256   2   4.439913   0.068765   0.416445  -0.001563   0.106402  -0.014690
 257   3   0.241948   3.026253   2.617779  -0.000303   0.027341  -0.011073
 258   2  -0.051140   3.130450   2.079649  -0.000429   0.029174  -0.014696
 259   3   0.207292  -3.010191   2.630600  -0.000363   0.027341  -0.013292
 260   2  -0.018677  -3.145562   2.067613  -0.000428   0.029174  -0.014687
 261   2   0.152927  -0.000009  -3.757953  -0.000869   0.043701  -0.019880
 262   4   0.342544  -0.379672  -3.844260  -0.000827   0.043701  -0.018931
 263   5   0.342547   0.379663  -3.844264  -0.000716   0.043701  -0.016388
 264   2   4.395739  -0.000002  -0.615459  -0.000901   0.043701  -0.020622
 265   4   4.423025  -0.379665  -0.822000  -0.000808   0.043701  -0.018479
 266   5   4.423026   0.379669  -0.822005  -0.000698   0.043701  -0.015963
 267   4   0.207322  -0.773072  -3.922178  -0.000363   0.027336  -0.013287
 268   2  -0.018652  -0.217824  -3.757917  -0.000428   0.029168  -0.014688
 269   4   4.528628  -0.855549  -0.578679  -0.000849   0.099719  -0.008511
 270   2   4.439913  -0.395041  -0.148660  -0.001595   0.106403  -0.014990
 271   4   0.241940  -3.780194   1.311965  -0.000250   0.027341  -0.009146
 272   2  -0.051149  -3.366253   1.671268  -0.000426   0.029174  -0.014609
 273   5   0.207305   3.783247   1.291616  -0.000310   0.027341  -0.011333
 274   2  -0.018667   3.363355   1.690353  -0.000425   0.029174  -0.014556
 275   5   4.528632   0.928935  -0.451585  -0.000749   0.099722  -0.007509
 276   2   4.439913   0.326261  -0.267779  -0.001375   0.106406  -0.012926
 277   5   0.241968   0.753906  -3.929707  -0.000250   0.027337  -0.009137
 278   2  -0.051117   0.235752  -3.750872  -0.000426   0.029169  -0.014611
 279   4   4.515954  -1.417842   0.193199  -0.001435   0.256938  -0.005584
 280   4   3.921941  -2.687834   0.926433  -0.000981   0.515542  -0.001903
 281   4   2.372030  -3.682000   1.500418  -0.001025   0.515542  -0.001989
 282   4   0.796100  -3.803885   1.570789  -0.001453   0.256938  -0.005653
 283   3   4.327458  -1.375264   1.419395  -0.002306   0.515542  -0.004473
 284   3   3.244699  -2.757564   2.217471  -0.000629   0.515542  -0.001220
 285   3   1.402249  -3.251594   2.502701  -0.002250   0.515542  -0.004364
 286   5   0.796110   3.803870   1.570793  -0.001460   0.256940  -0.005682
 287   5   2.372036   3.681984   1.500424  -0.000994   0.515546  -0.001928
 288   5   3.921943   2.687824   0.926436  -0.001011   0.515546  -0.001961
 289   5   4.515957   1.417842   0.193195  -0.001425   0.256940  -0.005547
 290   3   1.402254   3.251563   2.502713  -0.002268   0.515546  -0.004399
 291   3   3.244700   2.757535   2.217484  -0.000603   0.515546  -0.001170
 292   3   4.327457   1.375245   1.419401  -0.002276   0.515546  -0.004416
 293   5   4.515954   0.541613  -1.324483  -0.001413   0.256941  -0.005499
 294   5   3.921938   0.541606  -2.790934  -0.001015   0.515547  -0.001968
 295   5   2.372034   0.541603  -3.938891  -0.001002   0.515547  -0.001944
 296   5   0.796113   0.541607  -4.079631  -0.001438   0.256941  -0.005598
 297   4   4.327453  -0.541614  -1.900698  -0.002199   0.515547  -0.004266
 298   4   3.244695  -0.541620  -3.496831  -0.000629   0.515547  -0.001220
 299   4   1.402254  -0.541618  -4.067284  -0.002290   0.515547  -0.004442
 =====================================================

              1090896  WORDS OF DYNAMIC MEMORY USED
 EXECUTION OF GAMESS TERMINATED NORMALLY Wed Nov 23 21:00:45 2016
 DDI: 263640 bytes (0.3 MB / 0 MWords) used by master data server.

 ----------------------------------------
 CPU timing information for all processes
 ========================================
 0: 52.984 + 0.52 = 53.36
 ----------------------------------------
 ddikick.x: exited gracefully.
