----- GAMESS execution script -----

          ******************************************************
          *         GAMESS VERSION =  5 DEC 2014 (R1)          *
          *             FROM IOWA STATE UNIVERSITY             *
          * M.W.SCHMIDT, K.K.BALDRIDGE, J.A.BOATZ, S.T.ELBERT, *
          *   M.S.GORDON, J.H.JENSEN, S.KOSEKI, N.MATSUNAGA,   *
          *          K.A.NGUYEN, S.J.SU, T.L.WINDUS,           *
          *       TOGETHER WITH M.DUPUIS, J.A.MONTGOMERY       *
          *         J.COMPUT.CHEM.  14, 1347-1363(1993)        *
          **************** 64 BIT LINUX VERSION ****************

 EXECUTION OF GAMESS BEGUN Wed Nov 23 20:53:35 2016

            ECHO OF THE FIRST FEW INPUT CARDS -
 INPUT CARD>! SELECT RESTRICTED HARTREE-FOCK AS DEFAULT                                     
 INPUT CARD>$contrl scftyp=rhf $end                                                         
 INPUT CARD>                                                                                
 INPUT CARD>! THEORY: HF OR DFT                                                             
 INPUT CARD> $contrl mplevl=0 $end                                                          
 INPUT CARD>                                                                                
 INPUT CARD> $system timlim=10000 mwords=20 $end                                            
 INPUT CARD> $SCF DIRSCF=.TRUE. $end                                                        
 INPUT CARD>                                                                                
 INPUT CARD>                                                                                
 INPUT CARD>! BASIS SETS                                                                    
 INPUT CARD>! 6-311G(d,p)                                                                   
 INPUT CARD> $BASIS GBASIS=N311 NGAUSS=6 NDFUNC=1 NPFUNC=1 $END                             
 INPUT CARD>                                                                                
 INPUT CARD>! One of the following                                                          
 INPUT CARD> $guess guess=HUCKEL $end                                                       
 INPUT CARD>                                                                                
 INPUT CARD> $statpt projct=.FALSE. $end                                                    
 INPUT CARD> $STATPT IFREEZ(1)=1,2,3 $END                                                   
 INPUT CARD>                                                                                
 INPUT CARD>! Optimize the geometry with COSMO effects                                      
 INPUT CARD> $statpt opttol=0.0005 nstep=50 $end                                            
 INPUT CARD> $contrl nzvar=1 $end                                                           
 INPUT CARD> $zmat dlc=.t. auto=.t. $end                                                    
 INPUT CARD> $contrl runtyp=OPTIMIZE maxit=200 $end                                         
 INPUT CARD>                                                                                
 INPUT CARD>! Run COSMO on perfect conductor                                                
 INPUT CARD> $COSGMS PRFCND=.TRUE. $end                                                     
 INPUT CARD>                                                                                
 INPUT CARD>! Specifying RSOLV                                                              
 INPUT CARD> $COSGMS COSRAD = 1.4 $end                                                      
 INPUT CARD>                                                                                
 INPUT CARD>! available memory                                                              
 INPUT CARD> $SYSTEM MWORDS=40 $END                                                         
 INPUT CARD>                                                                                
 INPUT CARD> $DATA                                                                          
 INPUT CARD>                                                                                
 INPUT CARD>C1                                                                              
 INPUT CARD>C      6.0     -0.2531000000    1.2100000000    0.0000000000                    
 INPUT CARD>C      6.0     -0.9453000000    0.0000000000   -0.0000000000                    
 INPUT CARD>C      6.0      1.1426000000    1.2092000000   -0.0000000000                    
 INPUT CARD>C      6.0      1.8391000000   -0.0000000000   -0.0000000000                    
 INPUT CARD>C      6.0      1.1426000000   -1.2092000000    0.0000000000                    
 INPUT CARD>C      6.0     -0.2531000000   -1.2100000000   -0.0000000000                    
 INPUT CARD>Cl    17.0     -2.6664000000    0.0000000000   -0.0000000000                    
 INPUT CARD>H      1.0     -0.7926000000    2.1534000000   -0.0000000000                    
 INPUT CARD>H      1.0      1.6867000000    2.1505000000    0.0000000000                    
 INPUT CARD>H      1.0      2.9268000000   -0.0000000000   -0.0000000000                    
 INPUT CARD>H      1.0      1.6867000000   -2.1505000000   -0.0000000000                    
 INPUT CARD>H      1.0     -0.7926000000   -2.1534000000    0.0000000000                    
   40000000 WORDS OF MEMORY AVAILABLE

     BASIS OPTIONS
     -------------
     GBASIS=N311         IGAUSS=       6      POLAR=POPN311 
     NDFUNC=       1     NFFUNC=       0     DIFFSP=       F
     NPFUNC=       1      DIFFS=       F     BASNAM=        


     RUN TITLE
     ---------
                                                                                 

 THE POINT GROUP OF THE MOLECULE IS C1      
 THE ORDER OF THE PRINCIPAL AXIS IS     0

 ATOM      ATOMIC                      COORDINATES (BOHR)
           CHARGE         X                   Y                   Z
 C           6.0    -0.4782896475        2.2865684451        0.0000000000
 C           6.0    -1.7863579762        0.0000000000       -0.0000000000
 C           6.0     2.1592009136        2.2850566644       -0.0000000000
 C           6.0     3.4753950640       -0.0000000000       -0.0000000000
 C           6.0     2.1592009136       -2.2850566644        0.0000000000
 C           6.0    -0.4782896475       -2.2865684451       -0.0000000000
 CL         17.0    -5.0387653737        0.0000000000       -0.0000000000
 H           1.0    -1.4977968179        4.0693359420       -0.0000000000
 H           1.0     3.1874008235        4.0638557366        0.0000000000
 H           1.0     5.5308500209       -0.0000000000       -0.0000000000
 H           1.0     3.1874008235       -4.0638557366       -0.0000000000
 H           1.0    -1.4977968179       -4.0693359420        0.0000000000

          INTERNUCLEAR DISTANCES (ANGS.)




     $CONTRL OPTIONS
     ---------------
 SCFTYP=RHF          RUNTYP=OPTIMIZE     EXETYP=RUN     
 MPLEVL=       0     CITYP =NONE         CCTYP =NONE         VBTYP =NONE    
 DFTTYP=NONE         TDDFT =NONE    
 MULT  =       1     ICHARG=       0     NZVAR =       1     COORD =UNIQUE  
 PP    =NONE         RELWFN=NONE         LOCAL =NONE         NUMGRD=       F
 ISPHER=      -1     NOSYM =       0     MAXIT =     200     UNITS =ANGS    
 PLTORB=       F     MOLPLT=       F     AIMPAC=       F     FRIEND=        
 NPRINT=       7     IREST =       0     GEOM  =INPUT   
 NORMF =       0     NORMP =       0     ITOL  =      20     ICUT  =       9
 INTTYP=BEST         GRDTYP=BEST         QMTTOL= 1.0E-06

     $SYSTEM OPTIONS
     ---------------
  REPLICATED MEMORY=    40000000 WORDS (ON EVERY NODE).
 DISTRIBUTED MEMDDI=           0 MILLION WORDS IN AGGREGATE,
 MEMDDI DISTRIBUTED OVER   1 PROCESSORS IS           0 WORDS/PROCESSOR.
 TOTAL MEMORY REQUESTED ON EACH PROCESSOR=    40000000 WORDS.
 TIMLIM=       10000.00 MINUTES, OR       6.9 DAYS.
 PARALL= F  BALTYP=  DLB     KDIAG=    0  COREFL= F
 MXSEQ2=     300 MXSEQ3=     150  mem10=         0

     $COSGMS OPTIONS
     ---------------
     EPSI  =   INFTY     NSPA  =      92     COSRAD=    1.40
     DISEX =   10.00     OUTCHG=DBLCAV       COSBUG=       F
     COSWRT=       F     DCOSMO=       F

     SYMMETRY COORDINATES WILL NOT BE USED FOR 
     THE COSMO CALCULATION, EVEN IF SPECIFIED:
         -- SWITCHING TO C1 POINT GROUP --


     DEFINITION OF CAVITY
     ---------------------------
     ATOM         COORDINATES           RADIUS 
     1   -0.4783    2.2866    0.0000    2.0000
     2   -1.7864    0.0000   -0.0000    2.0000
     3    2.1592    2.2851   -0.0000    2.0000
     4    3.4754   -0.0000   -0.0000    2.0000
     5    2.1592   -2.2851    0.0000    2.0000
     6   -0.4783   -2.2866   -0.0000    2.0000
     7   -5.0388    0.0000   -0.0000    2.0500
     8   -1.4978    4.0693   -0.0000    1.3000
     9    3.1874    4.0639    0.0000    1.3000
    10    5.5309   -0.0000   -0.0000    1.3000
    11    3.1874   -4.0639   -0.0000    1.3000
    12   -1.4978   -4.0693    0.0000    1.3000

          ----------------
          PROPERTIES INPUT
          ----------------

     MOMENTS            FIELD           POTENTIAL          DENSITY
 IEMOM =       1   IEFLD =       0   IEPOT =       0   IEDEN =       0
 WHERE =COMASS     WHERE =NUCLEI     WHERE =NUCLEI     WHERE =NUCLEI  
 OUTPUT=BOTH       OUTPUT=BOTH       OUTPUT=BOTH       OUTPUT=BOTH    
 IEMINT=       0   IEFINT=       0                     IEDINT=       0
                                                       MORB  =       0
          EXTRAPOLATION IN EFFECT
          SOSCF IN EFFECT
 ORBITAL PRINTING OPTION: NPREO=     1   171     2     1

     -------------------------------
     INTEGRAL TRANSFORMATION OPTIONS
     -------------------------------
     NWORD  =            0
     CUTOFF = 1.0E-09     MPTRAN =       0
     DIRTRF =       T     AOINTS =DUP     

          ----------------------
          INTEGRAL INPUT OPTIONS
          ----------------------
 NOPK  =       1 NORDER=       0 SCHWRZ=       T


 -----------------------------------------------
  STATISTICS ON AUTOMATIC COORDINATE GENERATION 
 -----------------------------------------------
  NUMBER OF USER SPECIFIED BONDS                             0
  NUMBER OF BONDS                                           12
  NUMBER OF ANGLES                                          18
  NUMBER OF TORSIONS                                        24
  NUMBER OF EXTRA COORD.                                     0
  NUMBER OF EXTRA COORD. FOR CONSTRAINTS                     0
  NUMBER OF CONSTRAINED COORD.                               0

  TOTAL NUMBER OF PRIMITIVES                                54
 -----------------------------------------------

   --- ENCODED Z MATRIX ---
 COORD  TYPE   I   J   K   L   M   N
    1      1    1   8
    2      1    1   3
    3      1    1   2
    4      1    2   7
    5      1    2   6
    6      1    3   4
    7      1    3   9
    8      1    4  10
    9      1    4   5
   10      1    5   6
   11      1    5  11
   12      1    6  12
   13      2    1   2   6
   14      2    1   3   9
   15      2    1   2   7
   16      2    1   3   4
   17      2    2   6  12
   18      2    2   1   8
   19      2    2   1   3
   20      2    2   6   5
   21      2    3   4  10
   22      2    3   4   5
   23      2    3   1   8
   24      2    4   5   6
   25      2    4   3   9
   26      2    4   5  11
   27      2    5   4  10
   28      2    5   6  12
   29      2    6   5  11
   30      2    6   2   7
   31      3    1   3   4   5
   32      3    1   2   6   5
   33      3    1   3   4  10
   34      3    1   2   6  12
   35      3    2   1   3   9
   36      3    2   6   5  11
   37      3    2   6   5   4
   38      3    2   1   3   4
   39      3    3   4   5  11
   40      3    3   4   5   6
   41      3    3   1   2   6
   42      3    3   1   2   7
   43      3    4   5   6  12
   44      3    4   3   1   8
   45      3    5   4   3   9
   46      3    5   6   2   7
   47      3    6   2   1   8
   48      3    6   5   4  10
   49      3    7   2   6  12
   50      3    7   2   1   8
   51      3    8   1   3   9
   52      3    9   3   4  10
   53      3   10   4   5  11
   54      3   11   5   6  12

          INDEP./SYM. INTERNAL COORDINATES
          --------------------------------
 CRD  1=  -0.2098 (  2) -0.2589 (  3)  0.2589 (  5)  0.2098 ( 10) -0.1032 ( 14)
          -0.5664 ( 15)  0.1291 ( 17) -0.1291 ( 18)  0.1280 ( 19) -0.1280 ( 20)
           0.1032 ( 29)  0.5664 ( 30)
 CRD  2=   0.3350 (  3)  0.1550 (  4)  0.3350 (  5) -0.3363 (  6) -0.1548 (  8)
          -0.3363 (  9) -0.1492 ( 13)  0.1812 ( 14)  0.2539 ( 17)  0.2539 ( 18)
           0.1470 ( 22) -0.1814 ( 23) -0.2548 ( 25) -0.2548 ( 26) -0.1814 ( 28)
           0.1812 ( 29)
 CRD  3=   0.1333 (  1)  0.2927 (  2)  0.2947 (  6) -0.2947 (  9) -0.2927 ( 10)
          -0.1333 ( 12) -0.1607 ( 15)  0.1936 ( 17) -0.1936 ( 18) -0.1128 ( 19)
           0.1128 ( 20)  0.3475 ( 21)  0.3064 ( 23) -0.3475 ( 27) -0.3064 ( 28)
           0.1607 ( 30)
 CRD  4=  -0.3426 (  2)  0.1717 (  3) -0.1497 (  4)  0.1717 (  5)  0.1702 (  6)
          -0.1504 (  8)  0.1702 (  9) -0.3426 ( 10)  0.1788 ( 13) -0.1886 ( 14)
           0.2782 ( 17)  0.2782 ( 18)  0.1800 ( 22) -0.1887 ( 23)  0.2785 ( 25)
           0.2785 ( 26) -0.1887 ( 28) -0.1886 ( 29)
 CRD  5=  -0.1697 (  1)  0.1653 (  2)  0.1334 (  3) -0.1334 (  5) -0.2010 (  6)
           0.2387 (  7)  0.2010 (  9) -0.1653 ( 10) -0.2387 ( 11)  0.1697 ( 12)
           0.3181 ( 14) -0.3023 ( 16)  0.2516 ( 17) -0.2516 ( 18)  0.2448 ( 19)
          -0.2448 ( 20)  0.3023 ( 24) -0.3181 ( 29)
 CRD  6=  -0.2139 (  1) -0.3463 (  2) -0.3485 (  3) -0.2169 (  4) -0.3485 (  5)
          -0.3470 (  6) -0.2135 (  7) -0.2160 (  8) -0.3470 (  9) -0.3463 ( 10)
          -0.2135 ( 11) -0.2139 ( 12)
 CRD  7=  -0.1248 (  1)  0.2437 (  4) -0.1244 (  7)  0.2439 (  8) -0.1244 ( 11)
          -0.1248 ( 12) -0.3420 ( 13) -0.2760 ( 14)  0.1710 ( 15)  0.1708 ( 16)
           0.1048 ( 17)  0.1048 ( 18)  0.1711 ( 19)  0.1711 ( 20)  0.1709 ( 21)
          -0.3418 ( 22) -0.2759 ( 23)  0.1708 ( 24)  0.1052 ( 25)  0.1052 ( 26)
           0.1709 ( 27) -0.2759 ( 28) -0.2760 ( 29)  0.1710 ( 30)
 CRD  8=  -0.1396 (  1) -0.1422 (  2)  0.1512 (  6)  0.1274 (  7) -0.1512 (  9)
           0.1422 ( 10) -0.1274 ( 11)  0.1396 ( 12) -0.1902 ( 14) -0.1798 ( 16)
           0.1886 ( 19) -0.1886 ( 20)  0.3430 ( 21) -0.2231 ( 23)  0.1798 ( 24)
           0.3700 ( 25) -0.3700 ( 26) -0.3430 ( 27)  0.2231 ( 28)  0.1902 ( 29)
 CRD  9=   0.2230 ( 31)  0.2669 ( 32)  0.2185 ( 33)  0.1427 ( 34)  0.1309 ( 35)
          -0.1309 ( 36) -0.1132 ( 39) -0.2230 ( 40) -0.2669 ( 41) -0.4160 ( 42)
           0.1021 ( 43) -0.1021 ( 44)  0.1132 ( 45)  0.4160 ( 46) -0.1427 ( 47)
          -0.2185 ( 48)  0.2919 ( 49) -0.2919 ( 50)  0.1087 ( 52) -0.1087 ( 53)
 CRD 10=  -0.3137 (  1)  0.3128 (  4)  0.3139 (  7) -0.3135 (  8)  0.3139 ( 11)
          -0.3137 ( 12) -0.2131 ( 13)  0.1069 ( 14)  0.1066 ( 15) -0.2135 ( 16)
          -0.1064 ( 17) -0.1064 ( 18)  0.2134 ( 19)  0.2134 ( 20) -0.1067 ( 21)
           0.2134 ( 22) -0.1070 ( 23) -0.2135 ( 24)  0.1066 ( 25)  0.1066 ( 26)
          -0.1067 ( 27) -0.1070 ( 28)  0.1069 ( 29)  0.1066 ( 30)
 CRD 11=   0.1760 ( 31)  0.1755 ( 32)  0.1760 ( 33)  0.1074 ( 34) -0.2832 ( 35)
          -0.2832 ( 36) -0.3509 ( 37) -0.3509 ( 38)  0.1083 ( 39)  0.1760 ( 40)
           0.1755 ( 41)  0.1755 ( 42) -0.2832 ( 43) -0.2832 ( 44)  0.1083 ( 45)
           0.1755 ( 46)  0.1074 ( 47)  0.1760 ( 48)  0.1074 ( 49)  0.1074 ( 50)
          -0.2155 ( 51)  0.1083 ( 52)  0.1083 ( 53) -0.2155 ( 54)
 CRD 12=   0.2024 ( 31)  0.2980 ( 34) -0.2601 ( 35)  0.2601 ( 36) -0.4077 ( 39)
          -0.2024 ( 40)  0.2548 ( 42) -0.1488 ( 43)  0.1488 ( 44)  0.4077 ( 45)
          -0.2548 ( 46) -0.2980 ( 47)  0.1761 ( 52) -0.1761 ( 53)
 CRD 13=  -0.4487 (  1) -0.1870 (  3)  0.1870 (  5) -0.3055 (  7)  0.3055 ( 11)
           0.4487 ( 12)  0.2505 ( 15)  0.2243 ( 17) -0.2243 ( 18)  0.1028 ( 21)
           0.1838 ( 23) -0.1028 ( 27) -0.1838 ( 28) -0.2505 ( 30)
 CRD 14=  -0.1709 ( 31)  0.1153 ( 32) -0.3439 ( 33)  0.2791 ( 34) -0.1426 ( 37)
           0.1426 ( 38)  0.1709 ( 40) -0.1153 ( 41) -0.3052 ( 43)  0.3052 ( 44)
          -0.2791 ( 47)  0.3439 ( 48)  0.2328 ( 49) -0.2328 ( 50)  0.1866 ( 51)
          -0.2253 ( 52)  0.2253 ( 53) -0.1866 ( 54)
 CRD 15=   0.2398 (  1)  0.4818 (  4) -0.2404 (  7) -0.4811 (  8) -0.2404 ( 11)
           0.2398 ( 12) -0.1957 ( 14) -0.1822 ( 17) -0.1822 ( 18)  0.1960 ( 23)
           0.1816 ( 25)  0.1816 ( 26)  0.1960 ( 28) -0.1957 ( 29)
 CRD 16=  -0.1962 (  3)  0.1962 (  5)  0.1326 (  6)  0.3728 (  7) -0.1326 (  9)
          -0.3728 ( 11) -0.2440 ( 14)  0.1725 ( 15)  0.1333 ( 17) -0.1333 ( 18)
          -0.3498 ( 21)  0.1764 ( 23)  0.1944 ( 25) -0.1944 ( 26)  0.3498 ( 27)
          -0.1764 ( 28)  0.2440 ( 29) -0.1725 ( 30)
 CRD 17=   0.2220 (  1)  0.2877 (  2) -0.1434 (  3) -0.4452 (  4) -0.1434 (  5)
          -0.1435 (  6)  0.2215 (  7) -0.4450 (  8) -0.1435 (  9)  0.2877 ( 10)
           0.2215 ( 11)  0.2220 ( 12) -0.1251 ( 13) -0.1369 ( 14) -0.1257 ( 22)
          -0.1362 ( 23) -0.1362 ( 28) -0.1369 ( 29)
 CRD 18=  -0.3230 (  1) -0.1934 (  3)  0.1934 (  5)  0.2033 (  6)  0.2991 (  7)
          -0.2033 (  9) -0.2991 ( 11)  0.3230 ( 12)  0.1770 ( 14) -0.2617 ( 17)
           0.2617 ( 18) -0.1711 ( 23) -0.2664 ( 25)  0.2664 ( 26)  0.1711 ( 28)
          -0.1770 ( 29)
 CRD 19=   0.3474 (  1) -0.2141 (  2) -0.2149 (  3)  0.3462 (  4) -0.2149 (  5)
          -0.2149 (  6)  0.3479 (  7)  0.3468 (  8) -0.2149 (  9) -0.2141 ( 10)
           0.3479 ( 11)  0.3474 ( 12)
 CRD 20=  -0.1106 ( 32) -0.3258 ( 33) -0.1949 ( 34) -0.2637 ( 35)  0.2637 ( 36)
          -0.1973 ( 39)  0.1106 ( 41) -0.2436 ( 42)  0.1272 ( 43) -0.1272 ( 44)
           0.1973 ( 45)  0.2436 ( 46)  0.1949 ( 47)  0.3258 ( 48)  0.1593 ( 49)
          -0.1593 ( 50) -0.3474 ( 51) -0.1055 ( 52)  0.1055 ( 53)  0.3474 ( 54)
 CRD 21=  -0.1494 (  1) -0.1988 (  2)  0.4387 (  3) -0.4387 (  5)  0.3882 (  6)
          -0.3882 (  9)  0.1988 ( 10)  0.1494 ( 12) -0.1371 ( 15) -0.2056 ( 21)
           0.1248 ( 23)  0.2056 ( 27) -0.1248 ( 28)  0.1371 ( 30)
 CRD 22=  -0.2523 (  1)  0.4649 (  2) -0.2060 (  7) -0.4649 ( 10)  0.2060 ( 11)
           0.2523 ( 12) -0.1278 ( 14) -0.1400 ( 15) -0.2027 ( 17)  0.2027 ( 18)
          -0.1230 ( 19)  0.1230 ( 20) -0.1620 ( 21)  0.2120 ( 25) -0.2120 ( 26)
           0.1620 ( 27)  0.1278 ( 29)  0.1400 ( 30)
 CRD 23=   0.1410 (  1) -0.2973 (  3)  0.2782 (  4) -0.2973 (  5)  0.2979 (  6)
          -0.1397 (  7) -0.2786 (  8)  0.2979 (  9) -0.1397 ( 11)  0.1410 ( 12)
           0.1309 ( 13)  0.2374 ( 14)  0.1720 ( 17)  0.1720 ( 18) -0.1304 ( 22)
          -0.2373 ( 23) -0.1719 ( 25) -0.1719 ( 26) -0.2373 ( 28)  0.2374 ( 29)
 CRD 24=  -0.2611 (  1)  0.2618 (  4)  0.2611 (  7) -0.2621 (  8)  0.2611 ( 11)
          -0.2611 ( 12)  0.2563 ( 13) -0.1274 ( 14) -0.1281 ( 15)  0.2560 ( 16)
           0.1286 ( 17)  0.1286 ( 18) -0.2559 ( 19) -0.2559 ( 20)  0.1282 ( 21)
          -0.2565 ( 22)  0.1273 ( 23)  0.2560 ( 24) -0.1286 ( 25) -0.1286 ( 26)
           0.1282 ( 27)  0.1273 ( 28) -0.1274 ( 29) -0.1281 ( 30)
 CRD 25=   0.2893 ( 34)  0.2881 ( 35)  0.2881 ( 36) -0.2887 ( 39) -0.2879 ( 43)
          -0.2879 ( 44) -0.2887 ( 45)  0.2893 ( 47)  0.2893 ( 49)  0.2893 ( 50)
          -0.2887 ( 52) -0.2887 ( 53)
 CRD 26=  -0.1874 (  1)  0.2802 (  3) -0.2802 (  5) -0.3476 (  6)  0.2216 (  7)
           0.3476 (  9) -0.2216 ( 11)  0.1874 ( 12) -0.1964 ( 14) -0.1047 ( 15)
           0.2197 ( 16) -0.1983 ( 19)  0.1983 ( 20)  0.1984 ( 21)  0.1979 ( 23)
          -0.2197 ( 24) -0.1984 ( 27) -0.1979 ( 28)  0.1964 ( 29)  0.1047 ( 30)
 CRD 27=   0.1146 (  1) -0.3647 (  2)  0.1811 (  3) -0.2306 (  4)  0.1811 (  5)
           0.1820 (  6)  0.1150 (  7) -0.2299 (  8)  0.1820 (  9) -0.3647 ( 10)
           0.1150 ( 11)  0.1146 ( 12) -0.2403 ( 13)  0.1201 ( 15)  0.1194 ( 16)
          -0.2125 ( 17) -0.2125 ( 18)  0.1202 ( 19)  0.1202 ( 20)  0.1195 ( 21)
          -0.2390 ( 22)  0.1194 ( 24) -0.2115 ( 25) -0.2115 ( 26)  0.1195 ( 27)
           0.1201 ( 30)
 CRD 28=   0.2234 ( 31)  0.3017 ( 32) -0.1889 ( 33)  0.1976 ( 35) -0.1976 ( 36)
          -0.2234 ( 40) -0.3017 ( 41)  0.2242 ( 43) -0.2242 ( 44)  0.1889 ( 48)
          -0.3147 ( 49)  0.3147 ( 50) -0.3483 ( 52)  0.3483 ( 53)
 CRD 29=  -0.1461 ( 31) -0.1457 ( 32) -0.1461 ( 33)  0.2026 ( 34)  0.2912 ( 37)
           0.2912 ( 38)  0.2008 ( 39) -0.1461 ( 40) -0.1457 ( 41) -0.1457 ( 42)
           0.2008 ( 45) -0.1457 ( 46)  0.2026 ( 47) -0.1461 ( 48)  0.2026 ( 49)
           0.2026 ( 50) -0.4015 ( 51)  0.2008 ( 52)  0.2008 ( 53) -0.4015 ( 54)
 CRD 30=  -0.3331 ( 31)  0.2928 ( 32) -0.3117 ( 37)  0.3117 ( 38)  0.3331 ( 40)
          -0.2928 ( 41) -0.2077 ( 49)  0.2077 ( 50) -0.2694 ( 51)  0.2881 ( 52)
          -0.2881 ( 53)  0.2694 ( 54)

 THE DETERMINANT OF THE G MATRIX IS 10**(   -14)


                     --------------------
                     INTERNAL COORDINATES
                     --------------------

                 - - ATOMS - -         COORDINATE      COORDINATE
 NO.   TYPE    I  J  K  L  M  N        (BOHR,RAD)       (ANG,DEG)
 ----------------------------------------------------------------
   1 STRETCH   1  8                     2.0536930       1.0867676
   2 STRETCH   1  3                     2.6374910       1.3957002
   3 STRETCH   1  2                     2.6342813       1.3940017
   4 STRETCH   2  7                     3.2524074       1.7211000
   5 STRETCH   2  6                     2.6342813       1.3940017
   6 STRETCH   3  4                     2.6370155       1.3954486
   7 STRETCH   3  9                     2.0545854       1.0872399
   8 STRETCH   4 10                     2.0554550       1.0877000
   9 STRETCH   4  5                     2.6370155       1.3954486
  10 STRETCH   5  6                     2.6374910       1.3957002
  11 STRETCH   5 11                     2.0545854       1.0872399
  12 STRETCH   6 12                     2.0536930       1.0867676
  13 BEND      1  2  6                  2.1023395     120.4551786
  14 BEND      1  3  9                  2.0943318     119.9963758
  15 BEND      1  2  7                  2.0904229     119.7724107
  16 BEND      1  3  4                  2.0939555     119.9748123
  17 BEND      2  6 12                  2.1024890     120.4637441
  18 BEND      2  1  8                  2.1024890     120.4637441
  19 BEND      2  1  3                  2.0898497     119.7395694
  20 BEND      2  6  5                  2.0898497     119.7395694
  21 BEND      3  4 10                  2.0933823     119.9419710
  22 BEND      3  4  5                  2.0964207     120.1160580
  23 BEND      3  1  8                  2.0908466     119.7966865
  24 BEND      4  5  6                  2.0939555     119.9748123
  25 BEND      4  3  9                  2.0948980     120.0288119
  26 BEND      4  5 11                  2.0948980     120.0288119
  27 BEND      5  4 10                  2.0933823     119.9419710
  28 BEND      5  6 12                  2.0908466     119.7966865
  29 BEND      6  5 11                  2.0943318     119.9963758
  30 BEND      6  2  7                  2.0904229     119.7724107
  31 TORSION   1  3  4  5               0.0000000       0.0000000
  32 TORSION   1  2  6  5               0.0000000       0.0000000
  33 TORSION   1  3  4 10               3.1415927     180.0000000
  34 TORSION   1  2  6 12               3.1415927     180.0000000
  35 TORSION   2  1  3  9               3.1415927     180.0000000
  36 TORSION   2  6  5 11               3.1415927     180.0000000
  37 TORSION   2  6  5  4               0.0000000       0.0000000
  38 TORSION   2  1  3  4               0.0000000       0.0000000
  39 TORSION   3  4  5 11               3.1415927     180.0000000
  40 TORSION   3  4  5  6               0.0000000       0.0000000
  41 TORSION   3  1  2  6               0.0000000       0.0000000
  42 TORSION   3  1  2  7               3.1415927     180.0000000
  43 TORSION   4  5  6 12               3.1415927     180.0000000
  44 TORSION   4  3  1  8               3.1415927     180.0000000
  45 TORSION   5  4  3  9               3.1415927     180.0000000
  46 TORSION   5  6  2  7               3.1415927     180.0000000
  47 TORSION   6  2  1  8               3.1415927     180.0000000
  48 TORSION   6  5  4 10               3.1415927     180.0000000
  49 TORSION   7  2  6 12               0.0000000       0.0000000
  50 TORSION   7  2  1  8               0.0000000       0.0000000
  51 TORSION   8  1  3  9               0.0000000       0.0000000
  52 TORSION   9  3  4 10               0.0000000       0.0000000
  53 TORSION  10  4  5 11               0.0000000       0.0000000
  54 TORSION  11  5  6 12               0.0000000       0.0000000

     ------------------------------------------
     THE POINT GROUP IS C1 , NAXIS= 1, ORDER= 1
     ------------------------------------------

     DIMENSIONS OF THE SYMMETRY SUBSPACES ARE
 A   =  171

 ..... DONE SETTING UP THE RUN .....
 STEP CPU TIME =     0.01 TOTAL CPU TIME =        0.0 (    0.0 MIN)
 TOTAL WALL CLOCK TIME=        0.0 SECONDS, CPU UTILIZATION IS  50.00%


          -----------------------------
          STATIONARY POINT LOCATION RUN
          -----------------------------

 OBTAINING INITIAL HESSIAN, HESS=GUESS   
 DIAGONAL GUESS HESSIAN IN INTERNAL COORDS IS
     1  0.3486     2  0.4767     3  0.4783     4  0.3884     5  0.4783
     6  0.4769     7  0.3482     8  0.3479     9  0.4769    10  0.4767
    11  0.3482    12  0.3486    13  0.2688    14  0.2325    15  0.2704
    16  0.2685    17  0.2326    18  0.2326    19  0.2686    20  0.2686
    21  0.2325    22  0.2685    23  0.2325    24  0.2685    25  0.2325
    26  0.2325    27  0.2325    28  0.2325    29  0.2325    30  0.2704
    31  0.2500    32  0.2500    33  0.2500    34  0.2500    35  0.2500
    36  0.2500    37  0.2500    38  0.2500    39  0.2500    40  0.2500
    41  0.2500    42  0.2500    43  0.2500    44  0.2500    45  0.2500
    46  0.2500    47  0.2500    48  0.2500    49  0.2500    50  0.2500
    51  0.2500    52  0.2500    53  0.2500    54  0.2500
 TRANSFORMING HESSIAN TO SYMMETRY COORDINATES

          PARAMETERS CONTROLLING GEOMETRY SEARCH ARE
          METHOD =QA                  UPHESS =BFGS    
          NNEG   =         0          NFRZ   =         3
          NSTEP  =        50          IFOLOW =         1
          HESS   =GUESS               RESTAR =         F
          IHREP  =         0          HSSEND =         F
          NPRT   =         0          NPUN   =         0
          OPTTOL = 5.000E-04          RMIN   = 1.500E-03
          RMAX   = 1.000E-01          RLIM   = 7.000E-02
          DXMAX  = 3.000E-01          PURIFY =         F
          MOVIE  =         F          TRUPD  =         T
          TRMAX  = 5.000E-01          TRMIN  = 5.000E-02
          ITBMAT =         5          STPT   =         F
          STSTEP = 1.000E-02          PROJCT=          F
          FROZEN COORD(S)=   1   2   3


      ***** EQUILIBRIUM GEOMETRY LOCATED *****
            (SUBJECT TO   3 CONSTRAINT(S))
 COORDINATES OF ALL ATOMS ARE (ANGS)
   ATOM   CHARGE       X              Y              Z
 ------------------------------------------------------------
 C           6.0  -0.2470319165   1.2080722990   0.0000002182
 C           6.0  -0.9195771412  -0.0000027502   0.0000076684
 C           6.0   1.1394157286   1.1995180253   0.0000025429
 C           6.0   1.8335591975   0.0000023240  -0.0000039231
 C           6.0   1.1394180685  -1.1995160496  -0.0000049614
 C           6.0  -0.2470347562  -1.2080752834   0.0000132111
 CL         17.0  -2.6742402162   0.0000008105  -0.0000038743
 H           1.0  -0.7888189509   2.1350528386   0.0000107884
 H           1.0   1.6737100779   2.1322796534  -0.0000042445
 H           1.0   2.9082889837  -0.0000042065  -0.0000173711
 H           1.0   1.6737049165  -2.1322828019  -0.0000297726
 H           1.0  -0.7888228125  -2.1350565206  -0.0000006692


                     --------------------
                     INTERNAL COORDINATES
                     --------------------

                 - - ATOMS - -         COORDINATE      COORDINATE
 NO.   TYPE    I  J  K  L  M  N        (BOHR,RAD)       (ANG,DEG)
 ----------------------------------------------------------------
   1 STRETCH   1  8                     2.0289939       1.0736974
   2 STRETCH   1  3                     2.6200560       1.3864740
   3 STRETCH   1  2                     2.6128579       1.3826650
   4 STRETCH   2  7                     3.3158324       1.7546631
   5 STRETCH   2  6                     2.6128512       1.3826614
   6 STRETCH   3  4                     2.6189401       1.3858835
   7 STRETCH   3  9                     2.0313585       1.0749487
   8 STRETCH   4 10                     2.0309448       1.0747298
   9 STRETCH   4  5                     2.6189422       1.3858846
  10 STRETCH   5  6                     2.6200659       1.3864792
  11 STRETCH   5 11                     2.0313599       1.0749494
  12 STRETCH   6 12                     2.0289960       1.0736985
  13 BEND      1  2  6                  2.1256359     121.7899661
  14 BEND      1  3  9                  2.0848127     119.4509679
  15 BEND      1  2  7                  2.0787731     119.1049267
  16 BEND      1  3  4                  2.1015665     120.4108904
  17 BEND      2  6 12                  2.1046964     120.5902195
  18 BEND      2  1  8                  2.1046960     120.5901957
  19 BEND      2  1  3                  2.0726053     118.7515370
  20 BEND      2  6  5                  2.0726008     118.7512812
  21 BEND      3  4 10                  2.0954027     120.0577326
  22 BEND      3  4  5                  2.0923944     119.8853702
  23 BEND      3  1  8                  2.1058840     120.6582674
  24 BEND      4  5  6                  2.1015676     120.4109550
  25 BEND      4  3  9                  2.0968061     120.1381416
  26 BEND      4  5 11                  2.0968170     120.1387634
  27 BEND      5  4 10                  2.0953881     120.0568972
  28 BEND      5  6 12                  2.1058881     120.6584993
  29 BEND      6  5 11                  2.0848007     119.4502816
  30 BEND      6  2  7                  2.0787763     119.1051071
  31 TORSION   1  3  4  5              -0.0000065      -0.0003724
  32 TORSION   1  2  6  5              -0.0000133      -0.0007617
  33 TORSION   1  3  4 10               3.1415762     179.9990581
  34 TORSION   1  2  6 12              -3.1415714    -179.9987829
  35 TORSION   2  1  3  9               3.1415915     179.9999351
  36 TORSION   2  6  5 11              -3.1415618    -179.9982313
  37 TORSION   2  6  5  4               0.0000203       0.0011646
  38 TORSION   2  1  3  4               0.0000135       0.0007712
  39 TORSION   3  4  5 11               3.1415713     179.9987794
  40 TORSION   3  4  5  6              -0.0000107      -0.0006123
  41 TORSION   3  1  2  6              -0.0000035      -0.0002001
  42 TORSION   3  1  2  7              -3.1415870    -179.9996757
  43 TORSION   4  5  6 12               3.1415784     179.9991844
  44 TORSION   4  3  1  8               3.1415866     179.9996537
  45 TORSION   5  4  3  9              -3.1415845    -179.9995306
  46 TORSION   5  6  2  7               3.1415702     179.9987139
  47 TORSION   6  2  1  8              -3.1415767    -179.9990834
  48 TORSION   6  5  4 10               3.1415919     179.9999572
  49 TORSION   7  2  6 12               0.0000121       0.0006927
  50 TORSION   7  2  1  8               0.0000252       0.0014410
  51 TORSION   8  1  3  9              -0.0000206      -0.0011824
  52 TORSION   9  3  4 10              -0.0000017      -0.0001001
  53 TORSION  10  4  5 11              -0.0000114      -0.0006511
  54 TORSION  11  5  6 12              -0.0000037      -0.0002115

          INTERNUCLEAR DISTANCES (ANGS.)


 =====================================================
   GAMESS/COSab RESULTS
 =====================================================

   Dielectric Constant                  = INFTY
   Basic Grid Size                      =                 1082
   Number of Segments                   =                   92
   Number of Segments located on spheres=                  252
   Number of Segments of the cavity     =                  522
   Solvent Radius (rsolv)               = 1.40
   Outlying Charge Error Method         = double cavity

 =====================================================

  Total solvated Energy (a.u.)          =  -689.6861111281
  Total Energy corrected (a.u.)         =  -689.6862419407

  Outlying charge effect (a.u.)         =    -0.0001308126
  Outlying charge effect (kcal/mol)     =    -0.0820862125

  Dielectric Energy (a.u.)              =    -0.0075043505
  Dielectric energy corr. (a.u.)        =    -0.0076351630

  Sum of polarization charges           =     0.0219586925
  Sum of polarization charges(cor.)     =    -0.0219586925

  Total surface area of cavity (A**2)   =  140.39
  Total volume of cavity (A**3)         =  132.20

 =====================================================
 NPS=                   522
NR.  ATOM  (X, Y, Z)(a.u.)                  CHARGE(e)  AREA(A**2) SIGMA(e/A**2)
   1   1  -0.057008   1.380574  -3.647211   0.000798   0.092912   0.008584
   2   1   0.002038   4.643869  -2.913829   0.000798   0.325193   0.002452
   3   1  -1.140924   3.807176   3.392111   0.000749   0.325193   0.002303
   4   1  -1.549638   4.562335   2.813534   0.000155   0.325193   0.000476
   5   1  -2.677797   4.000412  -2.538914  -0.000209   0.139368  -0.001499
   6   1  -0.700584   5.069443  -2.542625  -0.000085   0.278737  -0.000306
   7   1   0.218159   5.895712   0.873373  -0.000493   0.092912  -0.005311
   8   1   0.046581   5.496088  -1.922566  -0.000192   0.185824  -0.001031
   9   1  -0.941480   4.183414  -3.232202   0.000688   0.325193   0.002115
  10   1  -2.124279   3.413947  -3.202797   0.000516   0.278737   0.001853
  11   1  -2.174184   3.372641   3.190863   0.000710   0.371649   0.001911
  12   1  -0.275383   4.627864   2.957836   0.000802   0.371649   0.002157
  13   1   0.052456   5.549947   1.827871   0.000055   0.185824   0.000293
  14   1  -0.211039   3.473286  -3.577978   0.001521   0.325193   0.004677
  15   1  -0.015157   2.214004  -3.751743   0.001078   0.232280   0.004642
  16   1  -0.821421   1.968100  -3.749596   0.000731   0.185824   0.003936
  17   1  -1.699082   2.675713  -3.551275   0.000806   0.232280   0.003468
  18   1  -1.306037   2.549323   3.675450   0.001888   0.511017   0.003695
  19   1  -0.143650   3.390947   3.598893   0.001671   0.418105   0.003996
  20   1  -2.516539   4.125281   2.586224  -0.000177   0.232280  -0.000761
  21   1  -1.837264   4.303739  -2.884869   0.000210   0.278737   0.000753
  22   1   0.217171   5.796624  -1.212567  -0.000343   0.092912  -0.003693
  23   1  -0.524524   5.198745   2.403924   0.000040   0.232280   0.000172
  24   1  -0.143127   1.843329   3.739810   0.002759   0.464561   0.005939
  25   1  -0.950192   2.968864  -3.685125   0.001147   0.325193   0.003527
  26   2  -2.259653  -0.900719   3.633273   0.000317   0.139368   0.002277
  27   2  -2.247764   0.653884   3.687361   0.000573   0.232280   0.002465
  28   2  -2.171223  -0.186625   3.749881   0.000562   0.185824   0.003024
  29   2  -1.462081  -0.387148   3.749462   0.000443   0.139368   0.003179
  30   2  -1.037209   0.048109  -3.713639   0.001912   0.371649   0.005146
  31   2  -2.279514   0.778977  -3.658394   0.000551   0.232280   0.002371
  32   2  -2.193824  -0.519007  -3.715754   0.001168   0.418105   0.002795
  33   2  -1.140624   0.244153   3.723997   0.001272   0.232280   0.005475
  34   3   1.752863   1.448459  -3.668015   0.000892   0.139368   0.006403
  35   3   4.433763   3.036715  -2.913810   0.000955   0.325193   0.002935
  36   3   1.857291   4.857600  -2.735720   0.000585   0.278737   0.002100
  37   3   3.050589   3.642387   3.403910   0.001007   0.371649   0.002708
  38   3   3.542258   4.412749   2.783785   0.000417   0.371649   0.001123
  39   3   1.616341   5.651933   1.592684  -0.000042   0.092912  -0.000448
  40   3   1.890002   5.468112  -1.991545   0.000155   0.278737   0.000555
  41   3   4.452574   3.857971  -2.542638   0.000214   0.278737   0.000769
  42   3   5.626733   3.473345   0.873392  -0.000319   0.092912  -0.003432
  43   3   5.194803   3.422836  -1.922551  -0.000177   0.185824  -0.000954
  44   3   3.564366   3.625247  -3.232218   0.000820   0.325193   0.002522
  45   3   2.412956   4.283974  -3.185518   0.000565   0.232280   0.002431
  46   3   1.808569   5.316064   2.206182  -0.000052   0.185824  -0.000279
  47   3   2.096465   4.422652   3.103738   0.001216   0.418105   0.002908
  48   3   4.281553   3.269493   2.957844   0.000954   0.371649   0.002568
  49   3   5.244372   3.444733   1.827886   0.000243   0.185824   0.001308
  50   3   3.312716   2.638068  -3.577958   0.001595   0.325193   0.004906
  51   3   2.422387   2.047372  -3.763454   0.001028   0.232280   0.004424
  52   3   1.808346   2.460950  -3.758665   0.001572   0.232280   0.006766
  53   3   1.712534   3.678902  -3.477910   0.000966   0.278737   0.003466
  54   3   1.965870   3.127247   3.675431   0.002437   0.511017   0.004770
  55   3   3.274810   2.538898   3.598917   0.001730   0.418105   0.004139
  56   3   2.494847   4.989383   2.599009   0.000225   0.232280   0.000971
  57   3   3.157997   4.531878  -2.853725   0.000480   0.325193   0.001477
  58   3   5.540364   3.424737  -1.212547  -0.000034   0.092912  -0.000365
  59   3   4.652343   3.769966   2.403917   0.000176   0.232280   0.000759
  60   3   1.933317   1.767202   3.739845   0.002847   0.464561   0.006129
  61   3   2.503929   3.295169  -3.619879   0.000978   0.278737   0.003509
  62   4   2.555837  -0.059338  -3.668010   0.000910   0.139368   0.006532
  63   4   5.266523  -1.596225  -2.913845   0.001025   0.325193   0.003152
  64   4   5.565973   1.544501  -2.735751   0.000678   0.278737   0.002434
  65   4   5.104686  -0.094981   3.403880   0.001139   0.371649   0.003064
  66   4   6.017521  -0.138721   2.783743   0.000601   0.371649   0.001617
  67   4   6.135539   2.148378   1.592648  -0.000164   0.092912  -0.001761
  68   4   6.112002   1.819559  -1.991582   0.000274   0.278737   0.000983
  69   4   5.988507  -1.204357  -2.542682   0.000287   0.278737   0.001029
  70   4   6.238398  -2.414395   0.873341  -0.000392   0.092912  -0.004216
  71   4   5.979848  -2.064692  -1.922598  -0.000143   0.185824  -0.000768
  72   4   5.345088  -0.549301  -3.232252   0.000932   0.325193   0.002866
  73   4   5.344398   0.777223  -3.185548   0.000635   0.232280   0.002735
  74   4   5.939647   1.814636   2.206147   0.000070   0.185824   0.000379
  75   4   5.307512   1.120762   3.103710   0.001406   0.418105   0.003363
  76   4   5.392938  -1.348466   2.957807   0.001073   0.371649   0.002887
  77   4   6.023537  -2.096832   1.827839   0.000396   0.185824   0.002129
  78   4   4.363397  -0.821596  -3.577980   0.001703   0.325193   0.005236
  79   4   3.408307  -0.342625  -3.763461   0.001091   0.232280   0.004698
  80   4   3.461983   0.395760  -3.758671   0.001679   0.232280   0.007229
  81   4   4.471220   1.084262  -3.477927   0.001052   0.278737   0.003775
  82   4   4.118545   0.590222   3.675417   0.002614   0.511017   0.005116
  83   4   4.258602  -0.838016   3.598897   0.001848   0.418105   0.004420
  84   4   5.997284   1.056758   2.598971   0.000253   0.232280   0.001091
  85   4   5.929826   0.253942  -2.853764   0.000624   0.325193   0.001919
  86   4   6.153263  -2.363603  -1.212597  -0.000028   0.092912  -0.000306
  87   4   6.011502  -1.421460   2.403872   0.000133   0.232280   0.000572
  88   4   2.922212  -0.057518   3.739845   0.003003   0.464561   0.006464
  89   4   4.531591   0.206815  -3.619899   0.001088   0.278737   0.003903
  90   5   1.649857  -1.507408  -3.668021   0.000839   0.139368   0.006021
  91   5   1.711550  -4.669301  -2.883920   0.000723   0.278737   0.002596
  92   5   4.537699  -3.322228  -2.735755   0.000628   0.278737   0.002253
  93   5   2.885782  -3.736837   3.403872   0.001013   0.371649   0.002726
  94   5   3.301540  -4.550672   2.783736   0.000443   0.371649   0.001192
  95   5   5.344787  -3.516309   1.592645  -0.000152   0.092912  -0.001633
  96   5   5.047770  -3.659320  -1.991586   0.000129   0.278737   0.000461
  97   5   2.362447  -5.055155  -2.542692   0.000186   0.278737   0.000668
  98   5   1.578138  -5.766067   1.307027  -0.000177   0.092912  -0.001905
  99   5   1.611604  -5.475259  -1.922609  -0.000128   0.185824  -0.000691
 100   5   2.611058  -4.171254  -3.232261   0.000849   0.325193   0.002610
 101   5   3.761780  -3.511325  -3.185555   0.000571   0.232280   0.002459
 102   5   4.957822  -3.512210   2.206143   0.000006   0.185824   0.000032
 103   5   4.041530  -3.308568   3.103704   0.001275   0.418105   0.003049
 104   5   2.016820  -4.573804   2.990502   0.000811   0.325193   0.002494
 105   5   1.546907  -5.105990   2.419781   0.000277   0.139368   0.001986
 106   5   1.886845  -3.454753  -3.577990   0.001589   0.325193   0.004887
 107   5   1.827749  -2.387926  -3.763472   0.001054   0.232280   0.004538
 108   5   2.495147  -2.067499  -3.758680   0.001599   0.232280   0.006882
 109   5   3.594206  -2.601034  -3.477934   0.000985   0.278737   0.003535
 110   5   2.990204  -2.540563   3.675409   0.002441   0.511017   0.004777
 111   5   1.820493  -3.371980   3.598886   0.001692   0.418105   0.004046
 112   5   4.328835  -3.938916   2.598966   0.000237   0.232280   0.001019
 113   5   3.598691  -4.279408  -2.853771   0.000450   0.325193   0.001385
 114   5   1.438421  -5.774305  -1.212609  -0.000109   0.092912  -0.001170
 115   5   2.216515  -5.268661   2.295369  -0.000000   0.232280  -0.000000
 116   5   1.833520  -1.824419   3.739834   0.002873   0.464561   0.006184
 117   5   2.862826  -3.089542  -3.619908   0.000986   0.278737   0.003537
 118   6  -0.056940  -1.380568   3.647207   0.000507   0.092912   0.005455
 119   6   0.002083  -4.643866   2.913838   0.000799   0.325193   0.002455
 120   6  -1.140993  -3.807199  -3.392085   0.000748   0.325193   0.002301
 121   6  -1.549698  -4.562353  -2.813497   0.000156   0.325193   0.000481
 122   6  -2.677757  -4.000404   2.538969  -0.000210   0.139368  -0.001506
 123   6  -0.700547  -5.069440   2.542648  -0.000086   0.278737  -0.000307
 124   6   0.218131  -5.895727  -0.873363  -0.000493   0.092912  -0.005311
 125   6   0.046606  -5.496090   1.922578  -0.000192   0.185824  -0.001031
 126   6  -0.941428  -4.183407   3.232226   0.000691   0.325193   0.002124
 127   6  -2.124225  -3.413937   3.202839   0.000525   0.278737   0.001883
 128   6  -2.174248  -3.372660  -3.190820   0.000692   0.371649   0.001863
 129   6  -0.275445  -4.627887  -2.957822   0.000804   0.371649   0.002163
 130   6   0.052412  -5.549965  -1.827859   0.000054   0.185824   0.000289
 131   6  -0.210978  -3.473279   3.577985   0.001525   0.325193   0.004690
 132   6  -0.015090  -2.213997   3.751741   0.001094   0.232280   0.004711
 133   6  -0.821353  -1.968091   3.749607   0.001097   0.185824   0.005903
 134   6  -1.699020  -2.675702   3.551306   0.000693   0.232280   0.002981
 135   6  -1.306107  -2.549347  -3.675426   0.001959   0.511017   0.003834
 136   6  -0.143722  -3.390973  -3.598888   0.001699   0.418105   0.004063
 137   6  -2.516594  -4.125296  -2.586171  -0.000175   0.232280  -0.000753
 138   6  -1.837218  -4.303731   2.884910   0.000210   0.278737   0.000752
 139   6   0.217182  -5.796630   1.212577  -0.000343   0.092912  -0.003692
 140   6  -0.524578  -5.198764  -2.403903   0.000040   0.232280   0.000173
 141   6  -0.143196  -1.843355  -3.739811   0.002755   0.464561   0.005929
 142   6  -0.950128  -2.968855   3.685144   0.001130   0.325193   0.003474
 143   7  -8.925857  -0.111835  -0.018776  -0.002609   0.536887  -0.004859
 144   7  -6.788919  -2.263851   2.621250   0.002945   0.488079   0.006034
 145   7  -6.790585  -3.223301  -1.265153   0.002867   0.488079   0.005875
 146   7  -6.862173   0.109912  -3.424087   0.002852   0.488079   0.005843
 147   7  -6.921321   3.264804  -0.927338   0.002784   0.488079   0.005703
 148   7  -6.734166   1.843747   2.963702   0.002667   0.439271   0.006072
 149   7  -8.643080  -0.863818   1.173321  -0.001593   0.585695  -0.002720
 150   7  -7.910402  -1.730418   1.962549   0.000853   0.488079   0.001748
 151   7  -8.625669  -1.436222  -0.429955  -0.001569   0.585695  -0.002680
 152   7  -7.874986  -2.531479  -0.799204   0.000900   0.488079   0.001843
 153   7  -8.652465  -0.022234  -1.433509  -0.001634   0.585695  -0.002791
 154   7  -7.926404   0.315428  -2.579695   0.000952   0.536887   0.001774
 155   7  -8.702512   1.225522  -0.436766  -0.001743   0.536887  -0.003247
 156   7  -8.035610   2.393905  -0.619742   0.000534   0.488079   0.001095
 157   7  -8.676726   0.842296   1.081989  -0.002090   0.683311  -0.003058
 158   7  -7.927228   1.446503   2.158030   0.000977   0.585695   0.001667
 159   7  -7.056209  -2.967882   1.479377   0.002521   0.488079   0.005165
 160   7  -7.053301  -3.315433   0.128285   0.002916   0.536887   0.005432
 161   7  -7.178499  -2.408192  -2.166288   0.002634   0.536887   0.004905
 162   7  -7.096291  -1.139808  -3.087983   0.003140   0.585695   0.005361
 163   7  -7.014983   1.516947  -2.976440   0.003263   0.585695   0.005571
 164   7  -7.087743   2.587520  -2.043113   0.003044   0.585695   0.005197
 165   7  -7.049683   3.299479   0.369246   0.002848   0.536887   0.005304
 166   7  -7.029615   2.756379   1.872156   0.003169   0.585695   0.005410
 167   7  -7.043086   0.658716   3.258108   0.003548   0.634503   0.005592
 168   7  -7.154671  -0.979177   3.103864   0.003206   0.634503   0.005053
 169   7  -5.935419  -3.112848   2.130712   0.003042   0.439271   0.006925
 170   7  -5.120046  -3.003227   2.446141   0.001409   0.244040   0.005772
 171   7  -5.919238  -3.686260  -0.818289   0.002716   0.390463   0.006956
 172   7  -5.760154  -3.113415  -2.194285   0.003166   0.439271   0.007208
 173   7  -5.093664  -2.533651  -2.930274   0.002314   0.390463   0.005925
 174   7  -4.650030  -1.362058  -3.604087   0.002767   0.536887   0.005153
 175   7  -5.667753  -0.571766  -3.781978   0.004166   0.585695   0.007113
 176   7  -5.793245   1.021337  -3.662952   0.004163   0.585695   0.007107
 177   7  -4.722173   1.627291  -3.499934   0.002312   0.439271   0.005264
 178   7  -4.941280   2.785924  -2.689502   0.001562   0.292848   0.005332
 179   7  -5.859513   3.377132  -1.718379   0.003094   0.439271   0.007045
 180   7  -5.981913   3.757265  -0.168809   0.002441   0.341655   0.007145
 181   7  -5.387929   3.068593   2.340779   0.002469   0.390463   0.006323
 182   7  -5.799713   2.496840   2.866421   0.002761   0.390463   0.007072
 183   7  -5.639760   1.342713   3.586198   0.003379   0.488079   0.006924
 184   7  -4.549605   0.590194   3.795391   0.002483   0.488079   0.005088
 185   7  -4.592764  -1.063933   3.696354   0.002709   0.536887   0.005046
 186   7  -5.891336  -1.658401   3.399297   0.003450   0.488079   0.007068
 187   7  -8.103985  -2.287365   0.685859   0.000460   0.585695   0.000785
 188   7  -8.142391  -1.282434  -1.955009   0.000363   0.683311   0.000531
 189   7  -8.122092   1.556521  -1.780134   0.000321   0.585695   0.000547
 190   7  -8.043920   2.330487   0.796260   0.000643   0.634503   0.001014
 191   7  -8.103212  -0.138746   2.384918   0.000418   0.585695   0.000714
 192   7  -6.036184  -3.641946   0.882128   0.002842   0.390463   0.007280
 193   7  -6.092604  -2.026706  -3.133749   0.003383   0.488079   0.006932
 194   7  -5.862500   2.467248  -2.875022   0.003394   0.488079   0.006954
 195   7  -6.029007   3.507240   1.324808   0.003139   0.439271   0.007147
 196   7  -5.820793  -0.242547   3.789443   0.004579   0.634503   0.007217
 197   7  -4.467839   0.259942  -3.820577   0.002281   0.488079   0.004673
 198   7  -4.630053   1.846841   3.378920   0.001650   0.341655   0.004828
 199   7  -4.938475  -2.278358   3.131007   0.001935   0.341655   0.005664
 200   8  -2.358777   6.327968   0.149112  -0.005286   0.510320  -0.010359
 201   8  -1.376269   6.069150  -1.372148  -0.002626   0.372926  -0.007042
 202   8  -0.891039   6.320858   0.670003  -0.002586   0.353299  -0.007320
 203   8  -2.691759   5.329582   1.707557  -0.002886   0.392554  -0.007351
 204   8  -2.901351   5.207282  -1.633988  -0.002551   0.314043  -0.008122
 205   8  -1.147276   6.441667  -0.351419  -0.003767   0.431809  -0.008725
 206   8  -1.765274   6.027224   1.410487  -0.003758   0.471065  -0.007978
 207   8  -3.223044   5.591523   0.781142  -0.004097   0.412182  -0.009939
 208   8  -3.278965   5.646825  -0.487823  -0.004105   0.412182  -0.009960
 209   8  -2.329899   5.905558  -1.352940  -0.003648   0.412182  -0.008851
 210   9   4.426975   6.135124   0.056263  -0.006018   0.608459  -0.009890
 211   9   4.975511   5.008438  -1.338260  -0.002640   0.412182  -0.006404
 212   9   5.443745   4.648915   0.669972  -0.002536   0.353299  -0.007179
 213   9   3.908745   5.564042   1.767398  -0.002018   0.353299  -0.005712
 214   9   2.493054   6.362193   0.380393  -0.002550   0.333671  -0.007643
 215   9   3.004691   5.999620  -1.458929  -0.001802   0.333671  -0.005401
 216   9   5.393266   5.011861  -0.308541  -0.004078   0.490692  -0.008311
 217   9   4.808067   5.345530   1.263424  -0.003701   0.490692  -0.007543
 218   9   3.288343   6.213476   1.117717  -0.003864   0.510320  -0.007572
 219   9   3.061820   6.434644  -0.489762  -0.004092   0.490692  -0.008339
 220   9   4.145141   5.753658  -1.448200  -0.004193   0.549575  -0.007630
 221  10   7.951364  -0.050332   0.056196  -0.005895   0.608459  -0.009688
 222  10   7.246325  -1.086310  -1.338322  -0.002602   0.412182  -0.006313
 223  10   7.167110  -1.671312   0.669910  -0.002400   0.353299  -0.006794
 224  10   7.198264   0.115501   1.767341  -0.002017   0.353299  -0.005708
 225  10   7.187181   1.740652   0.380341  -0.002633   0.333671  -0.007891
 226  10   7.126841   1.116483  -1.458982  -0.001817   0.333671  -0.005445
 227  10   7.456947  -1.447111  -0.308606  -0.003989   0.490692  -0.008130
 228  10   7.455640  -0.773476   1.263360  -0.003620   0.490692  -0.007378
 229  10   7.453430   0.976636   1.117659  -0.003790   0.510320  -0.007427
 230  10   7.532732   1.283129  -0.489820  -0.003886   0.490692  -0.007919
 231  10   7.480253   0.004627  -1.448262  -0.004149   0.549575  -0.007549
 232  11   4.339637  -6.185148   0.056190  -0.006027   0.608459  -0.009905
 233  11   3.090261  -6.088283  -1.338330  -0.002667   0.412182  -0.006469
 234  11   2.573766  -6.313223   0.687279  -0.002445   0.333671  -0.007327
 235  11   4.109214  -5.449235   1.767335  -0.002037   0.353299  -0.005765
 236  11   5.513901  -4.631860   0.380338  -0.002652   0.333671  -0.007947
 237  11   4.942304  -4.889735  -1.458986  -0.001808   0.333671  -0.005419
 238  11   2.881868  -6.450377  -0.308614  -0.003998   0.490692  -0.008147
 239  11   3.465748  -6.114422   1.263353  -0.003636   0.490692  -0.007410
 240  11   4.983274  -5.242636   1.117656  -0.003839   0.510320  -0.007523
 241  11   5.288648  -5.159110  -0.489823  -0.004113   0.490692  -0.008383
 242  11   4.153171  -5.749034  -1.448267  -0.004178   0.549575  -0.007602
 243  12  -2.358790  -6.327967  -0.149052  -0.005286   0.510320  -0.010358
 244  12  -1.376253  -6.069145   1.372189  -0.002625   0.372926  -0.007040
 245  12  -0.891062  -6.320863  -0.669970  -0.002586   0.353299  -0.007318
 246  12  -2.691797  -5.329587  -1.707496  -0.002886   0.392554  -0.007351
 247  12  -2.901328  -5.207272   1.634053  -0.002551   0.314043  -0.008124
 248  12  -1.147280  -6.441667   0.351457  -0.003766   0.431809  -0.008722
 249  12  -1.765309  -6.027230  -1.410439  -0.003758   0.471065  -0.007978
 250  12  -3.223066  -5.591522  -0.781070  -0.004097   0.412182  -0.009939
 251  12  -3.278964  -5.646819   0.487897  -0.004106   0.412182  -0.009961
 252  12  -2.329883  -5.905551   1.352997  -0.003648   0.412182  -0.008851
 253   1   0.392857   0.813447  -3.389518   0.000376   0.048503   0.007745
 254   2   0.165052   0.425947  -3.354107   0.000263   0.048503   0.005427
 255   3   0.843535   0.821246  -3.354005   0.000310   0.048503   0.006387
 256   1   0.392811   0.813528   3.389548   0.000325   0.048503   0.006708
 257   2   0.165006   0.426027   3.354142   0.000263   0.048503   0.005427
 258   3   0.843489   0.821326   3.354041   0.000297   0.048503   0.006120
 259   1  -2.522827   1.907809   3.287616   0.000036   0.061431   0.000584
 260   2  -2.752453   1.521512   3.327757  -0.000078   0.061431  -0.001263
 261   7  -3.320569   1.511039   3.291390  -0.000133   0.061431  -0.002166
 262   1  -2.522787   1.907733  -3.287650   0.000043   0.061431   0.000708
 263   2  -2.752413   1.521435  -3.327784  -0.000087   0.061431  -0.001415
 264   7  -3.320528   1.510963  -3.291425  -0.000122   0.061431  -0.001984
 265   2  -2.025842   1.285902  -3.529610   0.000529   0.209631   0.002525
 266   2  -0.600196   0.492231  -3.557864   0.000954   0.209631   0.004550
 267   1  -0.998014   1.453053  -3.491865   0.001917   0.430913   0.004449
 268   2  -0.600243   0.492315   3.557888   0.001094   0.209630   0.005217
 269   2  -2.025886   1.285984   3.529597   0.000509   0.209630   0.002430
 270   1  -0.998059   1.453135   3.491861   0.001768   0.430912   0.004102
 271   1   0.883072   5.880987  -0.528247  -0.000136   0.007547  -0.018080
 272   3   1.332700   5.919143  -0.535026  -0.000152   0.007547  -0.020110
 273   9   1.616064   5.993995  -0.486747  -0.000119   0.007547  -0.015753
 274   1   0.883065   5.881002   0.528149  -0.000112   0.007547  -0.014795
 275   3   1.332692   5.919158   0.534933  -0.000136   0.007547  -0.017986
 276   9   1.616057   5.994008   0.486656  -0.000150   0.007547  -0.019871
 277   3   1.162244   1.488209  -3.557893   0.001289   0.198340   0.006499
 278   3   1.174555   3.483452  -3.299315   0.001669   0.405384   0.004117
 279   3   1.186015   5.342368  -1.711360  -0.001572   0.405384  -0.003879
 280   1   0.519246   2.264270  -3.514398   0.002449   0.405384   0.006040
 281   1   0.533403   4.559440  -2.672202   0.000087   0.405384   0.000214
 282   1   0.540817   5.762650  -1.059677  -0.000920   0.198340  -0.004636
 283   3   1.188565   5.758681   1.059583  -0.000927   0.198341  -0.004673
 284   3   1.181129   4.555512   2.672143   0.000249   0.405385   0.000615
 285   3   1.166960   2.260359   3.514398   0.002369   0.405385   0.005844
 286   1   0.538229   5.346410   1.711279  -0.001655   0.405385  -0.004082
 287   1   0.526748   3.487533   3.299284   0.001555   0.405385   0.003836
 288   1   0.514434   1.492292   3.557912   0.001022   0.198341   0.005154
 289   1  -3.273216   3.924569   2.019828  -0.000395   0.072991  -0.005405
 290   7  -4.042755   3.480586   1.969237  -0.000159   0.072991  -0.002175
 291   8  -3.294050   4.159646   1.836340  -0.000565   0.072991  -0.007745
 292   1  -3.273249   3.924639  -2.019742  -0.000391   0.072991  -0.005359
 293   7  -4.042787   3.480654  -1.969154  -0.000130   0.072991  -0.001786
 294   8  -3.294080   4.159710  -1.836246  -0.000476   0.072991  -0.006515
 295   7  -3.784638   1.952615   3.258010   0.000390   0.346290   0.001127
 296   7  -4.315214   3.018626   2.525917   0.000685   0.346290   0.001978
 297   1  -2.897845   3.021197   2.836867  -0.000742   0.683597  -0.001085
 298   7  -4.315239   3.018678  -2.525869   0.000657   0.346323   0.001897
 299   7  -3.784616   1.952574  -3.258037   0.000420   0.346323   0.001213
 300   1  -2.897844   3.021199  -2.836849  -0.000639   0.683664  -0.000934
 301   8  -2.811394   4.666788   1.972875  -0.000544   0.065877  -0.008256
 302   8  -1.878158   5.212237   2.062258  -0.001047   0.145997  -0.007174
 303   8  -0.856098   5.809615   1.495520  -0.001276   0.145997  -0.008740
 304   8  -0.330988   6.116552   0.332460  -0.001377   0.145997  -0.009431
 305   8  -0.512219   6.010657  -0.963148  -0.001390   0.145997  -0.009521
 306   8  -1.327522   5.534155  -1.874676  -0.001052   0.145997  -0.007207
 307   8  -2.451795   4.877053  -2.038650  -0.001155   0.145997  -0.007910
 308   1  -2.330635   4.570658   2.290602  -0.000886   0.144555  -0.006132
 309   1  -1.067478   5.308942   2.106376  -0.000916   0.144555  -0.006339
 310   1  -0.151472   5.844345   1.082245  -0.001207   0.144555  -0.008349
 311   1   0.052122   5.963373  -0.373416  -0.001510   0.144555  -0.010444
 312   1  -0.537878   5.618563  -1.680158  -0.001094   0.144555  -0.007567
 313   1  -1.686210   4.947409  -2.316912  -0.000835   0.144555  -0.005777
 314   1  -2.717234   4.344802  -2.232809  -0.000435   0.080483  -0.005399
 315   9   1.773170   6.089955  -0.101629  -0.001523   0.198178  -0.007684
 316   1   0.673955   5.983318   0.092458  -0.001317   0.279389  -0.004715
 317   2   0.518370   0.206806   3.259496   0.000288   0.101878   0.002827
 318   3   1.199559   0.594808   3.317269   0.000494   0.101878   0.004852
 319   4   1.430815   0.203854   3.298285   0.000494   0.101878   0.004849
 320   2   0.518360   0.206820  -3.259481   0.000290   0.101878   0.002845
 321   3   1.199550   0.594822  -3.317254   0.000518   0.101878   0.005087
 322   4   1.430806   0.203868  -3.298273   0.000504   0.101878   0.004948
 323   3   1.064585   0.774871   3.454139   0.000072   0.010475   0.006904
 324   2   0.100930   0.204340   3.452437   0.000098   0.010475   0.009372
 325   3   1.068568   0.768032  -3.452413   0.000068   0.010445   0.006498
 326   2   0.096985   0.211111  -3.454109   0.000090   0.010445   0.008634
 327   2   0.518371  -0.206836   3.259494   0.000291   0.101878   0.002859
 328   4   1.430816  -0.203878   3.298284   0.000491   0.101878   0.004817
 329   5   1.199562  -0.594833   3.317265   0.000503   0.101878   0.004939
 330   2   0.518361  -0.206802  -3.259483   0.000285   0.101878   0.002797
 331   4   1.430806  -0.203843  -3.298275   0.000510   0.101878   0.005004
 332   5   1.199552  -0.594798  -3.317259   0.000509   0.101878   0.004998
 333   2   0.165055  -0.425979   3.354124   0.000272   0.048503   0.005600
 334   5   0.843539  -0.821272   3.354019   0.000307   0.048503   0.006333
 335   6   0.392859  -0.813476   3.389532   0.000349   0.048503   0.007202
 336   2   0.164996  -0.426028  -3.354131   0.000256   0.048503   0.005274
 337   5   0.843481  -0.821320  -3.354032   0.000305   0.048503   0.006286
 338   6   0.392800  -0.813525  -3.389538   0.000299   0.048503   0.006173
 339   5   1.064577  -0.774863  -3.454130   0.000077   0.010476   0.007366
 340   2   0.100921  -0.204340  -3.452424   0.000093   0.010476   0.008920
 341   5   1.068578  -0.768049   3.452424   0.000067   0.010449   0.006382
 342   2   0.096991  -0.211140   3.454125   0.000104   0.010449   0.009979
 343   2  -2.752459  -1.521505   3.327771  -0.000061   0.061430  -0.000989
 344   6  -2.522833  -1.907799   3.287635   0.000034   0.061430   0.000555
 345   7  -3.320574  -1.511030   3.291404  -0.000119   0.061430  -0.001934
 346   2  -2.752418  -1.521499  -3.327767  -0.000094   0.061430  -0.001524
 347   6  -2.522793  -1.907793  -3.287628   0.000022   0.061430   0.000352
 348   7  -3.320534  -1.511024  -3.291407  -0.000128   0.061430  -0.002092
 349   6  -1.711639  -1.850392  -3.529594   0.000593   0.209625   0.002831
 350   6  -0.286025  -1.056733  -3.557873   0.000932   0.209625   0.004445
 351   2  -1.312266  -0.888706  -3.491860   0.001634   0.430900   0.003793
 352   6  -0.285985  -1.056693   3.557882   0.001187   0.209634   0.005663
 353   6  -1.711661  -1.850386   3.529611   0.000705   0.209634   0.003361
 354   2  -1.312257  -0.888684   3.491866   0.001660   0.430922   0.003852
 355   7  -3.688478  -0.822306   3.549445   0.000169   0.266942   0.000632
 356   7  -3.688475   0.822317   3.549437   0.000123   0.266942   0.000460
 357   2  -2.874284   0.000003   3.473978  -0.000978   0.538538  -0.001816
 358   7  -3.688432   0.822254  -3.549460   0.000129   0.266934   0.000482
 359   7  -3.688435  -0.822318  -3.549450   0.000106   0.266934   0.000396
 360   2  -2.874242  -0.000033  -3.473985  -0.001008   0.538519  -0.001872
 361   4   2.291380   0.459773  -3.552771   0.001452   0.206791   0.007023
 362   4   4.082149   1.496067  -3.254443   0.001835   0.424321   0.004326
 363   4   5.692383   2.427884  -1.534399  -0.001733   0.424321  -0.004085
 364   3   2.662412   1.422584  -3.498370   0.002726   0.424321   0.006425
 365   3   4.702465   2.603134  -2.568760   0.000065   0.424321   0.000152
 366   3   5.712260   3.187485  -0.834226  -0.000968   0.206791  -0.004683
 367   4   6.036603   2.627073   0.834080  -0.000946   0.206796  -0.004576
 368   4   5.026841   2.042731   2.568695   0.000279   0.424333   0.000658
 369   4   2.986762   0.862161   3.498371   0.002659   0.424333   0.006266
 370   3   5.368119   2.988328   1.534285  -0.001734   0.424333  -0.004086
 371   3   3.757898   2.056508   3.254421   0.001672   0.424333   0.003940
 372   3   1.967091   1.020190   3.552783   0.001201   0.206796   0.005806
 373   3   5.805311   3.260836   0.244528  -0.000147   0.009007  -0.016344
 374   9   5.708972   3.540095   0.219326  -0.000153   0.009007  -0.017007
 375  10   6.187880   2.623990   0.214974  -0.000166   0.009007  -0.018415
 376   3   5.805303   3.260836  -0.244627  -0.000140   0.009007  -0.015552
 377   9   5.708965   3.540094  -0.219423  -0.000159   0.009007  -0.017624
 378  10   6.187873   2.623990  -0.215085  -0.000166   0.009007  -0.018470
 379   9   2.030525   6.071609   0.749633  -0.000601   0.072102  -0.008331
 380   9   2.688741   5.694588   1.650635  -0.001161   0.162931  -0.007127
 381   9   3.867670   5.019294   2.060466  -0.001117   0.162931  -0.006857
 382   9   4.997537   4.372093   1.496206  -0.001228   0.162931  -0.007540
 383   9   5.560876   4.049400   0.513498  -0.000550   0.072102  -0.007624
 384   3   1.915176   5.761389   1.262061  -0.001202   0.155312  -0.007737
 385   3   3.020892   5.128037   2.218573  -0.000866   0.155312  -0.005576
 386   3   4.401134   4.337425   2.126253  -0.000853   0.155312  -0.005492
 387   3   5.403396   3.763313   1.028743  -0.001164   0.155312  -0.007496
 388   9   5.560862   4.049398  -0.513586  -0.000593   0.072101  -0.008223
 389   9   4.997509   4.372080  -1.496266  -0.001238   0.162927  -0.007600
 390   9   3.867652   5.019264  -2.060506  -0.000998   0.162927  -0.006123
 391   9   2.688743   5.694554  -1.650691  -0.001188   0.162927  -0.007289
 392   9   2.030533   6.071590  -0.749716  -0.000511   0.072101  -0.007089
 393   3   5.403372   3.763306  -1.028819  -0.001254   0.155309  -0.008071
 394   3   4.401104   4.337400  -2.126295  -0.000855   0.155309  -0.005506
 395   3   3.020883   5.127999  -2.218613  -0.000861   0.155309  -0.005547
 396   3   1.915182   5.761361  -1.262131  -0.001267   0.155309  -0.008158
 397  10   6.592399   2.267054  -0.246797  -0.000091   0.005773  -0.015748
 398   3   5.948201   3.170473  -0.278869  -0.000057   0.008148  -0.006994
 399  10   6.592733   2.267534   0.240748  -0.000093   0.005762  -0.016058
 400   3   5.947917   3.170042   0.284105  -0.000062   0.008131  -0.007649
 401   5   1.967026  -1.020140  -3.552777   0.001412   0.206770   0.006830
 402   5   3.757648  -2.056341  -3.254590   0.001782   0.424274   0.004200
 403   5   5.367917  -2.988182  -1.534908  -0.001710   0.424274  -0.004030
 404   4   2.986614  -0.862059  -3.498419   0.002791   0.424274   0.006579
 405   4   5.026559  -2.042541  -2.569073   0.000100   0.424274   0.000236
 406   4   6.036468  -2.626965  -0.834861  -0.000969   0.206770  -0.004685
 407   5   5.712191  -3.187417   0.834672  -0.000944   0.206775  -0.004564
 408   5   4.702315  -2.603028   2.568974   0.000236   0.424286   0.000556
 409   5   2.662344  -1.422539   3.498403   0.002603   0.424286   0.006134
 410   4   5.692273  -2.427796   1.534754  -0.001758   0.424286  -0.004143
 411   4   4.082017  -1.495978   3.254541   0.001719   0.424286   0.004051
 412   4   2.291357  -0.459757   3.552778   0.001240   0.206775   0.005997
 413  10   6.705606  -2.074251  -0.519546  -0.000525   0.066168  -0.007928
 414  10   6.705590  -1.498442  -1.442043  -0.001034   0.146677  -0.007050
 415  10   6.705586  -0.332985  -2.052797  -0.000820   0.146677  -0.005593
 416  10   6.705600   0.965772  -1.841754  -0.000908   0.146677  -0.006194
 417  10   6.705629   1.877881  -0.893405  -0.001162   0.146677  -0.007921
 418   4   6.379235  -2.109591  -1.004337  -0.001071   0.145169  -0.007379
 419   4   6.379220  -1.084519  -2.069537  -0.000714   0.145169  -0.004915
 420   4   6.379226   0.374727  -2.306236  -0.000666   0.145169  -0.004590
 421   4   6.379251   1.683946  -1.619673  -0.000895   0.145169  -0.006167
 422   4   6.379278   2.331599  -0.609123  -0.000664   0.080839  -0.008212
 423  10   6.705661   2.074366   0.518787  -0.000554   0.066169  -0.008370
 424  10   6.705677   1.498818   1.441468  -0.000973   0.146680  -0.006635
 425  10   6.705682   0.333515   2.052563  -0.000927   0.146680  -0.006321
 426  10   6.705667  -0.965321   1.841870  -0.000848   0.146680  -0.005782
 427  10   6.705639  -1.877690   0.893741  -0.001120   0.146680  -0.007637
 428   4   6.379312   2.109850   1.003587  -0.001046   0.145171  -0.007205
 429   4   6.379328   1.085070   2.069102  -0.000727   0.145171  -0.005004
 430   4   6.379322  -0.374134   2.306210  -0.000676   0.145171  -0.004655
 431   4   6.379297  -1.683557   1.619983  -0.000889   0.145171  -0.006125
 432   4   6.379269  -2.331480   0.609582  -0.000506   0.080840  -0.006258
 433   5   1.332712  -5.919098  -0.535321  -0.000134   0.007551  -0.017780
 434   6   0.883082  -5.880946  -0.528531  -0.000112   0.007551  -0.014801
 435  11   1.616071  -5.993957  -0.487023  -0.000147   0.007551  -0.019534
 436   5   1.332722  -5.919119   0.535181  -0.000148   0.007551  -0.019553
 437   6   0.883092  -5.880966   0.528400  -0.000134   0.007551  -0.017812
 438  11   1.616080  -5.993975   0.486874  -0.000116   0.007551  -0.015307
 439   6   0.540840  -5.762612   1.059826  -0.000908   0.198336  -0.004576
 440   6   0.533422  -4.559384   2.672271   0.000077   0.405373   0.000189
 441   6   0.519255  -2.264261   3.514413   0.002440   0.405373   0.006019
 442   5   1.186039  -5.342316   1.711476  -0.001512   0.405373  -0.003730
 443   5   1.174572  -3.483409   3.299345   0.001562   0.405373   0.003853
 444   5   1.162252  -1.488218   3.557901   0.001122   0.198336   0.005659
 445   6   0.514425  -1.492255  -3.557904   0.001022   0.198330   0.005155
 446   6   0.526749  -3.487392  -3.299355   0.001577   0.405360   0.003890
 447   6   0.538244  -5.346279  -1.711559  -0.001650   0.405360  -0.004071
 448   5   1.166958  -2.260274  -3.514416   0.002485   0.405360   0.006131
 449   5   1.181141  -4.555344  -2.672310   0.000157   0.405360   0.000387
 450   5   1.188586  -5.758578  -1.059939  -0.000866   0.198330  -0.004367
 451   5   5.805326  -3.260868   0.244260  -0.000140   0.008999  -0.015515
 452  10   6.187892  -2.624024   0.214741  -0.000159   0.008999  -0.017636
 453  11   5.708981  -3.540125   0.219079  -0.000159   0.008999  -0.017630
 454   5   5.805317  -3.260862  -0.244443  -0.000155   0.008999  -0.017206
 455  10   6.187884  -2.624019  -0.214922  -0.000166   0.008999  -0.018423
 456  11   5.708973  -3.540120  -0.219265  -0.000161   0.008999  -0.017887
 457  10   6.592395  -2.267054   0.246884  -0.000089   0.005931  -0.015010
 458   5   5.948207  -3.170478   0.278837  -0.000056   0.008370  -0.006688
 459  10   6.592718  -2.267538  -0.241016  -0.000094   0.005936  -0.015759
 460   5   5.947892  -3.170021  -0.284563  -0.000069   0.008378  -0.008232
 461  11   2.030562  -6.071535  -0.749983  -0.000569   0.072101  -0.007898
 462  11   2.688852  -5.694451  -1.650876  -0.001201   0.162926  -0.007373
 463  11   3.867802  -5.019151  -2.060549  -0.001038   0.162926  -0.006374
 464  11   4.997618  -4.372017  -1.496173  -0.001246   0.162926  -0.007647
 465  11   5.560891  -4.049404  -0.513426  -0.000631   0.072101  -0.008752
 466   5   1.915259  -5.761274  -1.262387  -0.001196   0.155309  -0.007699
 467   5   3.021048  -5.127866  -2.218733  -0.000804   0.155309  -0.005176
 468   5   4.401269  -4.337292  -2.126249  -0.000873   0.155309  -0.005623
 469   5   5.403449  -3.763279  -1.028654  -0.001287   0.155309  -0.008288
 470  11   5.560910  -4.049418   0.513235  -0.000627   0.072101  -0.008693
 471  11   4.997667  -4.372062   1.496000  -0.001189   0.162928  -0.007301
 472  11   3.867860  -5.019218   2.060395  -0.001134   0.162928  -0.006963
 473  11   2.688891  -5.694509   1.650726  -0.001146   0.162928  -0.007031
 474  11   2.030577  -6.071563   0.749826  -0.000532   0.072101  -0.007377
 475   5   5.403485  -3.763309   1.028479  -0.001227   0.155310  -0.007900
 476   5   4.401333  -4.337358   2.126099  -0.000882   0.155310  -0.005678
 477   5   3.021105  -5.127941   2.218598  -0.000807   0.155310  -0.005195
 478   5   1.915286  -5.761319   1.262247  -0.001145   0.155310  -0.007375
 479   6  -3.273217  -3.924610  -2.019795  -0.000395   0.072990  -0.005407
 480   7  -4.042757  -3.480628  -1.969210  -0.000159   0.072990  -0.002172
 481  12  -3.294052  -4.159683  -1.836304  -0.000566   0.072990  -0.007750
 482   6  -3.273246  -3.924621   2.019777  -0.000392   0.072990  -0.005371
 483   7  -4.042784  -3.480639   1.969184  -0.000139   0.072990  -0.001898
 484  12  -3.294078  -4.159694   1.836285  -0.000476   0.072990  -0.006521
 485   7  -3.784611  -1.952613  -3.258026   0.000406   0.346303   0.001173
 486   7  -4.315209  -3.018662  -2.525906   0.000618   0.346303   0.001783
 487   6  -2.897828  -3.021211  -2.836860  -0.000753   0.683624  -0.001101
 488   7  -4.315243  -3.018674   2.525880   0.000641   0.346305   0.001851
 489   7  -3.784651  -1.952621   3.258016   0.000369   0.346305   0.001065
 490   6  -2.897865  -3.021221   2.836854  -0.000647   0.683628  -0.000947
 491  11   1.773182  -6.089925   0.101557  -0.001530   0.198279  -0.007717
 492   6   0.673973  -5.983276  -0.092622  -0.001313   0.279531  -0.004696
 493  12  -2.811397  -4.666826  -1.972830  -0.000544   0.065876  -0.008257
 494  12  -1.878166  -5.212276  -2.062202  -0.001047   0.145996  -0.007174
 495  12  -0.856112  -5.809645  -1.495456  -0.001276   0.145996  -0.008739
 496  12  -0.331005  -6.116566  -0.332397  -0.001377   0.145996  -0.009429
 497  12  -0.512233  -6.010652   0.963205  -0.001389   0.145996  -0.009516
 498  12  -1.327529  -5.534137   1.874726  -0.001052   0.145996  -0.007207
 499  12  -2.451795  -4.877032   2.038695  -0.001155   0.145996  -0.007911
 500   6  -2.330640  -4.570703  -2.290557  -0.000887   0.144554  -0.006134
 501   6  -1.067490  -5.308985  -2.106318  -0.000916   0.144554  -0.006338
 502   6  -0.151490  -5.844372  -1.082183  -0.001207   0.144554  -0.008347
 503   6   0.052105  -5.963379   0.373475  -0.001508   0.144554  -0.010435
 504   6  -0.537889  -5.618550   1.680207  -0.001093   0.144554  -0.007563
 505   6  -1.686212  -4.947387   2.316954  -0.000835   0.144554  -0.005777
 506   6  -2.717231  -4.344781   2.232847  -0.000435   0.080482  -0.005402
 507   8  -3.476744   4.507215  -1.573457  -0.001339   0.229829  -0.005824
 508   8  -3.836808   4.825167  -0.392609  -0.003805   0.463360  -0.008211
 509   8  -3.640019   4.651372   1.132901  -0.003459   0.463360  -0.007465
 510   7  -4.854635   3.787406  -1.322694   0.001906   0.660637   0.002885
 511   7  -5.084383   3.990273   0.458558   0.002185   0.660637   0.003307
 512   7  -4.677738   3.631161   1.826094   0.000941   0.334902   0.002811
 513  12  -3.476742  -4.507201   1.573501  -0.001340   0.229828  -0.005832
 514  12  -3.836807  -4.825171   0.392657  -0.003805   0.463359  -0.008213
 515  12  -3.640021  -4.651398  -1.132856  -0.003462   0.463359  -0.007472
 516   7  -4.854631  -3.787401   1.322729   0.001893   0.660636   0.002865
 517   7  -5.084382  -3.990294  -0.458521   0.002204   0.660636   0.003336
 518   7  -4.677738  -3.631201  -1.826063   0.000980   0.334901   0.002926
 519  10   6.569982   2.458547  -0.043854  -0.000338   0.148354  -0.002282
 520   9   5.829808   3.736929   0.043742  -0.000302   0.148354  -0.002038
 521  11   5.829812  -3.736958  -0.043850  -0.000319   0.148217  -0.002155
 522  10   6.569994  -2.458582   0.043657  -0.000323   0.148217  -0.002182
 =====================================================

              2305328  WORDS OF DYNAMIC MEMORY USED
 EXECUTION OF GAMESS TERMINATED NORMALLY Wed Nov 23 20:58:44 2016
 DDI: 263640 bytes (0.3 MB / 0 MWords) used by master data server.

 ----------------------------------------
 CPU timing information for all processes
 ========================================
 0: 308.812 + 0.128 = 308.940
 ----------------------------------------
 ddikick.x: exited gracefully.
