----- GAMESS execution script -----

          ******************************************************
          *         GAMESS VERSION =  5 DEC 2014 (R1)          *
          *             FROM IOWA STATE UNIVERSITY             *
          * M.W.SCHMIDT, K.K.BALDRIDGE, J.A.BOATZ, S.T.ELBERT, *
          *   M.S.GORDON, J.H.JENSEN, S.KOSEKI, N.MATSUNAGA,   *
          *          K.A.NGUYEN, S.J.SU, T.L.WINDUS,           *
          *       TOGETHER WITH M.DUPUIS, J.A.MONTGOMERY       *
          *         J.COMPUT.CHEM.  14, 1347-1363(1993)        *
          **************** 64 BIT LINUX VERSION ****************

 EXECUTION OF GAMESS BEGUN Wed Nov 23 20:51:53 2016

            ECHO OF THE FIRST FEW INPUT CARDS -
 INPUT CARD>! SELECT RESTRICTED HARTREE-FOCK AS DEFAULT                                     
 INPUT CARD>$contrl scftyp=rhf $end                                                         
 INPUT CARD>                                                                                
 INPUT CARD>! THEORY: HF OR DFT                                                             
 INPUT CARD> $contrl mplevl=0 $end                                                          
 INPUT CARD>                                                                                
 INPUT CARD> $system timlim=10000 mwords=20 $end                                            
 INPUT CARD> $SCF DIRSCF=.TRUE. $end                                                        
 INPUT CARD>                                                                                
 INPUT CARD>                                                                                
 INPUT CARD>! BASIS SETS                                                                    
 INPUT CARD>! 6-311G(d,p)                                                                   
 INPUT CARD> $BASIS GBASIS=N311 NGAUSS=6 NDFUNC=1 NPFUNC=1 $END                             
 INPUT CARD>                                                                                
 INPUT CARD>! One of the following                                                          
 INPUT CARD> $guess guess=HUCKEL $end                                                       
 INPUT CARD>                                                                                
 INPUT CARD> $statpt projct=.FALSE. $end                                                    
 INPUT CARD> $STATPT IFREEZ(1)=1,2,3 $END                                                   
 INPUT CARD>                                                                                
 INPUT CARD>! Optimize the geometry with COSMO effects                                      
 INPUT CARD> $statpt opttol=0.0005 nstep=50 $end                                            
 INPUT CARD> $contrl nzvar=1 $end                                                           
 INPUT CARD> $zmat dlc=.t. auto=.t. $end                                                    
 INPUT CARD> $contrl runtyp=OPTIMIZE maxit=200 $end                                         
 INPUT CARD>                                                                                
 INPUT CARD>! Run COSMO on perfect conductor                                                
 INPUT CARD> $COSGMS PRFCND=.TRUE. $end                                                     
 INPUT CARD>                                                                                
 INPUT CARD>! Specifying RSOLV                                                              
 INPUT CARD> $COSGMS COSRAD = 1.4 $end                                                      
 INPUT CARD>                                                                                
 INPUT CARD>! available memory                                                              
 INPUT CARD> $SYSTEM MWORDS=40 $END                                                         
 INPUT CARD>                                                                                
 INPUT CARD> $DATA                                                                          
 INPUT CARD>C2H3ClF2                                                                        
 INPUT CARD>C1                                                                              
 INPUT CARD>Cl    17.0     -1.4234000000    0.0046000000   -0.0000000000                    
 INPUT CARD>C      6.0      0.3794000000    0.0283000000   -0.0000000000                    
 INPUT CARD>C      6.0      0.8704000000    1.4773000000   -0.0000000000                    
 INPUT CARD>F      9.0      0.8544000000   -0.6251000000    1.1423000000                    
 INPUT CARD>F      9.0      0.8544000000   -0.6251000000   -1.1423000000                    
 INPUT CARD>H      1.0      0.5004000000    1.9863000000    0.8900000000                    
 INPUT CARD>H      1.0      1.9603000000    1.4917000000   -0.0000000000                    
 INPUT CARD>H      1.0      0.5004000000    1.9863000000   -0.8900000000                    
 INPUT CARD> $END                                                                           
 INPUT CARD>                                                                                
 INPUT CARD>                                                                                
   40000000 WORDS OF MEMORY AVAILABLE

     BASIS OPTIONS
     -------------
     GBASIS=N311         IGAUSS=       6      POLAR=POPN311 
     NDFUNC=       1     NFFUNC=       0     DIFFSP=       F
     NPFUNC=       1      DIFFS=       F     BASNAM=        


     RUN TITLE
     ---------
 C2H3ClF2                                                                        

 THE POINT GROUP OF THE MOLECULE IS C1      
 THE ORDER OF THE PRINCIPAL AXIS IS     0

 ATOM      ATOMIC                      COORDINATES (BOHR)
           CHARGE         X                   Y                   Z
 CL         17.0    -2.6898359709        0.0086927395       -0.0000000000
 C           6.0     0.7169620397        0.0534792455       -0.0000000000
 C           6.0     1.6448174997        2.7916922017       -0.0000000000
 F           9.0     1.6145818839       -1.1812677149        2.1586339958
 F           9.0     1.6145818839       -1.1812677149       -2.1586339958
 H           1.0     0.9456188843        3.7535627294        1.6818561291
 H           1.0     3.7044298537        2.8189042559       -0.0000000000
 H           1.0     0.9456188843        3.7535627294       -1.6818561291

          INTERNUCLEAR DISTANCES (ANGS.)




     $CONTRL OPTIONS
     ---------------
 SCFTYP=RHF          RUNTYP=OPTIMIZE     EXETYP=RUN     
 MPLEVL=       0     CITYP =NONE         CCTYP =NONE         VBTYP =NONE    
 DFTTYP=NONE         TDDFT =NONE    
 MULT  =       1     ICHARG=       0     NZVAR =       1     COORD =UNIQUE  
 PP    =NONE         RELWFN=NONE         LOCAL =NONE         NUMGRD=       F
 ISPHER=      -1     NOSYM =       0     MAXIT =     200     UNITS =ANGS    
 PLTORB=       F     MOLPLT=       F     AIMPAC=       F     FRIEND=        
 NPRINT=       7     IREST =       0     GEOM  =INPUT   
 NORMF =       0     NORMP =       0     ITOL  =      20     ICUT  =       9
 INTTYP=BEST         GRDTYP=BEST         QMTTOL= 1.0E-06

     $SYSTEM OPTIONS
     ---------------
  REPLICATED MEMORY=    40000000 WORDS (ON EVERY NODE).
 DISTRIBUTED MEMDDI=           0 MILLION WORDS IN AGGREGATE,
 MEMDDI DISTRIBUTED OVER   1 PROCESSORS IS           0 WORDS/PROCESSOR.
 TOTAL MEMORY REQUESTED ON EACH PROCESSOR=    40000000 WORDS.
 TIMLIM=       10000.00 MINUTES, OR       6.9 DAYS.
 PARALL= F  BALTYP=  DLB     KDIAG=    0  COREFL= F
 MXSEQ2=     300 MXSEQ3=     150  mem10=         0

     $COSGMS OPTIONS
     ---------------
     EPSI  =   INFTY     NSPA  =      92     COSRAD=    1.40
     DISEX =   10.00     OUTCHG=DBLCAV       COSBUG=       F
     COSWRT=       F     DCOSMO=       F

     SYMMETRY COORDINATES WILL NOT BE USED FOR 
     THE COSMO CALCULATION, EVEN IF SPECIFIED:
         -- SWITCHING TO C1 POINT GROUP --


     DEFINITION OF CAVITY
     ---------------------------
     ATOM         COORDINATES           RADIUS 
     1   -2.6898    0.0087   -0.0000    2.0500
     2    0.7170    0.0535   -0.0000    2.0000
     3    1.6448    2.7917   -0.0000    2.0000
     4    1.6146   -1.1813    2.1586    1.7200
     5    1.6146   -1.1813   -2.1586    1.7200
     6    0.9456    3.7536    1.6819    1.3000
     7    3.7044    2.8189   -0.0000    1.3000
     8    0.9456    3.7536   -1.6819    1.3000

          ----------------
          PROPERTIES INPUT
          ----------------

     MOMENTS            FIELD           POTENTIAL          DENSITY
 IEMOM =       1   IEFLD =       0   IEPOT =       0   IEDEN =       0
 WHERE =COMASS     WHERE =NUCLEI     WHERE =NUCLEI     WHERE =NUCLEI  
 OUTPUT=BOTH       OUTPUT=BOTH       OUTPUT=BOTH       OUTPUT=BOTH    
 IEMINT=       0   IEFINT=       0                     IEDINT=       0
                                                       MORB  =       0
          EXTRAPOLATION IN EFFECT
          SOSCF IN EFFECT
 ORBITAL PRINTING OPTION: NPREO=     1   121     2     1

     -------------------------------
     INTEGRAL TRANSFORMATION OPTIONS
     -------------------------------
     NWORD  =            0
     CUTOFF = 1.0E-09     MPTRAN =       0
     DIRTRF =       T     AOINTS =DUP     

          ----------------------
          INTEGRAL INPUT OPTIONS
          ----------------------
 NOPK  =       1 NORDER=       0 SCHWRZ=       T


 -----------------------------------------------
  STATISTICS ON AUTOMATIC COORDINATE GENERATION 
 -----------------------------------------------
  NUMBER OF USER SPECIFIED BONDS                             0
  NUMBER OF BONDS                                            7
  NUMBER OF ANGLES                                          12
  NUMBER OF TORSIONS                                         9
  NUMBER OF EXTRA COORD.                                     0
  NUMBER OF EXTRA COORD. FOR CONSTRAINTS                     0
  NUMBER OF CONSTRAINED COORD.                               0

  TOTAL NUMBER OF PRIMITIVES                                28
 -----------------------------------------------

   --- ENCODED Z MATRIX ---
 COORD  TYPE   I   J   K   L   M   N
    1      1    1   2
    2      1    2   4
    3      1    2   5
    4      1    2   3
    5      1    3   7
    6      1    3   8
    7      1    3   6
    8      2    1   2   5
    9      2    1   2   4
   10      2    1   2   3
   11      2    2   3   7
   12      2    2   3   8
   13      2    2   3   6
   14      2    3   2   5
   15      2    3   2   4
   16      2    4   2   5
   17      2    6   3   8
   18      2    6   3   7
   19      2    7   3   8
   20      3    1   2   3   6
   21      3    1   2   3   8
   22      3    1   2   3   7
   23      3    4   2   3   6
   24      3    4   2   3   7
   25      3    4   2   3   8
   26      3    5   2   3   6
   27      3    5   2   3   7
   28      3    5   2   3   8

          INDEP./SYM. INTERNAL COORDINATES
          --------------------------------
 CRD  1=   0.2254 (  4) -0.2625 (  8) -0.2625 (  9)  0.7564 ( 10) -0.2195 ( 11)
           0.2013 ( 12)  0.2013 ( 13) -0.1582 ( 14) -0.1582 ( 15) -0.1202 ( 17)
 CRD  2=  -0.2070 (  8)  0.2070 (  9)  0.3371 ( 12) -0.3371 ( 13)  0.5590 ( 14)
          -0.5590 ( 15) -0.1257 ( 22)
 CRD  3=   0.5537 (  4) -0.1877 (  8) -0.1877 (  9)  0.3375 ( 11)  0.3806 ( 14)
           0.3806 ( 15) -0.3402 ( 16) -0.1104 ( 17) -0.1807 ( 18) -0.1807 ( 19)
 CRD  4=   0.1710 (  6) -0.1710 (  7)  0.2480 (  8) -0.2480 (  9)  0.5097 ( 12)
          -0.5097 ( 13) -0.2719 ( 14)  0.2719 ( 15)  0.2187 ( 18) -0.2187 ( 19)
          -0.1373 ( 22)
 CRD  5=   0.2070 (  5) -0.1054 (  6) -0.1054 (  7) -0.1092 (  8) -0.1092 (  9)
           0.2681 ( 10)  0.6131 ( 11) -0.3393 ( 12) -0.3393 ( 13) -0.1300 ( 14)
          -0.1300 ( 15)  0.2103 ( 16)  0.2928 ( 17) -0.1136 ( 18) -0.1136 ( 19)
 CRD  6=   0.4143 (  1)  0.3548 (  2)  0.3548 (  3)  0.2618 (  4) -0.1144 (  5)
          -0.1408 (  6) -0.1408 (  7)  0.1951 (  8)  0.1951 (  9) -0.1423 ( 10)
           0.1969 ( 11)  0.1738 ( 12)  0.1738 ( 13) -0.2352 ( 14) -0.2352 ( 15)
           0.2226 ( 16) -0.1699 ( 17) -0.1873 ( 18) -0.1873 ( 19)
 CRD  7=   0.4490 (  2) -0.4490 (  3) -0.2969 (  8)  0.2969 (  9)  0.1070 ( 12)
          -0.1070 ( 13)  0.3306 ( 20)  0.3306 ( 21)  0.3509 ( 22)
 CRD  8=  -0.2964 (  1) -0.1739 (  2) -0.1739 (  3) -0.2165 (  4) -0.4847 (  5)
          -0.4662 (  6) -0.4662 (  7)  0.1361 ( 11)  0.1453 ( 12)  0.1453 ( 13)
          -0.1475 ( 17) -0.1396 ( 18) -0.1396 ( 19)
 CRD  9=   0.5300 (  1) -0.3414 (  2) -0.3414 (  3)  0.1637 (  8)  0.1637 (  9)
          -0.3587 ( 16) -0.2078 ( 23) -0.2157 ( 24) -0.2236 ( 25)  0.2236 ( 26)
           0.2157 ( 27)  0.2078 ( 28)
 CRD 10=  -0.5572 (  6)  0.5572 (  7)  0.2930 ( 18) -0.2930 ( 19)  0.2315 ( 22)
           0.2109 ( 24)  0.2109 ( 27)
 CRD 11=   0.6437 (  5) -0.3213 (  6) -0.3213 (  7) -0.3384 ( 17)  0.1690 ( 18)
           0.1690 ( 19) -0.1781 ( 20)  0.1781 ( 21) -0.1600 ( 23)  0.1961 ( 25)
          -0.1961 ( 26)  0.1600 ( 28)
 CRD 12=   0.1408 (  2) -0.1408 (  3) -0.2878 ( 20) -0.2878 ( 21) -0.2735 ( 22)
          -0.3490 ( 23) -0.3347 ( 24) -0.3490 ( 25) -0.3490 ( 26) -0.3347 ( 27)
          -0.3490 ( 28)
 CRD 13=   0.3531 (  1)  0.3562 (  2)  0.3562 (  3) -0.1762 (  4) -0.2303 (  5)
          -0.2259 (  6) -0.2259 (  7) -0.1746 (  8) -0.1746 (  9)  0.1516 ( 10)
          -0.1915 ( 11) -0.1929 ( 12) -0.1929 ( 13)  0.2049 ( 14)  0.2049 ( 15)
          -0.2121 ( 16)  0.1883 ( 17)  0.1946 ( 18)  0.1946 ( 19)
 CRD 14=   0.4898 (  2) -0.4898 (  3) -0.2152 (  6)  0.2152 (  7)  0.1950 (  8)
          -0.1950 (  9)  0.1185 ( 14) -0.1185 ( 15) -0.1682 ( 18)  0.1682 ( 19)
          -0.1212 ( 20) -0.1212 ( 21) -0.2937 ( 22)  0.1901 ( 23)  0.1901 ( 25)
           0.1901 ( 26)  0.1901 ( 28)
 CRD 15=   0.1078 (  1)  0.1450 (  2)  0.1450 (  3) -0.7001 (  4)  0.1987 (  5)
           0.1862 (  6)  0.1862 (  7)  0.2211 ( 11)  0.2154 ( 12)  0.2154 ( 13)
           0.1077 ( 14)  0.1077 ( 15) -0.1251 ( 16) -0.2111 ( 17) -0.2204 ( 18)
          -0.2204 ( 19)
 CRD 16=   0.5097 (  1) -0.2452 (  2) -0.2452 (  3) -0.2669 (  5)  0.1452 (  6)
           0.1452 (  7) -0.1410 (  8) -0.1410 (  9)  0.2555 ( 16) -0.2243 ( 17)
          -0.1209 ( 20)  0.1209 ( 21)  0.1935 ( 24)  0.3144 ( 25) -0.3144 ( 26)
          -0.1935 ( 27)
 CRD 17=   0.1656 (  2) -0.1656 (  3)  0.3262 (  6) -0.3262 (  7) -0.1999 ( 12)
           0.1999 ( 13)  0.1720 ( 14) -0.1720 ( 15)  0.2547 ( 18) -0.2547 ( 19)
          -0.2654 ( 20) -0.2654 ( 21)  0.1690 ( 22)  0.3628 ( 24)  0.3628 ( 27)
 CRD 18=   0.2183 (  1) -0.1066 (  2) -0.1066 (  3)  0.3577 (  5) -0.1781 (  6)
          -0.1781 (  7) -0.1956 ( 10) -0.2304 ( 11)  0.1161 ( 12)  0.1161 ( 13)
           0.1035 ( 14)  0.1035 ( 15)  0.1174 ( 16)  0.2782 ( 17) -0.1400 ( 18)
          -0.1400 ( 19)  0.2415 ( 20) -0.2415 ( 21)  0.3768 ( 23)  0.1353 ( 24)
          -0.1062 ( 25)  0.1062 ( 26) -0.1353 ( 27) -0.3768 ( 28)

 THE DETERMINANT OF THE G MATRIX IS 10**(   -12)


                     --------------------
                     INTERNAL COORDINATES
                     --------------------

                 - - ATOMS - -         COORDINATE      COORDINATE
 NO.   TYPE    I  J  K  L  M  N        (BOHR,RAD)       (ANG,DEG)
 ----------------------------------------------------------------
   1 STRETCH   1  2                     3.4070924       1.8029558
   2 STRETCH   2  4                     2.6438650       1.3990732
   3 STRETCH   2  5                     2.6438650       1.3990732
   4 STRETCH   2  3                     2.8911461       1.5299288
   5 STRETCH   3  7                     2.0597921       1.0899951
   6 STRETCH   3  8                     2.0597849       1.0899913
   7 STRETCH   3  6                     2.0597849       1.0899913
   8 BEND      1  2  5                  1.9106425     109.4717517
   9 BEND      1  2  4                  1.9106425     109.4717517
  10 BEND      1  2  3                  1.9106530     109.4723546
  11 BEND      2  3  7                  1.9107190     109.4761357
  12 BEND      2  3  8                  1.9106341     109.4712691
  13 BEND      2  3  6                  1.9106341     109.4712691
  14 BEND      3  2  5                  1.9106617     109.4728528
  15 BEND      3  2  4                  1.9106617     109.4728528
  16 BEND      4  2  5                  1.9105379     109.4657600
  17 BEND      6  3  8                  1.9107154     109.4759266
  18 BEND      6  3  7                  1.9105484     109.4663616
  19 BEND      7  3  8                  1.9105484     109.4663616
  20 TORSION   1  2  3  6               1.0472484      60.0029115
  21 TORSION   1  2  3  8              -1.0472484     -60.0029115
  22 TORSION   1  2  3  7               3.1415927     180.0000000
  23 TORSION   4  2  3  6              -1.0471877     -59.9994330
  24 TORSION   4  2  3  7               1.0471566      59.9976555
  25 TORSION   4  2  3  8               3.1415009     179.9947440
  26 TORSION   5  2  3  6              -3.1415009    -179.9947440
  27 TORSION   5  2  3  7              -1.0471566     -59.9976555
  28 TORSION   5  2  3  8               1.0471877      59.9994330

     ------------------------------------------
     THE POINT GROUP IS C1 , NAXIS= 1, ORDER= 1
     ------------------------------------------

     DIMENSIONS OF THE SYMMETRY SUBSPACES ARE
 A   =  121

 ..... DONE SETTING UP THE RUN .....
 STEP CPU TIME =     0.00 TOTAL CPU TIME =        0.0 (    0.0 MIN)
 TOTAL WALL CLOCK TIME=        0.0 SECONDS, CPU UTILIZATION IS   0.00%


          -----------------------------
          STATIONARY POINT LOCATION RUN
          -----------------------------

 OBTAINING INITIAL HESSIAN, HESS=GUESS   
 DIAGONAL GUESS HESSIAN IN INTERNAL COORDS IS
     1  0.3313     2  0.3273     3  0.3273     4  0.3672     5  0.3464
     6  0.3464     7  0.3464     8  0.2409     9  0.2409    10  0.2538
    11  0.2241    12  0.2241    13  0.2241    14  0.2360    15  0.2360
    16  0.2246    17  0.2034    18  0.2034    19  0.2034    20  0.2500
    21  0.2500    22  0.2500    23  0.2500    24  0.2500    25  0.2500
    26  0.2500    27  0.2500    28  0.2500
 TRANSFORMING HESSIAN TO SYMMETRY COORDINATES

          PARAMETERS CONTROLLING GEOMETRY SEARCH ARE
          METHOD =QA                  UPHESS =BFGS    
          NNEG   =         0          NFRZ   =         3
          NSTEP  =        50          IFOLOW =         1
          HESS   =GUESS               RESTAR =         F
          IHREP  =         0          HSSEND =         F
          NPRT   =         0          NPUN   =         0
          OPTTOL = 5.000E-04          RMIN   = 1.500E-03
          RMAX   = 1.000E-01          RLIM   = 7.000E-02
          DXMAX  = 3.000E-01          PURIFY =         F
          MOVIE  =         F          TRUPD  =         T
          TRMAX  = 5.000E-01          TRMIN  = 5.000E-02
          ITBMAT =         5          STPT   =         F
          STSTEP = 1.000E-02          PROJCT=          F
          FROZEN COORD(S)=   1   2   3


      ***** EQUILIBRIUM GEOMETRY LOCATED *****
            (SUBJECT TO   3 CONSTRAINT(S))
 COORDINATES OF ALL ATOMS ARE (ANGS)
   ATOM   CHARGE       X              Y              Z
 ------------------------------------------------------------
 CL         17.0  -1.3929809142  -0.0071859592  -0.0000037087
 C           6.0   0.3915410804   0.0527479433   0.0000090848
 C           6.0   0.8724781606   1.4669746349   0.0000015459
 F           9.0   0.8222350581  -0.6167264525   1.0629883529
 F           9.0   0.8222246775  -0.6167294241  -1.0629886338
 H           1.0   0.4971495432   1.9595650385   0.8854478256
 H           1.0   1.9549281316   1.4703155949  -0.0000042107
 H           1.0   0.4971261524   1.9595640587  -0.8854362154


                     --------------------
                     INTERNAL COORDINATES
                     --------------------

                 - - ATOMS - -         COORDINATE      COORDINATE
 NO.   TYPE    I  J  K  L  M  N        (BOHR,RAD)       (ANG,DEG)
 ----------------------------------------------------------------
   1 STRETCH   1  2                     3.3741590       1.7855282
   2 STRETCH   2  4                     2.5095804       1.3280129
   3 STRETCH   2  5                     2.5096048       1.3280258
   4 STRETCH   2  3                     2.8228089       1.4937663
   5 STRETCH   3  7                     2.0455436       1.0824551
   6 STRETCH   3  8                     2.0418955       1.0805246
   7 STRETCH   3  6                     2.0418942       1.0805239
   8 BEND      1  2  5                  1.8830392     107.8901969
   9 BEND      1  2  4                  1.8830626     107.8915421
  10 BEND      1  2  3                  1.9321710     110.7052441
  11 BEND      2  3  7                  1.9016847     108.9585066
  12 BEND      2  3  8                  1.8962791     108.6487883
  13 BEND      2  3  6                  1.8962788     108.6487740
  14 BEND      3  2  5                  1.9528793     111.8917437
  15 BEND      3  2  4                  1.9528869     111.8921801
  16 BEND      4  2  5                  1.8560294     106.3426538
  17 BEND      6  3  8                  1.9209221     110.0607313
  18 BEND      6  3  7                  1.9240513     110.2400195
  19 BEND      7  3  8                  1.9240649     110.2407957
  20 TORSION   1  2  3  6               1.0449017      59.8684600
  21 TORSION   1  2  3  8              -1.0448583     -59.8659698
  22 TORSION   1  2  3  7              -3.1415792    -179.9992290
  23 TORSION   4  2  3  6              -1.0562474     -60.5185160
  24 TORSION   4  2  3  7               1.0404570      59.6137950
  25 TORSION   4  2  3  8               3.1371779     179.7470542
  26 TORSION   5  2  3  6              -3.1371694    -179.7465676
  27 TORSION   5  2  3  7              -1.0404651     -59.6142567
  28 TORSION   5  2  3  8               1.0562559      60.5190025

          INTERNUCLEAR DISTANCES (ANGS.)


 =====================================================
   GAMESS/COSab RESULTS
 =====================================================

   Dielectric Constant                  = INFTY
   Basic Grid Size                      =                 1082
   Number of Segments                   =                   92
   Number of Segments located on spheres=                  198
   Number of Segments of the cavity     =                  318
   Solvent Radius (rsolv)               = 1.40
   Outlying Charge Error Method         = double cavity

 =====================================================

  Total solvated Energy (a.u.)          =  -735.9546820373
  Total Energy corrected (a.u.)         =  -735.9545194723

  Outlying charge effect (a.u.)         =     0.0001625650
  Outlying charge effect (kcal/mol)     =     0.1020111821

  Dielectric Energy (a.u.)              =    -0.0060317017
  Dielectric energy corr. (a.u.)        =    -0.0058691367

  Sum of polarization charges           =     0.0120982332
  Sum of polarization charges(cor.)     =    -0.0120982332

  Total surface area of cavity (A**2)   =  109.92
  Total volume of cavity (A**3)         =   97.09

 =====================================================
 NPS=                   318
NR.  ATOM  (X, Y, Z)(a.u.)                  CHARGE(e)  AREA(A**2) SIGMA(e/A**2)
   1   1  -6.505001  -0.067350  -0.083976  -0.003090   0.536887  -0.005755
   2   1  -4.390650  -1.012939  -3.304113   0.001923   0.439271   0.004377
   3   1  -4.500270   2.683534  -2.060066   0.001876   0.439271   0.004271
   4   1  -4.559591   2.688546   1.997885   0.001836   0.439271   0.004180
   5   1  -4.465984  -1.061627   3.247564   0.002027   0.488079   0.004153
   6   1  -4.194827  -3.558063  -0.052270   0.002211   0.439271   0.005033
   7   1  -6.202361  -0.653461  -1.361247  -0.002162   0.585695  -0.003691
   8   1  -5.416877  -0.886860  -2.547795   0.000324   0.536887   0.000603
   9   1  -6.240628   1.004305  -0.975515  -0.002257   0.585695  -0.003854
  10   1  -5.520670   1.931975  -1.697006   0.000210   0.488079   0.000431
  11   1  -6.270093   1.082652   0.756592  -0.002347   0.585695  -0.004008
  12   1  -5.570686   1.888007   1.660558   0.000120   0.536887   0.000223
  13   1  -6.269320  -0.431422   1.266960  -0.002254   0.536887  -0.004198
  14   1  -5.586760  -0.886820   2.348663  -0.000034   0.488079  -0.000069
  15   1  -6.207609  -1.500098   0.123165  -0.002584   0.683311  -0.003782
  16   1  -5.417180  -2.706105   0.049364   0.000502   0.585695   0.000857
  17   1  -4.645921   0.279936  -3.296493   0.001801   0.488079   0.003691
  18   1  -4.687480   1.603674  -2.858039   0.002073   0.536887   0.003861
  19   1  -4.915811   3.009008  -0.810640   0.001554   0.488079   0.003184
  20   1  -4.829670   3.103817   0.678928   0.001921   0.536887   0.003578
  21   1  -4.649181   1.602606   2.885759   0.002272   0.585695   0.003879
  22   1  -4.707402   0.171840   3.266045   0.001885   0.536887   0.003511
  23   1  -4.557025  -2.174622   2.575431   0.002160   0.536887   0.004023
  24   1  -4.504378  -3.143746   1.305737   0.002546   0.585695   0.004347
  25   1  -4.516762  -3.175320  -1.208241   0.002833   0.634503   0.004465
  26   1  -4.577627  -2.241216  -2.502203   0.002590   0.634503   0.004081
  27   1  -3.591307  -0.119870  -3.751882   0.001808   0.341655   0.005291
  28   1  -2.562617   0.487514  -3.840776   0.001549   0.390463   0.003966
  29   1  -2.569609   1.512482  -3.560154   0.001340   0.341655   0.003921
  30   1  -3.517782   2.354506  -2.935240   0.002793   0.488079   0.005722
  31   1  -3.720180   3.380168  -1.518717   0.002742   0.488079   0.005618
  32   1  -3.791026   3.397618   1.424254   0.002455   0.439271   0.005590
  33   1  -3.507643   2.456701   2.852866   0.003028   0.536887   0.005641
  34   1  -2.624545   1.532069   3.552207   0.001622   0.390463   0.004154
  35   1  -2.581034   0.421288   3.849094   0.000985   0.244040   0.004037
  36   1  -3.291621  -0.467757   3.790298   0.002989   0.536887   0.005567
  37   1  -3.205941  -1.943163   3.309835   0.003506   0.634503   0.005526
  38   1  -2.431925  -3.599129   1.452949   0.001319   0.341655   0.003860
  39   1  -3.208236  -3.777042   0.715628   0.003207   0.536887   0.005972
  40   1  -3.061998  -3.798161  -0.706974   0.002622   0.439271   0.005969
  41   1  -2.647207  -3.578392  -1.516372   0.001556   0.292848   0.005312
  42   1  -2.900031  -2.699214  -2.779070   0.001520   0.292848   0.005189
  43   1  -3.380214  -1.743039  -3.384847   0.002575   0.439271   0.005862
  44   1  -5.703168   0.543944  -2.294926  -0.000338   0.585695  -0.000577
  45   1  -5.797903   2.219394  -0.021287  -0.000586   0.683311  -0.000857
  46   1  -5.721161   0.538402   2.271972  -0.000484   0.585695  -0.000826
  47   1  -5.556225  -2.043144   1.529436   0.000080   0.634503   0.000126
  48   1  -5.615422  -2.045793  -1.406710  -0.000175   0.585695  -0.000299
  49   1  -3.651849   1.083351  -3.572794   0.001821   0.341655   0.005330
  50   1  -3.760647   3.691576  -0.078201   0.002923   0.536887   0.005444
  51   1  -3.652789   0.924818   3.617372   0.002374   0.439271   0.005405
  52   1  -3.350925  -3.090004   2.242012   0.003475   0.585695   0.005934
  53   1  -3.503201  -3.090518  -2.186679   0.002480   0.439271   0.005645
  54   1  -1.992550  -3.833973   0.051907   0.000947   0.390463   0.002425
  55   1  -2.811765  -0.790894  -3.790926   0.001514   0.341655   0.004431
  56   3   4.065400   4.963537  -1.908374  -0.000175   0.325193  -0.000538
  57   3   4.118616   5.217791   1.484227  -0.000404   0.371649  -0.001086
  58   3   1.202191   6.504763  -0.390651  -0.000441   0.325193  -0.001356
  59   3   3.850621   2.772441  -3.071795  -0.000069   0.185824  -0.000371
  60   3   3.657960   3.698836  -3.064071   0.000069   0.371649   0.000187
  61   3   0.520883   6.322174   0.640075  -0.000506   0.371649  -0.001360
  62   3   3.296516   5.145968   2.436024  -0.000272   0.371649  -0.000732
  63   3   2.856687   2.969161   3.575803  -0.000547   0.232280  -0.002356
  64   3   4.190502   4.125264  -2.448019  -0.000070   0.232280  -0.000300
  65   3   3.319784   4.865061  -2.666765  -0.000256   0.325193  -0.000786
  66   3   3.614791   2.826061   3.227389   0.000095   0.232280   0.000410
  67   3   4.044214   4.355539   2.457425   0.000063   0.325193   0.000194
  68   3   3.060810   5.982518   1.408547  -0.000664   0.464561  -0.001428
  69   3   1.985910   6.516037   0.392491  -0.000812   0.464561  -0.001747
  70   3  -0.259679   6.029642  -0.176311   0.000021   0.371649   0.000057
  71   3  -1.150599   5.308247   0.127652  -0.000026   0.232280  -0.000112
  72   3   4.350306   2.429553   2.620771  -0.000370   0.139368  -0.002653
  73   3   3.873563   5.789254   0.481285  -0.000732   0.418105  -0.001752
  74   3   4.096836   5.511459  -0.887338  -0.000581   0.325193  -0.001787
  75   3   3.044431   5.833414  -1.721937  -0.000563   0.511017  -0.001102
  76   3   2.062857   6.374453  -1.065982  -0.000848   0.418105  -0.002029
  77   3   0.453207   6.299169  -0.644392  -0.000093   0.185824  -0.000501
  78   3   4.266646   2.660585  -2.723660  -0.000311   0.139368  -0.002232
  79   3   2.920982   3.121009  -3.541739  -0.000427   0.278737  -0.001532
  80   3   1.999538   6.284740   1.350216  -0.000686   0.278737  -0.002459
  81   3   3.452092   3.843150   3.144078  -0.000124   0.232280  -0.000534
  82   3  -0.930177   5.437379   0.728102  -0.000443   0.185824  -0.002382
  83   3   4.176552   3.313294   2.757107  -0.000220   0.232280  -0.000949
  84   3   3.185106   6.208963  -0.335103  -0.001022   0.511017  -0.002001
  85   3  -1.004286   5.385545  -0.644972  -0.000190   0.232280  -0.000819
  86   4   2.580042  -2.731599   4.665568   0.001047   0.377948   0.002771
  87   4  -0.402867  -2.032613   4.455018   0.001266   0.206154   0.006140
  88   4   1.832940   0.458368   4.810543   0.001637   0.274871   0.005957
  89   4   4.492813  -0.477453   3.214356   0.001756   0.309230   0.005679
  90   4   3.988540  -3.301054   1.733470   0.001718   0.309230   0.005556
  91   4   0.709201  -4.293411   2.267848   0.001280   0.240512   0.005323
  92   4   1.388697  -2.728401   4.853858   0.001473   0.412307   0.003573
  93   4   0.317566  -2.287299   4.797642   0.001693   0.343589   0.004928
  94   4   2.307294  -1.669960   5.130037   0.001459   0.412307   0.003538
  95   4   1.965632  -0.566222   5.176725   0.001666   0.343589   0.004850
  96   4   3.536479  -2.024378   4.436895   0.001408   0.412307   0.003414
  97   4   4.270382  -1.387703   3.779461   0.001786   0.377948   0.004726
  98   4   3.300132  -3.202743   3.842978   0.001257   0.377948   0.003326
  99   4   3.672303  -3.497520   2.807484   0.001569   0.343589   0.004567
 100   4   2.082201  -3.664800   4.018401   0.001681   0.481025   0.003495
 101   4   1.338517  -4.177501   3.211181   0.002017   0.412307   0.004892
 102   4  -0.023544  -1.007749   4.846334   0.001880   0.343589   0.005473
 103   4   0.903906  -0.321932   5.079724   0.001453   0.274871   0.005285
 104   4   2.686360   0.270610   4.695711   0.001724   0.309230   0.005574
 105   4   3.941209  -0.117583   3.949605   0.001724   0.309230   0.005576
 106   4   4.717459  -1.567353   2.636696   0.001808   0.343589   0.005262
 107   4   4.504871  -2.512044   2.214721   0.001659   0.309230   0.005365
 108   4   2.959128  -4.084446   1.745937   0.001648   0.309230   0.005329
 109   4   1.889255  -4.391981   2.212606   0.001851   0.343589   0.005387
 110   4   0.078833  -3.868980   3.048010   0.002546   0.412307   0.006174
 111   4  -0.347737  -2.976816   3.923908   0.001925   0.343589   0.005601
 112   4   0.844350   0.392535   4.771743   0.000888   0.171795   0.005170
 113   4   4.786769  -0.871259   2.169797   0.000984   0.206154   0.004773
 114   4   4.483707  -2.394792   1.323989   0.001224   0.240512   0.005088
 115   4   3.511625  -3.655369   1.279533   0.000864   0.171795   0.005031
 116   4   1.038891  -4.303997   1.338699   0.001304   0.309230   0.004217
 117   4   0.173441  -4.096143   1.743683   0.000692   0.171795   0.004030
 118   4   1.068742  -1.475078   5.207750   0.001927   0.412307   0.004673
 119   4   3.307788  -0.860138   4.728126   0.002177   0.481025   0.004525
 120   4   4.210380  -2.534398   3.286704   0.001815   0.412307   0.004403
 121   4   2.719540  -4.062378   2.910668   0.001721   0.377948   0.004555
 122   4   0.650316  -3.459566   4.126636   0.001912   0.412307   0.004637
 123   4   0.024276   0.045349   4.608615   0.001164   0.240512   0.004841
 124   4   3.327197   0.448195   4.203267   0.001174   0.206154   0.005693
 125   4   4.707695  -1.471887   1.285160   0.000775   0.274871   0.002821
 126   4   2.172805  -4.260122   1.231324   0.001313   0.240512   0.005457
 127   5   2.553562  -2.748606  -4.665568   0.001051   0.377948   0.002782
 128   5   3.158511   0.362866  -4.386517   0.001543   0.274871   0.005614
 129   5  -0.078051  -0.703230  -4.781503   0.001666   0.309230   0.005389
 130   5  -0.232783  -3.606569  -3.197757   0.001544   0.274871   0.005617
 131   5   2.487879  -4.266458  -1.733477   0.001651   0.309230   0.005340
 132   5   4.750429  -1.693579  -2.267849   0.001207   0.240512   0.005019
 133   5   3.044535  -1.663130  -4.853854   0.001433   0.412307   0.003475
 134   5   3.087172  -0.505513  -4.797633   0.001638   0.343589   0.004767
 135   5   1.700516  -2.060282  -5.130031   0.001466   0.412307   0.003556
 136   5   0.837730  -1.291797  -5.176711   0.001700   0.343589   0.004947
 137   5   1.513474  -3.325799  -4.436895   0.001466   0.412307   0.003555
 138   5   0.629840  -3.729730  -3.779459   0.001889   0.377948   0.004997
 139   5   2.683794  -3.599225  -3.842983   0.001274   0.377948   0.003370
 140   5   2.797763  -4.060117  -2.807491   0.001597   0.343589   0.004647
 141   5   3.609182  -2.682432  -4.018404   0.001613   0.481025   0.003353
 142   5   4.384056  -2.218213  -3.211184   0.001917   0.412307   0.004651
 143   5   2.011502   0.263742  -4.891907   0.001531   0.274871   0.005570
 144   5   1.055572  -0.224330  -5.079706   0.001451   0.274871   0.005277
 145   5  -0.271620  -1.687434  -4.646951   0.002134   0.377948   0.005647
 146   5  -0.355920  -2.846741  -4.031356   0.001822   0.309230   0.005892
 147   5   0.612059  -4.196704  -2.708213   0.001664   0.309230   0.005382
 148   5   1.555810  -4.409235  -2.214726   0.001704   0.309230   0.005511
 149   5   3.627536  -3.654435  -1.745944   0.001703   0.309230   0.005506
 150   5   4.439611  -2.660776  -2.032711   0.001847   0.343589   0.005375
 151   5   4.629749  -0.961607  -3.039043   0.002200   0.377948   0.005822
 152   5   3.900726  -0.088200  -3.982591   0.001750   0.309230   0.005661
 153   5   2.293181   0.768266  -4.514489   0.000865   0.171795   0.005036
 154   5   0.200576   0.156585  -4.651809   0.001052   0.240512   0.004373
 155   5   0.125678  -4.084363  -2.079862   0.001018   0.206154   0.004938
 156   5   1.457886  -4.341371  -1.323993   0.001157   0.240512   0.004812
 157   5   3.008025  -3.979343  -1.279541   0.000970   0.171795   0.005646
 158   5   4.662426  -1.741318  -1.254228   0.001211   0.309230   0.003915
 159   5   4.795797  -0.934890  -1.980473   0.000917   0.206154   0.004446
 160   5   2.036624  -0.852382  -5.207738   0.001930   0.412307   0.004681
 161   5   0.548796  -2.635035  -4.728119   0.002207   0.481025   0.004588
 162   5   1.698234  -4.150504  -3.286708   0.001907   0.412307   0.004625
 163   5   3.776131  -3.385018  -2.844971   0.002037   0.446666   0.004560
 164   5   4.016018  -1.294303  -4.126633   0.001837   0.412307   0.004455
 165   5   0.951295   0.544251  -4.706645   0.000891   0.171795   0.005187
 166   5   0.525166  -4.162606  -1.285160   0.000927   0.274871   0.003372
 167   5   4.113386  -3.011694  -1.231331   0.001074   0.240512   0.004464
 168   5   4.322183  -0.126873  -3.358551   0.001077   0.206154   0.005222
 169   6   0.346281   5.085203   3.615625  -0.004602   0.471065  -0.009769
 170   6  -0.986556   5.129927   2.211266  -0.002488   0.294415  -0.008450
 171   6   0.455707   6.024502   2.315029  -0.002650   0.392554  -0.006750
 172   6   2.012066   4.997512   3.464619  -0.001948   0.314043  -0.006204
 173   6   1.447778   3.617999   4.075224  -0.002500   0.294415  -0.008491
 174   6  -0.712852   4.491734   3.311184  -0.004098   0.431809  -0.009491
 175   6  -0.357538   5.630903   2.470856  -0.002842   0.372926  -0.007622
 176   6   1.362360   5.746466   2.969663  -0.003390   0.451437  -0.007509
 177   6   1.537171   4.456830   3.933704  -0.002967   0.372926  -0.007957
 178   6   0.149824   3.700049   3.999512  -0.005654   0.549575  -0.010288
 179   7   6.149619   2.857683   0.012082  -0.005760   0.588831  -0.009783
 180   7   5.336105   3.550340  -1.656439  -0.001824   0.294415  -0.006196
 181   7   5.719553   1.870211  -1.052825  -0.002595   0.294415  -0.008816
 182   7   5.731086   1.647222   0.778944  -0.002894   0.333671  -0.008673
 183   7   5.443871   3.425513   1.598547  -0.002528   0.372926  -0.006778
 184   7   5.382388   4.562844  -0.038165  -0.002448   0.372926  -0.006565
 185   7   5.559801   2.607076  -1.589210  -0.003268   0.412182  -0.007929
 186   7   5.825636   1.568990  -0.171912  -0.003481   0.353299  -0.009852
 187   7   5.593701   2.394545   1.509921  -0.003849   0.451437  -0.008527
 188   7   5.617337   4.055015   0.841074  -0.003576   0.471065  -0.007591
 189   7   5.689591   3.951755  -0.822980  -0.003725   0.471065  -0.007908
 190   8   0.236637   5.053519  -3.601275  -0.004765   0.490692  -0.009711
 191   8   1.672593   3.810372  -4.015452  -0.002754   0.353299  -0.007795
 192   8   1.696522   5.625577  -3.002033  -0.002369   0.353299  -0.006706
 193   8  -0.276564   5.798498  -2.080063  -0.002621   0.392554  -0.006678
 194   8   0.456845   3.678509  -4.081876  -0.004973   0.490692  -0.010134
 195   8   1.647729   4.858035  -3.722461  -0.003714   0.490692  -0.007570
 196   8   0.699793   5.933601  -2.674351  -0.003597   0.471065  -0.007636
 197   8  -0.891883   5.069679  -2.575280  -0.004349   0.490692  -0.008863
 198   8  -0.536429   4.111449  -3.594201  -0.004059   0.412182  -0.009847
 199   1  -2.283968   3.951064   1.089062  -0.000135   0.072640  -0.001862
 200   3  -1.583537   4.494930   1.105878  -0.000432   0.072640  -0.005947
 201   6  -1.489030   4.527717   1.390970  -0.000488   0.072640  -0.006718
 202   1  -2.283991   3.951100  -1.088952  -0.000086   0.072642  -0.001186
 203   3  -1.583558   4.494965  -1.105756  -0.000392   0.072642  -0.005396
 204   8  -1.489065   4.527749  -1.390857  -0.000489   0.072642  -0.006728
 205   3  -1.719165   4.571804  -0.198410  -0.001179   0.582407  -0.002025
 206   1  -2.793370   3.901541   0.197608   0.001170   0.591884   0.001977
 207   1  -0.754785  -3.591167   0.000001  -0.001853   0.172256  -0.010756
 208   4   0.009982  -3.712552   0.383869  -0.001694   0.172256  -0.009837
 209   5   0.009979  -3.712552  -0.383859  -0.001615   0.172256  -0.009375
 210   1  -1.074993   1.406090   3.464578  -0.002368   0.239398  -0.009892
 211   4  -0.295564   1.146475   3.745407  -0.002191   0.239398  -0.009152
 212   6  -0.336947   2.129507   3.522286  -0.003262   0.239398  -0.013624
 213   4  -0.490429   0.394738   4.167117  -0.000038   0.275452  -0.000136
 214   4  -0.909190  -1.133620   4.163404   0.001950   0.555510   0.003510
 215   4  -0.953177  -2.846975   3.272613   0.002275   0.555510   0.004096
 216   4  -0.422380  -3.749085   1.649196   0.000319   0.555510   0.000574
 217   1  -1.797662   0.144569   3.835012   0.000014   0.616271   0.000023
 218   1  -2.156062  -1.821780   3.454363   0.001587   0.616271   0.002574
 219   1  -1.885468  -3.275591   2.056836   0.000937   0.616271   0.001520
 220   1  -1.305688  -3.752637   0.575081  -0.000564   0.310313  -0.001818
 221   1  -1.074986   1.406088  -3.464602  -0.002332   0.239394  -0.009741
 222   5  -0.295559   1.146473  -3.745420  -0.002219   0.239394  -0.009267
 223   8  -0.336957   2.129503  -3.522297  -0.003261   0.239394  -0.013623
 224   5  -0.196034  -3.882989  -1.100716  -0.000369   0.275451  -0.001339
 225   5  -0.750946  -3.432923  -2.515205   0.001655   0.555508   0.002979
 226   5  -1.007825  -2.052767  -3.841940   0.002302   0.555508   0.004143
 227   5  -0.667579  -0.186034  -4.203308   0.000599   0.555508   0.001078
 228   1  -1.539359  -3.608637  -1.144618  -0.000348   0.616268  -0.000564
 229   1  -2.098474  -2.658391  -2.854681   0.001622   0.616268   0.002633
 230   1  -2.052134  -0.853600  -3.793017   0.000964   0.616268   0.001565
 231   1  -1.615483   0.749079  -3.802065  -0.000403   0.310312  -0.001299
 232   6  -1.495383   4.530733   1.868126  -0.001364   0.234721  -0.005813
 233   6  -1.237227   3.813310   2.910587  -0.004280   0.473266  -0.009043
 234   6  -0.605652   2.905806   3.578131  -0.002127   0.234721  -0.009064
 235   1  -2.675724   3.476148   1.989640   0.001091   0.675166   0.001616
 236   1  -2.029902   2.296675   3.230868  -0.000395   0.675166  -0.000585
 237   8  -0.605676   2.905807  -3.578135  -0.002078   0.234728  -0.008853
 238   8  -1.237280   3.813338  -2.910552  -0.004297   0.473282  -0.009079
 239   8  -1.495431   4.530767  -1.868029  -0.001315   0.234728  -0.005603
 240   1  -2.029919   2.296694  -3.230873  -0.000368   0.675186  -0.000545
 241   1  -2.675758   3.476189  -1.989573   0.001061   0.675186   0.001572
 242   3   2.150737   2.441998   3.761801  -0.000473   0.055829  -0.008479
 243   4   2.094905   1.672166   3.965582  -0.000254   0.055829  -0.004556
 244   6   1.937601   2.648712   3.811271  -0.000465   0.055829  -0.008331
 245   3   4.408476   1.688366   2.392173  -0.000471   0.056252  -0.008369
 246   4   4.248208   0.953390   2.659436  -0.000247   0.056252  -0.004394
 247   7   4.618218   1.752775   2.184711  -0.000470   0.056252  -0.008351
 248   4   3.906856   0.773247   3.331970   0.000723   0.320768   0.002253
 249   4   2.684513   1.180917   4.073317   0.000668   0.320768   0.002084
 250   3   3.367996   2.020517   3.248082  -0.002529   0.703208  -0.003596
 251   3   4.408435   1.688390  -2.392216  -0.000473   0.056253  -0.008411
 252   5   4.248168   0.953412  -2.659477  -0.000261   0.056253  -0.004636
 253   7   4.618181   1.752796  -2.184757  -0.000558   0.056253  -0.009912
 254   3   2.150663   2.442007  -3.761797  -0.000491   0.055830  -0.008800
 255   5   2.094832   1.672175  -3.965578  -0.000259   0.055830  -0.004644
 256   8   1.937518   2.648719  -3.811264  -0.000477   0.055830  -0.008537
 257   5   2.684444   1.180931  -4.073325   0.000628   0.320767   0.001959
 258   5   3.906803   0.773269  -3.332005   0.000650   0.320767   0.002026
 259   3   3.367936   2.020535  -3.248103  -0.002528   0.703207  -0.003594
 260   6   2.070029   3.330789   3.819079  -0.000577   0.071495  -0.008068
 261   6   2.452170   4.347916   3.415202  -0.001161   0.160566  -0.007228
 262   6   2.183195   5.495360   2.662831  -0.001343   0.160566  -0.008361
 263   6   1.161277   6.076871   1.906148  -0.001374   0.160566  -0.008560
 264   6  -0.149824   5.828551   1.488546  -0.001171   0.160566  -0.007295
 265   6  -1.061532   5.112769   1.500302  -0.000547   0.071495  -0.007655
 266   3   2.577105   3.505138   3.533472  -0.001098   0.154967  -0.007087
 267   3   2.778100   4.900601   2.842332  -0.001073   0.154967  -0.006925
 268   3   2.008306   5.931623   1.942442  -0.001184   0.154967  -0.007637
 269   3   0.617064   6.130314   1.242184  -0.001146   0.154967  -0.007397
 270   3  -0.764262   5.406505   1.059344  -0.001019   0.154967  -0.006573
 271   7   4.886966   2.365471  -2.109454  -0.000559   0.065763  -0.008501
 272   7   4.883688   3.427920  -1.991837  -0.001102   0.144896  -0.007603
 273   7   4.880462   4.475745  -1.231315  -0.001104   0.144896  -0.007619
 274   7   4.879237   4.876032  -0.000011  -0.001119   0.144896  -0.007723
 275   7   4.880484   4.475732   1.231289  -0.001049   0.144896  -0.007241
 276   7   4.883724   3.427899   1.991800  -0.001127   0.144896  -0.007778
 277   7   4.887004   2.365449   2.109406  -0.000506   0.065763  -0.007694
 278   3   4.553539   2.779239  -2.352921  -0.000973   0.145200  -0.006704
 279   3   4.549272   4.163214  -1.904223  -0.000906   0.145200  -0.006241
 280   3   4.546643   5.018755  -0.727457  -0.001038   0.145200  -0.007149
 281   3   4.546656   5.018747   0.727443  -0.001045   0.145200  -0.007195
 282   3   4.549307   4.163194   1.904201  -0.000903   0.145200  -0.006219
 283   3   4.553581   2.779214   2.352884  -0.000946   0.145200  -0.006516
 284   8  -1.061567   5.112795  -1.500193  -0.000496   0.071496  -0.006932
 285   8  -0.149856   5.828559  -1.488485  -0.001339   0.160565  -0.008337
 286   8   1.161219   6.076865  -1.906137  -0.001382   0.160565  -0.008604
 287   8   2.183104   5.495356  -2.662844  -0.001358   0.160565  -0.008455
 288   8   2.452066   4.347921  -3.415214  -0.001235   0.160565  -0.007692
 289   8   2.069935   3.330796  -3.819076  -0.000613   0.071496  -0.008569
 290   3  -0.764275   5.406528  -1.059247  -0.001043   0.154968  -0.006733
 291   3   0.617039   6.130316  -1.242151  -0.001178   0.154968  -0.007599
 292   3   2.008244   5.931618  -1.942452  -0.001223   0.154968  -0.007892
 293   3   2.778009   4.900604  -2.842353  -0.001014   0.154968  -0.006543
 294   3   2.577017   3.505148  -3.533480  -0.001099   0.154968  -0.007090
 295   4   4.507165  -0.633770   0.385027  -0.002387   0.211825  -0.011269
 296   5   4.507164  -0.633769  -0.385034  -0.002418   0.211825  -0.011413
 297   7   4.780121   0.255459  -0.000007  -0.003246   0.211825  -0.015326
 298   5   4.545406  -1.492049  -0.543998  -0.000486   0.256417  -0.001894
 299   5   3.881942  -2.918386  -0.543997   0.001145   0.514425   0.002225
 300   5   2.288097  -3.985711  -0.543994   0.001311   0.514425   0.002548
 301   5   0.716577  -4.056042  -0.543989  -0.000352   0.256417  -0.001375
 302   4   4.329152  -2.054534   0.543993  -0.000079   0.514425  -0.000153
 303   4   3.175353  -3.586941   0.543995   0.001580   0.514425   0.003071
 304   4   1.319036  -4.070272   0.543999   0.000108   0.514425   0.000210
 305   6   0.297971   2.579820   3.926897  -0.002474   0.303138  -0.008162
 306   6   1.479773   2.735605   4.023622  -0.001961   0.303138  -0.006469
 307   4   1.051548   1.254758   4.247258  -0.000538   0.745488  -0.000721
 308   7   4.973160   1.603007   1.954028  -0.001284   0.244834  -0.005243
 309   7   5.206182   0.939148   0.898943  -0.004265   0.492802  -0.008654
 310   4   4.664334   0.143735   2.252123   0.000040   0.603476   0.000066
 311   4   4.812715  -0.543349   1.061249  -0.000613   0.304098  -0.002015
 312   7   5.223400   0.709898  -0.467218  -0.002030   0.244838  -0.008289
 313   7   5.094610   1.337287  -1.561782  -0.003743   0.492811  -0.007594
 314   5   4.786990  -0.294056  -1.523309  -0.000928   0.603487  -0.001538
 315   5   4.540721   0.427288  -2.677158   0.000282   0.304103   0.000927
 316   8   1.479700   2.735609  -4.023611  -0.001972   0.303126  -0.006504
 317   8   0.297945   2.579816  -3.926891  -0.002531   0.303126  -0.008349
 318   5   1.051513   1.254761  -4.247258  -0.000619   0.745458  -0.000830
 =====================================================

              1160264  WORDS OF DYNAMIC MEMORY USED
 EXECUTION OF GAMESS TERMINATED NORMALLY Wed Nov 23 20:53:32 2016
 DDI: 263640 bytes (0.3 MB / 0 MWords) used by master data server.

 ----------------------------------------
 CPU timing information for all processes
 ========================================
 0: 99.232 + 0.64 = 99.296
 ----------------------------------------
 ddikick.x: exited gracefully.
