----- GAMESS execution script -----

          ******************************************************
          *         GAMESS VERSION =  5 DEC 2014 (R1)          *
          *             FROM IOWA STATE UNIVERSITY             *
          * M.W.SCHMIDT, K.K.BALDRIDGE, J.A.BOATZ, S.T.ELBERT, *
          *   M.S.GORDON, J.H.JENSEN, S.KOSEKI, N.MATSUNAGA,   *
          *          K.A.NGUYEN, S.J.SU, T.L.WINDUS,           *
          *       TOGETHER WITH M.DUPUIS, J.A.MONTGOMERY       *
          *         J.COMPUT.CHEM.  14, 1347-1363(1993)        *
          **************** 64 BIT LINUX VERSION ****************

 EXECUTION OF GAMESS BEGUN Wed Nov 23 20:58:47 2016

            ECHO OF THE FIRST FEW INPUT CARDS -
 INPUT CARD>! SELECT RESTRICTED HARTREE-FOCK AS DEFAULT                                     
 INPUT CARD>$contrl scftyp=rhf $end                                                         
 INPUT CARD>                                                                                
 INPUT CARD>! THEORY: HF OR DFT                                                             
 INPUT CARD> $contrl mplevl=0 $end                                                          
 INPUT CARD>                                                                                
 INPUT CARD> $system timlim=10000 mwords=20 $end                                            
 INPUT CARD> $SCF DIRSCF=.TRUE. $end                                                        
 INPUT CARD>                                                                                
 INPUT CARD>                                                                                
 INPUT CARD>! BASIS SETS                                                                    
 INPUT CARD>! 6-311G(d,p)                                                                   
 INPUT CARD> $BASIS GBASIS=N311 NGAUSS=6 NDFUNC=1 NPFUNC=1 $END                             
 INPUT CARD>                                                                                
 INPUT CARD>! One of the following                                                          
 INPUT CARD> $guess guess=HUCKEL $end                                                       
 INPUT CARD>                                                                                
 INPUT CARD> $statpt projct=.FALSE. $end                                                    
 INPUT CARD> $STATPT IFREEZ(1)=1,2,3 $END                                                   
 INPUT CARD>                                                                                
 INPUT CARD>! Optimize the geometry with COSMO effects                                      
 INPUT CARD> $statpt opttol=0.0005 nstep=50 $end                                            
 INPUT CARD> $contrl nzvar=1 $end                                                           
 INPUT CARD> $zmat dlc=.t. auto=.t. $end                                                    
 INPUT CARD> $contrl runtyp=OPTIMIZE maxit=200 $end                                         
 INPUT CARD>                                                                                
 INPUT CARD>! Run COSMO on perfect conductor                                                
 INPUT CARD> $COSGMS PRFCND=.TRUE. $end                                                     
 INPUT CARD>                                                                                
 INPUT CARD>! Specifying RSOLV                                                              
 INPUT CARD> $COSGMS COSRAD = 1.4 $end                                                      
 INPUT CARD>                                                                                
 INPUT CARD>! available memory                                                              
 INPUT CARD> $SYSTEM MWORDS=40 $END                                                         
 INPUT CARD>                                                                                
 INPUT CARD> $DATA                                                                          
 INPUT CARD>Ethyl chloride, ID: C75003                                                      
 INPUT CARD>C1                                                                              
 INPUT CARD>C      6.0      2.3293000000    1.0003000000    1.4208000000                    
 INPUT CARD>C      6.0      1.2962000000    1.9903000000    0.9627000000                    
 INPUT CARD>Cl    17.0      0.0000000000    2.0828000000    2.1825000000                    
 INPUT CARD>H      1.0      2.7761000000    1.2971000000    2.3787000000                    
 INPUT CARD>H      1.0      3.1426000000    0.9129000000    0.6890000000                    
 INPUT CARD>H      1.0      1.8978000000    0.0000000000    1.5572000000                    
 INPUT CARD>H      1.0      0.8412000000    1.6991000000    0.0000000000                    
 INPUT CARD>H      1.0      1.7196000000    3.0017000000    0.8345000000                    
 INPUT CARD> $END                                                                           
 INPUT CARD>                                                                                
 INPUT CARD>                                                                                
   40000000 WORDS OF MEMORY AVAILABLE

     BASIS OPTIONS
     -------------
     GBASIS=N311         IGAUSS=       6      POLAR=POPN311 
     NDFUNC=       1     NFFUNC=       0     DIFFSP=       F
     NPFUNC=       1      DIFFS=       F     BASNAM=        


     RUN TITLE
     ---------
 Ethyl chloride, ID: C75003                                                      

 THE POINT GROUP OF THE MOLECULE IS C1      
 THE ORDER OF THE PRINCIPAL AXIS IS     0

 ATOM      ATOMIC                      COORDINATES (BOHR)
           CHARGE         X                   Y                   Z
 C           6.0     4.4017387432        1.8902929055        2.6849226834
 C           6.0     2.4494628253        3.7611216334        1.8192392084
 CL         17.0     0.0000000000        3.9359212872        4.1243269682
 H           1.0     5.2460683145        2.4511635787        4.4950912070
 H           1.0     5.9386528890        1.7251308542        1.3020212055
 H           1.0     3.5863219795        0.0000000000        2.9426813081
 H           1.0     1.5896375009        3.2108334257        0.0000000000
 H           1.0     3.2495728085        5.6723904973        1.5769763368

          INTERNUCLEAR DISTANCES (ANGS.)




     $CONTRL OPTIONS
     ---------------
 SCFTYP=RHF          RUNTYP=OPTIMIZE     EXETYP=RUN     
 MPLEVL=       0     CITYP =NONE         CCTYP =NONE         VBTYP =NONE    
 DFTTYP=NONE         TDDFT =NONE    
 MULT  =       1     ICHARG=       0     NZVAR =       1     COORD =UNIQUE  
 PP    =NONE         RELWFN=NONE         LOCAL =NONE         NUMGRD=       F
 ISPHER=      -1     NOSYM =       0     MAXIT =     200     UNITS =ANGS    
 PLTORB=       F     MOLPLT=       F     AIMPAC=       F     FRIEND=        
 NPRINT=       7     IREST =       0     GEOM  =INPUT   
 NORMF =       0     NORMP =       0     ITOL  =      20     ICUT  =       9
 INTTYP=BEST         GRDTYP=BEST         QMTTOL= 1.0E-06

     $SYSTEM OPTIONS
     ---------------
  REPLICATED MEMORY=    40000000 WORDS (ON EVERY NODE).
 DISTRIBUTED MEMDDI=           0 MILLION WORDS IN AGGREGATE,
 MEMDDI DISTRIBUTED OVER   1 PROCESSORS IS           0 WORDS/PROCESSOR.
 TOTAL MEMORY REQUESTED ON EACH PROCESSOR=    40000000 WORDS.
 TIMLIM=       10000.00 MINUTES, OR       6.9 DAYS.
 PARALL= F  BALTYP=  DLB     KDIAG=    0  COREFL= F
 MXSEQ2=     300 MXSEQ3=     150  mem10=         0

     $COSGMS OPTIONS
     ---------------
     EPSI  =   INFTY     NSPA  =      92     COSRAD=    1.40
     DISEX =   10.00     OUTCHG=DBLCAV       COSBUG=       F
     COSWRT=       F     DCOSMO=       F

     SYMMETRY COORDINATES WILL NOT BE USED FOR 
     THE COSMO CALCULATION, EVEN IF SPECIFIED:
         -- SWITCHING TO C1 POINT GROUP --


     DEFINITION OF CAVITY
     ---------------------------
     ATOM         COORDINATES           RADIUS 
     1    4.4017    1.8903    2.6849    2.0000
     2    2.4495    3.7611    1.8192    2.0000
     3    0.0000    3.9359    4.1243    2.0500
     4    5.2461    2.4512    4.4951    1.3000
     5    5.9387    1.7251    1.3020    1.3000
     6    3.5863    0.0000    2.9427    1.3000
     7    1.5896    3.2108    0.0000    1.3000
     8    3.2496    5.6724    1.5770    1.3000

          ----------------
          PROPERTIES INPUT
          ----------------

     MOMENTS            FIELD           POTENTIAL          DENSITY
 IEMOM =       1   IEFLD =       0   IEPOT =       0   IEDEN =       0
 WHERE =COMASS     WHERE =NUCLEI     WHERE =NUCLEI     WHERE =NUCLEI  
 OUTPUT=BOTH       OUTPUT=BOTH       OUTPUT=BOTH       OUTPUT=BOTH    
 IEMINT=       0   IEFINT=       0                     IEDINT=       0
                                                       MORB  =       0
          EXTRAPOLATION IN EFFECT
          SOSCF IN EFFECT
 ORBITAL PRINTING OPTION: NPREO=     1    95     2     1

     -------------------------------
     INTEGRAL TRANSFORMATION OPTIONS
     -------------------------------
     NWORD  =            0
     CUTOFF = 1.0E-09     MPTRAN =       0
     DIRTRF =       T     AOINTS =DUP     

          ----------------------
          INTEGRAL INPUT OPTIONS
          ----------------------
 NOPK  =       1 NORDER=       0 SCHWRZ=       T


 -----------------------------------------------
  STATISTICS ON AUTOMATIC COORDINATE GENERATION 
 -----------------------------------------------
  NUMBER OF USER SPECIFIED BONDS                             0
  NUMBER OF BONDS                                            7
  NUMBER OF ANGLES                                          12
  NUMBER OF TORSIONS                                         9
  NUMBER OF EXTRA COORD.                                     0
  NUMBER OF EXTRA COORD. FOR CONSTRAINTS                     0
  NUMBER OF CONSTRAINED COORD.                               0

  TOTAL NUMBER OF PRIMITIVES                                28
 -----------------------------------------------

   --- ENCODED Z MATRIX ---
 COORD  TYPE   I   J   K   L   M   N
    1      1    1   2
    2      1    1   4
    3      1    1   5
    4      1    1   6
    5      1    2   7
    6      1    2   8
    7      1    2   3
    8      2    1   2   8
    9      2    1   2   3
   10      2    1   2   7
   11      2    2   1   6
   12      2    2   1   5
   13      2    2   1   4
   14      2    3   2   8
   15      2    3   2   7
   16      2    4   1   5
   17      2    4   1   6
   18      2    5   1   6
   19      2    7   2   8
   20      3    3   2   1   6
   21      3    3   2   1   5
   22      3    3   2   1   4
   23      3    4   1   2   7
   24      3    4   1   2   8
   25      3    5   1   2   7
   26      3    5   1   2   8
   27      3    6   1   2   8
   28      3    6   1   2   7

          INDEP./SYM. INTERNAL COORDINATES
          --------------------------------
 CRD  1=   0.2584 (  1) -0.1328 (  8)  0.7378 (  9) -0.1329 ( 10)  0.2045 ( 11)
          -0.2108 ( 12)  0.2018 ( 13) -0.2809 ( 14) -0.2809 ( 15) -0.1378 ( 17)
          -0.1062 ( 23)  0.1058 ( 27)
 CRD  2=   0.6167 (  1)  0.3047 (  8)  0.3043 ( 10)  0.4136 ( 12) -0.1280 ( 14)
          -0.1279 ( 15) -0.2217 ( 16) -0.1007 ( 17) -0.2209 ( 18) -0.2843 ( 19)
 CRD  3=   0.4612 (  8) -0.4615 ( 10) -0.4569 ( 11)  0.4597 ( 13) -0.1409 ( 14)
           0.1410 ( 15) -0.1539 ( 16)  0.1551 ( 18) -0.1535 ( 21)
 CRD  4=   0.1355 (  1)  0.1108 (  2) -0.2149 (  3)  0.1130 (  4)  0.1110 (  5)
           0.1111 (  6) -0.1156 (  7)  0.1297 (  8) -0.3008 (  9)  0.1294 ( 10)
           0.3499 ( 11) -0.5628 ( 12)  0.3439 ( 13)  0.1093 ( 14)  0.1094 ( 15)
          -0.3358 ( 17) -0.1714 ( 19)
 CRD  5=  -0.1728 (  2)  0.1716 (  4) -0.1333 (  5)  0.1332 (  6)  0.4072 (  8)
          -0.4073 ( 10)  0.3962 ( 11) -0.3989 ( 13) -0.2754 ( 14)  0.2754 ( 15)
           0.2017 ( 16) -0.2031 ( 18)
 CRD  6=   0.4314 (  5) -0.4307 (  6) -0.2890 ( 14)  0.2894 ( 15)  0.3692 ( 20)
           0.3917 ( 21)  0.3693 ( 22)
 CRD  7=   0.2371 (  2)  0.1871 (  3)  0.2373 (  4) -0.3390 (  5) -0.3398 (  6)
          -0.4481 (  7)  0.2450 (  8)  0.2450 ( 10) -0.1455 ( 11) -0.1790 ( 12)
          -0.1456 ( 13) -0.1788 ( 14) -0.1783 ( 15)  0.1765 ( 16)  0.1494 ( 17)
           0.1765 ( 18) -0.2460 ( 19)
 CRD  8=  -0.2175 (  1) -0.4339 (  2) -0.4474 (  3) -0.4339 (  4) -0.2674 (  5)
          -0.2675 (  6) -0.3065 (  7)  0.1347 ( 11)  0.1271 ( 12)  0.1347 ( 13)
          -0.1380 ( 16) -0.1475 ( 17) -0.1381 ( 18)
 CRD  9=   0.1697 (  2) -0.3682 (  3)  0.1736 (  4)  0.3157 (  5)  0.3157 (  6)
          -0.5230 (  7) -0.1236 ( 14) -0.1236 ( 15)  0.1741 ( 17)  0.2714 ( 19)
          -0.2299 ( 24)  0.1454 ( 25) -0.1442 ( 26)  0.2293 ( 28)
 CRD 10=  -0.5587 (  2)  0.5556 (  4) -0.2889 ( 16)  0.2905 ( 18)  0.2309 ( 21)
           0.2114 ( 25)  0.2118 ( 26)
 CRD 11=   0.2681 (  2) -0.5370 (  3)  0.2717 (  4) -0.1878 (  5) -0.1879 (  6)
           0.3307 (  7) -0.1433 ( 16)  0.2825 ( 17) -0.1413 ( 18) -0.1734 ( 19)
           0.1575 ( 20) -0.1583 ( 22) -0.2633 ( 23) -0.1043 ( 25)  0.1058 ( 26)
           0.2626 ( 27)
 CRD 12=   0.2744 (  5) -0.2745 (  6) -0.2561 ( 20) -0.2446 ( 21) -0.2560 ( 22)
          -0.3278 ( 23) -0.3278 ( 24) -0.3164 ( 25) -0.3164 ( 26) -0.3279 ( 27)
          -0.3279 ( 28)
 CRD 13=  -0.2316 (  2) -0.2466 (  3) -0.2316 (  4)  0.2973 (  5)  0.2972 (  6)
           0.2868 (  7)  0.2505 (  8)  0.1350 (  9)  0.2505 ( 10) -0.2027 ( 11)
          -0.2044 ( 12) -0.2027 ( 13) -0.1950 ( 14) -0.1950 ( 15)  0.2231 ( 16)
           0.2054 ( 17)  0.2229 ( 18) -0.2806 ( 19)
 CRD 14=  -0.2464 (  2)  0.2447 (  4)  0.4256 (  5) -0.4257 (  6)  0.1101 (  8)
          -0.1102 ( 10)  0.2015 ( 14) -0.2014 ( 15)  0.1842 ( 16) -0.1852 ( 18)
          -0.2913 ( 21)  0.2469 ( 23)  0.2470 ( 24)  0.2483 ( 27)  0.2483 ( 28)
 CRD 15=   0.6842 (  1) -0.1970 (  2) -0.1605 (  3) -0.1974 (  4) -0.1484 (  5)
          -0.1481 (  6) -0.1532 (  7) -0.1566 (  8) -0.1565 ( 10) -0.1913 ( 11)
          -0.1978 ( 12) -0.1913 ( 13)  0.1315 ( 14)  0.1316 ( 15)  0.1976 ( 16)
           0.2244 ( 17)  0.1979 ( 18)  0.1644 ( 19)
 CRD 16=   0.1683 (  2) -0.3591 (  3)  0.1718 (  4) -0.1806 (  5) -0.1806 (  6)
           0.3471 (  7) -0.1379 ( 14) -0.1379 ( 15)  0.1418 ( 16) -0.2579 ( 17)
           0.1391 ( 18)  0.2679 ( 19) -0.1844 ( 20)  0.1856 ( 22)  0.3686 ( 23)
           0.1817 ( 25) -0.1842 ( 26) -0.3674 ( 27)
 CRD 17=   0.3003 (  2) -0.2984 (  4)  0.1878 (  5) -0.1879 (  6)  0.1915 (  8)
          -0.1915 ( 10)  0.2055 ( 11) -0.2067 ( 13) -0.2239 ( 16)  0.2252 ( 18)
          -0.2713 ( 20)  0.1532 ( 21) -0.2687 ( 22)  0.3873 ( 25)  0.3871 ( 26)
 CRD 18=   0.1333 (  2) -0.2713 (  3)  0.1357 (  4)  0.1318 (  5)  0.1317 (  6)
          -0.2782 (  7) -0.1131 (  8)  0.1990 (  9) -0.1132 ( 10) -0.1129 ( 11)
           0.2216 ( 12) -0.1108 ( 13)  0.1179 ( 14)  0.1179 ( 15)  0.1031 ( 16)
          -0.2008 ( 17)  0.1013 ( 18) -0.1969 ( 19) -0.2043 ( 20)  0.2053 ( 22)
           0.4133 ( 24) -0.2091 ( 25)  0.2067 ( 26) -0.4121 ( 28)

 THE DETERMINANT OF THE G MATRIX IS 10**(    -6)


                     --------------------
                     INTERNAL COORDINATES
                     --------------------

                 - - ATOMS - -         COORDINATE      COORDINATE
 NO.   TYPE    I  J  K  L  M  N        (BOHR,RAD)       (ANG,DEG)
 ----------------------------------------------------------------
   1 STRETCH   1  2                     2.8391529       1.5024151
   2 STRETCH   1  4                     2.0746514       1.0978583
   3 STRETCH   1  5                     2.0740781       1.0975550
   4 STRETCH   1  6                     2.0747413       1.0979059
   5 STRETCH   2  7                     2.0860844       1.1039084
   6 STRETCH   2  8                     2.0861007       1.1039170
   7 STRETCH   2  3                     3.3680636       1.7823026
   8 BEND      1  2  8                  1.9556138     112.0484172
   9 BEND      1  2  3                  1.9024468     109.0021715
  10 BEND      1  2  7                  1.9557376     112.0555121
  11 BEND      2  1  6                  1.9476400     111.5915541
  12 BEND      2  1  5                  1.9376831     111.0210644
  13 BEND      2  1  4                  1.9473780     111.5765433
  14 BEND      3  2  8                  1.8869013     108.1114785
  15 BEND      3  2  7                  1.8868137     108.1064628
  16 BEND      4  1  5                  1.8772826     107.5603719
  17 BEND      4  1  6                  1.8732478     107.3291942
  18 BEND      5  1  6                  1.8770784     107.5486725
  19 BEND      7  2  8                  1.8739079     107.3670147
  20 TORSION   3  2  1  6               1.0421882      59.7129837
  21 TORSION   3  2  1  5               3.1359747     179.6781151
  22 TORSION   3  2  1  4              -1.0533411     -60.3520020
  23 TORSION   4  1  2  7              -3.1410188    -179.9671210
  24 TORSION   4  1  2  8               1.0343682      59.2649303
  25 TORSION   5  1  2  7               1.0482970      60.0629961
  26 TORSION   5  1  2  8              -1.0595013     -60.7049526
  27 TORSION   6  1  2  8               3.1298975     179.3299160
  28 TORSION   6  1  2  7              -1.0454895     -59.9021353

     ------------------------------------------
     THE POINT GROUP IS C1 , NAXIS= 1, ORDER= 1
     ------------------------------------------

     DIMENSIONS OF THE SYMMETRY SUBSPACES ARE
 A   =   95

 ..... DONE SETTING UP THE RUN .....
 STEP CPU TIME =     0.00 TOTAL CPU TIME =        0.0 (    0.0 MIN)
 TOTAL WALL CLOCK TIME=        0.0 SECONDS, CPU UTILIZATION IS   0.00%


          -----------------------------
          STATIONARY POINT LOCATION RUN
          -----------------------------

 OBTAINING INITIAL HESSIAN, HESS=GUESS   
 DIAGONAL GUESS HESSIAN IN INTERNAL COORDS IS
     1  0.3874     2  0.3411     3  0.3413     4  0.3411     5  0.3371
     6  0.3371     7  0.3448     8  0.2249     9  0.2573    10  0.2249
    11  0.2253    12  0.2253    13  0.2253    14  0.2290    15  0.2290
    16  0.2026    17  0.2026    18  0.2026    19  0.2020    20  0.2500
    21  0.2500    22  0.2500    23  0.2500    24  0.2500    25  0.2500
    26  0.2500    27  0.2500    28  0.2500
 TRANSFORMING HESSIAN TO SYMMETRY COORDINATES

          PARAMETERS CONTROLLING GEOMETRY SEARCH ARE
          METHOD =QA                  UPHESS =BFGS    
          NNEG   =         0          NFRZ   =         3
          NSTEP  =        50          IFOLOW =         1
          HESS   =GUESS               RESTAR =         F
          IHREP  =         0          HSSEND =         F
          NPRT   =         0          NPUN   =         0
          OPTTOL = 5.000E-04          RMIN   = 1.500E-03
          RMAX   = 1.000E-01          RLIM   = 7.000E-02
          DXMAX  = 3.000E-01          PURIFY =         F
          MOVIE  =         F          TRUPD  =         T
          TRMAX  = 5.000E-01          TRMIN  = 5.000E-02
          ITBMAT =         5          STPT   =         F
          STSTEP = 1.000E-02          PROJCT=          F
          FROZEN COORD(S)=   1   2   3


      ***** EQUILIBRIUM GEOMETRY LOCATED *****
            (SUBJECT TO   3 CONSTRAINT(S))
 COORDINATES OF ALL ATOMS ARE (ANGS)
   ATOM   CHARGE       X              Y              Z
 ------------------------------------------------------------
 C           6.0   2.3492495470   0.9901587490   1.4156899288
 C           6.0   1.3186089905   1.9881731502   0.9421223937
 CL         17.0  -0.0137767794   2.0866438352   2.1910937350
 H           1.0   2.7666600560   1.3091801084   2.3634857431
 H           1.0   3.1507965718   0.9090812120   0.6882425212
 H           1.0   1.8915830331   0.0161935149   1.5431318229
 H           1.0   0.8356034038   1.6988065723   0.0223635012
 H           1.0   1.7063187137   2.9902419025   0.8498554214


                     --------------------
                     INTERNAL COORDINATES
                     --------------------

                 - - ATOMS - -         COORDINATE      COORDINATE
 NO.   TYPE    I  J  K  L  M  N        (BOHR,RAD)       (ANG,DEG)
 ----------------------------------------------------------------
   1 STRETCH   1  2                     2.8549994       1.5108008
   2 STRETCH   1  4                     2.0478240       1.0836619
   3 STRETCH   1  5                     2.0512285       1.0854635
   4 STRETCH   1  6                     2.0478112       1.0836551
   5 STRETCH   2  7                     2.0379132       1.0784173
   6 STRETCH   2  8                     2.0379044       1.0784126
   7 STRETCH   2  3                     3.4561212       1.8289007
   8 BEND      1  2  8                  1.9772811     113.2898630
   9 BEND      1  2  3                  1.8949296     108.5714676
  10 BEND      1  2  7                  1.9775444     113.3049480
  11 BEND      2  1  6                  1.9203452     110.0276772
  12 BEND      2  1  5                  1.9209283     110.0610847
  13 BEND      2  1  4                  1.9203193     110.0261910
  14 BEND      3  2  8                  1.8445157     105.6829654
  15 BEND      3  2  7                  1.8448060     105.6995984
  16 BEND      4  1  5                  1.9004361     108.8869665
  17 BEND      4  1  6                  1.9011859     108.9299304
  18 BEND      5  1  6                  1.9002755     108.8777654
  19 BEND      7  2  8                  1.9149305     109.7174346
  20 TORSION   3  2  1  6               1.0428201      59.7491879
  21 TORSION   3  2  1  5               3.1369069     179.7315284
  22 TORSION   3  2  1  4              -1.0520091     -60.2756810
  23 TORSION   4  1  2  7              -3.0957939    -177.3759259
  24 TORSION   4  1  2  8               0.9912578      56.7948912
  25 TORSION   5  1  2  7               1.0931221      62.6312835
  26 TORSION   5  1  2  8              -1.1030114     -63.1978995
  27 TORSION   6  1  2  8               3.0860870     176.8197601
  28 TORSION   6  1  2  7              -1.0009648     -57.3510570

          INTERNUCLEAR DISTANCES (ANGS.)


 =====================================================
   GAMESS/COSab RESULTS
 =====================================================

   Dielectric Constant                  = INFTY
   Basic Grid Size                      =                 1082
   Number of Segments                   =                   92
   Number of Segments located on spheres=                  166
   Number of Segments of the cavity     =                  334
   Solvent Radius (rsolv)               = 1.40
   Outlying Charge Error Method         = double cavity

 =====================================================

  Total solvated Energy (a.u.)          =  -538.1871393054
  Total Energy corrected (a.u.)         =  -538.1872507313

  Outlying charge effect (a.u.)         =    -0.0001114259
  Outlying charge effect (kcal/mol)     =    -0.0699208842

  Dielectric Energy (a.u.)              =    -0.0074026678
  Dielectric energy corr. (a.u.)        =    -0.0075140937

  Sum of polarization charges           =     0.0194429274
  Sum of polarization charges(cor.)     =    -0.0194429274

  Total surface area of cavity (A**2)   =   97.23
  Total volume of cavity (A**3)         =   81.39

 =====================================================
 NPS=                   334
NR.  ATOM  (X, Y, Z)(a.u.)                  CHARGE(e)  AREA(A**2) SIGMA(e/A**2)
   1   1   3.622578  -0.084288  -0.454177   0.000135   0.278737   0.000484
   2   1   3.877227  -0.214874   5.776351   0.000624   0.232280   0.002688
   3   1   7.443870  -0.123499   3.806259   0.000233   0.371649   0.000627
   4   1   7.738513   3.691173   2.378912   0.000658   0.325193   0.002024
   5   1   3.384339  -0.699041   0.112979   0.000290   0.278737   0.001039
   6   1   4.238090  -1.207735   0.492518   0.000559   0.232280   0.002405
   7   1   4.143801   0.512030  -0.838960  -0.000000   0.185824  -0.000002
   8   1   4.673026  -0.076561  -0.555258   0.000369   0.232280   0.001587
   9   1   7.733760   3.510480   3.537953   0.001012   0.371649   0.002724
  10   1   7.394236   0.613427   4.668161   0.000432   0.418105   0.001032
  11   1   4.303904   0.439354   6.170386   0.000621   0.278737   0.002228
  12   1   5.494762  -1.520598   1.384214   0.001331   0.418105   0.003184
  13   1   5.873588  -1.024266   0.714591   0.000517   0.232280   0.002224
  14   1   3.376987   0.398102   5.989718   0.000684   0.185824   0.003679
  15   1   5.015174  -0.646609   5.434572   0.001351   0.464561   0.002909
  16   1   6.537969  -0.508452   4.729052   0.000438   0.418105   0.001047
  17   1   7.968930   0.825570   3.531882   0.000716   0.371649   0.001926
  18   1   8.116851   2.654628   3.058739   0.001164   0.371649   0.003131
  19   1   7.176271   4.459423   2.983048   0.000673   0.418105   0.001609
  20   1   6.542490   4.981692   3.106319   0.000011   0.139368   0.000081
  21   1   6.061880  -1.542236   2.644532   0.000574   0.371649   0.001544
  22   1   6.836489  -0.973093   3.345235   0.000340   0.464561   0.000732
  23   1   7.616985  -0.174880   2.712156   0.000151   0.278737   0.000540
  24   1   7.197888   4.220111   1.599386   0.000072   0.232280   0.000308
  25   1   6.573712   4.418922   0.875847  -0.000152   0.092912  -0.001631
  26   1   2.557917  -0.473231   0.384380  -0.000140   0.185824  -0.000751
  27   1   4.896643  -0.845271   0.087511   0.001153   0.418105   0.002758
  28   1   4.641309   1.141066  -1.027516  -0.000225   0.139368  -0.001613
  29   1   6.403254   4.870158   3.872545  -0.000134   0.185824  -0.000721
  30   1   8.011843   1.807621   3.907405   0.000689   0.278737   0.002472
  31   1   5.923942  -0.101624   5.536863   0.000572   0.371649   0.001539
  32   1   6.767139  -1.023390   1.976768   0.000665   0.418105   0.001591
  33   1   5.821082  -1.294269   4.210064   0.000480   0.464561   0.001034
  34   1   8.195739   1.584263   2.978926   0.000398   0.232280   0.001711
  35   1   6.780869   4.738358   1.913057  -0.000168   0.185824  -0.000906
  36   2   0.114757   6.126031   0.041957  -0.000325   0.232280  -0.001398
  37   2   3.430992   5.663234  -1.345163  -0.000496   0.418105  -0.001187
  38   2   4.160601   6.155636   4.177511  -0.000617   0.185824  -0.003318
  39   2   3.687911   2.646370  -1.628449  -0.000472   0.139368  -0.003389
  40   2   2.599486   5.093627  -1.753253  -0.000532   0.278737  -0.001908
  41   2  -0.016105   5.397647  -0.522519  -0.000821   0.278737  -0.002946
  42   2   0.972492   0.556394   0.464501  -0.000502   0.139368  -0.003604
  43   2   0.451099   0.658498   1.060310  -0.000158   0.046456  -0.003405
  44   2   0.820408   6.273473  -0.490884  -0.000266   0.325193  -0.000818
  45   2   2.312912   6.180198  -1.114615  -0.000189   0.371649  -0.000507
  46   2   3.857499   4.519640  -1.660244  -0.001096   0.418105  -0.002621
  47   2   4.171169   3.506706  -1.596236  -0.000793   0.232280  -0.003412
  48   2   0.888034   6.997720   0.680124  -0.000471   0.278737  -0.001688
  49   2   4.524159   5.341550  -0.984307  -0.001310   0.371649  -0.003525
  50   2   5.546198   5.159434   0.051644  -0.000932   0.232280  -0.004014
  51   2   4.970801   5.959101   3.594192  -0.000252   0.046456  -0.005415
  52   2   3.550467   3.610468  -1.844842  -0.000695   0.139368  -0.004985
  53   2   1.389105   5.817284  -1.190158  -0.000220   0.278737  -0.000790
  54   2   0.484792   0.758732   0.655198  -0.000156   0.046456  -0.003358
  55   2   1.503999   6.766157  -0.282178  -0.000470   0.232280  -0.002025
  56   2   5.015723   4.501016  -0.932713  -0.001456   0.325193  -0.004478
  57   3  -2.769457   4.163092   6.866869  -0.000895   0.536887  -0.001666
  58   3  -0.147329   7.157946   6.298798   0.004091   0.488079   0.008382
  59   3   1.012364   3.727435   7.866503   0.003553   0.439271   0.008088
  60   3  -1.001090   0.712363   6.042812   0.003511   0.439271   0.007994
  61   3  -3.441930   2.290076   3.361883   0.003956   0.488079   0.008106
  62   3  -2.908437   6.402150   3.332709   0.003762   0.439271   0.008563
  63   3  -2.229639   5.494221   6.923701   0.000221   0.585695   0.000377
  64   3  -1.211537   6.506865   6.791891   0.002486   0.536887   0.004630
  65   3  -1.604760   4.099988   7.674755   0.000144   0.585695   0.000245
  66   3  -0.271370   3.992615   8.006418   0.002198   0.488079   0.004503
  67   3  -2.428536   2.762177   6.940688   0.000045   0.585695   0.000077
  68   3  -1.962346   1.530149   6.471970   0.002282   0.536887   0.004250
  69   3  -3.443178   3.395987   5.881592  -0.000045   0.536887  -0.000085
  70   3  -3.714065   2.875884   4.657063   0.001933   0.488079   0.003960
  71   3  -3.384246   4.958373   5.783505   0.000150   0.683311   0.000219
  72   3  -3.396530   5.795129   4.606914   0.002706   0.585695   0.004620
  73   3   0.355572   6.288108   7.200484   0.004222   0.536887   0.007863
  74   3   0.720214   5.048299   7.777769   0.004173   0.536887   0.007773
  75   3   0.273689   2.594885   7.759918   0.003440   0.488079   0.007049
  76   3  -0.341477   1.422550   7.065351   0.003959   0.536887   0.007374
  77   3  -2.046809   0.782257   5.106222   0.004631   0.585695   0.007907
  78   3  -2.950237   1.402914   4.200064   0.004478   0.585695   0.007646
  79   3  -3.743609   3.536632   3.129728   0.004215   0.536887   0.007851
  80   3  -3.579466   5.126204   3.150108   0.004676   0.585695   0.007983
  81   3  -2.381493   7.014686   4.298905   0.005142   0.634503   0.008105
  82   3  -1.322281   7.352664   5.445392   0.005018   0.634503   0.007908
  83   3   1.236305   6.952842   6.227626   0.004954   0.536887   0.009228
  84   3   2.464245   6.409103   5.791353   0.003047   0.439271   0.006937
  85   3   2.523279   5.564219   6.565564   0.002832   0.341655   0.008288
  86   3   1.970828   4.566628   7.401127   0.005015   0.488079   0.010275
  87   3   1.657297   2.834897   7.448968   0.004730   0.488079   0.009691
  88   3   0.184257   0.639890   6.153398   0.004231   0.439271   0.009632
  89   3  -0.785485   0.199487   4.785111   0.005267   0.536887   0.009810
  90   3  -1.022303   0.265296   3.441962   0.003063   0.341655   0.008966
  91   3  -1.343215   0.923483   2.102459   0.003321   0.488079   0.006805
  92   3  -2.528018   1.374530   2.674432   0.004989   0.536887   0.009292
  93   3  -3.119304   2.870621   2.069643   0.004417   0.488079   0.009050
  94   3  -2.432096   3.319636   1.169125   0.003318   0.439271   0.007553
  95   3  -2.137331   4.964224   1.057178   0.004074   0.585695   0.006955
  96   3  -2.657013   5.894187   2.072011   0.006009   0.634503   0.009471
  97   3  -1.814414   7.079621   2.736350   0.004944   0.536887   0.009208
  98   3  -0.558271   7.401218   2.477419   0.003685   0.536887   0.006863
  99   3   0.465054   7.767218   3.762506   0.003475   0.488079   0.007119
 100   3   0.270298   7.687624   5.088567   0.005386   0.585695   0.009195
 101   3  -0.813575   5.370917   7.654649   0.002063   0.585695   0.003522
 102   3  -1.138204   2.564598   7.585860   0.002148   0.683311   0.003143
 103   3  -3.050501   1.983645   5.561934   0.001918   0.585695   0.003276
 104   3  -3.879594   4.256847   4.383757   0.002559   0.634503   0.004033
 105   3  -2.494957   6.440966   5.775471   0.002108   0.585695   0.003600
 106   3   1.601169   5.939926   7.034112   0.003615   0.390463   0.009259
 107   3   1.085573   1.558069   6.983628   0.004885   0.536887   0.009098
 108   3  -1.952656   0.635501   3.544893   0.004078   0.439271   0.009282
 109   3  -3.186475   4.358724   1.939124   0.005469   0.585695   0.009337
 110   3  -0.962958   7.698168   3.968450   0.005954   0.634503   0.009384
 111   3  -2.190647   2.016426   1.569675   0.003421   0.439271   0.007788
 112   3  -1.446017   6.429284   1.530909   0.003277   0.488079   0.006713
 113   3   1.676406   7.319706   4.982074   0.003321   0.488079   0.006805
 114   4   6.362683   3.100565   6.553334  -0.003372   0.490692  -0.006872
 115   4   5.032217   1.654826   6.774087  -0.001590   0.392554  -0.004052
 116   4   5.847176   4.633582   5.460416  -0.002025   0.372926  -0.005430
 117   4   7.435405   3.313200   5.143965  -0.001308   0.372926  -0.003508
 118   4   6.932845   1.465579   5.919779  -0.001228   0.372926  -0.003293
 119   4   5.163106   2.798498   6.900597  -0.002477   0.412182  -0.006009
 120   4   5.471460   3.973478   6.397018  -0.002699   0.412182  -0.006549
 121   4   6.744955   4.105578   5.501986  -0.002290   0.471065  -0.004861
 122   4   7.301288   2.514202   5.783874  -0.002254   0.451437  -0.004994
 123   4   6.156267   1.687787   6.600761  -0.002406   0.471065  -0.005107
 124   5   7.778237   1.454862  -0.323776  -0.004610   0.608459  -0.007576
 125   5   6.548205   2.349656  -0.997908  -0.001921   0.353299  -0.005437
 126   5   6.210315   0.376355  -0.741384  -0.001273   0.333671  -0.003817
 127   5   7.533945  -0.064888   0.699846  -0.001439   0.353299  -0.004074
 128   5   8.403872   1.789312   1.470361  -0.001425   0.372926  -0.003820
 129   5   7.560171   3.384162   0.476324  -0.001409   0.353299  -0.003988
 130   5   6.332593   1.375752  -1.102488  -0.002582   0.490692  -0.005263
 131   5   7.067233   0.143527  -0.221708  -0.002630   0.490692  -0.005360
 132   5   8.199887   0.782706   0.958406  -0.002814   0.510320  -0.005515
 133   5   8.209958   2.495735   0.716297  -0.002757   0.490692  -0.005618
 134   5   7.245759   2.885144  -0.432735  -0.002497   0.490692  -0.005088
 135   6   2.876959  -2.310088   3.179868  -0.003498   0.510320  -0.006854
 136   6   3.726859  -2.059528   1.634190  -0.001185   0.353299  -0.003353
 137   6   1.978881  -1.259772   1.565619  -0.001796   0.353299  -0.005082
 138   6   2.997778  -1.413347   4.818033  -0.001924   0.431809  -0.004457
 139   6   4.442226  -2.178437   3.550462  -0.001358   0.372926  -0.003641
 140   6   2.742483  -1.931482   1.694233  -0.001976   0.412182  -0.004795
 141   6   1.773515  -1.620643   2.661853  -0.002991   0.451437  -0.006625
 142   6   2.081477  -1.637323   3.927893  -0.002761   0.451437  -0.006115
 143   6   3.755495  -1.966684   4.334962  -0.001983   0.431809  -0.004593
 144   6   4.022574  -2.363838   2.598203  -0.002076   0.431809  -0.004808
 145   7   0.724818   2.740304  -2.212625  -0.004588   0.490692  -0.009351
 146   7  -0.236580   1.710944  -0.658141  -0.002934   0.372926  -0.007868
 147   7   0.815102   1.052393  -0.849387  -0.002472   0.353299  -0.006996
 148   7   2.298753   2.271111  -2.110677  -0.002792   0.372926  -0.007488
 149   7   1.385769   4.213652  -2.191787  -0.002222   0.353299  -0.006290
 150   7  -0.247893   4.155843  -1.300580  -0.002870   0.392554  -0.007311
 151   7   0.353795   1.826522  -1.576092  -0.003550   0.412182  -0.008613
 152   7   1.596942   1.543186  -1.762074  -0.003503   0.451437  -0.007759
 153   7   2.001883   3.306754  -2.375802  -0.003078   0.451437  -0.006819
 154   7   0.468646   4.077183  -1.970335  -0.003093   0.431809  -0.007164
 155   7  -0.468363   2.924458  -1.284938  -0.004071   0.471065  -0.008641
 156   8   4.159272   7.909121   1.359162  -0.005334   0.569203  -0.009372
 157   8   5.332422   6.854585   1.983314  -0.002309   0.314043  -0.007354
 158   8   3.956227   7.347652   3.224675  -0.002683   0.353299  -0.007593
 159   8   2.378165   7.956996   1.599992  -0.002701   0.333671  -0.008096
 160   8   2.948112   7.421579  -0.074127  -0.002149   0.372926  -0.005762
 161   8   4.841550   6.616752   0.028998  -0.002058   0.353299  -0.005825
 162   8   4.718103   7.301648   2.644577  -0.003569   0.451437  -0.007905
 163   8   3.302414   7.985013   2.367693  -0.003697   0.451437  -0.008189
 164   8   2.732093   7.911905   0.781515  -0.003271   0.412182  -0.007936
 165   8   3.989289   7.337946  -0.007522  -0.003539   0.471065  -0.007514
 166   8   5.194565   6.971963   0.967128  -0.003858   0.490692  -0.007862
 167   1   5.452518   5.138627   4.299300  -0.000163   0.026775  -0.006104
 168   2   5.097278   5.432221   4.125541  -0.000188   0.026775  -0.007012
 169   4   5.526314   5.000170   4.556913  -0.000156   0.026775  -0.005818
 170   1   6.348216   4.205688   0.384669  -0.000171   0.026865  -0.006363
 171   2   5.983644   4.508935   0.251576  -0.000205   0.026865  -0.007622
 172   5   6.508148   3.977387   0.267202  -0.000217   0.026865  -0.008085
 173   1   4.766826   1.869322  -1.097436  -0.000161   0.026865  -0.005983
 174   2   4.422588   2.202610  -1.211473  -0.000235   0.026865  -0.008743
 175   5   5.068323   1.850170  -1.082227  -0.000157   0.026865  -0.005855
 176   1   1.826856  -0.218271   0.900651  -0.000155   0.026772  -0.005800
 177   2   1.513145   0.136680   0.765820  -0.000172   0.026772  -0.006441
 178   6   1.846159  -0.437276   1.107145  -0.000199   0.026772  -0.007421
 179   1   3.734573   1.483739  -1.128961  -0.000196   0.021641  -0.009067
 180   2   3.404770   1.793096  -1.323863  -0.000254   0.021641  -0.011743
 181   7   3.129623   1.828680  -1.435163  -0.000226   0.021641  -0.010463
 182   1   1.900671   0.233500   0.227439  -0.000146   0.021641  -0.006767
 183   2   1.545764   0.525744   0.051105  -0.000175   0.021641  -0.008064
 184   7   1.438195   0.675571  -0.184140  -0.000256   0.021641  -0.011850
 185   1   5.454351   5.507068   3.607316  -0.000160   0.021666  -0.007373
 186   2   5.142745   5.863573   3.472169  -0.000152   0.021666  -0.007020
 187   8   5.088399   6.092087   3.287271  -0.000179   0.021666  -0.008247
 188   1   6.119846   5.022151   1.137032  -0.000172   0.021666  -0.007949
 189   2   5.817348   5.372020   0.968078  -0.000222   0.021666  -0.010263
 190   8   5.702193   5.644843   1.008900  -0.000288   0.021666  -0.013277
 191   2   5.053408   5.743995   3.820527  -0.000262   0.077570  -0.003375
 192   1   5.584959   5.291770   3.963223  -0.000201   0.077570  -0.002597
 193   2   5.878308   5.084998   0.636457  -0.000577   0.144701  -0.003990
 194   1   6.340666   4.527956   0.708846  -0.000397   0.144701  -0.002744
 195   2   3.907343   2.105252  -1.353686  -0.000711   0.138973  -0.005117
 196   1   4.269202   1.521028  -1.119862  -0.000403   0.138973  -0.002900
 197   2   1.469098   0.374540   0.305404  -0.000277   0.083742  -0.003305
 198   1   1.895168  -0.109826   0.609931  -0.000211   0.083742  -0.002518
 199   1   3.499192   1.634233   6.376272   0.000084   0.073041   0.001152
 200   3   2.716610   2.021769   6.558478   0.000676   0.073041   0.009253
 201   4   3.728343   1.813687   6.462746  -0.000113   0.073041  -0.001553
 202   1   2.430294   0.044380   5.370865   0.000113   0.073264   0.001542
 203   3   1.664132   0.456245   5.568890   0.000592   0.073264   0.008080
 204   6   2.375541  -0.194733   5.191905  -0.000111   0.073264  -0.001509
 205   3   1.702041   1.152938   6.304673   0.003813   0.579810   0.006577
 206   1   2.999097   0.936195   6.100538   0.001351   0.570489   0.002368
 207   4   4.367101   1.478189   6.539703  -0.000230   0.069207  -0.003327
 208   4   5.315782   0.931967   6.305771  -0.000519   0.153963  -0.003374
 209   4   6.552665   0.941930   5.757709  -0.000635   0.153963  -0.004126
 210   4   7.425419   1.742630   5.103849  -0.000612   0.153963  -0.003973
 211   4   7.567342   2.997642   4.618919  -0.000564   0.153963  -0.003663
 212   4   6.918804   4.179653   4.506670  -0.000626   0.153963  -0.004066
 213   4   6.002994   4.792468   4.703712  -0.000293   0.069207  -0.004227
 214   1   4.476129   0.945390   6.290234  -0.000295   0.151391  -0.001948
 215   1   5.852455   0.485273   5.838990  -0.000347   0.151391  -0.002292
 216   1   7.104954   0.966566   5.125405  -0.000463   0.151391  -0.003059
 217   1   7.707371   2.187049   4.449301  -0.000290   0.151391  -0.001916
 218   1   7.406592   3.633918   4.094754  -0.000351   0.151391  -0.002320
 219   1   6.328994   4.699251   4.210731  -0.000606   0.151391  -0.004006
 220   5   6.976477   3.775947   0.430464  -0.000323   0.067915  -0.004763
 221   5   7.653345   3.418276   1.216142  -0.000699   0.150323  -0.004648
 222   5   8.176584   2.411626   1.904867  -0.000592   0.150323  -0.003936
 223   5   8.158124   1.090631   2.031744  -0.000714   0.150323  -0.004752
 224   5   7.605385  -0.013808   1.545782  -0.000749   0.150323  -0.004979
 225   5   6.740509  -0.457825   0.642287  -0.000600   0.150323  -0.003992
 226   5   5.911084  -0.062971  -0.315632  -0.000608   0.150323  -0.004043
 227   5   5.450451   1.012063  -0.942994  -0.000779   0.150323  -0.005184
 228   1   7.052434   3.943869   0.994399  -0.000662   0.149311  -0.004437
 229   1   7.868550   3.177210   1.979089  -0.000422   0.149311  -0.002827
 230   1   8.167527   1.798559   2.462165  -0.000431   0.149311  -0.002887
 231   1   7.829209   0.361990   2.249481  -0.000513   0.149311  -0.003433
 232   1   6.989564  -0.555152   1.426514  -0.000474   0.149311  -0.003171
 233   1   5.986039  -0.584271   0.324010  -0.000340   0.149311  -0.002279
 234   1   5.221946   0.286335  -0.614943  -0.000521   0.149311  -0.003487
 235   1   4.946372   1.385633  -1.041099  -0.000294   0.082973  -0.003538
 236   6   2.171321  -0.868535   1.112065  -0.000278   0.069160  -0.004023
 237   6   3.172336  -1.354209   0.995164  -0.000623   0.153840  -0.004052
 238   6   4.309348  -1.814005   1.564424  -0.000567   0.153840  -0.003683
 239   6   4.927355  -1.948023   2.759570  -0.000607   0.153840  -0.003943
 240   6   4.767009  -1.700023   4.079059  -0.000631   0.153840  -0.004100
 241   6   3.895600  -1.174077   4.969168  -0.000465   0.153840  -0.003022
 242   6   2.909800  -0.684614   5.169665  -0.000256   0.069160  -0.003695
 243   1   2.631821  -0.762358   0.745408  -0.000623   0.151309  -0.004116
 244   1   4.006677  -1.387139   0.907920  -0.000382   0.151309  -0.002524
 245   1   5.048568  -1.739665   1.955383  -0.000398   0.151309  -0.002630
 246   1   5.320265  -1.671998   3.448231  -0.000457   0.151309  -0.003022
 247   1   4.707750  -1.212535   4.759989  -0.000446   0.151309  -0.002946
 248   1   3.468065  -0.554088   5.340180  -0.000271   0.151309  -0.001790
 249   7   2.790437   1.609149  -1.455189  -0.001288   0.172835  -0.007455
 250   7   1.915981   0.963144  -0.833775  -0.002969   0.351193  -0.008454
 251   1   3.290806   0.722374  -0.788712  -0.001432   0.476453  -0.003006
 252   1   2.280191   0.078821  -0.018134  -0.000420   0.243442  -0.001726
 253   8   5.253616   6.242488   2.949608  -0.001211   0.173014  -0.006998
 254   8   5.624333   6.028343   1.771403  -0.003064   0.351573  -0.008715
 255   1   6.057831   5.330338   2.901072  -0.001316   0.476927  -0.002760
 256   1   6.375927   5.047555   1.540039  -0.000485   0.243695  -0.001992
 257   2   3.992621   5.437597   4.878302  -0.000646   0.126432  -0.005113
 258   3   3.541690   5.447873   5.269039  -0.000206   0.126432  -0.001626
 259   4   4.454046   4.952841   5.212819  -0.000708   0.126432  -0.005601
 260   2   0.613100   0.420235   1.671041  -0.000635   0.126538  -0.005018
 261   3   0.193438   0.476908   2.091530  -0.000136   0.126538  -0.001077
 262   6   1.043869  -0.107136   1.981121  -0.000681   0.126538  -0.005379
 263   2  -0.685655   4.655276  -0.086806  -0.000246   0.036759  -0.006689
 264   3  -1.093032   4.675315   0.344097  -0.000089   0.036759  -0.002410
 265   7  -0.629650   4.450129  -0.297516  -0.000287   0.036759  -0.007820
 266   2  -0.188055   1.295457   0.708921  -0.000305   0.036759  -0.008306
 267   3  -0.601389   1.355719   1.130298  -0.000105   0.036759  -0.002867
 268   7  -0.176985   1.393712   0.426353  -0.000309   0.036759  -0.008407
 269   2   3.395892   6.608168   4.113455  -0.000263   0.036780  -0.007160
 270   3   2.945357   6.613290   4.499496  -0.000084   0.036780  -0.002297
 271   8   3.461288   6.787275   3.882663  -0.000301   0.036780  -0.008185
 272   2   1.078821   7.272250   1.589279  -0.000291   0.036780  -0.007923
 273   3   0.656015   7.269424   2.005528  -0.000100   0.036780  -0.002715
 274   8   1.353445   7.391391   1.586416  -0.000302   0.036780  -0.008198
 275   3   3.051020   6.139648   5.179841   0.000304   0.216254   0.001404
 276   2   3.567355   6.243711   4.479271  -0.000601   0.213452  -0.002817
 277   3   0.006729   7.120065   1.854937   0.000194   0.236389   0.000819
 278   3  -0.937733   5.822851   0.949673   0.000348   0.475102   0.000733
 279   2   0.252632   6.594340   0.915528  -0.001440   0.471783  -0.003052
 280   2  -0.615328   5.202709   0.099319  -0.000575   0.233326  -0.002463
 281   3  -0.633001   0.970967   1.657288   0.000268   0.217680   0.001233
 282   2   0.111705   0.817297   1.220660  -0.000627   0.214859  -0.002919
 283   4   5.354803   4.917794   4.951731  -0.000903   0.183625  -0.004918
 284   2   4.567365   5.582358   4.503315  -0.000712   0.258855  -0.002751
 285   5   5.445028   2.149332  -1.092488  -0.001099   0.209214  -0.005253
 286   5   6.208400   3.296881  -0.460916  -0.003237   0.430022  -0.007528
 287   2   4.871637   3.248255  -1.105794  -0.003138   0.571477  -0.005492
 288   2   5.715080   4.476397  -0.238917  -0.000968   0.294820  -0.003284
 289   6   1.535165  -0.563361   1.603508  -0.000935   0.177847  -0.005260
 290   2   1.065792   0.238175   0.972374  -0.000601   0.250727  -0.002397
 291   7  -0.301459   4.542075  -0.797373  -0.000500   0.072730  -0.006871
 292   7   0.655280   4.875679  -1.404755  -0.001246   0.164262  -0.007587
 293   7   1.915214   4.495416  -1.946765  -0.001382   0.164262  -0.008412
 294   7   2.761285   3.354052  -2.031987  -0.001501   0.164262  -0.009136
 295   7   2.917827   2.216082  -1.756175  -0.000615   0.072730  -0.008455
 296   2   0.083101   5.017744  -0.763083  -0.001190   0.156785  -0.007589
 297   2   1.480437   5.125738  -1.530860  -0.001074   0.156785  -0.006850
 298   2   2.739571   4.215990  -1.905869  -0.001277   0.156785  -0.008144
 299   2   3.264308   2.719264  -1.710544  -0.001467   0.156785  -0.009357
 300   7   0.949095   0.861906  -0.296269  -0.000487   0.069669  -0.006984
 301   7   0.184868   1.190157   0.001787  -0.000568   0.069669  -0.008154
 302   2   0.660597   0.903115   0.228160  -0.001294   0.151620  -0.008537
 303   8   3.989940   6.832245   3.617205  -0.000476   0.069509  -0.006846
 304   8   4.755347   6.508983   3.322587  -0.000513   0.069509  -0.007384
 305   2   4.335639   6.353886   3.721283  -0.001275   0.151346  -0.008422
 306   8   5.462137   5.990500   0.661270  -0.000628   0.072707  -0.008642
 307   8   4.686867   6.210982  -0.201917  -0.001475   0.164198  -0.008982
 308   8   3.388847   6.681499  -0.546106  -0.001248   0.164198  -0.007598
 309   8   2.217363   7.192346   0.079487  -0.001371   0.164198  -0.008350
 310   8   1.686761   7.490809   1.091480  -0.000541   0.072707  -0.007441
 311   2   5.254702   5.672323   0.180707  -0.001518   0.156746  -0.009687
 312   2   3.994222   6.077700  -0.713258  -0.001299   0.156746  -0.008287
 313   2   2.517814   6.664414  -0.545019  -0.001121   0.156746  -0.007150
 314   2   1.524134   7.154826   0.605811  -0.001257   0.156746  -0.008022
 315   4   4.715450   4.638666   5.764684  -0.000984   0.259288  -0.003795
 316   4   4.356884   3.529340   6.544959  -0.002206   0.523769  -0.004213
 317   4   3.972596   2.188756   6.697149  -0.000377   0.259288  -0.001453
 318   3   3.212171   4.881607   6.298484   0.003020   0.745141   0.004053
 319   3   2.673316   3.104478   6.974881   0.004670   0.745141   0.006267
 320   6   2.117922  -0.562462   4.954354  -0.000429   0.260943  -0.001646
 321   6   1.407903  -0.843809   3.765509  -0.002272   0.527257  -0.004310
 322   6   1.148609  -0.651887   2.389803  -0.000937   0.260943  -0.003591
 323   3   0.660584   0.115479   5.078492   0.004655   0.749538   0.006211
 324   3  -0.042422   0.050622   3.218523   0.003130   0.749538   0.004176
 325   7  -0.376955   1.630941   0.118134  -0.001273   0.189783  -0.006705
 326   7  -0.806803   2.786089  -0.256792  -0.003400   0.385144  -0.008827
 327   7  -0.736243   4.056867  -0.456412  -0.001343   0.189783  -0.007075
 328   3  -1.308932   2.049986   0.935561   0.000641   0.536483   0.001194
 329   3  -1.568348   3.801573   0.520722   0.000678   0.536483   0.001264
 330   8   1.656857   7.606166   1.817187  -0.001349   0.189871  -0.007106
 331   8   2.447552   7.611999   2.835158  -0.003326   0.385333  -0.008632
 332   8   3.329903   7.126664   3.639773  -0.001271   0.189871  -0.006696
 333   3   0.962715   7.555144   2.925259   0.000609   0.536720   0.001134
 334   3   2.170694   7.208932   4.241209   0.000458   0.536720   0.000854
 =====================================================

              1097759  WORDS OF DYNAMIC MEMORY USED
 EXECUTION OF GAMESS TERMINATED NORMALLY Wed Nov 23 20:59:55 2016
 DDI: 263640 bytes (0.3 MB / 0 MWords) used by master data server.

 ----------------------------------------
 CPU timing information for all processes
 ========================================
 0: 67.920 + 0.40 = 67.960
 ----------------------------------------
 ddikick.x: exited gracefully.
