----- GAMESS execution script -----

          ******************************************************
          *         GAMESS VERSION =  5 DEC 2014 (R1)          *
          *             FROM IOWA STATE UNIVERSITY             *
          * M.W.SCHMIDT, K.K.BALDRIDGE, J.A.BOATZ, S.T.ELBERT, *
          *   M.S.GORDON, J.H.JENSEN, S.KOSEKI, N.MATSUNAGA,   *
          *          K.A.NGUYEN, S.J.SU, T.L.WINDUS,           *
          *       TOGETHER WITH M.DUPUIS, J.A.MONTGOMERY       *
          *         J.COMPUT.CHEM.  14, 1347-1363(1993)        *
          **************** 64 BIT LINUX VERSION ****************

 EXECUTION OF GAMESS BEGUN Wed Nov 23 20:59:59 2016

            ECHO OF THE FIRST FEW INPUT CARDS -
 INPUT CARD>! SELECT RESTRICTED HARTREE-FOCK AS DEFAULT                                     
 INPUT CARD>$contrl scftyp=rhf $end                                                         
 INPUT CARD>                                                                                
 INPUT CARD>! THEORY: HF OR DFT                                                             
 INPUT CARD> $contrl mplevl=0 $end                                                          
 INPUT CARD>                                                                                
 INPUT CARD> $system timlim=10000 mwords=20 $end                                            
 INPUT CARD> $SCF DIRSCF=.TRUE. $end                                                        
 INPUT CARD>                                                                                
 INPUT CARD>                                                                                
 INPUT CARD>! BASIS SETS                                                                    
 INPUT CARD>! 6-311G(d,p)                                                                   
 INPUT CARD> $BASIS GBASIS=N311 NGAUSS=6 NDFUNC=1 NPFUNC=1 $END                             
 INPUT CARD>                                                                                
 INPUT CARD>! One of the following                                                          
 INPUT CARD> $guess guess=HUCKEL $end                                                       
 INPUT CARD>                                                                                
 INPUT CARD> $statpt projct=.FALSE. $end                                                    
 INPUT CARD> $STATPT IFREEZ(1)=1,2,3 $END                                                   
 INPUT CARD>                                                                                
 INPUT CARD>! Optimize the geometry with COSMO effects                                      
 INPUT CARD> $statpt opttol=0.0005 nstep=50 $end                                            
 INPUT CARD> $contrl nzvar=1 $end                                                           
 INPUT CARD> $zmat dlc=.t. auto=.t. $end                                                    
 INPUT CARD> $contrl runtyp=OPTIMIZE maxit=200 $end                                         
 INPUT CARD>                                                                                
 INPUT CARD>! Run COSMO on perfect conductor                                                
 INPUT CARD> $COSGMS PRFCND=.TRUE. $end                                                     
 INPUT CARD>                                                                                
 INPUT CARD>! Specifying RSOLV                                                              
 INPUT CARD> $COSGMS COSRAD = 1.4 $end                                                      
 INPUT CARD>                                                                                
 INPUT CARD>! available memory                                                              
 INPUT CARD> $SYSTEM MWORDS=40 $END                                                         
 INPUT CARD>                                                                                
 INPUT CARD> $DATA                                                                          
 INPUT CARD>Chrysene, ID: C218019                                                           
 INPUT CARD>C1                                                                              
 INPUT CARD>C      6.0      3.1275000000    1.8978000000    4.7551000000                    
 INPUT CARD>C      6.0      2.4951000000    2.3475000000    5.9153000000                    
 INPUT CARD>C      6.0      2.6257000000    2.3003000000    3.4660000000                    
 INPUT CARD>C      6.0      4.2680000000    1.0414000000    4.8591000000                    
 INPUT CARD>C      6.0      2.9974000000    1.9447000000    7.2042000000                    
 INPUT CARD>C      6.0      1.3546000000    3.2039000000    5.8112000000                    
 INPUT CARD>C      6.0      1.5016000000    3.1438000000    3.3949000000                    
 INPUT CARD>C      6.0      3.2339000000    1.8696000000    2.2622000000                    
 INPUT CARD>C      6.0      4.7486000000    0.6564000000    6.0696000000                    
 INPUT CARD>C      6.0      4.1214000000    1.1014000000    7.2751000000                    
 INPUT CARD>C      6.0      2.3893000000    2.3753000000    8.4082000000                    
 INPUT CARD>C      6.0      0.8743000000    3.5887000000    4.6004000000                    
   40000000 WORDS OF MEMORY AVAILABLE

     BASIS OPTIONS
     -------------
     GBASIS=N311         IGAUSS=       6      POLAR=POPN311 
     NDFUNC=       1     NFFUNC=       0     DIFFSP=       F
     NPFUNC=       1      DIFFS=       F     BASNAM=        


     RUN TITLE
     ---------
 Chrysene, ID: C218019                                                           

 THE POINT GROUP OF THE MOLECULE IS C1      
 THE ORDER OF THE PRINCIPAL AXIS IS     0

 ATOM      ATOMIC                      COORDINATES (BOHR)
           CHARGE         X                   Y                   Z
 C           6.0     5.9101180266        3.5863219795        8.9858360442
 C           6.0     4.7150553120        4.4361317562       11.1782961352
 C           6.0     4.9618535260        4.3469366896        6.5497902734
 C           6.0     8.0653505156        1.9679606436        9.1823675469
 C           6.0     5.6642646756        3.6749501283       13.6139639607
 C           6.0     2.5598228230        6.0544930921       10.9815756598
 C           6.0     2.8376125432        5.9409205602        6.4154307557
 C           6.0     6.1111848717        3.5330317066        4.2749381294
 C           6.0     8.9735528253        1.2404161383       11.4698808551
 C           6.0     7.7883166858        2.0813442029       13.7479455333
 C           6.0     4.5151223025        4.4886661386       15.8891940500
 C           6.0     1.6521874311        6.7816596521        8.6934954339
 C           6.0     1.8970959191        6.6941653389        4.0275729976
 C           6.0     5.1731248914        4.2824970334        1.9757085202
 C           6.0     8.7294002277        1.3271545612       16.1359922640
 C           6.0     5.4535602280        3.7382559489       18.1882346866
 C           6.0     3.0462382922        5.8781816574        1.8492858516
 C           6.0     7.5804468271        2.1427602975       18.3140904374
 H           1.0     8.9631593324        1.3318788761        7.4167965566
 H           1.0     1.6618250336        6.6903858869       12.7473356228
 H           1.0     7.7716870971        2.2867574177        4.3989041542
 H           1.0    10.6257402564        0.0000000000       11.6129331123
 H           1.0     2.8544311045        5.7349404275       15.7657949430
 H           1.0     0.0000000000        8.0224537357        8.5504431766
 H           1.0     0.2416959538        7.9360932580        3.9455588898
 H           1.0     6.0697998726        3.6469821837        0.2227986940
 H           1.0    10.3851781381        0.0859825324       16.2170615088
 H           1.0     4.5570742194        4.3733928534       19.9413334854
 H           1.0     2.3224732389        6.4583275356        0.0000000000
 H           1.0     8.3045898256        1.5620475015       20.1628093712

          INTERNUCLEAR DISTANCES (ANGS.)




     $CONTRL OPTIONS
     ---------------
 SCFTYP=RHF          RUNTYP=OPTIMIZE     EXETYP=RUN     
 MPLEVL=       0     CITYP =NONE         CCTYP =NONE         VBTYP =NONE    
 DFTTYP=NONE         TDDFT =NONE    
 MULT  =       1     ICHARG=       0     NZVAR =       1     COORD =UNIQUE  
 PP    =NONE         RELWFN=NONE         LOCAL =NONE         NUMGRD=       F
 ISPHER=      -1     NOSYM =       0     MAXIT =     200     UNITS =ANGS    
 PLTORB=       F     MOLPLT=       F     AIMPAC=       F     FRIEND=        
 NPRINT=       7     IREST =       0     GEOM  =INPUT   
 NORMF =       0     NORMP =       0     ITOL  =      20     ICUT  =       9
 INTTYP=BEST         GRDTYP=BEST         QMTTOL= 1.0E-06

     $SYSTEM OPTIONS
     ---------------
  REPLICATED MEMORY=    40000000 WORDS (ON EVERY NODE).
 DISTRIBUTED MEMDDI=           0 MILLION WORDS IN AGGREGATE,
 MEMDDI DISTRIBUTED OVER   1 PROCESSORS IS           0 WORDS/PROCESSOR.
 TOTAL MEMORY REQUESTED ON EACH PROCESSOR=    40000000 WORDS.
 TIMLIM=       10000.00 MINUTES, OR       6.9 DAYS.
 PARALL= F  BALTYP=  DLB     KDIAG=    0  COREFL= F
 MXSEQ2=     300 MXSEQ3=     150  mem10=         0

     $COSGMS OPTIONS
     ---------------
     EPSI  =   INFTY     NSPA  =      92     COSRAD=    1.40
     DISEX =   10.00     OUTCHG=DBLCAV       COSBUG=       F
     COSWRT=       F     DCOSMO=       F

     SYMMETRY COORDINATES WILL NOT BE USED FOR 
     THE COSMO CALCULATION, EVEN IF SPECIFIED:
         -- SWITCHING TO C1 POINT GROUP --


     DEFINITION OF CAVITY
     ---------------------------
     ATOM         COORDINATES           RADIUS 
     1    5.9101    3.5863    8.9858    2.0000
     2    4.7151    4.4361   11.1783    2.0000
     3    4.9619    4.3469    6.5498    2.0000
     4    8.0654    1.9680    9.1824    2.0000
     5    5.6643    3.6750   13.6140    2.0000
     6    2.5598    6.0545   10.9816    2.0000
     7    2.8376    5.9409    6.4154    2.0000
     8    6.1112    3.5330    4.2749    2.0000
     9    8.9736    1.2404   11.4699    2.0000
    10    7.7883    2.0813   13.7479    2.0000
    11    4.5151    4.4887   15.8892    2.0000
    12    1.6522    6.7817    8.6935    2.0000
    13    1.8971    6.6942    4.0276    2.0000
    14    5.1731    4.2825    1.9757    2.0000
    15    8.7294    1.3272   16.1360    2.0000
    16    5.4536    3.7383   18.1882    2.0000
    17    3.0462    5.8782    1.8493    2.0000
    18    7.5804    2.1428   18.3141    2.0000
    19    8.9632    1.3319    7.4168    1.3000
    20    1.6618    6.6904   12.7473    1.3000
    21    7.7717    2.2868    4.3989    1.3000
    22   10.6257    0.0000   11.6129    1.3000
    23    2.8544    5.7349   15.7658    1.3000
    24    0.0000    8.0225    8.5504    1.3000
    25    0.2417    7.9361    3.9456    1.3000
    26    6.0698    3.6470    0.2228    1.3000
    27   10.3852    0.0860   16.2171    1.3000
    28    4.5571    4.3734   19.9413    1.3000
    29    2.3225    6.4583    0.0000    1.3000
    30    8.3046    1.5620   20.1628    1.3000

          ----------------
          PROPERTIES INPUT
          ----------------

     MOMENTS            FIELD           POTENTIAL          DENSITY
 IEMOM =       1   IEFLD =       0   IEPOT =       0   IEDEN =       0
 WHERE =COMASS     WHERE =NUCLEI     WHERE =NUCLEI     WHERE =NUCLEI  
 OUTPUT=BOTH       OUTPUT=BOTH       OUTPUT=BOTH       OUTPUT=BOTH    
 IEMINT=       0   IEFINT=       0                     IEDINT=       0
                                                       MORB  =       0
          EXTRAPOLATION IN EFFECT
          SOSCF IN EFFECT
 ORBITAL PRINTING OPTION: NPREO=     1   414     2     1

     -------------------------------
     INTEGRAL TRANSFORMATION OPTIONS
     -------------------------------
     NWORD  =            0
     CUTOFF = 1.0E-09     MPTRAN =       0
     DIRTRF =       T     AOINTS =DUP     

          ----------------------
          INTEGRAL INPUT OPTIONS
          ----------------------
 NOPK  =       1 NORDER=       0 SCHWRZ=       T


 -----------------------------------------------
  STATISTICS ON AUTOMATIC COORDINATE GENERATION 
 -----------------------------------------------
  NUMBER OF USER SPECIFIED BONDS                             0
  NUMBER OF BONDS                                           33
  NUMBER OF ANGLES                                          54
  NUMBER OF TORSIONS                                        84
  NUMBER OF EXTRA COORD.                                     0
  NUMBER OF EXTRA COORD. FOR CONSTRAINTS                     0
  NUMBER OF CONSTRAINED COORD.                               0

  TOTAL NUMBER OF PRIMITIVES                               171
 -----------------------------------------------

   --- ENCODED Z MATRIX ---
 COORD  TYPE   I   J   K   L   M   N
    1      1    1   2
    2      1    1   4
    3      1    1   3
    4      1    2   5
    5      1    2   6
    6      1    3   8
    7      1    3   7
    8      1    4  19
    9      1    4   9
   10      1    5  10
   11      1    5  11
   12      1    6  12
   13      1    6  20
   14      1    7  12
   15      1    7  13
   16      1    8  14
   17      1    8  21
   18      1    9  22
   19      1    9  10
   20      1   10  15
   21      1   11  23
   22      1   11  16
   23      1   12  24
   24      1   13  25
   25      1   13  17
   26      1   14  26
   27      1   14  17
   28      1   15  27
   29      1   15  18
   30      1   16  28
   31      1   16  18
   32      1   17  29
   33      1   18  30
   34      2    1   4  19
   35      2    1   2   6
   36      2    1   4   9
   37      2    1   3   7
   38      2    1   2   5
   39      2    1   3   8
   40      2    2   6  20
   41      2    2   1   4
   42      2    2   5  10
   43      2    2   5  11
   44      2    2   1   3
   45      2    2   6  12
   46      2    3   1   4
   47      2    3   8  21
   48      2    3   7  13
   49      2    3   7  12
   50      2    3   8  14
   51      2    4   9  22
   52      2    4   9  10
   53      2    5  11  16
   54      2    5  11  23
   55      2    5  10  15
   56      2    5  10   9
   57      2    5   2   6
   58      2    6  12  24
   59      2    6  12   7
   60      2    7   3   8
   61      2    7  13  17
   62      2    7  13  25
   63      2    7  12  24
   64      2    8  14  17
   65      2    8  14  26
   66      2    9   4  19
   67      2    9  10  15
   68      2   10   5  11
   69      2   10  15  18
   70      2   10  15  27
   71      2   10   9  22
   72      2   11  16  18
   73      2   11  16  28
   74      2   12   7  13
   75      2   12   6  20
   76      2   13  17  29
   77      2   13  17  14
   78      2   14  17  29
   79      2   14   8  21
   80      2   15  18  30
   81      2   15  18  16
   82      2   16  18  30
   83      2   16  11  23
   84      2   17  14  26
   85      2   17  13  25
   86      2   18  16  28
   87      2   18  15  27
   88      3    1   3   7  13
   89      3    1   3   7  12
   90      3    1   2   6  20
   91      3    1   3   8  21
   92      3    1   2   6  12
   93      3    1   3   8  14
   94      3    1   4   9  10
   95      3    1   4   9  22
   96      3    1   2   5  11
   97      3    1   2   5  10
   98      3    2   5  10   9
   99      3    2   1   4   9
  100      3    2   1   3   7
  101      3    2   6  12  24
  102      3    2   6  12   7
  103      3    2   1   4  19
  104      3    2   5  11  16
  105      3    2   5  11  23
  106      3    2   1   3   8
  107      3    2   5  10  15
  108      3    3   8  14  17
  109      3    3   8  14  26
  110      3    3   7  12  24
  111      3    3   7  12   6
  112      3    3   7  13  17
  113      3    3   7  13  25
  114      3    3   1   2   6
  115      3    3   1   4  19
  116      3    3   1   4   9
  117      3    3   1   2   5
  118      3    4   1   2   5
  119      3    4   1   2   6
  120      3    4   1   3   7
  121      3    4   1   3   8
  122      3    4   9  10  15
  123      3    4   9  10   5
  124      3    5   2   6  20
  125      3    5   2   6  12
  126      3    5  10   9  22
  127      3    5  10  15  18
  128      3    5  10  15  27
  129      3    5  11  16  18
  130      3    5  11  16  28
  131      3    6   2   5  10
  132      3    6  12   7  13
  133      3    6   2   5  11
  134      3    7   3   8  14
  135      3    7  13  17  29
  136      3    7   3   8  21
  137      3    7  13  17  14
  138      3    7  12   6  20
  139      3    8   3   7  12
  140      3    8  14  17  29
  141      3    8  14  17  13
  142      3    8   3   7  13
  143      3    9  10  15  18
  144      3    9  10  15  27
  145      3    9  10   5  11
  146      3   10  15  18  30
  147      3   10  15  18  16
  148      3   10   5  11  23
  149      3   10   5  11  16
  150      3   10   9   4  19
  151      3   11   5  10  15
  152      3   11  16  18  30
  153      3   11  16  18  15
  154      3   12   7  13  25
  155      3   12   7  13  17
  156      3   13   7  12  24
  157      3   13  17  14  26
  158      3   14  17  13  25
  159      3   15  10   9  22
  160      3   15  18  16  28
  161      3   16  18  15  27
  162      3   17  14   8  21
  163      3   18  16  11  23
  164      3   19   4   9  22
  165      3   20   6  12  24
  166      3   21   8  14  26
  167      3   23  11  16  28
  168      3   25  13  17  29
  169      3   26  14  17  29
  170      3   27  15  18  30
  171      3   28  16  18  30

          INDEP./SYM. INTERNAL COORDINATES
          --------------------------------
 CRD  1=   0.1463 (  2)  0.2228 (  3) -0.2227 (  4) -0.1462 (  5)  0.1068 (  7)
           0.1940 (  9) -0.1068 ( 10) -0.1940 ( 12)  0.1054 ( 16) -0.1053 ( 22)
           0.1683 ( 35)  0.1642 ( 38)  0.2372 ( 39) -0.1684 ( 41) -0.2372 ( 43)
          -0.1642 ( 44)  0.3325 ( 46)  0.1173 ( 48) -0.1173 ( 55) -0.3325 ( 57)
          -0.1389 ( 60)  0.2151 ( 67)  0.1389 ( 68) -0.2151 ( 74)
 CRD  2=  -0.1464 ( 88)  0.1006 ( 91) -0.1174 ( 92)  0.1980 ( 93) -0.2249 ( 96)
          -0.1174 ( 99)  0.1980 (104)  0.1005 (105) -0.2248 (106) -0.1464 (107)
           0.1493 (111)  0.1867 (114) -0.1752 (115) -0.2456 (116)  0.3137 (117)
           0.1867 (118)  0.2194 (122)  0.1493 (123) -0.1752 (124) -0.2457 (125)
           0.2193 (132) -0.1252 (138) -0.1177 (143) -0.1252 (150) -0.1177 (155)
 CRD  3=  -0.2438 (  1) -0.3679 (  3) -0.3679 (  4) -0.2236 (  6) -0.2236 ( 11)
          -0.1638 ( 16) -0.1638 ( 22)  0.1393 ( 35) -0.2784 ( 39)  0.1392 ( 41)
          -0.2785 ( 43) -0.1129 ( 48) -0.1032 ( 52) -0.1129 ( 55) -0.1032 ( 59)
           0.1914 ( 60)  0.1265 ( 67)  0.1914 ( 68)  0.1265 ( 74)
 CRD  4=  -0.1737 ( 88) -0.1553 ( 89)  0.1290 ( 91)  0.1472 ( 94)  0.1279 ( 95)
           0.1726 ( 96)  0.2129 ( 97) -0.1553 ( 98)  0.2129 (100)  0.1279 (101)
           0.1473 (102)  0.1289 (105)  0.1726 (106) -0.1737 (107)  0.1063 (112)
           0.1024 (113) -0.1606 (116) -0.1658 (119)  0.2860 (120)  0.2457 (121)
          -0.1607 (125)  0.1063 (127)  0.1024 (128)  0.2859 (131)  0.2456 (133)
          -0.1162 (139) -0.1346 (142) -0.1161 (145) -0.1346 (151)
 CRD  5=  -0.1694 (  3) -0.1695 (  4) -0.2012 (  9) -0.2012 ( 12) -0.1763 ( 14)
          -0.3224 ( 15) -0.1764 ( 19) -0.3224 ( 20) -0.1262 ( 25) -0.1262 ( 29)
          -0.1489 ( 37)  0.1319 ( 39) -0.1489 ( 42)  0.1318 ( 43)  0.1960 ( 49)
          -0.1080 ( 50) -0.1080 ( 53)  0.1960 ( 56) -0.1206 ( 62) -0.2710 ( 67)
          -0.1206 ( 70) -0.2710 ( 74)  0.1094 ( 85)  0.1094 ( 87)
 CRD  6=   0.1782 (  2)  0.1250 (  3) -0.1251 (  4) -0.1785 (  5)  0.1649 (  7)
          -0.1650 ( 10)  0.2574 ( 14)  0.2719 ( 15) -0.2573 ( 19) -0.2719 ( 20)
           0.1307 ( 25) -0.1306 ( 29)  0.1521 ( 34)  0.1115 ( 35) -0.1522 ( 40)
          -0.1115 ( 41)  0.1944 ( 46) -0.1093 ( 48) -0.1220 ( 49)  0.1352 ( 51)
           0.1092 ( 55)  0.1220 ( 56) -0.1946 ( 57) -0.1353 ( 58)  0.1523 ( 63)
          -0.1006 ( 66) -0.2312 ( 67) -0.1523 ( 71)  0.2312 ( 74)  0.1008 ( 75)
 CRD  7=   0.3230 (  2)  0.3229 (  5) -0.2276 (  6) -0.2276 ( 11) -0.2200 ( 14)
          -0.2202 ( 19)  0.1831 ( 37) -0.1932 ( 38) -0.1010 ( 39)  0.1830 ( 42)
          -0.1009 ( 43) -0.1933 ( 44)  0.1804 ( 46)  0.1187 ( 48)  0.1446 ( 51)
           0.1188 ( 55)  0.1802 ( 57)  0.1445 ( 58) -0.1611 ( 66) -0.1330 ( 67)
          -0.1328 ( 74) -0.1610 ( 75)
 CRD  8=  -0.1186 (  2)  0.1187 (  5)  0.3561 (  6) -0.1379 (  8) -0.3561 ( 11)
           0.1379 ( 13)  0.2368 ( 14) -0.2367 ( 19) -0.1243 ( 34)  0.1483 ( 36)
          -0.1898 ( 37) -0.1465 ( 38)  0.1674 ( 39)  0.1244 ( 40)  0.1898 ( 42)
          -0.1674 ( 43)  0.1465 ( 44) -0.1483 ( 45)  0.1362 ( 47) -0.1222 ( 48)
           0.1045 ( 49) -0.1362 ( 54)  0.1221 ( 55) -0.1045 ( 56)  0.1231 ( 61)
           0.1099 ( 65) -0.1231 ( 69) -0.1099 ( 73) -0.1327 ( 79)  0.1328 ( 83)
 CRD  9=   0.1912 ( 88)  0.1831 ( 89)  0.1191 ( 90) -0.1407 ( 91)  0.1258 ( 92)
          -0.1252 ( 93)  0.1080 ( 96)  0.1052 ( 97) -0.1831 ( 98) -0.1258 ( 99)
          -0.1052 (100) -0.1190 (103)  0.1253 (104)  0.1408 (105) -0.1081 (106)
          -0.1913 (107) -0.1287 (110) -0.1086 (111) -0.1270 (113) -0.1534 (120)
          -0.1563 (121)  0.1169 (122)  0.1086 (123)  0.1287 (126)  0.1270 (128)
           0.1535 (131) -0.1168 (132)  0.1563 (133) -0.1280 (134) -0.1435 (136)
           0.1858 (139)  0.1071 (140)  0.1432 (141)  0.1940 (142)  0.1187 (144)
          -0.1858 (145)  0.1435 (148)  0.1281 (149) -0.1941 (151) -0.1071 (152)
          -0.1432 (153) -0.1187 (154) -0.1370 (156)  0.1045 (157)  0.1370 (159)
          -0.1045 (160)
 CRD 10=   0.2693 (  1)  0.3009 (  2)  0.3008 (  5)  0.1768 (  6)  0.2021 (  7)
           0.1398 (  8)  0.2021 ( 10)  0.1769 ( 11)  0.1398 ( 13)  0.2181 ( 14)
           0.1474 ( 18)  0.2181 ( 19)  0.1474 ( 23)  0.1507 ( 34)  0.1506 ( 35)
          -0.1229 ( 38)  0.1507 ( 40)  0.1506 ( 41) -0.1229 ( 44)  0.1157 ( 47)
          -0.1438 ( 48)  0.1601 ( 49)  0.1157 ( 54) -0.1438 ( 55)  0.1601 ( 56)
           0.1258 ( 63)  0.1258 ( 71)  0.1025 ( 77)  0.1024 ( 81)
 CRD 11=  -0.1039 (  7) -0.1049 (  9)  0.1039 ( 10)  0.1049 ( 12)  0.2033 ( 15)
           0.1166 ( 18) -0.2032 ( 20) -0.1167 ( 23) -0.1846 ( 25) -0.1017 ( 26)
          -0.2583 ( 27)  0.1841 ( 29)  0.1015 ( 30)  0.2579 ( 31)  0.1064 ( 39)
          -0.1064 ( 43) -0.1342 ( 52)  0.1342 ( 59) -0.1623 ( 60)  0.1588 ( 62)
          -0.1834 ( 63)  0.1130 ( 65)  0.1623 ( 68) -0.1584 ( 70)  0.1834 ( 71)
          -0.1128 ( 73) -0.2039 ( 84) -0.2065 ( 85)  0.2036 ( 86)  0.2062 ( 87)
 CRD 12=  -0.1432 (  7)  0.1433 ( 10)  0.2847 ( 16) -0.2851 ( 22)  0.1677 ( 25)
           0.1422 ( 26)  0.2251 ( 27) -0.1679 ( 29) -0.1424 ( 30) -0.2253 ( 31)
           0.1894 ( 32) -0.1896 ( 33) -0.2562 ( 47)  0.1220 ( 50) -0.1221 ( 53)
           0.2565 ( 54)  0.1224 ( 61) -0.1658 ( 62) -0.1225 ( 69)  0.1660 ( 70)
          -0.1563 ( 77)  0.1624 ( 78)  0.1342 ( 79)  0.1563 ( 81) -0.1624 ( 82)
          -0.1344 ( 83)
 CRD 13=  -0.1801 ( 16) -0.1798 ( 22) -0.2553 ( 25) -0.1700 ( 26) -0.3165 ( 27)
          -0.2552 ( 29) -0.1701 ( 30) -0.3166 ( 31) -0.1559 ( 32) -0.1556 ( 33)
           0.1914 ( 47)  0.1913 ( 54)  0.2238 ( 62)  0.1203 ( 64)  0.2238 ( 70)
           0.1204 ( 72) -0.1313 ( 78) -0.1009 ( 79) -0.1312 ( 82) -0.1010 ( 83)
          -0.1809 ( 84) -0.1435 ( 85) -0.1810 ( 86) -0.1436 ( 87)
 CRD 14=   0.1051 ( 88) -0.1130 ( 91) -0.2521 ( 93) -0.1760 ( 96)  0.2521 (104)
           0.1129 (105)  0.1761 (106) -0.1051 (107)  0.1467 (108)  0.1951 (109)
           0.1436 (112)  0.1164 (115)  0.1143 (121)  0.1913 (122) -0.1163 (124)
          -0.1436 (127) -0.1467 (129) -0.1951 (130) -0.1914 (132) -0.1143 (133)
          -0.1479 (134) -0.1939 (135) -0.1476 (137)  0.1300 (138) -0.1005 (139)
          -0.2486 (143) -0.1103 (144)  0.1005 (145)  0.1939 (146)  0.1475 (147)
           0.1479 (149) -0.1300 (150)  0.1102 (154)  0.2486 (155)
 CRD 15=  -0.2804 ( 16) -0.2786 ( 22)  0.2321 ( 25)  0.2299 ( 29)  0.1696 ( 47)
           0.1687 ( 54) -0.1404 ( 62) -0.2174 ( 65) -0.1389 ( 70) -0.2161 ( 73)
           0.2377 ( 76) -0.1610 ( 78) -0.2339 ( 79)  0.2350 ( 80) -0.1593 ( 82)
          -0.2319 ( 83)  0.1276 ( 84)  0.2164 ( 85)  0.1271 ( 86)  0.2146 ( 87)
 CRD 16=  -0.2073 ( 16) -0.1254 ( 17)  0.1263 ( 21)  0.2099 ( 22)  0.2448 ( 25)
          -0.2470 ( 29)  0.1071 ( 47)  0.1154 ( 50) -0.1161 ( 53) -0.1087 ( 54)
          -0.1703 ( 62) -0.1688 ( 65)  0.1717 ( 70)  0.1711 ( 73)  0.2777 ( 76)
          -0.1262 ( 77) -0.1516 ( 78) -0.2226 ( 79) -0.2797 ( 80)  0.1270 ( 81)
           0.1528 ( 82)  0.2248 ( 83)  0.1906 ( 85) -0.1925 ( 87)
 CRD 17=   0.1524 (  7) -0.1363 (  8) -0.2843 (  9)  0.1524 ( 10) -0.2860 ( 12)
          -0.1367 ( 13)  0.1284 ( 17)  0.1283 ( 21)  0.1150 ( 24)  0.1800 ( 27)
           0.1150 ( 28)  0.1801 ( 31)  0.1166 ( 34)  0.1152 ( 36)  0.1178 ( 40)
           0.1155 ( 45) -0.1173 ( 50) -0.2581 ( 51) -0.1172 ( 53) -0.2596 ( 58)
          -0.1126 ( 61)  0.1200 ( 62)  0.2162 ( 63) -0.2318 ( 66) -0.1125 ( 69)
           0.1197 ( 70)  0.2151 ( 71) -0.2333 ( 75) -0.1150 ( 76) -0.1148 ( 80)
 CRD 18=  -0.3392 (  9)  0.3390 ( 12) -0.1193 ( 18)  0.1196 ( 23)  0.2572 ( 34)
          -0.2579 ( 40) -0.3062 ( 51)  0.3061 ( 58) -0.2134 ( 63) -0.3178 ( 66)
           0.2139 ( 71)  0.3176 ( 75)
 CRD 19=  -0.1573 (  7) -0.2094 (  9) -0.1576 ( 10) -0.2074 ( 12) -0.1176 ( 17)
          -0.1001 ( 18) -0.1178 ( 21) -0.1154 ( 24) -0.2502 ( 27) -0.1156 ( 28)
          -0.2507 ( 31)  0.2065 ( 34)  0.2050 ( 40) -0.1770 ( 47) -0.1786 ( 51)
          -0.1772 ( 54) -0.1769 ( 58)  0.1017 ( 63)  0.2047 ( 65) -0.1786 ( 66)
           0.1029 ( 71)  0.2050 ( 73) -0.1767 ( 75)  0.1698 ( 76) -0.1219 ( 78)
           0.1701 ( 80) -0.1221 ( 82) -0.1585 ( 84) -0.1588 ( 86)
 CRD 20=  -0.1644 ( 15)  0.1644 ( 20) -0.1113 ( 24) -0.2649 ( 27)  0.1116 ( 28)
           0.2649 ( 31) -0.1763 ( 47)  0.1018 ( 52)  0.1759 ( 54) -0.1019 ( 59)
          -0.1707 ( 62)  0.2773 ( 65)  0.1706 ( 70) -0.2767 ( 73)  0.1773 ( 76)
          -0.2126 ( 78)  0.1256 ( 79) -0.1770 ( 80)  0.2121 ( 82) -0.1250 ( 83)
          -0.1774 ( 84)  0.1048 ( 85)  0.1768 ( 86) -0.1044 ( 87)
 CRD 21=  -0.1382 (  7) -0.1373 ( 10) -0.1747 ( 16) -0.1634 ( 17) -0.1622 ( 21)
          -0.1738 ( 22) -0.1539 ( 24) -0.1916 ( 25) -0.1527 ( 28) -0.1912 ( 29)
           0.1055 ( 34)  0.1052 ( 40)  0.1435 ( 50)  0.1425 ( 53)  0.1376 ( 61)
          -0.1712 ( 65)  0.1367 ( 69) -0.1713 ( 73) -0.1759 ( 76)  0.2512 ( 78)
          -0.1616 ( 79) -0.1759 ( 80)  0.2509 ( 82) -0.1610 ( 83)  0.2362 ( 84)
          -0.2119 ( 85)  0.2356 ( 86) -0.2115 ( 87)
 CRD 22=   0.1597 (  7) -0.1602 ( 10)  0.1090 ( 15)  0.1757 ( 16)  0.2161 ( 17)
          -0.1090 ( 20) -0.2167 ( 21) -0.1765 ( 22)  0.2208 ( 24)  0.1634 ( 25)
          -0.2215 ( 28) -0.1644 ( 29)  0.1222 ( 48) -0.1817 ( 50)  0.1822 ( 53)
          -0.1225 ( 55) -0.1838 ( 61)  0.1327 ( 64)  0.1844 ( 69) -0.1331 ( 72)
           0.1383 ( 76) -0.1895 ( 78)  0.1497 ( 79) -0.1394 ( 80)  0.1908 ( 82)
          -0.1504 ( 83) -0.2149 ( 84)  0.1623 ( 85)  0.2160 ( 86) -0.1633 ( 87)
 CRD 23=  -0.2508 (  1) -0.2602 (  8) -0.2602 ( 13) -0.1790 ( 15)  0.2060 ( 18)
          -0.1790 ( 20)  0.2060 ( 23) -0.1184 ( 24) -0.1183 ( 28) -0.1877 ( 34)
           0.2412 ( 36) -0.1876 ( 40)  0.2412 ( 45) -0.2313 ( 52) -0.2313 ( 59)
          -0.1317 ( 62)  0.2067 ( 63) -0.1090 ( 64) -0.1317 ( 70)  0.2066 ( 71)
          -0.1090 ( 72)
 CRD 24=  -0.2133 ( 90) -0.1266 ( 92) -0.1335 ( 93) -0.1267 ( 99) -0.2133 (103)
          -0.1335 (104)  0.1269 (108)  0.1424 (109)  0.2053 (110)  0.1217 (111)
           0.1386 (112)  0.1491 (114)  0.1491 (118)  0.2658 (119) -0.1567 (120)
           0.1218 (123)  0.2053 (126)  0.1386 (127)  0.1270 (129)  0.1424 (130)
          -0.1568 (131) -0.1177 (135) -0.1719 (139)  0.2358 (143)  0.1661 (144)
          -0.1719 (145) -0.1177 (146)  0.1660 (154)  0.2358 (155)  0.1081 (156)
           0.1081 (159)
 CRD 25=  -0.1289 ( 14) -0.1345 ( 17) -0.1288 ( 19) -0.1344 ( 21)  0.1732 ( 24)
           0.2368 ( 26)  0.1730 ( 28)  0.2365 ( 30) -0.2733 ( 32) -0.2731 ( 33)
          -0.1454 ( 61)  0.1024 ( 62) -0.1207 ( 63) -0.2343 ( 64)  0.1089 ( 65)
          -0.1452 ( 69)  0.1023 ( 70) -0.1205 ( 71) -0.2341 ( 72)  0.1088 ( 73)
          -0.1198 ( 76)  0.2561 ( 77) -0.1363 ( 78) -0.1197 ( 80)  0.2559 ( 81)
          -0.1362 ( 82)  0.1255 ( 84)  0.1253 ( 86)
 CRD 26=   0.1234 ( 14)  0.1402 ( 17) -0.1898 ( 18) -0.1236 ( 19) -0.1403 ( 21)
           0.1896 ( 23) -0.1866 ( 24) -0.2210 ( 26)  0.1869 ( 28)  0.2213 ( 30)
           0.2441 ( 32) -0.2443 ( 33)  0.1332 ( 52) -0.1332 ( 59)  0.1468 ( 61)
          -0.1232 ( 62)  0.1454 ( 63)  0.2093 ( 64) -0.1469 ( 69)  0.1234 ( 70)
          -0.1455 ( 71) -0.2096 ( 72)  0.1034 ( 76) -0.2282 ( 77)  0.1249 ( 78)
          -0.1035 ( 80)  0.2285 ( 81) -0.1250 ( 82) -0.1163 ( 84)  0.1164 ( 86)
 CRD 27=  -0.1111 ( 92)  0.1475 ( 94)  0.1750 ( 95) -0.1110 ( 99)  0.1752 (101)
           0.1476 (102) -0.1309 (110) -0.1040 (111) -0.1276 (115) -0.1902 (116)
           0.1085 (117) -0.1067 (122) -0.1039 (123) -0.1276 (124) -0.1903 (125)
          -0.1308 (126) -0.1069 (132) -0.1889 (134) -0.1416 (135) -0.1920 (136)
          -0.1883 (137)  0.1267 (139)  0.1300 (141)  0.1295 (142)  0.1267 (145)
          -0.1416 (146) -0.1884 (147) -0.1921 (148) -0.1889 (149)  0.1295 (151)
           0.1300 (153) -0.1338 (156)  0.1383 (157) -0.1422 (158) -0.1336 (159)
           0.1383 (160) -0.1422 (161)  0.1103 (164)  0.1104 (165)
 CRD 28=  -0.1251 (  2)  0.1252 (  5)  0.1647 (  6)  0.1019 (  7)  0.2245 (  8)
          -0.1019 ( 10) -0.1647 ( 11) -0.2245 ( 13) -0.1283 ( 14)  0.1346 ( 15)
           0.1147 ( 16) -0.1978 ( 18)  0.1284 ( 19) -0.1346 ( 20) -0.1147 ( 22)
           0.1978 ( 23)  0.1944 ( 26) -0.1944 ( 30) -0.1336 ( 35) -0.2186 ( 36)
           0.1058 ( 37)  0.1336 ( 41) -0.1058 ( 42)  0.2186 ( 45)  0.1341 ( 50)
          -0.1472 ( 51)  0.1398 ( 52) -0.1341 ( 53)  0.1472 ( 58) -0.1398 ( 59)
          -0.1321 ( 60)  0.1828 ( 66)  0.1321 ( 68) -0.1829 ( 75) -0.1460 ( 79)
           0.1460 ( 83)
 CRD 29=   0.1521 ( 94)  0.1275 ( 95)  0.1083 ( 96) -0.1274 (101) -0.1520 (102)
          -0.1084 (106)  0.1554 (108)  0.1154 (111)  0.1419 (112)  0.1863 (113)
          -0.1233 (115) -0.1112 (116) -0.1839 (122) -0.1154 (123)  0.1232 (124)
           0.1111 (125) -0.1419 (127) -0.1862 (128) -0.1554 (129)  0.1839 (132)
          -0.1152 (134) -0.1404 (136) -0.1041 (137) -0.1646 (138) -0.1177 (144)
           0.1039 (147)  0.1402 (148)  0.1151 (149)  0.1647 (150)  0.1178 (154)
           0.1598 (156) -0.1492 (158) -0.1598 (159)  0.1489 (161)  0.1813 (162)
          -0.1812 (163)  0.1400 (164) -0.1400 (165)  0.1180 (166) -0.1180 (167)
 CRD 30=   0.1643 (  1)  0.1961 (  3)  0.1960 (  4) -0.1282 (  6)  0.1109 (  8)
           0.1899 (  9) -0.1279 ( 11)  0.1901 ( 12)  0.1113 ( 13)  0.1619 ( 14)
          -0.2321 ( 15) -0.1319 ( 16)  0.1618 ( 19) -0.2321 ( 20) -0.1318 ( 22)
          -0.1310 ( 25) -0.1857 ( 26) -0.1309 ( 29) -0.1856 ( 30) -0.1640 ( 32)
          -0.1640 ( 33) -0.1497 ( 35)  0.1398 ( 38) -0.1498 ( 41)  0.1397 ( 44)
          -0.1089 ( 50) -0.1477 ( 51) -0.1090 ( 53) -0.1477 ( 58) -0.1286 ( 62)
          -0.1286 ( 70)  0.1564 ( 79)  0.1563 ( 83)  0.1800 ( 85)  0.1800 ( 87)
 CRD 31=   0.2104 ( 90) -0.1042 ( 91)  0.1471 ( 92) -0.1304 ( 94)  0.1471 ( 99)
          -0.1304 (102)  0.2105 (103) -0.1042 (105)  0.1513 (108)  0.1332 (112)
           0.2069 (113)  0.1428 (115) -0.1340 (119)  0.1601 (122)  0.1427 (124)
           0.1333 (127)  0.2069 (128)  0.1514 (129)  0.1600 (132) -0.1032 (134)
          -0.1475 (136) -0.1959 (138) -0.1392 (140) -0.1475 (148) -0.1032 (149)
          -0.1959 (150) -0.1392 (152) -0.1621 (158) -0.1621 (161)  0.1968 (162)
           0.1969 (163) -0.1273 (164) -0.1272 (165)  0.1087 (166)  0.1088 (167)
 CRD 32=   0.2898 (  2) -0.2898 (  5)  0.2033 (  6) -0.1095 (  7)  0.2700 (  8)
           0.1095 ( 10) -0.2035 ( 11) -0.2699 ( 13) -0.1281 ( 14)  0.1852 ( 17)
           0.2297 ( 18)  0.1284 ( 19) -0.1852 ( 21) -0.2297 ( 23) -0.1135 ( 24)
           0.1134 ( 28)  0.1997 ( 34) -0.1998 ( 40) -0.1149 ( 46)  0.1624 ( 47)
          -0.1625 ( 54)  0.1149 ( 57) -0.1368 ( 66)  0.1368 ( 75) -0.1019 ( 79)
           0.1020 ( 83)
 CRD 33=   0.1088 (  1) -0.1830 (  6) -0.1830 ( 11)  0.1656 ( 14) -0.3002 ( 17)
           0.1039 ( 18)  0.1655 ( 19) -0.3001 ( 21)  0.1040 ( 23)  0.2362 ( 24)
           0.2361 ( 28) -0.1175 ( 34)  0.1366 ( 35)  0.1647 ( 39) -0.1175 ( 40)
           0.1366 ( 41)  0.1647 ( 43) -0.1308 ( 47)  0.1129 ( 48) -0.1278 ( 51)
          -0.1308 ( 54)  0.1128 ( 55) -0.1279 ( 58) -0.1263 ( 60)  0.1643 ( 63)
           0.1494 ( 66) -0.1587 ( 67) -0.1262 ( 68)  0.1643 ( 71) -0.1587 ( 74)
           0.1494 ( 75)
 CRD 34=  -0.1050 ( 93)  0.1048 (104)  0.1164 (108)  0.1888 (109) -0.1386 (113)
           0.1385 (128) -0.1160 (129) -0.1884 (130)  0.1056 (135)  0.1781 (137)
          -0.1335 (140) -0.2051 (141)  0.1276 (144) -0.1053 (146) -0.1778 (147)
           0.1330 (152)  0.2047 (153) -0.1279 (154) -0.2768 (157)  0.2532 (158)
           0.2764 (160) -0.2528 (161)  0.1326 (166) -0.1322 (167)  0.1807 (168)
          -0.2051 (169) -0.1803 (170)  0.2047 (171)
 CRD 35=  -0.1094 ( 88) -0.1641 ( 94) -0.2486 ( 95)  0.2491 (101)  0.1645 (102)
           0.1095 (107)  0.1061 (108) -0.2133 (110) -0.1306 (111)  0.1212 (113)
           0.1198 (116)  0.1302 (123) -0.1199 (125)  0.2127 (126) -0.1215 (128)
          -0.1054 (129)  0.1431 (135) -0.1907 (136)  0.1108 (139) -0.2106 (140)
          -0.1107 (145) -0.1423 (146)  0.1903 (148)  0.2096 (152)  0.2419 (162)
          -0.2410 (163) -0.1684 (164)  0.1690 (165)  0.1089 (166) -0.1081 (167)
 CRD 36=  -0.1009 ( 91)  0.1110 ( 95)  0.1099 (101) -0.1014 (105)  0.1485 (108)
           0.1374 (109) -0.1143 (110) -0.1154 (126)  0.1493 (129)  0.1376 (130)
           0.1585 (135)  0.1453 (137) -0.2088 (140) -0.1958 (141) -0.1101 (144)
           0.1595 (146)  0.1458 (147) -0.2102 (152) -0.1967 (153) -0.1098 (154)
          -0.1847 (157)  0.1647 (158) -0.1851 (160)  0.1649 (161)  0.1871 (162)
           0.1884 (163)  0.1171 (164)  0.1163 (165)  0.1759 (166)  0.1767 (167)
           0.1779 (168) -0.1978 (169)  0.1786 (170) -0.1987 (171)
 CRD 37=   0.1857 (  3) -0.1857 (  4) -0.2058 (  9)  0.2059 ( 12)  0.1298 ( 14)
          -0.1299 ( 19) -0.1502 ( 25)  0.1501 ( 29) -0.2324 ( 32)  0.2324 ( 33)
           0.1013 ( 34) -0.1013 ( 40) -0.1581 ( 46)  0.1732 ( 48) -0.1701 ( 49)
           0.1978 ( 51) -0.1732 ( 55)  0.1700 ( 56)  0.1582 ( 57) -0.1978 ( 58)
          -0.1446 ( 60) -0.1579 ( 62)  0.1375 ( 63)  0.1445 ( 68)  0.1578 ( 70)
          -0.1375 ( 71)  0.2215 ( 85) -0.2214 ( 87)
 CRD 38=  -0.2584 (  1)  0.2647 (  8)  0.2647 ( 13)  0.1098 ( 16) -0.2491 ( 18)
           0.1098 ( 22) -0.2491 ( 23)  0.1793 ( 26)  0.1793 ( 30)  0.1634 ( 37)
          -0.1071 ( 38)  0.1635 ( 42) -0.1071 ( 44)  0.1445 ( 47)  0.1069 ( 48)
          -0.1409 ( 49) -0.1516 ( 51)  0.1446 ( 54)  0.1070 ( 55) -0.1410 ( 56)
          -0.1515 ( 58) -0.1233 ( 60) -0.1264 ( 62)  0.1268 ( 63)  0.1229 ( 66)
          -0.1234 ( 68) -0.1266 ( 70)  0.1268 ( 71)  0.1229 ( 75) -0.1594 ( 79)
          -0.1594 ( 83)  0.1221 ( 85)  0.1223 ( 87)
 CRD 39=   0.1011 (  2) -0.1841 (  3)  0.1842 (  4) -0.1011 (  5) -0.1086 (  7)
           0.1910 (  8)  0.1146 (  9)  0.1085 ( 10) -0.1146 ( 12) -0.1911 ( 13)
           0.1238 ( 14) -0.2595 ( 17) -0.1238 ( 19)  0.2595 ( 21)  0.3322 ( 24)
          -0.1078 ( 26) -0.3321 ( 28)  0.1077 ( 30)  0.1321 ( 32) -0.1322 ( 33)
          -0.1357 ( 37) -0.1189 ( 38)  0.1319 ( 39)  0.1357 ( 42) -0.1319 ( 43)
           0.1190 ( 44) -0.1142 ( 46)  0.1142 ( 57) -0.1298 ( 66)  0.1111 ( 67)
          -0.1111 ( 74)  0.1298 ( 75) -0.1003 ( 84)  0.1003 ( 86)
 CRD 40=  -0.1723 (  1) -0.1633 (  3) -0.1636 (  4) -0.1710 (  7)  0.1158 (  8)
           0.1385 (  9) -0.1710 ( 10)  0.1385 ( 12)  0.1156 ( 13)  0.3240 ( 18)
           0.3241 ( 23)  0.1987 ( 24)  0.1987 ( 28)  0.1900 ( 34)  0.1375 ( 38)
           0.1901 ( 40)  0.1375 ( 44)  0.1591 ( 47)  0.1594 ( 54)  0.1335 ( 65)
          -0.1801 ( 66)  0.1336 ( 73) -0.1803 ( 75)  0.1229 ( 78) -0.1587 ( 79)
           0.1228 ( 82) -0.1589 ( 83) -0.1360 ( 84) -0.1361 ( 86)
 CRD 41=   0.2184 (  3) -0.2182 (  4)  0.2472 (  8) -0.2473 ( 13)  0.1431 ( 17)
          -0.1293 ( 18) -0.1430 ( 21)  0.1289 ( 23) -0.2999 ( 26)  0.3000 ( 30)
          -0.1995 ( 32)  0.1994 ( 33) -0.1035 ( 37)  0.1035 ( 42) -0.1910 ( 47)
          -0.1073 ( 51)  0.1908 ( 54)  0.1072 ( 58) -0.1306 ( 63) -0.1296 ( 65)
           0.1306 ( 71)  0.1294 ( 73)  0.1829 ( 79) -0.1828 ( 83)  0.1442 ( 84)
          -0.1440 ( 86)
 CRD 42=  -0.1076 ( 15) -0.1347 ( 16) -0.2148 ( 17) -0.2184 ( 18) -0.1075 ( 20)
          -0.2147 ( 21) -0.1345 ( 22) -0.2186 ( 23)  0.1552 ( 24)  0.1302 ( 25)
          -0.2663 ( 26)  0.1552 ( 28)  0.1300 ( 29) -0.2658 ( 30)  0.2525 ( 32)
           0.2524 ( 33)  0.1997 ( 65)  0.1995 ( 73) -0.2047 ( 76)  0.1639 ( 78)
          -0.2044 ( 80)  0.1637 ( 82) -0.1673 ( 84) -0.1671 ( 86)
 CRD 43=   0.1592 ( 90)  0.1591 (103)  0.2511 (109) -0.1711 (113) -0.1150 (116)
           0.2021 (117) -0.1151 (125) -0.1711 (128)  0.2512 (130) -0.2135 (135)
           0.1114 (136) -0.2308 (138)  0.1818 (140) -0.1300 (144) -0.2135 (146)
           0.1115 (148) -0.2307 (150)  0.1819 (152) -0.1300 (154) -0.2109 (157)
           0.1652 (158) -0.2109 (160)  0.1653 (161) -0.1238 (162) -0.1239 (163)
          -0.1175 (164) -0.1176 (165)
 CRD 44=  -0.1517 (  3)  0.1518 (  4) -0.1314 (  6)  0.1318 ( 11)  0.1106 ( 15)
           0.1213 ( 16)  0.1285 ( 17) -0.1141 ( 18) -0.1105 ( 20) -0.1285 ( 21)
          -0.1212 ( 22)  0.1138 ( 23) -0.1375 ( 25)  0.2907 ( 26)  0.1378 ( 29)
          -0.2916 ( 30) -0.1732 ( 32)  0.1729 ( 33)  0.1178 ( 39) -0.1179 ( 43)
           0.1074 ( 62) -0.1880 ( 65)  0.1280 ( 67) -0.1078 ( 70)  0.1882 ( 73)
          -0.1279 ( 74)  0.2215 ( 76) -0.1722 ( 78) -0.2219 ( 80)  0.1727 ( 82)
           0.1470 ( 84) -0.1471 ( 86)
 CRD 45=   0.1269 (  6)  0.1267 ( 11)  0.1559 ( 15)  0.1120 ( 16)  0.2096 ( 17)
           0.1561 ( 20)  0.2098 ( 21)  0.1123 ( 22)  0.2212 ( 24) -0.2712 ( 26)
          -0.1724 ( 27)  0.2213 ( 28) -0.2707 ( 30) -0.1724 ( 31) -0.3310 ( 32)
          -0.3313 ( 33) -0.1569 ( 62) -0.1567 ( 70) -0.1052 ( 76)  0.1386 ( 78)
          -0.1048 ( 80)  0.1384 ( 82)
 CRD 46=   0.1058 (  2)  0.2136 (  3) -0.2136 (  4) -0.1059 (  5)  0.1452 (  8)
          -0.1451 ( 13) -0.1413 ( 15) -0.1508 ( 16) -0.2420 ( 17)  0.1412 ( 20)
           0.2419 ( 21)  0.1507 ( 22) -0.2543 ( 24)  0.1853 ( 27)  0.2543 ( 28)
          -0.1852 ( 31)  0.2387 ( 32) -0.2386 ( 33) -0.1065 ( 37)  0.1065 ( 42)
           0.1236 ( 62) -0.1235 ( 70) -0.1362 ( 78)  0.1361 ( 82)
 CRD 47=  -0.2216 (  1)  0.1140 (  6) -0.1158 (  7)  0.3671 (  8) -0.1159 ( 10)
           0.1140 ( 11)  0.3670 ( 13) -0.2051 ( 14) -0.1166 ( 15)  0.1389 ( 17)
           0.1081 ( 18) -0.2051 ( 19) -0.1166 ( 20)  0.1389 ( 21)  0.1080 ( 23)
           0.1308 ( 24) -0.1174 ( 26)  0.1307 ( 28) -0.1173 ( 30)  0.1377 ( 32)
           0.1378 ( 33) -0.1130 ( 47) -0.1064 ( 51) -0.1129 ( 54) -0.1064 ( 58)
           0.1457 ( 62)  0.1531 ( 63)  0.1458 ( 70)  0.1530 ( 71)  0.1221 ( 84)
          -0.1629 ( 85)  0.1221 ( 86) -0.1629 ( 87)
 CRD 48=  -0.2128 (  2)  0.2129 (  5)  0.2627 (  7)  0.2032 (  8) -0.2627 ( 10)
          -0.2033 ( 13)  0.1311 ( 14)  0.1313 ( 15) -0.2148 ( 17)  0.3334 ( 18)
          -0.1310 ( 19) -0.1312 ( 20)  0.2147 ( 21) -0.3334 ( 23) -0.1743 ( 24)
           0.1742 ( 28) -0.2060 ( 32)  0.2059 ( 33) -0.1078 ( 62)  0.1078 ( 70)
 CRD 49=   0.1449 (  2) -0.1449 (  5) -0.1513 (  6)  0.1268 (  8)  0.1513 ( 11)
          -0.1267 ( 13)  0.1554 ( 14)  0.1167 ( 15) -0.1808 ( 18) -0.1554 ( 19)
          -0.1167 ( 20)  0.1808 ( 23)  0.1640 ( 26) -0.1640 ( 30) -0.2076 ( 34)
           0.2075 ( 40)  0.1284 ( 46)  0.1687 ( 47) -0.1455 ( 51) -0.1688 ( 54)
          -0.1284 ( 57)  0.1455 ( 58) -0.1249 ( 62) -0.2053 ( 63)  0.1236 ( 66)
           0.1249 ( 70)  0.2053 ( 71) -0.1236 ( 75)  0.1120 ( 78) -0.1385 ( 79)
          -0.1121 ( 82)  0.1385 ( 83) -0.1397 ( 84)  0.1355 ( 85)  0.1397 ( 86)
          -0.1355 ( 87)
 CRD 50=  -0.2151 (  1)  0.1711 (  6)  0.1922 (  7)  0.1821 (  8)  0.1922 ( 10)
           0.1711 ( 11)  0.1821 ( 13)  0.1075 ( 15) -0.2793 ( 17)  0.1074 ( 20)
          -0.2793 ( 21) -0.2803 ( 24) -0.2290 ( 26)  0.1686 ( 27) -0.2803 ( 28)
          -0.2290 ( 30)  0.1686 ( 31) -0.1781 ( 32) -0.1781 ( 33) -0.1111 ( 66)
          -0.1111 ( 75)
 CRD 51=   0.1142 ( 88) -0.1963 ( 90) -0.1668 ( 91)  0.2546 ( 95) -0.2546 (101)
           0.1963 (103)  0.1668 (105) -0.1142 (107) -0.1714 (109)  0.2253 (110)
           0.1871 (115) -0.1871 (124) -0.2252 (126)  0.1714 (130)  0.2200 (135)
          -0.1165 (136)  0.2027 (138) -0.1601 (140) -0.2199 (146)  0.1164 (148)
          -0.2026 (150)  0.1602 (152)  0.1418 (156)  0.1468 (157) -0.1418 (159)
          -0.1468 (160)  0.1338 (168) -0.1337 (170)
 CRD 52=  -0.1956 (  2)  0.1761 (  3) -0.1761 (  4)  0.1956 (  5) -0.1443 (  6)
           0.2068 (  8)  0.1443 ( 11) -0.2068 ( 13)  0.1889 ( 14) -0.1514 ( 15)
          -0.1095 ( 16)  0.2111 ( 17)  0.2300 ( 18) -0.1890 ( 19)  0.1514 ( 20)
          -0.2111 ( 21)  0.1095 ( 22) -0.2300 ( 23)  0.2238 ( 24) -0.1169 ( 25)
           0.2061 ( 26) -0.1782 ( 27) -0.2239 ( 28)  0.1169 ( 29) -0.2061 ( 30)
           0.1782 ( 31)  0.2073 ( 32) -0.2073 ( 33)
 CRD 53=   0.2518 (  1) -0.2413 (  3) -0.2412 (  4)  0.1432 (  7) -0.1199 (  8)
           0.3293 (  9)  0.1432 ( 10)  0.3294 ( 12) -0.1200 ( 13) -0.1317 ( 14)
          -0.1651 ( 15)  0.2417 ( 16) -0.1324 ( 18) -0.1317 ( 19) -0.1650 ( 20)
           0.2416 ( 22) -0.1325 ( 23)  0.1387 ( 25) -0.1047 ( 26)  0.1387 ( 29)
          -0.1047 ( 30) -0.1154 ( 51) -0.1153 ( 58)  0.1437 ( 63)  0.1438 ( 71)
          -0.1191 ( 85) -0.1191 ( 87)
 CRD 54=   0.3291 (  1) -0.1744 (  2) -0.1744 (  5) -0.1861 (  6) -0.1860 ( 11)
          -0.2169 ( 14)  0.1618 ( 17)  0.2322 ( 18) -0.2168 ( 19)  0.1618 ( 21)
           0.2322 ( 23) -0.1726 ( 24)  0.2274 ( 25) -0.1725 ( 28)  0.2273 ( 29)
          -0.1321 ( 38) -0.1321 ( 44)  0.1063 ( 46)  0.1083 ( 52)  0.1063 ( 57)
           0.1084 ( 59)  0.1018 ( 65)  0.1018 ( 73) -0.1331 ( 76)  0.1287 ( 78)
          -0.1222 ( 79) -0.1330 ( 80)  0.1286 ( 82) -0.1222 ( 83)
 CRD 55=  -0.1883 (  2) -0.1884 (  5) -0.1302 (  6)  0.3092 (  7)  0.1564 (  8)
           0.3091 ( 10) -0.1301 ( 11)  0.1563 ( 13) -0.1011 ( 18) -0.1012 ( 23)
           0.1690 ( 26) -0.2599 ( 27)  0.1691 ( 30) -0.2598 ( 31)  0.1117 ( 32)
           0.1117 ( 33)  0.1197 ( 39)  0.1196 ( 43)  0.1509 ( 51)  0.1509 ( 58)
          -0.1047 ( 62) -0.1007 ( 65) -0.1785 ( 66)  0.1137 ( 67) -0.1048 ( 70)
          -0.1007 ( 73)  0.1136 ( 74) -0.1785 ( 75)
 CRD 56=  -0.1526 (  2)  0.1538 (  5)  0.1725 (  6) -0.1917 (  7)  0.1971 (  9)
           0.1912 ( 10) -0.1747 ( 11) -0.1982 ( 12)  0.2709 ( 15) -0.3076 ( 16)
          -0.2698 ( 20)  0.3086 ( 22) -0.2066 ( 25)  0.1678 ( 27)  0.2076 ( 29)
          -0.1675 ( 31)  0.1322 ( 34) -0.1336 ( 40) -0.1039 ( 47)  0.1054 ( 54)
          -0.1031 ( 84)  0.1276 ( 85)  0.1020 ( 86) -0.1286 ( 87)
 CRD 57=   0.1143 (  2)  0.1125 (  5) -0.1845 (  6)  0.1813 (  8) -0.1076 (  9)
          -0.1824 ( 11) -0.1053 ( 12)  0.1804 ( 13)  0.1054 ( 15) -0.1063 ( 18)
           0.1085 ( 20) -0.1068 ( 23) -0.2169 ( 32) -0.2164 ( 33) -0.1244 ( 34)
          -0.1782 ( 35)  0.1385 ( 36) -0.1528 ( 37)  0.1420 ( 38) -0.1228 ( 40)
          -0.1788 ( 41) -0.1524 ( 42)  0.1425 ( 44)  0.1379 ( 45)  0.1301 ( 47)
          -0.1275 ( 48)  0.1675 ( 49) -0.1172 ( 52)  0.1289 ( 54) -0.1277 ( 55)
           0.1680 ( 56) -0.1169 ( 59)  0.1790 ( 60)  0.1789 ( 68) -0.1421 ( 77)
          -0.1419 ( 81)
 CRD 58=  -0.2319 ( 90)  0.1673 ( 96)  0.2320 (103) -0.1672 (106)  0.1155 (109)
          -0.1643 (113)  0.1076 (114)  0.1233 (115) -0.1075 (118) -0.1234 (124)
           0.1637 (128) -0.1159 (130) -0.1837 (135) -0.1574 (136)  0.1424 (138)
           0.1918 (140)  0.1748 (144)  0.1838 (146)  0.1568 (148) -0.1426 (150)
          -0.1918 (152) -0.1750 (154)  0.1097 (156)  0.1294 (158) -0.1096 (159)
          -0.1290 (161)  0.1239 (162) -0.1235 (163) -0.1223 (164)  0.1218 (165)
           0.2258 (166) -0.2257 (167)
 CRD 59=  -0.1933 (  2)  0.1044 (  3) -0.1046 (  4)  0.1934 (  5) -0.2125 (  6)
           0.1183 (  8)  0.2128 ( 11) -0.1185 ( 13)  0.1975 ( 17) -0.1977 ( 21)
          -0.2339 ( 24)  0.2804 ( 25)  0.2341 ( 28) -0.2806 ( 29)  0.1246 ( 50)
          -0.1247 ( 53) -0.1408 ( 61)  0.1555 ( 62)  0.1509 ( 65) -0.1341 ( 66)
           0.1041 ( 67)  0.1409 ( 69) -0.1556 ( 70) -0.1510 ( 73) -0.1041 ( 74)
           0.1342 ( 75) -0.1046 ( 76) -0.1532 ( 79)  0.1047 ( 80)  0.1533 ( 83)
 CRD 60=  -0.1762 ( 91) -0.1808 ( 95) -0.1805 (101) -0.1760 (105) -0.1209 (109)
           0.2228 (110) -0.2142 (113)  0.1447 (120)  0.1106 (121)  0.2231 (126)
          -0.2143 (128) -0.1203 (130)  0.1448 (131)  0.1104 (133) -0.2101 (136)
          -0.2103 (148)  0.1397 (157)  0.1684 (158)  0.1392 (160)  0.1685 (161)
           0.1666 (162)  0.1666 (163) -0.2067 (164) -0.2072 (165)  0.1816 (168)
           0.1267 (169)  0.1812 (170)  0.1266 (171)
 CRD 61=   0.1210 (  2) -0.1208 (  5) -0.1022 (  6)  0.2501 (  7) -0.1340 (  8)
          -0.2502 ( 10)  0.1018 ( 11)  0.1340 ( 13) -0.1402 ( 14)  0.1016 ( 15)
          -0.1104 ( 16)  0.1408 ( 19) -0.1020 ( 20)  0.1108 ( 22)  0.1959 ( 26)
          -0.2585 ( 27) -0.1961 ( 30)  0.2583 ( 31) -0.1485 ( 37)  0.1628 ( 39)
           0.1485 ( 42) -0.1627 ( 43) -0.1500 ( 46) -0.1034 ( 47)  0.1036 ( 54)
           0.1498 ( 57)  0.1028 ( 64) -0.1029 ( 72) -0.1683 ( 76)  0.1474 ( 78)
           0.1682 ( 80) -0.1475 ( 82)  0.1108 ( 85) -0.1110 ( 87)
 CRD 62=  -0.2213 (  1)  0.1646 (  3)  0.1648 (  4) -0.1838 (  6) -0.1637 (  9)
          -0.1839 ( 11) -0.1635 ( 12)  0.2362 ( 14) -0.2681 ( 15)  0.2544 ( 16)
           0.2359 ( 19) -0.2679 ( 20)  0.2542 ( 22)  0.1795 ( 25) -0.1076 ( 26)
           0.1796 ( 29) -0.1071 ( 30)  0.1381 ( 47)  0.1380 ( 54)  0.1462 ( 62)
          -0.1444 ( 63)  0.1460 ( 70) -0.1445 ( 71) -0.1184 ( 79) -0.1182 ( 83)
          -0.1091 ( 85) -0.1090 ( 87)
 CRD 63=  -0.2923 (  3)  0.2921 (  4)  0.1297 (  6) -0.1295 ( 11)  0.1000 ( 17)
          -0.1001 ( 21) -0.1124 ( 24) -0.1081 ( 25) -0.1170 ( 26)  0.1124 ( 28)
           0.1079 ( 29)  0.1172 ( 30)  0.2360 ( 32) -0.2360 ( 33)  0.1092 ( 37)
          -0.1093 ( 42) -0.1228 ( 47)  0.1188 ( 48) -0.1209 ( 49)  0.1240 ( 50)
          -0.1241 ( 53)  0.1228 ( 54) -0.1190 ( 55)  0.1210 ( 56) -0.1828 ( 60)
          -0.1239 ( 61) -0.1294 ( 64)  0.1829 ( 68)  0.1240 ( 69)  0.1295 ( 72)
           0.1933 ( 77) -0.1933 ( 81)  0.1226 ( 84)  0.1399 ( 85) -0.1226 ( 86)
          -0.1398 ( 87)
 CRD 64=  -0.1525 (  1) -0.1204 (  6)  0.1175 (  9) -0.1204 ( 11)  0.1175 ( 12)
           0.1387 ( 14) -0.1370 ( 16)  0.2147 ( 17) -0.1879 ( 18)  0.1387 ( 19)
           0.2146 ( 21) -0.1371 ( 22) -0.1878 ( 23) -0.1994 ( 24)  0.1463 ( 25)
          -0.1992 ( 28)  0.1463 ( 29)  0.1215 ( 38)  0.1473 ( 39)  0.1474 ( 43)
           0.1214 ( 44)  0.1025 ( 48)  0.1631 ( 50) -0.1342 ( 52)  0.1630 ( 53)
           0.1024 ( 55) -0.1341 ( 59) -0.1526 ( 61)  0.1161 ( 62)  0.1335 ( 65)
          -0.1769 ( 67) -0.1524 ( 69)  0.1159 ( 70)  0.1334 ( 73) -0.1770 ( 74)
 CRD 65=  -0.1399 (  2)  0.1400 (  5) -0.1235 (  8)  0.3753 (  9) -0.3753 ( 12)
           0.1236 ( 13)  0.1808 ( 14) -0.1288 ( 15)  0.2023 ( 16) -0.1228 ( 18)
          -0.1807 ( 19)  0.1288 ( 20) -0.2022 ( 22)  0.1228 ( 23) -0.1072 ( 27)
           0.1071 ( 31)  0.1641 ( 34) -0.1642 ( 40) -0.1239 ( 49) -0.1044 ( 51)
           0.1239 ( 56)  0.1044 ( 58) -0.1920 ( 63)  0.1920 ( 71)  0.1173 ( 84)
          -0.1173 ( 86)
 CRD 66=   0.1260 ( 89) -0.1418 ( 90)  0.1603 ( 91)  0.1066 ( 96)  0.1051 ( 97)
          -0.1261 ( 98) -0.1051 (100)  0.1418 (103) -0.1606 (105) -0.1066 (106)
           0.1879 (109)  0.1801 (113)  0.1094 (115) -0.1095 (124) -0.1804 (128)
          -0.1881 (130)  0.1588 (136)  0.1686 (138)  0.1275 (139)  0.1208 (143)
          -0.1276 (145) -0.1591 (148) -0.1687 (150) -0.1207 (155) -0.1775 (157)
          -0.2136 (158)  0.1778 (160)  0.2139 (161) -0.1935 (162)  0.1937 (163)
          -0.1182 (164)  0.1179 (165) -0.1684 (168) -0.2222 (169)  0.1687 (170)
           0.2224 (171)
 CRD 67=  -0.2260 (  2)  0.2268 (  5)  0.1276 (  6)  0.2081 (  8) -0.1272 ( 11)
          -0.2084 ( 13) -0.2373 ( 14) -0.1304 ( 17) -0.1999 ( 18)  0.2369 ( 19)
           0.1301 ( 21)  0.2002 ( 23)  0.1045 ( 26) -0.1154 ( 27) -0.1039 ( 30)
           0.1145 ( 31)  0.1943 ( 36) -0.1946 ( 45)  0.1044 ( 46) -0.1172 ( 50)
           0.2002 ( 51) -0.1892 ( 52)  0.1168 ( 53) -0.1046 ( 57) -0.2005 ( 58)
           0.1894 ( 59)  0.1032 ( 64) -0.1100 ( 65) -0.1942 ( 66) -0.1027 ( 72)
           0.1095 ( 73)  0.1946 ( 75)  0.1017 ( 79) -0.1012 ( 83)
 CRD 68=  -0.1598 (  1)  0.2434 (  2)  0.2427 (  5) -0.1048 (  8) -0.1041 ( 13)
          -0.1087 ( 17) -0.1090 ( 21) -0.1390 ( 24)  0.1604 ( 25)  0.1559 ( 26)
          -0.3011 ( 27) -0.1390 ( 28)  0.1606 ( 29)  0.1562 ( 30) -0.3016 ( 31)
           0.1196 ( 38)  0.1197 ( 44) -0.1102 ( 50) -0.1105 ( 53) -0.1170 ( 61)
           0.1305 ( 64) -0.1566 ( 65)  0.1248 ( 66) -0.1170 ( 69)  0.1308 ( 72)
          -0.1569 ( 73)  0.1241 ( 75) -0.1683 ( 76)  0.1206 ( 78)  0.1312 ( 79)
          -0.1685 ( 80)  0.1207 ( 82)  0.1315 ( 83)
 CRD 69=   0.1168 ( 88)  0.1145 ( 90) -0.1458 ( 93)  0.1347 ( 95)  0.1346 (101)
           0.1144 (103) -0.1457 (104)  0.1168 (107) -0.1334 (109)  0.1293 (114)
           0.1015 (115) -0.1010 (116)  0.1422 (117)  0.1293 (118)  0.1164 (119)
           0.1015 (124) -0.1010 (125) -0.1333 (130)  0.1632 (135) -0.2026 (138)
          -0.1217 (139) -0.1870 (140)  0.1403 (143)  0.1314 (144) -0.1217 (145)
           0.1631 (146) -0.2026 (150) -0.1869 (152)  0.1314 (154)  0.1403 (155)
          -0.2003 (156)  0.1493 (157) -0.2004 (159)  0.1492 (160) -0.2181 (166)
          -0.2179 (167)  0.1722 (168)  0.1721 (170)
 CRD 70=  -0.1700 (  1)  0.1571 (  3)  0.1572 (  4) -0.1067 (  8)  0.1473 (  9)
           0.1472 ( 12) -0.1066 ( 13) -0.1557 ( 15) -0.2107 ( 16) -0.1556 ( 20)
          -0.2106 ( 22)  0.1893 ( 25)  0.1546 ( 26)  0.1893 ( 29)  0.1547 ( 30)
          -0.2097 ( 32) -0.2097 ( 33)  0.1282 ( 34)  0.1677 ( 35) -0.1094 ( 36)
           0.1282 ( 40)  0.1677 ( 41) -0.1093 ( 45)  0.1541 ( 64)  0.1541 ( 72)
          -0.1999 ( 77)  0.1384 ( 78) -0.1999 ( 81)  0.1385 ( 82) -0.1697 ( 84)
          -0.1501 ( 85) -0.1697 ( 86) -0.1501 ( 87)
 CRD 71=   0.1281 ( 88) -0.2058 ( 95) -0.2058 (101)  0.1281 (107)  0.1215 (109)
           0.1367 (110) -0.1747 (115) -0.1069 (116)  0.1203 (117) -0.1597 (119)
          -0.1152 (122) -0.1747 (124) -0.1070 (125)  0.1367 (126)  0.1214 (130)
          -0.1152 (132)  0.1639 (135)  0.1016 (139) -0.1178 (140)  0.1374 (142)
           0.1093 (144)  0.1016 (145)  0.1639 (146)  0.1374 (151) -0.1178 (152)
           0.1093 (154)  0.1005 (156) -0.1695 (158)  0.1005 (159) -0.1696 (161)
          -0.1796 (162) -0.1796 (163) -0.1357 (164) -0.1357 (165) -0.2361 (169)
          -0.2361 (171)
 CRD 72=  -0.1063 (  3)  0.1061 (  4)  0.2478 (  6) -0.1019 (  7)  0.1020 ( 10)
          -0.2478 ( 11)  0.2101 ( 14) -0.1583 ( 15) -0.1455 ( 16) -0.2101 ( 19)
           0.1582 ( 20)  0.1454 ( 22)  0.2430 ( 25)  0.1512 ( 26) -0.2430 ( 29)
          -0.1512 ( 30)  0.1350 ( 37) -0.1351 ( 42)  0.1697 ( 48) -0.1697 ( 55)
          -0.1029 ( 60)  0.1443 ( 62)  0.1574 ( 64)  0.1028 ( 68) -0.1443 ( 70)
          -0.1574 ( 72)  0.1375 ( 78)  0.1407 ( 79) -0.1375 ( 82) -0.1406 ( 83)
 CRD 73=  -0.1145 (  3)  0.1143 (  4)  0.2374 (  7) -0.2373 ( 10) -0.2224 ( 15)
          -0.1760 ( 16)  0.1261 ( 17) -0.1041 ( 18)  0.2224 ( 20) -0.1260 ( 21)
           0.1760 ( 22)  0.1041 ( 23)  0.1492 ( 24)  0.2147 ( 27) -0.1492 ( 28)
          -0.2148 ( 31) -0.1212 ( 32)  0.1213 ( 33)  0.1124 ( 39) -0.1124 ( 43)
          -0.1070 ( 47) -0.1265 ( 49)  0.1346 ( 50) -0.1162 ( 52) -0.1345 ( 53)
           0.1070 ( 54)  0.1265 ( 56)  0.1162 ( 59) -0.1242 ( 60)  0.1564 ( 61)
          -0.1064 ( 63)  0.1154 ( 65) -0.1461 ( 67)  0.1241 ( 68) -0.1564 ( 69)
           0.1063 ( 71) -0.1153 ( 73)  0.1461 ( 74)  0.1387 ( 76) -0.1302 ( 77)
          -0.1387 ( 80)  0.1303 ( 81) -0.1272 ( 85)  0.1273 ( 87)
 CRD 74=   0.2082 (  1) -0.2827 (  3) -0.2827 (  4)  0.1555 (  6) -0.1950 (  9)
           0.1556 ( 11) -0.1949 ( 12)  0.1566 ( 14) -0.1898 ( 15) -0.1411 ( 16)
           0.1567 ( 19) -0.1900 ( 20) -0.1412 ( 22) -0.1338 ( 34) -0.1758 ( 35)
           0.1125 ( 36)  0.1165 ( 37) -0.1338 ( 40) -0.1758 ( 41)  0.1165 ( 42)
           0.1125 ( 45)  0.1150 ( 46) -0.1052 ( 47)  0.1107 ( 48) -0.1475 ( 49)
          -0.1053 ( 54)  0.1108 ( 55) -0.1477 ( 56)  0.1151 ( 57) -0.1516 ( 60)
          -0.1091 ( 63) -0.1517 ( 68) -0.1092 ( 71)
 CRD 75=   0.2110 (  1) -0.2401 (  2) -0.2400 (  5)  0.1489 (  6) -0.2420 (  7)
          -0.2419 ( 10)  0.1487 ( 11)  0.1598 ( 14) -0.1041 ( 17) -0.1142 ( 18)
           0.1597 ( 19) -0.1040 ( 21) -0.1142 ( 23) -0.1281 ( 27) -0.1280 ( 31)
           0.1061 ( 36)  0.1248 ( 37) -0.1749 ( 38) -0.1586 ( 39)  0.1248 ( 42)
          -0.1585 ( 43) -0.1750 ( 44)  0.1061 ( 45)  0.1273 ( 46) -0.1160 ( 50)
          -0.1321 ( 52) -0.1159 ( 53)  0.1272 ( 57) -0.1322 ( 59) -0.1107 ( 61)
          -0.1189 ( 66) -0.1261 ( 67) -0.1106 ( 69) -0.1262 ( 74) -0.1189 ( 75)
 CRD 76=  -0.1459 ( 90) -0.1253 ( 93)  0.1480 ( 94)  0.1173 ( 96)  0.1319 ( 97)
          -0.1319 (100) -0.1481 (102)  0.1459 (103)  0.1253 (104) -0.1173 (106)
           0.1229 (108)  0.1397 (111)  0.1295 (112)  0.1261 (114) -0.1414 (116)
          -0.1260 (118) -0.1411 (122) -0.1396 (123)  0.1414 (125) -0.1295 (127)
          -0.1230 (129)  0.1411 (132) -0.1108 (134) -0.1197 (137) -0.1349 (140)
          -0.1281 (143)  0.1196 (147)  0.1108 (149)  0.1349 (152)  0.1281 (155)
           0.1359 (157) -0.1360 (160) -0.2625 (164)  0.2625 (165) -0.2195 (166)
           0.2196 (167)  0.2077 (168) -0.2077 (170)
 CRD 77=   0.1312 ( 89) -0.1167 ( 91)  0.1764 ( 92)  0.1068 ( 94) -0.1160 ( 96)
          -0.1311 ( 98) -0.1763 ( 99) -0.1069 (102)  0.1167 (105)  0.1160 (106)
          -0.1299 (109) -0.1165 (110)  0.1166 (113)  0.1081 (115) -0.1519 (120)
          -0.1084 (124)  0.1165 (126) -0.1166 (128)  0.1298 (130)  0.1520 (131)
           0.1316 (134) -0.1217 (135)  0.1428 (137) -0.1851 (141) -0.1720 (142)
           0.1216 (146) -0.1427 (147) -0.1318 (149)  0.1719 (151)  0.1848 (153)
           0.1193 (162) -0.1193 (163) -0.1642 (164)  0.1643 (165) -0.2034 (168)
           0.2503 (169)  0.2033 (170) -0.2500 (171)
 CRD 78=  -0.1355 ( 91) -0.1366 ( 92)  0.1007 ( 93)  0.1280 ( 94) -0.1368 ( 99)
           0.1281 (102)  0.1008 (104) -0.1356 (105) -0.1811 (108) -0.1624 (112)
           0.1534 (115)  0.1311 (119) -0.1473 (122)  0.1533 (124) -0.1625 (127)
          -0.1813 (129) -0.1473 (132)  0.1352 (134) -0.1010 (136)  0.1193 (137)
           0.1206 (140)  0.1723 (144)  0.1191 (147) -0.1011 (148)  0.1352 (149)
           0.1206 (152)  0.1721 (154) -0.1383 (157) -0.1137 (158) -0.1384 (160)
          -0.1139 (161) -0.1835 (164) -0.1836 (165)  0.2545 (166)  0.2548 (167)
          -0.1822 (168) -0.1821 (170)
 CRD 79=   0.1435 ( 89) -0.1210 ( 93) -0.1115 ( 97)  0.1435 ( 98) -0.1115 (100)
          -0.1209 (104)  0.1393 (108) -0.1085 (109) -0.1021 (111)  0.1093 (113)
           0.1197 (117)  0.1165 (121) -0.1019 (123)  0.1095 (128)  0.1389 (129)
          -0.1086 (130)  0.1167 (133)  0.2250 (137) -0.2642 (141) -0.1292 (143)
           0.2251 (147) -0.2641 (153) -0.1293 (155) -0.1542 (166) -0.1537 (167)
          -0.2550 (168)  0.2813 (169) -0.2552 (170)  0.2813 (171)
 CRD 80=   0.1827 ( 91) -0.1621 ( 94)  0.1617 (102) -0.1826 (105)  0.2054 (108)
          -0.1743 (111)  0.1084 (116) -0.1084 (121)  0.1746 (123) -0.1081 (125)
          -0.2055 (129)  0.1083 (133) -0.1383 (134)  0.1563 (139) -0.1230 (141)
           0.1911 (144) -0.1563 (145)  0.1382 (149)  0.1234 (153) -0.1913 (154)
           0.2309 (156) -0.2310 (159)  0.1835 (164) -0.1830 (165) -0.2258 (166)
           0.2259 (167)  0.1266 (169) -0.1271 (171)
 CRD 81=  -0.1618 ( 91)  0.1831 ( 92) -0.2562 ( 94)  0.1830 ( 99) -0.2564 (102)
          -0.1616 (105) -0.1196 (108)  0.1716 (111) -0.2153 (115)  0.1147 (117)
          -0.1630 (119)  0.1991 (121)  0.1716 (123) -0.2155 (124) -0.1192 (129)
           0.1991 (133) -0.1254 (139)  0.1387 (144) -0.1253 (145)  0.1387 (154)
          -0.1834 (156) -0.1834 (159)  0.2571 (164)  0.2572 (165)  0.1199 (166)
           0.1195 (167)
 CRD 82=  -0.1112 ( 88)  0.1756 ( 92) -0.1167 ( 96) -0.1758 ( 99)  0.1167 (106)
           0.1111 (107) -0.1506 (108)  0.1949 (112) -0.1899 (114)  0.1338 (115)
           0.1898 (118) -0.1078 (120) -0.1336 (124) -0.1949 (127)  0.1508 (129)
           0.1078 (131)  0.1233 (134) -0.2214 (137)  0.2003 (141) -0.1427 (142)
           0.1749 (144)  0.2215 (147) -0.1235 (149)  0.1427 (151) -0.2005 (153)
          -0.1750 (154)  0.1190 (156) -0.1188 (159)  0.1348 (166) -0.1350 (167)
           0.2005 (168) -0.1668 (169) -0.2006 (170)  0.1669 (171)
 CRD 83=   0.2111 ( 89) -0.1696 ( 91) -0.1476 ( 97)  0.2111 ( 98) -0.1475 (100)
          -0.1696 (105) -0.1523 (108) -0.1804 (111)  0.2049 (112)  0.1166 (117)
           0.1444 (121) -0.1804 (123)  0.2048 (127) -0.1523 (129)  0.1445 (133)
           0.2058 (134) -0.1495 (137)  0.1236 (141) -0.2290 (142) -0.1727 (144)
          -0.1494 (147)  0.2058 (149) -0.2290 (151)  0.1236 (153) -0.1729 (154)
           0.1650 (156)  0.1649 (159)  0.1100 (166)  0.1100 (167)  0.1089 (168)
           0.1089 (170)
 CRD 84=  -0.1954 ( 89)  0.1630 ( 91)  0.2068 ( 92)  0.1591 ( 94) -0.2443 ( 97)
           0.1955 ( 98) -0.2068 ( 99)  0.2443 (100) -0.1591 (102) -0.1629 (105)
           0.1557 (111) -0.1259 (112) -0.2458 (114)  0.1832 (115)  0.2457 (118)
          -0.2123 (121) -0.1557 (123) -0.1833 (124)  0.1259 (127)  0.2123 (133)
          -0.1439 (134)  0.1589 (142) -0.1024 (144)  0.1439 (149) -0.1588 (151)
           0.1025 (154) -0.1107 (156)  0.1107 (159) -0.1029 (164)  0.1029 (165)

 THE DETERMINANT OF THE G MATRIX IS 10**(   -44)


                     --------------------
                     INTERNAL COORDINATES
                     --------------------

                 - - ATOMS - -         COORDINATE      COORDINATE
 NO.   TYPE    I  J  K  L  M  N        (BOHR,RAD)       (ANG,DEG)
 ----------------------------------------------------------------
   1 STRETCH   1  2                     2.6376567       1.3957879
   2 STRETCH   1  4                     2.7023592       1.4300270
   3 STRETCH   1  3                     2.7225097       1.4406902
   4 STRETCH   2  5                     2.7226593       1.4407694
   5 STRETCH   2  6                     2.7023729       1.4300343
   6 STRETCH   3  8                     2.6755104       1.4158193
   7 STRETCH   3  7                     2.6591797       1.4071774
   8 STRETCH   4 19                     2.0803609       1.1008797
   9 STRETCH   4  9                     2.5664897       1.3581280
  10 STRETCH   5 10                     2.6587832       1.4069676
  11 STRETCH   5 11                     2.6756932       1.4159159
  12 STRETCH   6 12                     2.5666874       1.3582326
  13 STRETCH   6 20                     2.0805451       1.1009771
  14 STRETCH   7 12                     2.7021572       1.4299201
  15 STRETCH   7 13                     2.6746615       1.4153700
  16 STRETCH   8 14                     2.5938604       1.3726119
  17 STRETCH   8 21                     2.0798641       1.1006168
  18 STRETCH   9 22                     2.0709465       1.0958978
  19 STRETCH   9 10                     2.7021331       1.4299074
  20 STRETCH  10 15                     2.6752958       1.4157057
  21 STRETCH  11 23                     2.0799813       1.1006788
  22 STRETCH  11 16                     2.5941027       1.3727402
  23 STRETCH  12 24                     2.0711729       1.0960176
  24 STRETCH  13 25                     2.0711012       1.0959797
  25 STRETCH  13 17                     2.5944734       1.3729363
  26 STRETCH  14 26                     2.0689606       1.0948469
  27 STRETCH  14 17                     2.6619239       1.4086296
  28 STRETCH  15 27                     2.0709130       1.0958801
  29 STRETCH  15 18                     2.5941122       1.3727452
  30 STRETCH  16 28                     2.0689228       1.0948269
  31 STRETCH  16 18                     2.6617837       1.4085554
  32 STRETCH  17 29                     2.0688797       1.0948041
  33 STRETCH  18 30                     2.0686643       1.0946901
  34 BEND      1  4 19                  2.0550803     117.7474256
  35 BEND      1  2  6                  2.0872285     119.5893824
  36 BEND      1  4  9                  2.1139185     121.1186099
  37 BEND      1  3  7                  2.0839371     119.4007998
  38 BEND      1  2  5                  2.0892831     119.7071025
  39 BEND      1  3  8                  2.1248914     121.7473099
  40 BEND      2  6 20                  2.0549769     117.7415026
  41 BEND      2  1  4                  2.0872982     119.5933779
  42 BEND      2  5 10                  2.0842237     119.4172197
  43 BEND      2  5 11                  2.1246274     121.7321832
  44 BEND      2  1  3                  2.0897056     119.7313112
  45 BEND      2  6 12                  2.1136518     121.1033270
  46 BEND      3  1  4                  2.1061815     120.6753109
  47 BEND      3  8 21                  2.0652662     118.3310395
  48 BEND      3  7 13                  2.0884264     119.6580198
  49 BEND      3  7 12                  2.0878850     119.6269972
  50 BEND      3  8 14                  2.1064708     120.6918874
  51 BEND      4  9 22                  2.1102584     120.9088980
  52 BEND      4  9 10                  2.1036372     120.5295325
  53 BEND      5 11 16                  2.1063002     120.6821142
  54 BEND      5 11 23                  2.0653850     118.3378438
  55 BEND      5 10 15                  2.0885980     119.6678520
  56 BEND      5 10  9                  2.0880099     119.6341572
  57 BEND      5  2  6                  2.1066738     120.7035151
  58 BEND      6 12 24                  2.1099167     120.8893246
  59 BEND      6 12  7                  2.1039627     120.5481822
  60 BEND      7  3  8                  2.0743568     118.8518903
  61 BEND      7 13 17                  2.1004540     120.3471488
  62 BEND      7 13 25                  2.0774877     119.0312799
  63 BEND      7 12 24                  2.0693059     118.5624926
  64 BEND      8 14 17                  2.0993193     120.2821359
  65 BEND      8 14 26                  2.1007787     120.3657516
  66 BEND      9  4 19                  2.1141865     121.1339645
  67 BEND      9 10 15                  2.1065773     120.6979905
  68 BEND     10  5 11                  2.0743342     118.8505971
  69 BEND     10 15 18                  2.1002299     120.3343067
  70 BEND     10 15 27                  2.0773357     119.0225688
  71 BEND     10  9 22                  2.0692897     118.5615691
  72 BEND     11 16 18                  2.0994368     120.2888668
  73 BEND     11 16 28                  2.1006536     120.3585867
  74 BEND     12  7 13                  2.1068739     120.7149812
  75 BEND     12  6 20                  2.1145566     121.1551703
  76 BEND     13 17 29                  2.1028811     120.4862112
  77 BEND     13 17 14                  2.0973432     120.1689159
  78 BEND     14 17 29                  2.0829610     119.3448729
  79 BEND     14  8 21                  2.1114482     120.9770720
  80 BEND     15 18 30                  2.1025649     120.4680957
  81 BEND     15 18 16                  2.0974715     120.1762630
  82 BEND     16 18 30                  2.0831489     119.3556410
  83 BEND     16 11 23                  2.1115001     120.9800418
  84 BEND     17 14 26                  2.0830873     119.3521116
  85 BEND     17 13 25                  2.1052435     120.6215699
  86 BEND     18 16 28                  2.0830949     119.3525465
  87 BEND     18 15 27                  2.1056197     120.6431221
  88 TORSION   1  3  7 13              -3.1413960    -179.9887301
  89 TORSION   1  3  7 12              -0.0000666      -0.0038158
  90 TORSION   1  2  6 20               3.1414930     179.9942881
  91 TORSION   1  3  8 21              -0.0000325      -0.0018629
  92 TORSION   1  2  6 12              -0.0000194      -0.0011089
  93 TORSION   1  3  8 14               3.1413489     179.9860337
  94 TORSION   1  4  9 10              -0.0000905      -0.0051866
  95 TORSION   1  4  9 22              -3.1415692    -179.9986572
  96 TORSION   1  2  5 11               3.1415903     179.9998641
  97 TORSION   1  2  5 10              -0.0000043      -0.0002479
  98 TORSION   2  5 10  9              -0.0000791      -0.0045293
  99 TORSION   2  1  4  9               0.0000053       0.0003018
 100 TORSION   2  1  3  7               0.0000390       0.0022321
 101 TORSION   2  6 12 24              -3.1414445    -179.9915119
 102 TORSION   2  6 12  7              -0.0000088      -0.0005019
 103 TORSION   2  1  4 19               3.1415503     179.9975759
 104 TORSION   2  5 11 16               3.1415513     179.9976317
 105 TORSION   2  5 11 23               0.0000296       0.0016951
 106 TORSION   2  1  3  8              -3.1415745    -179.9989585
 107 TORSION   2  5 10 15              -3.1415663    -179.9984896
 108 TORSION   3  8 14 17               0.0002270       0.0130086
 109 TORSION   3  8 14 26              -3.1415560    -179.9979012
 110 TORSION   3  7 12 24               3.1414916     179.9942101
 111 TORSION   3  7 12  6               0.0000523       0.0029940
 112 TORSION   3  7 13 17              -0.0001376      -0.0078816
 113 TORSION   3  7 13 25              -3.1414976    -179.9945564
 114 TORSION   3  1  2  6               0.0000040       0.0002304
 115 TORSION   3  1  4 19              -0.0000450      -0.0025798
 116 TORSION   3  1  4  9              -3.1415901    -179.9998540
 117 TORSION   3  1  2  5              -3.1415476    -179.9974214
 118 TORSION   4  1  2  5               0.0000423       0.0024243
 119 TORSION   4  1  2  6              -3.1415913    -179.9999238
 120 TORSION   4  1  3  7              -3.1415510    -179.9976120
 121 TORSION   4  1  3  8               0.0000209       0.0011974
 122 TORSION   4  9 10 15              -3.1415715    -179.9987893
 123 TORSION   4  9 10  5               0.0001277       0.0073139
 124 TORSION   5  2  6 20              -0.0001411      -0.0080839
 125 TORSION   5  2  6 12               3.1415319     179.9965191
 126 TORSION   5 10  9 22              -3.1415763    -179.9990645
 127 TORSION   5 10 15 18              -0.0000341      -0.0019562
 128 TORSION   5 10 15 27              -3.1413185    -179.9842941
 129 TORSION   5 11 16 18               0.0000627       0.0035940
 130 TORSION   5 11 16 28              -3.1415373    -179.9968265
 131 TORSION   6  2  5 10              -3.1415555    -179.9978731
 132 TORSION   6 12  7 13               3.1413788     179.9877455
 133 TORSION   6  2  5 11               0.0000391       0.0022389
 134 TORSION   7  3  8 14              -0.0002644      -0.0151506
 135 TORSION   7 13 17 29              -3.1414788    -179.9934748
 136 TORSION   7  3  8 21               3.1415395     179.9969527
 137 TORSION   7 13 17 14               0.0000971       0.0055625
 138 TORSION   7 12  6 20              -3.1415183    -179.9957413
 139 TORSION   8  3  7 12               3.1415462     179.9973402
 140 TORSION   8 14 17 29               3.1414336     179.9908886
 141 TORSION   8 14 17 13              -0.0001424      -0.0081596
 142 TORSION   8  3  7 13               0.0002169       0.0124259
 143 TORSION   9 10 15 18              -3.1415202    -179.9958509
 144 TORSION   9 10 15 27               0.0003807       0.0218112
 145 TORSION   9 10  5 11               3.1415117     179.9953619
 146 TORSION  10 15 18 30               3.1415254     179.9961453
 147 TORSION  10 15 18 16               0.0000571       0.0032718
 148 TORSION  10  5 11 23              -3.1415611    -179.9981935
 149 TORSION  10  5 11 16              -0.0000394      -0.0022569
 150 TORSION  10  9  4 19               3.1415513     179.9976317
 151 TORSION  11  5 10 15               0.0000245       0.0014016
 152 TORSION  11 16 18 30              -3.1415415    -179.9970664
 153 TORSION  11 16 18 15              -0.0000718      -0.0041138
 154 TORSION  12  7 13 25               0.0003612       0.0206967
 155 TORSION  12  7 13 17              -3.1414640    -179.9926284
 156 TORSION  13  7 12 24              -0.0003672      -0.0210384
 157 TORSION  13 17 14 26              -3.1415466    -179.9973601
 158 TORSION  14 17 13 25               3.1414534     179.9920235
 159 TORSION  15 10  9 22              -0.0000902      -0.0051677
 160 TORSION  15 18 16 28               3.1415281     179.9963025
 161 TORSION  16 18 15 27               3.1413365     179.9853208
 162 TORSION  17 14  8 21              -3.1415825    -179.9994173
 163 TORSION  18 16 11 23               3.1415826     179.9994225
 164 TORSION  19  4  9 22               0.0000726       0.0041611
 165 TORSION  20  6 12 24               0.0002312       0.0132487
 166 TORSION  21  8 14 26              -0.0001802      -0.0103271
 167 TORSION  23 11 16 28              -0.0000174      -0.0009980
 168 TORSION  25 13 17 29              -0.0001224      -0.0070137
 169 TORSION  26 14 17 29               0.0000295       0.0016881
 170 TORSION  27 15 18 30              -0.0003806      -0.0218057
 171 TORSION  28 16 18 30               0.0000585       0.0033499

     ------------------------------------------
     THE POINT GROUP IS C1 , NAXIS= 1, ORDER= 1
     ------------------------------------------

     DIMENSIONS OF THE SYMMETRY SUBSPACES ARE
 A   =  414

 ..... DONE SETTING UP THE RUN .....
 STEP CPU TIME =     0.03 TOTAL CPU TIME =        0.0 (    0.0 MIN)
 TOTAL WALL CLOCK TIME=        0.1 SECONDS, CPU UTILIZATION IS  60.00%


          -----------------------------
          STATIONARY POINT LOCATION RUN
          -----------------------------

 OBTAINING INITIAL HESSIAN, HESS=GUESS   
 DIAGONAL GUESS HESSIAN IN INTERNAL COORDS IS
     1  0.4766     2  0.4459     3  0.4368     4  0.4367     5  0.4459
     6  0.4584     7  0.4662     8  0.3391     9  0.5128    10  0.4664
    11  0.4583    12  0.5127    13  0.3391    14  0.4460    15  0.4588
    16  0.4986    17  0.3393    18  0.3424    19  0.4460    20  0.4585
    21  0.3393    22  0.4985    23  0.3423    24  0.3424    25  0.4983
    26  0.3431    27  0.4649    28  0.3424    29  0.4985    30  0.3431
    31  0.4649    32  0.3431    33  0.3432    34  0.2295    35  0.2658
    36  0.2688    37  0.2641    38  0.2650    39  0.2634    40  0.2295
    41  0.2658    42  0.2641    43  0.2634    44  0.2650    45  0.2687
    46  0.2623    47  0.2304    48  0.2661    49  0.2649    50  0.2687
    51  0.2343    52  0.2688    53  0.2687    54  0.2304    55  0.2660
    56  0.2649    57  0.2623    58  0.2343    59  0.2688    60  0.2660
    61  0.2687    62  0.2307    63  0.2298    64  0.2693    65  0.2335
    66  0.2340    67  0.2643    68  0.2660    69  0.2687    70  0.2307
    71  0.2298    72  0.2693    73  0.2334    74  0.2643    75  0.2340
    76  0.2334    77  0.2693    78  0.2312    79  0.2331    80  0.2335
    81  0.2693    82  0.2312    83  0.2331    84  0.2312    85  0.2334
    86  0.2312    87  0.2334    88  0.2500    89  0.2500    90  0.2500
    91  0.2500    92  0.2500    93  0.2500    94  0.2500    95  0.2500
    96  0.2500    97  0.2500    98  0.2500    99  0.2500   100  0.2500
   101  0.2500   102  0.2500   103  0.2500   104  0.2500   105  0.2500
   106  0.2500   107  0.2500   108  0.2500   109  0.2500   110  0.2500
   111  0.2500   112  0.2500   113  0.2500   114  0.2500   115  0.2500
   116  0.2500   117  0.2500   118  0.2500   119  0.2500   120  0.2500
   121  0.2500   122  0.2500   123  0.2500   124  0.2500   125  0.2500
   126  0.2500   127  0.2500   128  0.2500   129  0.2500   130  0.2500
   131  0.2500   132  0.2500   133  0.2500   134  0.2500   135  0.2500
   136  0.2500   137  0.2500   138  0.2500   139  0.2500   140  0.2500
   141  0.2500   142  0.2500   143  0.2500   144  0.2500   145  0.2500
   146  0.2500   147  0.2500   148  0.2500   149  0.2500   150  0.2500
   151  0.2500   152  0.2500   153  0.2500   154  0.2500   155  0.2500
   156  0.2500   157  0.2500   158  0.2500   159  0.2500   160  0.2500
   161  0.2500   162  0.2500   163  0.2500   164  0.2500   165  0.2500
   166  0.2500   167  0.2500   168  0.2500   169  0.2500   170  0.2500
   171  0.2500
 TRANSFORMING HESSIAN TO SYMMETRY COORDINATES

          PARAMETERS CONTROLLING GEOMETRY SEARCH ARE
          METHOD =QA                  UPHESS =BFGS    
          NNEG   =         0          NFRZ   =         3
          NSTEP  =        50          IFOLOW =         1
          HESS   =GUESS               RESTAR =         F
          IHREP  =         0          HSSEND =         F
          NPRT   =         0          NPUN   =         0
          OPTTOL = 5.000E-04          RMIN   = 1.500E-03
          RMAX   = 1.000E-01          RLIM   = 7.000E-02
          DXMAX  = 3.000E-01          PURIFY =         F
          MOVIE  =         F          TRUPD  =         T
          TRMAX  = 5.000E-01          TRMIN  = 5.000E-02
          ITBMAT =         5          STPT   =         F
          STSTEP = 1.000E-02          PROJCT=          F
          FROZEN COORD(S)=   1   2   3


      ***** EQUILIBRIUM GEOMETRY LOCATED *****
            (SUBJECT TO   3 CONSTRAINT(S))
 COORDINATES OF ALL ATOMS ARE (ANGS)
   ATOM   CHARGE       X              Y              Z
 ------------------------------------------------------------
 C           6.0   3.1259236377   1.8988839607   4.7598664494
 C           6.0   2.4968607704   2.3462890936   5.9104741565
 C           6.0   2.6211298505   2.3036686808   3.4680349444
 C           6.0   4.2703118528   1.0394264841   4.8709681300
 C           6.0   3.0018216743   1.9414332939   7.2022671825
 C           6.0   1.3524603587   3.2057622400   5.7991897535
 C           6.0   1.5004147469   3.1446868154   3.3927752428
 C           6.0   3.2254604668   1.8758408358   2.2653098385
 C           6.0   4.7463102446   0.6581682808   6.0673946092
 C           6.0   4.1225944754   1.1004457581   7.2772883107
 C           6.0   2.3977368594   2.3690635374   8.4052119671
 C           6.0   0.8765625701   3.5869427775   4.6026473429
 C           6.0   1.0087242512   3.5388279589   2.1289584769
 C           6.0   2.7368134595   2.2665461260   1.0564534758
 C           6.0   4.6144498568   0.7059473144   8.5409077412
 C           6.0   2.8865432372   1.9779760550   9.6139098024
 C           6.0   1.6120356448   3.1104776546   0.9834137919
 C           6.0   4.0113397216   1.1340221343   9.6866305432
 H           1.0   4.7609583174   0.6901793087   3.9858696805
 H           1.0   0.8616673808   3.5550130362   6.6842338299
 H           1.0   4.0817267698   1.2338943681   2.2948268061
 H           1.0   5.6055661365   0.0134459737   6.1229230208
 H           1.0   1.5414316212   3.0109938221   8.3759876481
 H           1.0   0.0173767461   4.2317664377   4.5470190754
 H           1.0   0.1487800334   4.1839195149   2.0862345364
 H           1.0   3.2176310579   1.9249181196   0.1583680028
 H           1.0   5.4745849631   0.0610795202   8.5832372495
 H           1.0   2.4059242820   2.3193774478  10.5121866538
 H           1.0   1.2355674422   3.4121637115   0.0237671391
 H           1.0   4.3879605160   0.8320415631  10.6461254148


                     --------------------
                     INTERNAL COORDINATES
                     --------------------

                 - - ATOMS - -         COORDINATE      COORDINATE
 NO.   TYPE    I  J  K  L  M  N        (BOHR,RAD)       (ANG,DEG)
 ----------------------------------------------------------------
   1 STRETCH   1  2                     2.6183376       1.3855647
   2 STRETCH   1  4                     2.7126851       1.4354912
   3 STRETCH   1  3                     2.7303082       1.4448170
   4 STRETCH   2  5                     2.7303911       1.4448609
   5 STRETCH   2  6                     2.7127480       1.4355245
   6 STRETCH   3  8                     2.6689995       1.4123738
   7 STRETCH   3  7                     2.6516686       1.4032027
   8 STRETCH   4 19                     2.0230722       1.0705638
   9 STRETCH   4  9                     2.5377047       1.3428956
  10 STRETCH   5 10                     2.6516969       1.4032177
  11 STRETCH   5 11                     2.6690413       1.4123959
  12 STRETCH   6 12                     2.5377909       1.3429412
  13 STRETCH   6 20                     2.0231164       1.0705872
  14 STRETCH   7 12                     2.7047336       1.4312835
  15 STRETCH   7 13                     2.6686916       1.4122109
  16 STRETCH   8 14                     2.5722220       1.3611614
  17 STRETCH   8 21                     2.0231178       1.0705879
  18 STRETCH   9 22                     2.0327259       1.0756723
  19 STRETCH   9 10                     2.7046683       1.4312489
  20 STRETCH  10 15                     2.6686550       1.4121915
  21 STRETCH  11 23                     2.0231432       1.0706013
  22 STRETCH  11 16                     2.5722715       1.3611876
  23 STRETCH  12 24                     2.0327447       1.0756823
  24 STRETCH  13 25                     2.0330786       1.0758590
  25 STRETCH  13 17                     2.5770634       1.3637233
  26 STRETCH  14 26                     2.0304249       1.0744546
  27 STRETCH  14 17                     2.6608794       1.4080768
  28 STRETCH  15 27                     2.0330840       1.0758618
  29 STRETCH  15 18                     2.5770144       1.3636974
  30 STRETCH  16 28                     2.0304231       1.0744537
  31 STRETCH  16 18                     2.6609017       1.4080887
  32 STRETCH  17 29                     2.0297315       1.0740877
  33 STRETCH  18 30                     2.0297328       1.0740884
  34 BEND      1  4 19                  2.0905859     119.7817464
  35 BEND      1  2  6                  2.0839083     119.3991506
  36 BEND      1  4  9                  2.1194188     121.4337529
  37 BEND      1  3  7                  2.0885378     119.6643991
  38 BEND      1  2  5                  2.0866753     119.5576875
  39 BEND      1  3  8                  2.1259034     121.8052942
  40 BEND      2  6 20                  2.0905800     119.7814114
  41 BEND      2  1  4                  2.0840342     119.4063650
  42 BEND      2  5 10                  2.0884875     119.6615221
  43 BEND      2  5 11                  2.1260538     121.8139077
  44 BEND      2  1  3                  2.0867966     119.5646373
  45 BEND      2  6 12                  2.1194212     121.4338920
  46 BEND      3  1  4                  2.1123545     121.0289977
  47 BEND      3  8 21                  2.0948339     120.0251415
  48 BEND      3  7 13                  2.0867378     119.5612710
  49 BEND      3  7 12                  2.0805712     119.2079493
  50 BEND      3  8 14                  2.1126486     121.0458504
  51 BEND      4  9 22                  2.0935863     119.9536578
  52 BEND      4  9 10                  2.1070763     120.7265815
  53 BEND      5 11 16                  2.1126352     121.0450807
  54 BEND      5 11 23                  2.0948366     120.0252957
  55 BEND      5 10 15                  2.0868471     119.5675297
  56 BEND      5 10  9                  2.0806784     119.2140907
[...]
 879  24  -0.570050   9.375590  10.535783  -0.000562   0.065063  -0.008633
 880  24  -0.036100  10.030573   9.881220  -0.000971   0.143651  -0.006760
 881  24   0.309319  10.387698   8.685938  -0.000895   0.143651  -0.006227
 882  24   0.270438  10.244561   7.627374  -0.000393   0.065063  -0.006039
 883  12  -0.020144   9.563300  10.542594  -0.000992   0.143314  -0.006921
 884  12   0.592398  10.284150   9.437708  -0.000648   0.143314  -0.004524
 885  12   0.717745  10.326194   7.989217  -0.000727   0.143314  -0.005074
 886  24  -2.037821   7.163472   7.563994  -0.000442   0.065056  -0.006793
 887  24  -2.185117   7.058088   8.617322  -0.000882   0.143631  -0.006141
 888  24  -1.963300   7.458108   9.828098  -0.000927   0.143631  -0.006453
 889  24  -1.498079   8.136834  10.510155  -0.000488   0.065056  -0.007498
 890  12  -1.997495   6.701859   7.914606  -0.000740   0.143300  -0.005162
 891  12  -2.021043   6.795683   9.365744  -0.000626   0.143300  -0.004370
 892  12  -1.523642   7.556398  10.501114  -0.001054   0.143300  -0.007356
 893  25  -1.805311   7.213733   5.329496  -0.000018   0.007978  -0.002234
 894  12  -1.804234   6.836197   6.705366   0.000045   0.011298   0.003969
 895  25   0.325582  10.065302   5.389694  -0.000034   0.007937  -0.004303
 896  12   0.672558  10.135721   6.771794   0.000047   0.011241   0.004190
 897  13   1.467857   2.846496   3.696299   0.000429   0.047938   0.008947
 898  14   2.038021   2.428191   3.342548   0.000407   0.047938   0.008496
 899  17   1.649942   2.673333   3.329475   0.000467   0.047938   0.009742
 900  13   5.474155   8.195522   3.806059   0.000420   0.047938   0.008770
 901  14   6.042903   7.775326   3.452269   0.000406   0.047938   0.008466
 902  17   5.698753   8.079120   3.440399   0.000408   0.047938   0.008509
 903  17   1.070195   2.896513   3.087225   0.001401   0.177738   0.007881
 904  17  -0.076149   3.947148   2.090629   0.002754   0.361031   0.007629
 905  17  -0.553501   5.917515   1.102442   0.000246   0.361031   0.000681
 906  17   0.250121   7.994985   0.748838  -0.002001   0.361031  -0.005543
 907  17   2.010049   9.340251   1.172675   0.000293   0.361031   0.000812
 908  17   4.015266   9.409817   2.202720   0.002701   0.361031   0.007481
 909  17   5.326238   8.578987   3.203827   0.001304   0.177738   0.007337
 910  13   0.320261   3.462246   3.239179   0.003130   0.361031   0.008670
 911  13  -0.757003   5.064090   2.072848   0.001771   0.361031   0.004905
 912  13  -0.584948   7.198675   1.365269  -0.001367   0.361031  -0.003785
 913  13   0.766914   9.003619   1.402305  -0.001343   0.361031  -0.003721
 914  13   2.752424   9.749716   2.168995   0.001699   0.361031   0.004707
 915  13   4.569428   9.135539   3.355592   0.003153   0.361031   0.008734
 916  25   0.444486  10.195306   4.818144  -0.000417   0.067399  -0.006183
 917  25   0.564683  10.283066   3.723642  -0.000900   0.149874  -0.006003
 918  25   0.284531   9.828546   2.499478  -0.000969   0.149874  -0.006468
 919  25  -0.395426   8.879201   1.851361  -0.001268   0.149874  -0.008460
 920  25  -1.194411   7.827046   2.046921  -0.001119   0.149874  -0.007469
 921  25  -1.782499   7.106548   3.005403  -0.000899   0.149874  -0.005997
 922  25  -1.916849   7.015226   4.331021  -0.000946   0.149874  -0.006311
 923  13   0.919191  10.259546   4.472758  -0.000704   0.147433  -0.004773
 924  13   0.892609  10.125182   2.978698  -0.000623   0.147433  -0.004227
 925  13   0.323125   9.292487   1.868165  -0.000892   0.147433  -0.006054
 926  13  -0.554101   8.105309   1.599734  -0.001200   0.147433  -0.008137
 927  13  -1.376836   7.053870   2.284247  -0.000790   0.147433  -0.005355
 928  13  -1.805345   6.572343   3.639049  -0.000678   0.147433  -0.004601
 929  13  -1.782663   6.682956   4.852933  -0.000335   0.082343  -0.004063
 930  14   4.510757   5.331966  -1.682054  -0.000090   0.005552  -0.016241
 931  17   4.151397   5.608794  -1.747930  -0.000108   0.005552  -0.019530
 932  29   3.906331   5.750340  -1.836641  -0.000081   0.005552  -0.014642
 933  14   4.052077   4.719554  -1.694639  -0.000075   0.005552  -0.013424
 934  17   3.686650   4.988285  -1.760682  -0.000097   0.005552  -0.017463
 935  29   3.483630   5.185967  -1.848239  -0.000102   0.005552  -0.018319
 936  17   5.933138   8.132779   2.762694   0.001272   0.206896   0.006147
 937  17   5.871522   7.873743   0.718500   0.001505   0.423583   0.003552
 938  17   4.968278   6.506412  -1.170714  -0.001528   0.423583  -0.003607
 939  14   6.470526   7.685751   2.005217   0.002736   0.423583   0.006459
 940  14   6.056517   6.930759  -0.342795   0.000032   0.423583   0.000076
 941  14   5.106229   5.559441  -1.553607  -0.000769   0.206896  -0.003715
 942  17   3.473365   4.475298  -1.618110  -0.000760   0.206902  -0.003675
 943  17   2.401332   3.146503  -0.462734   0.000012   0.423596   0.000028
 944  17   1.747271   2.475460   1.856052   0.002735   0.423596   0.006458
 945  14   3.569553   3.542909  -1.189362  -0.001466   0.423596  -0.003461
 946  14   2.474744   2.242529   0.645105   0.001520   0.423596   0.003588
 947  14   2.203308   2.056894   2.680222   0.001369   0.206902   0.006614
 948  14   7.745701   1.624020   1.162252  -0.000204   0.021478  -0.009489
 949  21   8.066571   1.459438   1.795390  -0.000201   0.021478  -0.009353
 950  26   7.728360   1.718962   0.881868  -0.000251   0.021478  -0.011692
 951  14   8.463986   2.583159   1.181967  -0.000206   0.021478  -0.009575
 952  21   8.699737   2.304915   1.812768  -0.000219   0.021478  -0.010188
 953  26   8.373551   2.580497   0.899576  -0.000210   0.021478  -0.009757
 954  21   8.320337   1.184702   2.169851  -0.000089   0.009465  -0.009365
 955  14   7.801853   1.490103   1.262503  -0.000024   0.013376  -0.001771
 956  21   9.022592   2.120100   2.187178  -0.000112   0.009352  -0.012021
 957  14   8.610376   2.571728   1.286354  -0.000029   0.013216  -0.002202
 958  26   7.445133   1.595076   0.358707  -0.000504   0.065563  -0.007681
 959  26   6.489367   1.289374  -0.036709  -0.000854   0.145089  -0.005889
 960  26   5.409759   1.561815  -0.718347  -0.000829   0.145089  -0.005715
 961  26   4.807477   2.499997  -1.397670  -0.000850   0.145089  -0.005858
 962  26   4.919652   3.734541  -1.807217  -0.001036   0.145089  -0.007138
 963  26   5.702119   4.779382  -1.785741  -0.001064   0.145089  -0.007330
 964  26   6.846806   5.223148  -1.341697  -0.000876   0.145089  -0.006040
 965  26   7.903027   4.891119  -0.649915  -0.000724   0.145089  -0.004987
 966  26   8.454929   3.914022   0.017239  -0.000861   0.145089  -0.005937
 967  26   8.422969   2.900797   0.385545  -0.000446   0.065563  -0.006799
 968  14   6.988769   1.329293   0.605679  -0.000895   0.144080  -0.006215
 969  14   5.680308   1.194320  -0.043507  -0.000591   0.144080  -0.004101
 970  14   4.685190   1.910606  -0.848742  -0.000573   0.144080  -0.003980
 971  14   4.395210   3.196135  -1.492991  -0.000852   0.144080  -0.005914
 972  14   4.924540   4.544772  -1.722599  -0.001164   0.144080  -0.008077
 973  14   6.064773   5.425531  -1.447167  -0.000863   0.144080  -0.005987
 974  14   7.366976   5.491642  -0.775136  -0.000542   0.144080  -0.003761
 975  14   8.318449   4.717076   0.028901  -0.000566   0.144080  -0.003928
 976  14   8.544579   3.406793   0.648381  -0.000973   0.144080  -0.006750
 977  29   3.618545   5.619553  -1.946788  -0.000882   0.144956  -0.006085
 978  14   4.416876   4.842432  -1.782330  -0.000495   0.204351  -0.002420
 979  15   5.152183  -0.174184  16.357302   0.000429   0.047939   0.008939
 980  16   4.583496   0.245926  16.711256   0.000407   0.047939   0.008496
 981  18   4.927650  -0.057869  16.723022   0.000467   0.047939   0.009733
 982  15   9.158534   5.174883  16.467674   0.000420   0.047939   0.008766
 983  16   8.588430   5.593101  16.821589   0.000406   0.047939   0.008469
 984  18   8.976511   5.347955  16.834565   0.000408   0.047939   0.008505
 985  18  10.724354   0.386866  19.461749  -0.000708   0.176989  -0.004001
 986  18  11.182808   2.121513  19.054963   0.000318   0.359419   0.000884
 987  18  10.699129   4.081443  18.068066   0.002694   0.359419   0.007496
 988  18   9.554897   5.125658  17.075591   0.001297   0.176989   0.007328
 989  15  11.221189   0.844003  18.794169  -0.001301   0.359419  -0.003619
 990  15  11.381633   2.969938  18.084313   0.001704   0.359419   0.004741
 991  15  10.303568   4.562327  16.921855   0.003136   0.359419   0.008726
 992  18   5.298903  -0.556660  16.958319   0.001393   0.176973   0.007873
 993  18   6.602939  -1.387304  17.955117   0.002745   0.359384   0.007639
 994  18   8.599651  -1.327058  18.983678   0.000266   0.359384   0.000739
 995  18  10.126696  -0.410992  19.445246  -0.000692   0.176973  -0.003908
 996  15   6.053046  -1.112597  16.804701   0.003115   0.359384   0.008667
 997  15   7.860951  -1.730350  17.987194   0.001777   0.359384   0.004945
 998  15   9.841191  -0.998298  18.756077  -0.001351   0.359384  -0.003759
 999  27  12.512467   0.938705  15.408392  -0.000417   0.067390  -0.006184
1000  27  12.541367   1.049363  16.506888  -0.000900   0.149850  -0.006008
1001  27  12.160299   0.620246  17.712654  -0.000971   0.149850  -0.006481
1002  27  11.428408  -0.315961  18.321813  -0.001288   0.149850  -0.008598
1003  27  10.647837  -1.372771  18.082889  -0.001126   0.149850  -0.007512
1004  27  10.140824  -2.113907  17.094516  -0.000900   0.149850  -0.006003
1005  27  10.116677  -2.233408  15.764719  -0.000946   0.149850  -0.006313
1006  15  12.433682   1.402905  15.764803  -0.000704   0.147417  -0.004777
1007  15  12.283026   1.299705  17.253793  -0.000625   0.147417  -0.004238
1008  15  11.622890   0.489882  18.330290  -0.000910   0.147417  -0.006172
1009  15  10.725794  -0.692249  18.549890  -0.001255   0.147417  -0.008512
1010  15   9.962081  -1.758675  17.821937  -0.000792   0.147417  -0.005374
1011  15   9.647031  -2.269150  16.446947  -0.000679   0.147417  -0.004605
1012  15   9.770210  -2.184269  15.237189  -0.000335   0.082332  -0.004065
1013  30  10.312402   0.052938  20.076185  -0.000091   0.010537  -0.008677
1014  15  10.736014  -0.231155  19.100556  -0.000082   0.014878  -0.005493
1015  16   6.573542   3.298713  21.858683  -0.000087   0.005520  -0.015677
1016  18   6.938957   3.029945  21.924631  -0.000093   0.005520  -0.016889
1017  30   7.142138   2.832379  22.012080  -0.000065   0.005520  -0.011806
1018  16   6.117494   2.689816  21.846053  -0.000074   0.005520  -0.013411
1019  18   6.476878   2.412996  21.911834  -0.000096   0.005520  -0.017360
1020  30   6.721863   2.271245  22.000441  -0.000101   0.005520  -0.018216
1021  18   6.047470   2.067994  21.751861  -0.000760   0.206959  -0.003671
1022  18   5.096434   0.696158  20.541262   0.000009   0.423724   0.000022
1023  18   4.681674  -0.058998  18.192756   0.002735   0.423724   0.006454
1024  16   5.134057   1.909444  21.300978  -0.001470   0.423724  -0.003468
1025  16   4.229921   0.541632  19.411694   0.001518   0.423724   0.003582
1026  16   4.167816   0.282661  17.366937   0.001368   0.206959   0.006610
1027  18   8.948753   5.569924  17.518201   0.001273   0.206979   0.006150
1028  18   8.677224   5.383459  19.553930   0.001504   0.423768   0.003550
1029  18   7.581855   4.081635  21.388105  -0.001550   0.423768  -0.003657
1030  16   8.353701   5.939704  18.274539   0.002737   0.423768   0.006460
1031  16   7.699321   5.267412  20.593717   0.000030   0.423768   0.000070
1032  16   6.626752   3.937427  21.748456  -0.000758   0.206979  -0.003662
1033  16   2.163053   5.438139  18.983144  -0.000204   0.021464  -0.009489
1034  23   1.927174   5.716507  18.352423  -0.000201   0.021464  -0.009354
1035  28   2.253533   5.440680  19.265518  -0.000251   0.021464  -0.011692
1036  16   2.880876   6.396561  19.002948  -0.000206   0.021464  -0.009576
1037  23   2.559929   6.561349  18.369880  -0.000219   0.021464  -0.010194
1038  28   2.898307   6.301569  19.283308  -0.000209   0.021464  -0.009759
1039  23   1.599522   5.892845  17.976063  -0.000088   0.009427  -0.009381
1040  16   2.020776   5.457161  18.880585  -0.000024   0.013322  -0.001774
1041  23   2.299109   6.829193  17.997262  -0.000113   0.009421  -0.011989
1042  16   2.830861   6.536706  18.901213  -0.000029   0.013314  -0.002201
1043  28   2.204161   5.120267  19.779476  -0.000504   0.065567  -0.007680
1044  28   2.172071   4.106864  20.147468  -0.000854   0.145099  -0.005889
1045  28   2.723965   3.129414  20.814255  -0.000829   0.145099  -0.005715
1046  28   3.780330   2.797035  21.505789  -0.000850   0.145099  -0.005858
1047  28   4.925202   3.240609  21.949763  -0.001036   0.145099  -0.007138
1048  28   5.707764   4.285469  21.971353  -0.001063   0.145099  -0.007325
1049  28   5.819866   5.520181  21.562059  -0.000876   0.145099  -0.006040
1050  28   5.217366   6.458552  20.883048  -0.000724   0.145099  -0.004987
1051  28   4.137510   6.731079  20.201694  -0.000861   0.145099  -0.005937
1052  28   3.181615   6.425344  19.806443  -0.000446   0.065567  -0.006798
1053  16   2.082416   4.614360  19.516500  -0.000895   0.144085  -0.006214
1054  16   2.308432   3.303761  20.135546  -0.000591   0.144085  -0.004101
1055  16   3.259992   2.528774  20.939225  -0.000573   0.144085  -0.003980
1056  16   4.562400   2.594565  21.611071  -0.000852   0.144085  -0.005913
1057  16   5.702806   3.475228  21.886532  -0.001163   0.144085  -0.008074
1058  16   6.232152   4.823984  21.657139  -0.000862   0.144085  -0.005985
1059  16   5.941998   6.109733  21.013220  -0.000542   0.144085  -0.003760
1060  16   4.946597   6.826186  20.208332  -0.000566   0.144085  -0.003928
1061  16   3.637910   6.691224  19.559415  -0.000973   0.144085  -0.006750
1062  30   7.096475   2.517891  22.112988  -0.000887   0.144125  -0.006157
1063  16   6.129896   3.070531  21.944203  -0.000482   0.203180  -0.002373
1064  29   3.018765   5.216541  -1.966274  -0.000461   0.067918  -0.006789
1065  29   2.010768   4.823824  -1.694301  -0.001001   0.151461  -0.006609
1066  29   0.797233   5.042085  -1.149624  -0.000747   0.151461  -0.004934
1067  29   0.053956   5.998073  -0.557507  -0.000858   0.151461  -0.005665
1068  29   0.094955   7.287904  -0.168108  -0.001103   0.151461  -0.007282
1069  29   0.902909   8.366650  -0.145939  -0.001184   0.151461  -0.007815
1070  29   2.136475   8.778565  -0.500366  -0.000824   0.151461  -0.005442
1071  29   3.274496   8.349622  -1.081651  -0.000870   0.151461  -0.005741
1072  29   3.836182   7.261041  -1.644214  -0.000995   0.151461  -0.006568
1073  29   3.748489   6.190836  -1.946252  -0.000424   0.067918  -0.006241
1074  17   2.839340   4.726705  -1.685146  -0.001019   0.148140  -0.006882
1075  17   1.423147   4.493061  -1.203033  -0.000650   0.148140  -0.004389
1076  17   0.261029   5.190427  -0.527910  -0.000578   0.148140  -0.003902
1077  17  -0.156042   6.524180   0.054996  -0.000875   0.148140  -0.005905
1078  17   0.348138   7.930838   0.299419  -0.000724   0.148140  -0.004886
1079  17   1.560562   8.816116   0.102097  -0.000832   0.148140  -0.005618
1080  17   2.969007   8.806004  -0.453607  -0.000613   0.148140  -0.004137
1081  17   3.978434   7.904772  -1.132919  -0.000645   0.148140  -0.004353
1082  17   4.162381   6.493173  -1.648844  -0.001015   0.148140  -0.006853
1083  30  10.415230   0.346189  20.254942  -0.000476   0.067671  -0.007038
1084  30  10.659031   1.404490  20.492323  -0.000909   0.150790  -0.006028
1085  30  10.279094   2.583581  21.012549  -0.000852   0.150790  -0.005650
1086  30   9.243787   3.195611  21.611549  -0.000782   0.150790  -0.005188
1087  30   7.987406   2.983844  22.038051  -0.001066   0.150790  -0.007068
1088  18  10.650430   0.785480  19.936090  -0.001020   0.147714  -0.006908
1089  18  10.683006   2.228426  20.377440  -0.000644   0.147714  -0.004360
1090  18   9.842845   3.291727  21.041869  -0.000648   0.147714  -0.004385
1091  18   8.482382   3.529343  21.650660  -0.000820   0.147714  -0.005554
1092  18   7.370769   3.108189  21.954439  -0.000516   0.082675  -0.006247
1093  30   6.879686   1.831747  22.110254  -0.000459   0.067667  -0.006786
1094  30   6.789545   0.765273  21.809986  -0.000996   0.150779  -0.006608
1095  30   7.344047  -0.322787  21.249890  -0.000744   0.150779  -0.004936
1096  30   8.474322  -0.758804  20.669010  -0.000852   0.150779  -0.005651
1097  30   9.706291  -0.359896  20.310988  -0.001090   0.150779  -0.007229
1098  18   6.465019   1.531600  21.813764  -0.001015   0.147707  -0.006870
1099  18   6.643500   0.123593  21.300567  -0.000649   0.147707  -0.004396
1100  18   7.643664  -0.781171  20.623230  -0.000576   0.147707  -0.003903
1101  18   9.046004  -0.803200  20.065853  -0.000866   0.147707  -0.005862
1102  18  10.101820  -0.222949  19.834048  -0.000462   0.082670  -0.005594
1103  21  10.190333   2.810776   4.883556  -0.001392   0.186858  -0.007449
1104  21  10.161222   1.745931   4.552869  -0.004199   0.374129  -0.011225
1105  21   9.506591   0.554924   4.432866  -0.004418   0.374129  -0.011809
1106  21   8.333843  -0.090575   4.696369  -0.003872   0.374129  -0.010349
1107  19  10.606774   2.085264   5.748841  -0.003896   0.374129  -0.010414
1108  19  10.322643   0.785845   5.445164  -0.004466   0.374129  -0.011937
1109  19   9.361784  -0.179814   5.520618  -0.004246   0.374129  -0.011349
1110  19   8.341804  -0.515494   5.822375  -0.001386   0.186858  -0.007416
1111  22  11.518597  -0.744007   9.227264  -0.001287   0.330564  -0.003895
1112  19  11.132766  -0.179690   7.952085  -0.001392   0.330564  -0.004210
1113  23   2.685968   8.215386  15.343012  -0.001392   0.186942  -0.007445
1114  23   1.666064   7.879591  15.644842  -0.004200   0.374297  -0.011220
1115  23   0.705349   6.913819  15.720307  -0.004419   0.374297  -0.011806
1116  23   0.421412   5.614399  15.416543  -0.003871   0.374297  -0.010343
1117  20   1.889600   8.434227  14.466859  -0.003896   0.374297  -0.010408
1118  20   0.716964   7.788591  14.730423  -0.004467   0.374297  -0.011934
1119  20   0.062506   6.597517  14.610380  -0.004247   0.374297  -0.011346
1120  20   0.033558   5.532711  14.279602  -0.001386   0.186942  -0.007412
1121  24  -1.012419   8.606961  10.932561  -0.001288   0.330653  -0.003895
1122  20  -0.387849   8.361599  12.214433  -0.001392   0.330653  -0.004210
1123  26   8.217626   2.162863   0.707247  -0.001295   0.358404  -0.003612
1124  21   8.606001   1.577448   1.982233  -0.001494   0.358404  -0.004168
1125  27  10.753716  -2.027322  14.690974  -0.000972   0.264803  -0.003670
1126  27  11.817405  -1.427941  14.735998  -0.003342   0.529738  -0.006308
1127  27  12.473886  -0.098151  14.745201  -0.003119   0.529738  -0.005887
1128  22  11.256864  -1.856389  13.234655  -0.003100   0.529738  -0.005852
1129  22  12.348090  -0.852833  13.273320  -0.003429   0.529738  -0.006474
1130  22  12.624685   0.337186  13.265005  -0.000949   0.264803  -0.003584
1131  28   2.537966   6.029776  19.461474  -0.001293   0.358156  -0.003609
1132  23   1.891984   6.271902  18.179560  -0.001492   0.358156  -0.004166
1133  25  -1.919739   7.656670   5.422302  -0.000972   0.264808  -0.003670
1134  25  -1.643008   8.846465   5.413947  -0.003341   0.529745  -0.006306
1135  25  -0.551862   9.849787   5.452703  -0.003117   0.529745  -0.005883
1136  24  -1.926185   8.149163   6.892509  -0.003099   0.529745  -0.005850
1137  24  -1.269637   9.478681   6.901718  -0.003429   0.529745  -0.006472
1138  24  -0.206083  10.077910   6.946857  -0.000949   0.264808  -0.003583
 =====================================================

             14012442  WORDS OF DYNAMIC MEMORY USED
 EXECUTION OF GAMESS TERMINATED NORMALLY Wed Nov 23 21:51:17 2016
 DDI: 263640 bytes (0.3 MB / 0 MWords) used by master data server.

 ----------------------------------------
 CPU timing information for all processes
 ========================================
 0: 3076.440 + 0.540 = 3076.980
 ----------------------------------------
 ddikick.x: exited gracefully.
