----- GAMESS execution script -----

          ******************************************************
          *         GAMESS VERSION =  5 DEC 2014 (R1)          *
          *             FROM IOWA STATE UNIVERSITY             *
          * M.W.SCHMIDT, K.K.BALDRIDGE, J.A.BOATZ, S.T.ELBERT, *
          *   M.S.GORDON, J.H.JENSEN, S.KOSEKI, N.MATSUNAGA,   *
          *          K.A.NGUYEN, S.J.SU, T.L.WINDUS,           *
          *       TOGETHER WITH M.DUPUIS, J.A.MONTGOMERY       *
          *         J.COMPUT.CHEM.  14, 1347-1363(1993)        *
          **************** 64 BIT LINUX VERSION ****************

 EXECUTION OF GAMESS BEGUN Wed Nov 23 21:07:06 2016

            ECHO OF THE FIRST FEW INPUT CARDS -
 INPUT CARD>! SELECT RESTRICTED HARTREE-FOCK AS DEFAULT                                     
 INPUT CARD>$contrl scftyp=rhf $end                                                         
 INPUT CARD>                                                                                
 INPUT CARD>! THEORY: HF OR DFT                                                             
 INPUT CARD> $contrl mplevl=0 $end                                                          
 INPUT CARD>                                                                                
 INPUT CARD> $system timlim=10000 mwords=20 $end                                            
 INPUT CARD> $SCF DIRSCF=.TRUE. $end                                                        
 INPUT CARD>                                                                                
 INPUT CARD>                                                                                
 INPUT CARD>! BASIS SETS                                                                    
 INPUT CARD>! 6-311G(d,p)                                                                   
 INPUT CARD> $BASIS GBASIS=N311 NGAUSS=6 NDFUNC=1 NPFUNC=1 $END                             
 INPUT CARD>                                                                                
 INPUT CARD>! One of the following                                                          
 INPUT CARD> $guess guess=HUCKEL $end                                                       
 INPUT CARD>                                                                                
 INPUT CARD> $statpt projct=.FALSE. $end                                                    
 INPUT CARD> $STATPT IFREEZ(1)=1,2,3 $END                                                   
 INPUT CARD>                                                                                
 INPUT CARD>! Optimize the geometry with COSMO effects                                      
 INPUT CARD> $statpt opttol=0.0005 nstep=50 $end                                            
 INPUT CARD> $contrl nzvar=1 $end                                                           
 INPUT CARD> $zmat dlc=.t. auto=.t. $end                                                    
 INPUT CARD> $contrl runtyp=OPTIMIZE maxit=200 $end                                         
 INPUT CARD>                                                                                
 INPUT CARD>! Run COSMO on perfect conductor                                                
 INPUT CARD> $COSGMS PRFCND=.TRUE. $end                                                     
 INPUT CARD>                                                                                
 INPUT CARD>! Specifying RSOLV                                                              
 INPUT CARD> $COSGMS COSRAD = 1.4 $end                                                      
 INPUT CARD>                                                                                
 INPUT CARD>! available memory                                                              
 INPUT CARD> $SYSTEM MWORDS=40 $END                                                         
 INPUT CARD>                                                                                
 INPUT CARD> $DATA                                                                          
 INPUT CARD>2-Butene, (Z)-, ID: C590181                                                     
 INPUT CARD>C1                                                                              
 INPUT CARD>C      6.0      1.1795000000    1.4015000000    0.5770000000                    
 INPUT CARD>C      6.0      2.4631000000    1.0365000000    0.6048000000                    
 INPUT CARD>C      6.0      3.5855000000    1.9450000000    0.9255000000                    
 INPUT CARD>C      6.0      0.6903000000    2.7676000000    0.8638000000                    
 INPUT CARD>H      1.0      0.4075000000    0.6635000000    0.3288000000                    
 INPUT CARD>H      1.0      2.7410000000    0.0000000000    0.3791000000                    
 INPUT CARD>H      1.0      3.2399000000    2.9694000000    1.1436000000                    
 INPUT CARD>H      1.0      4.1384000000    1.5840000000    1.8025000000                    
 INPUT CARD>H      1.0      4.2908000000    2.0009000000    0.0861000000                    
 INPUT CARD>H      1.0      0.0000000000    2.7611000000    1.7174000000                    
 INPUT CARD>H      1.0      1.5142000000    3.4610000000    1.1023000000                    
 INPUT CARD>H      1.0      0.1489000000    3.1748000000    0.0000000000                    
   40000000 WORDS OF MEMORY AVAILABLE

     BASIS OPTIONS
     -------------
     GBASIS=N311         IGAUSS=       6      POLAR=POPN311 
     NDFUNC=       1     NFFUNC=       0     DIFFSP=       F
     NPFUNC=       1      DIFFS=       F     BASNAM=        


     RUN TITLE
     ---------
 2-Butene, (Z)-, ID: C590181                                                     

 THE POINT GROUP OF THE MOLECULE IS C1      
 THE ORDER OF THE PRINCIPAL AXIS IS     0

 ATOM      ATOMIC                      COORDINATES (BOHR)
           CHARGE         X                   Y                   Z
 C           6.0     2.2289318025        2.6484509718        1.0903718949
 C           6.0     4.6545840804        1.9587009863        1.1429062774
 C           6.0     6.7756125290        3.6755170461        1.7489414016
 C           6.0     1.3044778493        5.2300056436        1.6323453082
 H           1.0     0.7700633400        1.2538331929        0.6213419048
 H           1.0     5.1797389323        0.0000000000        0.7163951219
 H           1.0     6.1225232276        5.6113523479        2.1610906396
 H           1.0     7.8204420276        2.9933259646        3.4062310929
 H           1.0     8.1084362681        3.7811527288        0.1627054075
 H           1.0     0.0000000000        5.2177224247        3.2454154113
 H           1.0     2.8614230906        6.5403416435        2.0830449563
 H           1.0     0.2813801996        5.9995020658        0.0000000000

          INTERNUCLEAR DISTANCES (ANGS.)




     $CONTRL OPTIONS
     ---------------
 SCFTYP=RHF          RUNTYP=OPTIMIZE     EXETYP=RUN     
 MPLEVL=       0     CITYP =NONE         CCTYP =NONE         VBTYP =NONE    
 DFTTYP=NONE         TDDFT =NONE    
 MULT  =       1     ICHARG=       0     NZVAR =       1     COORD =UNIQUE  
 PP    =NONE         RELWFN=NONE         LOCAL =NONE         NUMGRD=       F
 ISPHER=      -1     NOSYM =       0     MAXIT =     200     UNITS =ANGS    
 PLTORB=       F     MOLPLT=       F     AIMPAC=       F     FRIEND=        
 NPRINT=       7     IREST =       0     GEOM  =INPUT   
 NORMF =       0     NORMP =       0     ITOL  =      20     ICUT  =       9
 INTTYP=BEST         GRDTYP=BEST         QMTTOL= 1.0E-06

     $SYSTEM OPTIONS
     ---------------
  REPLICATED MEMORY=    40000000 WORDS (ON EVERY NODE).
 DISTRIBUTED MEMDDI=           0 MILLION WORDS IN AGGREGATE,
 MEMDDI DISTRIBUTED OVER   1 PROCESSORS IS           0 WORDS/PROCESSOR.
 TOTAL MEMORY REQUESTED ON EACH PROCESSOR=    40000000 WORDS.
 TIMLIM=       10000.00 MINUTES, OR       6.9 DAYS.
 PARALL= F  BALTYP=  DLB     KDIAG=    0  COREFL= F
 MXSEQ2=     300 MXSEQ3=     150  mem10=         0

     $COSGMS OPTIONS
     ---------------
     EPSI  =   INFTY     NSPA  =      92     COSRAD=    1.40
     DISEX =   10.00     OUTCHG=DBLCAV       COSBUG=       F
     COSWRT=       F     DCOSMO=       F

     SYMMETRY COORDINATES WILL NOT BE USED FOR 
     THE COSMO CALCULATION, EVEN IF SPECIFIED:
         -- SWITCHING TO C1 POINT GROUP --


     DEFINITION OF CAVITY
     ---------------------------
     ATOM         COORDINATES           RADIUS 
     1    2.2289    2.6485    1.0904    2.0000
     2    4.6546    1.9587    1.1429    2.0000
     3    6.7756    3.6755    1.7489    2.0000
     4    1.3045    5.2300    1.6323    2.0000
     5    0.7701    1.2538    0.6213    1.3000
     6    5.1797    0.0000    0.7164    1.3000
     7    6.1225    5.6114    2.1611    1.3000
     8    7.8204    2.9933    3.4062    1.3000
     9    8.1084    3.7812    0.1627    1.3000
    10    0.0000    5.2177    3.2454    1.3000
    11    2.8614    6.5403    2.0830    1.3000
    12    0.2814    5.9995    0.0000    1.3000

          ----------------
          PROPERTIES INPUT
          ----------------

     MOMENTS            FIELD           POTENTIAL          DENSITY
 IEMOM =       1   IEFLD =       0   IEPOT =       0   IEDEN =       0
 WHERE =COMASS     WHERE =NUCLEI     WHERE =NUCLEI     WHERE =NUCLEI  
 OUTPUT=BOTH       OUTPUT=BOTH       OUTPUT=BOTH       OUTPUT=BOTH    
 IEMINT=       0   IEFINT=       0                     IEDINT=       0
                                                       MORB  =       0
          EXTRAPOLATION IN EFFECT
          SOSCF IN EFFECT
 ORBITAL PRINTING OPTION: NPREO=     1   124     2     1

     -------------------------------
     INTEGRAL TRANSFORMATION OPTIONS
     -------------------------------
     NWORD  =            0
     CUTOFF = 1.0E-09     MPTRAN =       0
     DIRTRF =       T     AOINTS =DUP     

          ----------------------
          INTEGRAL INPUT OPTIONS
          ----------------------
 NOPK  =       1 NORDER=       0 SCHWRZ=       T


 -----------------------------------------------
  STATISTICS ON AUTOMATIC COORDINATE GENERATION 
 -----------------------------------------------
  NUMBER OF USER SPECIFIED BONDS                             0
  NUMBER OF BONDS                                           11
  NUMBER OF ANGLES                                          18
  NUMBER OF TORSIONS                                        16
  NUMBER OF EXTRA COORD.                                     0
  NUMBER OF EXTRA COORD. FOR CONSTRAINTS                     0
  NUMBER OF CONSTRAINED COORD.                               0

  TOTAL NUMBER OF PRIMITIVES                                45
 -----------------------------------------------

   --- ENCODED Z MATRIX ---
 COORD  TYPE   I   J   K   L   M   N
    1      1    1   4
    2      1    1   2
    3      1    1   5
    4      1    2   6
    5      1    2   3
    6      1    3   8
    7      1    3   7
    8      1    3   9
    9      1    4  12
   10      1    4  11
   11      1    4  10
   12      2    1   4  11
   13      2    1   4  12
   14      2    1   2   3
   15      2    1   4  10
   16      2    1   2   6
   17      2    2   1   5
   18      2    2   3   9
   19      2    2   3   8
   20      2    2   1   4
   21      2    2   3   7
   22      2    3   2   6
   23      2    4   1   5
   24      2    7   3   9
   25      2    7   3   8
   26      2    8   3   9
   27      2   10   4  11
   28      2   10   4  12
   29      2   11   4  12
   30      3    1   2   3   8
   31      3    1   2   3   9
   32      3    1   2   3   7
   33      3    2   1   4  12
   34      3    2   1   4  10
   35      3    2   1   4  11
   36      3    3   2   1   5
   37      3    3   2   1   4
   38      3    4   1   2   6
   39      3    5   1   2   6
   40      3    5   1   4  10
   41      3    5   1   4  11
   42      3    5   1   4  12
   43      3    6   2   3   7
   44      3    6   2   3   8
   45      3    6   2   3   9

          INDEP./SYM. INTERNAL COORDINATES
          --------------------------------
 CRD  1=  -0.2110 (  2) -0.1445 ( 12) -0.5374 ( 14)  0.2730 ( 16)  0.2730 ( 17)
          -0.5374 ( 20) -0.1445 ( 21)  0.2644 ( 22)  0.2643 ( 23)
 CRD  2=   0.2442 ( 13) -0.2454 ( 15) -0.2451 ( 18)  0.2446 ( 19) -0.1509 ( 32)
          -0.1510 ( 35) -0.3639 ( 36) -0.4510 ( 37) -0.3638 ( 38) -0.2766 ( 39)
          -0.1126 ( 40) -0.2348 ( 41) -0.1121 ( 42) -0.2348 ( 43) -0.1122 ( 44)
          -0.1125 ( 45)
 CRD  3=  -0.3757 (  1)  0.1097 (  3) -0.1097 (  4)  0.3757 (  5) -0.3623 ( 12)
           0.3179 ( 14) -0.2256 ( 16)  0.2256 ( 17) -0.3179 ( 20)  0.3622 ( 21)
          -0.1402 ( 24) -0.1400 ( 25)  0.1404 ( 27)  0.1398 ( 29)
 CRD  4=  -0.3500 (  1) -0.5214 (  2) -0.1574 (  3) -0.1573 (  4) -0.3495 (  5)
           0.1809 ( 12) -0.2361 ( 13) -0.2346 ( 15) -0.2347 ( 18) -0.2353 ( 19)
           0.1807 ( 21)  0.1996 ( 26)  0.1998 ( 28)
 CRD  5=  -0.3280 (  1)  0.3286 (  5)  0.2073 ( 12) -0.2946 ( 13) -0.1501 ( 14)
          -0.1915 ( 15) -0.1821 ( 16)  0.1820 ( 17)  0.1925 ( 18)  0.2945 ( 19)
           0.1501 ( 20) -0.2077 ( 21)  0.3322 ( 22) -0.3320 ( 23) -0.1797 ( 26)
           0.1793 ( 28)
 CRD  6=   0.3269 ( 13) -0.3967 ( 15)  0.3962 ( 18) -0.3272 ( 19) -0.1130 ( 24)
           0.1129 ( 27) -0.2621 ( 30) -0.2492 ( 31) -0.1397 ( 32)  0.2621 ( 33)
           0.2490 ( 34)  0.1397 ( 35)  0.1970 ( 36) -0.1971 ( 38)
 CRD  7=   0.2059 (  1) -0.3662 (  2)  0.2056 (  5)  0.1111 ( 13)  0.1095 ( 15)
          -0.4338 ( 16) -0.4340 ( 17)  0.1095 ( 18)  0.1108 ( 19)  0.3998 ( 22)
           0.3999 ( 23)
 CRD  8=   0.1398 (  6) -0.1400 (  8)  0.1396 (  9) -0.1401 ( 11)  0.3680 ( 13)
          -0.3696 ( 15) -0.3693 ( 18)  0.3685 ( 19)  0.1659 ( 24) -0.1658 ( 25)
           0.1656 ( 27) -0.1660 ( 29)  0.1291 ( 30)  0.1290 ( 31)  0.1291 ( 33)
           0.1290 ( 34)  0.1768 ( 36)  0.1601 ( 37)  0.1768 ( 38)  0.1935 ( 39)
           0.1130 ( 40)  0.1131 ( 42)  0.1131 ( 44)  0.1130 ( 45)
 CRD  9=  -0.2501 (  1) -0.2560 (  3) -0.2560 (  4) -0.2502 (  5) -0.1364 (  7)
          -0.1364 ( 10) -0.4732 ( 12)  0.1112 ( 13)  0.1279 ( 14)  0.1091 ( 15)
           0.1097 ( 18)  0.1104 ( 19)  0.1279 ( 20) -0.4732 ( 21)  0.1764 ( 24)
           0.1762 ( 25)  0.1767 ( 27)  0.1758 ( 29)
 CRD 10=  -0.1179 (  6)  0.1062 (  8)  0.1178 (  9) -0.1064 ( 11)  0.2531 ( 13)
          -0.2333 ( 15)  0.2330 ( 18) -0.2534 ( 19) -0.1496 ( 24)  0.1330 ( 25)
           0.1494 ( 27) -0.1332 ( 29)  0.2781 ( 30)  0.2794 ( 31)  0.2669 ( 32)
          -0.2780 ( 33) -0.2792 ( 34) -0.2668 ( 35) -0.1258 ( 36)  0.1258 ( 38)
          -0.1583 ( 40) -0.1458 ( 41) -0.1571 ( 42)  0.1459 ( 43)  0.1571 ( 44)
           0.1584 ( 45)
 CRD 11=  -0.4032 (  3)  0.4031 (  4)  0.1303 (  7) -0.1304 ( 10) -0.3095 ( 12)
           0.1071 ( 13) -0.2860 ( 14)  0.1449 ( 15) -0.1454 ( 18) -0.1066 ( 19)
           0.2861 ( 20)  0.3094 ( 21)  0.2222 ( 22) -0.2222 ( 23) -0.1133 ( 25)
           0.1430 ( 26) -0.1431 ( 28)  0.1130 ( 29)
 CRD 12=   0.3367 (  6)  0.3577 (  7)  0.3366 (  8) -0.3366 (  9) -0.3576 ( 10)
          -0.3367 ( 11)  0.1264 ( 12)  0.1461 ( 13)  0.1460 ( 15) -0.1460 ( 18)
          -0.1461 ( 19) -0.1264 ( 21)  0.1436 ( 24)  0.1438 ( 25)  0.1562 ( 26)
          -0.1436 ( 27) -0.1562 ( 28) -0.1437 ( 29)
 CRD 13=  -0.1047 (  1) -0.1047 (  5) -0.3372 (  6) -0.3583 (  7) -0.3372 (  8)
          -0.3372 (  9) -0.3584 ( 10) -0.3373 ( 11)  0.1171 ( 12)  0.1429 ( 13)
           0.1428 ( 15)  0.1428 ( 18)  0.1429 ( 19)  0.1171 ( 21) -0.1365 ( 24)
          -0.1367 ( 25) -0.1538 ( 26) -0.1365 ( 27) -0.1538 ( 28) -0.1366 ( 29)
 CRD 14=  -0.3619 (  6)  0.3577 (  8) -0.3691 (  9)  0.3666 ( 11)  0.2473 ( 24)
          -0.2444 ( 25)  0.2519 ( 27) -0.2503 ( 29) -0.1016 ( 30) -0.1049 ( 31)
           0.1760 ( 32) -0.1043 ( 33) -0.1061 ( 34)  0.1802 ( 35)  0.1896 ( 41)
           0.1852 ( 43)
 CRD 15=  -0.2326 (  6)  0.4550 (  7) -0.2225 (  8)  0.1989 (  9) -0.3847 ( 10)
           0.1848 ( 11)  0.1563 ( 24)  0.1496 ( 25) -0.3097 ( 26) -0.1339 ( 27)
           0.2618 ( 28) -0.1246 ( 29)  0.1733 ( 30) -0.1756 ( 31) -0.1458 ( 33)
           0.1491 ( 34)  0.1490 ( 40) -0.1459 ( 42)  0.1734 ( 44) -0.1755 ( 45)
 CRD 16=   0.1913 (  6) -0.3836 (  7)  0.1986 (  8)  0.2281 (  9) -0.4540 ( 10)
           0.2321 ( 11) -0.1268 ( 24) -0.1318 ( 25)  0.2613 ( 26) -0.1516 ( 27)
           0.3092 ( 28) -0.1543 ( 29) -0.1485 ( 30)  0.1465 ( 31) -0.1751 ( 33)
           0.1739 ( 34)  0.1740 ( 40) -0.1750 ( 42) -0.1484 ( 44)  0.1466 ( 45)
 CRD 17=   0.3702 (  6) -0.3769 (  8) -0.3619 (  9)  0.3692 ( 11) -0.2432 ( 24)
           0.2476 ( 25)  0.2375 ( 27) -0.2424 ( 29) -0.1941 ( 32)  0.1902 ( 35)
           0.2004 ( 41) -0.2045 ( 43)
 CRD 18=  -0.2449 ( 30) -0.2447 ( 31) -0.1808 ( 32) -0.2451 ( 33) -0.2448 ( 34)
          -0.1808 ( 35)  0.2393 ( 36)  0.2040 ( 37)  0.2393 ( 38)  0.2746 ( 39)
          -0.2787 ( 40) -0.2148 ( 41) -0.2791 ( 42) -0.2147 ( 43) -0.2788 ( 44)
          -0.2787 ( 45)
 CRD 19=  -0.1374 (  1) -0.3418 (  3)  0.3417 (  4)  0.1374 (  5)  0.1842 (  6)
           0.1838 (  8) -0.1844 (  9) -0.1836 ( 11) -0.1305 ( 13) -0.1300 ( 15)
           0.3184 ( 16) -0.3184 ( 17)  0.1301 ( 18)  0.1304 ( 19) -0.3514 ( 22)
           0.3514 ( 23) -0.1709 ( 26)  0.1709 ( 28)
 CRD 20=  -0.1451 (  1)  0.2421 (  2)  0.4892 (  3)  0.4893 (  4) -0.1451 (  5)
          -0.1450 (  6) -0.1675 (  7) -0.1449 (  8) -0.1450 (  9) -0.1675 ( 10)
          -0.1450 ( 11) -0.1505 ( 12) -0.1026 ( 13) -0.1028 ( 15) -0.1683 ( 16)
          -0.1683 ( 17) -0.1027 ( 18) -0.1027 ( 19) -0.1505 ( 21)  0.1389 ( 22)
           0.1390 ( 23)  0.1273 ( 24)  0.1274 ( 25)  0.1228 ( 26)  0.1273 ( 27)
           0.1228 ( 28)  0.1274 ( 29)
 CRD 21=   0.1651 (  1)  0.3578 (  3) -0.3578 (  4) -0.1650 (  5)  0.2819 (  7)
          -0.2819 ( 10) -0.1865 ( 12) -0.1371 ( 13) -0.2069 ( 14) -0.1373 ( 15)
           0.1891 ( 16) -0.1891 ( 17)  0.1372 ( 18)  0.1371 ( 19)  0.2069 ( 20)
           0.1865 ( 21) -0.2037 ( 24) -0.2032 ( 25)  0.2038 ( 27)  0.2031 ( 29)
 CRD 22=  -0.1624 (  1) -0.4989 (  2)  0.3790 (  3)  0.3789 (  4) -0.1624 (  5)
           0.1856 (  6)  0.1852 (  8)  0.1860 (  9)  0.1849 ( 11)  0.1207 ( 13)
           0.1204 ( 15)  0.1205 ( 18)  0.1206 ( 19) -0.1452 ( 22) -0.1452 ( 23)
          -0.2210 ( 26) -0.2210 ( 28)
 CRD 23=   0.2328 (  6) -0.2330 (  8) -0.2325 (  9)  0.2333 ( 11)  0.1615 ( 24)
          -0.1621 ( 25) -0.1612 ( 27)  0.1624 ( 29)  0.1513 ( 32) -0.1513 ( 35)
           0.2636 ( 36) -0.2636 ( 38) -0.1952 ( 40) -0.4049 ( 41) -0.1942 ( 42)
           0.4049 ( 43)  0.1945 ( 44)  0.1950 ( 45)
 CRD 24=   0.4442 (  1) -0.3765 (  2)  0.4442 (  5) -0.2583 (  7) -0.2583 ( 10)
          -0.1020 ( 12) -0.1379 ( 13) -0.1377 ( 15)  0.1201 ( 16)  0.1201 ( 17)
          -0.1378 ( 18) -0.1379 ( 19) -0.1020 ( 21) -0.1147 ( 22) -0.1147 ( 23)
           0.1811 ( 24)  0.1807 ( 25)  0.1813 ( 27)  0.1804 ( 29)
 CRD 25=  -0.4188 (  1)  0.1968 (  3) -0.1968 (  4)  0.4188 (  5) -0.1629 (  6)
          -0.1625 (  8)  0.1630 (  9)  0.1623 ( 11)  0.1401 ( 12) -0.1521 ( 14)
           0.2903 ( 16) -0.2904 ( 17)  0.1521 ( 20) -0.1401 ( 21) -0.1383 ( 22)
           0.1383 ( 23)  0.2043 ( 26) -0.2042 ( 28)
 CRD 26=   0.2896 (  6) -0.2900 (  8)  0.2892 (  9) -0.2904 ( 11)  0.2010 ( 24)
          -0.2014 ( 25)  0.2007 ( 27) -0.2017 ( 29) -0.1574 ( 30) -0.1568 ( 31)
           0.1645 ( 32) -0.1578 ( 33) -0.1564 ( 34)  0.1645 ( 35) -0.1703 ( 36)
          -0.1704 ( 38) -0.2940 ( 39)  0.2834 ( 41)  0.2834 ( 43)
 CRD 27=   0.1317 (  1) -0.1812 (  3)  0.1904 (  4) -0.1251 (  5) -0.1305 (  6)
           0.3075 (  7) -0.1294 (  8)  0.1195 (  9) -0.2876 ( 10)  0.1174 ( 11)
           0.1509 ( 12) -0.1068 ( 13)  0.2493 ( 14) -0.1055 ( 15) -0.1229 ( 16)
           0.1281 ( 17)  0.1117 ( 18)  0.1125 ( 19) -0.2391 ( 20) -0.1656 ( 21)
          -0.1264 ( 22)  0.1110 ( 23) -0.1212 ( 24) -0.1205 ( 25)  0.1854 ( 26)
           0.1154 ( 27) -0.1696 ( 28)  0.1139 ( 29) -0.1879 ( 30)  0.1883 ( 31)
           0.1738 ( 33) -0.1749 ( 34) -0.1750 ( 40)  0.1737 ( 42) -0.1877 ( 44)
           0.1884 ( 45)
 CRD 28=   0.3023 (  2) -0.1296 (  3) -0.1157 (  4)  0.1495 (  6) -0.2566 (  7)
           0.1486 (  8)  0.1592 (  9) -0.2788 ( 10)  0.1575 ( 11)  0.2031 ( 12)
          -0.1281 ( 14) -0.1463 ( 20)  0.1913 ( 21)  0.2018 ( 22)  0.2107 ( 23)
          -0.2059 ( 26) -0.2191 ( 28)  0.1769 ( 30) -0.1772 ( 31)  0.1902 ( 33)
          -0.1911 ( 34) -0.1910 ( 40)  0.1902 ( 42)  0.1768 ( 44) -0.1774 ( 45)
 CRD 29=  -0.2080 (  6)  0.2086 (  8)  0.2078 (  9) -0.2087 ( 11) -0.1481 ( 13)
           0.1489 ( 15) -0.1488 ( 18)  0.1483 ( 19) -0.1446 ( 24)  0.1450 ( 25)
           0.1444 ( 27) -0.1451 ( 29) -0.2784 ( 32)  0.2784 ( 35)  0.2902 ( 36)
          -0.2903 ( 38) -0.2868 ( 40) -0.2881 ( 42)  0.2880 ( 44)  0.2871 ( 45)
 CRD 30=   0.2074 ( 30)  0.2077 ( 31)  0.3276 ( 32)  0.2074 ( 33)  0.2079 ( 34)
           0.3278 ( 35) -0.4314 ( 37)  0.4285 ( 39) -0.2058 ( 40) -0.2063 ( 42)
          -0.2062 ( 44) -0.2059 ( 45)

 THE DETERMINANT OF THE G MATRIX IS 10**(    -9)


                     --------------------
                     INTERNAL COORDINATES
                     --------------------

                 - - ATOMS - -         COORDINATE      COORDINATE
 NO.   TYPE    I  J  K  L  M  N        (BOHR,RAD)       (ANG,DEG)
 ----------------------------------------------------------------
   1 STRETCH   1  4                     2.7951341       1.4791214
   2 STRETCH   1  2                     2.5223608       1.3347759
   3 STRETCH   1  5                     2.0720147       1.0964631
   4 STRETCH   2  6                     2.0722473       1.0965861
   5 STRETCH   2  3                     2.7952634       1.4791898
   6 STRETCH   3  8                     2.0745270       1.0977925
   7 STRETCH   3  7                     2.0841907       1.1029063
   8 STRETCH   3  9                     2.0745416       1.0978002
   9 STRETCH   4 12                     2.0744649       1.0977596
  10 STRETCH   4 11                     2.0842718       1.1029492
  11 STRETCH   4 10                     2.0745622       1.0978111
  12 BEND      1  4 11                  1.9557421     112.0557700
  13 BEND      1  4 12                  1.9317153     110.6791362
  14 BEND      1  2  3                  2.1727632     124.4901590
  15 BEND      1  4 10                  1.9318534     110.6870464
  16 BEND      1  2  6                  2.0919608     119.8605235
  17 BEND      2  1  5                  2.0917957     119.8510654
  18 BEND      2  3  9                  1.9315703     110.6708254
  19 BEND      2  3  8                  1.9319956     110.6951920
  20 BEND      2  1  4                  2.1731422     124.5118756
  21 BEND      2  3  7                  1.9558099     112.0596532
  22 BEND      3  2  6                  2.0184612     115.6493102
  23 BEND      4  1  5                  2.0182473     115.6370505
  24 BEND      7  3  9                  1.8809739     107.7718677
  25 BEND      7  3  8                  1.8810248     107.7747829
  26 BEND      8  3  9                  1.8796898     107.6982937
  27 BEND     10  4 11                  1.8810457     107.7759791
  28 BEND     10  4 12                  1.8795958     107.6929063
  29 BEND     11  4 12                  1.8811142     107.7799025
  30 TORSION   1  2  3  8               2.1022953     120.4526457
  31 TORSION   1  2  3  9              -2.0981615    -120.2157982
  32 TORSION   1  2  3  7               0.0018877       0.1081572
  33 TORSION   2  1  4 12               2.1042527     120.5648005
  34 TORSION   2  1  4 10              -2.0963195    -120.1102613
  35 TORSION   2  1  4 11               0.0039707       0.2275040
  36 TORSION   3  2  1  5               3.1412793     179.9820448
  37 TORSION   3  2  1  4              -0.0009258      -0.0530450
  38 TORSION   4  1  2  6               3.1412344     179.9794742
  39 TORSION   5  1  2  6               0.0002542       0.0145640
  40 TORSION   5  1  4 10               1.0446839      59.8559812
  41 TORSION   5  1  4 11              -3.1382111    -179.8062535
  42 TORSION   5  1  4 12              -1.0379291     -59.4689569
  43 TORSION   6  2  3  7              -3.1402510    -179.9231275
  44 TORSION   6  2  3  8              -1.0398434     -59.5786390
  45 TORSION   6  2  3  9               1.0428851      59.7529171

     ------------------------------------------
     THE POINT GROUP IS C1 , NAXIS= 1, ORDER= 1
     ------------------------------------------

     DIMENSIONS OF THE SYMMETRY SUBSPACES ARE
 A   =  124

 ..... DONE SETTING UP THE RUN .....
 STEP CPU TIME =     0.01 TOTAL CPU TIME =        0.0 (    0.0 MIN)
 TOTAL WALL CLOCK TIME=        0.0 SECONDS, CPU UTILIZATION IS 100.00%


          -----------------------------
          STATIONARY POINT LOCATION RUN
          -----------------------------

 OBTAINING INITIAL HESSIAN, HESS=GUESS   
 DIAGONAL GUESS HESSIAN IN INTERNAL COORDS IS
     1  0.4053     2  0.5366     3  0.3420     4  0.3420     5  0.4053
     6  0.3412     7  0.3378     8  0.3412     9  0.3412    10  0.3378
    11  0.3411    12  0.2264    13  0.2267    14  0.2667    15  0.2267
    16  0.2358    17  0.2358    18  0.2267    19  0.2267    20  0.2667
    21  0.2263    22  0.2267    23  0.2267    24  0.2024    25  0.2024
    26  0.2026    27  0.2024    28  0.2026    29  0.2024    30  0.2500
    31  0.2500    32  0.2500    33  0.2500    34  0.2500    35  0.2500
    36  0.2500    37  0.2500    38  0.2500    39  0.2500    40  0.2500
    41  0.2500    42  0.2500    43  0.2500    44  0.2500    45  0.2500
 TRANSFORMING HESSIAN TO SYMMETRY COORDINATES

          PARAMETERS CONTROLLING GEOMETRY SEARCH ARE
          METHOD =QA                  UPHESS =BFGS    
          NNEG   =         0          NFRZ   =         3
          NSTEP  =        50          IFOLOW =         1
          HESS   =GUESS               RESTAR =         F
          IHREP  =         0          HSSEND =         F
          NPRT   =         0          NPUN   =         0
          OPTTOL = 5.000E-04          RMIN   = 1.500E-03
          RMAX   = 1.000E-01          RLIM   = 7.000E-02
          DXMAX  = 3.000E-01          PURIFY =         F
          MOVIE  =         F          TRUPD  =         T
          TRMAX  = 5.000E-01          TRMIN  = 5.000E-02
          ITBMAT =         5          STPT   =         F
          STSTEP = 1.000E-02          PROJCT=          F
          FROZEN COORD(S)=   1   2   3


      ***** EQUILIBRIUM GEOMETRY LOCATED *****
            (SUBJECT TO   3 CONSTRAINT(S))
 COORDINATES OF ALL ATOMS ARE (ANGS)
   ATOM   CHARGE       X              Y              Z
 ------------------------------------------------------------
 C           6.0   1.1828173701   1.3895667208   0.5744442304
 C           6.0   2.4541193707   1.0281997050   0.6019593536
 C           6.0   3.5967728864   1.9514621176   0.9280689418
 C           6.0   0.6840508272   2.7790720185   0.8659832514
 H           1.0   0.4326020108   0.6518687038   0.3283311780
 H           1.0   2.7136284260   0.0035637422   0.3775165881
 H           1.0   3.2475334403   2.9504217144   1.1396654496
 H           1.0   4.1428224010   1.6026747939   1.7992108806
 H           1.0   4.2940787249   2.0158579622   0.0983838669
 H           1.0   0.0062060521   2.7792594995   1.7141054981
 H           1.0   1.4978228563   3.4488746103   1.0979909772
 H           1.0   0.1536210496   3.1895579904   0.0122662120


                     --------------------
                     INTERNAL COORDINATES
                     --------------------

                 - - ATOMS - -         COORDINATE      COORDINATE
 NO.   TYPE    I  J  K  L  M  N        (BOHR,RAD)       (ANG,DEG)
 ----------------------------------------------------------------
   1 STRETCH   1  4                     2.8437005       1.5048216
   2 STRETCH   1  2                     2.4981234       1.3219501
   3 STRETCH   1  5                     2.0419476       1.0805522
   4 STRETCH   2  6                     2.0419522       1.0805547
   5 STRETCH   2  3                     2.8436565       1.5047983
   6 STRETCH   3  8                     2.0516463       1.0856846
   7 STRETCH   3  7                     2.0393826       1.0791949
   8 STRETCH   3  9                     2.0516886       1.0857069
   9 STRETCH   4 12                     2.0516257       1.0856736
  10 STRETCH   4 11                     2.0394057       1.0792071
  11 STRETCH   4 10                     2.0517107       1.0857186
  12 BEND      1  4 11                  1.9442215     111.3956886
  13 BEND      1  4 12                  1.9376822     111.0210129
  14 BEND      1  2  3                  2.1737038     124.5440517
  15 BEND      1  4 10                  1.9373819     111.0038082
  16 BEND      1  2  6                  2.0781327     119.0682330
  17 BEND      2  1  5                  2.0780810     119.0652733
  18 BEND      2  3  9                  1.9374297     111.0065427
  19 BEND      2  3  8                  1.9376644     111.0199931
  20 BEND      2  1  4                  2.1738082     124.5500329
  21 BEND      2  3  7                  1.9440962     111.3885049
  22 BEND      3  2  6                  2.0313488     116.3877105
  23 BEND      4  1  5                  2.0312960     116.3846866
  24 BEND      7  3  9                  1.8783976     107.6242538
  25 BEND      7  3  8                  1.8784396     107.6266591
  26 BEND      8  3  9                  1.8851529     108.0113045
  27 BEND     10  4 11                  1.8783532     107.6217123
  28 BEND     10  4 12                  1.8851170     108.0092468
  29 BEND     11  4 12                  1.8784189     107.6254764
  30 TORSION   1  2  3  8               2.0949539     120.0320188
  31 TORSION   1  2  3  9              -2.0910799    -119.8100529
  32 TORSION   1  2  3  7               0.0018315       0.1049356
  33 TORSION   2  1  4 12               2.0969998     120.1492360
  34 TORSION   2  1  4 10              -2.0890994    -119.6965776
  35 TORSION   2  1  4 11               0.0038076       0.2181574
  36 TORSION   3  2  1  5               3.1413428     179.9856858
  37 TORSION   3  2  1  4              -0.0008085      -0.0463226
  38 TORSION   4  1  2  6               3.1412408     179.9798430
  39 TORSION   5  1  2  6               0.0002068       0.0118515
  40 TORSION   5  1  4 10               1.0519482      60.2721916
  41 TORSION   5  1  4 11              -3.1383302    -179.8130734
  42 TORSION   5  1  4 12              -1.0451380     -59.8819949
  43 TORSION   6  2  3  7              -3.1402068    -179.9205943
  44 TORSION   6  2  3  8              -1.0470843     -59.9935111
  45 TORSION   6  2  3  9               1.0500672      60.1644172

          INTERNUCLEAR DISTANCES (ANGS.)


 =====================================================
   GAMESS/COSab RESULTS
 =====================================================

   Dielectric Constant                  = INFTY
   Basic Grid Size                      =                 1082
   Number of Segments                   =                   92
   Number of Segments located on spheres=                  200
   Number of Segments of the cavity     =                  459
   Solvent Radius (rsolv)               = 1.40
   Outlying Charge Error Method         = double cavity

 =====================================================

  Total solvated Energy (a.u.)          =  -156.1488553350
  Total Energy corrected (a.u.)         =  -156.1488365451

  Outlying charge effect (a.u.)         =     0.0000187899
  Outlying charge effect (kcal/mol)     =     0.0117908469

  Dielectric Energy (a.u.)              =    -0.0029003963
  Dielectric energy corr. (a.u.)        =    -0.0028816064

  Sum of polarization charges           =     0.0229023628
  Sum of polarization charges(cor.)     =    -0.0229023628

  Total surface area of cavity (A**2)   =  109.61
  Total volume of cavity (A**3)         =   94.16

 =====================================================
 NPS=                   459
NR.  ATOM  (X, Y, Z)(a.u.)                  CHARGE(e)  AREA(A**2) SIGMA(e/A**2)
   1   1   3.324242   4.298166  -2.124103   0.001412   0.185824   0.007598
   2   1   0.288179   3.027559  -2.128811   0.000557   0.232280   0.002397
   3   1   2.119110   0.762658  -2.200670   0.002359   0.278737   0.008464
   4   1   0.731095   0.775520   4.017771   0.001861   0.371649   0.005006
   5   1  -0.051895   0.580419   3.292216   0.000990   0.278737   0.003551
   6   1   1.776392  -1.057198   1.798677   0.000256   0.092912   0.002754
   7   1   1.792333   0.065990  -1.659464   0.000782   0.232280   0.003368
   8   1  -0.492687   2.487776  -1.526702   0.000317   0.278737   0.001137
   9   1   0.762947   2.387206  -2.387180   0.001237   0.325193   0.003805
  10   1   1.764187   1.550305  -2.506890   0.001617   0.232280   0.006962
  11   1   1.497088  -0.764630   2.583459   0.001602   0.278737   0.005746
  12   1   1.574747  -0.153961   3.559488   0.002628   0.371649   0.007072
  13   1  -0.181467   1.369195   3.705581   0.000708   0.232280   0.003047
  14   1  -0.807046   1.669021   3.113672   0.000271   0.185824   0.001459
  15   1   1.332845   3.342398  -2.513998   0.001091   0.278737   0.003913
  16   1   2.509276   3.946178  -2.445189   0.001575   0.232280   0.006783
  17   1   2.959912   3.245144  -2.571732   0.002212   0.185824   0.011903
  18   1   2.615339   2.002329  -2.622691   0.002171   0.278737   0.007790
  19   1   1.853554   1.008433   4.480002   0.005145   0.511017   0.010069
  20   1   0.882388   1.734950   4.500260   0.001300   0.325193   0.003997
  21   1   0.674258  -0.168687   3.095013   0.001416   0.278737   0.005080
  22   1   0.852352   1.489864  -2.243342   0.001748   0.371649   0.004703
  23   1  -1.061913   1.519552   2.565149   0.000024   0.185824   0.000128
  24   1   2.274632   2.318278   4.852239   0.003046   0.418105   0.007286
  25   1   2.025946   2.781507  -2.684911   0.002539   0.371649   0.006832
  26   2   4.090773   2.217959   4.867094   0.001413   0.185824   0.007606
  27   2   6.100513  -0.197355   3.887632   0.000556   0.232280   0.002395
  28   2   3.409509  -1.021310   3.134743   0.002359   0.278737   0.008462
  29   2   5.421270   1.205943  -2.485570   0.001860   0.371649   0.005006
  30   2   5.910093   0.344575  -2.042101   0.000990   0.278737   0.003550
  31   2   3.341440  -0.676750  -1.258519   0.000255   0.092912   0.002744
  32   2   3.424521  -1.444310   2.294578   0.000781   0.232280   0.003361
  33   2   6.592256  -0.695925   3.008276   0.000317   0.278737   0.001136
  34   2   5.345977  -0.561756   3.877724   0.001237   0.325193   0.003803
  35   2   4.058701  -0.752124   3.723146   0.001617   0.232280   0.006960
  36   2   3.826442  -0.230579  -1.846052   0.001601   0.278737   0.005744
  37   2   4.181612   0.713211  -2.407029   0.002629   0.371649   0.007073
  38   2   6.458034   1.058326  -2.054279   0.000708   0.232280   0.003049
  39   2   7.067904   0.702082  -1.477434   0.000270   0.185824   0.001456
  40   2   5.299612   0.363262   4.506573   0.001089   0.278737   0.003905
  41   2   4.583556   1.412864   4.879229   0.001577   0.232280   0.006787
  42   2   3.837542   1.053082   4.722527   0.002211   0.185824   0.011899
  43   2   3.526561  -0.058450   4.144857   0.002172   0.278737   0.007791
  44   2   4.623046   2.137480  -2.636884   0.005146   0.511017   0.010070
  45   2   5.817927   2.214412  -2.442614   0.001300   0.325193   0.003999
  46   2   4.893302   0.049888  -2.123599   0.001416   0.278737   0.005079
  47   2   4.852274  -1.116406   3.346193   0.001747   0.371649   0.004701
  48   2   7.144920   0.212820  -1.099458   0.000024   0.185824   0.000128
  49   2   4.941924   3.485104  -2.299557   0.003049   0.418105   0.007291
  50   2   4.406052   0.204223   4.485260   0.002539   0.371649   0.006831
  51   3  10.546232   3.364124   2.103253   0.001968   0.418105   0.004707
  52   3   6.143657   5.908895  -1.233489   0.000559   0.232280   0.002405
  53   3   5.457041   4.096905   5.264011   0.000623   0.278737   0.002233
  54   3   8.583382   5.635420   4.455511   0.001367   0.418105   0.003269
  55   3   9.103648   6.489198   0.697896   0.001060   0.371649   0.002852
  56   3   8.780231   1.034001  -0.065117   0.000265   0.278737   0.000949
  57   3   8.604730   0.407511   2.260027   0.000265   0.185824   0.001427
  58   3   9.053783   0.707781   1.196360   0.000727   0.371649   0.001956
  59   3   9.852424   1.472816   1.548173   0.001436   0.371649   0.003864
  60   3   8.228212   7.094453   0.960199   0.001150   0.371649   0.003096
  61   3   7.744204   6.290475   4.325290   0.000817   0.278737   0.002932
  62   3   5.733170   5.288101   5.008259   0.000521   0.185824   0.002804
  63   3   6.251487   6.614079  -0.574975   0.000558   0.232280   0.002403
  64   3  10.232603   2.162058   2.144468   0.001154   0.278737   0.004141
  65   3  10.335545   2.446418   1.283184   0.001081   0.278737   0.003879
  66   3   6.363521   4.570317   5.403109   0.000954   0.278737   0.003421
  67   3   7.407819   5.382847   5.076088   0.001579   0.371649   0.004249
  68   3   8.872996   6.352747   3.448425   0.001042   0.464561   0.002243
  69   3   9.237759   6.567651   1.934098   0.000962   0.464561   0.002070
  70   3   8.051022   6.680549  -0.183836   0.001251   0.325193   0.003846
  71   3   7.070793   6.281486  -0.981455   0.001021   0.278737   0.003663
  72   3   6.416609   5.215583  -1.682079   0.000819   0.325193   0.002518
  73   3   5.733328   3.458932   5.373291   0.000412   0.185824   0.002215
  74   3   9.673785   5.325986   3.576965   0.000757   0.371649   0.002038
  75   3  10.332536   4.476098   2.831790   0.001120   0.418105   0.002678
  76   3  10.473520   4.560686   1.685118   0.001287   0.464561   0.002769
  77   3   9.910815   5.764175   1.228275   0.000639   0.325193   0.001964
  78   3   9.203906   0.828349   2.314709   0.000509   0.232280   0.002191
  79   3   9.618260   1.493157   0.525741   0.000770   0.278737   0.002762
  80   3   8.565830   6.929549   2.557366   0.000464   0.278737   0.001665
  81   3   6.526507   5.476275   5.072266   0.000850   0.232280   0.003660
  82   3   7.161274   6.945454  -0.127333   0.001024   0.278737   0.003673
  83   3   6.425585   4.257246  -1.963997   0.000129   0.092912   0.001383
  84   3   5.803763   2.754087   5.278889   0.000242   0.139368   0.001740
  85   3   9.901021   5.705614   2.513308   0.000671   0.418105   0.001604
  86   4   3.010010   6.094291  -1.623117   0.000352   0.185824   0.001895
  87   4   1.851499   8.716272   0.233413   0.001821   0.418105   0.004356
  88   4  -2.149187   3.835074   0.979847   0.000578   0.325193   0.001779
  89   4   2.458277   4.696305   5.188543   0.000588   0.278737   0.002110
  90   4   1.447194   8.108284   4.106344   0.001425   0.418105   0.003409
  91   4  -1.518783   7.773194   1.487993   0.001141   0.371649   0.003070
  92   4   2.169761   5.696186  -2.012816   0.000350   0.185824   0.001886
  93   4   3.112993   6.983569  -1.186854   0.000764   0.278737   0.002741
  94   4   2.815524   7.659124  -0.847343   0.001334   0.325193   0.004101
  95   4  -1.861540   7.204115   2.359882   0.001289   0.371649   0.003468
  96   4   0.807178   7.565546   4.585144   0.000838   0.278737   0.003006
  97   4   1.940166   5.338010   5.359053   0.000823   0.278737   0.002953
  98   4  -2.356887   4.318058   1.942109   0.000814   0.278737   0.002922
  99   4   2.854657   8.166212  -0.193808   0.000714   0.232280   0.003075
 100   4   2.036709   8.175529  -0.639874   0.000694   0.185824   0.003733
 101   4   1.633889   4.124068   5.227622   0.000354   0.185824   0.001905
 102   4   2.586691   6.153496   5.071081   0.001181   0.371649   0.003176
 103   4   2.006932   7.125187   4.840239   0.001651   0.371649   0.004441
 104   4   0.252750   8.354138   3.527945   0.001052   0.464561   0.002263
 105   4  -0.827962   8.288611   2.387687   0.000991   0.464561   0.002132
 106   4  -2.250805   6.549027   1.424294   0.001690   0.371649   0.004546
 107   4  -2.429889   4.852589   1.119167   0.000771   0.232280   0.003318
 108   4  -2.014886   4.261681   0.098854   0.000690   0.325193   0.002123
 109   4   1.303003   8.814714   2.897030   0.000810   0.418105   0.001938
 110   4   1.404779   9.025597   1.465354   0.001032   0.418105   0.002468
 111   4   0.645302   8.831700   0.612426   0.001189   0.464561   0.002559
 112   4  -0.601606   8.487337   1.160481   0.000646   0.325193   0.001988
 113   4   2.408642   6.636381  -1.698404   0.000417   0.185824   0.002244
 114   4  -0.753496   7.952391   3.310905   0.000520   0.278737   0.001865
 115   4   1.641884   6.295777   5.252027   0.000457   0.139368   0.003276
 116   4  -2.035050   3.552473   2.205065   0.000309   0.232280   0.001330
 117   4  -2.462392   5.576728   1.916123   0.001303   0.325193   0.004008
 118   4  -1.424201   3.938354  -0.639061   0.000027   0.092912   0.000288
 119   4   0.276608   8.859505   2.121803   0.000755   0.464561   0.001625
 120   4  -2.376879   5.475304   0.759701   0.000900   0.232280   0.003875
 121   5  -0.890221  -0.458813   0.110156  -0.004867   0.647714  -0.007514
 122   5  -1.048570   1.139781  -0.974662  -0.001652   0.392554  -0.004207
 123   5  -1.591263   1.057505   1.070534  -0.001662   0.333671  -0.004980
 124   5  -0.436551  -0.423962   1.932213  -0.001174   0.353299  -0.003322
 125   5   0.798235  -1.223281   0.536813  -0.001401   0.274788  -0.005097
 126   5   0.432567  -0.182725  -1.350803  -0.001320   0.412182  -0.003201
 127   5  -1.543566   0.934954   0.010276  -0.002831   0.471065  -0.006009
 128   5  -1.206203   0.133619   1.476958  -0.002572   0.490692  -0.005241
 129   5   0.058282  -1.042190   1.156531  -0.002717   0.510320  -0.005324
 130   5   0.489623  -0.931722  -0.496008  -0.003069   0.529948  -0.005791
 131   5  -0.545100   0.275596  -1.186190  -0.002607   0.471065  -0.005534
 132   6   5.719647  -2.310919   0.153439  -0.004864   0.647714  -0.007509
 133   6   6.491126  -1.707526   1.826205  -0.001652   0.392554  -0.004209
 134   6   7.185397  -1.080872  -0.073638  -0.001662   0.333671  -0.004981
 135   6   5.579935  -1.218225  -1.367554  -0.001175   0.353299  -0.003326
 136   6   3.943739  -1.860523  -0.357077  -0.001475   0.274788  -0.005366
 137   6   4.520141  -2.144253   1.732617  -0.001317   0.412182  -0.003196
 138   6   6.947502  -1.641397   0.804234  -0.002832   0.471065  -0.006012
 139   6   6.457065  -1.389811  -0.809236  -0.002573   0.490692  -0.005244
 140   6   4.751811  -1.796973  -0.911473  -0.002710   0.510320  -0.005311
 141   6   4.218350  -2.274196   0.643139  -0.003119   0.529948  -0.005885
 142   6   5.609323  -2.202081   1.674940  -0.002607   0.471065  -0.005534
 143   7   6.368375   7.957382   2.708700  -0.002316   0.353299  -0.006554
 144   7   6.323015   7.599532   0.773910  -0.000692   0.176649  -0.003915
 145   7   7.232846   7.770465   2.026564  -0.000764   0.255160  -0.002995
 146   7   6.581319   7.398622   3.739144  -0.001435   0.333671  -0.004299
 147   7   6.498484   7.915245   1.497994  -0.001319   0.314043  -0.004199
 148   7   7.268030   7.552742   3.073540  -0.000739   0.255160  -0.002896
 149   7   5.996888   6.903452   4.215682  -0.001103   0.294415  -0.003748
 150   8   9.039190   2.301494   5.410330  -0.003672   0.588831  -0.006237
 151   8  10.041675   1.994872   3.663867  -0.000859   0.372926  -0.002304
 152   8   8.596818   0.818475   4.148701  -0.001131   0.353299  -0.003200
 153   8   7.204182   2.038333   5.559726  -0.001239   0.353299  -0.003507
 154   8   8.094784   3.891363   5.684759  -0.001000   0.372926  -0.002681
 155   8   9.817031   3.856844   4.581563  -0.001181   0.412182  -0.002866
 156   8   9.403981   1.366481   4.289512  -0.002137   0.490692  -0.004354
 157   8   8.018998   1.294863   5.130062  -0.002169   0.490692  -0.004421
 158   8   7.729572   2.855723   5.848568  -0.001977   0.471065  -0.004197
 159   8   9.087241   3.768298   5.375947  -0.002010   0.471065  -0.004267
 160   8  10.077949   2.797507   4.360738  -0.002057   0.490692  -0.004193
 161   9   9.754379   3.964849  -1.636764  -0.003818   0.608459  -0.006276
 162   9   8.650390   2.766359  -1.972800  -0.001478   0.353299  -0.004183
 163   9   9.993931   2.390561  -0.514185  -0.000835   0.333671  -0.002503
 164   9  10.525690   4.249854   0.018824  -0.000978   0.353299  -0.002767
 165   9   9.201835   5.687301  -0.965900  -0.001016   0.372926  -0.002724
 166   9   7.826954   4.656569  -2.102027  -0.000940   0.353299  -0.002661
 167   9   9.365451   2.388397  -1.379718  -0.001974   0.490692  -0.004023
 168   9  10.431263   3.320788  -0.469478  -0.001956   0.490692  -0.003986
 169   9  10.082762   5.034860  -0.626412  -0.002146   0.510320  -0.004204
 170   9   8.783986   5.145397  -1.764018  -0.002102   0.490692  -0.004284
 171   9   8.374292   3.734053  -2.255801  -0.002157   0.490692  -0.004395
 172  10  -1.563921   5.315025   5.122908  -0.003819   0.608459  -0.006276
 173  10  -1.233264   3.735641   4.717563  -0.001478   0.353299  -0.004183
 174  10  -2.391699   4.785136   3.440662  -0.000835   0.333671  -0.002503
 175  10  -1.881605   6.668781   3.904902  -0.000975   0.353299  -0.002760
 176  10  -0.164644   6.636050   5.261183  -0.001013   0.372926  -0.002718
 177  10   0.379643   4.678280   5.599381  -0.000941   0.353299  -0.002663
 178  10  -1.959527   4.077172   4.116055  -0.001974   0.490692  -0.004023
 179  10  -2.312990   5.707429   3.889839  -0.001953   0.490692  -0.003981
 180  10  -1.199921   6.736638   4.776366  -0.002144   0.510320  -0.004201
 181  10  -0.167945   5.661228   5.654832  -0.002104   0.490692  -0.004288
 182  10  -0.561038   4.187977   5.378059  -0.002157   0.490692  -0.004396
 183  11   3.853864   8.624872   2.814102  -0.002070   0.314043  -0.006590
 184  11   3.716940   8.433715   0.819089  -0.000707   0.255160  -0.002769
 185  11   3.378700   7.735837   4.136461  -0.000985   0.255160  -0.003861
 186  11   2.823496   8.859122   2.817525  -0.000779   0.274788  -0.002835
 187  11   3.887092   8.689426   1.626537  -0.001442   0.235532  -0.006121
 188  11   3.352446   8.362669   3.610387  -0.001286   0.333671  -0.003854
 189  11   3.116670   8.947380   1.854722  -0.000807   0.274788  -0.002935
 190  12  -0.882745   7.031914  -1.887319  -0.003820   0.608459  -0.006278
 191  12  -0.165147   5.605144  -2.353656  -0.001467   0.353299  -0.004151
 192  12   1.056498   7.174561  -2.009561  -0.000877   0.333671  -0.002630
 193  12  -0.086434   8.306958  -0.811553  -0.001016   0.353299  -0.002877
 194  12  -1.867176   7.173782  -0.234149  -0.000945   0.372926  -0.002535
 195  12  -1.774612   5.304149  -1.094028  -0.000926   0.353299  -0.002621
 196  12   0.516206   6.339467  -2.403063  -0.002078   0.490692  -0.004235
 197  12   0.356019   7.832418  -1.641954  -0.001999   0.490692  -0.004074
 198  12  -1.115076   7.913345  -0.686207  -0.002138   0.510320  -0.004190
 199  12  -1.930235   6.411214  -0.955094  -0.002045   0.490692  -0.004168
 200  12  -1.115482   5.520159  -1.926584  -0.002095   0.490692  -0.004269
 201   1   4.182354   4.598964  -1.634587   0.000509   0.046580   0.010933
 202   2   4.601692   4.503142  -1.658170   0.000471   0.046580   0.010111
 203   3   4.979059   4.781756  -1.513442   0.000256   0.046580   0.005500
 204   1   3.145441   3.205537   4.719678   0.000468   0.046576   0.010046
 205   2   3.557675   3.084203   4.689279   0.000509   0.046576   0.010925
 206   4   2.972760   3.662159   4.771303   0.000231   0.046576   0.004969
 207   1   1.997054  -1.146730   0.985308  -0.000019   0.010877  -0.001771
 208   2   2.419543  -1.227026   0.994364  -0.000005   0.010877  -0.000473
 209   5   1.713734  -1.133550   0.888171  -0.000071   0.010877  -0.006511
 210   1   2.598446  -0.864818  -0.549230  -0.000005   0.010870  -0.000487
 211   2   3.001652  -1.014359  -0.558657  -0.000020   0.010870  -0.001880
 212   6   3.240569  -1.187069  -0.504164  -0.000075   0.010870  -0.006916
 213   2   2.965838  -0.662539  -1.015320   0.000261   0.187954   0.001387
 214   2   3.438963   0.915450  -2.150866   0.004182   0.384763   0.010870
 215   2   4.105220   3.253725  -2.224724   0.005297   0.384763   0.013767
 216   1   2.545575   0.080499  -1.508854   0.001766   0.384763   0.004591
 217   1   3.180736   2.245846  -2.417001   0.005442   0.384763   0.014143
 218   1   3.710311   4.137753  -2.038060   0.001859   0.187954   0.009893
 219   2   3.690221   2.326172   4.767162   0.001859   0.187932   0.009890
 220   2   3.182131   0.491800   4.151181   0.005440   0.384714   0.014140
 221   2   2.799362  -0.998241   2.267311   0.001766   0.384714   0.004589
 222   1   2.895919   1.775969   4.570873   0.005295   0.384714   0.013763
 223   1   2.348266  -0.244924   3.333226   0.004182   0.384714   0.010870
 224   1   2.139488  -1.115640   1.544155   0.000264   0.187932   0.001403
 225   1   3.887733   4.870270  -1.550759   0.000791   0.117043   0.006762
 226   3   4.679483   5.026160  -1.368078   0.000535   0.117043   0.004570
 227   4   3.714287   5.316574  -1.428118   0.000382   0.117043   0.003261
 228   1  -1.308261   2.641887  -0.240453  -0.000069   0.015678  -0.004376
 229   4  -1.430345   3.102677  -0.125665  -0.000039   0.015678  -0.002516
 230   5  -1.320203   2.342895  -0.222107  -0.000078   0.015678  -0.004999
 231   1  -1.478815   2.182924   1.655165  -0.000067   0.015678  -0.004259
 232   4  -1.598502   2.650163   1.743317  -0.000041   0.015678  -0.002598
 233   5  -1.475269   1.925610   1.501372  -0.000073   0.015678  -0.004660
 234   1  -1.182331   2.532659   2.931935  -0.000006   0.025614  -0.000220
 235   4  -1.379861   2.967767   3.042753  -0.000030   0.025614  -0.001160
 236  10  -1.425866   3.150618   3.279379  -0.000057   0.025614  -0.002223
 237   1   1.157278   2.980159   4.801717   0.000105   0.025614   0.004111
 238   4   0.990481   3.421145   4.937095   0.000034   0.025614   0.001330
 239  10   0.731882   3.563333   5.003820  -0.000039   0.025614  -0.001530
 240   1   1.761518   4.663841  -2.188604   0.000150   0.025590   0.005869
 241   4   1.601792   5.124532  -2.135050   0.000034   0.025590   0.001317
 242  12   1.352217   5.291679  -2.171220  -0.000028   0.025590  -0.001105
 243   1  -0.829474   3.512196  -1.132525  -0.000020   0.025590  -0.000785
 244   4  -1.023245   3.957755  -1.065094  -0.000034   0.025590  -0.001332
 245  12  -1.037374   4.229553  -1.197231  -0.000076   0.025590  -0.002961
 246   4   2.682533   5.319897  -1.834785   0.000605   0.289466   0.002088
 247   1   2.596957   4.579575  -2.082804   0.001213   0.289466   0.004192
 248   4  -1.264619   3.659954  -0.676271  -0.000025   0.183702  -0.000138
 249   1  -1.137940   2.934426  -0.631671  -0.000154   0.183702  -0.000836
 250   4  -1.617863   2.907909   2.303620  -0.000034   0.187554  -0.000183
 251   1  -1.311449   2.239746   2.382305  -0.000091   0.187554  -0.000486
 252   4   1.758021   3.565390   4.945477   0.000502   0.284713   0.001763
 253   1   2.314716   3.032963   4.805423   0.001260   0.284713   0.004426
 254   1   2.256731  -0.809094  -0.525392  -0.000025   0.026830  -0.000943
 255   5   1.961458  -0.819751  -0.475538  -0.000098   0.026830  -0.003635
 256   6   2.924762  -1.057448  -0.433509  -0.000061   0.026830  -0.002269
 257   5  -1.220751   1.942615  -0.547559  -0.000313   0.070791  -0.004414
 258   5  -0.524588   1.501481  -1.347432  -0.000572   0.158617  -0.003604
 259   5   0.472893   0.592704  -1.664100  -0.000384   0.158617  -0.002418
 260   5   1.254175  -0.394994  -1.085159  -0.000642   0.158617  -0.004050
 261   1  -0.851335   2.188380  -0.958307  -0.000596   0.153775  -0.003877
 262   1   0.201278   1.393708  -1.785057  -0.000148   0.153775  -0.000962
 263   1   1.260788   0.264084  -1.628836  -0.000079   0.153775  -0.000511
 264   1   1.843333  -0.577689  -0.881475  -0.000141   0.086487  -0.001627
 265   5   1.266149  -1.134222   1.094123  -0.000269   0.070761  -0.003799
 266   5   0.607151  -0.750306   1.952216  -0.000400   0.158534  -0.002521
 267   5  -0.386174   0.120353   2.370469  -0.000516   0.158534  -0.003252
 268   5  -1.213468   1.122224   1.889306  -0.000756   0.158534  -0.004766
 269   1   1.382738  -0.957244   1.660266  -0.000318   0.153723  -0.002069
 270   1   0.363687  -0.228865   2.583419  -0.000188   0.153723  -0.001226
 271   1  -0.720701   0.886442   2.545949  -0.000326   0.153723  -0.002121
 272   1  -1.356414   1.755646   1.878439  -0.000243   0.086450  -0.002808
 273  10  -1.282342   3.180800   3.719526  -0.000500   0.201152  -0.002485
 274  10  -0.181170   3.339240   4.663198  -0.001549   0.412246  -0.003756
 275   1  -0.463778   2.258128   3.716599   0.000340   0.550590   0.000617
 276   1   0.838951   2.554831   4.699766   0.000852   0.283436   0.003005
 277  12   0.901408   5.217572  -2.249838  -0.000402   0.200986  -0.002001
 278  12  -0.359726   4.633843  -1.810023  -0.001661   0.411880  -0.004032
 279   1   0.897993   3.985863  -2.186553   0.000757   0.550158   0.001376
 280   1  -0.506778   3.382582  -1.546374   0.000313   0.283200   0.001106
 281   2   3.954618   3.181100   4.703875   0.000794   0.117047   0.006782
 282   3   4.336840   3.484712   4.781516   0.000464   0.117047   0.003968
 283   4   3.368918   3.765336   4.718855   0.000478   0.117047   0.004081
 284   2   7.539046  -0.379109   1.847552  -0.000069   0.015670  -0.004392
 285   3   7.882839  -0.043522   1.945451  -0.000040   0.015670  -0.002576
 286   6   7.406802  -0.597903   1.690975  -0.000078   0.015670  -0.005007
 287   2   7.709566   0.079142  -0.047277  -0.000067   0.015670  -0.004248
 288   3   8.050963   0.408290   0.077247  -0.000040   0.015670  -0.002549
 289   6   7.561837  -0.181265  -0.031786  -0.000073   0.015670  -0.004658
 290   2   5.606403   1.706524   4.892939   0.000152   0.025591   0.005945
 291   3   5.974731   1.995390   5.039560   0.000046   0.025591   0.001783
 292   8   6.266859   1.981424   5.117037  -0.000027   0.025591  -0.001054
 293   2   7.427951   0.084783   3.101860  -0.000020   0.025591  -0.000780
 294   3   7.820211   0.352341   3.224949  -0.000033   0.025591  -0.001302
 295   8   7.946815   0.485744   3.465182  -0.000076   0.025591  -0.002958
 296   2   7.789932   1.071545  -0.960298  -0.000007   0.025611  -0.000267
 297   3   8.186053   1.349642  -0.880568  -0.000036   0.025611  -0.001417
 298   9   8.345370   1.572576  -1.008878  -0.000058   0.025611  -0.002281
 299   2   6.227460   3.405146  -2.092325   0.000104   0.025611   0.004065
 300   3   6.603057   3.713896  -2.027465   0.000028   0.025611   0.001097
 301   9   6.904352   3.724782  -2.052910  -0.000041   0.025611  -0.001609
 302   3   6.008288   4.198896  -1.868429   0.000529   0.285889   0.001851
 303   2   5.249619   4.010253  -1.921178   0.001274   0.285889   0.004456
 304   3   5.176342   2.800257   5.006259   0.000637   0.288205   0.002209
 305   2   4.858467   2.096105   4.868499   0.001214   0.288205   0.004212
 306   3   7.936376   0.194698   2.712171  -0.000023   0.184934  -0.000124
 307   2   7.481574  -0.261031   2.350868  -0.000156   0.184934  -0.000843
 308   3   8.265969   0.848751  -0.294357  -0.000043   0.186532  -0.000229
 309   2   7.687650   0.538020  -0.633380  -0.000091   0.186532  -0.000487
 310   2   2.745344  -1.340352   0.954396  -0.000031   0.026822  -0.001173
 311   5   2.058999  -1.157801   0.844968  -0.000050   0.026822  -0.001882
 312   6   3.002056  -1.468208   0.867579  -0.000107   0.026822  -0.004006
 313   6   3.654062  -1.308792  -0.742891  -0.000274   0.070777  -0.003878
 314   6   4.521373  -0.944838  -1.401581  -0.000401   0.158580  -0.002531
 315   6   5.857082  -0.586774  -1.491794  -0.000516   0.158580  -0.003254
 316   6   6.996208  -0.469210  -0.711386  -0.000756   0.158580  -0.004768
 317   2   3.712281  -0.857967  -1.141491  -0.000321   0.153752  -0.002089
 318   2   5.066570  -0.383062  -1.743621  -0.000189   0.153752  -0.001229
 319   2   6.540658  -0.099764  -1.332520  -0.000326   0.153752  -0.002123
 320   2   7.425527  -0.074281  -0.425730  -0.000243   0.086470  -0.002808
 321   6   7.084638  -0.997558   1.802854  -0.000313   0.070797  -0.004417
 322   6   6.165042  -1.358780   2.388615  -0.000572   0.158634  -0.003606
 323   6   4.820583  -1.695808   2.372680  -0.000385   0.158634  -0.002424
 324   6   3.740851  -1.779758   1.507495  -0.000649   0.158634  -0.004090
 325   2   6.831058  -0.827330   2.324710  -0.000597   0.153786  -0.003879
 326   2   5.428222  -1.290209   2.815808  -0.000148   0.153786  -0.000965
 327   2   3.984254  -1.540965   2.290969  -0.000080   0.153786  -0.000518
 328   2   3.169008  -1.534834   1.320359  -0.000148   0.086494  -0.001713
 329   8   6.610644   1.671248   5.093996  -0.000429   0.200997  -0.002135
 330   8   7.476323   0.830291   4.276497  -0.001664   0.411905  -0.004040
 331   2   6.025236   0.785728   4.466084   0.000761   0.550187   0.001383
 332   2   7.031901  -0.046545   3.445562   0.000313   0.283216   0.001104
 333   9   8.293395   1.868624  -1.362230  -0.000501   0.201133  -0.002489
 334   9   7.541035   2.957782  -1.975019  -0.001549   0.412204  -0.003759
 335   2   7.137998   1.580379  -1.683646   0.000337   0.550541   0.000612
 336   2   6.283438   2.888129  -2.241125   0.000849   0.283409   0.002997
 337   3   5.086282   5.814651   4.499386  -0.000204   0.079969  -0.002554
 338   4   4.112605   6.060609   4.411687  -0.000353   0.079969  -0.004412
 339   7   5.036130   6.083837   4.371658  -0.000455   0.079969  -0.005684
 340   3   5.108046   6.940681   0.058402  -0.000340   0.079981  -0.004245
 341   4   4.157897   7.271122  -0.006849  -0.000236   0.079981  -0.002953
 342  11   4.315320   7.387400   0.223353  -0.000463   0.079981  -0.005785
 343   4   4.069732   7.022951  -0.544729   0.000345   0.368310   0.000937
 344   4   3.790724   5.981670  -1.335721   0.000680   0.368310   0.001847
 345   3   5.307374   6.086729  -0.878906   0.000701   0.736783   0.000952
 346   4   3.221320   4.452221   4.990025   0.000681   0.369541   0.001843
 347   4   3.588267   5.730567   4.815473   0.000360   0.369541   0.000975
 348   3   4.788315   4.692907   4.892861   0.000731   0.739264   0.000989
 349   6   7.545857  -0.467791   0.273816  -0.000784   0.192197  -0.004081
 350   6   7.454327  -0.713765   1.290897  -0.000757   0.192197  -0.003937
 351   3   8.237505   0.228394   1.046829  -0.000616   0.528023  -0.001167
 352   3   5.575959   6.983808   0.133741  -0.000237   0.057522  -0.004122
 353   7   5.492580   7.174308   0.350918  -0.000341   0.057522  -0.005924
 354  11   4.756848   7.333118   0.384818  -0.000480   0.057522  -0.008344
 355   7   5.701172   6.225374   4.482264  -0.000241   0.067446  -0.003567
 356   7   6.697832   6.624441   4.243199  -0.000369   0.149669  -0.002468
 357   7   7.550165   7.112460   3.345974  -0.000499   0.149669  -0.003332
 358   7   7.668555   7.426504   2.058727  -0.000527   0.149669  -0.003520
 359   7   7.004762   7.438615   0.905957  -0.000386   0.149669  -0.002576
 360   7   6.081834   7.235130   0.343343  -0.000239   0.067446  -0.003540
 361   3   6.246125   6.033417   4.606392  -0.000142   0.147857  -0.000959
 362   3   7.485697   6.597192   3.990646  -0.000142   0.147857  -0.000961
 363   3   8.061067   7.072592   2.695860  -0.000275   0.147857  -0.001862
 364   3   7.737794   7.265912   1.249607  -0.000176   0.147857  -0.001191
 365   3   6.647599   7.098381   0.241176  -0.000211   0.147857  -0.001429
 366   8   8.450182   0.655843   3.535896  -0.000160   0.068872  -0.002322
 367   8   9.358229   1.187953   3.179761  -0.000352   0.152860  -0.002306
 368   8  10.107013   2.303134   3.156901  -0.000343   0.152860  -0.002247
 369   8  10.161469   3.560732   3.626277  -0.000372   0.152860  -0.002432
 370   8   9.499128   4.441862   4.394225  -0.000449   0.152860  -0.002936
 371   8   8.393271   4.582972   5.143891  -0.000340   0.152860  -0.002226
 372   8   7.300174   3.925839   5.565963  -0.000411   0.152860  -0.002690
 373   8   6.670846   2.741597   5.486296  -0.000486   0.152860  -0.003179
 374   3   8.691220   0.719402   2.993309  -0.000336   0.151016  -0.002228
 375   3   9.808033   1.684895   2.679831  -0.000083   0.151016  -0.000547
 376   3  10.284450   3.092234   2.944668  -0.000108   0.151016  -0.000712
 377   3   9.923902   4.360753   3.678548  -0.000223   0.151016  -0.001475
 378   3   8.875151   4.967063   4.578673  -0.000201   0.151016  -0.001333
 379   3   7.570910   4.661000   5.273653  -0.000161   0.151016  -0.001063
 380   3   6.549307   3.568846   5.476739  -0.000162   0.151016  -0.001074
 381   3   6.162351   2.425270   5.261431  -0.000041   0.084142  -0.000488
 382   9   7.229815   4.149770  -2.080347  -0.000151   0.068861  -0.002194
 383   9   7.556439   5.151411  -1.728083  -0.000436   0.152827  -0.002853
 384   9   8.382987   5.896237  -0.975595  -0.000319   0.152827  -0.002087
 385   9   9.412416   5.809378  -0.117156  -0.000462   0.152827  -0.003026
 386   9  10.220167   4.926656   0.493193  -0.000467   0.152827  -0.003057
 387   9  10.473105   3.612126   0.603732  -0.000318   0.152827  -0.002082
 388   9  10.066913   2.407930   0.168872  -0.000348   0.152827  -0.002278
 389   9   9.169113   1.810704  -0.632042  -0.000486   0.152827  -0.003178
 390   3   6.928324   4.615533  -1.859761  -0.000276   0.150999  -0.001826
 391   3   7.586271   5.810138  -1.214058  -0.000077   0.150999  -0.000508
 392   3   8.687060   6.200382  -0.258609  -0.000111   0.150999  -0.000734
 393   3   9.776701   5.625318   0.612537  -0.000271   0.150999  -0.001793
 394   3  10.405801   4.322118   1.040100  -0.000228   0.150999  -0.001513
 395   3  10.314905   2.828248   0.847743  -0.000024   0.150999  -0.000156
 396   3   9.541501   1.759815   0.114799  -0.000269   0.150999  -0.001783
 397   3   8.647212   1.442091  -0.661468  -0.000106   0.084128  -0.001255
 398   3   5.601767   7.009411  -0.078070   0.000043   0.006477   0.006703
 399   5  -1.560855   1.847706   1.098272  -0.000785   0.192292  -0.004081
 400   5  -1.469307   2.094062   0.080768  -0.000757   0.192292  -0.003935
 401   4  -1.721648   3.058166   0.834185  -0.000625   0.528271  -0.001184
 402   4   3.738509   6.354493   4.425924  -0.000250   0.057534  -0.004339
 403   7   4.648708   6.332541   4.261866  -0.000476   0.057534  -0.008281
 404  11   3.930980   6.555992   4.312937  -0.000349   0.057534  -0.006067
 405   4   3.701316   6.287883   4.626827   0.000038   0.006482   0.005802
 406  10   0.653050   4.023334   5.267407  -0.000149   0.068857  -0.002171
 407  10   0.901438   5.087740   5.465693  -0.000453   0.152819  -0.002962
 408  10   0.643875   6.389754   5.259556  -0.000309   0.152819  -0.002023
 409  10  -0.179168   7.222659   4.601575  -0.000452   0.152819  -0.002957
 410  10  -1.228270   7.242968   3.763099  -0.000465   0.152819  -0.003043
 411  10  -2.070785   6.442305   3.089914  -0.000321   0.152819  -0.002103
 412  10  -2.359260   5.150862   2.859639  -0.000331   0.152819  -0.002164
 413  10  -1.974730   3.901226   3.167240  -0.000491   0.152819  -0.003215
 414   4   1.167980   4.325060   5.250590  -0.000288   0.150993  -0.001907
 415   4   1.260844   5.829281   5.324480  -0.000096   0.150993  -0.000635
 416   4   0.619933   7.095508   4.811969  -0.000118   0.150993  -0.000784
 417   4  -0.490442   7.601551   3.924416  -0.000247   0.150993  -0.001633
 418   4  -1.612366   7.138721   3.027845  -0.000200   0.150993  -0.001324
 419   4  -2.283159   5.897886   2.492000  -0.000040   0.150993  -0.000267
 420   4  -2.226189   4.390765   2.537862  -0.000268   0.150993  -0.001775
 421   4  -1.705928   3.361475   2.953894  -0.000103   0.084124  -0.001227
 422  11   3.822951   7.866240   0.277594  -0.000268   0.067456  -0.003977
 423  11   3.123405   8.535063   0.800416  -0.000443   0.149695  -0.002958
 424  11   2.506989   8.895096   1.923121  -0.000482   0.149695  -0.003223
 425  11   2.390922   8.589409   3.212749  -0.000498   0.149695  -0.003324
 426  11   2.822506   7.742585   4.143707  -0.000393   0.149695  -0.002625
 427  11   3.449793   6.883452   4.423766  -0.000280   0.067456  -0.004147
 428   4   3.274453   8.045577   0.150052  -0.000206   0.147876  -0.001390
 429   4   2.396054   8.780001   1.110820  -0.000226   0.147876  -0.001527
 430   4   1.961889   8.812214   2.540682  -0.000283   0.147876  -0.001917
 431   4   2.148906   8.129086   3.856890  -0.000239   0.147876  -0.001615
 432   4   2.880884   7.009031   4.523017  -0.000275   0.147876  -0.001861
 433  12  -1.381237   4.632342  -1.114541  -0.000170   0.068872  -0.002472
 434  12  -1.953967   5.301314  -0.437038  -0.000395   0.152861  -0.002586
 435  12  -2.063461   6.480219   0.197839  -0.000265   0.152861  -0.001731
 436  12  -1.440412   7.656973   0.376543  -0.000436   0.152861  -0.002850
 437  12  -0.341899   8.346029   0.025337  -0.000478   0.152861  -0.003125
 438  12   0.778815   8.263073  -0.710865  -0.000368   0.152861  -0.002404
 439  12   1.459307   7.442334  -1.528296  -0.000356   0.152861  -0.002326
 440  12   1.418796   6.222461  -2.089671  -0.000471   0.152861  -0.003083
 441   4  -1.628137   4.544239  -0.578054  -0.000314   0.151015  -0.002082
 442   4  -2.165712   5.655466   0.290254  -0.000122   0.151015  -0.000806
 443   4  -1.861111   7.052654   0.772805  -0.000057   0.151015  -0.000376
 444   4  -0.840019   8.159304   0.670490  -0.000257   0.151015  -0.001704
 445   4   0.476249   8.518794   0.025527  -0.000268   0.151015  -0.001778
 446   4   1.544580   7.982794  -0.895963  -0.000087   0.151015  -0.000573
 447   4   1.924165   6.772466  -1.713761  -0.000182   0.151015  -0.001204
 448   4   1.676426   5.637171  -2.105715  -0.000052   0.084142  -0.000613
 449   6   3.065318  -1.657577   0.552399  -0.000148   0.224795  -0.000659
 450   6   3.137780  -1.463487  -0.249927  -0.000145   0.224795  -0.000645
 451   5   1.743912  -1.151390   0.127597  -0.000715   0.449600  -0.001590
 452  11   4.125824   6.933053   4.254213  -0.000827   0.181551  -0.004553
 453  11   4.388129   7.796944   3.573849  -0.002907   0.363613  -0.007996
 454  11   4.566761   8.318015   2.306116  -0.003091   0.363613  -0.008500
 455  11   4.512019   8.013239   0.959013  -0.002461   0.363613  -0.006770
 456   7   5.264439   6.984161   4.041679  -0.002430   0.363613  -0.006683
 457   7   5.538704   7.860542   3.008575  -0.003067   0.363613  -0.008435
 458   7   5.603898   7.974363   1.632578  -0.002864   0.363613  -0.007878
 459   7   5.499379   7.521325   0.602122  -0.000788   0.181551  -0.004341
 =====================================================

              1471473  WORDS OF DYNAMIC MEMORY USED
 EXECUTION OF GAMESS TERMINATED NORMALLY Wed Nov 23 21:08:54 2016
 DDI: 263640 bytes (0.3 MB / 0 MWords) used by master data server.

 ----------------------------------------
 CPU timing information for all processes
 ========================================
 0: 107.884 + 0.76 = 107.960
 ----------------------------------------
 ddikick.x: exited gracefully.
