----- GAMESS execution script -----

          ******************************************************
          *         GAMESS VERSION =  5 DEC 2014 (R1)          *
          *             FROM IOWA STATE UNIVERSITY             *
          * M.W.SCHMIDT, K.K.BALDRIDGE, J.A.BOATZ, S.T.ELBERT, *
          *   M.S.GORDON, J.H.JENSEN, S.KOSEKI, N.MATSUNAGA,   *
          *          K.A.NGUYEN, S.J.SU, T.L.WINDUS,           *
          *       TOGETHER WITH M.DUPUIS, J.A.MONTGOMERY       *
          *         J.COMPUT.CHEM.  14, 1347-1363(1993)        *
          **************** 64 BIT LINUX VERSION ****************

 EXECUTION OF GAMESS BEGUN Wed Nov 23 21:08:57 2016

            ECHO OF THE FIRST FEW INPUT CARDS -
 INPUT CARD>! SELECT RESTRICTED HARTREE-FOCK AS DEFAULT                                     
 INPUT CARD>$contrl scftyp=rhf $end                                                         
 INPUT CARD>                                                                                
 INPUT CARD>! THEORY: HF OR DFT                                                             
 INPUT CARD> $contrl mplevl=0 $end                                                          
 INPUT CARD>                                                                                
 INPUT CARD> $system timlim=10000 mwords=20 $end                                            
 INPUT CARD> $SCF DIRSCF=.TRUE. $end                                                        
 INPUT CARD>                                                                                
 INPUT CARD>                                                                                
 INPUT CARD>! BASIS SETS                                                                    
 INPUT CARD>! 6-311G(d,p)                                                                   
 INPUT CARD> $BASIS GBASIS=N311 NGAUSS=6 NDFUNC=1 NPFUNC=1 $END                             
 INPUT CARD>                                                                                
 INPUT CARD>! One of the following                                                          
 INPUT CARD> $guess guess=HUCKEL $end                                                       
 INPUT CARD>                                                                                
 INPUT CARD> $statpt projct=.FALSE. $end                                                    
 INPUT CARD> $STATPT IFREEZ(1)=1,2,3 $END                                                   
 INPUT CARD>                                                                                
 INPUT CARD>! Optimize the geometry with COSMO effects                                      
 INPUT CARD> $statpt opttol=0.0005 nstep=50 $end                                            
 INPUT CARD> $contrl nzvar=1 $end                                                           
 INPUT CARD> $zmat dlc=.t. auto=.t. $end                                                    
 INPUT CARD> $contrl runtyp=OPTIMIZE maxit=200 $end                                         
 INPUT CARD>                                                                                
 INPUT CARD>! Run COSMO on perfect conductor                                                
 INPUT CARD> $COSGMS PRFCND=.TRUE. $end                                                     
 INPUT CARD>                                                                                
 INPUT CARD>! Specifying RSOLV                                                              
 INPUT CARD> $COSGMS COSRAD = 1.4 $end                                                      
 INPUT CARD>                                                                                
 INPUT CARD>! available memory                                                              
 INPUT CARD> $SYSTEM MWORDS=40 $END                                                         
 INPUT CARD>                                                                                
 INPUT CARD> $DATA                                                                          
 INPUT CARD>2-Pentene, (Z)-, ID: C627203                                                    
 INPUT CARD>C1                                                                              
 INPUT CARD>C      6.0      1.9921000000    3.1603000000    2.3822000000                    
 INPUT CARD>C      6.0      0.4927000000    3.3464000000    2.3049000000                    
 INPUT CARD>C      6.0      2.3501000000    1.7526000000    2.7022000000                    
 INPUT CARD>C      6.0      3.2486000000    1.0300000000    2.0303000000                    
 INPUT CARD>C      6.0      4.0128000000    1.5142000000    0.8600000000                    
 INPUT CARD>H      1.0      2.4213000000    3.8176000000    3.1646000000                    
 INPUT CARD>H      1.0      2.4718000000    3.4750000000    1.4276000000                    
 INPUT CARD>H      1.0      0.0000000000    3.0718000000    3.2471000000                    
 INPUT CARD>H      1.0      0.0495000000    2.7283000000    1.5133000000                    
 INPUT CARD>H      1.0      0.2338000000    4.3910000000    2.0904000000                    
 INPUT CARD>H      1.0      1.8211000000    1.3133000000    3.5570000000                    
 INPUT CARD>H      1.0      3.4610000000    0.0000000000    2.3411000000                    
   40000000 WORDS OF MEMORY AVAILABLE

     BASIS OPTIONS
     -------------
     GBASIS=N311         IGAUSS=       6      POLAR=POPN311 
     NDFUNC=       1     NFFUNC=       0     DIFFSP=       F
     NPFUNC=       1      DIFFS=       F     BASNAM=        


     RUN TITLE
     ---------
 2-Pentene, (Z)-, ID: C627203                                                    

 THE POINT GROUP OF THE MOLECULE IS C1      
 THE ORDER OF THE PRINCIPAL AXIS IS     0

 ATOM      ATOMIC                      COORDINATES (BOHR)
           CHARGE         X                   Y                   Z
 C           6.0     3.7645231401        5.9721010390        4.5017052480
 C           6.0     0.9310679942        6.3237790453        4.3556294291
 C           6.0     4.4410450437        3.3119337661        5.1064175640
 C           6.0     6.1389638437        1.9464177674        3.8367106729
 C           6.0     7.5830924435        2.8614230906        1.6251643494
 H           1.0     4.5755935341        7.2142179307        5.9802268607
 H           1.0     4.6710246965        6.5667978073        2.6977728201
 H           1.0     0.0000000000        5.8048602891        6.1361292547
 H           1.0     0.0935414364        5.1557394123        2.8597223372
 H           1.0     0.4418179359        8.2977868121        3.9502832047
 H           1.0     3.4413799962        2.4817771397        6.7217553383
 H           1.0     6.5403416435        0.0000000000        4.4240375099
 H           1.0     9.6128471269        2.9175479524        2.0497857789
 H           1.0     7.0031355379        4.7779831874        1.0470971698
 H           1.0     7.3138064903        1.6005979116        0.0000000000

          INTERNUCLEAR DISTANCES (ANGS.)




     $CONTRL OPTIONS
     ---------------
 SCFTYP=RHF          RUNTYP=OPTIMIZE     EXETYP=RUN     
 MPLEVL=       0     CITYP =NONE         CCTYP =NONE         VBTYP =NONE    
 DFTTYP=NONE         TDDFT =NONE    
 MULT  =       1     ICHARG=       0     NZVAR =       1     COORD =UNIQUE  
 PP    =NONE         RELWFN=NONE         LOCAL =NONE         NUMGRD=       F
 ISPHER=      -1     NOSYM =       0     MAXIT =     200     UNITS =ANGS    
 PLTORB=       F     MOLPLT=       F     AIMPAC=       F     FRIEND=        
 NPRINT=       7     IREST =       0     GEOM  =INPUT   
 NORMF =       0     NORMP =       0     ITOL  =      20     ICUT  =       9
 INTTYP=BEST         GRDTYP=BEST         QMTTOL= 1.0E-06

     $SYSTEM OPTIONS
     ---------------
  REPLICATED MEMORY=    40000000 WORDS (ON EVERY NODE).
 DISTRIBUTED MEMDDI=           0 MILLION WORDS IN AGGREGATE,
 MEMDDI DISTRIBUTED OVER   1 PROCESSORS IS           0 WORDS/PROCESSOR.
 TOTAL MEMORY REQUESTED ON EACH PROCESSOR=    40000000 WORDS.
 TIMLIM=       10000.00 MINUTES, OR       6.9 DAYS.
 PARALL= F  BALTYP=  DLB     KDIAG=    0  COREFL= F
 MXSEQ2=     300 MXSEQ3=     150  mem10=         0

     $COSGMS OPTIONS
     ---------------
     EPSI  =   INFTY     NSPA  =      92     COSRAD=    1.40
     DISEX =   10.00     OUTCHG=DBLCAV       COSBUG=       F
     COSWRT=       F     DCOSMO=       F

     SYMMETRY COORDINATES WILL NOT BE USED FOR 
     THE COSMO CALCULATION, EVEN IF SPECIFIED:
         -- SWITCHING TO C1 POINT GROUP --


     DEFINITION OF CAVITY
     ---------------------------
     ATOM         COORDINATES           RADIUS 
     1    3.7645    5.9721    4.5017    2.0000
     2    0.9311    6.3238    4.3556    2.0000
     3    4.4410    3.3119    5.1064    2.0000
     4    6.1390    1.9464    3.8367    2.0000
     5    7.5831    2.8614    1.6252    2.0000
     6    4.5756    7.2142    5.9802    1.3000
     7    4.6710    6.5668    2.6978    1.3000
     8    0.0000    5.8049    6.1361    1.3000
     9    0.0935    5.1557    2.8597    1.3000
    10    0.4418    8.2978    3.9503    1.3000
    11    3.4414    2.4818    6.7218    1.3000
    12    6.5403    0.0000    4.4240    1.3000
    13    9.6128    2.9175    2.0498    1.3000
    14    7.0031    4.7780    1.0471    1.3000
    15    7.3138    1.6006    0.0000    1.3000

          ----------------
          PROPERTIES INPUT
          ----------------

     MOMENTS            FIELD           POTENTIAL          DENSITY
 IEMOM =       1   IEFLD =       0   IEPOT =       0   IEDEN =       0
 WHERE =COMASS     WHERE =NUCLEI     WHERE =NUCLEI     WHERE =NUCLEI  
 OUTPUT=BOTH       OUTPUT=BOTH       OUTPUT=BOTH       OUTPUT=BOTH    
 IEMINT=       0   IEFINT=       0                     IEDINT=       0
                                                       MORB  =       0
          EXTRAPOLATION IN EFFECT
          SOSCF IN EFFECT
 ORBITAL PRINTING OPTION: NPREO=     1   155     2     1

     -------------------------------
     INTEGRAL TRANSFORMATION OPTIONS
     -------------------------------
     NWORD  =            0
     CUTOFF = 1.0E-09     MPTRAN =       0
     DIRTRF =       T     AOINTS =DUP     

          ----------------------
          INTEGRAL INPUT OPTIONS
          ----------------------
 NOPK  =       1 NORDER=       0 SCHWRZ=       T


 -----------------------------------------------
  STATISTICS ON AUTOMATIC COORDINATE GENERATION 
 -----------------------------------------------
  NUMBER OF USER SPECIFIED BONDS                             0
  NUMBER OF BONDS                                           14
  NUMBER OF ANGLES                                          24
  NUMBER OF TORSIONS                                        25
  NUMBER OF EXTRA COORD.                                     0
  NUMBER OF EXTRA COORD. FOR CONSTRAINTS                     0
  NUMBER OF CONSTRAINED COORD.                               0

  TOTAL NUMBER OF PRIMITIVES                                63
 -----------------------------------------------

   --- ENCODED Z MATRIX ---
 COORD  TYPE   I   J   K   L   M   N
    1      1    1   7
    2      1    1   2
    3      1    1   3
    4      1    1   6
    5      1    2   8
    6      1    2  10
    7      1    2   9
    8      1    3   4
    9      1    3  11
   10      1    4  12
   11      1    4   5
   12      1    5  15
   13      1    5  14
   14      1    5  13
   15      2    1   3  11
   16      2    1   3   4
   17      2    1   2   8
   18      2    1   2   9
   19      2    1   2  10
   20      2    2   1   3
   21      2    2   1   7
   22      2    2   1   6
   23      2    3   1   7
   24      2    3   1   6
   25      2    3   4   5
   26      2    3   4  12
   27      2    4   3  11
   28      2    4   5  13
   29      2    4   5  14
   30      2    4   5  15
   31      2    5   4  12
   32      2    6   1   7
   33      2    8   2   9
   34      2    8   2  10
   35      2    9   2  10
   36      2   13   5  14
   37      2   13   5  15
   38      2   14   5  15
   39      3    1   3   4  12
   40      3    1   3   4   5
   41      3    2   1   3  11
   42      3    2   1   3   4
   43      3    3   1   2   9
   44      3    3   1   2   8
   45      3    3   4   5  13
   46      3    3   4   5  14
   47      3    3   4   5  15
   48      3    3   1   2  10
   49      3    4   3   1   6
   50      3    4   3   1   7
   51      3    5   4   3  11
   52      3    6   1   2   9
   53      3    6   1   3  11
   54      3    6   1   2   8
   55      3    6   1   2  10
   56      3    7   1   2  10
   57      3    7   1   2   9
   58      3    7   1   3  11
   59      3    7   1   2   8
   60      3   11   3   4  12
   61      3   12   4   5  15
   62      3   12   4   5  14
   63      3   12   4   5  13

          INDEP./SYM. INTERNAL COORDINATES
          --------------------------------
 CRD  1=   0.1826 (  8) -0.2885 ( 15)  0.5577 ( 16) -0.1570 ( 20)  0.1038 ( 23)
           0.5017 ( 25) -0.2611 ( 26) -0.2692 ( 27)  0.1272 ( 29) -0.2406 ( 31)
 CRD  2=  -0.1785 (  2) -0.1770 (  3) -0.1886 (  8) -0.1561 ( 18)  0.1288 ( 19)
          -0.6969 ( 20)  0.1626 ( 21)  0.2355 ( 22)  0.2378 ( 23)  0.2213 ( 24)
          -0.1188 ( 25)  0.1057 ( 31) -0.1216 ( 32)  0.1285 ( 39) -0.1350 ( 42)
          -0.1352 ( 49) -0.1033 ( 59)
 CRD  3=  -0.1768 ( 17)  0.1970 ( 18)  0.1954 ( 21) -0.1684 ( 22)  0.1201 ( 24)
          -0.1833 ( 28)  0.1941 ( 30)  0.1789 ( 39)  0.3351 ( 40)  0.3154 ( 41)
           0.3408 ( 42)  0.1796 ( 49)  0.1919 ( 50)  0.3616 ( 51)  0.1542 ( 53)
           0.1666 ( 58)  0.2054 ( 60)  0.1725 ( 62)
 CRD  4=   0.2864 (  3) -0.1168 (  9) -0.3915 ( 11) -0.1119 ( 15)  0.3173 ( 16)
          -0.1499 ( 17)  0.1028 ( 18)  0.1762 ( 23) -0.3248 ( 25)  0.1993 ( 26)
          -0.2056 ( 27) -0.3357 ( 29)  0.1255 ( 31)  0.1355 ( 36)  0.1387 ( 38)
          -0.1381 ( 39) -0.1071 ( 40)  0.1223 ( 42) -0.1466 ( 43) -0.1500 ( 44)
          -0.1057 ( 45) -0.1860 ( 48)
 CRD  5=   0.3603 (  2)  0.3697 (  3)  0.2977 (  8)  0.1109 ( 10)  0.2285 ( 17)
          -0.1344 ( 18)  0.1877 ( 19)  0.1004 ( 24) -0.1186 ( 25)  0.1594 ( 26)
          -0.1905 ( 29)  0.1221 ( 30) -0.1716 ( 34)  0.2605 ( 39)  0.1931 ( 40)
          -0.2146 ( 42)  0.1041 ( 43)  0.1267 ( 45)  0.1595 ( 46)  0.1704 ( 47)
           0.1538 ( 48)  0.1220 ( 60)  0.1055 ( 61)
 CRD  6=  -0.3213 (  8) -0.1395 ( 10) -0.4612 ( 11)  0.2739 ( 15)  0.1104 ( 17)
           0.1400 ( 25) -0.2212 ( 27) -0.3300 ( 28)  0.2406 ( 29) -0.2978 ( 30)
          -0.2077 ( 31)  0.2490 ( 37)  0.1175 ( 39)  0.1084 ( 40)  0.1056 ( 45)
 CRD  7=  -0.5621 (  2)  0.2447 (  3)  0.1691 (  8) -0.2656 ( 18) -0.2516 ( 19)
          -0.1884 ( 21) -0.1863 ( 22)  0.1931 ( 24) -0.1733 ( 28)  0.1887 ( 30)
          -0.1104 ( 31)  0.1475 ( 33)  0.1231 ( 34)  0.2395 ( 35) -0.1143 ( 49)
           0.1210 ( 50)  0.1390 ( 58)
 CRD  8=  -0.1910 (  3) -0.2424 (  8) -0.1240 (  9)  0.1498 ( 16)  0.3539 ( 17)
          -0.2246 ( 19) -0.2055 ( 21)  0.1883 ( 22)  0.1253 ( 23) -0.2047 ( 24)
          -0.2430 ( 26) -0.2030 ( 28)  0.3774 ( 30)  0.2957 ( 31) -0.1251 ( 33)
          -0.1096 ( 38)  0.1070 ( 40) -0.1153 ( 41) -0.1188 ( 43)  0.1428 ( 51)
           0.1105 ( 62)
 CRD  9=   0.1440 (  2)  0.1215 (  8) -0.1141 ( 14) -0.2560 ( 18)  0.3549 ( 19)
           0.1125 ( 22)  0.1358 ( 26)  0.1096 ( 27) -0.4396 ( 28)  0.1117 ( 29)
           0.2929 ( 30) -0.1516 ( 31) -0.1671 ( 34)  0.1321 ( 36) -0.1448 ( 38)
          -0.2344 ( 39) -0.1207 ( 40) -0.2034 ( 45) -0.1431 ( 46) -0.2374 ( 47)
           0.1162 ( 49) -0.1012 ( 58) -0.1246 ( 60) -0.1282 ( 61)
 CRD 10=   0.2736 (  3) -0.2762 (  8)  0.2070 ( 11)  0.4178 ( 15) -0.2112 ( 17)
          -0.1155 ( 18)  0.2991 ( 19) -0.3586 ( 26) -0.3898 ( 27)  0.3091 ( 31)
           0.1468 ( 33)
 CRD 11=  -0.1338 (  3)  0.1608 (  5) -0.1765 (  7) -0.1554 (  9) -0.1047 ( 11)
           0.3777 ( 17) -0.4612 ( 18)  0.1493 ( 21) -0.1526 ( 23)  0.2759 ( 28)
          -0.1731 ( 29) -0.2052 ( 30) -0.2158 ( 34)  0.1947 ( 35)  0.1716 ( 38)
           0.1513 ( 41)  0.1963 ( 42) -0.1043 ( 46)  0.1410 ( 49)  0.1059 ( 50)
 CRD 12=  -0.1539 (  2) -0.1763 (  4)  0.1225 (  6) -0.1321 ( 15) -0.1846 ( 17)
          -0.2783 ( 18)  0.3104 ( 19)  0.1573 ( 20) -0.2987 ( 21)  0.1552 ( 22)
           0.1837 ( 23) -0.3034 ( 24)  0.1371 ( 27)  0.1572 ( 29) -0.1673 ( 30)
           0.1035 ( 32)  0.2268 ( 33) -0.1311 ( 36)  0.1030 ( 39)  0.1252 ( 40)
          -0.1384 ( 43) -0.1673 ( 44) -0.1366 ( 48)  0.1477 ( 50)  0.1675 ( 51)
           0.1076 ( 58)  0.1453 ( 60)
 CRD 13=   0.1848 (  1)  0.2719 (  3)  0.3628 ( 10)  0.1934 ( 11) -0.1173 ( 12)
           0.1449 ( 13)  0.2434 ( 17) -0.1773 ( 19) -0.1539 ( 20)  0.1499 ( 23)
          -0.2237 ( 25)  0.4511 ( 29) -0.2229 ( 30)  0.1473 ( 31) -0.1296 ( 33)
          -0.2173 ( 36)  0.1126 ( 37) -0.1170 ( 38)
 CRD 14=   0.1487 (  1)  0.1617 (  3)  0.4014 (  9) -0.2700 ( 10) -0.1006 ( 13)
           0.2263 ( 15) -0.2373 ( 16) -0.1140 ( 19) -0.1718 ( 20) -0.1214 ( 21)
           0.2566 ( 22)  0.2512 ( 23) -0.1038 ( 24)  0.2113 ( 25)  0.1890 ( 28)
          -0.2118 ( 29) -0.1798 ( 31) -0.1024 ( 32) -0.1166 ( 37)  0.1192 ( 38)
          -0.1065 ( 45) -0.1054 ( 46) -0.1223 ( 47)  0.1916 ( 49)  0.1467 ( 50)
           0.1166 ( 53)
 CRD 15=   0.4443 (  1) -0.4109 (  4) -0.1160 (  7)  0.2754 (  9) -0.1029 ( 10)
           0.1850 ( 21) -0.2093 ( 22)  0.1133 ( 41) -0.1921 ( 43) -0.1904 ( 44)
           0.1669 ( 45)  0.1360 ( 46)  0.1609 ( 47) -0.2238 ( 48) -0.1729 ( 49)
          -0.1623 ( 50) -0.1475 ( 53) -0.1370 ( 58)  0.1107 ( 61)  0.1166 ( 63)
 CRD 16=  -0.1394 ( 11) -0.4757 ( 12) -0.5059 ( 13) -0.4759 ( 14)  0.2033 ( 28)
           0.1723 ( 29)  0.2045 ( 30) -0.1977 ( 36) -0.2185 ( 37) -0.1989 ( 38)
 CRD 17=  -0.1664 (  2) -0.5037 (  5) -0.4783 (  6) -0.4999 (  7)  0.1777 ( 17)
           0.1793 ( 18)  0.1981 ( 19) -0.1895 ( 33) -0.2023 ( 34) -0.2029 ( 35)
 CRD 18=   0.5569 ( 12) -0.4644 ( 14) -0.3755 ( 36)  0.3125 ( 38) -0.1724 ( 45)
           0.2566 ( 46) -0.1009 ( 47)  0.2713 ( 62) -0.1577 ( 63)
 CRD 19=  -0.2152 ( 12)  0.5873 ( 13) -0.3779 ( 14)  0.1433 ( 36) -0.4002 ( 37)
           0.2522 ( 38)  0.2038 ( 45) -0.2476 ( 47) -0.2441 ( 61)  0.2073 ( 63)
 CRD 20=  -0.4015 (  1) -0.4299 (  4) -0.2043 (  5)  0.4778 (  6) -0.2301 (  7)
          -0.1811 ( 32) -0.2621 ( 33)  0.1334 ( 34)  0.1192 ( 35)  0.1250 ( 43)
          -0.1349 ( 44) -0.1931 ( 54)  0.1894 ( 57)
 CRD 21=  -0.5615 (  5)  0.5427 (  7) -0.2867 ( 34)  0.2970 ( 35) -0.2288 ( 48)
          -0.2211 ( 55) -0.2211 ( 56)
 CRD 22=   0.4214 (  1)  0.4584 (  4) -0.2232 (  5)  0.4435 (  6) -0.2484 (  7)
           0.2057 ( 32) -0.2034 ( 33)  0.1120 ( 34)  0.1002 ( 35)  0.1248 ( 43)
          -0.1200 ( 44)  0.1005 ( 50)  0.2042 ( 52)  0.1072 ( 58) -0.2091 ( 59)
 CRD 23=  -0.1669 (  1)  0.1372 (  4)  0.1181 (  9) -0.1132 ( 12) -0.1225 ( 22)
          -0.1118 ( 23)  0.1410 ( 24)  0.1364 ( 39)  0.1570 ( 40) -0.1410 ( 41)
          -0.1633 ( 43) -0.1564 ( 44) -0.1842 ( 45) -0.1323 ( 46) -0.1868 ( 47)
          -0.1270 ( 48) -0.1198 ( 49)  0.2276 ( 51) -0.2716 ( 52) -0.1874 ( 53)
          -0.2647 ( 54) -0.2353 ( 55) -0.2264 ( 56) -0.2627 ( 57) -0.1297 ( 58)
          -0.2558 ( 59)  0.2070 ( 60) -0.1669 ( 61) -0.1125 ( 62) -0.1643 ( 63)
 CRD 24=  -0.3436 (  1)  0.3578 (  4)  0.1501 (  9) -0.1652 ( 39) -0.1359 ( 40)
           0.1498 ( 41)  0.1412 ( 42)  0.1911 ( 45)  0.1551 ( 46)  0.1992 ( 47)
          -0.1161 ( 48)  0.1940 ( 49)  0.1304 ( 50) -0.1448 ( 51) -0.1663 ( 52)
           0.2026 ( 53) -0.1682 ( 54) -0.1858 ( 55) -0.1672 ( 56) -0.1478 ( 57)
           0.1391 ( 58) -0.1496 ( 59) -0.1741 ( 60)  0.2274 ( 61)  0.1833 ( 62)
           0.2193 ( 63)
 CRD 25=  -0.1421 (  3) -0.1044 (  6) -0.3192 (  9)  0.3344 ( 10)  0.1299 ( 11)
           0.1685 ( 12)  0.1860 ( 14)  0.3161 ( 15)  0.1093 ( 21)  0.1349 ( 22)
           0.3040 ( 26) -0.2994 ( 27)  0.1242 ( 28)  0.1267 ( 30) -0.3370 ( 31)
          -0.1658 ( 37) -0.1162 ( 44) -0.1457 ( 56) -0.1309 ( 57) -0.1644 ( 59)
 CRD 26=  -0.2236 (  3)  0.2641 (  8)  0.4007 (  9)  0.5187 ( 10) -0.1414 ( 11)
          -0.1706 ( 12) -0.1929 ( 13) -0.1481 ( 14)  0.1210 ( 15) -0.1327 ( 23)
          -0.2057 ( 26) -0.1377 ( 27) -0.1193 ( 28) -0.1718 ( 29) -0.1182 ( 30)
           0.1496 ( 31)  0.1403 ( 36)  0.1367 ( 37)  0.1573 ( 38)
 CRD 27=  -0.1080 (  2) -0.2278 (  3)  0.2017 (  5)  0.2556 (  6)  0.1813 (  7)
          -0.2041 (  8)  0.1341 (  9)  0.3363 ( 10)  0.1369 ( 12)  0.1899 ( 17)
           0.1937 ( 18)  0.2094 ( 19) -0.1842 ( 21) -0.1629 ( 22)  0.1322 ( 23)
           0.1189 ( 24) -0.1265 ( 31)  0.1288 ( 32) -0.1766 ( 33) -0.2384 ( 34)
          -0.2204 ( 35) -0.1310 ( 49)  0.1630 ( 50) -0.1188 ( 51)  0.2534 ( 58)
          -0.1137 ( 62)
 CRD 28=  -0.1748 (  1) -0.1023 (  3) -0.1613 (  8)  0.5134 (  9) -0.2951 ( 11)
           0.1565 ( 12)  0.2185 ( 13)  0.1745 ( 14)  0.2136 ( 16) -0.1398 ( 25)
           0.1709 ( 26) -0.1589 ( 27)  0.1820 ( 28)  0.1768 ( 29)  0.1863 ( 30)
          -0.2107 ( 36) -0.1687 ( 37) -0.1981 ( 38)  0.1585 ( 52)  0.1345 ( 54)
           0.1170 ( 55)
 CRD 29=   0.1649 (  4) -0.2532 (  8)  0.1964 ( 10) -0.1714 ( 12) -0.1502 ( 13)
           0.2801 ( 14)  0.1423 ( 27)  0.2184 ( 38) -0.2625 ( 39) -0.1764 ( 41)
           0.1374 ( 46) -0.1293 ( 47)  0.1956 ( 51) -0.2275 ( 53)  0.1274 ( 56)
           0.1246 ( 57) -0.2757 ( 58)  0.1569 ( 59)  0.1096 ( 61)  0.3763 ( 62)
           0.2199 ( 63)
 CRD 30=  -0.3445 (  2) -0.1081 (  3)  0.1651 (  5)  0.2038 (  7)  0.4128 (  8)
          -0.3047 ( 10) -0.1906 ( 12)  0.1866 ( 13)  0.1736 ( 15)  0.1565 ( 17)
           0.1583 ( 18)  0.1503 ( 19) -0.1227 ( 25) -0.2278 ( 27) -0.2114 ( 33)
          -0.1282 ( 34) -0.1584 ( 35) -0.1488 ( 36)  0.1096 ( 37) -0.1358 ( 39)
          -0.1099 ( 45)  0.1436 ( 61)  0.1768 ( 62)
 CRD 31=  -0.2308 (  1)  0.1337 (  4)  0.1997 (  5) -0.1852 (  8)  0.1104 (  9)
          -0.1619 ( 10)  0.5183 ( 11) -0.1132 ( 13) -0.1979 ( 14) -0.1334 ( 24)
          -0.1160 ( 25)  0.2500 ( 26) -0.1230 ( 27) -0.1150 ( 28) -0.1320 ( 29)
          -0.1464 ( 30) -0.1340 ( 31)  0.1267 ( 35)  0.1834 ( 36)  0.1467 ( 37)
          -0.1302 ( 48)  0.2342 ( 52)  0.1489 ( 54)  0.1094 ( 57)  0.1046 ( 60)
 CRD 32=   0.3400 (  2) -0.3925 (  3) -0.2029 (  5)  0.1219 (  6) -0.1260 (  7)
           0.1369 (  9) -0.1096 ( 10)  0.2203 ( 11) -0.2404 ( 12)  0.1060 ( 16)
          -0.1018 ( 19) -0.1207 ( 21) -0.1067 ( 22)  0.1251 ( 23)  0.1588 ( 24)
           0.1789 ( 26) -0.2056 ( 27)  0.2219 ( 33)  0.1346 ( 37)  0.1027 ( 38)
          -0.1035 ( 43) -0.1417 ( 45) -0.2115 ( 52)  0.1121 ( 58)  0.1511 ( 59)
          -0.1351 ( 60)  0.1360 ( 62)
 CRD 33=  -0.1836 (  3)  0.2748 (  4)  0.2095 (  6) -0.2741 (  7)  0.2046 (  8)
          -0.1243 (  9) -0.1597 ( 11)  0.1242 ( 12)  0.1127 ( 13) -0.1491 ( 14)
           0.1258 ( 15) -0.1092 ( 16)  0.1802 ( 23) -0.1761 ( 32)  0.1361 ( 33)
          -0.2267 ( 34) -0.1575 ( 38) -0.1124 ( 43)  0.1284 ( 47) -0.2074 ( 48)
          -0.1045 ( 50)  0.1141 ( 51)  0.1336 ( 54) -0.1709 ( 55)  0.1269 ( 57)
          -0.1932 ( 58)  0.3364 ( 59)  0.1804 ( 60) -0.1341 ( 62)
 CRD 34=  -0.2021 (  1)  0.2699 (  2)  0.2293 (  5) -0.1984 (  6) -0.1577 (  7)
           0.1680 (  8) -0.1731 (  9) -0.1435 ( 11) -0.1265 ( 12)  0.1788 ( 14)
           0.1432 ( 15) -0.1846 ( 16) -0.1306 ( 17) -0.1296 ( 21)  0.1447 ( 23)
          -0.1196 ( 26)  0.1778 ( 32)  0.2535 ( 35) -0.1284 ( 36)  0.1156 ( 46)
          -0.2313 ( 48) -0.2148 ( 49) -0.1334 ( 51)  0.2307 ( 52) -0.1069 ( 53)
          -0.1773 ( 56)  0.1401 ( 57)  0.1617 ( 58) -0.1149 ( 60)
 CRD 35=  -0.1142 (  3)  0.2150 (  8) -0.2117 ( 10)  0.2022 ( 12) -0.3994 ( 13)
           0.1948 ( 14) -0.2601 ( 25) -0.1245 ( 27) -0.1270 ( 28)  0.2525 ( 29)
          -0.1362 ( 30)  0.2321 ( 31)  0.1432 ( 36) -0.2782 ( 37)  0.1380 ( 38)
           0.2616 ( 45) -0.2554 ( 47) -0.2646 ( 61)  0.2524 ( 63)
 CRD 36=  -0.2632 (  2)  0.1261 (  3)  0.1747 (  6) -0.1309 (  7) -0.2099 ( 12)
           0.1982 ( 14)  0.1200 ( 18)  0.1754 ( 22) -0.1155 ( 23) -0.1320 ( 24)
          -0.1282 ( 28)  0.1325 ( 30) -0.1587 ( 34) -0.1419 ( 36)  0.1417 ( 38)
           0.2089 ( 39)  0.1322 ( 41) -0.1251 ( 42)  0.1309 ( 44)  0.2326 ( 46)
          -0.2056 ( 50) -0.2624 ( 51)  0.3028 ( 53)  0.1375 ( 54) -0.1208 ( 56)
          -0.2278 ( 61) -0.2402 ( 63)
 CRD 37=   0.1839 (  1) -0.2607 (  3)  0.1554 (  4)  0.1360 (  5) -0.2285 (  6)
           0.1117 (  7) -0.1056 ( 17)  0.2117 ( 19)  0.2279 ( 20) -0.2473 ( 32)
          -0.1830 ( 33)  0.1987 ( 43) -0.1653 ( 44)  0.1025 ( 49) -0.1147 ( 50)
           0.1483 ( 53) -0.3788 ( 54) -0.2152 ( 55)  0.1737 ( 56)  0.3741 ( 57)
 CRD 38=   0.2145 (  1) -0.2071 (  4)  0.1952 (  5) -0.1935 (  7) -0.1071 ( 15)
           0.1120 ( 16) -0.1679 ( 17)  0.1683 ( 18) -0.1666 ( 21)  0.1731 ( 22)
          -0.1370 ( 23)  0.1212 ( 24) -0.1439 ( 34)  0.1431 ( 35) -0.1470 ( 39)
          -0.2446 ( 41) -0.2115 ( 42)  0.2705 ( 43)  0.2697 ( 44) -0.1594 ( 46)
          -0.3087 ( 55) -0.3057 ( 56) -0.1124 ( 60)  0.1502 ( 61)  0.1421 ( 63)
 CRD 39=   0.1098 ( 24) -0.4241 ( 40) -0.2320 ( 41)  0.1791 ( 42)  0.1116 ( 44)
           0.2059 ( 45)  0.3129 ( 46)  0.1968 ( 47)  0.2334 ( 49)  0.3295 ( 50)
          -0.1776 ( 53)  0.4133 ( 60) -0.1968 ( 61) -0.1877 ( 63)

 THE DETERMINANT OF THE G MATRIX IS 10**(   -13)


                     --------------------
                     INTERNAL COORDINATES
                     --------------------

                 - - ATOMS - -         COORDINATE      COORDINATE
 NO.   TYPE    I  J  K  L  M  N        (BOHR,RAD)       (ANG,DEG)
 ----------------------------------------------------------------
   1 STRETCH   1  7                     2.1046571       1.1137367
   2 STRETCH   1  2                     2.8589305       1.5128810
   3 STRETCH   1  3                     2.8106670       1.4873410
   4 STRETCH   1  6                     2.0944488       1.1083346
   5 STRETCH   2  8                     2.0751732       1.0981345
   6 STRETCH   2 10                     2.0737352       1.0973735
   7 STRETCH   2  9                     2.0744892       1.0977725
   8 STRETCH   3  4                     2.5218481       1.3345046
   9 STRETCH   3 11                     2.0731151       1.0970454
  10 STRETCH   4 12                     2.0723414       1.0966359
  11 STRETCH   4  5                     2.7952959       1.4792070
  12 STRETCH   5 15                     2.0744528       1.0977532
  13 STRETCH   5 14                     2.0841579       1.1028890
  14 STRETCH   5 13                     2.0744535       1.0977536
  15 BEND      1  3 11                  2.0159232     115.5038913
  16 BEND      1  3  4                  2.1727026     124.4866898
  17 BEND      1  2  8                  1.9498837     111.7201079
  18 BEND      1  2  9                  1.9473442     111.5746014
  19 BEND      1  2 10                  1.9400362     111.1558858
  20 BEND      2  1  3                  1.9454710     111.4672761
  21 BEND      2  1  7                  1.9265770     110.3847309
  22 BEND      2  1  6                  1.9250754     110.2986979
  23 BEND      3  1  7                  1.9264125     110.3753077
  24 BEND      3  1  6                  1.8925259     108.4337444
  25 BEND      3  4  5                  2.1760021     124.6757380
  26 BEND      3  4 12                  2.0901081     119.7543752
  27 BEND      4  3 11                  2.0945547     120.0091460
  28 BEND      4  5 13                  1.9309391     110.6346601
  29 BEND      4  5 14                  1.9570201     112.1289917
  30 BEND      4  5 15                  1.9324267     110.7198916
  31 BEND      5  4 12                  2.0170747     115.5698690
  32 BEND      6  1  7                  1.8449075     105.7054105
  33 BEND      8  2  9                  1.8720995     107.2633989
  34 BEND      8  2 10                  1.8753758     107.4511204
  35 BEND      9  2 10                  1.8752494     107.4438752
  36 BEND     13  5 14                  1.8798604     107.7080651
  37 BEND     13  5 15                  1.8794916     107.6869363
  38 BEND     14  5 15                  1.8812582     107.7881569
  39 TORSION   1  3  4 12               3.1295153     179.3080201
  40 TORSION   1  3  4  5              -0.0111905      -0.6411673
  41 TORSION   2  1  3 11              -0.8625052     -49.4179096
  42 TORSION   2  1  3  4               2.2824168     130.7728514
  43 TORSION   3  1  2  9              -1.0704739     -61.3336385
  44 TORSION   3  1  2  8               1.0251072      58.7343147
  45 TORSION   3  4  5 13               2.0291993     116.2645536
  46 TORSION   3  4  5 14              -0.0698127      -3.9999745
  47 TORSION   3  4  5 15              -2.1716343    -124.4254828
  48 TORSION   3  1  2 10               3.1198474     178.7540873
  49 TORSION   4  3  1  6              -1.8784187    -107.6254616
  50 TORSION   4  3  1  7               0.1348437       7.7259723
  51 TORSION   5  4  3 11               3.1338723     179.5576588
  52 TORSION   6  1  2  9               3.1093605     178.1532315
  53 TORSION   6  1  3 11               1.2598446      72.1837774
  54 TORSION   6  1  2  8              -1.0782437     -61.7788153
  55 TORSION   6  1  2 10               1.0164965      58.2409573
  56 TORSION   7  1  2 10              -1.0158587     -58.2044151
  57 TORSION   7  1  2  9               1.0770053      61.7078592
  58 TORSION   7  1  3 11              -3.0100784    -172.4647887
  59 TORSION   7  1  2  8              -3.1105989    -178.2241877
  60 TORSION  11  3  4 12              -0.0086072      -0.4931538
  61 TORSION  12  4  5 15               0.9708118      55.6234203
  62 TORSION  12  4  5 14               3.0726334     176.0489286
  63 TORSION  12  4  5 13              -1.1115399     -63.6865433

     ------------------------------------------
     THE POINT GROUP IS C1 , NAXIS= 1, ORDER= 1
     ------------------------------------------

     DIMENSIONS OF THE SYMMETRY SUBSPACES ARE
 A   =  155

 ..... DONE SETTING UP THE RUN .....
 STEP CPU TIME =     0.01 TOTAL CPU TIME =        0.0 (    0.0 MIN)
 TOTAL WALL CLOCK TIME=        0.0 SECONDS, CPU UTILIZATION IS 100.00%


          -----------------------------
          STATIONARY POINT LOCATION RUN
          -----------------------------

 OBTAINING INITIAL HESSIAN, HESS=GUESS   
 DIAGONAL GUESS HESSIAN IN INTERNAL COORDS IS
     1  0.3307     2  0.3796     3  0.3989     4  0.3342     5  0.3409
     6  0.3414     7  0.3412     8  0.5369     9  0.3417    10  0.3419
    11  0.4053    12  0.3412    13  0.3378    14  0.3412    15  0.2262
    16  0.2661    17  0.2246    18  0.2246    19  0.2247    20  0.2527
    21  0.2237    22  0.2240    23  0.2252    24  0.2255    25  0.2667
    26  0.2358    27  0.2358    28  0.2267    29  0.2263    30  0.2267
    31  0.2267    32  0.2013    33  0.2026    34  0.2026    35  0.2026
    36  0.2024    37  0.2026    38  0.2024    39  0.2500    40  0.2500
    41  0.2500    42  0.2500    43  0.2500    44  0.2500    45  0.2500
    46  0.2500    47  0.2500    48  0.2500    49  0.2500    50  0.2500
    51  0.2500    52  0.2500    53  0.2500    54  0.2500    55  0.2500
    56  0.2500    57  0.2500    58  0.2500    59  0.2500    60  0.2500
    61  0.2500    62  0.2500    63  0.2500
 TRANSFORMING HESSIAN TO SYMMETRY COORDINATES

          PARAMETERS CONTROLLING GEOMETRY SEARCH ARE
          METHOD =QA                  UPHESS =BFGS    
          NNEG   =         0          NFRZ   =         3
          NSTEP  =        50          IFOLOW =         1
          HESS   =GUESS               RESTAR =         F
          IHREP  =         0          HSSEND =         F
          NPRT   =         0          NPUN   =         0
          OPTTOL = 5.000E-04          RMIN   = 1.500E-03
          RMAX   = 1.000E-01          RLIM   = 7.000E-02
          DXMAX  = 3.000E-01          PURIFY =         F
          MOVIE  =         F          TRUPD  =         T
          TRMAX  = 5.000E-01          TRMIN  = 5.000E-02
          ITBMAT =         5          STPT   =         F
          STSTEP = 1.000E-02          PROJCT=          F
          FROZEN COORD(S)=   1   2   3


      ***** EQUILIBRIUM GEOMETRY LOCATED *****
            (SUBJECT TO   3 CONSTRAINT(S))
 COORDINATES OF ALL ATOMS ARE (ANGS)
   ATOM   CHARGE       X              Y              Z
 ------------------------------------------------------------
 C           6.0   1.9794532830   3.1689014298   2.4241049611
 C           6.0   0.4677579766   3.3555691387   2.2819175476
 C           6.0   2.3759077821   1.7455555037   2.7206349188
 C           6.0   3.2443251770   1.0292337410   2.0257102891
 C           6.0   4.0291134319   1.5060630506   0.8320224799
 H           1.0   2.3507931923   3.8184352606   3.2144598630
 H           1.0   2.4552150640   3.4958529777   1.5107647383
 H           1.0  -0.0383152070   3.2408909103   3.2357863949
 H           1.0   0.0525473306   2.6286596170   1.5887597584
 H           1.0   0.2484975465   4.3474925326   1.8982152183
 H           1.0   1.8948464892   1.2849681498   3.5728507454
 H           1.0   3.4322733756   0.0099566071   2.3304909977
 H           1.0   5.0948865954   1.4084953715   1.0195668481
 H           1.0   3.8310889866   2.5431193418   0.6024754283
 H           1.0   3.7966988242   0.9167247045  -0.0505060436


                     --------------------
                     INTERNAL COORDINATES
                     --------------------

                 - - ATOMS - -         COORDINATE      COORDINATE
 NO.   TYPE    I  J  K  L  M  N        (BOHR,RAD)       (ANG,DEG)
 ----------------------------------------------------------------
   1 STRETCH   1  7                     2.0418111       1.0804800
   2 STRETCH   1  2                     2.8909008       1.5297989
   3 STRETCH   1  3                     2.8477988       1.5069903
   4 STRETCH   1  6                     2.0566335       1.0883237
   5 STRETCH   2  8                     2.0520083       1.0858761
   6 STRETCH   2 10                     2.0520846       1.0859165
   7 STRETCH   2  9                     2.0538679       1.0868602
   8 STRETCH   3  4                     2.5000053       1.3229459
   9 STRETCH   3 11                     2.0439049       1.0815879
  10 STRETCH   4 12                     2.0415528       1.0803433
  11 STRETCH   4  5                     2.8459985       1.5060376
  12 STRETCH   5 15                     2.0529356       1.0863668
  13 STRETCH   5 14                     2.0417711       1.0804588
  14 STRETCH   5 13                     2.0532591       1.0865380
  15 BEND      1  3 11                  2.0266608     116.1191100
  16 BEND      1  3  4                  2.1904298     125.5023844
  17 BEND      1  2  8                  1.9455064     111.4693075
  18 BEND      1  2  9                  1.9338965     110.8041061
  19 BEND      1  2 10                  1.9217829     110.1100465
  20 BEND      2  1  3                  1.9752330     113.1725133
  21 BEND      2  1  7                  1.8961278     108.6401179
  22 BEND      2  1  6                  1.9090488     109.3804384
  23 BEND      3  1  7                  1.9137763     109.6513047
  24 BEND      3  1  6                  1.9081964     109.3316000
  25 BEND      3  4  5                  2.1981081     125.9423146
  26 BEND      3  4 12                  2.0678775     118.4806554
  27 BEND      4  3 11                  2.0660700     118.3770932
  28 BEND      4  5 13                  1.9239905     110.2365331
  29 BEND      4  5 14                  1.9571128     112.1343052
  30 BEND      4  5 15                  1.9397549     111.1397698
  31 BEND      5  4 12                  2.0171338     115.5732506
  32 BEND      6  1  7                  1.8577563     106.4415928
  33 BEND      8  2  9                  1.8876237     108.1528719
  34 BEND      8  2 10                  1.8888888     108.2253553
  35 BEND      9  2 10                  1.8843490     107.9652426
  36 BEND     13  5 14                  1.8782536     107.6160040
  37 BEND     13  5 15                  1.8769107     107.5390608
  38 BEND     14  5 15                  1.8848258     107.9925654
  39 TORSION   1  3  4 12              -3.1238816    -178.9852324
  40 TORSION   1  3  4  5               0.0306425       1.7556864
  41 TORSION   2  1  3 11              -0.9389328     -53.7968865
  42 TORSION   2  1  3  4               2.1949565     125.7617443
  43 TORSION   3  1  2  9              -0.8831625     -50.6014855
  44 TORSION   3  1  2  8               1.2199875      69.9001339
  45 TORSION   3  4  5 13               2.1235063     121.6679473
  46 TORSION   3  4  5 14               0.0312354       1.7896549
  47 TORSION   3  4  5 15              -2.0803447    -119.1949723
  48 TORSION   3  1  2 10              -2.9666119    -169.9743406
  49 TORSION   4  3  1  6              -1.9556598    -112.0510520
  50 TORSION   4  3  1  7               0.0749414       4.2938281
  51 TORSION   5  4  3 11              -3.1188115    -178.6947338
  52 TORSION   6  1  2  9              -3.0152555    -172.7614171
  53 TORSION   6  1  3 11               1.1936362      68.3903172
  54 TORSION   6  1  2  8              -0.9121055     -52.2597977
  55 TORSION   6  1  2 10               1.1844804      67.8657277
  56 TORSION   7  1  2 10              -0.8366959     -47.9391444
  57 TORSION   7  1  2  9               1.2467534      71.4337107
  58 TORSION   7  1  3 11              -3.0589479    -175.2648028
  59 TORSION   7  1  2  8              -2.9332818    -168.0646699
  60 TORSION  11  3  4 12               0.0098497       0.5643474
  61 TORSION  12  4  5 15               1.0738489      61.5270076
  62 TORSION  12  4  5 14              -3.0977564    -177.4883652
  63 TORSION  12  4  5 13              -1.0054855     -57.6100728

          INTERNUCLEAR DISTANCES (ANGS.)


 =====================================================
   GAMESS/COSab RESULTS
 =====================================================

   Dielectric Constant                  = INFTY
   Basic Grid Size                      =                 1082
   Number of Segments                   =                   92
   Number of Segments located on spheres=                  223
   Number of Segments of the cavity     =                  549
   Solvent Radius (rsolv)               = 1.40
   Outlying Charge Error Method         = double cavity

 =====================================================

  Total solvated Energy (a.u.)          =  -195.1933793242
  Total Energy corrected (a.u.)         =  -195.1933397407

  Outlying charge effect (a.u.)         =     0.0000395835
  Outlying charge effect (kcal/mol)     =     0.0248390410

  Dielectric Energy (a.u.)              =    -0.0029502118
  Dielectric energy corr. (a.u.)        =    -0.0029106283

  Sum of polarization charges           =     0.0254986692
  Sum of polarization charges(cor.)     =    -0.0254986692

  Total surface area of cavity (A**2)   =  129.64
  Total volume of cavity (A**3)         =  116.35

 =====================================================
 NPS=                   549
NR.  ATOM  (X, Y, Z)(a.u.)                  CHARGE(e)  AREA(A**2) SIGMA(e/A**2)
   1   1   7.366145   6.875038   5.175601   0.000300   0.185824   0.001612
   2   1   5.283687   9.325896   3.706806   0.001399   0.371649   0.003763
   3   1   5.487574   9.339802   4.595471   0.001045   0.278737   0.003748
   4   1   7.166267   7.199905   5.620792   0.000574   0.278737   0.002059
   5   1   2.927061   6.458625   8.241650   0.000153   0.139368   0.001098
   6   1   2.794986   5.659195   8.225288  -0.000016   0.046456  -0.000349
   7   1   7.018261   7.858671   4.372821   0.001053   0.278737   0.003779
   8   1   6.361954   8.663773   4.075882   0.001495   0.325193   0.004597
   9   1   4.328236   9.699376   4.171908   0.000850   0.325193   0.002615
  10   1   3.708671   9.766729   4.665037   0.000236   0.139368   0.001692
  11   1   4.085965   9.415630   3.025653   0.000562   0.325193   0.001729
  12   1   3.700841   9.709547   5.240705   0.000214   0.185824   0.001150
  13   1   6.731421   8.279366   4.882005   0.000505   0.139368   0.003625
  14   1   3.349623   6.101906   8.338341   0.000050   0.046456   0.001075
  15   2  -0.854846   9.303866   5.887915   0.001096   0.232280   0.004719
  16   2  -2.887574   6.270413   4.077737   0.000878   0.371649   0.002362
  17   2  -1.057141   3.158967   4.937117   0.001460   0.325193   0.004488
  18   2   1.361708   7.523255   0.754317   0.000935   0.325193   0.002875
  19   2   0.297605   7.675818   0.825220   0.000671   0.185824   0.003608
  20   2   1.636863   6.309585   0.608633   0.000538   0.278737   0.001931
  21   2   0.872455   6.289871   0.533107   0.000764   0.232280   0.003289
  22   2  -1.451206   3.698667   5.671949   0.000811   0.185824   0.004365
  23   2  -2.783797   6.127692   5.199013   0.001201   0.418105   0.002873
  24   2  -0.842083   8.823054   6.580455   0.001689   0.371649   0.004545
  25   2   1.217812   8.046656   7.668360   0.000495   0.232280   0.002133
  26   2  -1.102919   7.365286   1.264621   0.001804   0.371649   0.004854
  27   2  -1.005740   6.677841   1.056433   0.001058   0.232280   0.004554
  28   2   1.101465   9.105451   6.880322   0.000901   0.325193   0.002772
  29   2   0.231753   9.474542   6.322278   0.001353   0.325193   0.004161
  30   2  -1.873408   8.654158   5.465910   0.002442   0.511017   0.004778
  31   2  -2.707503   7.449902   4.707636   0.001188   0.418105   0.002840
  32   2  -2.661723   5.036749   4.206203   0.001576   0.418105   0.003769
  33   2  -1.964663   3.906063   4.802448   0.001700   0.325193   0.005229
  34   2  -0.640494   3.250330   5.863815   0.000915   0.232280   0.003938
  35   2   1.982718   9.849955   5.186750   0.000098   0.092912   0.001054
  36   2  -2.111345   7.653981   2.417759   0.001287   0.371649   0.003462
  37   2  -2.670583   7.177015   3.337056   0.001179   0.464561   0.002538
  38   2  -2.660182   5.879676   3.083140   0.000936   0.325193   0.002878
  39   2   1.619589   8.205957   1.108233   0.000229   0.139368   0.001642
  40   2   0.146330   6.881483   0.645019   0.001656   0.371649   0.004456
  41   2   1.586254   5.385677   0.723576   0.000113   0.139368   0.000807
  42   2  -2.433823   4.724535   5.126727   0.001342   0.325193   0.004128
  43   2  -2.399129   7.717898   5.581116   0.000966   0.278737   0.003464
  44   2   0.308526   8.724749   7.188192   0.000767   0.232280   0.003300
  45   2  -2.158180   6.605342   2.085097   0.001609   0.418105   0.003848
  46   2   1.300806   9.754290   5.880821   0.000919   0.325193   0.002825
  47   2  -2.352320   8.270536   4.015256   0.001053   0.371649   0.002833
  48   3   2.445316   0.133838   4.843757   0.001352   0.185824   0.007275
  49   3   6.228419   3.777824   8.462682   0.001917   0.371649   0.005158
  50   3   5.242110   3.525251   8.838141   0.001038   0.278737   0.003725
  51   3   5.565947   0.858407   7.819239   0.000198   0.092912   0.002130
  52   3   2.683581   0.036995   5.760649   0.000912   0.232280   0.003925
  53   3   1.300058   1.300544   4.798524   0.001107   0.185824   0.005959
  54   3   1.884844   0.572762   4.880198   0.001712   0.232280   0.007371
  55   3   5.932985   1.575820   8.179923   0.001673   0.278737   0.006003
  56   3   6.592641   2.522612   8.184312   0.002624   0.371649   0.007061
  57   3   5.306761   4.405278   8.661506   0.000700   0.232280   0.003012
  58   3   4.409371   4.562209   8.702314   0.000340   0.185824   0.001832
  59   3   1.971028   1.038237   3.458791   0.001367   0.139368   0.009809
  60   3   7.210522   3.815839   7.713117   0.005224   0.511017   0.010223
  61   3   6.478549   4.734237   8.016699   0.001432   0.325193   0.004403
  62   3   5.695329   2.583452   8.651177   0.001454   0.278737   0.005217
  63   3   1.478470   1.040088   5.480618   0.001077   0.232280   0.004635
  64   3   3.868240   4.256264   8.744149   0.000017   0.185824   0.000091
  65   3   7.462746   4.907297   6.831831   0.003241   0.418105   0.007752
  66   3   1.818278   0.847023   4.075010   0.001831   0.185824   0.009855
  67   4   8.611690   4.171606   5.609034   0.001428   0.185824   0.007687
  68   4   9.473099   0.843466   5.206629   0.000623   0.232280   0.002683
  69   4   7.506602   0.984292   7.214599   0.002270   0.278737   0.008144
  70   4   3.967349  -0.682988   2.185720   0.001787   0.371649   0.004807
  71   4   4.775998  -1.328758   2.512272   0.000992   0.278737   0.003558
  72   4   4.019012  -0.852040   5.242620   0.000164   0.092912   0.001762
  73   4   6.953438   0.232731   7.095444   0.000776   0.232280   0.003340
  74   4   9.279929   0.053325   4.716527   0.000253   0.278737   0.000909
  75   4   9.145616   1.116545   5.951561   0.001079   0.278737   0.003870
  76   4   8.247503   1.332038   6.898627   0.002219   0.278737   0.007962
  77   4   3.773807  -0.953430   4.400547   0.001750   0.278737   0.006277
  78   4   3.371603  -0.598437   3.378885   0.002516   0.371649   0.006771
  79   4   4.958494  -0.959096   1.712351   0.000703   0.232280   0.003026
  80   4   5.843315  -1.179583   1.721218   0.000261   0.185824   0.001406
  81   4   9.364364   2.203893   5.767576   0.001252   0.278737   0.004490
  82   4   9.079953   3.359691   5.721660   0.001528   0.232280   0.006577
  83   4   8.644604   3.171560   6.369878   0.002560   0.232280   0.011022
  84   4   8.287425   2.341109   6.906461   0.001239   0.185824   0.006667
  85   4   3.182660   0.222247   2.208016   0.004741   0.464561   0.010205
  86   4   4.041934   0.002521   1.348639   0.001364   0.325193   0.004194
  87   4   4.153494  -1.242925   3.368116   0.001440   0.278737   0.005167
  88   4   8.565145   0.499197   6.331710   0.001709   0.371649   0.004598
  89   4   6.277600  -1.413899   2.101570   0.000006   0.185824   0.000035
  90   4   3.380550   1.151192   1.360279   0.003062   0.371649   0.008239
  91   4   8.851579   2.099063   6.446880   0.001804   0.278737   0.006472
  92   5   9.660461   0.384691  -0.437082   0.000925   0.232280   0.003981
  93   5   9.812458   4.407015  -1.076117   0.000619   0.371649   0.001664
  94   5   9.519236   5.965676   2.532503   0.001467   0.418105   0.003508
  95   5   4.520385   2.973591  -0.595199   0.000821   0.325193   0.002526
  96   5   5.171696   3.346004  -1.268453   0.000594   0.185824   0.003198
  97   5  10.359099   5.320697   2.362484   0.000945   0.278737   0.003389
  98   5  10.625578   4.038215  -0.375246   0.000874   0.418105   0.002091
  99   5  10.253063   0.569710   0.110303   0.001355   0.325193   0.004166
 100   5   9.886854   0.021635   2.640318   0.000100   0.185824   0.000538
 101   5   6.419921   3.952464  -1.838640   0.001477   0.371649   0.003975
 102   5   6.259327   4.574790  -1.503548   0.000857   0.232280   0.003691
 103   5   9.340687  -0.501928   1.878123   0.000428   0.278737   0.001535
 104   5   9.422418  -0.332541   0.618302   0.001860   0.511017   0.003639
 105   5  10.033512   1.477639  -0.988419   0.002083   0.511017   0.004075
 106   5  10.080306   3.100485  -1.280151   0.000921   0.418105   0.002204
 107   5   9.879516   5.303353  -0.192080   0.001179   0.418105   0.002820
 108   5   9.994716   5.766919   1.281396   0.001561   0.371649   0.004201
 109   5   9.599561   5.390424   3.538938   0.001366   0.464561   0.002941
 110   5   9.572852   4.636737   4.263078   0.000450   0.185824   0.002420
 111   5   7.461118  -0.846996   0.783453  -0.000008   0.139368  -0.000056
 112   5   7.919038   3.625116  -2.113382   0.000959   0.371649   0.002580
 113   5   9.023227   3.864416  -1.783453   0.000861   0.464561   0.001853
 114   5   8.936313   5.047731  -1.200457   0.000601   0.325193   0.001849
 115   5   4.374222   2.084325  -0.218901   0.000399   0.185824   0.002148
 116   5   5.105255   4.155768  -0.932802   0.001509   0.464561   0.003248
 117   5  10.061307   4.365330   4.019000   0.000287   0.185824   0.001542
 118   5  10.474649   5.110497   0.585997   0.001064   0.325193   0.003270
 119   5  10.536749   2.411019  -0.783986   0.000762   0.278737   0.002735
 120   5  10.028075  -0.057144   1.406364   0.000437   0.185824   0.002351
 121   5   7.785170   4.653287  -1.742647   0.001216   0.418105   0.002909
 122   5   8.412942  -0.799300   0.974639   0.000743   0.371649   0.001998
 123   5   9.249074   2.558865  -1.823001   0.000733   0.371649   0.001973
 124   6   5.308216   8.731352   7.803167  -0.003107   0.569203  -0.005458
 125   6   5.340917   7.182532   8.360614  -0.001163   0.333671  -0.003486
 126   6   3.671652   7.742013   8.346926  -0.000933   0.353299  -0.002642
 127   6   3.952723   9.482417   6.885484  -0.001202   0.372926  -0.003224
 128   6   5.761275   9.288372   6.078423  -0.000758   0.372926  -0.002032
 129   6   6.726743   7.648741   6.867709  -0.000768   0.353299  -0.002173
 130   6   4.530140   7.481147   8.515132  -0.001477   0.412182  -0.003583
 131   6   3.934384   8.802415   7.879905  -0.001681   0.471065  -0.003569
 132   6   4.899711   9.561356   6.643909  -0.001455   0.431809  -0.003370
 133   6   6.308283   8.674751   6.726290  -0.001609   0.471065  -0.003416
 134   6   6.165554   7.569791   7.789200  -0.001663   0.471065  -0.003531
 135   7   5.116005   8.145697   1.000703  -0.001526   0.274788  -0.005553
 136   7   4.301295   7.501886   0.592556  -0.001093   0.255160  -0.004284
 137   7   6.233859   8.434990   2.468637  -0.000406   0.215905  -0.001879
 138   7   4.705613   8.824901   1.802267  -0.000766   0.274788  -0.002789
 139   7   3.945406   6.737945   0.502118  -0.000827   0.176649  -0.004684
 140   7   5.690883   8.584384   1.846537  -0.001408   0.353299  -0.003987
 141   7   4.228086   8.252880   1.078946  -0.000981   0.235532  -0.004164
 142   8  -1.283536   5.922849   8.242590  -0.002965   0.549575  -0.005395
 143   8  -1.145248   7.737363   7.625540  -0.000709   0.372926  -0.001902
 144   8   0.408651   6.900975   8.395241  -0.001043   0.353299  -0.002953
 145   8  -1.614594   4.438690   7.017637  -0.000691   0.372926  -0.001854
 146   8  -2.423463   6.305350   6.803908  -0.000928   0.412182  -0.002253
 147   8  -0.501089   7.171387   8.295388  -0.001666   0.451437  -0.003690
 148   8   0.106804   5.710666   8.529673  -0.002356   0.490692  -0.004801
 149   8  -0.809552   4.617468   7.909447  -0.002601   0.529948  -0.004908
 150   8  -2.140003   5.329743   7.177167  -0.001665   0.471065  -0.003535
 151   8  -1.902622   7.001463   7.499025  -0.001761   0.490692  -0.003588
 152   9  -1.001466   3.672850   1.228226  -0.002312   0.451437  -0.005120
 153   9   0.209720   4.672548   0.565943  -0.001162   0.431809  -0.002690
 154   9  -1.805370   4.930383   1.451205  -0.000898   0.392554  -0.002289
 155   9  -1.850301   3.477580   3.122431  -0.000642   0.353299  -0.001817
 156   9  -0.815923   2.691408   3.132977  -0.001256   0.392554  -0.003199
 157   9   0.281874   3.591137   0.975621  -0.002442   0.471065  -0.005184
 158   9  -0.904088   4.960041   0.759943  -0.001125   0.431809  -0.002605
 159   9  -2.046409   4.136979   2.141307  -0.001531   0.471065  -0.003251
 160   9  -1.285474   3.082052   2.252151  -0.001572   0.353299  -0.004448
 161   9  -0.215153   2.801520   1.886553  -0.001824   0.353299  -0.005163
 162  10  -0.058503  10.477564   2.787362  -0.003397   0.588831  -0.005770
 163  10  -0.323688   9.008523   1.401459  -0.000731   0.372926  -0.001959
 164  10   1.457037   9.608386   1.820709  -0.001257   0.353299  -0.003558
 165  10   1.366837  10.468149   3.981994  -0.001102   0.353299  -0.003119
 166  10  -0.593289  10.206208   4.558030  -0.000761   0.372926  -0.002039
 167  10  -1.618865   9.367889   2.999254  -0.000955   0.412182  -0.002316
 168  10   0.494554   9.696024   1.626810  -0.002006   0.490692  -0.004088
 169  10   1.396333  10.351815   2.804336  -0.002005   0.490692  -0.004087
 170  10   0.385345  10.592247   4.203048  -0.001691   0.471065  -0.003589
 171  10  -1.146732  10.063186   3.681259  -0.001738   0.471065  -0.003689
 172  10  -1.006891   9.467826   2.074842  -0.001858   0.490692  -0.003787
 173  11   2.659510   1.245786   8.698063  -0.003602   0.510320  -0.007057
 174  11   2.721378   3.161840   8.933095  -0.002221   0.372926  -0.005957
 175  11   4.188373   2.175314   9.118550  -0.001144   0.353299  -0.003239
 176  11   4.043948   0.427899   8.100497  -0.001348   0.274788  -0.004905
 177  11   2.150126   0.447687   7.008431  -0.001289   0.412182  -0.003127
 178  11   1.901341   2.159500   8.524429  -0.003134   0.431809  -0.007259
 179  11   3.318571   2.511182   9.192921  -0.002020   0.392554  -0.005145
 180  11   4.060887   1.138916   8.786961  -0.002520   0.490692  -0.005135
 181  11   3.002986   0.252878   7.736170  -0.002970   0.529948  -0.005605
 182  11   1.517569   1.338663   7.520665  -0.003285   0.569203  -0.005771
 183  12   6.873882  -2.314216   5.068532  -0.004760   0.647714  -0.007349
 184  12   8.509688  -1.292920   4.872308  -0.001640   0.392554  -0.004177
 185  12   7.346944  -1.962370   3.234023  -0.001634   0.333671  -0.004897
 186  12   5.403177  -2.131390   3.915049  -0.001157   0.353299  -0.003274
 187  12   5.312529  -1.572546   5.861900  -0.001454   0.274788  -0.005293
 188  12   7.325892  -0.987819   6.481597  -0.001306   0.412182  -0.003168
 189  12   7.988254  -1.898847   4.086154  -0.002749   0.471065  -0.005835
 190  12   6.399688  -2.308246   3.621441  -0.002520   0.490692  -0.005136
 191  12   5.364943  -2.078028   5.021593  -0.002666   0.510320  -0.005225
 192  12   6.330426  -1.514125   6.317355  -0.003062   0.529948  -0.005779
 193  12   7.955162  -1.448517   5.716898  -0.002538   0.471065  -0.005389
 194  13  12.043597   2.518416   2.350040  -0.003678   0.588831  -0.006246
 195  13  11.325648   1.107054   1.068738  -0.000875   0.372926  -0.002345
 196  13  11.016676   0.918233   2.959629  -0.001120   0.353299  -0.003169
 197  13  11.096540   3.065781   3.854135  -0.001247   0.353299  -0.003529
 198  13  11.445755   4.285753   2.231716  -0.000994   0.372926  -0.002665
 199  13  11.623299   3.111631   0.566098  -0.001182   0.412182  -0.002868
 200  13  11.528643   1.120189   2.141855  -0.002173   0.490692  -0.004428
 201  13  11.364621   1.962992   3.517578  -0.002128   0.490692  -0.004337
 202  13  11.513481   3.658792   3.145553  -0.001974   0.471065  -0.004191
 203  13  11.820095   3.672435   1.470670  -0.001999   0.471065  -0.004244
 204  13  11.770166   2.056170   0.887762  -0.002067   0.490692  -0.004212
 205  14   7.388426   7.008446   0.060890  -0.002348   0.333671  -0.007037
 206  14   6.028829   5.780294  -0.763905  -0.000599   0.157022  -0.003817
 207  14   7.415322   6.200903  -0.875908  -0.001055   0.314043  -0.003360
 208  14   8.657312   6.723813   0.549728  -0.000854   0.274788  -0.003110
 209  14   8.504075   6.827323   1.730018  -0.000892   0.235532  -0.003787
 210  14   6.555662   6.257848  -0.721242  -0.001261   0.294415  -0.004282
 211  14   8.254216   6.487167  -0.337569  -0.001174   0.333671  -0.003518
 212  14   8.151573   7.083738   1.017909  -0.001245   0.215905  -0.005766
 213  15   6.720709   0.369827  -2.088543  -0.003682   0.588831  -0.006253
 214  15   5.932699   2.247113  -2.151536  -0.000955   0.372926  -0.002560
 215  15   5.082822   0.896023  -1.075036  -0.001113   0.353299  -0.003151
 216  15   6.739523  -0.645913  -0.530741  -0.001278   0.353299  -0.003617
 217  15   8.444005   0.096414  -1.417430  -0.000952   0.372926  -0.002552
 218  15   7.956132   1.809525  -2.423213  -0.001209   0.412182  -0.002933
 219  15   5.536027   1.270231  -1.866380  -0.002185   0.490692  -0.004453
 220  15   5.822441  -0.091467  -1.033567  -0.002204   0.490692  -0.004491
 221  15   7.521663  -0.459980  -1.148216  -0.001926   0.471065  -0.004089
 222  15   8.129760   0.777381  -2.147508  -0.002013   0.471065  -0.004273
 223  15   6.848979   1.859094  -2.527092  -0.002079   0.490692  -0.004236
 224   1   3.074560   9.507297   5.812915  -0.000004   0.028110  -0.000149
 225   2   2.579665   9.527699   5.753909   0.000048   0.028110   0.001708
 226   6   3.271099   9.476411   6.042632  -0.000034   0.028110  -0.001227
 227   1   2.744090   9.740391   4.787798   0.000029   0.027017   0.001077
 228   2   2.257605   9.843134   4.748225  -0.000004   0.027017  -0.000148
 229  10   2.063430   9.955760   4.545149  -0.000039   0.027017  -0.001441
 230   2   2.307692   9.732685   5.333112   0.000184   0.137854   0.001333
 231   1   3.033707   9.681388   5.239638   0.000145   0.137854   0.001048
 232   1   7.577568   5.777564   5.308883   0.000461   0.117734   0.003913
 233   3   7.736196   5.321600   5.418081   0.000821   0.117734   0.006976
 234   5   8.228643   5.204369   4.756070   0.000594   0.117734   0.005049
 235   1   6.882101   6.285513   6.675213   0.000057   0.027923   0.002057
 236   3   6.976962   5.809658   6.752305   0.000147   0.027923   0.005272
 237   6   6.768388   6.517724   6.834911  -0.000004   0.027923  -0.000134
 238   1   4.073083   5.852256   8.351071  -0.000017   0.027923  -0.000601
 239   3   4.203497   5.381885   8.406952   0.000018   0.027923   0.000661
 240   6   4.210396   6.123185   8.361008  -0.000043   0.027923  -0.001549
 241   1   2.424364   5.374879   8.109938  -0.000166   0.100066  -0.001661
 242   3   2.564305   4.904309   8.161347  -0.000289   0.100066  -0.002891
 243   8   1.666226   5.442231   8.090238  -0.000178   0.100066  -0.001776
 244   3   7.435094   5.467797   6.168865   0.001003   0.179994   0.005570
 245   1   7.160314   6.149441   6.228869   0.000512   0.179994   0.002846
 246   3   3.694068   4.905503   8.471385  -0.000130   0.217590  -0.000595
 247   1   3.258731   5.494128   8.299561  -0.000140   0.217590  -0.000644
 248   1   7.507145   6.925775   3.412044  -0.000127   0.084144  -0.001504
 249   5   8.243099   6.430188   2.894975  -0.000167   0.084144  -0.001990
 250  14   8.081244   6.608209   2.710747  -0.000377   0.084144  -0.004479
 251   5   8.505272   5.994388   3.650280   0.000695   0.659752   0.001053
 252   1   7.573746   6.549439   4.710961   0.001088   0.659752   0.001649
 253   1   2.476326   7.041380   8.002957   0.000018   0.032032   0.000566
 254   6   2.719576   7.221840   8.021473  -0.000063   0.032032  -0.001962
 255   8   1.720716   6.968005   7.985322   0.000010   0.032032   0.000316
 256   6   6.804914   7.045450   6.726008  -0.000104   0.069282  -0.001495
 257   6   6.740224   7.918622   6.038802  -0.000321   0.153702  -0.002091
 258   6   6.025526   8.941231   5.534184  -0.000239   0.153702  -0.001555
 259   6   4.823287   9.541816   5.605467  -0.000340   0.153702  -0.002209
 260   6   3.802741   9.587581   6.047350  -0.000132   0.069282  -0.001911
 261   1   6.938332   7.111239   6.145853  -0.000159   0.152006  -0.001044
 262   1   6.554638   8.324309   5.329189   0.000058   0.152006   0.000382
 263   1   5.417651   9.287068   5.072167  -0.000016   0.152006  -0.000106
 264   1   3.996605   9.602188   5.480859  -0.000215   0.152006  -0.001415
 265   6   3.320103   7.172927   8.258553  -0.000147   0.070299  -0.002096
 266   6   3.978757   6.612605   8.409581  -0.000146   0.070299  -0.002076
 267   1   3.398625   6.575159   8.249523  -0.000362   0.153782  -0.002357
 268   1   3.365261   8.954756   2.236824  -0.000030   0.039189  -0.000774
 269   7   3.570779   8.828419   2.058389  -0.000107   0.039189  -0.002731
 270  10   2.637988   9.148868   2.247156  -0.000033   0.039189  -0.000833
 271   1   6.937004   7.624757   3.123096  -0.000199   0.060589  -0.003286
 272   7   6.918370   7.628545   2.822286  -0.000355   0.060589  -0.005858
 273  14   7.437896   7.176071   2.436918  -0.000468   0.060589  -0.007717
 274   7   4.211635   8.881936   2.031605  -0.000194   0.066148  -0.002934
 275   7   5.158267   8.936748   2.544330  -0.000323   0.146088  -0.002209
 276   7   6.272984   8.373825   2.923478  -0.000394   0.146088  -0.002697
 277   1   4.353825   9.075262   2.566049  -0.000287   0.145698  -0.001968
 278   1   5.670421   8.863604   3.176100  -0.000043   0.145698  -0.000293
 279   1   6.604511   8.165637   3.412818   0.000042   0.080814   0.000523
 280   8   1.212528   6.165103   8.218418  -0.000733   0.261663  -0.002800
 281   1   2.340245   6.406648   8.148503   0.000320   0.368145   0.000870
 282  10   2.048445  10.074452   4.148526  -0.000287   0.170889  -0.001680
 283  10   2.216170   9.783636   2.944705  -0.001094   0.347317  -0.003150
 284   1   3.182588   9.716466   3.938436   0.000298   0.471147   0.000633
 285   1   3.307629   9.296642   2.585986   0.000266   0.240805   0.001103
 286  14   7.935342   6.955558   2.390350  -0.000418   0.150444  -0.002775
 287   1   7.255222   7.512771   3.507829   0.000325   0.212889   0.001526
 288   2   0.027140   2.617925   4.331984   0.000112   0.068209   0.001644
 289   3   0.706559   2.151783   4.474962   0.000355   0.068209   0.005200
 290   9  -0.043880   2.614041   4.035473  -0.000005   0.068209  -0.000068
 291   2   0.420056   2.651323   5.839290   0.000127   0.061736   0.002056
 292   3   0.987005   2.060208   6.006193   0.000043   0.061736   0.000694
 293  11   1.071433   2.003031   6.290295  -0.000091   0.061736  -0.001469
 294   3   0.869406   1.912829   5.411408   0.000935   0.341106   0.002741
 295   2  -0.018410   2.618178   4.965142   0.000908   0.341106   0.002663
 296   2   2.974627   5.594714   0.874270  -0.000101   0.184433  -0.000548
 297   5   4.211400   4.955530   0.408661  -0.000224   0.184433  -0.001216
 298   7   3.698648   5.685961   0.712905  -0.000695   0.184433  -0.003771
 299   2   2.108268   4.730139   0.992422   0.000069   0.131564   0.000526
 300   5   3.409061   4.117065   0.751572   0.000456   0.131564   0.003462
 301   9   1.872669   4.533731   1.012865  -0.000092   0.131564  -0.000699
 302   5   4.096363   4.182200  -0.065878   0.000623   0.359348   0.001735
 303   2   2.369079   5.250272   0.645240   0.000688   0.359348   0.001915
 304   2   1.708842   7.244045   7.904661   0.000000   0.024622   0.000014
 305   6   2.451466   7.342439   7.927198   0.000024   0.024622   0.000968
 306   8   1.447665   7.112259   7.979792  -0.000065   0.024622  -0.002650
 307   6   3.264416   9.360589   6.511648  -0.000375   0.210296  -0.001782
 308   6   2.983705   8.332388   7.588832  -0.001426   0.432097  -0.003299
 309   2   2.067943   9.051594   6.660713   0.000505   0.574477   0.000879
 310   2   1.825755   7.769616   7.786071   0.000569   0.296259   0.001921
 311   2   2.347901   8.578216   1.615046  -0.000010   0.036296  -0.000275
 312   7   3.070541   8.408131   1.572045  -0.000038   0.036296  -0.001059
 313  10   2.151533   8.792143   1.699915  -0.000076   0.036296  -0.002096
 314   7   3.425163   6.354165   0.687373  -0.000465   0.175380  -0.002649
 315   7   3.455995   7.611711   0.995601  -0.001372   0.357157  -0.003841
 316   2   2.323455   6.818592   0.812965   0.000342   0.482832   0.000709
 317   2   2.402547   8.216372   1.271084   0.000362   0.247279   0.001463
 318   2  -0.015334   3.435615   6.653433   0.000088   0.084808   0.001034
 319   8  -0.113257   3.627393   6.869687  -0.000055   0.084808  -0.000651
 320  11   0.766495   2.860037   6.973983  -0.000039   0.084808  -0.000465
 321   8   0.851677   7.259937   8.088669  -0.000140   0.067429  -0.002072
 322   8   0.043134   7.898676   7.736484  -0.000271   0.148990  -0.001818
 323   8  -1.121571   8.034879   7.134925  -0.000232   0.148990  -0.001555
 324   8  -2.089421   7.365931   6.541011  -0.000203   0.148990  -0.001361
 325   8  -2.477572   6.156442   6.189674  -0.000288   0.148990  -0.001936
 326   8  -2.132484   4.884844   6.219890  -0.000165   0.148990  -0.001105
 327   8  -1.190662   4.054134   6.619706  -0.000288   0.148990  -0.001936
 328   2   0.854731   7.757538   7.769084  -0.000211   0.148492  -0.001419
 329   2  -0.367676   8.363361   7.193367  -0.000023   0.148492  -0.000156
 330   2  -1.629739   8.048079   6.485877   0.000100   0.148492   0.000670
 331   2  -2.432232   6.936404   5.926469  -0.000069   0.148492  -0.000468
 332   2  -2.457717   5.468077   5.736427  -0.000040   0.148492  -0.000269
 333   2  -1.696113   4.223914   5.990924   0.000110   0.148492   0.000744
 334   2  -0.732100   3.659553   6.434534   0.000020   0.082379   0.000239
 335   9  -0.698832   2.818060   3.882541  -0.000062   0.069965  -0.000885
 336   9  -1.613275   3.462034   3.754985  -0.000228   0.155688  -0.001464
 337   9  -2.246698   4.462372   3.085380  -0.000263   0.155688  -0.001686
 338   9  -2.078002   5.342131   2.061741  -0.000304   0.155688  -0.001950
 339   9  -1.178602   5.728884   1.117404  -0.000171   0.155688  -0.001099
 340   9   0.070761   5.458907   0.652135  -0.000234   0.155688  -0.001501
 341   9   1.014229   4.849349   0.726214  -0.000185   0.069965  -0.002649
 342   2  -1.028766   3.137684   4.270936  -0.000022   0.153046  -0.000142
 343   2  -2.098359   4.146080   3.854155   0.000011   0.153046   0.000072
 344   2  -2.374383   5.262761   2.848455  -0.000054   0.153046  -0.000355
 345   2  -1.739989   6.015004   1.679578   0.000054   0.153046   0.000351
 346   2  -0.463734   6.084363   0.842344   0.000089   0.153046   0.000582
 347   2   0.914107   5.441476   0.691178  -0.000142   0.153046  -0.000928
 348  10   1.563329   8.950014   1.512002  -0.000143   0.066859  -0.002137
 349  10   0.579093   8.617830   1.215672  -0.000279   0.147478  -0.001892
 350  10  -0.688111   8.443148   1.488200  -0.000219   0.147478  -0.001483
 351  10  -1.597895   8.600393   2.414567  -0.000253   0.147478  -0.001714
 352  10  -1.796348   9.028396   3.634411  -0.000294   0.147478  -0.001994
 353  10  -1.206271   9.560662   4.673205  -0.000165   0.147478  -0.001122
 354  10  -0.057208   9.990134   5.126852  -0.000229   0.147478  -0.001553
 355  10   1.203850  10.149747   4.818880  -0.000362   0.147478  -0.002457
 356   2   1.379465   8.447533   1.265406  -0.000192   0.147481  -0.001300
 357   2  -0.039005   8.084862   1.138395   0.000077   0.147481   0.000521
 358   2  -1.326271   8.074552   1.847309   0.000107   0.147481   0.000727
 359   2  -1.981578   8.420613   3.116377  -0.000063   0.147481  -0.000428
 360   2  -1.750009   8.988425   4.451923   0.000019   0.147481   0.000131
 361   2  -0.721645   9.557107   5.334412   0.000147   0.147481   0.000998
 362   2   0.703475   9.905437   5.420551  -0.000035   0.147481  -0.000239
 363   2   1.792411   9.959426   4.937882  -0.000038   0.081683  -0.000462
 364  11   1.015848   2.122606   6.891817  -0.000350   0.230665  -0.001518
 365   2  -0.042975   2.932687   6.167693   0.000777   0.328323   0.002368
 366   3   8.004535   4.932672   5.407512   0.000524   0.045623   0.011489
 367   4   8.316413   4.723178   5.196176   0.000431   0.045623   0.009448
 368   5   8.546996   4.850519   4.781509   0.000256   0.045623   0.005613
 369   3   2.090198   1.798345   2.591791   0.001219   0.073990   0.016481
 370   4   2.425205   1.602107   2.405913   0.001277   0.073990   0.017257
 371   9   1.354836   2.418302   2.395356   0.000567   0.073990   0.007664
 372   3   5.166312   0.387585   7.458597  -0.000017   0.012670  -0.001355
 373   4   5.445333   0.180198   7.204698   0.000001   0.012670   0.000069
 374  11   4.911195   0.437615   7.608961  -0.000062   0.012670  -0.004872
 375   3   4.099399  -0.434910   6.087188   0.000005   0.012314   0.000373
 376   4   4.367357  -0.698875   5.877797  -0.000017   0.012314  -0.001358
 377  12   4.592950  -0.891975   5.837127  -0.000073   0.012314  -0.005957
 378   4   3.882836  -0.595264   5.428592   0.000455   0.220763   0.002059
 379   4   3.000791   0.240938   3.464388   0.006182   0.461038   0.013408
 380   3   3.087443   0.005520   4.991874   0.002860   0.461038   0.006203
 381   3   2.369149   1.022262   3.046206   0.003328   0.220763   0.015077
 382   4   8.262167   4.362591   5.790769   0.001862   0.183206   0.010162
 383   4   7.884839   2.812261   6.917297   0.005467   0.374172   0.014612
 384   4   6.576494   0.862279   7.292329   0.001880   0.374172   0.005025
 385   3   7.750403   4.118375   6.579506   0.005217   0.374172   0.013944
 386   3   6.931329   2.133683   7.601739   0.004212   0.374172   0.011256
 387   3   5.666230   0.646334   7.553937   0.000356   0.183206   0.001945
 388   5   8.715449   5.034413   4.647245   0.000116   0.020830   0.005572
 389   3   7.942997   5.134829   5.542979   0.000146   0.020830   0.007003
 390   6   4.674388   6.303822   8.368132  -0.000414   0.216410  -0.001911
 391   6   6.055810   6.492620   7.645854  -0.001524   0.446226  -0.003415
 392   3   5.368525   5.283153   8.215095   0.000687   0.589961   0.001165
 393   3   6.844069   5.532839   7.242010   0.001123   0.305023   0.003681
 394   3   2.554254   4.463954   8.252243  -0.000288   0.089574  -0.003218
 395   8   1.663175   4.989004   8.090576  -0.000129   0.089574  -0.001439
 396  11   2.477424   4.180959   8.330735  -0.000434   0.089574  -0.004841
 397   8   1.244170   5.463304   8.286561  -0.000017   0.016694  -0.001027
 398   3   2.571622   4.681054   8.400648   0.000100   0.023843   0.004213
 399   9   0.487462   2.485142   2.503658  -0.000351   0.267436  -0.001311
 400   9  -0.023658   2.465521   3.537504  -0.000074   0.267436  -0.000276
 401   3   1.332556   1.720544   3.550405   0.004321   0.744775   0.005802
 402   3   3.907849  -0.261240   6.320209  -0.000015   0.030656  -0.000478
 403  11   3.780182  -0.147100   6.566883  -0.000094   0.030656  -0.003061
 404  12   4.439060  -0.646316   6.032314  -0.000056   0.030656  -0.001829
 405  11   1.381564   1.380875   6.458979  -0.000119   0.072355  -0.001641
 406  11   2.172093   0.518148   6.438950  -0.000397   0.162827  -0.002437
 407  11   3.183017   0.007384   6.733551  -0.000240   0.072355  -0.003316
 408   3   1.645010   1.057629   6.012274  -0.000071   0.156544  -0.000451
 409   3   2.895756   0.104016   6.202909  -0.000335   0.156544  -0.002141
 410  11   4.781877   0.689510   8.004739  -0.000223   0.067600  -0.003299
 411  11   4.914663   1.615605   8.580209  -0.000336   0.149852  -0.002243
 412  11   4.453560   2.802034   8.961140  -0.000436   0.149852  -0.002907
 413  11   3.423958   3.631223   8.828091  -0.000669   0.149852  -0.004462
 414   3   5.232916   1.070486   8.044529  -0.000241   0.148371  -0.001627
 415   3   5.133990   2.403437   8.709091  -0.000144   0.148371  -0.000969
 416   3   4.250696   3.597759   8.855969  -0.000250   0.148371  -0.001688
 417   3   3.222796   4.184110   8.592636  -0.000291   0.082589  -0.003529
 418   4   3.338106   2.469075   1.202721   0.001772   0.193489   0.009157
 419   5   3.649518   2.642980   0.856795   0.000765   0.193489   0.003952
 420   9   2.266508   3.241111   1.444420   0.001270   0.193489   0.006565
 421   4   8.960130  -0.547623   3.511578  -0.000069   0.017518  -0.003911
 422   5   9.184893  -0.359556   3.117948  -0.000040   0.017518  -0.002301
 423  12   8.797969  -0.756206   3.653137  -0.000083   0.017518  -0.004761
 424   4   7.374209  -1.233792   2.194816  -0.000071   0.017518  -0.004058
 425   5   7.621024  -1.036184   1.819496  -0.000049   0.017518  -0.002802
 426  12   7.355793  -1.380182   2.455723  -0.000079   0.017518  -0.004502
 427   4   9.676430   3.144606   4.868518   0.000148   0.026681   0.005532
 428   5   9.962846   3.310562   4.505938   0.000043   0.026681   0.001623
 429  13  10.201662   3.219167   4.343384  -0.000030   0.026681  -0.001125
 430   4   9.621195   0.245944   3.674300  -0.000034   0.026681  -0.001274
 431   5   9.906893   0.374237   3.296204  -0.000053   0.026681  -0.001993
 432  13  10.150719   0.545752   3.241965  -0.000090   0.026681  -0.003356
 433   4   6.553147  -0.886676   1.200620  -0.000010   0.025493  -0.000401
 434   5   6.806493  -0.770827   0.796392  -0.000033   0.025493  -0.001305
 435  15   6.765783  -0.709142   0.502677  -0.000061   0.025493  -0.002400
 436   4   4.334642   1.027416   0.506670   0.000097   0.025493   0.003795
 437   5   4.558730   1.168508   0.093290   0.000024   0.025493   0.000924
 438  15   4.719736   1.056156  -0.137328  -0.000040   0.025493  -0.001578
 439   5   9.671781   0.049907   3.159638  -0.000020   0.129649  -0.000154
 440   4   9.228838  -0.276455   3.626075  -0.000098   0.129649  -0.000756
 441   5   7.385741  -0.932615   1.264200  -0.000050   0.183059  -0.000273
 442   4   6.829802  -1.128247   1.708571  -0.000092   0.183059  -0.000503
 443   5   4.273040   1.635898   0.243777   0.000407   0.193459   0.002102
 444   4   3.823084   1.630265   0.833724   0.000908   0.193459   0.004694
 445   5   9.275746   4.279464   4.588809   0.000612   0.303664   0.002017
 446   4   9.111371   3.751581   5.157891   0.001216   0.303664   0.004004
 447   9   1.099779   3.003317   1.570385  -0.000132   0.461561  -0.000285
 448   4   2.652360   1.735497   1.711519   0.005916   0.690073   0.008573
 449   4   5.603293  -0.070868   6.999603  -0.000036   0.030301  -0.001199
 450  11   5.059679   0.248557   7.339834  -0.000046   0.030301  -0.001529
 451  12   5.706724  -0.310006   6.851537  -0.000105   0.030301  -0.003460
 452  11   4.760559   0.421841   7.722297  -0.000035   0.007550  -0.004613
 453   4   5.570432  -0.001300   7.163160   0.000043   0.010683   0.004033
 454  12   8.745756  -0.909939   4.145401  -0.000273   0.067392  -0.004047
 455  12   8.667389  -0.609700   5.197820  -0.000479   0.149414  -0.003203
 456  12   7.923231  -0.423070   6.280875  -0.000321   0.149414  -0.002146
 457  12   6.681581  -0.514494   6.740826  -0.000557   0.149414  -0.003729
 458   4   8.942659  -0.435827   4.437829  -0.000514   0.147879  -0.003478
 459   4   8.534060  -0.094675   5.830722  -0.000099   0.147879  -0.000669
 460   4   7.357436  -0.038264   6.744979  -0.000037   0.147879  -0.000247
 461   4   6.173521  -0.196954   6.944364  -0.000121   0.082334  -0.001473
 462  12   4.699119  -1.245810   5.517617  -0.000239   0.068304  -0.003492
 463  12   4.681585  -1.567051   4.454099  -0.000353   0.151864  -0.002324
 464  12   5.343900  -1.788047   3.306582  -0.000466   0.151864  -0.003068
 465  12   6.567306  -1.727288   2.755330  -0.000694   0.151864  -0.004570
 466   4   4.351577  -1.096688   5.058923  -0.000273   0.149472  -0.001823
 467   4   4.641322  -1.471633   3.626310  -0.000166   0.149472  -0.001113
 468   4   5.760206  -1.566709   2.618354  -0.000285   0.149472  -0.001910
 469   4   6.946054  -1.432419   2.336176  -0.000223   0.083448  -0.002669
 470  13  10.444562   2.812467   4.268397  -0.000474   0.208274  -0.002278
 471  13  10.459146   1.390095   3.759070  -0.001897   0.427995  -0.004433
 472   4   9.749787   2.008776   4.904234   0.000744   0.569013   0.001308
 473   4   9.682068   0.447418   4.191139   0.000256   0.293509   0.000872
 474  15   6.411160  -0.616294   0.222130  -0.000520   0.200262  -0.002599
 475  15   5.296835   0.246785  -0.121103  -0.001526   0.410233  -0.003720
 476   4   5.513867  -0.576681   1.068013   0.000338   0.548316   0.000617
 477   4   4.342331   0.523676   0.696702   0.000873   0.282159   0.003093
 478   5   5.153310   5.218792  -0.243836  -0.000235   0.062887  -0.003731
 479   7   4.705411   5.885041   0.249623  -0.000492   0.062887  -0.007822
 480  14   5.238710   5.502935  -0.189661  -0.000358   0.062887  -0.005685
 481   7   4.189700   5.987958   0.393388  -0.000472   0.146670  -0.003217
 482   5   4.754964   4.897507  -0.268537   0.000164   0.207247   0.000793
 483   9   1.504633   4.025875   0.893708   0.000205   0.404123   0.000507
 484   5   3.668989   3.100141   0.194448   0.001497   0.636913   0.002351
 485  12   7.673393  -1.451082   2.777934  -0.000880   0.213488  -0.004121
 486  12   8.524649  -1.082775   3.484717  -0.000838   0.213488  -0.003926
 487   5   8.592471  -0.745634   2.265362  -0.000855   0.583724  -0.001465
 488  13  10.480975   0.537976   2.821079  -0.000173   0.068178  -0.002543
 489  13  10.668111   0.501319   1.738513  -0.000362   0.150921  -0.002400
 490  13  10.926758   1.134493   0.598049  -0.000336   0.150921  -0.002227
 491  13  11.129146   2.340409   0.075295  -0.000365   0.150921  -0.002421
 492  13  11.193703   3.633034   0.380943  -0.000442   0.150921  -0.002926
 493  13  11.094411   4.491386   1.391804  -0.000309   0.150921  -0.002046
 494  13  10.871288   4.569513   2.700459  -0.000396   0.150921  -0.002623
 495  13  10.614263   3.835929   3.779467  -0.000461   0.150921  -0.003052
 496   5  10.192530   0.267246   2.377421  -0.000307   0.149882  -0.002048
 497   5  10.470540   0.526953   0.932610  -0.000130   0.149882  -0.000865
 498   5  10.743649   1.616397  -0.052651  -0.000029   0.149882  -0.000191
 499   5  10.901782   3.096489  -0.181261  -0.000236   0.149882  -0.001572
 500   5  10.881206   4.370689   0.598616  -0.000166   0.149882  -0.001108
 501   5  10.690213   4.925443   1.972656  -0.000060   0.149882  -0.000398
 502   5  10.405782   4.537162   3.387066  -0.000173   0.149882  -0.001153
 503   5  10.181105   3.684196   4.220125  -0.000046   0.083294  -0.000553
 504  14   8.589643   6.549344   2.220713  -0.000229   0.068075  -0.003357
 505  14   9.027774   6.409999   1.213205  -0.000383   0.151236  -0.002533
 506  14   8.864580   6.093139  -0.077526  -0.000483   0.151236  -0.003192
 507  14   7.940461   5.718834  -0.971349  -0.000517   0.151236  -0.003419
 508  14   6.636731   5.441530  -1.099451  -0.000360   0.151236  -0.002380
 509  14   5.633924   5.352158  -0.638109  -0.000239   0.068075  -0.003509
 510   5   9.067751   6.253897   2.029777  -0.000256   0.149085  -0.001719
 511   5   9.365423   5.989645   0.579132  -0.000227   0.149085  -0.001520
 512   5   8.720516   5.579701  -0.716573  -0.000280   0.149085  -0.001876
 513   5   7.399133   5.193218  -1.322698  -0.000184   0.149085  -0.001234
 514   5   5.946509   4.989668  -0.989141  -0.000161   0.149085  -0.001083
 515  15   4.820399   1.267385  -0.620191  -0.000150   0.069094  -0.002176
 516  15   5.114497   2.123012  -1.269018  -0.000386   0.153391  -0.002516
 517  15   6.069782   2.776050  -1.956685  -0.000368   0.153391  -0.002399
 518  15   7.377786   2.731513  -2.271412  -0.000397   0.153391  -0.002587
 519  15   8.497015   2.007838  -2.082906  -0.000462   0.153391  -0.003009
 520  15   8.964123   0.904617  -1.469206  -0.000322   0.153391  -0.002098
 521  15   8.585732  -0.121431  -0.684375  -0.000381   0.153391  -0.002486
 522  15   7.518493  -0.645537  -0.053324  -0.000508   0.153391  -0.003312
 523   5   4.726357   1.856354  -0.576274  -0.000266   0.151476  -0.001759
 524   5   5.415907   2.884594  -1.444513  -0.000072   0.151476  -0.000472
 525   5   6.758549   3.245572  -2.039159  -0.000049   0.151476  -0.000326
 526   5   8.198447   2.789849  -2.114036  -0.000261   0.151476  -0.001722
 527   5   9.139502   1.706087  -1.638147  -0.000210   0.151476  -0.001385
 528   5   9.192132   0.442950  -0.808502  -0.000029   0.151476  -0.000193
 529   5   8.334547  -0.476642   0.031436  -0.000177   0.151476  -0.001167
 530   5   7.240672  -0.764397   0.511670  -0.000102   0.084414  -0.001206
 531   8   1.356153   7.041182   8.202649   0.000107   0.035690   0.003006
 532   6   2.783388   7.407219   8.184354   0.000127   0.035690   0.003545
 533  10   2.253941   9.247156   1.907524   0.000154   0.229912   0.000670
 534   7   3.524264   8.653435   1.576788   0.000057   0.229912   0.000248
 535  14   5.377316   5.917199  -0.258072  -0.000725   0.195777  -0.003704
 536  14   6.133544   6.762443   0.000856  -0.002838   0.392099  -0.007239
 537  14   7.097796   7.308548   0.888676  -0.002925   0.392099  -0.007459
 538  14   7.700418   7.232892   1.880887  -0.000923   0.195777  -0.004717
 539   7   4.844716   6.817950   0.353033  -0.002486   0.392099  -0.006340
 540   7   5.816568   7.690922   0.909504  -0.002805   0.392099  -0.007153
 541   7   6.669589   7.851470   2.033255  -0.002192   0.392099  -0.005590
 542  11   2.206904   3.902227   8.577900  -0.000148   0.262230  -0.000566
 543  11   1.490022   3.137025   8.249094  -0.001097   0.524074  -0.002093
 544  11   0.972667   2.499781   7.518456  -0.000137   0.262230  -0.000521
 545   8   0.751543   4.793890   8.274961  -0.000402   0.524074  -0.000767
 546   8  -0.018875   3.918475   7.613650   0.000006   0.524074   0.000012
 547  12   5.511751  -0.656697   6.769033  -0.000171   0.254041  -0.000673
 548  12   4.816254  -0.952267   6.211689  -0.000177   0.254041  -0.000695
 549  11   4.250058  -0.019466   7.214542  -0.000917   0.508361  -0.001803
 =====================================================

              2237636  WORDS OF DYNAMIC MEMORY USED
 EXECUTION OF GAMESS TERMINATED NORMALLY Wed Nov 23 21:23:33 2016
 DDI: 263640 bytes (0.3 MB / 0 MWords) used by master data server.

 ----------------------------------------
 CPU timing information for all processes
 ========================================
 0: 874.944 + 0.408 = 875.352
 ----------------------------------------
 ddikick.x: exited gracefully.
