----- GAMESS execution script -----

          ******************************************************
          *         GAMESS VERSION =  5 DEC 2014 (R1)          *
          *             FROM IOWA STATE UNIVERSITY             *
          * M.W.SCHMIDT, K.K.BALDRIDGE, J.A.BOATZ, S.T.ELBERT, *
          *   M.S.GORDON, J.H.JENSEN, S.KOSEKI, N.MATSUNAGA,   *
          *          K.A.NGUYEN, S.J.SU, T.L.WINDUS,           *
          *       TOGETHER WITH M.DUPUIS, J.A.MONTGOMERY       *
          *         J.COMPUT.CHEM.  14, 1347-1363(1993)        *
          **************** 64 BIT LINUX VERSION ****************

 EXECUTION OF GAMESS BEGUN Wed Nov 23 21:00:48 2016

            ECHO OF THE FIRST FEW INPUT CARDS -
 INPUT CARD>! SELECT RESTRICTED HARTREE-FOCK AS DEFAULT                                     
 INPUT CARD>$contrl scftyp=rhf $end                                                         
 INPUT CARD>                                                                                
 INPUT CARD>! THEORY: HF OR DFT                                                             
 INPUT CARD> $contrl mplevl=0 $end                                                          
 INPUT CARD>                                                                                
 INPUT CARD> $system timlim=10000 mwords=20 $end                                            
 INPUT CARD> $SCF DIRSCF=.TRUE. $end                                                        
 INPUT CARD>                                                                                
 INPUT CARD>                                                                                
 INPUT CARD>! BASIS SETS                                                                    
 INPUT CARD>! 6-311G(d,p)                                                                   
 INPUT CARD> $BASIS GBASIS=N311 NGAUSS=6 NDFUNC=1 NPFUNC=1 $END                             
 INPUT CARD>                                                                                
 INPUT CARD>! One of the following                                                          
 INPUT CARD> $guess guess=HUCKEL $end                                                       
 INPUT CARD>                                                                                
 INPUT CARD> $statpt projct=.FALSE. $end                                                    
 INPUT CARD> $STATPT IFREEZ(1)=1,2,3 $END                                                   
 INPUT CARD>                                                                                
 INPUT CARD>! Optimize the geometry with COSMO effects                                      
 INPUT CARD> $statpt opttol=0.0005 nstep=50 $end                                            
 INPUT CARD> $contrl nzvar=1 $end                                                           
 INPUT CARD> $zmat dlc=.t. auto=.t. $end                                                    
 INPUT CARD> $contrl runtyp=OPTIMIZE maxit=200 $end                                         
 INPUT CARD>                                                                                
 INPUT CARD>! Run COSMO on perfect conductor                                                
 INPUT CARD> $COSGMS PRFCND=.TRUE. $end                                                     
 INPUT CARD>                                                                                
 INPUT CARD>! Specifying RSOLV                                                              
 INPUT CARD> $COSGMS COSRAD = 1.4 $end                                                      
 INPUT CARD>                                                                                
 INPUT CARD>! available memory                                                              
 INPUT CARD> $SYSTEM MWORDS=40 $END                                                         
 INPUT CARD>                                                                                
 INPUT CARD> $DATA                                                                          
 INPUT CARD>Cyclohexane, 1,2-dimethyl-, cis-, ID: C2207014                                  
 INPUT CARD>C1                                                                              
 INPUT CARD>C      6.0      2.4904000000    1.0964000000    5.1609000000                    
 INPUT CARD>C      6.0      2.8621000000    1.0486000000    3.6897000000                    
 INPUT CARD>C      6.0      1.6834000000    1.3720000000    2.7500000000                    
 INPUT CARD>C      6.0      4.0474000000    1.9660000000    3.4008000000                    
 INPUT CARD>C      6.0      2.1869000000    1.7755000000    1.3559000000                    
 INPUT CARD>C      6.0      4.6114000000    1.7171000000    2.0069000000                    
 INPUT CARD>C      6.0      3.5540000000    1.1974000000    1.0409000000                    
 INPUT CARD>H      1.0      3.3096000000    0.7160000000    5.7858000000                    
 INPUT CARD>H      1.0      2.2730000000    2.1189000000    5.4994000000                    
 INPUT CARD>H      1.0      1.6044000000    0.4825000000    5.3695000000                    
 INPUT CARD>H      1.0      3.1827000000    0.0000000000    3.4636000000                    
 INPUT CARD>H      1.0      4.8387000000    1.8191000000    4.1614000000                    
   40000000 WORDS OF MEMORY AVAILABLE

     BASIS OPTIONS
     -------------
     GBASIS=N311         IGAUSS=       6      POLAR=POPN311 
     NDFUNC=       1     NFFUNC=       0     DIFFSP=       F
     NPFUNC=       1      DIFFS=       F     BASNAM=        


     RUN TITLE
     ---------
 Cyclohexane, 1,2-dimethyl-, cis-, ID: C2207014                                  

 THE POINT GROUP OF THE MOLECULE IS C1      
 THE ORDER OF THE PRINCIPAL AXIS IS     0

 ATOM      ATOMIC                      COORDINATES (BOHR)
           CHARGE         X                   Y                   Z
 C           6.0     4.7061735998        2.0718955729        9.7526868500
 C           6.0     5.4085847495        1.9815666707        6.9725219769
 C           6.0     3.1811647277        2.5927040552        5.1967464662
 C           6.0     7.6484769627        3.7152012919        6.4265801390
 C           6.0     4.1326417625        3.3552084912        2.5622794668
 C           6.0     8.7142824198        3.2448484935        3.7924910848
 C           6.0     6.7160861604        2.2627578977        1.9670157806
 H           1.0     6.2542371290        1.3530438072       10.9335766198
 H           1.0     4.2953471701        4.0041403954       10.3923590969
 H           1.0     3.0318763747        0.9117927891       10.1468836911
 H           1.0     6.0144309011        0.0000000000        6.5452549311
 H           1.0     9.1438171368        3.4376005443        7.8639057253
 H           1.0     7.0445205370        5.7122637157        6.6238675322
 H           1.0     4.2271280619        5.4443005706        2.4078888536
 H           1.0     2.7457718602        2.7503072025        1.1173949765
 H           1.0    10.2963610167        1.8783876318        3.8847097130
 H           1.0     9.5527538405        5.0166555796        3.0598443193
 H           1.0     7.2552249847        2.7298981619        0.0000000000
 H           1.0     6.6316154087        0.1708312293        2.0380694778
 C           6.0     1.4367586685        4.6475920942        6.1941438426
 H           1.0     2.0435496831        0.8224087499        5.0117422920
 H           1.0     0.0000000000        5.1489363987        4.7827075023
 H           1.0     0.4306685526        4.0413679973        7.9051017518
 H           1.0     2.4768638521        6.3821715783        6.6667643121

          INTERNUCLEAR DISTANCES (ANGS.)




     $CONTRL OPTIONS
     ---------------
 SCFTYP=RHF          RUNTYP=OPTIMIZE     EXETYP=RUN     
 MPLEVL=       0     CITYP =NONE         CCTYP =NONE         VBTYP =NONE    
 DFTTYP=NONE         TDDFT =NONE    
 MULT  =       1     ICHARG=       0     NZVAR =       1     COORD =UNIQUE  
 PP    =NONE         RELWFN=NONE         LOCAL =NONE         NUMGRD=       F
 ISPHER=      -1     NOSYM =       0     MAXIT =     200     UNITS =ANGS    
 PLTORB=       F     MOLPLT=       F     AIMPAC=       F     FRIEND=        
 NPRINT=       7     IREST =       0     GEOM  =INPUT   
 NORMF =       0     NORMP =       0     ITOL  =      20     ICUT  =       9
 INTTYP=BEST         GRDTYP=BEST         QMTTOL= 1.0E-06

     $SYSTEM OPTIONS
     ---------------
  REPLICATED MEMORY=    40000000 WORDS (ON EVERY NODE).
 DISTRIBUTED MEMDDI=           0 MILLION WORDS IN AGGREGATE,
 MEMDDI DISTRIBUTED OVER   1 PROCESSORS IS           0 WORDS/PROCESSOR.
 TOTAL MEMORY REQUESTED ON EACH PROCESSOR=    40000000 WORDS.
 TIMLIM=       10000.00 MINUTES, OR       6.9 DAYS.
 PARALL= F  BALTYP=  DLB     KDIAG=    0  COREFL= F
 MXSEQ2=     300 MXSEQ3=     150  mem10=         0

     $COSGMS OPTIONS
     ---------------
     EPSI  =   INFTY     NSPA  =      92     COSRAD=    1.40
     DISEX =   10.00     OUTCHG=DBLCAV       COSBUG=       F
     COSWRT=       F     DCOSMO=       F

     SYMMETRY COORDINATES WILL NOT BE USED FOR 
     THE COSMO CALCULATION, EVEN IF SPECIFIED:
         -- SWITCHING TO C1 POINT GROUP --


     DEFINITION OF CAVITY
     ---------------------------
     ATOM         COORDINATES           RADIUS 
     1    4.7062    2.0719    9.7527    2.0000
     2    5.4086    1.9816    6.9725    2.0000
     3    3.1812    2.5927    5.1967    2.0000
     4    7.6485    3.7152    6.4266    2.0000
     5    4.1326    3.3552    2.5623    2.0000
     6    8.7143    3.2448    3.7925    2.0000
     7    6.7161    2.2628    1.9670    2.0000
     8    6.2542    1.3530   10.9336    1.3000
     9    4.2953    4.0041   10.3924    1.3000
    10    3.0319    0.9118   10.1469    1.3000
    11    6.0144    0.0000    6.5453    1.3000
    12    9.1438    3.4376    7.8639    1.3000
    13    7.0445    5.7123    6.6239    1.3000
    14    4.2271    5.4443    2.4079    1.3000
    15    2.7458    2.7503    1.1174    1.3000
    16   10.2964    1.8784    3.8847    1.3000
    17    9.5528    5.0167    3.0598    1.3000
    18    7.2552    2.7299    0.0000    1.3000
    19    6.6316    0.1708    2.0381    1.3000
    20    1.4368    4.6476    6.1941    2.0000
    21    2.0435    0.8224    5.0117    1.3000
    22    0.0000    5.1489    4.7827    1.3000
    23    0.4307    4.0414    7.9051    1.3000
    24    2.4769    6.3822    6.6668    1.3000

          ----------------
          PROPERTIES INPUT
          ----------------

     MOMENTS            FIELD           POTENTIAL          DENSITY
 IEMOM =       1   IEFLD =       0   IEPOT =       0   IEDEN =       0
 WHERE =COMASS     WHERE =NUCLEI     WHERE =NUCLEI     WHERE =NUCLEI  
 OUTPUT=BOTH       OUTPUT=BOTH       OUTPUT=BOTH       OUTPUT=BOTH    
 IEMINT=       0   IEFINT=       0                     IEDINT=       0
                                                       MORB  =       0
          EXTRAPOLATION IN EFFECT
          SOSCF IN EFFECT
 ORBITAL PRINTING OPTION: NPREO=     1   248     2     1

     -------------------------------
     INTEGRAL TRANSFORMATION OPTIONS
     -------------------------------
     NWORD  =            0
     CUTOFF = 1.0E-09     MPTRAN =       0
     DIRTRF =       T     AOINTS =DUP     

          ----------------------
          INTEGRAL INPUT OPTIONS
          ----------------------
 NOPK  =       1 NORDER=       0 SCHWRZ=       T


 -----------------------------------------------
  STATISTICS ON AUTOMATIC COORDINATE GENERATION 
 -----------------------------------------------
  NUMBER OF USER SPECIFIED BONDS                             0
  NUMBER OF BONDS                                           24
  NUMBER OF ANGLES                                          48
  NUMBER OF TORSIONS                                        72
  NUMBER OF EXTRA COORD.                                     0
  NUMBER OF EXTRA COORD. FOR CONSTRAINTS                     0
  NUMBER OF CONSTRAINED COORD.                               0

  TOTAL NUMBER OF PRIMITIVES                               144
 -----------------------------------------------

   --- ENCODED Z MATRIX ---
 COORD  TYPE   I   J   K   L   M   N
    1      1    1   9
    2      1    1   2
    3      1    1   8
    4      1    1  10
    5      1    2   3
    6      1    2   4
    7      1    2  11
    8      1    3  20
    9      1    3   5
   10      1    3  21
   11      1    4  13
   12      1    4  12
   13      1    4   6
   14      1    5  15
   15      1    5  14
   16      1    5   7
   17      1    6   7
   18      1    6  17
   19      1    6  16
   20      1    7  19
   21      1    7  18
   22      1   20  24
   23      1   20  23
   24      1   20  22
   25      2    1   2  11
   26      2    1   2   4
   27      2    1   2   3
   28      2    2   1   8
   29      2    2   1  10
   30      2    2   3   5
   31      2    2   4   6
   32      2    2   1   9
   33      2    2   4  12
   34      2    2   3  21
   35      2    2   4  13
   36      2    2   3  20
   37      2    3   2  11
   38      2    3  20  22
   39      2    3   5  14
   40      2    3   5  15
   41      2    3  20  24
   42      2    3  20  23
   43      2    3   2   4
   44      2    3   5   7
   45      2    4   6   7
   46      2    4   2  11
   47      2    4   6  16
   48      2    4   6  17
   49      2    5   3  21
   50      2    5   3  20
   51      2    5   7   6
   52      2    5   7  18
   53      2    5   7  19
   54      2    6   4  12
   55      2    6   4  13
   56      2    6   7  19
   57      2    6   7  18
   58      2    7   6  16
   59      2    7   6  17
   60      2    7   5  14
   61      2    7   5  15
   62      2    8   1   9
   63      2    8   1  10
   64      2    9   1  10
   65      2   12   4  13
   66      2   14   5  15
   67      2   16   6  17
   68      2   18   7  19
   69      2   20   3  21
   70      2   22  20  23
   71      2   22  20  24
   72      2   23  20  24
   73      3    1   2   3  21
   74      3    1   2   4  13
   75      3    1   2   3   5
   76      3    1   2   3  20
   77      3    1   2   4  12
   78      3    1   2   4   6
   79      3    2   4   6   7
   80      3    2   3   5   7
   81      3    2   3   5  14
   82      3    2   3  20  22
   83      3    2   3  20  23
   84      3    2   3   5  15
   85      3    2   3  20  24
   86      3    2   4   6  16
   87      3    2   4   6  17
   88      3    3   2   4   6
   89      3    3   2   1  10
   90      3    3   2   1   8
   91      3    3   2   4  13
   92      3    3   2   1   9
   93      3    3   5   7  18
   94      3    3   5   7  19
   95      3    3   5   7   6
   96      3    3   2   4  12
   97      3    4   2   1  10
   98      3    4   2   3  20
   99      3    4   2   3   5
  100      3    4   2   1   8
  101      3    4   6   7  18
  102      3    4   6   7  19
  103      3    4   6   7   5
  104      3    4   2   3  21
  105      3    4   2   1   9
  106      3    5   3  20  22
  107      3    5   7   6  16
  108      3    5   7   6  17
  109      3    5   3   2  11
  110      3    5   3  20  23
  111      3    5   3  20  24
  112      3    6   4   2  11
  113      3    6   7   5  14
  114      3    6   7   5  15
  115      3    7   6   4  12
  116      3    7   6   4  13
  117      3    7   5   3  21
  118      3    7   5   3  20
  119      3    8   1   2  11
  120      3    9   1   2  11
  121      3   10   1   2  11
  122      3   11   2   3  20
  123      3   11   2   4  13
  124      3   11   2   3  21
  125      3   11   2   4  12
  126      3   12   4   6  17
  127      3   12   4   6  16
  128      3   13   4   6  17
  129      3   13   4   6  16
  130      3   14   5   3  21
  131      3   14   5   3  20
  132      3   14   5   7  19
  133      3   14   5   7  18
  134      3   15   5   3  21
  135      3   15   5   3  20
  136      3   15   5   7  19
  137      3   15   5   7  18
  138      3   16   6   7  19
  139      3   16   6   7  18
  140      3   17   6   7  19
  141      3   17   6   7  18
  142      3   21   3  20  22
  143      3   21   3  20  23
  144      3   21   3  20  24

          INDEP./SYM. INTERNAL COORDINATES
          --------------------------------
 CRD  1=   0.3241 (  5) -0.2686 ( 26)  0.3565 ( 27) -0.1099 ( 28)  0.1036 ( 29)
           0.3892 ( 36) -0.1173 ( 37) -0.1192 ( 38)  0.1065 ( 42)  0.1139 ( 49)
          -0.3009 ( 50) -0.1269 ( 74) -0.1184 ( 75) -0.1468 ( 77) -0.1636 ( 78)
          -0.1019 ( 81)  0.1206 ( 91)  0.1007 ( 96)  0.1387 ( 98)  0.1540 (118)
           0.1011 (122)  0.1364 (131)  0.1549 (135)
 CRD  2=   0.1837 (  2) -0.1063 (  5) -0.1178 (  8)  0.1050 ( 13) -0.1560 ( 25)
           0.1798 ( 26)  0.1237 ( 27)  0.1886 ( 30)  0.1809 ( 31) -0.1029 ( 35)
          -0.1822 ( 41)  0.1187 ( 42) -0.3394 ( 43)  0.1307 ( 44)  0.1203 ( 46)
          -0.2014 ( 50) -0.2506 ( 51)  0.1338 ( 53)  0.1014 ( 57)  0.1821 ( 69)
           0.1061 ( 73)  0.2534 ( 76)  0.1124 ( 89)  0.1090 ( 92) -0.1021 ( 97)
           0.1888 ( 98) -0.1405 (100) -0.1054 (105) -0.1384 (118)  0.1821 (122)
 CRD  3=  -0.2855 (  6)  0.1776 (  9) -0.3077 ( 26)  0.2852 ( 27) -0.1538 ( 28)
           0.1801 ( 29)  0.1089 ( 34) -0.2590 ( 36)  0.1517 ( 38)  0.1009 ( 45)
           0.1141 ( 46)  0.2057 ( 50) -0.1826 ( 51) -0.1567 ( 73) -0.1531 ( 75)
          -0.2163 ( 76) -0.1240 ( 77) -0.1686 ( 78)  0.1069 ( 90) -0.1850 (118)
          -0.1308 (135)
 CRD  4=  -0.1424 (  2)  0.1106 (  5)  0.1056 (  8) -0.1009 (  9) -0.1349 ( 13)
          -0.1553 ( 25) -0.1593 ( 28) -0.1584 ( 29) -0.2620 ( 31)  0.2142 ( 32)
           0.1019 ( 33)  0.1687 ( 39) -0.2228 ( 44) -0.1657 ( 47) -0.1289 ( 49)
           0.1767 ( 55)  0.1403 ( 73) -0.1423 ( 74)  0.2730 ( 75)  0.1912 ( 76)
          -0.1136 ( 77) -0.2522 ( 78) -0.1404 ( 88) -0.1188 ( 95)  0.1073 ( 97)
           0.1723 ( 99)  0.1161 (101)  0.1196 (102)  0.1335 (103)  0.1430 (109)
          -0.1030 (112)
 CRD  5=   0.2730 (  2)  0.1820 (  5)  0.2217 (  6)  0.3731 (  8)  0.3239 (  9)
           0.1511 ( 13)  0.1316 ( 16)  0.1540 ( 26) -0.1454 ( 30)  0.1412 ( 31)
           0.1519 ( 32)  0.1132 ( 38)  0.1737 ( 41) -0.1137 ( 43)  0.2059 ( 44)
           0.2237 ( 50) -0.1185 ( 51) -0.1248 ( 54) -0.1247 ( 60) -0.1138 ( 69)
          -0.1108 ( 71)  0.1421 ( 75) -0.1787 ( 98) -0.1149 (122)
 CRD  6=  -0.4450 (  2) -0.2045 (  5)  0.3354 (  8) -0.1292 (  9) -0.1162 ( 13)
           0.1339 ( 16) -0.1045 ( 27) -0.1193 ( 29) -0.1503 ( 30)  0.1637 ( 31)
          -0.1277 ( 32) -0.1600 ( 35)  0.1220 ( 36) -0.1210 ( 40)  0.2039 ( 42)
           0.1834 ( 44) -0.1369 ( 45)  0.1138 ( 59) -0.1062 ( 60)  0.1241 ( 62)
           0.1097 ( 63)  0.1227 ( 64) -0.1066 ( 70) -0.1043 ( 72) -0.1246 ( 79)
          -0.1397 ( 80) -0.1015 ( 96)  0.1260 ( 98)
 CRD  7=   0.1307 (  2)  0.1895 (  5)  0.1837 (  8)  0.1674 (  9)  0.1759 ( 14)
           0.2322 ( 16)  0.3659 ( 17)  0.2594 ( 38) -0.2495 ( 41)  0.1374 ( 42)
           0.1232 ( 43) -0.1517 ( 44)  0.1615 ( 51) -0.1546 ( 56)  0.1261 ( 59)
           0.1317 ( 69) -0.1399 ( 70) -0.1253 ( 80)  0.1227 ( 83)  0.1587 ( 95)
           0.1061 (113) -0.1920 (118) -0.1397 (131) -0.1094 (135)
 CRD  8=   0.1091 (  2) -0.1833 (  5)  0.2964 (  6) -0.2993 (  8) -0.1802 (  9)
           0.1018 ( 18) -0.2840 ( 28)  0.1590 ( 29)  0.1133 ( 31)  0.2114 ( 32)
          -0.1005 ( 37) -0.1617 ( 40) -0.1281 ( 41) -0.1675 ( 42) -0.2384 ( 45)
           0.1689 ( 51) -0.1324 ( 54) -0.1098 ( 56)  0.1318 ( 59)  0.1319 ( 61)
          -0.1520 ( 64)  0.1354 ( 72) -0.1063 ( 80) -0.1096 ( 90) -0.1276 ( 92)
          -0.1071 ( 94)
 CRD  9=   0.2431 (  5)  0.2496 (  6) -0.1731 (  9) -0.1759 ( 13) -0.1627 ( 17)
          -0.1068 ( 21)  0.1986 ( 28)  0.2077 ( 29) -0.3537 ( 32)  0.1076 ( 33)
           0.2580 ( 38) -0.2933 ( 41)  0.1130 ( 42) -0.1418 ( 57) -0.1572 ( 63)
          -0.1486 ( 70) -0.1491 ( 82) -0.1245 ( 85)  0.1110 ( 90) -0.1318 ( 95)
          -0.1135 (113)  0.1024 (115)
 CRD 10=  -0.2145 (  9)  0.1016 ( 12)  0.2071 ( 13) -0.2283 ( 16)  0.1860 ( 17)
           0.1860 ( 28) -0.2172 ( 32) -0.1101 ( 35)  0.1336 ( 39) -0.1276 ( 40)
           0.2580 ( 41) -0.2925 ( 42) -0.1251 ( 49) -0.2079 ( 52)  0.1048 ( 55)
           0.1895 ( 57) -0.1359 ( 60) -0.1414 ( 71) -0.1344 ( 79) -0.1297 ( 93)
           0.1454 ( 99)  0.1184 (103)  0.1032 (107) -0.1118 (110) -0.1184 (111)
 CRD 11=  -0.1345 (  2)  0.1116 ( 12)  0.2577 ( 13) -0.1069 ( 15) -0.3471 ( 16)
          -0.2135 ( 28) -0.1035 ( 29) -0.1017 ( 30) -0.1465 ( 31)  0.1971 ( 32)
           0.1903 ( 38) -0.2800 ( 41)  0.1924 ( 44)  0.1816 ( 47)  0.1589 ( 54)
          -0.2176 ( 58) -0.1872 ( 61)  0.1435 ( 63) -0.1187 ( 70)  0.1083 ( 88)
          -0.1309 (101)
 CRD 12=  -0.3690 ( 13) -0.1383 ( 16) -0.3794 ( 17) -0.1646 ( 19)  0.2288 ( 28)
          -0.2015 ( 29)  0.1029 ( 33) -0.1260 ( 37)  0.1032 ( 40) -0.1046 ( 42)
           0.1588 ( 45) -0.1098 ( 48)  0.1452 ( 53) -0.1800 ( 56) -0.1530 ( 58)
          -0.1196 ( 62)  0.1043 ( 67)  0.1127 ( 77) -0.1020 ( 79) -0.1299 ( 80)
          -0.1163 ( 84) -0.1206 ( 89) -0.1190 ( 90)  0.1090 ( 93)  0.1402 ( 96)
 CRD 13=   0.1036 (  4) -0.1699 (  5)  0.2025 (  6)  0.3120 (  9)  0.1233 ( 13)
          -0.1306 ( 16)  0.1194 ( 23) -0.1246 ( 24)  0.3011 ( 29) -0.2324 ( 32)
          -0.3737 ( 38)  0.1663 ( 39)  0.3648 ( 42)  0.1470 ( 62)  0.1711 ( 71)
          -0.1593 ( 72)
 CRD 14=  -0.1078 (  2)  0.1105 (  5)  0.3334 (  6) -0.1617 (  8)  0.1349 ( 12)
          -0.1798 ( 13)  0.2018 ( 16)  0.2947 ( 17)  0.1243 ( 20)  0.1274 ( 21)
          -0.1251 ( 31)  0.2376 ( 33) -0.1060 ( 38)  0.1037 ( 44)  0.2463 ( 45)
          -0.1376 ( 47) -0.2187 ( 48) -0.2369 ( 51)  0.1030 ( 56) -0.1188 ( 68)
          -0.1382 ( 86)  0.1285 (126) -0.1390 (129)
 CRD 15=  -0.1344 (  4)  0.1009 (  5) -0.1919 (  8)  0.1500 (  9) -0.1056 ( 16)
           0.1670 ( 17) -0.1006 ( 22)  0.2943 ( 28) -0.4003 ( 29) -0.1007 ( 30)
           0.1197 ( 31) -0.1265 ( 35) -0.1436 ( 38)  0.1522 ( 39) -0.2346 ( 41)
           0.2011 ( 42) -0.1635 ( 45)  0.1062 ( 48)  0.1551 ( 58) -0.1438 ( 60)
          -0.1761 ( 62)  0.1400 ( 64) -0.1178 ( 69)  0.1885 ( 71) -0.1007 ( 93)
 CRD 16=  -0.1097 (  8)  0.3701 ( 13)  0.3891 ( 16) -0.2720 ( 17)  0.1480 ( 28)
          -0.1344 ( 29) -0.1175 ( 31) -0.1099 ( 35) -0.1035 ( 41)  0.1488 ( 48)
           0.1771 ( 52)  0.1250 ( 53)  0.1912 ( 55) -0.1336 ( 57) -0.1412 ( 58)
          -0.1755 ( 59)  0.1190 ( 61) -0.1190 ( 87)  0.1207 (101) -0.1075 (108)
          -0.1066 (126)  0.1108 (129) -0.1095 (132)  0.1068 (137)  0.1564 (139)
          -0.1735 (140)
 CRD 17=   0.2201 (  2) -0.1548 (  6) -0.2507 (  9) -0.1231 ( 13)  0.1151 ( 25)
           0.1520 ( 32)  0.1419 ( 34) -0.2556 ( 38) -0.1588 ( 40)  0.2998 ( 42)
          -0.1239 ( 46) -0.1466 ( 48) -0.1742 ( 49)  0.1490 ( 53) -0.1462 ( 56)
          -0.1311 ( 58)  0.1387 ( 59)  0.1355 ( 61) -0.1047 ( 62) -0.1041 ( 64)
          -0.1650 ( 72) -0.1416 ( 73) -0.1413 ( 82) -0.1372 ( 83) -0.1088 ( 85)
          -0.1240 (104) -0.1361 (106)  0.1244 (109) -0.1320 (110) -0.1036 (111)
           0.1120 (114)
 CRD 18=  -0.2891 (  2)  0.2433 (  5)  0.1001 (  6) -0.1369 (  8)  0.1781 (  9)
           0.1032 ( 14) -0.1768 ( 25) -0.1263 ( 32) -0.1690 ( 33)  0.1768 ( 35)
           0.1635 ( 37)  0.1507 ( 39) -0.1265 ( 42) -0.1012 ( 43)  0.1097 ( 47)
           0.1396 ( 53)  0.1270 ( 54) -0.2270 ( 55) -0.1868 ( 56) -0.1031 ( 58)
          -0.1399 ( 60)  0.1415 ( 61)  0.1134 ( 62)  0.1310 ( 64) -0.1123 ( 74)
           0.1107 ( 86)  0.1103 ( 89) -0.1006 (109)  0.1712 (112) -0.1513 (117)
 CRD 19=   0.1966 (  6)  0.1261 (  8)  0.1657 ( 10)  0.1661 ( 14) -0.1744 ( 15)
           0.1268 ( 22) -0.1251 ( 24)  0.1052 ( 27) -0.2111 ( 29) -0.1389 ( 36)
          -0.1652 ( 38) -0.1507 ( 39)  0.1328 ( 40)  0.2674 ( 41)  0.1151 ( 46)
           0.1181 ( 51) -0.1428 ( 53) -0.1757 ( 57)  0.1143 ( 69) -0.1740 ( 72)
          -0.1209 ( 73)  0.1400 ( 93)  0.1144 ( 94) -0.1074 (109) -0.1102 (113)
          -0.1792 (118) -0.1479 (124) -0.1665 (131) -0.1529 (135)
 CRD 20=   0.1575 (  1) -0.1444 (  3)  0.2003 (  5)  0.1524 (  7) -0.2623 ( 11)
           0.2080 ( 12) -0.1075 ( 27) -0.2891 ( 28)  0.2208 ( 32)  0.1904 ( 33)
          -0.2122 ( 35)  0.1121 ( 48) -0.1077 ( 52)  0.1411 ( 58) -0.1975 ( 59)
           0.1652 ( 63) -0.1374 ( 64)  0.1423 ( 74)  0.1476 ( 77)  0.1905 ( 78)
          -0.1803 ( 86) -0.2091 ( 87)  0.1001 (103)  0.1222 (112)  0.1463 (115)
           0.1597 (116)
 CRD 21=  -0.2554 ( 10)  0.1861 ( 15)  0.1073 ( 21) -0.1304 ( 22)  0.1389 ( 30)
           0.1330 ( 38) -0.1261 ( 41)  0.1303 ( 42) -0.1292 ( 55) -0.1069 ( 56)
           0.1782 ( 57)  0.1729 ( 60) -0.1571 ( 70) -0.1168 ( 73) -0.1095 ( 76)
          -0.1252 ( 81) -0.1148 ( 89) -0.1131 ( 90) -0.1186 ( 92) -0.1138 ( 93)
          -0.1513 ( 97) -0.1504 ( 98) -0.1496 (100) -0.1577 (104) -0.1551 (105)
          -0.1459 (106) -0.1679 (110) -0.1665 (111)  0.1031 (114)  0.1244 (117)
           0.1233 (118) -0.1687 (122) -0.1760 (124)
 CRD 22=  -0.2902 (  7) -0.1421 ( 10) -0.1105 ( 18)  0.2469 ( 19)  0.2172 ( 20)
          -0.1953 ( 21) -0.1247 ( 32)  0.1211 ( 33) -0.1329 ( 35) -0.1583 ( 39)
           0.2281 ( 40)  0.1819 ( 47) -0.1261 ( 48) -0.1640 ( 52)  0.1261 ( 53)
          -0.1568 ( 54)  0.1151 ( 55)  0.1737 ( 60) -0.1910 ( 61) -0.1544 (101)
          -0.1491 (102)  0.1783 (107)  0.1544 (108) -0.1066 (113) -0.1522 (114)
 CRD 23=  -0.3804 (  7) -0.1910 ( 10) -0.2276 ( 11) -0.2755 ( 15) -0.1182 ( 19)
          -0.2774 ( 20)  0.2108 ( 21) -0.1185 ( 32) -0.1479 ( 47)  0.1094 ( 48)
           0.1276 ( 52) -0.1290 ( 53)  0.1133 ( 75)  0.1054 ( 91)  0.1167 ( 95)
           0.1267 ( 96)  0.1098 ( 97)  0.1131 (101)  0.1134 (102)  0.1081 (105)
          -0.1694 (107) -0.1467 (108)  0.1106 (114)
 CRD 24=  -0.2010 ( 10) -0.2223 ( 11)  0.4106 ( 18) -0.3621 ( 19)  0.3706 ( 20)
          -0.1967 ( 21) -0.1325 ( 33)  0.1245 ( 54) -0.1222 ( 55)  0.1386 ( 56)
          -0.1291 ( 57) -0.1277 ( 79)  0.1552 (101)  0.1169 (102)  0.1610 (103)
          -0.1214 (113) -0.1381 (114) -0.1778 (115) -0.1359 (116)
 CRD 25=   0.2329 (  1)  0.1602 (  3)  0.1691 (  4) -0.1171 (  5) -0.1294 (  7)
           0.1178 (  9)  0.3594 ( 10) -0.1671 ( 14)  0.2988 ( 15)  0.1778 ( 18)
          -0.1398 ( 19) -0.1590 ( 23) -0.1170 ( 24) -0.1389 ( 29) -0.1378 ( 54)
           0.1164 ( 63)  0.1173 ( 64) -0.1118 ( 71)  0.1152 ( 77) -0.1030 ( 82)
           0.1337 ( 91) -0.1080 ( 93)  0.1625 ( 96)
 CRD 26=   0.1482 (  1)  0.1497 (  3)  0.1597 (  4) -0.1073 (  8) -0.2514 ( 10)
           0.1653 ( 14) -0.1571 ( 15) -0.1027 ( 21) -0.4340 ( 22) -0.3268 ( 23)
          -0.3291 ( 24)  0.1447 ( 38)  0.1098 ( 41)  0.1754 ( 42) -0.1023 ( 57)
           0.1146 ( 61) -0.1848 ( 70) -0.1261 ( 71) -0.1502 ( 72)  0.1035 ( 93)
           0.1061 (131)  0.1116 (135)
 CRD 27=  -0.3863 (  1) -0.1245 (  2) -0.2918 (  3) -0.3124 (  4) -0.3672 (  7)
           0.2296 ( 10) -0.1682 ( 11)  0.1129 ( 12) -0.2155 ( 22) -0.2559 ( 23)
          -0.2537 ( 24)  0.1418 ( 28)  0.1260 ( 29)  0.1087 ( 41) -0.1200 ( 62)
          -0.1526 ( 63) -0.1076 ( 64) -0.1052 ( 72)
 CRD 28=   0.2041 (  1)  0.1586 (  2)  0.3215 (  3)  0.2793 (  4) -0.2896 (  7)
          -0.1032 (  9)  0.2898 ( 10) -0.1913 ( 11)  0.1407 ( 12) -0.1075 ( 14)
          -0.1077 ( 32)  0.1384 ( 54) -0.1117 ( 55) -0.1145 ( 59) -0.1281 ( 74)
          -0.1337 ( 77) -0.1100 ( 86) -0.1220 ( 87) -0.1006 ( 96)  0.1302 (106)
           0.1372 (110)  0.1230 (111) -0.1243 (123) -0.1298 (125) -0.1112 (126)
           0.1077 (142)  0.1147 (143)  0.1006 (144)
 CRD 29=   0.3537 (  7) -0.1724 (  8) -0.1711 ( 10)  0.1150 ( 11)  0.1135 ( 21)
          -0.1552 ( 22) -0.2095 ( 23) -0.2243 ( 24) -0.1429 ( 39)  0.1161 ( 40)
          -0.1067 ( 47) -0.1253 ( 56)  0.1167 ( 57)  0.1092 ( 60) -0.1653 ( 61)
          -0.1323 ( 81) -0.1466 ( 84)  0.1083 (104) -0.1592 (130) -0.1028 (131)
          -0.1494 (132) -0.1434 (133) -0.1735 (134) -0.1171 (135) -0.1502 (136)
          -0.1441 (137) -0.1247 (138) -0.1167 (139) -0.1178 (140) -0.1098 (141)
 CRD 30=  -0.1410 (  3)  0.1863 (  4) -0.2436 (  5)  0.1045 (  6) -0.1235 (  7)
          -0.2159 ( 10)  0.2405 ( 12)  0.2689 ( 14) -0.1908 ( 21)  0.1888 ( 23)
          -0.1640 ( 62)  0.1392 ( 64) -0.1092 ( 71)  0.1652 ( 89)  0.1781 ( 90)
           0.1776 ( 97)  0.1906 (100)  0.2184 (119)  0.2054 (121) -0.1141 (123)
           0.1165 (130) -0.1196 (142)
 CRD 31=  -0.2376 (  3)  0.3023 (  4)  0.1216 ( 12) -0.2247 ( 14) -0.1535 ( 22)
          -0.2858 ( 23)  0.4581 ( 24) -0.1818 ( 62)  0.1423 ( 64)  0.1779 ( 71)
          -0.2672 ( 72)  0.1785 ( 83)  0.1140 ( 90)  0.1070 (100)  0.1654 (110)
          -0.1090 (111)  0.1102 (119)  0.1589 (143) -0.1155 (144)
 CRD 32=  -0.5485 (  1)  0.2997 (  3)  0.2896 (  4)  0.1455 ( 12) -0.1591 ( 14)
           0.1532 ( 23) -0.2237 ( 24) -0.1619 ( 62)  0.2927 ( 63) -0.1385 ( 64)
          -0.1328 ( 89)  0.1868 ( 90) -0.1467 ( 97)  0.1728 (100)  0.1795 (119)
          -0.1401 (121)
 CRD 33=  -0.2882 (  3)  0.2133 (  4)  0.5467 ( 22) -0.2799 ( 23) -0.2999 ( 24)
          -0.1062 ( 62)  0.1490 ( 64) -0.2948 ( 70)  0.1504 ( 71)  0.1510 ( 72)
           0.1653 ( 82) -0.1562 ( 83) -0.1057 ( 92) -0.1036 (105)  0.1566 (106)
          -0.1649 (110) -0.1151 (120)  0.1662 (142) -0.1553 (143)
 CRD 34=  -0.1926 (  1)  0.3525 (  3) -0.1351 (  4)  0.1034 ( 11)  0.3018 ( 14)
           0.2001 ( 22) -0.4390 ( 23)  0.2744 ( 24)  0.1154 ( 63) -0.1834 ( 64)
          -0.1166 ( 70)  0.2030 ( 71) -0.1734 ( 85)  0.1057 ( 92)  0.1074 (105)
          -0.1733 (111)  0.1218 (120) -0.1954 (144)
 CRD 35=  -0.1789 (  1) -0.2093 (  3)  0.3736 (  4)  0.1949 ( 10) -0.4675 ( 12)
           0.3103 ( 14) -0.1164 ( 22) -0.1317 ( 62)  0.1166 ( 74) -0.1143 ( 82)
          -0.1209 ( 89) -0.1864 ( 92) -0.1222 ( 97) -0.1877 (105) -0.2180 (120)
          -0.1525 (121)
 CRD 36=  -0.2207 ( 11) -0.1827 ( 12) -0.1807 ( 14) -0.1171 ( 15)  0.5395 ( 18)
           0.5020 ( 19) -0.1696 ( 20) -0.1880 ( 21)  0.1948 ( 67)  0.1201 (127)
          -0.1275 (128) -0.1365 (138)
 CRD 37=  -0.1406 ( 11) -0.2045 ( 12) -0.1188 ( 14) -0.2939 ( 15)  0.5704 ( 20)
           0.4560 ( 21)  0.2018 ( 68)  0.1119 ( 93) -0.1200 (101)  0.1416 (133)
          -0.1257 (136) -0.1110 (139) -0.1217 (141)
 CRD 38=  -0.1015 (  6)  0.5412 ( 11)  0.2569 ( 12) -0.2322 ( 14) -0.4061 ( 15)
           0.1684 ( 18) -0.1277 ( 21)  0.1786 ( 65) -0.1443 ( 66)  0.1375 ( 77)
           0.1027 ( 84)  0.1313 ( 96)  0.1345 (125)  0.1100 (135)
 CRD 39=   0.1784 ( 11)  0.3204 ( 12)  0.2296 ( 14)  0.2947 ( 15)  0.2701 ( 18)
           0.3627 ( 19)  0.1280 ( 20)  0.3887 ( 21)  0.1111 ( 65)  0.1250 ( 66)
           0.1328 ( 67)  0.1114 ( 68)  0.1357 (129)  0.1097 (137)  0.1786 (140)
 CRD 40=   0.1542 (  9) -0.1484 ( 11) -0.1853 ( 14) -0.1303 ( 15) -0.1794 ( 18)
           0.2088 ( 19)  0.1096 ( 54) -0.1078 ( 66) -0.2156 ( 82) -0.1659 ( 83)
          -0.1811 ( 85) -0.1051 ( 91) -0.1546 ( 96)  0.1072 (104) -0.1807 (106)
          -0.1310 (110) -0.1462 (111)  0.1292 (122) -0.1164 (123)  0.1490 (124)
          -0.1659 (125)  0.1477 (132)  0.1229 (133)  0.1222 (139)  0.1008 (140)
           0.1376 (141) -0.2310 (142) -0.1813 (143) -0.1965 (144)
 CRD 41=  -0.1262 (  5) -0.2271 ( 11)  0.2154 ( 12)  0.2470 ( 14) -0.2776 ( 15)
           0.1616 ( 18) -0.1596 ( 19) -0.1750 ( 20)  0.1864 ( 21)  0.1012 ( 84)
           0.1090 ( 86)  0.1087 ( 87) -0.1267 ( 93) -0.1183 ( 94) -0.1150 (113)
          -0.1385 (114)  0.1221 (115)  0.1145 (116)  0.1874 (126)  0.1877 (127)
           0.1798 (128)  0.1801 (129) -0.1792 (132) -0.1876 (133)  0.1095 (135)
          -0.2027 (136) -0.2111 (137)
 CRD 42=  -0.1113 ( 11)  0.1128 ( 12) -0.1019 ( 14)  0.1615 ( 18) -0.1618 ( 19)
           0.1868 ( 20) -0.1927 ( 21)  0.1148 ( 86)  0.1143 ( 87)  0.1293 ( 93)
          -0.1893 (101) -0.1470 (102) -0.1255 (103) -0.1765 (107) -0.1497 (108)
           0.1173 (113)  0.1630 (114)  0.1660 (115)  0.1414 (116)  0.1879 (126)
           0.1883 (127)  0.1633 (128)  0.1637 (129)  0.1195 (132)  0.1517 (133)
           0.1653 (136)  0.1974 (137) -0.1980 (138) -0.2403 (139) -0.1712 (140)
          -0.2135 (141)
 CRD 43=   0.1934 (  1)  0.1204 (  4) -0.3453 (  7) -0.2016 ( 10)  0.1745 ( 11)
          -0.1010 ( 13) -0.1246 ( 14)  0.1717 ( 15) -0.1096 ( 19) -0.1141 ( 20)
           0.1662 ( 22)  0.1544 ( 23)  0.1302 ( 24)  0.1067 ( 29)  0.1633 ( 32)
           0.1222 ( 38)  0.1594 ( 41)  0.1315 ( 42)  0.1210 ( 49)  0.1113 ( 54)
          -0.1348 ( 62) -0.1656 ( 64) -0.1388 ( 69) -0.1401 ( 70) -0.1432 ( 71)
          -0.1599 ( 72)  0.1181 ( 73) -0.1185 ( 96)  0.2015 (104) -0.1178 (109)
          -0.1533 (117)  0.1141 (123) -0.1435 (130)
 CRD 44=   0.1159 (  3)  0.1794 (  4)  0.1564 (  7)  0.3214 ( 10)  0.1211 ( 14)
          -0.1622 ( 15) -0.1806 ( 18)  0.1738 ( 20) -0.1842 ( 21) -0.1397 ( 22)
          -0.1671 ( 25)  0.1043 ( 28)  0.1231 ( 29) -0.1115 ( 33) -0.1130 ( 39)
          -0.1101 ( 40)  0.1159 ( 46)  0.1122 ( 55)  0.1123 ( 60) -0.1718 ( 63)
          -0.1024 ( 64)  0.1117 ( 71) -0.1014 ( 81) -0.1290 (109)  0.1121 (114)
          -0.1002 (115)  0.1107 (120)  0.1195 (121) -0.2130 (122)  0.1769 (123)
          -0.1041 (124)  0.1135 (140)
 CRD 45=  -0.2003 (  1)  0.2555 (  2) -0.1858 (  3) -0.1460 (  4) -0.2473 (  8)
          -0.1015 ( 21)  0.1182 ( 22)  0.2042 ( 23)  0.1962 ( 24) -0.1745 ( 28)
          -0.1665 ( 29) -0.1778 ( 32)  0.1791 ( 38)  0.1553 ( 41)  0.1700 ( 42)
           0.1026 ( 60)  0.2079 ( 62)  0.1691 ( 63)  0.1787 ( 64) -0.1145 ( 69)
          -0.2218 ( 70) -0.1564 ( 71) -0.1629 ( 72) -0.1076 (117)  0.1343 (124)
          -0.1792 (130)
 CRD 46=  -0.1781 (  8) -0.1457 ( 11)  0.2036 ( 12)  0.1036 ( 13) -0.1206 ( 14)
          -0.1207 ( 16)  0.2253 ( 19)  0.1210 ( 22) -0.1149 ( 47)  0.2039 ( 52)
           0.1273 ( 53) -0.1753 ( 56) -0.1630 ( 57)  0.1230 ( 58)  0.1648 ( 59)
           0.1128 ( 66) -0.1153 ( 67) -0.1070 ( 71)  0.1387 ( 81)  0.1797 ( 87)
           0.1053 ( 91) -0.1515 ( 94)  0.1310 (101) -0.1060 (119) -0.1248 (120)
          -0.1006 (121)  0.1543 (123)  0.1153 (125)  0.1356 (126) -0.1501 (129)
           0.1562 (130)  0.1073 (131) -0.1964 (132) -0.1628 (136) -0.1283 (138)
          -0.1044 (140)
 CRD 47=  -0.2296 (  2)  0.1499 (  3)  0.1219 (  4) -0.1037 (  6)  0.1896 (  7)
          -0.2966 (  8) -0.1083 (  9)  0.1069 ( 10)  0.1431 ( 21)  0.1361 ( 23)
           0.1382 ( 24)  0.1015 ( 28)  0.1048 ( 29)  0.1313 ( 38)  0.1129 ( 41)
           0.1302 ( 42)  0.1616 ( 47)  0.1645 ( 48) -0.1455 ( 54) -0.1328 ( 58)
          -0.1314 ( 59) -0.1647 ( 63)  0.1164 ( 65) -0.1437 ( 68) -0.1524 ( 70)
          -0.1259 ( 71) -0.1234 ( 72) -0.1260 ( 74)  0.1154 ( 94)  0.1212 ( 96)
          -0.1073 (108)  0.1126 (125)  0.1927 (132)  0.1189 (139) -0.1866 (140)
 CRD 48=   0.1147 (  1) -0.2470 (  2)  0.1338 (  3) -0.1078 (  6)  0.2137 (  9)
           0.2774 ( 13) -0.2028 ( 17) -0.1210 ( 21)  0.1550 ( 33)  0.1785 ( 35)
          -0.1389 ( 40) -0.1018 ( 46) -0.1052 ( 52) -0.1232 ( 53) -0.1613 ( 54)
          -0.1313 ( 55)  0.1149 ( 57)  0.1256 ( 60)  0.1210 ( 61) -0.1550 ( 62)
          -0.1089 ( 81)  0.1467 (102)  0.1172 (109) -0.1430 (116) -0.1590 (120)
          -0.1116 (121)  0.1165 (122)  0.1145 (124)  0.1162 (126) -0.1218 (128)
          -0.1929 (129) -0.1335 (130) -0.1170 (131)  0.1530 (138)  0.1594 (140)
 CRD 49=  -0.1060 (  4)  0.2741 (  6) -0.1195 (  8) -0.1978 ( 10) -0.1105 ( 13)
           0.1980 ( 16) -0.1054 ( 17) -0.2042 ( 18)  0.1374 ( 20)  0.2042 ( 22)
          -0.1281 ( 33) -0.1488 ( 53)  0.1110 ( 55)  0.1311 ( 56)  0.1468 ( 57)
          -0.1056 ( 58)  0.1576 ( 67) -0.1295 ( 71) -0.1259 ( 82)  0.1434 ( 86)
          -0.1959 ( 93) -0.1316 (107)  0.1456 (110) -0.1164 (115) -0.1580 (120)
          -0.1217 (121)  0.1395 (123) -0.1422 (126)  0.1629 (129)  0.1035 (132)
          -0.1080 (133) -0.1663 (137) -0.1086 (139)  0.1028 (143)
 CRD 50=   0.1329 (  2)  0.1165 (  8) -0.1055 ( 10) -0.1337 ( 13) -0.1426 ( 14)
          -0.1536 ( 16)  0.1954 ( 17) -0.2011 ( 24) -0.1098 ( 34) -0.1473 ( 39)
          -0.1322 ( 40)  0.1407 ( 47)  0.1508 ( 48)  0.1635 ( 49) -0.1397 ( 58)
          -0.1322 ( 59)  0.1591 ( 61)  0.1108 ( 64)  0.1115 ( 71)  0.1188 ( 73)
           0.1069 ( 84)  0.1041 ( 96)  0.1314 (104)  0.1068 (107)  0.1031 (110)
          -0.1390 (113) -0.1272 (120)  0.1254 (124)  0.1661 (125) -0.1473 (132)
          -0.1770 (133)  0.1507 (134)  0.1021 (139) -0.1720 (142) -0.1091 (143)
          -0.2692 (144)
 CRD 51=  -0.1759 (  1)  0.1074 (  2)  0.1062 (  3)  0.1595 (  7) -0.1348 (  8)
          -0.2073 (  9)  0.1140 ( 13)  0.2255 ( 16) -0.2142 ( 17)  0.1498 ( 18)
          -0.1816 ( 19) -0.1706 ( 20)  0.1415 ( 23) -0.1037 ( 34) -0.1651 ( 48)
          -0.1193 ( 52)  0.1273 ( 58)  0.1291 ( 64) -0.1220 ( 72) -0.1614 ( 86)
           0.1586 ( 97) -0.1577 (101)  0.1549 (108)  0.1078 (117) -0.1000 (119)
           0.1396 (123) -0.1011 (127) -0.1718 (129)  0.1293 (130)  0.1184 (134)
          -0.1204 (139)  0.1562 (140) -0.1913 (144)
 CRD 52=   0.2009 (  1) -0.1157 (  3) -0.1025 (  4)  0.1720 (  5) -0.1795 (  7)
          -0.1513 (  9)  0.1062 ( 11) -0.2075 ( 15)  0.1188 ( 16) -0.1039 ( 17)
           0.1493 ( 20)  0.1960 ( 23) -0.1446 ( 24) -0.1609 ( 34)  0.1171 ( 49)
          -0.1138 ( 61)  0.1618 ( 63)  0.1163 ( 66)  0.1197 ( 71) -0.1352 ( 72)
           0.1348 ( 82)  0.1153 ( 83) -0.2017 ( 84)  0.1876 ( 90) -0.1244 ( 93)
          -0.1328 ( 97)  0.1098 (101)  0.1061 (114)  0.1235 (115)  0.1287 (119)
           0.1316 (126)  0.1096 (127) -0.1467 (135) -0.2235 (144)
 CRD 53=   0.1675 (  2)  0.1528 (  3) -0.2706 (  4) -0.2867 (  5)  0.1181 (  8)
           0.1111 ( 10) -0.1379 ( 13) -0.2102 ( 22)  0.1194 ( 24)  0.1716 ( 37)
          -0.1486 ( 62)  0.1681 ( 64) -0.1196 ( 70)  0.1262 ( 72)  0.1343 ( 82)
           0.1542 ( 90) -0.1113 ( 92)  0.1156 (100) -0.1499 (105) -0.1369 (110)
           0.1176 (112) -0.2758 (120)  0.1937 (123) -0.1426 (130)  0.1108 (132)
          -0.1095 (134)  0.1303 (142)
 CRD 54=  -0.1311 (  2)  0.2034 (  3) -0.1553 (  4)  0.1489 (  6) -0.1352 (  8)
           0.1170 (  9) -0.2203 ( 12)  0.2031 ( 17) -0.1802 ( 19) -0.1310 ( 21)
          -0.1342 ( 35) -0.1281 ( 56) -0.1524 ( 62)  0.1170 ( 64)  0.1456 ( 66)
           0.1416 ( 67)  0.1090 ( 68) -0.1578 ( 87)  0.1066 ( 89) -0.1231 ( 92)
           0.1340 ( 97)  0.1188 (100)  0.1190 (108)  0.1011 (114)  0.1757 (116)
          -0.1475 (120) -0.1370 (123)  0.1571 (129)  0.1216 (130) -0.1790 (132)
           0.1403 (137)  0.1587 (140)  0.1342 (141)
 CRD 55=   0.1550 (  1) -0.2068 (  2)  0.1981 (  6) -0.1686 ( 11)  0.1650 ( 15)
          -0.1258 ( 20)  0.2221 ( 23) -0.1373 ( 24) -0.1260 ( 33) -0.1048 ( 42)
           0.1395 ( 65) -0.1345 ( 66)  0.1693 ( 71)  0.1480 ( 82) -0.1341 ( 85)
           0.1158 ( 96)  0.1155 (106)  0.1495 (109) -0.1666 (111) -0.1187 (112)
          -0.1560 (114) -0.1786 (115)  0.1560 (122) -0.1021 (123)  0.1370 (124)
          -0.1081 (127)  0.1039 (133)  0.1030 (134)  0.1081 (135) -0.1054 (136)
          -0.1530 (139)  0.1484 (142) -0.1337 (144)
 CRD 56=   0.1090 (  9) -0.1178 ( 13)  0.1824 ( 14) -0.2977 ( 16)  0.1251 ( 18)
           0.1295 ( 21)  0.2002 ( 22) -0.1783 ( 24)  0.1117 ( 38) -0.1193 ( 40)
           0.1363 ( 53)  0.1137 ( 54)  0.1003 ( 58)  0.1534 ( 60) -0.1073 ( 67)
          -0.1148 ( 68)  0.1351 ( 70) -0.1468 ( 72) -0.1541 ( 81)  0.1795 ( 83)
          -0.1250 ( 86) -0.1381 (102)  0.1976 (110)  0.1219 (118) -0.1189 (125)
          -0.1112 (127)  0.1169 (128) -0.1187 (130)  0.1018 (132)  0.1122 (135)
           0.1315 (139) -0.1189 (140)  0.2213 (143)
 CRD 57=   0.1964 (  1) -0.1530 (  3) -0.2147 (  8)  0.1476 (  9)  0.1093 ( 12)
          -0.1992 ( 13)  0.1362 ( 18) -0.1400 ( 20)  0.1280 ( 24) -0.1024 ( 32)
          -0.1192 ( 39)  0.1068 ( 47) -0.1223 ( 52)  0.1175 ( 55)  0.1456 ( 63)
          -0.1143 ( 64) -0.1085 ( 67)  0.1025 ( 69)  0.1115 ( 75) -0.1024 ( 77)
          -0.1256 ( 78) -0.1446 ( 89)  0.1095 ( 90) -0.1346 ( 97)  0.1195 (100)
          -0.1407 (101)  0.1762 (107) -0.1096 (113)  0.1324 (117) -0.1673 (121)
          -0.1243 (127)  0.1315 (130)  0.1283 (134)  0.1304 (136)  0.1644 (137)
           0.1205 (138) -0.1504 (141) -0.1028 (143)
 CRD 58=   0.1143 (  1)  0.1058 (  2) -0.1871 (  4) -0.1644 (  9) -0.1300 ( 11)
           0.1862 ( 13)  0.1309 ( 22) -0.1831 ( 23) -0.1118 ( 25)  0.1152 ( 29)
          -0.1152 ( 31)  0.1169 ( 42)  0.1410 ( 46) -0.1197 ( 62)  0.1033 ( 63)
           0.1680 ( 65) -0.1177 ( 69)  0.1081 ( 70) -0.1238 ( 71)  0.1728 ( 73)
          -0.1047 ( 74)  0.1302 ( 77) -0.1212 ( 82)  0.1289 ( 85) -0.1195 ( 91)
          -0.1671 ( 92)  0.1154 ( 96)  0.1195 (100)  0.1432 (104) -0.1337 (105)
          -0.1645 (106) -0.1034 (109) -0.1009 (115)  0.2386 (119) -0.1901 (122)
           0.1663 (125) -0.1174 (127)  0.1169 (128) -0.2272 (142)
 CRD 59=   0.1098 (  2) -0.1172 (  3) -0.1550 (  5)  0.1162 ( 14)  0.3182 ( 17)
          -0.1397 ( 19) -0.1090 ( 21)  0.1140 ( 22) -0.1105 ( 25) -0.1050 ( 54)
           0.1586 ( 67)  0.1402 ( 68) -0.1135 ( 78)  0.1054 ( 83)  0.1062 ( 86)
          -0.1399 ( 87) -0.1532 ( 94)  0.1030 (105)  0.1091 (113)  0.1423 (118)
          -0.1355 (121)  0.1545 (127) -0.2228 (128)  0.2164 (133) -0.1706 (136)
           0.1054 (140)  0.1523 (143)
 CRD 60=  -0.1142 (  3)  0.1040 (  6)  0.2064 ( 13) -0.2346 ( 16) -0.1330 ( 19)
           0.1701 ( 21)  0.1073 ( 24)  0.1049 ( 27) -0.1194 ( 45)  0.1445 ( 51)
           0.1086 ( 58)  0.1385 ( 67) -0.1754 ( 68) -0.1333 ( 74)  0.1127 ( 85)
           0.1112 ( 92) -0.1949 (102)  0.1460 (105)  0.1877 (108)  0.1393 (111)
          -0.1133 (119) -0.1665 (121) -0.1334 (131)  0.1100 (136) -0.2665 (138)
           0.2578 (141) -0.1632 (143)
 CRD 61=   0.2238 (  5) -0.2126 (  6) -0.1333 (  8)  0.1307 ( 11)  0.1753 ( 15)
          -0.1281 ( 16) -0.1384 ( 18)  0.1225 ( 26)  0.1423 ( 31)  0.1151 ( 44)
           0.1049 ( 48)  0.1253 ( 50) -0.1528 ( 65) -0.1264 ( 66)  0.1218 ( 75)
           0.1069 ( 84)  0.1142 ( 86) -0.1022 ( 92)  0.1071 (101) -0.1135 (107)
          -0.1223 (114) -0.1441 (116) -0.1048 (118)  0.1604 (119)  0.1318 (121)
          -0.1580 (125)  0.1168 (126)  0.2410 (127) -0.1049 (128)  0.2575 (134)
           0.1012 (135) -0.1474 (137) -0.1033 (138) -0.1093 (143)
 CRD 62=  -0.1024 (  2)  0.1234 (  8)  0.1586 ( 12) -0.1474 ( 14) -0.1183 ( 19)
           0.1269 ( 21)  0.1120 ( 26)  0.1228 ( 30)  0.1137 ( 31) -0.1000 ( 37)
          -0.1611 ( 44) -0.1424 ( 45)  0.1200 ( 51)  0.1440 ( 66)  0.1195 ( 67)
          -0.1182 ( 69)  0.1157 ( 73)  0.1101 ( 74)  0.1665 ( 81)  0.1279 ( 86)
           0.1786 ( 91)  0.1372 ( 94) -0.1292 (102) -0.1276 (106)  0.1632 (108)
          -0.1113 (111) -0.1676 (112) -0.1690 (113) -0.1543 (117) -0.1006 (125)
          -0.2120 (128)  0.1959 (131) -0.1376 (133) -0.1800 (134)  0.1648 (136)
          -0.1489 (138)  0.1169 (141)  0.1094 (143)
 CRD 63=  -0.1856 (  2)  0.1041 (  5)  0.1237 (  6) -0.2600 (  9) -0.1300 ( 13)
          -0.1162 ( 23)  0.1207 ( 25)  0.1270 ( 27)  0.1047 ( 30) -0.1266 ( 36)
           0.1085 ( 42) -0.1357 ( 43) -0.1049 ( 46)  0.1473 ( 49) -0.1067 ( 69)
          -0.1771 ( 76)  0.1286 ( 83)  0.2344 ( 85)  0.1800 ( 91) -0.1211 ( 94)
          -0.2203 ( 98) -0.1283 ( 99)  0.1011 (109)  0.1274 (111) -0.1084 (112)
           0.1030 (113)  0.2786 (124) -0.1571 (125)  0.1297 (133) -0.2119 (142)
          -0.1367 (143)
 CRD 64=  -0.1030 (  1) -0.1602 (  7) -0.1244 ( 15) -0.1381 ( 18) -0.1898 ( 20)
           0.1124 ( 21)  0.1251 ( 53)  0.1070 ( 56) -0.1268 ( 57)  0.1145 ( 59)
           0.1267 ( 60) -0.1296 ( 73)  0.1048 ( 74) -0.1078 ( 76)  0.1641 ( 77)
          -0.1031 ( 84)  0.1335 ( 86)  0.1729 ( 89) -0.2103 ( 95) -0.1691 (100)
           0.2093 (103) -0.1160 (105)  0.1288 (108) -0.1530 (113) -0.1130 (115)
          -0.1423 (116)  0.1327 (117)  0.1027 (121)  0.1136 (133)  0.1440 (136)
           0.2270 (137) -0.1506 (138) -0.2058 (139) -0.1211 (141)
 CRD 65=  -0.1716 (  5)  0.1489 ( 10)  0.1413 ( 11) -0.1152 ( 12) -0.1046 ( 14)
           0.1287 ( 19) -0.1153 ( 46) -0.1222 ( 47)  0.1023 ( 54) -0.1102 ( 55)
          -0.1228 ( 74) -0.1195 ( 76) -0.1434 ( 77) -0.2276 ( 79) -0.1293 ( 80)
           0.1488 ( 83)  0.1352 ( 88)  0.1085 ( 92)  0.1453 ( 94) -0.1202 ( 98)
           0.1160 (102)  0.1619 (103)  0.1469 (105) -0.1726 (106)  0.1224 (109)
          -0.1073 (111)  0.1826 (112) -0.1274 (113) -0.1125 (121)  0.1676 (126)
           0.1182 (127)  0.1407 (128)  0.1718 (131)  0.1237 (135) -0.1028 (139)
          -0.1096 (141)
 CRD 66=   0.1521 (  7) -0.1521 ( 10)  0.1056 ( 11) -0.1048 ( 15)  0.1064 ( 34)
           0.1156 ( 43)  0.1460 ( 73) -0.1003 ( 74)  0.1989 ( 76) -0.1600 ( 77)
          -0.1723 ( 79)  0.2306 ( 80)  0.1046 ( 81) -0.1356 ( 83) -0.1029 ( 85)
           0.1806 ( 88) -0.1875 ( 89) -0.1356 ( 92) -0.1166 ( 94) -0.1782 ( 95)
          -0.2158 ( 99)  0.1534 (100)  0.1514 (103)  0.1307 (106) -0.1569 (109)
           0.1040 (126)  0.1000 (127) -0.1062 (131) -0.1404 (135)  0.1247 (137)

 THE DETERMINANT OF THE G MATRIX IS 10**(   -17)


                     --------------------
                     INTERNAL COORDINATES
                     --------------------

                 - - ATOMS - -         COORDINATE      COORDINATE
 NO.   TYPE    I  J  K  L  M  N        (BOHR,RAD)       (ANG,DEG)
 ----------------------------------------------------------------
   1 STRETCH   1  9                     2.0764222       1.0987954
   2 STRETCH   1  2                     2.8689471       1.5181815
   3 STRETCH   1  8                     2.0755118       1.0983136
   4 STRETCH   1 10                     2.0747291       1.0978994
   5 STRETCH   2  3                     2.9134631       1.5417384
   6 STRETCH   2  4                     2.8845552       1.5264410
   7 STRETCH   2 11                     2.1157063       1.1195836
   8 STRETCH   3 20                     2.8740770       1.5208962
   9 STRETCH   3  5                     2.9029533       1.5361768
  10 STRETCH   3 21                     2.1124251       1.1178473
  11 STRETCH   4 13                     2.0956965       1.1089949
  12 STRETCH   4 12                     2.0926082       1.1073607
  13 STRETCH   4  6                     2.8802080       1.5241406
  14 STRETCH   5 15                     2.0921293       1.1071072
  15 STRETCH   5 14                     2.0969191       1.1096419
  16 STRETCH   5  7                     2.8673981       1.5173619
  17 STRETCH   6  7                     2.8791753       1.5235941
  18 STRETCH   6 17                     2.0926313       1.1073729
  19 STRETCH   6 16                     2.0925325       1.1073206
  20 STRETCH   7 19                     2.0948368       1.1085400
  21 STRETCH   7 18                     2.0923771       1.1072383
  22 STRETCH  20 24                     2.0770062       1.0991044
  23 STRETCH  20 23                     2.0753559       1.0982311
  24 STRETCH  20 22                     2.0755178       1.0983168
  25 BEND      1  2 11                  1.8705645     107.1754497
  26 BEND      1  2  4                  1.9332820     110.7688992
  27 BEND      1  2  3                  1.9788894     113.3820126
  28 BEND      2  1  8                  1.9367478     110.9674765
  29 BEND      2  1 10                  1.9434551     111.3517754
  30 BEND      2  3  5                  1.9365466     110.9559468
  31 BEND      2  4  6                  1.9415174     111.2407549
  32 BEND      2  1  9                  1.9565645     112.1028891
  33 BEND      2  4 12                  1.9232014     110.1913245
  34 BEND      2  3 21                  1.8643071     106.8169258
  35 BEND      2  4 13                  1.9082868     109.3367789
  36 BEND      2  3 20                  1.9850229     113.7334319
  37 BEND      3  2 11                  1.8674284     106.9957653
  38 BEND      3 20 22                  1.9356996     110.9074154
  39 BEND      3  5 14                  1.9211939     110.0762993
  40 BEND      3  5 15                  1.9108488     109.4835741
  41 BEND      3 20 24                  1.9520937     111.8467317
  42 BEND      3 20 23                  1.9514049     111.8072641
  43 BEND      3  2  4                  1.9307573     110.6242450
  44 BEND      3  5  7                  1.9645183     112.5586077
  45 BEND      4  6  7                  1.9592252     112.2553346
  46 BEND      4  2 11                  1.8779218     107.5969953
  47 BEND      4  6 16                  1.9242205     110.2497136
  48 BEND      4  6 17                  1.9073019     109.2803501
  49 BEND      5  3 21                  1.8935252     108.4910039
  50 BEND      5  3 20                  1.9029407     109.0304710
  51 BEND      5  7  6                  1.9430450     111.3282784
  52 BEND      5  7 18                  1.9201087     110.0141249
  53 BEND      5  7 19                  1.9146200     109.6996432
  54 BEND      6  4 12                  1.9199197     110.0032970
  55 BEND      6  4 13                  1.9266139     110.3868451
  56 BEND      6  7 19                  1.9252812     110.3104876
  57 BEND      6  7 18                  1.9188415     109.9415167
  58 BEND      7  6 16                  1.9070093     109.2635834
  59 BEND      7  6 17                  1.9229350     110.1760599
  60 BEND      7  5 14                  1.9004188     108.8859775
  61 BEND      7  5 15                  1.9216760     110.1039245
  62 BEND      8  1  9                  1.8698286     107.1332895
  63 BEND      8  1 10                  1.8756438     107.4664759
  64 BEND      9  1 10                  1.8777275     107.5858621
  65 BEND     12  4 13                  1.8417894     105.5267616
  66 BEND     14  5 15                  1.8411512     105.4901934
  67 BEND     16  6 17                  1.8394107     105.3904672
  68 BEND     18  7 19                  1.8392329     105.3802852
  69 BEND     20  3 21                  1.8783283     107.6202846
  70 BEND     22 20 23                  1.8708915     107.1941849
  71 BEND     22 20 24                  1.8751421     107.4377260
  72 BEND     23 20 24                  1.8745629     107.4045448
  73 TORSION   1  2  3 21              -1.4160597     -81.1342450
  74 TORSION   1  2  4 13              -1.2127329     -69.4844769
  75 TORSION   1  2  3  5               2.8064206     160.7960570
  76 TORSION   1  2  3 20               0.6534897      37.4422042
  77 TORSION   1  2  4 12               0.8040179      46.0668336
  78 TORSION   1  2  4  6               2.9381172     168.3417153
  79 TORSION   2  4  6  7               0.4899994      28.0749003
  80 TORSION   2  3  5  7               0.4423200      25.3430683
  81 TORSION   2  3  5 14              -1.6811962     -96.3254483
  82 TORSION   2  3 20 22               3.0402315     174.1924332
  83 TORSION   2  3 20 23              -1.1558332     -66.2243625
  84 TORSION   2  3  5 15               2.5856713     148.1480503
  85 TORSION   2  3 20 24               0.9472602      54.2740117
  86 TORSION   2  4  6 16              -1.6404828     -93.9927388
  87 TORSION   2  4  6 17               2.6288112     150.6197892
  88 TORSION   3  2  4  6              -1.1354663     -65.0574246
  89 TORSION   3  2  1 10               0.9045229      51.8253474
  90 TORSION   3  2  1  8               2.9930706     171.4903111
  91 TORSION   3  2  4 13               0.9968689      57.1163832
  92 TORSION   3  2  1  9              -1.2001719     -68.7647873
  93 TORSION   3  5  7 18               3.0615583     175.4143665
  94 TORSION   3  5  7 19               1.0460072      59.9318003
  95 TORSION   3  5  7  6              -1.0899978     -62.4522730
  96 TORSION   3  2  4 12               3.0136198     172.6676937
  97 TORSION   4  2  1 10               3.0871823     176.8825171
  98 TORSION   4  2  3 20              -1.5305270     -87.6927366
  99 TORSION   4  2  3  5               0.6224039      35.6611162
 100 TORSION   4  2  1  8              -1.1074554     -63.4525191
 101 TORSION   4  6  7 18               2.7079137     155.1520264
 102 TORSION   4  6  7 19              -1.5542916     -89.0543479
 103 TORSION   4  6  7  5               0.5755516      32.9766765
 104 TORSION   4  2  3 21               2.6831089     153.7308142
 105 TORSION   4  2  1  9               0.9824874      56.2923824
 106 TORSION   5  3 20 22               0.8690869      49.7950134
 107 TORSION   5  7  6 16               2.7157946     155.6035700
 108 TORSION   5  7  6 17              -1.5543889     -89.0599226
 109 TORSION   5  3  2 11              -1.4183045     -81.2628629
 110 TORSION   5  3 20 23               2.9562076     169.3782177
 111 TORSION   5  3 20 24              -1.2238844     -70.1234081
 112 TORSION   6  4  2 11               0.8987559      51.4949225
 113 TORSION   6  7  5 14               1.0452773      59.8899787
 114 TORSION   6  7  5 15               3.0559222     175.0914438
 115 TORSION   7  6  4 12               2.6259960     150.4584874
 116 TORSION   7  6  4 13              -1.6316863     -93.4887393
 117 TORSION   7  5  3 21              -1.6005663     -91.7056921
 118 TORSION   7  5  3 20               2.6417079     151.3587138
 119 TORSION   8  1  2 11               0.9364318      53.6535889
 120 TORSION   9  1  2 11               3.0263746     173.3984904
 121 TORSION  10  1  2 11              -1.1521158     -66.0113748
 122 TORSION  11  2  3 20               2.7119499     155.3832843
 123 TORSION  11  2  4 13               3.0310911     173.6687302
 124 TORSION  11  2  3 21               0.6424005      36.8068351
 125 TORSION  11  2  4 12              -1.2353433     -70.7799593
 126 TORSION  12  4  6 17              -1.5183775     -86.9966237
 127 TORSION  12  4  6 16               0.4955138      28.3908483
 128 TORSION  13  4  6 17               0.5071255      29.0561497
 129 TORSION  13  4  6 16               2.5210168     144.4436217
 130 TORSION  14  5  3 21               2.5591028     146.6257914
 131 TORSION  14  5  3 20               0.5181917      29.6901972
 132 TORSION  14  5  7 19              -3.1019030    -177.7259480
 133 TORSION  14  5  7 18              -1.0863520     -62.2433819
 134 TORSION  15  5  3 21               0.5427850      31.0992899
 135 TORSION  15  5  3 20              -1.4981261     -85.8363042
 136 TORSION  15  5  7 19              -1.0912581     -62.5244829
 137 TORSION  15  5  7 18               0.9242929      52.9580833
 138 TORSION  16  6  7 19               0.5859515      33.5725457
 139 TORSION  16  6  7 18              -1.4350286     -82.2210801
 140 TORSION  17  6  7 19               2.5989533     148.9090530
 141 TORSION  17  6  7 18               0.5779732      33.1154272
 142 TORSION  21  3 20 22              -1.1814591     -67.6926224
 143 TORSION  21  3 20 23               0.9056615      51.8905820
 144 TORSION  21  3 20 24               3.0087549     172.3889562

     ------------------------------------------
     THE POINT GROUP IS C1 , NAXIS= 1, ORDER= 1
     ------------------------------------------

     DIMENSIONS OF THE SYMMETRY SUBSPACES ARE
 A   =  248

 ..... DONE SETTING UP THE RUN .....
 STEP CPU TIME =     0.02 TOTAL CPU TIME =        0.0 (    0.0 MIN)
 TOTAL WALL CLOCK TIME=        0.0 SECONDS, CPU UTILIZATION IS 100.00%


          -----------------------------
          STATIONARY POINT LOCATION RUN
          -----------------------------

 OBTAINING INITIAL HESSIAN, HESS=GUESS   
 DIAGONAL GUESS HESSIAN IN INTERNAL COORDS IS
     1  0.3405     2  0.3757     3  0.3408     4  0.3411     5  0.3589
     6  0.3697     7  0.3270     8  0.3737     9  0.3628    10  0.3281
    11  0.3338    12  0.3349    13  0.3714    14  0.3350    15  0.3334
    16  0.3763    17  0.3718    18  0.3349    19  0.3349    20  0.3341
    21  0.3350    22  0.3403    23  0.3409    24  0.3408    25  0.2230
    26  0.2496    27  0.2485    28  0.2243    29  0.2243    30  0.2472
    31  0.2492    32  0.2243    33  0.2233    34  0.2217    35  0.2232
    36  0.2483    37  0.2216    38  0.2241    39  0.2226    40  0.2227
    41  0.2241    42  0.2241    43  0.2479    44  0.2489    45  0.2494
    46  0.2225    47  0.2234    48  0.2234    49  0.2221    50  0.2487
    51  0.2498    52  0.2238    53  0.2237    54  0.2234    55  0.2233
    56  0.2234    57  0.2234    58  0.2234    59  0.2234    60  0.2237
    61  0.2238    62  0.2025    63  0.2026    64  0.2026    65  0.2016
    66  0.2016    67  0.2017    68  0.2016    69  0.2230    70  0.2026
    71  0.2025    72  0.2025    73  0.2500    74  0.2500    75  0.2500
    76  0.2500    77  0.2500    78  0.2500    79  0.2500    80  0.2500
    81  0.2500    82  0.2500    83  0.2500    84  0.2500    85  0.2500
    86  0.2500    87  0.2500    88  0.2500    89  0.2500    90  0.2500
    91  0.2500    92  0.2500    93  0.2500    94  0.2500    95  0.2500
    96  0.2500    97  0.2500    98  0.2500    99  0.2500   100  0.2500
   101  0.2500   102  0.2500   103  0.2500   104  0.2500   105  0.2500
   106  0.2500   107  0.2500   108  0.2500   109  0.2500   110  0.2500
   111  0.2500   112  0.2500   113  0.2500   114  0.2500   115  0.2500
   116  0.2500   117  0.2500   118  0.2500   119  0.2500   120  0.2500
   121  0.2500   122  0.2500   123  0.2500   124  0.2500   125  0.2500
   126  0.2500   127  0.2500   128  0.2500   129  0.2500   130  0.2500
   131  0.2500   132  0.2500   133  0.2500   134  0.2500   135  0.2500
   136  0.2500   137  0.2500   138  0.2500   139  0.2500   140  0.2500
   141  0.2500   142  0.2500   143  0.2500   144  0.2500
 TRANSFORMING HESSIAN TO SYMMETRY COORDINATES

          PARAMETERS CONTROLLING GEOMETRY SEARCH ARE
          METHOD =QA                  UPHESS =BFGS    
          NNEG   =         0          NFRZ   =         3
          NSTEP  =        50          IFOLOW =         1
          HESS   =GUESS               RESTAR =         F
          IHREP  =         0          HSSEND =         F
          NPRT   =         0          NPUN   =         0
          OPTTOL = 5.000E-04          RMIN   = 1.500E-03
          RMAX   = 1.000E-01          RLIM   = 7.000E-02
          DXMAX  = 3.000E-01          PURIFY =         F
          MOVIE  =         F          TRUPD  =         T
          TRMAX  = 5.000E-01          TRMIN  = 5.000E-02
          ITBMAT =         5          STPT   =         F
          STSTEP = 1.000E-02          PROJCT=          F
          FROZEN COORD(S)=   1   2   3


      ***** EQUILIBRIUM GEOMETRY LOCATED *****
            (SUBJECT TO   3 CONSTRAINT(S))
 COORDINATES OF ALL ATOMS ARE (ANGS)
   ATOM   CHARGE       X              Y              Z
 ------------------------------------------------------------
 C           6.0   2.4902663315   1.0690614023   5.1823746180
 C           6.0   2.8627646476   1.0613302009   3.6983936205
 C           6.0   1.6778558309   1.3849125987   2.7472797855
 C           6.0   4.0461217746   1.9875553451   3.3982511933
 C           6.0   2.1947004750   1.7824798805   1.3422648198
 C           6.0   4.6287303164   1.7107558957   1.9975512989
 C           6.0   3.5606503191   1.1731026505   1.0263331669
 H           1.0   3.3189913776   0.6925361831   5.7756928336
 H           1.0   2.2613114025   2.0708125891   5.5346242277
 H           1.0   1.6259996502   0.4398631089   5.3798195036
 H           1.0   3.1864838099   0.0488660143   3.4631561955
 H           1.0   4.8184429740   1.8661420966   4.1528961278
 H           1.0   3.7144788293   3.0219486309   3.4668531837
 H           1.0   2.2820393226   2.8668525739   1.2818709333
 H           1.0   1.4632286033   1.4948492315   0.5911459313
 H           1.0   5.4455762553   0.9973891350   2.0727533684
 H           1.0   5.0551923979   2.6269692184   1.5964351552
 H           1.0   3.8467179181   1.3948450736   0.0015340338
 H           1.0   3.4992505210   0.0892181002   1.0972197999
 C           6.0   0.7354860069   2.4665329373   3.2886738301
 H           1.0   1.0950902599   0.4708634698   2.6426896087
 H           1.0  -0.0181435973   2.7184687166   2.5472705304
 H           1.0   0.2185041493   2.1381346641   4.1841381096
 H           1.0   1.2771906582   3.3777806050   3.5309668334


                     --------------------
                     INTERNAL COORDINATES
                     --------------------

                 - - ATOMS - -         COORDINATE      COORDINATE
 NO.   TYPE    I  J  K  L  M  N        (BOHR,RAD)       (ANG,DEG)
 ----------------------------------------------------------------
   1 STRETCH   1  9                     2.0527727       1.0862806
   2 STRETCH   1  2                     2.8913514       1.5300374
   3 STRETCH   1  8                     2.0532749       1.0865463
   4 STRETCH   1 10                     2.0543606       1.0871209
   5 STRETCH   2  3                     2.9356709       1.5534903
   6 STRETCH   2  4                     2.8958548       1.5324205
   7 STRETCH   2 11                     2.0572985       1.0886756
   8 STRETCH   3 20                     2.8975551       1.5333202
   9 STRETCH   3  5                     2.9270966       1.5489529
  10 STRETCH   3 21                     2.0580154       1.0890549
  11 STRETCH   4 13                     2.0568196       1.0884221
  12 STRETCH   4 12                     2.0533855       1.0866049
  13 STRETCH   4  6                     2.9141087       1.5420800
  14 STRETCH   5 15                     2.0544738       1.0871808
  15 STRETCH   5 14                     2.0589687       1.0895594
  16 STRETCH   5  7                     2.8888542       1.5287159
  17 STRETCH   6  7                     2.9111169       1.5404969
  18 STRETCH   6 17                     2.0546901       1.0872952
  19 STRETCH   6 16                     2.0543197       1.0870992
  20 STRETCH   7 19                     2.0558973       1.0879341
  21 STRETCH   7 18                     2.0538267       1.0868384
  22 STRETCH  20 24                     2.0549605       1.0874383
  23 STRETCH  20 23                     2.0501323       1.0848834
  24 STRETCH  20 22                     2.0537315       1.0867880
  25 BEND      1  2 11                  1.8615392     106.6583379
  26 BEND      1  2  4                  1.9550991     112.0189255
  27 BEND      1  2  3                  1.9900369     114.0207166
  28 BEND      2  1  8                  1.9200348     110.0098907
  29 BEND      2  1 10                  1.9463415     111.5171549
  30 BEND      2  3  5                  1.9329684     110.7509310
  31 BEND      2  4  6                  1.9403089     111.1715097
  32 BEND      2  1  9                  1.9503256     111.7454283
  33 BEND      2  4 12                  1.9233570     110.2002384
  34 BEND      2  3 21                  1.8672464     106.9853387
  35 BEND      2  4 13                  1.9036881     109.0732920
  36 BEND      2  3 20                  1.9818043     113.5490245
  37 BEND      3  2 11                  1.8631666     106.7515804
  38 BEND      3 20 22                  1.9271297     110.4163975
  39 BEND      3  5 14                  1.9097204     109.4189191
  40 BEND      3  5 15                  1.9116366     109.5287113
  41 BEND      3 20 24                  1.9429583     111.3233102
  42 BEND      3 20 23                  1.9506464     111.7638087
  43 BEND      3  2  4                  1.9211040     110.0711484
  44 BEND      3  5  7                  1.9641558     112.5378388
  45 BEND      4  6  7                  1.9534211     111.9227822
  46 BEND      4  2 11                  1.8651986     106.8680094
  47 BEND      4  6 16                  1.9164775     109.8060731
  48 BEND      4  6 17                  1.9092404     109.3914182
  49 BEND      5  3 21                  1.8826909     107.8702432
  50 BEND      5  3 20                  1.9222814     110.1386111
  51 BEND      5  7  6                  1.9284707     110.4932313
  52 BEND      5  7 18                  1.9270071     110.4093712
  53 BEND      5  7 19                  1.9105372     109.4657203
  54 BEND      6  4 12                  1.9200929     110.0132179
  55 BEND      6  4 13                  1.9208578     110.0570460
  56 BEND      6  7 19                  1.9238500     110.2284861
  57 BEND      6  7 18                  1.9185312     109.9237400
  58 BEND      7  6 16                  1.9129942     109.6064934
  59 BEND      7  6 17                  1.9107627     109.4786387
  60 BEND      7  5 14                  1.8898229     108.2788770
  61 BEND      7  5 15                  1.9315034     110.6669913
  62 BEND      8  1  9                  1.8789021     107.6531620
  63 BEND      8  1 10                  1.8824372     107.8557049
  64 BEND      9  1 10                  1.8831293     107.8953633
  65 BEND     12  4 13                  1.8535355     106.1997597
  66 BEND     14  5 15                  1.8534899     106.1971481
  67 BEND     16  6 17                  1.8585123     106.4849125
  68 BEND     18  7 19                  1.8541305     106.2338509
  69 BEND     20  3 21                  1.8724376     107.2827714
  70 BEND     22 20 23                  1.8784343     107.6263577
  71 BEND     22 20 24                  1.8788269     107.6488526
  72 BEND     23 20 24                  1.8829759     107.8865702
  73 TORSION   1  2  3 21              -1.3961322     -79.9924836
  74 TORSION   1  2  4 13              -1.2663686     -72.5575777
  75 TORSION   1  2  3  5               2.8395595     162.6947735
  76 TORSION   1  2  3 20               0.6662032      38.1706294
  77 TORSION   1  2  4 12               0.7619826      43.6583846
  78 TORSION   1  2  4  6               2.8955875     165.9049450
  79 TORSION   2  4  6  7               0.5035081      28.8488883
  80 TORSION   2  3  5  7               0.4602517      26.3704779
  81 TORSION   2  3  5 14              -1.6414961     -94.0507990
  82 TORSION   2  3 20 22               3.0496356     174.7312481
  83 TORSION   2  3 20 23              -1.1431807     -65.4994269
  84 TORSION   2  3  5 15               2.6165670     149.9182432
  85 TORSION   2  3 20 24               0.9637922      55.2212275
  86 TORSION   2  4  6 16              -1.6251812     -93.1160224
  87 TORSION   2  4  6 17               2.6243491     150.3641250
  88 TORSION   3  2  4  6              -1.1541002     -66.1250715
  89 TORSION   3  2  1 10               0.9064046      51.9331565
  90 TORSION   3  2  1  8               2.9942762     171.5593867
  91 TORSION   3  2  4 13               0.9671289      55.4124057
  92 TORSION   3  2  1  9              -1.2029046     -68.9213543
  93 TORSION   3  5  7 18               3.0476050     174.6149064
  94 TORSION   3  5  7 19               1.0124189      58.0073322
  95 TORSION   3  5  7  6              -1.1094526     -63.5669494
  96 TORSION   3  2  4 12               2.9954801     171.6283680
  97 TORSION   4  2  1 10               3.1027188     177.7726914
  98 TORSION   4  2  3 20              -1.5478871     -88.6873956
  99 TORSION   4  2  3  5               0.6254693      35.8367485
 100 TORSION   4  2  1  8              -1.0925949     -62.6010783
 101 TORSION   4  6  7 18               2.7096598     155.2520724
 102 TORSION   4  6  7 19              -1.5354402     -87.9742459
 103 TORSION   4  6  7  5               0.5785429      33.1480663
 104 TORSION   4  2  3 21               2.6729629     153.1494914
 105 TORSION   4  2  1  9               0.9934097      56.9181806
 106 TORSION   5  3 20 22               0.8705233      49.8773111
 107 TORSION   5  7  6 16               2.7092271     155.2272784
 108 TORSION   5  7  6 17              -1.5414212     -88.3169304
 109 TORSION   5  3  2 11              -1.3926995     -79.7958059
 110 TORSION   5  3 20 23               2.9608924     169.6466360
 111 TORSION   5  3 20 24              -1.2153200     -69.6327095
 112 TORSION   6  4  2 11               0.8627870      49.4340560
 113 TORSION   6  7  5 14               1.0037135      57.5085501
 114 TORSION   6  7  5 15               3.0285138     173.5210591
 115 TORSION   7  6  4 12               2.6390032     151.2037463
 116 TORSION   7  6  4 13              -1.6076647     -92.1124009
 117 TORSION   7  5  3 21              -1.5777433     -90.3980313
 118 TORSION   7  5  3 20               2.6670864     152.8127921
 119 TORSION   8  1  2 11               0.9424131      53.9962945
 120 TORSION   9  1  2 11               3.0284177     173.5155535
 121 TORSION  10  1  2 11              -1.1454585     -65.6299358
 122 TORSION  11  2  3 20               2.7171295     155.6800499
 123 TORSION  11  2  4 13               2.9840162     170.9715332
 124 TORSION  11  2  3 21               0.6547941      37.5169369
 125 TORSION  11  2  4 12              -1.2708179     -72.8125045
 126 TORSION  12  4  6 17              -1.5233411     -87.2810171
 127 TORSION  12  4  6 16               0.5103140      29.2388356
 128 TORSION  13  4  6 17               0.5131763      29.4028357
 129 TORSION  13  4  6 16               2.5468314     145.9226884
 130 TORSION  14  5  3 21               2.6036943     149.1806919
 131 TORSION  14  5  3 20               0.5653386      32.3915153
 132 TORSION  14  5  7 19               3.1255850     179.0828317
 133 TORSION  14  5  7 18              -1.1224142     -64.3095941
 134 TORSION  15  5  3 21               0.5785720      33.1497340
 135 TORSION  15  5  3 20              -1.4597837     -83.6394426
 136 TORSION  15  5  7 19              -1.1328000     -64.9046594
 137 TORSION  15  5  7 18               0.9023861      51.7029148
 138 TORSION  16  6  7 19               0.5952440      34.1049662
 139 TORSION  16  6  7 18              -1.4428413     -82.6687155
 140 TORSION  17  6  7 19               2.6277809     150.5607574
 141 TORSION  17  6  7 18               0.5896957      33.7870757
 142 TORSION  21  3 20 22              -1.1742145     -67.2775350
 143 TORSION  21  3 20 23               0.9161546      52.4917900
 144 TORSION  21  3 20 24               3.0231275     173.2124444

          INTERNUCLEAR DISTANCES (ANGS.)


 =====================================================
   GAMESS/COSab RESULTS
 =====================================================

   Dielectric Constant                  = INFTY
   Basic Grid Size                      =                 1082
   Number of Segments                   =                   92
   Number of Segments located on spheres=                  246
   Number of Segments of the cavity     =                  695
   Solvent Radius (rsolv)               = 1.40
   Outlying Charge Error Method         = double cavity

 =====================================================

  Total solvated Energy (a.u.)          =  -312.3397305458
  Total Energy corrected (a.u.)         =  -312.3396362330

  Outlying charge effect (a.u.)         =     0.0000943129
  Outlying charge effect (kcal/mol)     =     0.0591822682

  Dielectric Energy (a.u.)              =    -0.0012126299
  Dielectric energy corr. (a.u.)        =    -0.0011183171

  Sum of polarization charges           =     0.0298094885
  Sum of polarization charges(cor.)     =    -0.0298094885

  Total surface area of cavity (A**2)   =  163.92
  Total volume of cavity (A**3)         =  171.92

 =====================================================
 NPS=                   695
NR.  ATOM  (X, Y, Z)(a.u.)                  CHARGE(e)  AREA(A**2) SIGMA(e/A**2)
   1   1   1.786375   3.049986  11.961223   0.002034   0.371649   0.005473
   2   1   5.412823  -1.685625  10.019571   0.001090   0.325193   0.003352
   3   1   5.324311   3.623086  13.159667   0.001915   0.418105   0.004579
   4   1   3.754256   0.075942  12.891377   0.001509   0.371649   0.004061
   5   1   4.829057  -0.139293  12.892544   0.001632   0.371649   0.004390
   6   1   6.231087   3.054226  13.093106   0.001257   0.278737   0.004508
   7   1   6.012925  -1.426399  10.627996   0.000604   0.185824   0.003249
   8   1   6.971462   4.406950  11.652067   0.001230   0.232280   0.005297
   9   1   6.445552   4.079788  12.442065   0.002317   0.418105   0.005541
  10   1   5.011492   2.451136  13.535612   0.001579   0.464561   0.003399
  11   1   4.197454   1.110324  13.426135   0.001453   0.464561   0.003128
  12   1   4.380608  -0.944888  12.114146   0.002006   0.371649   0.005397
  13   1   4.655305  -1.602398  10.869495   0.001767   0.371649   0.004755
  14   1   4.357445  -1.737421   9.586142   0.001275   0.371649   0.003430
  15   1   3.962360   3.198690  13.306461   0.001209   0.371649   0.003253
  16   1   2.744393   3.091548  12.841031   0.001551   0.418105   0.003710
  17   1   2.197913   2.094429  12.619673   0.001730   0.464561   0.003724
  18   1   3.006018   1.015681  13.015906   0.000986   0.325193   0.003032
  19   1   5.149757   1.355880  13.487297   0.000837   0.278737   0.003001
  20   1   7.303023   3.671606  11.986954   0.000621   0.139368   0.004456
  21   1   6.457405  -1.328574   9.839241   0.000627   0.232280   0.002697
  22   1   5.299602  -1.258735  11.576575   0.001523   0.325193   0.004683
  23   1   3.720141  -1.488863   8.793875   0.000158   0.092912   0.001701
  24   1   3.518971   2.137943  13.379557   0.001078   0.418105   0.002577
  25   2   8.229211  -0.278770   8.045831   0.000073   0.046456   0.001566
  26   2   3.753175  -1.382587   7.233493   0.000121   0.092912   0.001298
  27   3  -0.029882   1.773304   3.367147   0.000155   0.092912   0.001666
  28   4  10.480640   6.241380   6.689979   0.000832   0.278737   0.002985
  29   4   7.957736   6.247014   9.246953   0.001614   0.325193   0.004964
  30   4   8.699229   5.863606   9.376905   0.001173   0.232280   0.005052
  31   4  10.461726   5.978493   7.611933   0.000865   0.232280   0.003725
  32   4   9.563042   0.785654   7.758496   0.000361   0.185824   0.001943
  33   4  11.000608   5.440754   6.860631   0.000536   0.185824   0.002885
  34   4   9.666915   6.780865   7.446555   0.001506   0.325193   0.004630
  35   4   8.878981   6.573262   8.618776   0.001725   0.278737   0.006189
  36   4   9.663213   6.951606   6.476646   0.001101   0.325193   0.003384
  37   4   9.682631   6.354316   8.261617   0.001489   0.278737   0.005343
  38   4  10.013708   0.972036   7.385288   0.000094   0.046456   0.002018
  39   5   4.426875   5.215252  -0.749107   0.000792   0.232280   0.003411
  40   5   1.602436   5.392302   0.610024   0.001010   0.185824   0.005435
  41   5   3.000400  -0.052850   1.412378   0.000224   0.092912   0.002415
  42   5   2.923230   0.166129   0.945566   0.000113   0.046456   0.002434
  43   5   2.112278   6.007060   0.753223   0.001035   0.185824   0.005572
  44   5   4.583451   5.835464  -0.293280   0.000923   0.278737   0.003311
  45   5   3.385033   5.108661  -0.730686   0.001516   0.325193   0.004663
  46   5   2.285933   5.474974   0.010322   0.001654   0.278737   0.005934
  47   5   3.832028   4.305591  -1.111293   0.000953   0.278737   0.003419
  48   5   2.422051   0.146207   1.574791   0.000097   0.046456   0.002099
  49   5   3.120708   5.744334  -0.217605   0.001442   0.278737   0.005173
  50   6  11.070438   2.753241   0.832698   0.001000   0.325193   0.003076
  51   6  12.281739   4.561456   3.932957   0.001880   0.371649   0.005057
  52   6  12.511513   3.568014   3.748691   0.001427   0.278737   0.005121
  53   6  11.696248   2.444065   1.546759   0.000853   0.232280   0.003672
  54   6  11.007182   1.732409   1.143340   0.000490   0.185824   0.002639
  55   6  11.674299   3.576946   1.409011   0.001489   0.325193   0.004578
  56   6  12.295827   4.009618   2.732209   0.001920   0.325193   0.005905
  57   6  12.169805   4.316332   4.955935   0.001314   0.371649   0.003535
  58   6  10.893958   3.991661   0.758322   0.000846   0.278737   0.003036
  59   6  11.622030   5.446718   4.831955   0.000576   0.185824   0.003101
  60   6  12.186551   3.474866   5.322544   0.000913   0.278737   0.003276
  61   6  12.146638   3.240853   2.123472   0.001475   0.278737   0.005293
  62   6  11.643451   5.071775   5.360210   0.000469   0.185824   0.002526
  63   7   9.639629   0.426873   0.325008   0.000806   0.278737   0.002891
  64   7   6.141367  -0.368394  -0.754201   0.001576   0.325193   0.004847
  65   7   6.686367   0.219989  -1.269110   0.001355   0.278737   0.004861
  66   7   9.137905   0.589978  -0.475701   0.000839   0.232280   0.003614
  67   7   7.029028   5.404689  -0.068401   0.000366   0.185824   0.001971
  68   7   9.809996   1.304860  -0.049965   0.000515   0.185824   0.002773
  69   7   8.730530  -0.352677   0.022619   0.001444   0.325193   0.004441
  70   7   7.373787  -0.443015  -0.666906   0.001841   0.325193   0.005661
  71   7   5.290520   0.480404  -1.093802   0.001678   0.464561   0.003611
  72   7   9.212221  -0.427070   0.878381   0.001043   0.325193   0.003206
  73   7   4.958528  -0.342875  -0.204995   0.001144   0.325193   0.003519
  74   7   5.260976   1.513328  -1.471563   0.000494   0.185824   0.002656
  75   7   8.267106  -0.012947  -0.695948   0.001429   0.278737   0.005126
  76   7   7.630571   5.361865   0.047506   0.000073   0.046456   0.001569
  77   8   7.787705   0.475387  12.658977  -0.002247   0.451437  -0.004978
  78   8   8.160416  -0.238177  10.638710  -0.001503   0.392554  -0.003830
  79   8   7.203430  -0.941326  11.238314  -0.000714   0.372926  -0.001914
  80   8   6.514784   0.179561  13.082708  -0.000816   0.372926  -0.002189
  81   8   7.503678   2.083887  12.893652  -0.000736   0.372926  -0.001973
  82   8   7.949676  -0.278384  11.752089  -0.001690   0.392554  -0.004306
  83   8   6.717349  -0.649176  12.329921  -0.001070   0.451437  -0.002370
  84   8   6.960520   1.206637  13.270455  -0.001226   0.451437  -0.002717
  85   8   8.240234   1.974536  12.225104  -0.001837   0.471065  -0.003899
  86   8   8.558289   0.737641  11.608572  -0.002269   0.431809  -0.005255
  87   9   3.562968   5.993221  11.556385  -0.002533   0.471065  -0.005377
  88   9   5.409438   5.344477  12.100832  -0.000301   0.255160  -0.001179
  89   9   3.610276   4.826137  12.641179  -0.000803   0.431809  -0.001860
  90   9   4.483026   6.305904  10.975101  -0.002102   0.372926  -0.005636
  91   9   5.390635   5.940268  11.282259  -0.001316   0.372926  -0.003530
  92   9   4.538883   5.409964  12.388813  -0.001283   0.431809  -0.002972
  93   9   2.677964   5.091599  11.908646  -0.001796   0.510320  -0.003518
  94  10   1.345562  -0.708494  10.991824  -0.002232   0.451437  -0.004944
  95  10   1.272690   0.944316  11.834385  -0.000717   0.353299  -0.002028
  96  10   2.546282  -0.968356  11.753671  -0.000849   0.392554  -0.002163
  97  10   2.585582  -1.533656   9.713408  -0.001012   0.412182  -0.002455
  98  10   0.865883  -0.208417   9.876200  -0.002342   0.412182  -0.005683
  99  10   0.817315   0.444179  11.059976  -0.001944   0.412182  -0.004716
 100  10   1.854933  -0.092038  12.089844  -0.001249   0.451437  -0.002767
 101  10   2.564047  -1.469964  10.859862  -0.001076   0.412182  -0.002609
 102  10   1.595389  -1.092800   9.778055  -0.001926   0.392554  -0.004906
 103  11   6.882632  -2.138035   5.979503  -0.001436   0.333671  -0.004304
 104  11   4.977606  -2.087893   6.106435  -0.000554   0.215905  -0.002566
 105  11   5.843909  -2.207212   7.390363  -0.000238   0.235532  -0.001012
 106  11   7.836341  -1.324039   7.402101  -0.000663   0.372926  -0.001778
 107  11   5.726391  -2.191212   5.688047  -0.000997   0.255160  -0.003908
 108  11   6.000293  -2.363977   6.578722  -0.000846   0.274788  -0.003078
 109  11   6.882856  -2.025201   7.444055  -0.000992   0.412182  -0.002407
 110  11   7.675597  -1.719225   6.411893  -0.001430   0.372926  -0.003835
 111  11   4.981466  -2.096455   6.947495  -0.000254   0.215905  -0.001178
 112  12  10.842661   3.472234   9.584081  -0.002117   0.451437  -0.004689
 113  12  11.464834   2.909040   8.143681  -0.000959   0.314043  -0.003053
 114  12  10.342610   1.597894   8.733950  -0.000832   0.314043  -0.002649
 115  12   9.863946   4.983128   9.674902  -0.000377   0.333671  -0.001129
 116  12  11.228594   4.717432   8.178593  -0.000458   0.333671  -0.001373
[...]
 436   5   4.222313   2.880927  -1.227265   0.000123   0.028447   0.004314
 437  15   3.932931   2.794439  -1.206043   0.000001   0.028447   0.000028
 438  18   4.942939   2.753720  -1.408616   0.000104   0.028447   0.003669
 439   5   2.050841   0.282949   1.793888   0.000133   0.049286   0.002701
 440  15   1.911383   0.430418   1.567751   0.000036   0.049286   0.000735
 441  21   1.774161   0.038423   2.445916   0.000133   0.049286   0.002690
 442   5   0.816433   4.773129   1.285728   0.000281   0.071790   0.003908
 443  15   0.779736   4.525089   1.112441   0.000110   0.071790   0.001537
 444  22   0.204952   5.008589   1.995047   0.000136   0.071790   0.001897
 445  15   1.074096   4.469619   0.425649   0.000038   0.066793   0.000564
 446  15   1.837731   4.509133  -0.333146  -0.000059   0.147193  -0.000399
 447  15   2.777397   3.925742  -1.024835  -0.000143   0.147193  -0.000968
 448  15   3.360365   3.050191  -1.257275  -0.000052   0.066793  -0.000774
 449   5   1.514291   4.850783   0.336864   0.000186   0.147483   0.001264
 450   5   2.594731   4.616828  -0.625729   0.000202   0.147483   0.001368
 451   5   3.521512   3.604602  -1.140653   0.000027   0.147483   0.000183
 452  15   2.472777   0.497888   0.584472  -0.000246   0.121538  -0.002027
 453   5   2.558824   0.327984   1.051598  -0.000048   0.148485  -0.000324
 454  18   5.489536   3.075618  -1.685745  -0.000087   0.199063  -0.000439
 455  18   6.110098   4.302621  -1.275857  -0.000714   0.407373  -0.001752
 456   5   4.711195   3.892206  -1.178190   0.001294   0.545359   0.002372
 457   5   5.485762   5.208665  -0.604404   0.000791   0.280394   0.002822
 458   5   3.344597  -0.362478   2.205201   0.000217   0.157768   0.001372
 459  19   4.007720  -0.719774   2.179234   0.000109   0.157768   0.000691
 460  21   2.984406  -0.557431   2.836971   0.000142   0.157768   0.000902
 461  19   4.426890  -0.957116   1.550919  -0.000079   0.133217  -0.000590
 462   5   3.507219  -0.318102   1.448441   0.000409   0.187825   0.002178
 463  21   1.939293  -0.456469   2.901588  -0.000171   0.195982  -0.000873
 464   5   2.600593  -0.151698   2.036400   0.000663   0.276158   0.002399
 465  22   0.340359   6.350508   2.576329  -0.000126   0.206989  -0.000608
 466  22  -0.127179   5.616568   2.287837  -0.000326   0.206989  -0.001573
 467   5   1.151222   5.673800   1.527118   0.002125   0.578679   0.003673
 468   6  10.624869   0.919846   1.436464   0.000069   0.027848   0.002460
 469   7  10.247357   0.766279   1.142795   0.000109   0.027848   0.003932
 470  16  10.793353   0.809706   1.663330   0.000012   0.027848   0.000428
 471   6  10.247527   2.487725   0.265407   0.000103   0.027426   0.003764
 472   7   9.930895   2.307630  -0.080479   0.000062   0.027426   0.002269
 473  18   9.784410   2.404115  -0.327730   0.000005   0.027426   0.000190
 474   7  10.057687   1.631652   0.340090   0.000360   0.301119   0.001196
 475   6  10.563001   1.569374   0.960914   0.000345   0.301119   0.001144
 476   6  11.733895   2.722114   6.074604   0.000150   0.049812   0.003019
 477  12  11.496245   2.830351   6.785366   0.000171   0.049812   0.003424
 478  16  11.801751   2.463371   5.930508  -0.000010   0.049812  -0.000204
 479  12  11.475700   3.516081   7.239080  -0.000353   0.291476  -0.001212
 480   6  11.733208   3.741906   6.133694   0.000928   0.409956   0.002263
 481  16  11.266081   0.984657   1.848078  -0.000047   0.067070  -0.000707
 482  16  11.931364   1.779111   2.157976  -0.000133   0.147930  -0.000896
 483  16  12.473279   2.499740   3.107609  -0.000003   0.147930  -0.000020
 484  16  12.510661   2.679230   4.404208  -0.000118   0.147930  -0.000795
 485  16  12.181577   2.407168   5.397928  -0.000049   0.067070  -0.000725
 486   6  11.322853   1.541363   1.660824  -0.000007   0.147969  -0.000047
 487   6  12.137319   2.547685   2.360078   0.000264   0.147969   0.001781
 488   6  12.479879   3.079960   3.688360   0.000224   0.147969   0.001515
 489   6  12.217133   2.930909   5.128410  -0.000002   0.147969  -0.000014
 490   6   9.993026   4.409567   0.379549   0.000129   0.048405   0.002665
 491  17  10.038568   4.687598   0.493297   0.000024   0.048405   0.000494
 492  18   9.505709   4.156743  -0.140507   0.000109   0.048405   0.002258
 493  17  11.083935   6.270170   4.428775  -0.000035   0.066753  -0.000526
 494  17  11.718502   5.690893   3.780256  -0.000099   0.147079  -0.000676
 495  17  11.928191   5.094237   2.640311  -0.000016   0.147079  -0.000107
 496  17  11.400572   4.830836   1.477691  -0.000099   0.147079  -0.000673
 497  17  10.580739   4.908936   0.784447  -0.000041   0.066753  -0.000612
 498   6  11.384920   5.772878   4.522985  -0.000014   0.147421  -0.000093
 499   6  12.020786   5.006572   3.448634   0.000266   0.147421   0.001802
 500   6  11.832877   4.498243   2.087724   0.000283   0.147421   0.001918
 501   6  10.893637   4.443871   0.964935   0.000047   0.147421   0.000320
 502  18   9.468064   3.674944  -0.593268  -0.000157   0.170729  -0.000917
 503  18   9.710567   2.749981  -0.541886  -0.000067   0.170729  -0.000393
 504   6  10.278901   3.440061   0.274991   0.000976   0.470788   0.002073
 505   7   7.188366   5.885488   0.912925   0.000191   0.161603   0.001182
 506  14   6.596850   6.263402   1.173233   0.000080   0.161603   0.000497
 507  17   7.774387   6.160456   1.307771   0.000108   0.161603   0.000667
 508  14   5.931244   6.425238   0.789049  -0.000133   0.135701  -0.000981
 509   7   6.686245   5.754167   0.312296   0.000385   0.191401   0.002011
 510   7   4.886482   2.419154  -1.373649   0.000110   0.029262   0.003776
 511  15   4.161648   2.548619  -1.205240   0.000106   0.029262   0.003639
 512  18   5.149424   2.504173  -1.497032  -0.000009   0.029262  -0.000317
 513  15   3.554999   2.220953  -1.169947  -0.000105   0.197074  -0.000535
 514  15   3.223606   1.051064  -0.437722  -0.000675   0.403001  -0.001674
 515   7   4.497698   1.433093  -1.031165   0.001242   0.540205   0.002298
 516   7   4.109343   0.188258  -0.079814   0.000810   0.277574   0.002917
 517   7   9.220846  -0.647812   2.142428   0.000159   0.046918   0.003388
 518  16   9.781665  -0.424917   2.595472   0.000153   0.046918   0.003255
 519  19   8.990460  -0.843040   2.177847  -0.000010   0.046918  -0.000224
 520  16  10.411253  -0.199136   2.539707  -0.000082   0.177804  -0.000459
 521  16  10.816710   0.471497   1.921959  -0.000036   0.177804  -0.000203
 522   7   9.787025  -0.027466   1.510405   0.000968   0.489483   0.001978
 523   7   8.129604   5.226857   0.085164   0.000106   0.047620   0.002217
 524  17   8.652095   5.540696   0.529136   0.000123   0.047620   0.002593
 525  18   8.151084   5.059783  -0.167391  -0.000033   0.047620  -0.000690
 526  17   8.703728   6.070333   0.942329  -0.000193   0.180329  -0.001068
 527   7   7.757930   5.660867   0.466077   0.000557   0.254066   0.002191
 528  18   7.232835   4.920127  -0.765599  -0.000244   0.117178  -0.002082
 529   7   7.363969   5.124880  -0.328965  -0.000096   0.143159  -0.000669
 530  18   9.551741   2.103927  -0.727681  -0.000069   0.071427  -0.000964
 531  18   8.884056   1.247691  -1.099338  -0.000203   0.159664  -0.001269
 532  18   7.636159   0.834861  -1.537011  -0.000090   0.159664  -0.000567
 533  18   6.363563   1.322019  -1.786833  -0.000180   0.159664  -0.001128
 534  18   5.647764   2.219054  -1.792537  -0.000064   0.071427  -0.000899
 535   7   9.445071   1.541931  -0.523341  -0.000071   0.155571  -0.000454
 536   7   8.301432   0.622963  -1.041432   0.000226   0.155571   0.001451
 537   7   6.800975   0.667211  -1.450700   0.000173   0.155571   0.001109
 538   7   5.605005   1.655173  -1.570765  -0.000023   0.155571  -0.000146
 539  19   4.785607  -0.987293   0.904781  -0.000052   0.067837  -0.000772
 540  19   5.655982  -1.079290   0.251960  -0.000140   0.149884  -0.000934
 541  19   6.966033  -1.163382   0.100845  -0.000053   0.149884  -0.000356
 542  19   8.109487  -1.184862   0.762804  -0.000119   0.149884  -0.000794
 543  19   8.652062  -1.153662   1.709816  -0.000054   0.067837  -0.000790
 544   7   4.944968  -0.690772   0.416372  -0.000057   0.149414  -0.000379
 545   7   6.286770  -0.807632  -0.208289   0.000219   0.149414   0.001464
 546   7   7.738996  -0.870120   0.094079   0.000249   0.149414   0.001664
 547   7   8.725488  -0.853444   1.203515   0.000038   0.149414   0.000253
 548  11   7.587625  -1.051375   8.386737   0.000341   0.135216   0.002521
 549   8   7.606017  -0.717875   9.788420   0.000310   0.135216   0.002292
 550  12   9.324276   3.498159  10.516131   0.000040   0.230483   0.000173
 551  12   9.728047   2.563750  10.213446  -0.000483   0.460844  -0.001048
 552  12   9.705111   1.521040   9.438163  -0.000097   0.460844  -0.000210
 553   8   8.596161   2.439790  11.393350   0.000060   0.460844   0.000130
 554   8   8.899935   1.299375  10.849284  -0.000369   0.460844  -0.000800
 555   8   8.713878   0.541359  10.129169   0.000044   0.230483   0.000191
 556   9   4.760503   6.420298   9.340844  -0.000095   0.320808  -0.000298
 557  13   5.381479   6.836605   8.463631  -0.000136   0.320808  -0.000425
 558  24   4.347315   6.996479   8.497890  -0.000431   0.320808  -0.001344
 559  13   6.219868   6.922663   8.812289   0.000404   0.357629   0.001129
 560   9   5.500520   6.283051  10.146193   0.000022   0.357629   0.000061
 561   9   1.843281   5.285602  10.542055   0.000181   0.087846   0.002058
 562  20   1.121294   5.598243   9.941587   0.000195   0.087846   0.002224
 563  23   0.951712   5.362638  10.036547   0.000013   0.087846   0.000148
 564   9   2.857533   6.299023   9.991147   0.000139   0.086859   0.001604
 565  20   2.237013   6.720926   9.346393   0.000324   0.086859   0.003725
 566  24   2.426566   6.913811   9.202386  -0.000017   0.086859  -0.000193
 567  20   1.561072   6.192576   9.838266   0.001828   0.496733   0.003680
 568   9   2.700004   5.879676  10.729289  -0.000987   0.350530  -0.002816
 569  23   0.671522   4.826092  10.422198   0.000201   0.320584   0.000626
 570   9   1.944551   4.956326  11.166079   0.000196   0.320584   0.000612
 571  24   2.790398   7.230880   9.190374   0.000366   0.278961   0.001311
 572  24   3.659267   7.352076   8.842675  -0.000037   0.278961  -0.000134
 573   9   3.814711   6.477513  10.206858  -0.000967   0.557898  -0.001734
 574  10   0.879643   0.573470   8.356049   0.000163   0.247416   0.000657
 575  20   0.304268   1.136572   7.577211   0.000522   0.247416   0.002109
 576  21   0.594900   0.552765   7.203668   0.000349   0.247416   0.001410
 577  10   0.618741   0.918132   8.730710   0.000019   0.094665   0.000200
 578  20   0.042020   1.456809   7.945511  -0.000014   0.094665  -0.000145
 579  23  -0.050261   1.552564   8.220850  -0.000214   0.094665  -0.002265
 580  20  -0.040416   1.230169   7.832621   0.000053   0.006107   0.008686
 581  21   1.911886  -1.116078   6.822803   0.000439   0.281934   0.001555
 582  21   0.971628  -0.449922   7.012727   0.000556   0.563473   0.000987
 583  10   1.856329  -0.906785   8.561608  -0.000077   0.563473  -0.000136
 584  10   0.979113  -0.156787   8.740253   0.000026   0.281934   0.000091
 585  23  -0.294231   1.550812   8.596866   0.000120   0.231029   0.000518
 586  23  -0.389622   2.105558   9.497089  -0.000773   0.461930  -0.001674
 587  23  -0.139381   2.830136  10.231670  -0.000241   0.231029  -0.001044
 588  10   0.493245   0.728863   9.663631  -0.000497   0.461930  -0.001075
 589  10   0.589892   1.527336  10.683972   0.000033   0.461930   0.000073
 590  11   8.026780  -0.942003   4.912545  -0.000113   0.295879  -0.000383
 591  16   8.993260  -0.538887   4.318371   0.000450   0.295879   0.001520
 592  19   8.183545  -0.961255   3.913942  -0.000001   0.295879  -0.000004
 593  16   9.960669  -0.238027   5.589491   0.000439   0.290077   0.001515
 594  16   9.638024  -0.600020   4.818318   0.000458   0.290077   0.001579
 595  11   8.409945  -0.969597   6.043648   0.000030   0.579726   0.000051
 596  11   4.746587  -1.367896   4.732658  -0.000074   0.290969  -0.000253
 597  19   4.899217  -1.297653   3.736303  -0.000033   0.290969  -0.000114
 598  21   3.868654  -1.142968   4.397260   0.000359   0.290969   0.001234
 599  19   7.713531  -1.577382   3.744322  -0.000045   0.236671  -0.000190
 600  19   6.648884  -1.937127   3.597442  -0.000763   0.473398  -0.001611
 601  19   5.530399  -1.826923   3.451460  -0.000229   0.236671  -0.000969
 602  11   7.129335  -1.766723   5.104035  -0.000761   0.473398  -0.001607
 603  11   5.767562  -1.922379   4.921357  -0.000573   0.473398  -0.001211
 604  21   3.243552  -1.472561   4.904299   0.000260   0.226408   0.001149
 605  21   2.923022  -1.504649   5.704824   0.000290   0.226408   0.001282
 606  11   4.334500  -1.715975   5.796433   0.000278   0.452961   0.000614
 607  16  11.850565   2.007693   6.036799   0.000390   0.288942   0.001350
 608  16  11.286272   1.125349   6.235175   0.000305   0.288942   0.001057
 609  12  11.162666   2.101702   7.362194   0.000145   0.578801   0.000251
 610  13   7.092629   7.104676   4.234348   0.000151   0.317174   0.000476
 611  14   6.473844   6.995565   3.313712   0.000069   0.317174   0.000216
 612  17   7.662027   6.919191   3.446052   0.000379   0.317174   0.001195
 613  13   5.392826   7.476505   5.210845  -0.000476   0.305860  -0.001555
 614  14   4.782702   7.405714   4.281164  -0.000140   0.305860  -0.000458
 615  24   4.359419   7.636694   5.235196  -0.000354   0.305860  -0.001156
 616  14   5.418322   7.545824   3.563445  -0.000382   0.411943  -0.000928
 617  13   6.468935   7.594134   4.761400  -0.000193   0.411943  -0.000469
 618  17   8.464313   7.290869   3.628962   0.000253   0.261607   0.000968
 619  17   9.256141   7.310026   4.192497   0.000333   0.261607   0.001271
 620  13   8.056946   7.504860   5.032478   0.000202   0.523636   0.000385
 621  24   4.251978   7.716995   8.071574  -0.000462   0.245892  -0.001877
 622  24   4.289743   8.164870   7.021562  -0.001424   0.491776  -0.002896
 623  24   4.256327   8.141663   5.880121  -0.000402   0.245892  -0.001636
 624  13   5.731946   7.702067   7.643899  -0.001099   0.491776  -0.002234
 625  13   5.734659   7.966965   6.276921  -0.001236   0.491776  -0.002514
 626  17   8.050538   6.732062   1.622266   0.000441   0.353577   0.001248
 627  17   7.968390   7.127691   2.648169   0.000459   0.353577   0.001299
 628  14   6.318081   7.032823   1.960081  -0.000345   0.707243  -0.000488
 629  14   1.916998   6.849734   2.604049   0.000245   0.068073   0.003604
 630  20   1.200313   6.955269   3.164949   0.000147   0.068073   0.002164
 631  22   0.924920   6.844141   3.097628  -0.000026   0.068073  -0.000375
 632  14   3.161420   7.613738   3.676652   0.000134   0.076378   0.001756
 633  20   2.578337   7.793617   4.360796   0.000167   0.076378   0.002180
 634  24   2.735172   7.897813   4.601520   0.000072   0.076378   0.000944
 635  20   2.236952   7.784483   3.952576   0.001150   0.287601   0.004000
 636  20   1.523858   7.336161   3.313595   0.001129   0.287601   0.003924
 637  14   2.834857   7.404358   2.677357  -0.000669   0.411878  -0.001624
 638  22   0.702356   6.843548   2.838028   0.000344   0.135424   0.002540
 639  14   2.065221   6.883511   2.024188   0.000399   0.135424   0.002948
 640  24   3.496610   8.058583   4.961950   0.000121   0.433078   0.000279
 641  14   3.876877   7.771402   3.506936  -0.000338   0.433078  -0.000781
 642  18   5.206091   2.597204  -1.723177   0.000198   0.049474   0.004010
 643  15   3.778284   2.686430  -1.371206   0.000204   0.049474   0.004124
 644  21   0.508390   0.636430   2.888244   0.000422   0.281216   0.001500
 645  21   1.259263  -0.060173   2.675285   0.000373   0.281216   0.001327
 646  15   1.128765   0.921771   1.572708   0.000107   0.563251   0.000191
 647  22  -0.441925   4.976125   2.139097   0.000036   0.284982   0.000127
 648  22  -0.744517   3.906778   2.578850  -0.000172   0.569659  -0.000302
 649  15   0.312789   3.824125   1.101493   0.000584   0.569659   0.001025
 650  15   0.099919   2.761335   1.605091   0.000321   0.284982   0.001126
 651  19   8.885583  -1.142701   2.444615   0.000392   0.238422   0.001643
 652  19   8.528986  -1.238115   3.244904   0.000249   0.238422   0.001044
 653  16   9.860072  -0.623688   3.425991   0.000386   0.476959   0.000810
 654  18   8.460813   4.952415  -0.452338   0.000330   0.256895   0.001286
 655  18   9.196411   4.359739  -0.551845   0.000303   0.256895   0.001178
 656  17   9.539353   5.374507   0.472957   0.000262   0.514109   0.000510
 657  21   2.838602  -1.054476   3.229850   0.000463   0.281438   0.001646
 658  21   3.248951  -1.341793   3.939149   0.000433   0.281438   0.001540
 659  19   4.519812  -1.404375   2.647031   0.000114   0.562334   0.000203
 660  21   0.075446   0.453361   6.402890  -0.000063   0.213109  -0.000295
 661  21  -0.299471   0.855361   4.952283  -0.000952   0.439012  -0.002169
 662  20  -0.615699   1.473687   6.275005   0.001204   0.581352   0.002070
 663  20  -0.870106   1.969458   4.601798   0.000785   0.300410   0.002615
 664  22  -1.230464   3.316924   3.679516  -0.000108   0.070344  -0.001534
 665  22  -1.917214   3.681601   4.501502  -0.000233   0.156721  -0.001485
 666  22  -2.348169   4.711887   5.289654  -0.000106   0.156721  -0.000678
 667  22  -2.139477   6.041333   5.529269  -0.000219   0.156721  -0.001400
 668  22  -1.380443   7.101033   5.117810  -0.000270   0.156721  -0.001721
 669  22  -0.395877   7.437512   4.231352  -0.000119   0.156721  -0.000758
 670  22   0.309846   7.119678   3.405996  -0.000033   0.070344  -0.000470
 671  20  -1.358628   3.105185   4.229455  -0.000122   0.153697  -0.000793
 672  20  -2.141412   3.889981   5.291816   0.000137   0.153697   0.000891
 673  20  -2.273505   5.292383   5.902623   0.000115   0.153697   0.000749
 674  20  -1.698379   6.712266   5.800495  -0.000015   0.153697  -0.000101
 675  20  -0.662148   7.542023   5.029136   0.000069   0.153697   0.000450
 676  20   0.391757   7.426578   3.918630   0.000162   0.153697   0.001052
 677  23   0.268259   5.571297   9.821299  -0.000044   0.070222  -0.000623
 678  23  -0.722629   5.649907   9.278056  -0.000232   0.156589  -0.001479
 679  23  -1.680041   5.050866   8.505621  -0.000224   0.156589  -0.001432
 680  23  -1.980453   3.863032   7.896567  -0.000185   0.156589  -0.001183
 681  23  -1.494687   2.597173   7.712784  -0.000219   0.156589  -0.001399
 682  23  -0.675547   1.839464   7.907824  -0.000131   0.070222  -0.001862
 683  20   0.043704   5.975844   9.435424   0.000021   0.153279   0.000138
 684  20  -1.240426   5.766768   8.617377  -0.000049   0.153279  -0.000318
 685  20  -1.988161   4.704530   7.796128   0.000085   0.153279   0.000555
 686  20  -1.877973   3.245892   7.324813   0.000122   0.153279   0.000797
 687  20  -0.957245   2.018065   7.406095  -0.000080   0.153279  -0.000522
 688  24   2.312496   8.267511   5.105876   0.000035   0.074491   0.000475
 689  24   1.535735   8.496618   5.980922  -0.000229   0.168081  -0.001362
 690  24   1.204373   8.324859   7.367787  -0.000290   0.168081  -0.001723
 691  24   1.730117   7.698408   8.548402  -0.000332   0.168081  -0.001974
 692  20   1.697073   8.217776   5.161487   0.000133   0.160839   0.000830
 693  20   0.882523   8.333282   6.548277  -0.000058   0.160839  -0.000359
 694  20   0.998793   7.855828   8.084030  -0.000075   0.160839  -0.000464
 695  20   1.689759   7.203180   8.993761   0.000156   0.091007   0.001714
 =====================================================

              5551409  WORDS OF DYNAMIC MEMORY USED
 EXECUTION OF GAMESS TERMINATED NORMALLY Wed Nov 23 21:36:04 2016
 DDI: 263640 bytes (0.3 MB / 0 MWords) used by master data server.

 ----------------------------------------
 CPU timing information for all processes
 ========================================
 0: 2114.336 + 0.576 = 2114.912
 ----------------------------------------
 ddikick.x: exited gracefully.
