----- GAMESS execution script -----

          ******************************************************
          *         GAMESS VERSION =  5 DEC 2014 (R1)          *
          *             FROM IOWA STATE UNIVERSITY             *
          * M.W.SCHMIDT, K.K.BALDRIDGE, J.A.BOATZ, S.T.ELBERT, *
          *   M.S.GORDON, J.H.JENSEN, S.KOSEKI, N.MATSUNAGA,   *
          *          K.A.NGUYEN, S.J.SU, T.L.WINDUS,           *
          *       TOGETHER WITH M.DUPUIS, J.A.MONTGOMERY       *
          *         J.COMPUT.CHEM.  14, 1347-1363(1993)        *
          **************** 64 BIT LINUX VERSION ****************

 EXECUTION OF GAMESS BEGUN Wed Nov 23 21:51:20 2016

            ECHO OF THE FIRST FEW INPUT CARDS -
 INPUT CARD>! SELECT RESTRICTED HARTREE-FOCK AS DEFAULT                                     
 INPUT CARD>$contrl scftyp=rhf $end                                                         
 INPUT CARD>                                                                                
 INPUT CARD>! THEORY: HF OR DFT                                                             
 INPUT CARD> $contrl mplevl=0 $end                                                          
 INPUT CARD>                                                                                
 INPUT CARD> $system timlim=10000 mwords=20 $end                                            
 INPUT CARD> $SCF DIRSCF=.TRUE. $end                                                        
 INPUT CARD>                                                                                
 INPUT CARD>                                                                                
 INPUT CARD>! BASIS SETS                                                                    
 INPUT CARD>! 6-311G(d,p)                                                                   
 INPUT CARD> $BASIS GBASIS=N311 NGAUSS=6 NDFUNC=1 NPFUNC=1 $END                             
 INPUT CARD>                                                                                
 INPUT CARD>! One of the following                                                          
 INPUT CARD> $guess guess=HUCKEL $end                                                       
 INPUT CARD>                                                                                
 INPUT CARD> $statpt projct=.FALSE. $end                                                    
 INPUT CARD> $STATPT IFREEZ(1)=1,2,3 $END                                                   
 INPUT CARD>                                                                                
 INPUT CARD>! Optimize the geometry with COSMO effects                                      
 INPUT CARD> $statpt opttol=0.0005 nstep=50 $end                                            
 INPUT CARD> $contrl nzvar=1 $end                                                           
 INPUT CARD> $zmat dlc=.t. auto=.t. $end                                                    
 INPUT CARD> $contrl runtyp=OPTIMIZE maxit=200 $end                                         
 INPUT CARD>                                                                                
 INPUT CARD>! Run COSMO on perfect conductor                                                
 INPUT CARD> $COSGMS PRFCND=.TRUE. $end                                                     
 INPUT CARD>                                                                                
 INPUT CARD>! Specifying RSOLV                                                              
 INPUT CARD> $COSGMS COSRAD = 1.4 $end                                                      
 INPUT CARD>                                                                                
 INPUT CARD>! available memory                                                              
 INPUT CARD> $SYSTEM MWORDS=40 $END                                                         
 INPUT CARD>                                                                                
 INPUT CARD> $DATA                                                                          
 INPUT CARD>C6H12 Cyclohexane 110827                                                        
 INPUT CARD>C1                                                                              
 INPUT CARD>C      6.0      0.0000000000   -1.4672000000    0.2293000000                    
 INPUT CARD>C      6.0     -1.2706000000    0.7336000000    0.2293000000                    
 INPUT CARD>C      6.0      1.2706000000    0.7336000000    0.2293000000                    
 INPUT CARD>C      6.0      0.0000000000    1.4672000000   -0.2293000000                    
 INPUT CARD>C      6.0     -1.2706000000   -0.7336000000   -0.2293000000                    
 INPUT CARD>C      6.0      1.2706000000   -0.7336000000   -0.2293000000                    
 INPUT CARD>H      1.0      0.0000000000   -1.5355000000    1.3276000000                    
 INPUT CARD>H      1.0     -1.3298000000    0.7677000000    1.3276000000                    
 INPUT CARD>H      1.0      1.3298000000    0.7677000000    1.3276000000                    
 INPUT CARD>H      1.0      0.0000000000    1.5355000000   -1.3276000000                    
 INPUT CARD>H      1.0     -1.3298000000   -0.7677000000   -1.3276000000                    
 INPUT CARD>H      1.0      1.3298000000   -0.7677000000   -1.3276000000                    
   40000000 WORDS OF MEMORY AVAILABLE

     BASIS OPTIONS
     -------------
     GBASIS=N311         IGAUSS=       6      POLAR=POPN311 
     NDFUNC=       1     NFFUNC=       0     DIFFSP=       F
     NPFUNC=       1      DIFFS=       F     BASNAM=        


     RUN TITLE
     ---------
 C6H12 Cyclohexane 110827                                                        

 THE POINT GROUP OF THE MOLECULE IS C1      
 THE ORDER OF THE PRINCIPAL AXIS IS     0

 ATOM      ATOMIC                      COORDINATES (BOHR)
           CHARGE         X                   Y                   Z
 C           6.0     0.0000000000       -2.7726059692        0.4333141690
 C           6.0    -2.4010858400        1.3863029846        0.4333141690
 C           6.0     2.4010858400        1.3863029846        0.4333141690
 C           6.0     0.0000000000        2.7726059692       -0.4333141690
 C           6.0    -2.4010858400       -1.3863029846       -0.4333141690
 C           6.0     2.4010858400       -1.3863029846       -0.4333141690
 H           1.0     0.0000000000       -2.9016742541        2.5088002213
 H           1.0    -2.5129576185        1.4507426408        2.5088002213
 H           1.0     2.5129576185        1.4507426408        2.5088002213
 H           1.0     0.0000000000        2.9016742541       -2.5088002213
 H           1.0    -2.5129576185       -1.4507426408       -2.5088002213
 H           1.0     2.5129576185       -1.4507426408       -2.5088002213
 H           1.0     0.0000000000       -4.7214803803       -0.2770338298
 H           1.0    -4.0889890922        2.3608346765       -0.2770338298
 H           1.0     4.0889890922        2.3608346765       -0.2770338298
 H           1.0     0.0000000000        4.7214803803        0.2770338298
 H           1.0    -4.0889890922       -2.3608346765        0.2770338298
 H           1.0     4.0889890922       -2.3608346765        0.2770338298

          INTERNUCLEAR DISTANCES (ANGS.)




     $CONTRL OPTIONS
     ---------------
 SCFTYP=RHF          RUNTYP=OPTIMIZE     EXETYP=RUN     
 MPLEVL=       0     CITYP =NONE         CCTYP =NONE         VBTYP =NONE    
 DFTTYP=NONE         TDDFT =NONE    
 MULT  =       1     ICHARG=       0     NZVAR =       1     COORD =UNIQUE  
 PP    =NONE         RELWFN=NONE         LOCAL =NONE         NUMGRD=       F
 ISPHER=      -1     NOSYM =       0     MAXIT =     200     UNITS =ANGS    
 PLTORB=       F     MOLPLT=       F     AIMPAC=       F     FRIEND=        
 NPRINT=       7     IREST =       0     GEOM  =INPUT   
 NORMF =       0     NORMP =       0     ITOL  =      20     ICUT  =       9
 INTTYP=BEST         GRDTYP=BEST         QMTTOL= 1.0E-06

     $SYSTEM OPTIONS
     ---------------
  REPLICATED MEMORY=    40000000 WORDS (ON EVERY NODE).
 DISTRIBUTED MEMDDI=           0 MILLION WORDS IN AGGREGATE,
 MEMDDI DISTRIBUTED OVER   1 PROCESSORS IS           0 WORDS/PROCESSOR.
 TOTAL MEMORY REQUESTED ON EACH PROCESSOR=    40000000 WORDS.
 TIMLIM=       10000.00 MINUTES, OR       6.9 DAYS.
 PARALL= F  BALTYP=  DLB     KDIAG=    0  COREFL= F
 MXSEQ2=     300 MXSEQ3=     150  mem10=         0

     $COSGMS OPTIONS
     ---------------
     EPSI  =   INFTY     NSPA  =      92     COSRAD=    1.40
     DISEX =   10.00     OUTCHG=DBLCAV       COSBUG=       F
     COSWRT=       F     DCOSMO=       F

     SYMMETRY COORDINATES WILL NOT BE USED FOR 
     THE COSMO CALCULATION, EVEN IF SPECIFIED:
         -- SWITCHING TO C1 POINT GROUP --


     DEFINITION OF CAVITY
     ---------------------------
     ATOM         COORDINATES           RADIUS 
     1    0.0000   -2.7726    0.4333    2.0000
     2   -2.4011    1.3863    0.4333    2.0000
     3    2.4011    1.3863    0.4333    2.0000
     4    0.0000    2.7726   -0.4333    2.0000
     5   -2.4011   -1.3863   -0.4333    2.0000
     6    2.4011   -1.3863   -0.4333    2.0000
     7    0.0000   -2.9017    2.5088    1.3000
     8   -2.5130    1.4507    2.5088    1.3000
     9    2.5130    1.4507    2.5088    1.3000
    10    0.0000    2.9017   -2.5088    1.3000
    11   -2.5130   -1.4507   -2.5088    1.3000
    12    2.5130   -1.4507   -2.5088    1.3000
    13    0.0000   -4.7215   -0.2770    1.3000
    14   -4.0890    2.3608   -0.2770    1.3000
    15    4.0890    2.3608   -0.2770    1.3000
    16    0.0000    4.7215    0.2770    1.3000
    17   -4.0890   -2.3608    0.2770    1.3000
    18    4.0890   -2.3608    0.2770    1.3000

          ----------------
          PROPERTIES INPUT
          ----------------

     MOMENTS            FIELD           POTENTIAL          DENSITY
 IEMOM =       1   IEFLD =       0   IEPOT =       0   IEDEN =       0
 WHERE =COMASS     WHERE =NUCLEI     WHERE =NUCLEI     WHERE =NUCLEI  
 OUTPUT=BOTH       OUTPUT=BOTH       OUTPUT=BOTH       OUTPUT=BOTH    
 IEMINT=       0   IEFINT=       0                     IEDINT=       0
                                                       MORB  =       0
          EXTRAPOLATION IN EFFECT
          SOSCF IN EFFECT
 ORBITAL PRINTING OPTION: NPREO=     1   186     2     1

     -------------------------------
     INTEGRAL TRANSFORMATION OPTIONS
     -------------------------------
     NWORD  =            0
     CUTOFF = 1.0E-09     MPTRAN =       0
     DIRTRF =       T     AOINTS =DUP     

          ----------------------
          INTEGRAL INPUT OPTIONS
          ----------------------
 NOPK  =       1 NORDER=       0 SCHWRZ=       T


 -----------------------------------------------
  STATISTICS ON AUTOMATIC COORDINATE GENERATION 
 -----------------------------------------------
  NUMBER OF USER SPECIFIED BONDS                             0
  NUMBER OF BONDS                                           18
  NUMBER OF ANGLES                                          36
  NUMBER OF TORSIONS                                        54
  NUMBER OF EXTRA COORD.                                     0
  NUMBER OF EXTRA COORD. FOR CONSTRAINTS                     0
  NUMBER OF CONSTRAINED COORD.                               0

  TOTAL NUMBER OF PRIMITIVES                               108
 -----------------------------------------------

   --- ENCODED Z MATRIX ---
 COORD  TYPE   I   J   K   L   M   N
    1      1    1   6
    2      1    1   7
    3      1    1   5
    4      1    1  13
    5      1    2   5
    6      1    2   8
    7      1    2  14
    8      1    2   4
    9      1    3  15
   10      1    3   6
   11      1    3   9
   12      1    3   4
   13      1    4  10
   14      1    4  16
   15      1    5  11
   16      1    5  17
   17      1    6  12
   18      1    6  18
   19      2    1   6  12
   20      2    1   6  18
   21      2    1   5  17
   22      2    1   5  11
   23      2    1   5   2
   24      2    1   6   3
   25      2    2   5  17
   26      2    2   4  16
   27      2    2   4  10
   28      2    2   4   3
   29      2    2   5  11
   30      2    3   6  18
   31      2    3   6  12
   32      2    3   4  16
   33      2    3   4  10
   34      2    4   2   5
   35      2    4   3  15
   36      2    4   3   6
   37      2    4   2  14
   38      2    4   2   8
   39      2    4   3   9
   40      2    5   2  14
   41      2    5   1   7
   42      2    5   2   8
   43      2    5   1  13
   44      2    5   1   6
   45      2    6   3   9
   46      2    6   3  15
   47      2    6   1  13
   48      2    6   1   7
   49      2    7   1  13
   50      2    8   2  14
   51      2    9   3  15
   52      2   10   4  16
   53      2   11   5  17
   54      2   12   6  18
   55      3    1   6   3   4
   56      3    1   6   3   9
   57      3    1   6   3  15
   58      3    1   5   2   4
   59      3    1   5   2  14
   60      3    1   5   2   8
   61      3    2   5   1  13
   62      3    2   5   1   7
   63      3    2   5   1   6
   64      3    2   4   3   9
   65      3    2   4   3   6
   66      3    2   4   3  15
   67      3    3   6   1  13
   68      3    3   6   1   5
   69      3    3   6   1   7
   70      3    3   4   2  14
   71      3    3   4   2   8
   72      3    3   4   2   5
   73      3    4   2   5  17
   74      3    4   3   6  12
   75      3    4   3   6  18
   76      3    4   2   5  11
   77      3    5   2   4  10
   78      3    5   2   4  16
   79      3    5   1   6  12
   80      3    5   1   6  18
   81      3    6   1   5  17
   82      3    6   3   4  10
   83      3    6   3   4  16
   84      3    6   1   5  11
   85      3    7   1   5  11
   86      3    7   1   6  18
   87      3    7   1   5  17
   88      3    7   1   6  12
   89      3    8   2   4  16
   90      3    8   2   5  17
   91      3    8   2   5  11
   92      3    8   2   4  10
   93      3    9   3   4  10
   94      3    9   3   4  16
   95      3    9   3   6  12
   96      3    9   3   6  18
   97      3   10   4   3  15
   98      3   10   4   2  14
   99      3   11   5   1  13
  100      3   11   5   2  14
  101      3   12   6   1  13
  102      3   12   6   3  15
  103      3   13   1   6  18
  104      3   13   1   5  17
  105      3   14   2   4  16
  106      3   14   2   5  17
  107      3   15   3   4  16
  108      3   15   3   6  18

          INDEP./SYM. INTERNAL COORDINATES
          --------------------------------
 CRD  1=   0.1360 ( 19)  0.1360 ( 22) -0.2924 ( 23) -0.2924 ( 24)  0.1361 ( 27)
          -0.2924 ( 28)  0.1361 ( 29)  0.1361 ( 31)  0.1361 ( 33)  0.2924 ( 34)
           0.2924 ( 36) -0.1360 ( 38) -0.1360 ( 39) -0.1361 ( 41) -0.1361 ( 42)
           0.2924 ( 44) -0.1361 ( 45) -0.1361 ( 48)
 CRD  2=  -0.2596 (  1)  0.2596 (  3)  0.1059 (  7) -0.2596 (  8) -0.1059 (  9)
           0.2596 ( 12) -0.1059 ( 16)  0.1059 ( 18)  0.2279 ( 23) -0.2279 ( 24)
          -0.1723 ( 25) -0.1487 ( 26)  0.1723 ( 30)  0.1487 ( 32) -0.2279 ( 34)
           0.2279 ( 36)  0.1723 ( 40)  0.1487 ( 43) -0.1723 ( 46) -0.1487 ( 47)
          -0.1153 ( 62) -0.1265 ( 63)  0.1265 ( 65) -0.1265 ( 68) -0.1153 ( 69)
           0.1265 ( 72)  0.1153 ( 77)  0.1153 ( 82)
 CRD  3=   0.1499 (  1)  0.1499 (  3) -0.1223 (  4) -0.2998 (  5)  0.1499 (  8)
          -0.2998 ( 10)  0.1499 ( 12) -0.1223 ( 14)  0.1854 ( 20)  0.1854 ( 21)
          -0.1315 ( 23) -0.1315 ( 24) -0.1131 ( 26)  0.2631 ( 28) -0.1131 ( 32)
          -0.1315 ( 34)  0.1854 ( 35) -0.1315 ( 36)  0.1854 ( 37) -0.1131 ( 43)
           0.2631 ( 44) -0.1131 ( 47)  0.1461 ( 55)  0.1193 ( 56) -0.1461 ( 58)
          -0.1193 ( 60)  0.1193 ( 74) -0.1193 ( 76)
 CRD  4=   0.2402 (  1)  0.2402 (  3) -0.2402 (  8) -0.2402 ( 12)  0.1819 ( 20)
           0.1819 ( 21) -0.1495 ( 25)  0.1528 ( 28)  0.1748 ( 29) -0.1495 ( 30)
           0.1748 ( 31) -0.1819 ( 35) -0.1819 ( 37)  0.1495 ( 40) -0.1748 ( 42)
          -0.1528 ( 44) -0.1748 ( 45)  0.1495 ( 46) -0.1150 ( 61) -0.1061 ( 62)
          -0.1567 ( 63) -0.1567 ( 65)  0.1150 ( 67)  0.1567 ( 68)  0.1061 ( 69)
           0.1567 ( 72)  0.1061 ( 77)  0.1150 ( 78) -0.1061 ( 82) -0.1150 ( 83)
 CRD  5=   0.1387 (  1) -0.1387 (  3) -0.2773 (  5) -0.1387 (  8)  0.2773 ( 10)
           0.1387 ( 12)  0.1455 ( 19) -0.1455 ( 22)  0.1323 ( 23) -0.1323 ( 24)
          -0.1237 ( 25) -0.1913 ( 26)  0.1573 ( 27)  0.1237 ( 30)  0.1913 ( 32)
          -0.1573 ( 33)  0.1323 ( 34) -0.1323 ( 36) -0.1455 ( 38)  0.1455 ( 39)
          -0.1237 ( 40)  0.1573 ( 41) -0.1913 ( 43)  0.1237 ( 46)  0.1913 ( 47)
          -0.1573 ( 48) -0.1809 ( 55) -0.1809 ( 58)  0.1091 ( 66)  0.1091 ( 70)
           0.1091 ( 80)  0.1091 ( 81)
 CRD  6=   0.3650 (  1)  0.3650 (  3)  0.1363 (  4)  0.3650 (  5)  0.1363 (  7)
           0.3650 (  8)  0.1363 (  9)  0.3650 ( 10)  0.3650 ( 12)  0.1363 ( 14)
           0.1363 ( 16)  0.1363 ( 18)
 CRD  7=  -0.2921 (  1) -0.2921 (  3) -0.1423 (  4)  0.2921 (  8)  0.2921 ( 12)
           0.1423 ( 14) -0.1504 ( 19) -0.1504 ( 22)  0.1604 ( 29)  0.1604 ( 31)
           0.1504 ( 38)  0.1504 ( 39) -0.1604 ( 42) -0.1604 ( 45) -0.1635 ( 63)
          -0.1635 ( 65) -0.1245 ( 66)  0.1635 ( 68)  0.1245 ( 70)  0.1635 ( 72)
           0.1245 ( 80) -0.1245 ( 81) -0.1154 ( 90)  0.1154 ( 96)  0.1154 (100)
          -0.1154 (102)
 CRD  8=   0.1686 (  1) -0.1686 (  3) -0.3373 (  5) -0.1232 (  7) -0.1686 (  8)
           0.1232 (  9)  0.3373 ( 10)  0.1686 ( 12) -0.1232 ( 16)  0.1232 ( 18)
          -0.1795 ( 27)  0.1795 ( 33) -0.1795 ( 41)  0.1795 ( 48)  0.1888 ( 55)
           0.1109 ( 57)  0.1888 ( 58)  0.1109 ( 59) -0.1047 ( 61) -0.1047 ( 67)
           0.1109 ( 73)  0.1109 ( 75) -0.1047 ( 78) -0.1047 ( 83) -0.1009 ( 89)
          -0.1009 ( 94) -0.1009 ( 99) -0.1009 (101)
 CRD  9=  -0.2635 (  1)  0.2635 (  3) -0.2635 (  5)  0.2635 (  8)  0.2635 ( 10)
          -0.2635 ( 12) -0.1313 ( 20)  0.1313 ( 21) -0.1313 ( 25)  0.1313 ( 26)
           0.1313 ( 30) -0.1313 ( 32) -0.1313 ( 35)  0.1313 ( 37) -0.1313 ( 40)
           0.1313 ( 43)  0.1313 ( 46) -0.1313 ( 47) -0.1313 ( 85) -0.1313 ( 88)
          -0.1313 ( 91) -0.1313 ( 92) -0.1313 ( 93) -0.1313 ( 95)  0.1160 (103)
           0.1160 (104)  0.1160 (105)  0.1160 (106)  0.1160 (107)  0.1160 (108)
 CRD 10=   0.1579 (  1)  0.1303 (  2)  0.1579 (  3) -0.3158 (  5)  0.1579 (  8)
          -0.3158 ( 10)  0.1579 ( 12)  0.1303 ( 13)  0.1286 ( 19)  0.1286 ( 22)
          -0.1827 ( 28) -0.1823 ( 29) -0.1823 ( 31)  0.1286 ( 38)  0.1286 ( 39)
          -0.1823 ( 42) -0.1827 ( 44) -0.1823 ( 45) -0.1015 ( 55) -0.1016 ( 57)
           0.1015 ( 58)  0.1016 ( 59)  0.1016 ( 73) -0.1016 ( 75)  0.1017 (106)
          -0.1017 (108)
 CRD 11=   0.2735 (  1) -0.2735 (  3)  0.1128 (  6)  0.2735 (  8) -0.1128 ( 11)
          -0.2735 ( 12) -0.1128 ( 15)  0.1128 ( 17)  0.1362 ( 19) -0.1362 ( 22)
           0.1582 ( 23) -0.1582 ( 24)  0.1795 ( 27) -0.1795 ( 33) -0.1582 ( 34)
           0.1582 ( 36)  0.1362 ( 38) -0.1362 ( 39) -0.1795 ( 41)  0.1795 ( 48)
          -0.1151 ( 61) -0.1151 ( 67)  0.1151 ( 78)  0.1151 ( 83)
 CRD 12=   0.1984 ( 19) -0.1491 ( 20)  0.1491 ( 21) -0.1984 ( 22) -0.1491 ( 25)
           0.1491 ( 26) -0.1983 ( 27)  0.1984 ( 29)  0.1491 ( 30) -0.1984 ( 31)
          -0.1491 ( 32)  0.1983 ( 33)  0.1491 ( 35) -0.1491 ( 37)  0.1984 ( 38)
          -0.1984 ( 39)  0.1491 ( 40)  0.1983 ( 41) -0.1984 ( 42) -0.1491 ( 43)
           0.1984 ( 45) -0.1491 ( 46)  0.1491 ( 47) -0.1983 ( 48) -0.1163 ( 56)
          -0.1163 ( 60) -0.1162 ( 62) -0.1163 ( 64) -0.1162 ( 69) -0.1163 ( 71)
           0.1163 ( 74)  0.1163 ( 76)  0.1162 ( 77)  0.1163 ( 79)  0.1162 ( 82)
           0.1163 ( 84)
 CRD 13=   0.2050 (  2) -0.2081 (  4) -0.1025 (  6)  0.1041 (  7)  0.1041 (  9)
          -0.1025 ( 11)  0.2050 ( 13) -0.2081 ( 14) -0.1025 ( 15)  0.1041 ( 16)
          -0.1025 ( 17)  0.1041 ( 18) -0.1434 ( 20) -0.1434 ( 21)  0.2125 ( 25)
          -0.1307 ( 29)  0.2125 ( 30) -0.1307 ( 31) -0.1434 ( 35) -0.1434 ( 37)
           0.2125 ( 40) -0.1307 ( 42) -0.1307 ( 45)  0.2125 ( 46)  0.1085 ( 61)
           0.1100 ( 62)  0.1286 ( 64)  0.1684 ( 66) -0.1085 ( 67) -0.1100 ( 69)
          -0.1684 ( 70) -0.1286 ( 71)  0.1100 ( 77)  0.1085 ( 78)  0.1286 ( 79)
           0.1684 ( 80) -0.1684 ( 81) -0.1100 ( 82) -0.1085 ( 83) -0.1286 ( 84)
          -0.1033 (106)  0.1033 (108)
 CRD 14=  -0.1776 (  6)  0.1803 (  7) -0.1803 (  9)  0.1776 ( 11)  0.1776 ( 15)
          -0.1803 ( 16) -0.1776 ( 17)  0.1803 ( 18) -0.1055 ( 19)  0.1625 ( 20)
          -0.1625 ( 21)  0.1055 ( 22)  0.2055 ( 26) -0.1209 ( 27) -0.2055 ( 32)
           0.1209 ( 33) -0.1625 ( 35)  0.1625 ( 37) -0.1055 ( 38)  0.1055 ( 39)
           0.1209 ( 41) -0.2055 ( 43)  0.2055 ( 47) -0.1209 ( 48)  0.1378 ( 56)
           0.1599 ( 57)  0.1599 ( 59)  0.1378 ( 60) -0.1317 ( 61) -0.1317 ( 67)
          -0.1599 ( 73) -0.1378 ( 74) -0.1599 ( 75) -0.1378 ( 76)  0.1317 ( 78)
           0.1317 ( 83)
 CRD 15=   0.3706 (  2) -0.1324 (  4) -0.1853 (  6) -0.1853 ( 11) -0.3706 ( 13)
           0.1324 ( 14)  0.1853 ( 15)  0.1853 ( 17)  0.1408 ( 19) -0.1328 ( 20)
          -0.1328 ( 21)  0.1408 ( 22)  0.1175 ( 25)  0.1175 ( 30)  0.1328 ( 35)
           0.1328 ( 37) -0.1408 ( 38) -0.1408 ( 39) -0.1175 ( 40) -0.1175 ( 46)
          -0.1115 ( 56) -0.1062 ( 57)  0.1062 ( 59)  0.1115 ( 60) -0.1021 ( 64)
          -0.1270 ( 66)  0.1270 ( 70)  0.1021 ( 71) -0.1062 ( 73)  0.1115 ( 74)
           0.1062 ( 75) -0.1115 ( 76)  0.1021 ( 79)  0.1270 ( 80) -0.1270 ( 81)
          -0.1021 ( 84)
 CRD 16=   0.3209 (  6) -0.1147 (  7)  0.1147 (  9) -0.3209 ( 11)  0.3209 ( 15)
          -0.1147 ( 16) -0.3209 ( 17)  0.1147 ( 18) -0.1445 ( 26)  0.1218 ( 27)
           0.1221 ( 29) -0.1221 ( 31)  0.1445 ( 32) -0.1218 ( 33)  0.1218 ( 41)
           0.1221 ( 42) -0.1445 ( 43) -0.1221 ( 45)  0.1445 ( 47) -0.1218 ( 48)
           0.1038 ( 55)  0.1038 ( 58) -0.1346 ( 61) -0.1233 ( 62) -0.1346 ( 67)
          -0.1233 ( 69) -0.1233 ( 77) -0.1346 ( 78) -0.1233 ( 82) -0.1346 ( 83)
 CRD 17=  -0.3284 (  2)  0.1131 (  4) -0.3284 (  6)  0.1131 (  7)  0.1131 (  9)
          -0.3284 ( 11) -0.3284 ( 13)  0.1131 ( 14) -0.3284 ( 15)  0.1131 ( 16)
          -0.3284 ( 17)  0.1131 ( 18)  0.1274 ( 55) -0.1274 ( 58)  0.1274 ( 63)
          -0.1274 ( 65) -0.1274 ( 68)  0.1274 ( 72)
 CRD 18=  -0.2986 (  4) -0.2986 (  7) -0.2986 (  9)  0.2986 ( 14)  0.2986 ( 16)
           0.2986 ( 18)  0.1222 ( 57) -0.1222 ( 59)  0.1221 ( 61) -0.1221 ( 66)
          -0.1221 ( 67)  0.1221 ( 70)  0.1222 ( 73) -0.1222 ( 75) -0.1221 ( 78)
           0.1221 ( 80) -0.1221 ( 81)  0.1221 ( 83)
 CRD 19=  -0.1258 ( 19)  0.1236 ( 20) -0.1236 ( 21)  0.1258 ( 22)  0.1236 ( 25)
          -0.1236 ( 26)  0.1258 ( 27) -0.1258 ( 29) -0.1236 ( 30)  0.1258 ( 31)
           0.1236 ( 32) -0.1258 ( 33)  0.1236 ( 35) -0.1236 ( 37)  0.1258 ( 38)
          -0.1258 ( 39)  0.1236 ( 40)  0.1258 ( 41) -0.1258 ( 42) -0.1236 ( 43)
           0.1258 ( 45) -0.1236 ( 46)  0.1236 ( 47) -0.1258 ( 48) -0.1475 ( 85)
          -0.1445 ( 86) -0.1445 ( 87) -0.1475 ( 88) -0.1445 ( 89) -0.1445 ( 90)
          -0.1475 ( 91) -0.1475 ( 92) -0.1475 ( 93) -0.1445 ( 94) -0.1475 ( 95)
          -0.1445 ( 96) -0.1445 ( 97) -0.1445 ( 98) -0.1445 ( 99) -0.1445 (100)
          -0.1445 (101) -0.1445 (102) -0.1415 (103) -0.1415 (104) -0.1415 (105)
          -0.1415 (106) -0.1415 (107) -0.1415 (108)
 CRD 20=  -0.4192 (  2)  0.2097 (  6)  0.2097 ( 11) -0.4192 ( 13)  0.2097 ( 15)
           0.2097 ( 17) -0.1268 ( 89) -0.1368 ( 90) -0.1196 ( 91)  0.1268 ( 94)
           0.1196 ( 95)  0.1368 ( 96) -0.1268 ( 99) -0.1368 (100)  0.1268 (101)
           0.1368 (102) -0.1540 (106)  0.1540 (108)
 CRD 21=  -0.3634 (  6)  0.3634 ( 11)  0.3634 ( 15) -0.3634 ( 17)  0.1076 ( 27)
          -0.1076 ( 33) -0.1076 ( 41)  0.1076 ( 48)  0.1032 ( 85)  0.1520 ( 86)
           0.1520 ( 87)  0.1032 ( 88) -0.1032 ( 92) -0.1032 ( 93) -0.1520 ( 97)
          -0.1520 ( 98)  0.1332 (103)  0.1332 (104) -0.1332 (105) -0.1332 (107)
 CRD 22=  -0.1158 (  2) -0.4329 (  4)  0.2165 (  7)  0.2165 (  9) -0.1158 ( 13)
          -0.4329 ( 14)  0.2165 ( 16)  0.2165 ( 18) -0.1137 ( 49) -0.1137 ( 52)
          -0.1269 ( 86)  0.1269 ( 87)  0.1140 ( 90)  0.1552 ( 91) -0.1552 ( 95)
          -0.1140 ( 96) -0.1269 ( 97)  0.1269 ( 98)  0.1140 (100) -0.1140 (102)
 CRD 23=  -0.3747 (  7)  0.3747 (  9)  0.3747 ( 16) -0.3747 ( 18)  0.1062 ( 64)
           0.1062 ( 71) -0.1062 ( 79) -0.1062 ( 84) -0.1348 ( 85) -0.1348 ( 88)
           0.1394 ( 89)  0.1348 ( 92)  0.1348 ( 93)  0.1394 ( 94) -0.1394 ( 99)
          -0.1394 (101)
 CRD 24=  -0.3007 (  2) -0.1804 (  4) -0.3014 (  6) -0.1814 (  7) -0.1814 (  9)
          -0.3014 ( 11)  0.3007 ( 13)  0.1804 ( 14)  0.3014 ( 15)  0.1814 ( 16)
           0.3014 ( 17)  0.1814 ( 18) -0.1031 ( 49) -0.1034 ( 50) -0.1034 ( 51)
           0.1031 ( 52)  0.1034 ( 53)  0.1034 ( 54)
 CRD 25=  -0.2426 (  6) -0.3644 (  7)  0.3644 (  9)  0.2426 ( 11) -0.2426 ( 15)
          -0.3644 ( 16)  0.2426 ( 17)  0.3644 ( 18) -0.1189 ( 50)  0.1189 ( 51)
          -0.1189 ( 53)  0.1189 ( 54) -0.1018 ( 91) -0.1018 ( 95)
 CRD 26=  -0.2806 (  2) -0.4210 (  4)  0.1396 (  6)  0.2101 (  7)  0.2101 (  9)
           0.1396 ( 11)  0.2806 ( 13)  0.4210 ( 14) -0.1396 ( 15) -0.2101 ( 16)
          -0.1396 ( 17) -0.2101 ( 18) -0.1374 ( 49)  0.1374 ( 52)
 CRD 27=  -0.1712 (  2) -0.2963 (  4) -0.1711 (  6) -0.2963 (  7) -0.2963 (  9)
          -0.1711 ( 11) -0.1712 ( 13) -0.2963 ( 14) -0.1711 ( 15) -0.2963 ( 16)
          -0.1711 ( 17) -0.2963 ( 18) -0.1064 ( 49) -0.1064 ( 50) -0.1064 ( 51)
          -0.1064 ( 52) -0.1064 ( 53) -0.1064 ( 54)  0.1108 ( 85) -0.1108 ( 88)
          -0.1108 ( 91)  0.1108 ( 92) -0.1108 ( 93)  0.1108 ( 95)
 CRD 28=  -0.2170 (  6)  0.1925 (  7) -0.1925 (  9)  0.2170 ( 11) -0.2170 ( 15)
           0.1925 ( 16)  0.2170 ( 17) -0.1925 ( 18)  0.1054 ( 56)  0.1420 ( 57)
           0.1420 ( 59)  0.1054 ( 60)  0.1420 ( 73)  0.1054 ( 74)  0.1420 ( 75)
           0.1054 ( 76)  0.1730 ( 90)  0.1364 ( 91)  0.1364 ( 95)  0.1730 ( 96)
           0.1730 (100)  0.1730 (102) -0.1048 (103) -0.1048 (104) -0.1048 (105)
           0.2095 (106) -0.1048 (107)  0.2095 (108)
 CRD 29=   0.2507 (  2) -0.2223 (  4) -0.1253 (  6)  0.1111 (  7)  0.1111 (  9)
          -0.1253 ( 11) -0.2507 ( 13)  0.2223 ( 14)  0.1253 ( 15) -0.1111 ( 16)
           0.1253 ( 17) -0.1111 ( 18)  0.1115 ( 61)  0.1344 ( 66) -0.1115 ( 67)
          -0.1344 ( 70) -0.1115 ( 78) -0.1344 ( 80)  0.1344 ( 81)  0.1115 ( 83)
           0.1181 ( 85) -0.1541 ( 86)  0.1541 ( 87) -0.1181 ( 88) -0.1455 ( 89)
          -0.1181 ( 92)  0.1181 ( 93)  0.1455 ( 94)  0.1541 ( 97) -0.1541 ( 98)
           0.1455 ( 99) -0.1455 (101) -0.1815 (103)  0.1815 (104) -0.1815 (105)
           0.1815 (107)
 CRD 30=  -0.1080 (  2)  0.1168 (  4) -0.1079 (  6)  0.1168 (  7)  0.1168 (  9)
          -0.1079 ( 11) -0.1080 ( 13)  0.1168 ( 14) -0.1079 ( 15)  0.1168 ( 16)
          -0.1079 ( 17)  0.1168 ( 18) -0.1330 ( 57)  0.1330 ( 59) -0.1330 ( 61)
           0.1330 ( 66)  0.1330 ( 67) -0.1330 ( 70)  0.1330 ( 73) -0.1330 ( 75)
          -0.1330 ( 78)  0.1330 ( 80) -0.1330 ( 81)  0.1330 ( 83)  0.1330 ( 86)
          -0.1330 ( 87) -0.1330 ( 89)  0.1329 ( 90)  0.1330 ( 94) -0.1329 ( 96)
           0.1330 ( 97) -0.1330 ( 98) -0.1330 ( 99)  0.1329 (100)  0.1330 (101)
          -0.1329 (102)  0.1730 (103) -0.1730 (104) -0.1730 (105)  0.1730 (106)
           0.1730 (107) -0.1730 (108)
 CRD 31=  -0.2639 (  2)  0.1526 (  4) -0.2639 (  6)  0.1524 (  7)  0.1524 (  9)
          -0.2639 ( 11)  0.2639 ( 13) -0.1526 ( 14)  0.2639 ( 15) -0.1524 ( 16)
           0.2639 ( 17) -0.1524 ( 18)  0.1055 ( 49)  0.1056 ( 50)  0.1056 ( 51)
          -0.1055 ( 52) -0.1056 ( 53) -0.1056 ( 54)  0.1236 ( 57) -0.1236 ( 59)
           0.1237 ( 61) -0.1237 ( 66) -0.1237 ( 67)  0.1237 ( 70)  0.1236 ( 73)
          -0.1236 ( 75) -0.1237 ( 78)  0.1237 ( 80) -0.1237 ( 81)  0.1237 ( 83)
 CRD 32=  -0.1726 (  4)  0.1726 ( 14)  0.1202 ( 20)  0.1202 ( 21) -0.1407 ( 25)
          -0.1496 ( 29) -0.1407 ( 30) -0.1496 ( 31) -0.1202 ( 35) -0.1202 ( 37)
           0.1407 ( 40)  0.1496 ( 42)  0.1496 ( 45)  0.1407 ( 46)  0.1421 ( 49)
          -0.1421 ( 52) -0.1245 ( 62) -0.1415 ( 64)  0.1245 ( 69)  0.1415 ( 71)
           0.1245 ( 77)  0.1415 ( 79) -0.1245 ( 82) -0.1415 ( 84) -0.2449 ( 85)
           0.2449 ( 88)  0.1228 ( 89)  0.2449 ( 92) -0.2449 ( 93) -0.1228 ( 94)
          -0.1228 ( 99)  0.1228 (101)
 CRD 33=   0.1052 (  5)  0.1495 (  7) -0.1495 (  9) -0.1052 ( 10)  0.1495 ( 16)
          -0.1495 ( 18) -0.1238 ( 19)  0.1238 ( 22) -0.1506 ( 26) -0.1353 ( 27)
           0.1506 ( 32)  0.1353 ( 33)  0.1238 ( 38) -0.1238 ( 39) -0.1353 ( 41)
          -0.1506 ( 43)  0.1506 ( 47)  0.1353 ( 48) -0.1230 ( 50)  0.1230 ( 51)
          -0.1230 ( 53)  0.1230 ( 54) -0.1536 ( 56) -0.1536 ( 60) -0.1536 ( 74)
          -0.1536 ( 76)  0.1414 ( 85)  0.1184 ( 86)  0.1184 ( 87)  0.1414 ( 88)
          -0.2828 ( 91)  0.1414 ( 92)  0.1414 ( 93) -0.2828 ( 95)  0.1184 ( 97)
           0.1184 ( 98)
 CRD 34=  -0.1493 (  1)  0.1361 (  2) -0.1493 (  3) -0.2139 (  4)  0.2985 (  5)
           0.1070 (  7) -0.1493 (  8)  0.1070 (  9)  0.2985 ( 10) -0.1493 ( 12)
           0.1361 ( 13) -0.2139 ( 14)  0.1070 ( 16)  0.1070 ( 18)  0.1318 ( 19)
           0.1318 ( 22) -0.1067 ( 25) -0.1067 ( 30)  0.1318 ( 38)  0.1318 ( 39)
          -0.1067 ( 40) -0.1067 ( 46)  0.1034 ( 56) -0.1034 ( 60) -0.1118 ( 62)
           0.1118 ( 69)  0.1034 ( 74) -0.1034 ( 76) -0.1118 ( 77)  0.1118 ( 82)
          -0.1131 ( 85)  0.1131 ( 88) -0.2261 ( 91) -0.1131 ( 92)  0.1131 ( 93)
           0.2261 ( 95)
 CRD 35=  -0.2585 (  1)  0.2585 (  3)  0.1179 (  6) -0.1853 (  7) -0.2585 (  8)
           0.1853 (  9) -0.1179 ( 11)  0.2585 ( 12) -0.1179 ( 15)  0.1853 ( 16)
           0.1179 ( 17) -0.1853 ( 18)  0.1049 ( 26)  0.1221 ( 27)  0.1061 ( 29)
          -0.1061 ( 31) -0.1049 ( 32) -0.1221 ( 33) -0.1221 ( 41) -0.1061 ( 42)
          -0.1049 ( 43)  0.1061 ( 45)  0.1049 ( 47)  0.1221 ( 48) -0.1243 ( 64)
          -0.1243 ( 71)  0.1243 ( 79)  0.1243 ( 84)  0.1959 ( 85)  0.1959 ( 88)
          -0.1959 ( 92) -0.1959 ( 93)
 CRD 36=  -0.1101 ( 19) -0.1739 ( 20)  0.1739 ( 21)  0.1101 ( 22) -0.1739 ( 25)
           0.1739 ( 26)  0.1101 ( 27) -0.1101 ( 29)  0.1739 ( 30)  0.1101 ( 31)
          -0.1739 ( 32) -0.1101 ( 33)  0.1739 ( 35) -0.1739 ( 37) -0.1101 ( 38)
           0.1101 ( 39)  0.1739 ( 40) -0.1101 ( 41)  0.1101 ( 42) -0.1739 ( 43)
          -0.1101 ( 45) -0.1739 ( 46)  0.1739 ( 47)  0.1101 ( 48)  0.1640 ( 86)
           0.1640 ( 87)  0.1640 ( 89)  0.1640 ( 90)  0.1640 ( 94)  0.1640 ( 96)
          -0.1640 ( 97) -0.1640 ( 98) -0.1640 ( 99) -0.1640 (100) -0.1640 (101)
          -0.1640 (102)
 CRD 37=   0.2923 (  1) -0.2923 (  3)  0.2923 (  5) -0.2923 (  8) -0.2923 ( 10)
           0.2923 ( 12) -0.1194 ( 19)  0.1194 ( 22)  0.1194 ( 27) -0.1194 ( 29)
           0.1194 ( 31) -0.1194 ( 33)  0.1194 ( 38) -0.1194 ( 39)  0.1194 ( 41)
          -0.1194 ( 42)  0.1194 ( 45) -0.1194 ( 48) -0.1019 ( 85) -0.1019 ( 88)
          -0.1019 ( 91) -0.1019 ( 92) -0.1019 ( 93) -0.1019 ( 95)  0.1223 (103)
           0.1223 (104)  0.1223 (105)  0.1222 (106)  0.1223 (107)  0.1222 (108)
 CRD 38=  -0.1462 (  1) -0.1462 (  3)  0.1780 (  4) -0.1461 (  5)  0.1779 (  7)
          -0.1462 (  8)  0.1779 (  9) -0.1461 ( 10) -0.1462 ( 12)  0.1780 ( 14)
           0.1779 ( 16)  0.1779 ( 18) -0.1483 ( 49) -0.1485 ( 50) -0.1485 ( 51)
          -0.1483 ( 52) -0.1485 ( 53) -0.1485 ( 54)  0.2119 ( 85) -0.2119 ( 88)
          -0.2119 ( 91)  0.2119 ( 92) -0.2119 ( 93)  0.2119 ( 95)
 CRD 39=  -0.2221 (  6)  0.2221 ( 11)  0.2221 ( 15) -0.2221 ( 17)  0.1053 ( 27)
          -0.1053 ( 33) -0.1053 ( 41)  0.1053 ( 48)  0.1390 ( 50) -0.1390 ( 51)
          -0.1390 ( 53)  0.1390 ( 54) -0.1722 ( 57) -0.1722 ( 59)  0.1948 ( 66)
           0.1948 ( 70)  0.1722 ( 73)  0.1722 ( 75) -0.1948 ( 80) -0.1948 ( 81)
          -0.1330 ( 86) -0.1330 ( 87)  0.1071 ( 90)  0.1071 ( 96)  0.1330 ( 97)
           0.1330 ( 98) -0.1071 (100) -0.1071 (102) -0.2001 (103) -0.2001 (104)
           0.2001 (105)  0.2001 (107)
 CRD 40=  -0.2564 (  2)  0.1282 (  6)  0.1282 ( 11) -0.2564 ( 13)  0.1282 ( 15)
           0.1282 ( 17) -0.1076 ( 29) -0.1076 ( 31) -0.1076 ( 42) -0.1076 ( 45)
           0.1606 ( 49)  0.1606 ( 52) -0.1254 ( 57)  0.1254 ( 59)  0.2119 ( 61)
          -0.2119 ( 67)  0.1254 ( 73) -0.1254 ( 75)  0.2119 ( 78) -0.2119 ( 83)
           0.1385 ( 89) -0.1385 ( 94)  0.1385 ( 99) -0.1385 (101) -0.1155 (103)
           0.1155 (104)  0.1155 (105)  0.2310 (106) -0.1155 (107) -0.2310 (108)
 CRD 41=  -0.2209 (  1) -0.2209 (  3)  0.1737 (  4)  0.2209 (  8)  0.2209 ( 12)
          -0.1737 ( 14)  0.1041 ( 20)  0.1041 ( 21) -0.1113 ( 25) -0.1113 ( 30)
          -0.1041 ( 35) -0.1041 ( 37)  0.1113 ( 40)  0.1113 ( 46) -0.1770 ( 49)
           0.1770 ( 52) -0.1072 ( 56)  0.1072 ( 60) -0.1045 ( 61)  0.1045 ( 67)
           0.1072 ( 74) -0.1072 ( 76)  0.1045 ( 78) -0.1045 ( 83)  0.1250 ( 85)
          -0.1255 ( 86)  0.1255 ( 87) -0.1250 ( 88)  0.1867 ( 90) -0.1250 ( 92)
           0.1250 ( 93) -0.1867 ( 96)  0.1255 ( 97) -0.1255 ( 98) -0.1867 (100)
           0.1867 (102)
 CRD 42=   0.1275 (  1) -0.1275 (  3) -0.2550 (  5)  0.1504 (  7) -0.1275 (  8)
          -0.1504 (  9)  0.2550 ( 10)  0.1275 ( 12)  0.1504 ( 16) -0.1504 ( 18)
           0.1244 ( 26) -0.1244 ( 32)  0.1244 ( 43) -0.1244 ( 47) -0.1533 ( 50)
           0.1533 ( 51) -0.1533 ( 53)  0.1533 ( 54)  0.1090 ( 64) -0.1062 ( 66)
          -0.1062 ( 70)  0.1090 ( 71)  0.1090 ( 79) -0.1062 ( 80) -0.1062 ( 81)
           0.1090 ( 84) -0.1431 ( 86) -0.1431 ( 87)  0.1802 ( 89) -0.1444 ( 91)
           0.1802 ( 94) -0.1444 ( 95) -0.1431 ( 97) -0.1431 ( 98)  0.1802 ( 99)
           0.1802 (101)
 CRD 43=   0.1375 (  4)  0.1375 (  7)  0.1375 (  9) -0.1375 ( 14) -0.1375 ( 16)
          -0.1375 ( 18) -0.1417 ( 23) -0.1417 ( 24) -0.1417 ( 28)  0.1417 ( 34)
           0.1417 ( 36)  0.1417 ( 44) -0.1267 ( 49) -0.1267 ( 50) -0.1267 ( 51)
           0.1267 ( 52)  0.1267 ( 53)  0.1267 ( 54)  0.1609 ( 56) -0.1609 ( 60)
           0.1610 ( 62) -0.1610 ( 64) -0.1610 ( 69)  0.1610 ( 71) -0.1609 ( 74)
           0.1609 ( 76) -0.1610 ( 77)  0.1610 ( 79)  0.1610 ( 82) -0.1610 ( 84)
          -0.1601 ( 86)  0.1601 ( 87)  0.1601 ( 89) -0.1601 ( 90) -0.1601 ( 94)
           0.1601 ( 96)  0.1601 ( 97) -0.1601 ( 98) -0.1601 ( 99)  0.1601 (100)
           0.1601 (101) -0.1601 (102)
 CRD 44=  -0.1967 (  1)  0.1967 (  3)  0.1493 (  7) -0.1967 (  8) -0.1493 (  9)
           0.1967 ( 12) -0.1493 ( 16)  0.1493 ( 18) -0.1269 ( 23)  0.1269 ( 24)
           0.1269 ( 34) -0.1269 ( 36) -0.1253 ( 50)  0.1253 ( 51)  0.1253 ( 53)
          -0.1253 ( 54) -0.1949 ( 56) -0.1949 ( 60)  0.1128 ( 62)  0.1128 ( 69)
           0.1949 ( 74)  0.1949 ( 76) -0.1128 ( 77) -0.1128 ( 82)  0.1311 ( 89)
          -0.1997 ( 90)  0.1311 ( 94) -0.1997 ( 96) -0.1311 ( 99)  0.1997 (100)
          -0.1311 (101)  0.1997 (102)
 CRD 45=  -0.1136 (  1) -0.1136 (  3)  0.1723 (  4)  0.2271 (  5) -0.1136 (  8)
           0.2271 ( 10) -0.1136 ( 12)  0.1723 ( 14)  0.1055 ( 20)  0.1055 ( 21)
           0.1465 ( 28)  0.1055 ( 35)  0.1055 ( 37)  0.1465 ( 44) -0.1447 ( 49)
          -0.1447 ( 52)  0.1599 ( 62)  0.1777 ( 64) -0.1599 ( 69) -0.1777 ( 71)
           0.1599 ( 77)  0.1777 ( 79) -0.1599 ( 82) -0.1777 ( 84) -0.1910 ( 86)
           0.1910 ( 87) -0.1549 ( 89)  0.1549 ( 94) -0.1910 ( 97)  0.1910 ( 98)
          -0.1549 ( 99)  0.1549 (101)
 CRD 46=   0.1763 (  6) -0.1763 ( 11)  0.1763 ( 15) -0.1763 ( 17) -0.1275 ( 29)
           0.1275 ( 31) -0.1275 ( 42)  0.1275 ( 45) -0.1942 ( 55) -0.1942 ( 58)
           0.1401 ( 62) -0.1237 ( 66)  0.1401 ( 69) -0.1237 ( 70)  0.1401 ( 77)
          -0.1237 ( 80) -0.1237 ( 81)  0.1401 ( 82)  0.1409 ( 90)  0.1409 ( 96)
           0.1409 (100)  0.1409 (102) -0.1251 (103) -0.1251 (104) -0.1251 (105)
           0.2502 (106) -0.1251 (107)  0.2502 (108)
 CRD 47=   0.2036 (  2) -0.1018 (  6) -0.1018 ( 11) -0.2036 ( 13)  0.1018 ( 15)
           0.1018 ( 17) -0.1160 ( 19) -0.1160 ( 22) -0.1040 ( 26)  0.1048 ( 27)
          -0.1040 ( 32)  0.1048 ( 33)  0.1160 ( 38)  0.1160 ( 39) -0.1048 ( 41)
           0.1040 ( 43)  0.1040 ( 47) -0.1048 ( 48)  0.1149 ( 56)  0.1266 ( 57)
          -0.1266 ( 59) -0.1149 ( 60)  0.1682 ( 63)  0.1278 ( 64)  0.1682 ( 65)
          -0.1682 ( 68) -0.1278 ( 71) -0.1682 ( 72)  0.1266 ( 73) -0.1149 ( 74)
          -0.1266 ( 75)  0.1149 ( 76) -0.1278 ( 79)  0.1278 ( 84)  0.1161 ( 86)
          -0.1161 ( 87)  0.1280 ( 89) -0.1280 ( 94) -0.1161 ( 97)  0.1161 ( 98)
          -0.1280 ( 99)  0.1280 (101)  0.2167 (103) -0.2167 (104)  0.2167 (105)
          -0.2167 (107)
 CRD 48=  -0.1312 (  2) -0.1312 (  6) -0.1312 ( 11) -0.1312 ( 13) -0.1312 ( 15)
          -0.1312 ( 17) -0.2056 ( 55)  0.2056 ( 58) -0.2056 ( 63)  0.2056 ( 65)
           0.2056 ( 68) -0.2056 ( 72) -0.1758 (103)  0.1758 (104)  0.1758 (105)
          -0.1758 (106) -0.1758 (107)  0.1758 (108)

 THE DETERMINANT OF THE G MATRIX IS 10**(    -9)


                     --------------------
                     INTERNAL COORDINATES
                     --------------------

                 - - ATOMS - -         COORDINATE      COORDINATE
 NO.   TYPE    I  J  K  L  M  N        (BOHR,RAD)       (ANG,DEG)
 ----------------------------------------------------------------
   1 STRETCH   1  6                     2.9048397       1.5371751
   2 STRETCH   1  7                     2.0794954       1.1004216
   3 STRETCH   1  5                     2.9048397       1.5371751
   4 STRETCH   1 13                     2.0742964       1.0976705
   5 STRETCH   2  5                     2.9048905       1.5372019
   6 STRETCH   2  8                     2.0794976       1.1004228
   7 STRETCH   2 14                     2.0744454       1.0977493
   8 STRETCH   2  4                     2.9048397       1.5371751
   9 STRETCH   3 15                     2.0744454       1.0977493
  10 STRETCH   3  6                     2.9048905       1.5372019
  11 STRETCH   3  9                     2.0794976       1.1004228
  12 STRETCH   3  4                     2.9048397       1.5371751
  13 STRETCH   4 10                     2.0794954       1.1004216
  14 STRETCH   4 16                     2.0742964       1.0976705
  15 STRETCH   5 11                     2.0794976       1.1004228
  16 STRETCH   5 17                     2.0744454       1.0977493
  17 STRETCH   6 12                     2.0794976       1.1004228
  18 STRETCH   6 18                     2.0744454       1.0977493
  19 BEND      1  6 12                  1.9043927     109.1136629
  20 BEND      1  6 18                  1.9243173     110.2552606
  21 BEND      1  5 17                  1.9243173     110.2552606
  22 BEND      1  5 11                  1.9043927     109.1136629
  23 BEND      1  5  2                  1.9460423     111.5000110
  24 BEND      1  6  3                  1.9460423     111.5000110
  25 BEND      2  5 17                  1.9243441     110.2567965
  26 BEND      2  4 16                  1.9243307     110.2560288
  27 BEND      2  4 10                  1.9043312     109.1101393
  28 BEND      2  4  3                  1.9460117     111.4982545
  29 BEND      2  5 11                  1.9042789     109.1071420
  30 BEND      3  6 18                  1.9243441     110.2567965
  31 BEND      3  6 12                  1.9042789     109.1071420
  32 BEND      3  4 16                  1.9243307     110.2560288
  33 BEND      3  4 10                  1.9043312     109.1101393
  34 BEND      4  2  5                  1.9460423     111.5000110
  35 BEND      4  3 15                  1.9243173     110.2552606
  36 BEND      4  3  6                  1.9460423     111.5000110
  37 BEND      4  2 14                  1.9243173     110.2552606
  38 BEND      4  2  8                  1.9043927     109.1136629
  39 BEND      4  3  9                  1.9043927     109.1136629
  40 BEND      5  2 14                  1.9243441     110.2567965
  41 BEND      5  1  7                  1.9043312     109.1101393
  42 BEND      5  2  8                  1.9042789     109.1071420
  43 BEND      5  1 13                  1.9243307     110.2560288
  44 BEND      5  1  6                  1.9460117     111.4982545
  45 BEND      6  3  9                  1.9042789     109.1071420
  46 BEND      6  3 15                  1.9243441     110.2567965
  47 BEND      6  1 13                  1.9243307     110.2560288
  48 BEND      6  1  7                  1.9043312     109.1101393
  49 BEND      7  1 13                  1.8582153     106.4678929
  50 BEND      8  2 14                  1.8581721     106.4654215
  51 BEND      9  3 15                  1.8581721     106.4654215
  52 BEND     10  4 16                  1.8582153     106.4678929
  53 BEND     11  5 17                  1.8581721     106.4654215
  54 BEND     12  6 18                  1.8581721     106.4654215
  55 TORSION   1  6  3  4              -0.9539047     -54.6547135
  56 TORSION   1  6  3  9               1.1508089      65.9364924
  57 TORSION   1  6  3 15              -3.0975163    -177.4746094
  58 TORSION   1  5  2  4               0.9539047      54.6547135
  59 TORSION   1  5  2 14               3.0975163     177.4746094
  60 TORSION   1  5  2  8              -1.1508089     -65.9364924
  61 TORSION   2  5  1 13              -3.0974857    -177.4728563
  62 TORSION   2  5  1  7               1.1507643      65.9339381
  63 TORSION   2  5  1  6              -0.9538877     -54.6537380
  64 TORSION   2  4  3  9              -1.1507592     -65.9336459
  65 TORSION   2  4  3  6               0.9538877      54.6537380
  66 TORSION   2  4  3 15               3.0975146     177.4745128
  67 TORSION   3  6  1 13               3.0974857     177.4728563
  68 TORSION   3  6  1  5               0.9538877      54.6537380
  69 TORSION   3  6  1  7              -1.1507643     -65.9339381
  70 TORSION   3  4  2 14              -3.0975146    -177.4745128
  71 TORSION   3  4  2  8               1.1507592      65.9336459
  72 TORSION   3  4  2  5              -0.9538877     -54.6537380
  73 TORSION   4  2  5 17               3.0975163     177.4746094
  74 TORSION   4  3  6 12               1.1508089      65.9364924
  75 TORSION   4  3  6 18              -3.0975163    -177.4746094
  76 TORSION   4  2  5 11              -1.1508089     -65.9364924
  77 TORSION   5  2  4 10               1.1507643      65.9339381
  78 TORSION   5  2  4 16              -3.0974857    -177.4728563
  79 TORSION   5  1  6 12              -1.1507592     -65.9336459
  80 TORSION   5  1  6 18               3.0975146     177.4745128
  81 TORSION   6  1  5 17              -3.0975146    -177.4745128
  82 TORSION   6  3  4 10              -1.1507643     -65.9339381
  83 TORSION   6  3  4 16               3.0974857     177.4728563
  84 TORSION   6  1  5 11               1.1507592      65.9336459
  85 TORSION   7  1  5 11              -3.0277741    -173.4786780
  86 TORSION   7  1  6 18               0.9928626      56.8868367
  87 TORSION   7  1  5 17              -0.9928626     -56.8868367
  88 TORSION   7  1  6 12               3.0277741     173.4786780
  89 TORSION   8  2  4 16              -0.9928388     -56.8854724
  90 TORSION   8  2  5 17               0.9928027      56.8834034
  91 TORSION   8  2  5 11               3.0276628     173.4723016
  92 TORSION   8  2  4 10              -3.0277741    -173.4786780
  93 TORSION   9  3  4 10               3.0277741     173.4786780
  94 TORSION   9  3  4 16               0.9928388      56.8854724
  95 TORSION   9  3  6 12              -3.0276628    -173.4723016
  96 TORSION   9  3  6 18              -0.9928027     -56.8834034
  97 TORSION  10  4  3 15               0.9928626      56.8868367
  98 TORSION  10  4  2 14              -0.9928626     -56.8868367
  99 TORSION  11  5  1 13              -0.9928388     -56.8854724
 100 TORSION  11  5  2 14               0.9928027      56.8834034
 101 TORSION  12  6  1 13               0.9928388      56.8854724
 102 TORSION  12  6  3 15              -0.9928027     -56.8834034
 103 TORSION  13  1  6 18              -1.0420727     -59.7063689
 104 TORSION  13  1  5 17               1.0420727      59.7063689
 105 TORSION  14  2  4 16               1.0420727      59.7063689
 106 TORSION  14  2  5 17              -1.0420575     -59.7054947
 107 TORSION  15  3  4 16              -1.0420727     -59.7063689
 108 TORSION  15  3  6 18               1.0420575      59.7054947

     ------------------------------------------
     THE POINT GROUP IS C1 , NAXIS= 1, ORDER= 1
     ------------------------------------------

     DIMENSIONS OF THE SYMMETRY SUBSPACES ARE
 A   =  186

 ..... DONE SETTING UP THE RUN .....
 STEP CPU TIME =     0.01 TOTAL CPU TIME =        0.0 (    0.0 MIN)
 TOTAL WALL CLOCK TIME=        0.0 SECONDS, CPU UTILIZATION IS  50.00%


          -----------------------------
          STATIONARY POINT LOCATION RUN
          -----------------------------

 OBTAINING INITIAL HESSIAN, HESS=GUESS   
 DIAGONAL GUESS HESSIAN IN INTERNAL COORDS IS
     1  0.3621     2  0.3394     3  0.3621     4  0.3412     5  0.3621
     6  0.3394     7  0.3412     8  0.3621     9  0.3412    10  0.3621
    11  0.3394    12  0.3621    13  0.3394    14  0.3412    15  0.3394
    16  0.3412    17  0.3394    18  0.3412    19  0.2230    20  0.2232
    21  0.2232    22  0.2230    23  0.2475    24  0.2475    25  0.2232
    26  0.2232    27  0.2230    28  0.2475    29  0.2230    30  0.2232
    31  0.2230    32  0.2232    33  0.2230    34  0.2475    35  0.2232
    36  0.2475    37  0.2232    38  0.2230    39  0.2230    40  0.2232
    41  0.2230    42  0.2230    43  0.2232    44  0.2475    45  0.2230
    46  0.2232    47  0.2232    48  0.2230    49  0.2025    50  0.2025
    51  0.2025    52  0.2025    53  0.2025    54  0.2025    55  0.2500
    56  0.2500    57  0.2500    58  0.2500    59  0.2500    60  0.2500
    61  0.2500    62  0.2500    63  0.2500    64  0.2500    65  0.2500
    66  0.2500    67  0.2500    68  0.2500    69  0.2500    70  0.2500
    71  0.2500    72  0.2500    73  0.2500    74  0.2500    75  0.2500
    76  0.2500    77  0.2500    78  0.2500    79  0.2500    80  0.2500
    81  0.2500    82  0.2500    83  0.2500    84  0.2500    85  0.2500
    86  0.2500    87  0.2500    88  0.2500    89  0.2500    90  0.2500
    91  0.2500    92  0.2500    93  0.2500    94  0.2500    95  0.2500
    96  0.2500    97  0.2500    98  0.2500    99  0.2500   100  0.2500
   101  0.2500   102  0.2500   103  0.2500   104  0.2500   105  0.2500
   106  0.2500   107  0.2500   108  0.2500
 TRANSFORMING HESSIAN TO SYMMETRY COORDINATES

          PARAMETERS CONTROLLING GEOMETRY SEARCH ARE
          METHOD =QA                  UPHESS =BFGS    
          NNEG   =         0          NFRZ   =         3
          NSTEP  =        50          IFOLOW =         1
          HESS   =GUESS               RESTAR =         F
          IHREP  =         0          HSSEND =         F
          NPRT   =         0          NPUN   =         0
          OPTTOL = 5.000E-04          RMIN   = 1.500E-03
          RMAX   = 1.000E-01          RLIM   = 7.000E-02
          DXMAX  = 3.000E-01          PURIFY =         F
          MOVIE  =         F          TRUPD  =         T
          TRMAX  = 5.000E-01          TRMIN  = 5.000E-02
          ITBMAT =         5          STPT   =         F
          STSTEP = 1.000E-02          PROJCT=          F
          FROZEN COORD(S)=   1   2   3


      ***** EQUILIBRIUM GEOMETRY LOCATED *****
            (SUBJECT TO   3 CONSTRAINT(S))
 COORDINATES OF ALL ATOMS ARE (ANGS)
   ATOM   CHARGE       X              Y              Z
 ------------------------------------------------------------
 C           6.0  -0.0000003087  -1.4618592773   0.2292328500
 C           6.0  -1.2660144573   0.7309276953   0.2292420782
 C           6.0   1.2660147666   0.7309271566   0.2292420879
 C           6.0  -0.0000003109   1.4618592818  -0.2292328311
 C           6.0  -1.2660144506  -0.7309276987  -0.2292420925
 C           6.0   1.2660147677  -0.7309271543  -0.2292420959
 H           1.0  -0.0000135420  -1.5282688255   1.3170537003
 H           1.0  -1.3235257029   0.7641576293   1.3170622831
 H           1.0   1.3235392603   0.7641341693   1.3170622869
 H           1.0  -0.0000135559   1.5282688228  -1.3170536761
 H           1.0  -1.3235257238  -0.7641576258  -1.3170622684
 H           1.0   1.3235392473  -0.7641341803  -1.3170622780
 H           1.0   0.0000208618  -2.4822768003  -0.1461698394
 H           1.0  -2.1497296679   1.2411178240  -0.1461738271
 H           1.0   2.1497087924   1.2411540047  -0.1461738292
 H           1.0   0.0000208726   2.4822767851   0.1461698784
 H           1.0  -2.1497296988  -1.2411178124   0.1461738141
 H           1.0   2.1497087759  -1.2411540310   0.1461737947


                     --------------------
                     INTERNAL COORDINATES
                     --------------------

                 - - ATOMS - -         COORDINATE      COORDINATE
 NO.   TYPE    I  J  K  L  M  N        (BOHR,RAD)       (ANG,DEG)
 ----------------------------------------------------------------
   1 STRETCH   1  6                     2.8952028       1.5320755
   2 STRETCH   1  7                     2.0595104       1.0898461
   3 STRETCH   1  5                     2.8952009       1.5320744
   4 STRETCH   1 13                     2.0546624       1.0872806
   5 STRETCH   2  5                     2.8951866       1.5320669
   6 STRETCH   2  8                     2.0595105       1.0898461
   7 STRETCH   2 14                     2.0546664       1.0872827
   8 STRETCH   2  4                     2.8952009       1.5320744
   9 STRETCH   3 15                     2.0546664       1.0872827
  10 STRETCH   3  6                     2.8951847       1.5320659
  11 STRETCH   3  9                     2.0595105       1.0898461
  12 STRETCH   3  4                     2.8952028       1.5320755
  13 STRETCH   4 10                     2.0595104       1.0898461
  14 STRETCH   4 16                     2.0546624       1.0872806
  15 STRETCH   5 11                     2.0595105       1.0898461
  16 STRETCH   5 17                     2.0546664       1.0872827
  17 STRETCH   6 12                     2.0595105       1.0898461
  18 STRETCH   6 18                     2.0546664       1.0872827
  19 BEND      1  6 12                  1.9047429     109.1337275
  20 BEND      1  6 18                  1.9224015     110.1454934
  21 BEND      1  5 17                  1.9224358     110.1474565
  22 BEND      1  5 11                  1.9047219     109.1325242
  23 BEND      1  5  2                  1.9451477     111.4487518
  24 BEND      1  6  3                  1.9451477     111.4487514
  25 BEND      2  5 17                  1.9223984     110.1453165
  26 BEND      2  4 16                  1.9224405     110.1477296
  27 BEND      2  4 10                  1.9047238     109.1326358
  28 BEND      2  4  3                  1.9451544     111.4491399
  29 BEND      2  5 11                  1.9047655     109.1350231
  30 BEND      3  6 18                  1.9224327     110.1472801
  31 BEND      3  6 12                  1.9047445     109.1338197
  32 BEND      3  4 16                  1.9224063     110.1457703
  33 BEND      3  4 10                  1.9047449     109.1338422
  34 BEND      4  2  5                  1.9451477     111.4487521
  35 BEND      4  3 15                  1.9224015     110.1454947
  36 BEND      4  3  6                  1.9451477     111.4487520
  37 BEND      4  2 14                  1.9224358     110.1474554
  38 BEND      4  2  8                  1.9047218     109.1325214
  39 BEND      4  3  9                  1.9047429     109.1337275
  40 BEND      5  2 14                  1.9223985     110.1453183
  41 BEND      5  1  7                  1.9047239     109.1326378
  42 BEND      5  2  8                  1.9047655     109.1350235
  43 BEND      5  1 13                  1.9224405     110.1477288
  44 BEND      5  1  6                  1.9451544     111.4491390
  45 BEND      6  3  9                  1.9047445     109.1338190
  46 BEND      6  3 15                  1.9224327     110.1472778
  47 BEND      6  1 13                  1.9224064     110.1457710
  48 BEND      6  1  7                  1.9047449     109.1338428
  49 BEND      7  1 13                  1.8623476     106.7046569
  50 BEND      8  2 14                  1.8623492     106.7047468
  51 BEND      9  3 15                  1.8623492     106.7047464
  52 BEND     10  4 16                  1.8623476     106.7046586
  53 BEND     11  5 17                  1.8623491     106.7047452
  54 BEND     12  6 18                  1.8623491     106.7047454
  55 TORSION   1  6  3  4              -0.9563930     -54.7972831
  56 TORSION   1  6  3  9               1.1484976      65.8040632
  57 TORSION   1  6  3 15              -3.0955963    -177.3646028
  58 TORSION   1  5  2  4               0.9563933      54.7972968
  59 TORSION   1  5  2 14               3.0956162     177.3657435
  60 TORSION   1  5  2  8              -1.1484850     -65.8033411
  61 TORSION   2  5  1 13              -3.0956164    -177.3657528
  62 TORSION   2  5  1  7               1.1484870      65.8034554
  63 TORSION   2  5  1  6              -0.9563968     -54.7974993
  64 TORSION   2  4  3  9              -1.1484945     -65.8038876
  65 TORSION   2  4  3  6               0.9563970      54.7975124
  66 TORSION   2  4  3 15               3.0956182     177.3658562
  67 TORSION   3  6  1 13               3.0956363     177.3668922
  68 TORSION   3  6  1  5               0.9563970      54.7975143
  69 TORSION   3  6  1  7              -1.1484744     -65.8027335
  70 TORSION   3  4  2 14              -3.0955983    -177.3647164
  71 TORSION   3  4  2  8               1.1485071      65.8046084
  72 TORSION   3  4  2  5              -0.9563967     -54.7974972
  73 TORSION   4  2  5 17               3.0956162     177.3657435
  74 TORSION   4  3  6 12               1.1484976      65.8040634
  75 TORSION   4  3  6 18              -3.0955963    -177.3646022
  76 TORSION   4  2  5 11              -1.1484850     -65.8033441
  77 TORSION   5  2  4 10               1.1484870      65.8034560
  78 TORSION   5  2  4 16              -3.0956163    -177.3657509
  79 TORSION   5  1  6 12              -1.1484945     -65.8038863
  80 TORSION   5  1  6 18               3.0956182     177.3658597
  81 TORSION   6  1  5 17              -3.0955983    -177.3647169
  82 TORSION   6  3  4 10              -1.1484744     -65.8027331
  83 TORSION   6  3  4 16               3.0956362     177.3668913
  84 TORSION   6  1  5 11               1.1485071      65.8046075
  85 TORSION   7  1  5 11              -3.0297945    -173.5944378
  86 TORSION   7  1  6 18               0.9907468      56.7656118
  87 TORSION   7  1  5 17              -0.9907145     -56.7637622
  88 TORSION   7  1  6 12               3.0298194     173.5958659
  89 TORSION   8  2  4 16              -0.9907125     -56.7636452
  90 TORSION   8  2  5 17               0.9907380      56.7651056
  91 TORSION   8  2  5 11               3.0298221     173.5960180
  92 TORSION   8  2  4 10              -3.0297945    -173.5944384
  93 TORSION   9  3  4 10               3.0298194     173.5958669
  94 TORSION   9  3  4 16               0.9907447      56.7654913
  95 TORSION   9  3  6 12              -3.0297972    -173.5945903
  96 TORSION   9  3  6 18              -0.9907057     -56.7632559
  97 TORSION  10  4  3 15               0.9907468      56.7656107
  98 TORSION  10  4  2 14              -0.9907146     -56.7637632
  99 TORSION  11  5  1 13              -0.9907125     -56.7636460
 100 TORSION  11  5  2 14               0.9907379      56.7651025
 101 TORSION  12  6  1 13               0.9907447      56.7654917
 102 TORSION  12  6  3 15              -0.9907057     -56.7632564
 103 TORSION  13  1  6 18              -1.0483279     -60.0647624
 104 TORSION  13  1  5 17               1.0483674      60.0670296
 105 TORSION  14  2  4 16               1.0483674      60.0670300
 106 TORSION  14  2  5 17              -1.0483461     -60.0658098
 107 TORSION  15  3  4 16              -1.0483279     -60.0647648
 108 TORSION  15  3  6 18               1.0483857      60.0680781

          INTERNUCLEAR DISTANCES (ANGS.)


 =====================================================
   GAMESS/COSab RESULTS
 =====================================================

   Dielectric Constant                  = INFTY
   Basic Grid Size                      =                 1082
   Number of Segments                   =                   92
   Number of Segments located on spheres=                  204
   Number of Segments of the cavity     =                  594
   Solvent Radius (rsolv)               = 1.40
   Outlying Charge Error Method         = double cavity

 =====================================================

  Total solvated Energy (a.u.)          =  -234.2651321408
  Total Energy corrected (a.u.)         =  -234.2650446693

  Outlying charge effect (a.u.)         =     0.0000874716
  Outlying charge effect (kcal/mol)     =     0.0548892726

  Dielectric Energy (a.u.)              =    -0.0008614669
  Dielectric energy corr. (a.u.)        =    -0.0007739954

  Sum of polarization charges           =     0.0281466816
  Sum of polarization charges(cor.)     =    -0.0281466816

  Total surface area of cavity (A**2)   =  130.69
  Total volume of cavity (A**3)         =  125.65

 =====================================================
 NPS=                   594
NR.  ATOM  (X, Y, Z)(a.u.)                  CHARGE(e)  AREA(A**2) SIGMA(e/A**2)
   1   1  -2.382292  -5.151107   2.137163   0.000875   0.278737   0.003140
   2   1   1.172807  -5.945252   2.100214   0.001591   0.325193   0.004892
   3   1  -0.007726  -4.168300  -3.075095   0.000212   0.092912   0.002286
   4   1   0.803653  -5.532334   2.875827   0.001373   0.278737   0.004927
   5   1  -1.991506  -4.740071   2.964468   0.000912   0.278737   0.003271
   6   1  -1.532365  -5.766965   2.138875   0.001696   0.371649   0.004563
   7   1  -0.041553  -6.035919   2.321931   0.001862   0.325193   0.005725
   8   1   2.054782  -5.211109   2.449750   0.001543   0.418105   0.003691
   9   1  -2.149138  -5.786054   1.156837   0.000914   0.278737   0.003280
  10   1   2.171297  -5.735713   1.287504   0.001153   0.325193   0.003544
  11   1   0.301476  -4.390753  -2.964207   0.000117   0.046456   0.002513
  12   1   2.279969  -4.290667   3.031406   0.000517   0.185824   0.002782
  13   1  -0.879498  -5.659267   2.695828   0.001402   0.278737   0.005029
  14   2  -3.269850   4.638695   2.137132   0.000875   0.278737   0.003140
  15   2  -5.735160   1.956971   2.100196   0.001591   0.325193   0.004891
  16   2  -3.605957   2.090787  -3.075094   0.000212   0.092912   0.002286
  17   2  -5.192993   2.070218   2.875813   0.001373   0.278737   0.004927
  18   2  -3.109286   4.094757   2.964446   0.000912   0.278737   0.003271
  19   2  -4.228164   4.210570   2.138841   0.001696   0.371649   0.004563
  20   2  -5.206498   3.053972   2.321902   0.001862   0.325193   0.005725
  21   2  -5.540370   0.826092   2.449749   0.001543   0.418105   0.003691
  22   2  -3.936296   4.754240   1.156798   0.000914   0.278737   0.003280
  23   2  -6.052936   0.987474   1.287496   0.001153   0.325193   0.003544
  24   2  -3.953210   1.934240  -2.964208   0.000117   0.046456   0.002513
  25   2  -4.855846   0.170858   3.031421   0.000517   0.185824   0.002782
  26   2  -4.461336   3.591330   2.695800   0.001402   0.278737   0.005029
  27   3   5.652162   0.512485   2.137193   0.000875   0.278737   0.003140
  28   3   4.562318   3.988349   2.100176   0.001591   0.325193   0.004891
  29   3   3.613691   2.077378  -3.075086   0.000212   0.092912   0.002285
  30   3   4.389310   3.462207   2.875801   0.001373   0.278737   0.004927
  31   3   5.100806   0.645408   2.964498   0.000912   0.278737   0.003271
  32   3   5.760535   1.556474   2.138882   0.001696   0.371649   0.004563
  33   3   5.248032   2.982029   2.321910   0.001862   0.325193   0.005725
  34   3   3.485542   4.385084   2.449710   0.001543   0.418105   0.003690
  35   3   6.085452   1.031860   1.156853   0.000914   0.278737   0.003280
  36   3   3.881592   4.748271   1.287454   0.001153   0.325193   0.003544
  37   3   3.651737   2.456384  -2.964207   0.000117   0.046456   0.002513
  38   3   2.575829   4.119882   3.031377   0.000517   0.185824   0.002781
  39   3   5.340828   2.068031   2.695827   0.001402   0.278737   0.005029
  40   4  -2.382261   5.151125  -2.137196   0.000875   0.278737   0.003140
  41   4   1.172847   5.945226  -2.100213   0.001591   0.325193   0.004892
  42   4  -0.007761   4.168308   3.075090   0.000212   0.092912   0.002286
  43   4   0.803696   5.532311  -2.875828   0.001373   0.278737   0.004927
  44   4  -1.991472   4.740081  -2.964495   0.000912   0.278737   0.003271
  45   4  -1.532327   5.766973  -2.138901   0.001696   0.371649   0.004563
  46   4  -0.041509   6.035908  -2.321943   0.001862   0.325193   0.005725
  47   4   2.054816   5.211072  -2.449737   0.001543   0.418105   0.003690
  48   4  -2.149109   5.786072  -1.156870   0.000914   0.278737   0.003280
  49   4   2.171326   5.735678  -1.287492   0.001153   0.325193   0.003544
  50   4   0.301445   4.390758   2.964205   0.000117   0.046456   0.002513
  51   4   2.279998   4.290625  -3.031388   0.000517   0.185824   0.002782
  52   4  -0.879455   5.659264  -2.695848   0.001402   0.278737   0.005029
  53   5  -3.269818  -4.638711  -2.137121   0.000875   0.278737   0.003140
  54   5  -5.735153  -1.957010  -2.100205   0.001591   0.325193   0.004892
  55   5  -3.605964  -2.090779   3.075092   0.000212   0.092912   0.002286
  56   5  -5.192982  -2.070256  -2.875820   0.001373   0.278737   0.004927
  57   5  -3.109257  -4.094776  -2.964437   0.000912   0.278737   0.003271
  58   5  -4.228136  -4.210595  -2.138834   0.001696   0.371649   0.004562
  59   5  -5.206480  -3.054007  -2.321905   0.001862   0.325193   0.005725
  60   5  -5.540372  -0.826130  -2.449763   0.001543   0.418105   0.003691
  61   5  -3.936267  -4.754257  -1.156788   0.000914   0.278737   0.003280
  62   5  -6.052939  -0.987511  -1.287511   0.001153   0.325193   0.003544
  63   5  -3.953218  -1.934236   2.964204   0.000117   0.046456   0.002513
  64   5  -4.855852  -0.170893  -3.031437   0.000517   0.185824   0.002782
  65   5  -4.461312  -3.591360  -2.695798   0.001402   0.278737   0.005029
  66   6   5.652152  -0.512441  -2.137222   0.000875   0.278737   0.003140
  67   6   4.562342  -3.988315  -2.100232   0.001591   0.325193   0.004892
  68   6   3.613750  -2.077410   3.075061   0.000212   0.092912   0.002286
  69   6   4.389321  -3.462167  -2.875850   0.001373   0.278737   0.004927
  70   6   5.100788  -0.645360  -2.964523   0.000912   0.278737   0.003271
  71   6   5.760535  -1.556428  -2.138923   0.001696   0.371649   0.004563
  72   6   5.248044  -2.981987  -2.321962   0.001862   0.325193   0.005725
  73   6   3.485566  -4.385057  -2.449759   0.001543   0.418105   0.003690
  74   6   6.085458  -1.031822  -1.156892   0.000914   0.278737   0.003280
  75   6   3.881632  -4.748253  -1.287511   0.001153   0.325193   0.003544
  76   6   3.651798  -2.456415   2.964177   0.000117   0.046456   0.002513
  77   6   2.575845  -4.119857  -3.031414   0.000517   0.185824   0.002781
  78   6   5.340828  -2.067983  -2.695870   0.001402   0.278737   0.005029
  79   7  -0.192674  -3.406528   4.882428  -0.001538   0.392554  -0.003919
  80   7   1.690505  -3.165596   4.249597  -0.000867   0.333671  -0.002598
  81   7   0.218154  -4.700236   4.133060  -0.000517   0.372926  -0.001386
  82   7  -1.635454  -3.762704   4.099889  -0.000628   0.392554  -0.001599
  83   7  -0.124997  -2.177316   4.837140  -0.001922   0.412182  -0.004663
  84   7   0.935435  -2.606479   4.742920  -0.001336   0.333671  -0.004004
  85   7   0.766450  -3.773497   4.648392  -0.001040   0.314043  -0.003311
  86   7  -0.743338  -4.446787   4.236100  -0.000692   0.392554  -0.001763
  87   7  -1.250418  -2.878719   4.603465  -0.001557   0.431809  -0.003607
  88   7   1.336724  -4.253850   4.032471  -0.000287   0.294415  -0.000973
  89   8  -2.853849   1.870177   4.882448  -0.001538   0.392554  -0.003919
  90   8  -3.586786   0.118824   4.249633  -0.000867   0.333671  -0.002598
  91   8  -4.179637   2.161238   4.133063  -0.000517   0.372926  -0.001386
  92   8  -2.440902   3.297736   4.099893  -0.000628   0.392554  -0.001600
  93   8  -1.823160   1.196955   4.837178  -0.001922   0.412182  -0.004663
  94   8  -2.725045   0.493178   4.742960  -0.001336   0.333671  -0.004004
  95   8  -3.651215   1.223035   4.648413  -0.001040   0.314043  -0.003311
  96   8  -3.479396   2.867189   4.236100  -0.000692   0.392554  -0.001763
  97   8  -1.867874   2.522297   4.603486  -0.001557   0.431809  -0.003607
  98   8  -4.352346   0.969335   4.032488  -0.000287   0.294415  -0.000973
  99   9   3.046508   1.536486   4.882442  -0.001538   0.392554  -0.003919
 100   9   1.896241   3.046872   4.249585  -0.000867   0.333671  -0.002599
 101   9   3.961459   2.539123   4.133046  -0.000517   0.372926  -0.001386
 102   9   4.076363   0.465086   4.099919  -0.000628   0.392554  -0.001599
 103   9   1.948146   0.980475   4.837172  -0.001922   0.412182  -0.004663
 104   9   1.789581   2.113414   4.742929  -0.001336   0.333671  -0.004004
 105   9   2.884735   2.550589   4.648385  -0.001040   0.314043  -0.003311
 106   9   4.222725   1.579727   4.236106  -0.000692   0.392554  -0.001763
 107   9   3.118296   0.356543   4.603504  -0.001557   0.431809  -0.003607
 108   9   3.015583   3.284626   4.032447  -0.000287   0.294415  -0.000974
 109  10  -0.192637   3.406510  -4.882445  -0.001538   0.392554  -0.003918
 110  10   1.690533   3.165557  -4.249593  -0.000867   0.333671  -0.002598
 111  10   0.218200   4.700215  -4.133077  -0.000517   0.372926  -0.001386
 112  10  -1.635420   3.762706  -4.099921  -0.000628   0.392554  -0.001599
 113  10  -0.124975   2.177296  -4.837151  -0.001922   0.412182  -0.004663
 114  10   0.935462   2.606447  -4.742922  -0.001336   0.333671  -0.004004
 115  10   0.766490   3.773467  -4.648400  -0.001040   0.314043  -0.003311
 116  10  -0.743294   4.446778  -4.236126  -0.000692   0.392554  -0.001763
 117  10  -1.250390   2.878714  -4.603490  -0.001557   0.431809  -0.003607
 118  10   1.336764   4.253816  -4.032475  -0.000287   0.294415  -0.000973
 119  11  -2.853833  -1.870203  -4.882431  -0.001538   0.392554  -0.003919
 120  11  -3.586788  -0.118854  -4.249627  -0.000867   0.333671  -0.002599
 121  11  -4.179621  -2.161272  -4.133048  -0.000517   0.372926  -0.001386
 122  11  -2.440875  -3.297754  -4.099867  -0.000628   0.392554  -0.001600
 123  11  -1.823151  -1.196971  -4.837162  -0.001922   0.412182  -0.004663
 124  11  -2.725042  -0.493202  -4.742949  -0.001336   0.333671  -0.004004
 125  11  -3.651206  -1.223067  -4.648402  -0.001040   0.314043  -0.003311
 126  11  -3.479374  -2.867217  -4.236080  -0.000692   0.392554  -0.001763
 127  11  -1.867854  -2.522313  -4.603462  -0.001557   0.431809  -0.003607
 128  11  -4.352341  -0.969370  -4.032480  -0.000287   0.294415  -0.000973
 129  12   3.046479  -1.536436  -4.882444  -0.001538   0.392554  -0.003919
 130  12   1.896233  -3.046840  -4.249592  -0.000867   0.333671  -0.002599
 131  12   3.961448  -2.539073  -4.133069  -0.000517   0.372926  -0.001387
 132  12   4.076332  -0.465035  -4.099920  -0.000628   0.392554  -0.001599
 133  12   1.948112  -0.980436  -4.837157  -0.001922   0.412182  -0.004663
 134  12   1.789559  -2.113377  -4.742925  -0.001336   0.333671  -0.004004
 135  12   2.884718  -2.550544  -4.648397  -0.001040   0.314043  -0.003312
 136  12   4.222703  -1.579673  -4.236121  -0.000692   0.392554  -0.001763
 137  12   3.118259  -0.356495  -4.603494  -0.001557   0.431809  -0.003607
 138  12   3.015580  -3.284586  -4.032468  -0.000287   0.294415  -0.000974
 139  13  -0.034957  -7.014860  -1.071669  -0.002895   0.588831  -0.004917
 140  13   1.143397  -6.142355  -1.895152  -0.000888   0.333671  -0.002662
 141  13  -0.499141  -5.696690  -2.461211  -0.000610   0.333671  -0.001830
 142  13  -1.672050  -6.459718  -0.608179  -0.000913   0.372926  -0.002447
 143  13  -0.317583  -6.882578   0.786980  -0.000472   0.372926  -0.001266
 144  13   1.582496  -6.537765   0.069836  -0.000515   0.353299  -0.001458
 145  13   0.322292  -6.042278  -2.302268  -0.001291   0.431809  -0.002990
 146  13  -1.147247  -6.349216  -1.679278  -0.001453   0.490692  -0.002961
 147  13  -1.047198  -6.894590   0.009739  -0.001178   0.431809  -0.002727
 148  13   0.592371  -7.007935   0.285233  -0.001310   0.471065  -0.002780
 149  13   1.386095  -6.587609  -0.994684  -0.001413   0.490692  -0.002880
 150  14  -6.057570   3.537701  -1.071674  -0.002895   0.588831  -0.004917
 151  14  -5.891142   2.080956  -1.895144  -0.000888   0.333671  -0.002662
 152  14  -4.683909   3.280593  -2.461212  -0.000611   0.333671  -0.001830
 153  14  -4.758252   4.677892  -0.608192  -0.000913   0.372926  -0.002447
 154  14  -5.801699   3.716336   0.786974  -0.000472   0.372926  -0.001265
 155  14  -6.453129   1.898410   0.069845  -0.000515   0.353299  -0.001458
 156  14  -5.393916   2.742010  -2.302265  -0.001291   0.431809  -0.002990
 157  14  -4.924957   4.168140  -1.679287  -0.001453   0.490692  -0.002961
 158  14  -5.447290   4.354199   0.009728  -0.001178   0.431809  -0.002727
 159  14  -6.365241   2.990970   0.285233  -0.001310   0.471065  -0.002780
 160  14  -6.398092   2.093411  -0.994677  -0.001413   0.490692  -0.002880
 161  15   6.092519   3.477163  -1.071685  -0.002895   0.588831  -0.004917
 162  15   4.747723   4.061364  -1.895178  -0.000888   0.333671  -0.002662
 163  15   5.183055   2.416047  -2.461207  -0.000611   0.333671  -0.001830
 164  15   6.430320   1.781842  -0.608164  -0.000913   0.372926  -0.002447
 165  15   6.119277   3.166296   0.786969  -0.000472   0.372926  -0.001265
 166  15   4.870602   4.639377   0.069800  -0.000515   0.353299  -0.001458
 167  15   5.071615   3.300224  -2.302280  -0.001291   0.431809  -0.002990
 168  15   6.072215   2.181059  -1.679270  -0.001453   0.490692  -0.002961
 169  15   6.494495   2.540427   0.009740  -0.001178   0.431809  -0.002727
 170  15   5.772852   4.017004   0.285207  -0.001310   0.471065  -0.002780
 171  15   5.011970   4.494193  -0.994718  -0.001413   0.490692  -0.002879
 172  16  -0.034937   7.014867   1.071626  -0.002895   0.588831  -0.004917
 173  16   1.143399   6.142357   1.895130  -0.000888   0.333671  -0.002662
 174  16  -0.499151   5.696717   2.461177  -0.000611   0.333671  -0.001830
 175  16  -1.672031   6.459741   0.608125  -0.000913   0.372926  -0.002447
 176  16  -0.317545   6.882570  -0.787024  -0.000472   0.372926  -0.001265
 177  16   1.582522   6.537741  -0.069858  -0.000515   0.353299  -0.001458
 178  16   0.322288   6.042294   2.302238  -0.001291   0.431809  -0.002990
 179  16  -1.147241   6.349243   1.679230  -0.001453   0.490692  -0.002961
 180  16  -1.047168   6.894599  -0.009791  -0.001178   0.431809  -0.002727
 181  16   0.592405   7.007921  -0.285269  -0.001310   0.471065  -0.002780
 182  16   1.386111   6.587599   0.994660  -0.001413   0.490692  -0.002880
 183  17  -6.057560  -3.537728   1.071703  -0.002895   0.588831  -0.004916
 184  17  -5.891143  -2.080974   1.895160  -0.000888   0.333671  -0.002662
 185  17  -4.683898  -3.280595   2.461235  -0.000610   0.333671  -0.001830
 186  17  -4.758234  -4.677911   0.608227  -0.000913   0.372926  -0.002447
 187  17  -5.801692  -3.716375  -0.786944  -0.000472   0.372926  -0.001265
 188  17  -6.453137  -1.898449  -0.069829  -0.000515   0.353299  -0.001458
 189  17  -5.393911  -2.742020   2.302285  -0.001291   0.431809  -0.002990
 190  17  -4.924940  -4.168151   1.679318  -0.001453   0.490692  -0.002960
 191  17  -5.447276  -4.354229  -0.009694  -0.001177   0.431809  -0.002727
 192  17  -6.365240  -2.991010  -0.285207  -0.001310   0.471065  -0.002780
 193  17  -6.398096  -2.093441   0.994695  -0.001413   0.490692  -0.002880
 194  18   6.092529  -3.477126   1.071701  -0.002895   0.588831  -0.004917
 195  18   4.747732  -4.061340   1.895183  -0.000888   0.333671  -0.002662
 196  18   5.183044  -2.416018   2.461217  -0.000611   0.333671  -0.001830
 197  18   6.430317  -1.781800   0.608184  -0.000913   0.372926  -0.002447
 198  18   6.119298  -3.166257  -0.786953  -0.000472   0.372926  -0.001265
 199  18   4.870632  -4.639350  -0.069794  -0.000515   0.353299  -0.001458
 200  18   5.071614  -3.300197   2.302288  -0.001291   0.431809  -0.002990
 201  18   6.072208  -2.181022   1.679287  -0.001453   0.490692  -0.002960
 202  18   6.494504  -2.540385  -0.009720  -0.001178   0.431809  -0.002727
 203  18   5.772877  -4.016968  -0.285194  -0.001310   0.471065  -0.002780
 204  18   5.011991  -4.494165   0.994725  -0.001413   0.490692  -0.002880
 205   1  -2.542390  -3.407815   3.165512   0.000042   0.028548   0.001454
 206   5  -2.932846  -3.155268   2.982910   0.000067   0.028548   0.002331
 207   7  -2.334782  -3.367216   3.384723   0.000009   0.028548   0.000332
 208   1  -1.266183  -4.117602  -2.982896   0.000067   0.028548   0.002331
 209   5  -1.680123  -3.905729  -3.165497   0.000041   0.028548   0.001453
 210  11  -1.748765  -3.705640  -3.384709   0.000009   0.028548   0.000331
 211   1  -1.055077  -4.542284  -2.738675   0.000050   0.027092   0.001862
 212   5  -1.464833  -4.280164  -2.852394   0.000067   0.027092   0.002461
 213  13  -0.980518  -4.813026  -2.623951   0.000026   0.027092   0.000966
 214   1  -2.553428  -5.501741  -0.130791   0.000058   0.027092   0.002135
 215   5  -2.943370  -5.226933  -0.278996   0.000112   0.027092   0.004142
 216  13  -2.344398  -5.686375  -0.250115   0.000019   0.027092   0.000683
 217   1  -3.054974  -5.162507   0.278882   0.000112   0.027094   0.004142
 218   5  -3.487934  -4.962209   0.130676   0.000058   0.027094   0.002135
 219  17  -3.752349  -4.873504   0.250015   0.000019   0.027094   0.000683
 220   1  -2.974296  -3.408550   2.852439   0.000067   0.027094   0.002461
 221   5  -3.406175  -3.184748   2.738721   0.000050   0.027094   0.001862
 222  17  -3.677927  -3.255564   2.623997   0.000026   0.027094   0.000966
 223   5  -1.662190  -4.061757  -3.082166   0.000048   0.015524   0.003102
 224   1  -1.080915  -4.415522  -2.858416   0.000053   0.015524   0.003407
 225   5  -3.319896  -5.090322  -0.144419   0.000217   0.065137   0.003335
 226   1  -2.748400  -5.420278   0.144295   0.000217   0.065137   0.003335
 227   5  -3.283480  -3.143752   2.858450   0.000053   0.015515   0.003407
 228   1  -2.686477  -3.470280   3.082194   0.000048   0.015515   0.003102
 229   1   2.542357  -3.407684   3.165582   0.000047   0.028546   0.001642
 230   6   2.932812  -3.155139   2.982977   0.000094   0.028546   0.003292
 231   7   2.334740  -3.367097   3.384787   0.000019   0.028546   0.000652
 232   1   1.266066  -4.117468  -2.982998   0.000094   0.028546   0.003292
 233   6   1.680003  -3.905595  -3.165603   0.000047   0.028546   0.001641
 234  12   1.748658  -3.705503  -3.384804   0.000019   0.028546   0.000652
 235   1   2.553514  -5.501721  -0.130560   0.000044   0.027095   0.001639
 236   6   2.943455  -5.226915  -0.278770   0.000072   0.027095   0.002654
 237  13   2.344498  -5.686358  -0.249905   0.000024   0.027095   0.000869
 238   1   1.055026  -4.542227  -2.738730   0.000058   0.027095   0.002159
 239   6   1.464783  -4.280110  -2.852451   0.000107   0.027095   0.003949
 240  13   0.980493  -4.812975  -2.624002   0.000024   0.027095   0.000875
 241   1   2.974293  -3.408507   2.852464   0.000107   0.027095   0.003949
 242   6   3.406171  -3.184704   2.738743   0.000059   0.027095   0.002159
 243  18   3.677912  -3.255536   2.624018   0.000024   0.027095   0.000875
 244   1   3.054945  -5.162545   0.278750   0.000072   0.027095   0.002654
 245   6   3.487904  -4.962247   0.130540   0.000044   0.027095   0.001639
 246  18   3.752310  -4.873552   0.249891   0.000024   0.027095   0.000869
 247   6   3.278172  -3.128549   2.867967   0.000067   0.015532   0.004298
 248   1   2.691757  -3.485292   3.072775   0.000065   0.015532   0.004215
 249   6   3.340128  -5.078663  -0.069974   0.000178   0.065070   0.002734
 250   1   2.728220  -5.431949   0.069951   0.000178   0.065070   0.002734
 251   6   1.672538  -4.073805  -3.072776   0.000065   0.015543   0.004213
 252   1   1.070375  -4.403278  -2.867975   0.000067   0.015543   0.004297
 253   7  -2.009304  -3.743566   3.612851  -0.000047   0.070389  -0.000667
 254   7  -1.288096  -4.608249   3.560072  -0.000156   0.156528  -0.000994
 255   7   0.000022  -5.050280   3.533103  -0.000043   0.156528  -0.000277
 256   7   1.288114  -4.608177   3.560111  -0.000201   0.156528  -0.001285
 257   7   2.009272  -3.743453   3.612912  -0.000051   0.070389  -0.000727
 258   1  -1.971551  -4.220735   3.245429  -0.000019   0.154100  -0.000125
 259   1  -0.764994  -5.159873   3.188112   0.000247   0.154100   0.001605
 260   1   0.765055  -5.159830   3.188135   0.000205   0.154100   0.001330
 261   1   1.971558  -4.220624   3.245490  -0.000012   0.154100  -0.000080
 262   1   0.000025  -3.315367  -3.376371   0.000232   0.165993   0.001397
 263  11  -0.559917  -2.914481  -3.685961   0.000083   0.165993   0.000503
 264  12   0.559964  -2.914467  -3.685961   0.000020   0.165993   0.000121
 265  11  -1.366484  -3.259455  -3.750475  -0.000241   0.212179  -0.001137
 266   1  -0.740154  -3.998506  -3.160472   0.000698   0.298904   0.002335
 267  12   1.519740  -3.392032  -3.679179  -0.000194   0.212136  -0.000915
 268   1   0.600506  -3.877602  -3.225505   0.000639   0.298843   0.002137
 269  13   2.023510  -6.052034   0.006054  -0.000048   0.071395  -0.000676
 270  13   1.305770  -6.360709   0.845045  -0.000179   0.159529  -0.001119
 271  13  -0.000019  -6.519118   1.275549  -0.000111   0.159529  -0.000693
 272  13  -1.305767  -6.360721   0.844916  -0.000170   0.159529  -0.001065
 273  13  -2.023427  -6.052052   0.005855  -0.000055   0.071395  -0.000768
 274   1   1.990023  -5.911287   0.595891  -0.000088   0.155565  -0.000565
 275   1   0.777173  -6.246985   1.508303   0.000202   0.155565   0.001296
 276   1  -0.777237  -6.246992   1.508226   0.000205   0.155565   0.001321
 277   1  -1.989999  -5.911305   0.595695  -0.000043   0.155565  -0.000279
 278  13  -0.477397  -5.075136  -2.649486  -0.000057   0.076524  -0.000741
 279  13   0.477375  -5.075103  -2.649516  -0.000057   0.076524  -0.000744
 280   1  -0.000027  -4.679660  -2.752016  -0.000164   0.164195  -0.000998
 281  17  -3.936056  -4.796474   0.684038  -0.000128   0.209552  -0.000611
 282  17  -3.905786  -4.018273   1.968915  -0.000890   0.430157  -0.002069
 283   1  -2.918919  -4.968340   1.386652   0.001085   0.572739   0.001895
 284   1  -2.866902  -3.946922   2.755073   0.000857   0.295130   0.002905
 285  18   3.882179  -3.625701   2.401908  -0.000087   0.209561  -0.000415
 286  18   3.929601  -4.536827   1.208059  -0.000893   0.430178  -0.002075
 287   1   2.891468  -4.371802   2.261943   0.001175   0.572763   0.002051
 288   1   2.927835  -5.272216   0.810448   0.000823   0.295144   0.002788
 289   2  -1.680130   3.905727   3.165498   0.000041   0.028548   0.001453
 290   4  -1.266193   4.117600   2.982897   0.000067   0.028548   0.002331
 291   8  -1.748773   3.705636   3.384714   0.000009   0.028548   0.000331
 292   2  -2.932843   3.155230  -2.982932   0.000067   0.028548   0.002331
 293   4  -2.542390   3.407775  -3.165533   0.000042   0.028548   0.001454
 294  10  -2.334778   3.367178  -3.384746   0.000009   0.028548   0.000332
 295   2  -3.406199   3.184788  -2.738692   0.000050   0.027093   0.001862
 296   4  -2.974323   3.408588  -2.852410   0.000067   0.027093   0.002461
 297  14  -3.677949   3.255596  -2.623968   0.000026   0.027093   0.000966
[...]
 335   5  -4.364206   0.588509  -3.072809   0.000066   0.015547   0.004214
 336   2  -4.348451   1.274722  -2.868007   0.000067   0.015547   0.004297
 337   8  -2.237442   3.611935   3.612839  -0.000047   0.070390  -0.000667
 338   8  -3.346886   3.419670   3.560052  -0.000156   0.156530  -0.000994
 339   8  -4.373742   2.525118   3.533088  -0.000043   0.156530  -0.000277
 340   8  -4.634888   1.188533   3.560114  -0.000201   0.156530  -0.001285
 341   8  -4.246568   0.131634   3.612935  -0.000051   0.070390  -0.000727
 342   2  -2.669561   3.817812   3.245407  -0.000019   0.154102  -0.000125
 343   2  -4.086154   3.242441   3.188085   0.000247   0.154102   0.001605
 344   2  -4.851117   1.917336   3.188121   0.000205   0.154102   0.001329
 345   2  -4.640958   0.402868   3.245501  -0.000012   0.154102  -0.000080
 346   2  -2.871206   1.657651  -3.376351   0.000232   0.165995   0.001398
 347  10  -2.244052   1.942125  -3.685947   0.000084   0.165995   0.000503
 348  11  -2.803987   0.972277  -3.685946   0.000020   0.165995   0.000121
 349  10  -2.139516   2.813079  -3.750481  -0.000241   0.212157  -0.001137
 350   2  -3.092723   2.640171  -3.160486   0.000698   0.298872   0.002336
 351  11  -3.697411   0.379902  -3.679195  -0.000194   0.212114  -0.000915
 352   2  -3.658319   1.418764  -3.225507   0.000639   0.298812   0.002137
 353  14  -4.156492   2.950958  -2.649495  -0.000057   0.076519  -0.000741
 354  14  -4.633810   2.124155  -2.649529  -0.000057   0.076519  -0.000744
 355   2  -4.052658   2.339838  -2.752033  -0.000164   0.164186  -0.000998
 356  14  -6.252979   1.273609   0.006094  -0.000048   0.071394  -0.000676
 357  14  -6.161427   2.049526   0.845064  -0.000179   0.159527  -0.001119
 358  14  -5.645725   3.259561   1.275563  -0.000111   0.159527  -0.000693
 359  14  -4.855683   4.311166   0.844952  -0.000170   0.159527  -0.001065
 360  14  -4.229537   4.778355   0.005920  -0.000055   0.071394  -0.000768
 361   2  -6.114343   1.232236   0.595928  -0.000088   0.155565  -0.000565
 362   2  -5.798641   2.450433   1.508320   0.000202   0.155565   0.001296
 363   2  -5.021453   3.796578   1.508253   0.000205   0.155565   0.001321
 364   2  -4.124361   4.679023   0.595757  -0.000043   0.155565  -0.000279
 365  16  -2.185825   5.806953   0.684113  -0.000128   0.209530  -0.000611
 366  16  -1.527075   5.391689   1.968869  -0.000890   0.430108  -0.002069
 367   2  -2.843255   5.012041   1.386692   0.001085   0.572681   0.001895
 368   2  -1.984776   4.456358   2.754995   0.000857   0.295099   0.002905
 369  17  -5.081033  -1.549222   2.401938  -0.000087   0.209565  -0.000415
 370  17  -5.893821  -1.134708   1.208073  -0.000893   0.430186  -0.002075
 371   2  -5.231819  -0.318189   2.261972   0.001175   0.572772   0.002051
 372   2  -6.029802   0.100543   0.810456   0.000823   0.295149   0.002788
 373   3   1.680035   3.905636   3.165567   0.000047   0.028546   0.001641
 374   4   1.266096   4.117508   2.982964   0.000094   0.028546   0.003292
 375   9   1.748690   3.705545   3.384773   0.000019   0.028546   0.000652
 376   3   2.932818   3.155202  -2.982943   0.000094   0.028547   0.003292
 377   4   2.542362   3.407747  -3.165546   0.000047   0.028547   0.001642
 378  10   2.334748   3.367152  -3.384757   0.000019   0.028547   0.000652
 379   3   3.487871   4.962260  -0.130466   0.000044   0.027096   0.001639
 380   4   3.054912   5.162557  -0.278676   0.000072   0.027096   0.002654
 381  15   3.752280   4.873568  -0.249823   0.000024   0.027096   0.000869
 382   3   3.406149   3.184699  -2.738750   0.000059   0.027096   0.002159
 383   4   2.974271   3.408501  -2.852470   0.000107   0.027096   0.003949
 384  15   3.677893   3.255535  -2.624023   0.000024   0.027096   0.000875
 385   3   1.464800   4.280133   2.852424   0.000107   0.027094   0.003949
 386   4   1.055044   4.542252   2.738703   0.000058   0.027094   0.002159
 387  16   0.980512   4.812997   2.623974   0.000024   0.027094   0.000875
 388   3   2.943455   5.226906   0.278721   0.000072   0.027094   0.002654
 389   4   2.553514   5.501711   0.130511   0.000044   0.027094   0.001639
 390  16   2.344500   5.686349   0.249856   0.000024   0.027094   0.000869
 391   4   2.691745   3.485314  -3.072763   0.000065   0.015517   0.004216
 392   3   3.278166   3.128587  -2.867947   0.000067   0.015517   0.004300
 393   4   1.070402   4.403313   2.867942   0.000067   0.015539   0.004298
 394   3   1.672561   4.073837   3.072744   0.000065   0.015539   0.004214
 395   4   2.728206   5.431947  -0.069949   0.000178   0.065047   0.002734
 396   3   3.340107   5.078665   0.070000   0.000178   0.065047   0.002734
 397   3   4.222353  -0.497927   3.165581   0.000042   0.028545   0.001454
 398   6   4.198874  -0.962336   2.982971   0.000067   0.028545   0.002331
 399   9   4.083401  -0.338418   3.384785   0.000009   0.028545   0.000332
 400   3   4.198848   0.962357  -2.982984   0.000067   0.028545   0.002331
 401   6   4.222332   0.497948  -3.165593   0.000042   0.028545   0.001454
 402  12   4.083379   0.338442  -3.384795   0.000009   0.028545   0.000332
 403   3   4.461147   1.357512  -2.738731   0.000050   0.027093   0.001861
 404   6   4.439028   0.871600  -2.852457   0.000067   0.027093   0.002461
 405  15   4.658350   1.557447  -2.624006   0.000026   0.027093   0.000965
 406   3   6.041381   0.539549  -0.130721   0.000058   0.027093   0.002135
 407   6   5.998366   0.064454  -0.278934   0.000112   0.027093   0.004142
 408  15   6.096763   0.812893  -0.250055   0.000019   0.027093   0.000683
 409   3   5.998362  -0.064434   0.278984   0.000112   0.027093   0.004142
 410   6   6.041382  -0.539529   0.130771   0.000058   0.027093   0.002135
 411  18   6.096764  -0.812870   0.250102   0.000019   0.027093   0.000683
 412   3   4.439040  -0.871581   2.852452   0.000067   0.027093   0.002461
 413   6   4.461164  -1.357492   2.738725   0.000050   0.027093   0.001861
 414  18   4.658364  -1.557424   2.624002   0.000026   0.027093   0.000965
 415   6   4.348510   0.591496  -3.082254   0.000048   0.015537   0.003102
 416   3   4.364251   1.271763  -2.858486   0.000053   0.015537   0.003406
 417   6   6.068317  -0.329937  -0.144340   0.000217   0.065143   0.003335
 418   3   6.068313   0.329956   0.144392   0.000217   0.065143   0.003335
 419   6   4.364273  -1.271745   2.858477   0.000053   0.015535   0.003406
 420   3   4.348527  -0.591477   3.082243   0.000048   0.015535   0.003102
 421   9   4.246607   0.131622   3.612909  -0.000047   0.070390  -0.000667
 422   9   4.634907   1.188537   3.560101  -0.000156   0.156529  -0.000994
 423   9   4.373720   2.525123   3.533101  -0.000043   0.156529  -0.000277
 424   9   3.346823   3.419642   3.560092  -0.000201   0.156529  -0.001285
 425   9   2.237363   3.611856   3.612895  -0.000051   0.070390  -0.000727
 426   3   4.640987   0.402874   3.245483  -0.000019   0.154100  -0.000125
 427   3   4.851111   1.917357   3.188126   0.000247   0.154100   0.001605
 428   3   4.086098   3.242445   3.188120   0.000205   0.154100   0.001329
 429   3   2.669472   3.817758   3.245469  -0.000012   0.154100  -0.000080
 430   3   2.871205   1.657703  -3.376339   0.000232   0.165995   0.001398
 431  10   2.244045   1.942171  -3.685938   0.000020   0.165995   0.000121
 432  12   2.803991   0.972338  -3.685939   0.000084   0.165995   0.000503
 433  10   2.177739   3.012157  -3.679143  -0.000194   0.212142  -0.000914
 434   3   3.057875   2.458862  -3.225460   0.000639   0.298852   0.002137
 435  12   3.505951   0.446355  -3.750492  -0.000241   0.212129  -0.001136
 436   3   3.832780   1.358320  -3.160508   0.000698   0.298833   0.002335
 437  15   4.633803   2.124186  -2.649519  -0.000057   0.076516  -0.000741
 438  15   4.156448   2.950923  -2.649531  -0.000057   0.076516  -0.000744
 439   3   4.052644   2.339806  -2.752047  -0.000164   0.164183  -0.000998
 440  15   4.229463   4.778419   0.006125  -0.000048   0.071395  -0.000676
 441  15   4.855659   4.311168   0.845081  -0.000178   0.159528  -0.001119
 442  15   5.645737   3.259541   1.275562  -0.000111   0.159528  -0.000693
 443  15   6.161434   2.049550   0.844942  -0.000170   0.159528  -0.001065
 444  15   6.252958   1.273702   0.005909  -0.000055   0.071395  -0.000768
 445   3   4.124318   4.679035   0.595960  -0.000088   0.155566  -0.000564
 446   3   5.021468   3.796528   1.508332   0.000202   0.155566   0.001296
 447   3   5.798675   2.450396   1.508249   0.000205   0.155566   0.001321
 448   3   6.114349   1.232278   0.595747  -0.000043   0.155566  -0.000279
 449  16   1.198942   5.174968   2.401853  -0.000087   0.209557  -0.000415
 450  16   1.964258   5.671552   1.208006  -0.000892   0.430168  -0.002075
 451   3   2.340428   4.690018   2.261892   0.001175   0.572751   0.002051
 452   3   3.101993   5.171670   0.810407   0.000823   0.295137   0.002788
 453  18   6.121894  -1.010488   0.684110  -0.000128   0.209545  -0.000611
 454  18   5.432809  -1.373394   1.968943  -0.000890   0.430142  -0.002070
 455   3   5.762162  -0.043713   1.386727   0.001085   0.572720   0.001895
 456   3   4.851577  -0.509393   2.755098   0.000857   0.295120   0.002905
 457   4   0.000016   3.315374   3.376370   0.000232   0.165994   0.001398
 458   8  -0.559924   2.914485   3.685964   0.000083   0.165994   0.000503
 459   9   0.559959   2.914478   3.685961   0.000020   0.165994   0.000121
 460   8  -1.366492   3.259454   3.750480  -0.000241   0.212179  -0.001137
 461   4  -0.740166   3.998507   3.160473   0.000698   0.298903   0.002335
 462   9   1.519759   3.392065   3.679162  -0.000194   0.212148  -0.000915
 463   4   0.600513   3.877625   3.225489   0.000639   0.298860   0.002137
 464  10  -2.009303   3.743528  -3.612874  -0.000047   0.070390  -0.000667
 465  10  -1.288111   4.608219  -3.560090  -0.000156   0.156528  -0.000994
 466  10  -0.000006   5.050274  -3.533107  -0.000043   0.156528  -0.000277
 467  10   1.288094   4.608204  -3.560097  -0.000201   0.156528  -0.001285
 468  10   2.009275   3.743504  -3.612886  -0.000051   0.070390  -0.000727
 469   4  -1.971564   4.220698  -3.245449  -0.000019   0.154102  -0.000125
 470   4  -0.765026   5.159854  -3.188120   0.000247   0.154102   0.001605
 471   4   0.765018   5.159844  -3.188125   0.000205   0.154102   0.001329
 472   4   1.971544   4.220674  -3.245461  -0.000012   0.154102  -0.000080
 473  14  -3.936072   4.796456  -0.684050  -0.000128   0.209545  -0.000611
 474  14  -3.905805   4.018276  -1.968894  -0.000890   0.430142  -0.002070
 475   4  -2.918944   4.968333  -1.386654   0.001085   0.572721   0.001895
 476   4  -2.866931   3.946946  -2.755044   0.000857   0.295120   0.002905
 477  15   3.882161   3.625713  -2.401908  -0.000087   0.209568  -0.000415
 478  15   3.929577   4.536852  -1.208021  -0.000893   0.430192  -0.002075
 479   4   2.891442   4.371816  -2.261926   0.001175   0.572779   0.002051
 480   4   2.927803   5.272236  -0.810386   0.000823   0.295152   0.002788
 481  16   2.023511   6.052025  -0.006105  -0.000048   0.071395  -0.000676
 482  16   1.305759   6.360695  -0.845094  -0.000179   0.159530  -0.001119
 483  16  -0.000043   6.519105  -1.275582  -0.000111   0.159530  -0.000693
 484  16  -1.305789   6.360712  -0.844919  -0.000170   0.159530  -0.001065
 485  16  -2.023433   6.052050  -0.005835  -0.000055   0.071395  -0.000768
 486   4   1.990015   5.911274  -0.595941  -0.000088   0.155565  -0.000564
 487   4   0.777149   6.246968  -1.508344   0.000202   0.155565   0.001296
 488   4  -0.777269   6.246978  -1.508240   0.000205   0.155565   0.001321
 489   4  -1.990017   5.911299  -0.595675  -0.000043   0.155565  -0.000279
 490  16  -0.477426   5.075171   2.649452  -0.000057   0.076527  -0.000741
 491  16   0.477383   5.075128   2.649488  -0.000057   0.076527  -0.000744
 492   4  -0.000043   4.679694   2.751986  -0.000164   0.164200  -0.000999
 493   5  -2.871211  -1.657670   3.376347   0.000232   0.165995   0.001398
 494   7  -2.244058  -1.942144   3.685941   0.000084   0.165995   0.000503
 495   8  -2.803992  -0.972296   3.685947   0.000020   0.165995   0.000122
 496   7  -2.139522  -2.813106   3.750466  -0.000241   0.212161  -0.001137
 497   5  -3.092727  -2.640201   3.160470   0.000698   0.298878   0.002336
 498   8  -3.697445  -0.379905   3.679182  -0.000194   0.212127  -0.000915
 499   5  -3.658346  -1.418770   3.225491   0.000639   0.298831   0.002137
 500  11  -2.237436  -3.611939  -3.612833  -0.000047   0.070389  -0.000667
 501  11  -3.346882  -3.419671  -3.560051  -0.000156   0.156528  -0.000994
 502  11  -4.373734  -2.525108  -3.533096  -0.000043   0.156528  -0.000277
 503  11  -4.634862  -1.188517  -3.560131  -0.000201   0.156528  -0.001285
 504  11  -4.246520  -0.131623  -3.612958  -0.000051   0.070389  -0.000727
 505   5  -2.669558  -3.817812  -3.245409  -0.000019   0.154100  -0.000125
 506   5  -4.086151  -3.242432  -3.188095   0.000247   0.154100   0.001605
 507   5  -4.851102  -1.917316  -3.188142   0.000205   0.154100   0.001329
 508   5  -4.640916  -0.402849  -3.245531  -0.000012   0.154100  -0.000080
 509  13  -2.185828  -5.806952  -0.684103  -0.000128   0.209537  -0.000611
 510  13  -1.527059  -5.391670  -1.968896  -0.000890   0.430124  -0.002069
 511   5  -2.843253  -5.012033  -1.386693   0.001085   0.572700   0.001895
 512   5  -1.984746  -4.456324  -2.755032   0.000857   0.295109   0.002905
 513  14  -5.081057   1.549214  -2.401912  -0.000087   0.209563  -0.000415
 514  14  -5.893830   1.134700  -1.208043  -0.000893   0.430183  -0.002075
 515   5  -5.231842   0.318186  -2.261946   0.001175   0.572768   0.002051
 516   5  -6.029808  -0.100546  -0.810427   0.000823   0.295146   0.002788
 517  17  -4.156471  -2.950935   2.649523  -0.000057   0.076517  -0.000741
 518  17  -4.633785  -2.124156   2.649551  -0.000057   0.076517  -0.000744
 519   5  -4.052631  -2.339820   2.752056  -0.000164   0.164186  -0.000998
 520  17  -6.252982  -1.273617  -0.006064  -0.000048   0.071395  -0.000676
 521  17  -6.161434  -2.049529  -0.845039  -0.000179   0.159529  -0.001119
 522  17  -5.645734  -3.259561  -1.275552  -0.000111   0.159529  -0.000693
 523  17  -4.855684  -4.311169  -0.844961  -0.000170   0.159529  -0.001065
 524  17  -4.229526  -4.778367  -0.005942  -0.000055   0.071395  -0.000767
 525   5  -6.114347  -1.232237  -0.595902  -0.000088   0.155567  -0.000565
 526   5  -5.798651  -2.450429  -1.508305   0.000202   0.155567   0.001296
 527   5  -5.021459  -3.796574  -1.508258   0.000205   0.155567   0.001321
 528   5  -4.124354  -4.679027  -0.595782  -0.000043   0.155567  -0.000279
 529   6   2.871195  -1.657698   3.376338   0.000232   0.165997   0.001398
 530   7   2.244031  -1.942169   3.685934   0.000020   0.165997   0.000121
 531   9   2.803979  -0.972329   3.685939   0.000084   0.165997   0.000503
 532   7   2.177727  -3.012126   3.679159  -0.000194   0.212130  -0.000915
 533   6   3.057867  -2.458834   3.225476   0.000639   0.298835   0.002137
 534   9   3.505954  -0.446338   3.750492  -0.000241   0.212138  -0.001137
 535   6   3.832794  -1.358306   3.160502   0.000698   0.298846   0.002335
 536  12   4.246584  -0.131596  -3.612921  -0.000047   0.070389  -0.000667
 537  12   4.634884  -1.188512  -3.560130  -0.000156   0.156528  -0.000994
 538  12   4.373693  -2.525097  -3.533142  -0.000043   0.156528  -0.000277
 539  12   3.346791  -3.419610  -3.560134  -0.000201   0.156528  -0.001286
 540  12   2.237330  -3.611814  -3.612928  -0.000051   0.070389  -0.000727
 541   6   4.640968  -0.402853  -3.245507  -0.000019   0.154098  -0.000125
 542   6   4.851088  -1.917337  -3.188169   0.000247   0.154098   0.001605
 543   6   4.086070  -3.242421  -3.188172   0.000205   0.154098   0.001329
 544   6   2.669441  -3.817723  -3.245513  -0.000012   0.154098  -0.000080
 545  13   1.198923  -5.174949  -2.401888  -0.000087   0.209557  -0.000415
 546  13   1.964247  -5.671550  -1.208052  -0.000892   0.430169  -0.002075
 547   6   2.340414  -4.690005  -2.261931   0.001175   0.572752   0.002051
 548   6   3.101989  -5.171675  -0.810457   0.000823   0.295137   0.002788
 549  15   6.121899   1.010512  -0.684073  -0.000128   0.209550  -0.000611
 550  15   5.432809   1.373417  -1.968934  -0.000890   0.430152  -0.002070
 551   6   5.762173   0.043731  -1.386699   0.001085   0.572733   0.001895
 552   6   4.851576   0.509412  -2.755100   0.000857   0.295127   0.002905
 553  18   4.229490  -4.778405  -0.006061  -0.000048   0.071394  -0.000676
 554  18   4.855688  -4.311164  -0.845033  -0.000179   0.159527  -0.001119
 555  18   5.645766  -3.259532  -1.275528  -0.000111   0.159527  -0.000693
 556  18   6.161455  -2.049528  -0.844906  -0.000170   0.159527  -0.001065
 557  18   6.252964  -1.273676  -0.005864  -0.000055   0.071394  -0.000767
 558   6   4.124351  -4.679033  -0.595896  -0.000088   0.155564  -0.000564
 559   6   5.021503  -3.796531  -1.508288   0.000202   0.155564   0.001296
 560   6   5.798707  -2.450386  -1.508213   0.000205   0.155564   0.001321
 561   6   6.114364  -1.232258  -0.595703  -0.000043   0.155564  -0.000279
 562  18   4.633817  -2.124165   2.649516  -0.000057   0.076516  -0.000741
 563  18   4.156464  -2.950916   2.649527  -0.000057   0.076516  -0.000744
 564   6   4.052664  -2.339798   2.752040  -0.000164   0.164181  -0.000998
 565   7  -0.000003  -0.652421   4.131194   0.000161   0.342437   0.000471
 566   8  -0.565017   0.326224   4.131200   0.000161   0.342437   0.000471
 567   9   0.565024   0.326217   4.131198   0.000161   0.342437   0.000471
 568   8  -2.670312  -0.619148   4.216966   0.000239   0.267103   0.000893
 569   8  -1.697054  -0.057246   4.503822  -0.000122   0.534005  -0.000229
 570   7  -1.506011  -1.792009   4.357308  -0.000017   0.534005  -0.000033
 571   7  -0.514637  -1.219647   4.543942   0.000100   0.267103   0.000375
 572   9   1.313573   0.164141   4.543946   0.000100   0.267103   0.000375
 573   9   2.304936  -0.408233   4.357310  -0.000017   0.534003  -0.000033
 574   7   0.898106  -1.441061   4.503810  -0.000122   0.534003  -0.000229
 575   7   1.871353  -2.002975   4.216952   0.000239   0.267103   0.000893
 576   9   0.798958   2.622134   4.216976   0.000238   0.267103   0.000893
 577   9   0.798952   1.498318   4.503825  -0.000122   0.534004  -0.000229
 578   8  -0.798924   2.200252   4.357327  -0.000017   0.534004  -0.000033
 579   8  -0.798931   1.055519   4.543954   0.000100   0.267103   0.000375
 580  10  -0.000008   0.652407  -4.131200   0.000161   0.342434   0.000471
 581  11  -0.565023  -0.326237  -4.131198   0.000161   0.342434   0.000471
 582  12   0.565016  -0.326223  -4.131200   0.000161   0.342434   0.000471
 583  11  -2.670308   0.619127  -4.216963   0.000238   0.267102   0.000893
 584  11  -1.697056   0.057226  -4.503817  -0.000122   0.534002  -0.000229
 585  10  -1.506009   1.791988  -4.357313  -0.000017   0.534002  -0.000033
 586  10  -0.514641   1.219628  -4.543946   0.000100   0.267102   0.000375
 587  12   1.313565  -0.164144  -4.543949   0.000100   0.267105   0.000375
 588  12   2.304940   0.408239  -4.357312  -0.000017   0.534008  -0.000033
 589  10   0.898108   1.441050  -4.503819  -0.000122   0.534008  -0.000228
 590  10   1.871367   2.002973  -4.216957   0.000239   0.267105   0.000893
 591  12   0.798959  -2.622122  -4.216972   0.000238   0.267100   0.000893
 592  12   0.798945  -1.498317  -4.503820  -0.000122   0.533998  -0.000229
 593  11  -0.798922  -2.200254  -4.357319  -0.000017   0.533998  -0.000033
 594  11  -0.798936  -1.055531  -4.543947   0.000100   0.267100   0.000375
 =====================================================

              3173058  WORDS OF DYNAMIC MEMORY USED
 EXECUTION OF GAMESS TERMINATED NORMALLY Wed Nov 23 21:57:42 2016
 DDI: 263640 bytes (0.3 MB / 0 MWords) used by master data server.

 ----------------------------------------
 CPU timing information for all processes
 ========================================
 0: 381.204 + 0.176 = 381.380
 ----------------------------------------
 ddikick.x: exited gracefully.
