----- GAMESS execution script -----

          ******************************************************
          *         GAMESS VERSION =  5 DEC 2014 (R1)          *
          *             FROM IOWA STATE UNIVERSITY             *
          * M.W.SCHMIDT, K.K.BALDRIDGE, J.A.BOATZ, S.T.ELBERT, *
          *   M.S.GORDON, J.H.JENSEN, S.KOSEKI, N.MATSUNAGA,   *
          *          K.A.NGUYEN, S.J.SU, T.L.WINDUS,           *
          *       TOGETHER WITH M.DUPUIS, J.A.MONTGOMERY       *
          *         J.COMPUT.CHEM.  14, 1347-1363(1993)        *
          **************** 64 BIT LINUX VERSION ****************

 EXECUTION OF GAMESS BEGUN Wed Nov 23 22:23:23 2016

            ECHO OF THE FIRST FEW INPUT CARDS -
 INPUT CARD>! SELECT RESTRICTED HARTREE-FOCK AS DEFAULT                                     
 INPUT CARD>$contrl scftyp=rhf $end                                                         
 INPUT CARD>                                                                                
 INPUT CARD>! THEORY: HF OR DFT                                                             
 INPUT CARD> $contrl mplevl=0 $end                                                          
 INPUT CARD>                                                                                
 INPUT CARD> $system timlim=10000 mwords=20 $end                                            
 INPUT CARD> $SCF DIRSCF=.TRUE. $end                                                        
 INPUT CARD>                                                                                
 INPUT CARD>                                                                                
 INPUT CARD>! BASIS SETS                                                                    
 INPUT CARD>! 6-311G(d,p)                                                                   
 INPUT CARD> $BASIS GBASIS=N311 NGAUSS=6 NDFUNC=1 NPFUNC=1 $END                             
 INPUT CARD>                                                                                
 INPUT CARD>! One of the following                                                          
 INPUT CARD> $guess guess=HUCKEL $end                                                       
 INPUT CARD>                                                                                
 INPUT CARD> $statpt projct=.FALSE. $end                                                    
 INPUT CARD> $STATPT IFREEZ(1)=1,2,3 $END                                                   
 INPUT CARD>                                                                                
 INPUT CARD>! Optimize the geometry with COSMO effects                                      
 INPUT CARD> $statpt opttol=0.0005 nstep=50 $end                                            
 INPUT CARD> $contrl nzvar=1 $end                                                           
 INPUT CARD> $zmat dlc=.t. auto=.t. $end                                                    
 INPUT CARD> $contrl runtyp=OPTIMIZE maxit=200 $end                                         
 INPUT CARD>                                                                                
 INPUT CARD>! Run COSMO on perfect conductor                                                
 INPUT CARD> $COSGMS PRFCND=.TRUE. $end                                                     
 INPUT CARD>                                                                                
 INPUT CARD>! Specifying RSOLV                                                              
 INPUT CARD> $COSGMS COSRAD = 1.4 $end                                                      
 INPUT CARD>                                                                                
 INPUT CARD>! available memory                                                              
 INPUT CARD> $SYSTEM MWORDS=40 $END                                                         
 INPUT CARD>                                                                                
 INPUT CARD> $DATA                                                                          
 INPUT CARD>Cyclopentanone, ID: C120923                                                     
 INPUT CARD>C1                                                                              
 INPUT CARD>C      6.0      2.8467000000    3.0517000000    2.3028000000                    
 INPUT CARD>C      6.0      3.2639000000    1.6089000000    2.0161000000                    
 INPUT CARD>C      6.0      2.2510000000    1.0401000000    1.0291000000                    
 INPUT CARD>C      6.0      1.3701000000    3.1682000000    1.9425000000                    
 INPUT CARD>C      6.0      1.0541000000    1.9662000000    1.0778000000                    
 INPUT CARD>O      8.0      0.0000000000    1.7737000000    0.5096000000                    
 INPUT CARD>H      1.0      3.4501000000    3.7582000000    1.7023000000                    
 INPUT CARD>H      1.0      3.0325000000    3.3247000000    3.3570000000                    
 INPUT CARD>H      1.0      3.2744000000    1.0138000000    2.9487000000                    
 INPUT CARD>H      1.0      4.2937000000    1.5570000000    1.6194000000                    
 INPUT CARD>H      1.0      1.9679000000    0.0000000000    1.2746000000                    
 INPUT CARD>H      1.0      2.6564000000    1.0061000000    0.0000000000                    
   40000000 WORDS OF MEMORY AVAILABLE

     BASIS OPTIONS
     -------------
     GBASIS=N311         IGAUSS=       6      POLAR=POPN311 
     NDFUNC=       1     NFFUNC=       0     DIFFSP=       F
     NPFUNC=       1      DIFFS=       F     BASNAM=        


     RUN TITLE
     ---------
 Cyclopentanone, ID: C120923                                                     

 THE POINT GROUP OF THE MOLECULE IS C1      
 THE ORDER OF THE PRINCIPAL AXIS IS     0

 ATOM      ATOMIC                      COORDINATES (BOHR)
           CHARGE         X                   Y                   Z
 C           6.0     5.3794829692        5.7668767967        4.3516610045
 C           6.0     6.1678766513        3.0403801416        3.8098765638
 C           6.0     4.2537731984        1.9655039998        1.9447170140
 C           6.0     2.5891135758        5.9870298743        3.6707927311
 C           6.0     1.9919601637        3.7155792371        2.0367466696
 O           8.0     0.0000000000        3.3518069844        0.9630043633
 H           1.0     6.5197436302        7.1019682071        3.2168805489
 H           1.0     5.7305940578        6.2827719914        6.3438101408
 H           1.0     6.1877187742        1.9158042064        5.5722350200
 H           1.0     8.1139164735        2.9423033629        3.0602222645
 H           1.0     3.7187917712        0.0000000000        2.4086447440
 H           1.0     5.0198681138        1.9012533162        0.0000000000
 H           1.0     2.1580670780        7.7752775765        2.6803873410
 H           1.0     1.3738307931        5.9736128198        5.3723020105

          INTERNUCLEAR DISTANCES (ANGS.)




     $CONTRL OPTIONS
     ---------------
 SCFTYP=RHF          RUNTYP=OPTIMIZE     EXETYP=RUN     
 MPLEVL=       0     CITYP =NONE         CCTYP =NONE         VBTYP =NONE    
 DFTTYP=NONE         TDDFT =NONE    
 MULT  =       1     ICHARG=       0     NZVAR =       1     COORD =UNIQUE  
 PP    =NONE         RELWFN=NONE         LOCAL =NONE         NUMGRD=       F
 ISPHER=      -1     NOSYM =       0     MAXIT =     200     UNITS =ANGS    
 PLTORB=       F     MOLPLT=       F     AIMPAC=       F     FRIEND=        
 NPRINT=       7     IREST =       0     GEOM  =INPUT   
 NORMF =       0     NORMP =       0     ITOL  =      20     ICUT  =       9
 INTTYP=BEST         GRDTYP=BEST         QMTTOL= 1.0E-06

     $SYSTEM OPTIONS
     ---------------
  REPLICATED MEMORY=    40000000 WORDS (ON EVERY NODE).
 DISTRIBUTED MEMDDI=           0 MILLION WORDS IN AGGREGATE,
 MEMDDI DISTRIBUTED OVER   1 PROCESSORS IS           0 WORDS/PROCESSOR.
 TOTAL MEMORY REQUESTED ON EACH PROCESSOR=    40000000 WORDS.
 TIMLIM=       10000.00 MINUTES, OR       6.9 DAYS.
 PARALL= F  BALTYP=  DLB     KDIAG=    0  COREFL= F
 MXSEQ2=     300 MXSEQ3=     150  mem10=         0

     $COSGMS OPTIONS
     ---------------
     EPSI  =   INFTY     NSPA  =      92     COSRAD=    1.40
     DISEX =   10.00     OUTCHG=DBLCAV       COSBUG=       F
     COSWRT=       F     DCOSMO=       F

     SYMMETRY COORDINATES WILL NOT BE USED FOR 
     THE COSMO CALCULATION, EVEN IF SPECIFIED:
         -- SWITCHING TO C1 POINT GROUP --


     DEFINITION OF CAVITY
     ---------------------------
     ATOM         COORDINATES           RADIUS 
     1    5.3795    5.7669    4.3517    2.0000
     2    6.1679    3.0404    3.8099    2.0000
     3    4.2538    1.9655    1.9447    2.0000
     4    2.5891    5.9870    3.6708    2.0000
     5    1.9920    3.7156    2.0367    2.0000
     6    0.0000    3.3518    0.9630    1.7200
     7    6.5197    7.1020    3.2169    1.3000
     8    5.7306    6.2828    6.3438    1.3000
     9    6.1877    1.9158    5.5722    1.3000
    10    8.1139    2.9423    3.0602    1.3000
    11    3.7188    0.0000    2.4086    1.3000
    12    5.0199    1.9013    0.0000    1.3000
    13    2.1581    7.7753    2.6804    1.3000
    14    1.3738    5.9736    5.3723    1.3000

          ----------------
          PROPERTIES INPUT
          ----------------

     MOMENTS            FIELD           POTENTIAL          DENSITY
 IEMOM =       1   IEFLD =       0   IEPOT =       0   IEDEN =       0
 WHERE =COMASS     WHERE =NUCLEI     WHERE =NUCLEI     WHERE =NUCLEI  
 OUTPUT=BOTH       OUTPUT=BOTH       OUTPUT=BOTH       OUTPUT=BOTH    
 IEMINT=       0   IEFINT=       0                     IEDINT=       0
                                                       MORB  =       0
          EXTRAPOLATION IN EFFECT
          SOSCF IN EFFECT
 ORBITAL PRINTING OPTION: NPREO=     1   162     2     1

     -------------------------------
     INTEGRAL TRANSFORMATION OPTIONS
     -------------------------------
     NWORD  =            0
     CUTOFF = 1.0E-09     MPTRAN =       0
     DIRTRF =       T     AOINTS =DUP     

          ----------------------
          INTEGRAL INPUT OPTIONS
          ----------------------
 NOPK  =       1 NORDER=       0 SCHWRZ=       T


 -----------------------------------------------
  STATISTICS ON AUTOMATIC COORDINATE GENERATION 
 -----------------------------------------------
  NUMBER OF USER SPECIFIED BONDS                             0
  NUMBER OF BONDS                                           14
  NUMBER OF ANGLES                                          27
  NUMBER OF TORSIONS                                        39
  NUMBER OF EXTRA COORD.                                     0
  NUMBER OF EXTRA COORD. FOR CONSTRAINTS                     0
  NUMBER OF CONSTRAINED COORD.                               0

  TOTAL NUMBER OF PRIMITIVES                                80
 -----------------------------------------------

   --- ENCODED Z MATRIX ---
 COORD  TYPE   I   J   K   L   M   N
    1      1    1   2
    2      1    1   7
    3      1    1   8
    4      1    1   4
    5      1    2   3
    6      1    2   9
    7      1    2  10
    8      1    3  12
    9      1    3  11
   10      1    3   5
   11      1    4  14
   12      1    4  13
   13      1    4   5
   14      1    5   6
   15      2    1   4   5
   16      2    1   2  10
   17      2    1   2   3
   18      2    1   4  14
   19      2    1   2   9
   20      2    1   4  13
   21      2    2   1   7
   22      2    2   1   4
   23      2    2   1   8
   24      2    2   3   5
   25      2    2   3  11
   26      2    2   3  12
   27      2    3   2  10
   28      2    3   5   4
   29      2    3   2   9
   30      2    3   5   6
   31      2    4   1   8
   32      2    4   1   7
   33      2    4   5   6
   34      2    5   4  13
   35      2    5   4  14
   36      2    5   3  11
   37      2    5   3  12
   38      2    7   1   8
   39      2    9   2  10
   40      2   11   3  12
   41      2   13   4  14
   42      3    1   2   3   5
   43      3    1   2   3  11
   44      3    1   2   3  12
   45      3    1   4   5   6
   46      3    1   4   5   3
   47      3    2   1   4  14
   48      3    2   1   4  13
   49      3    2   3   5   6
   50      3    2   1   4   5
   51      3    2   3   5   4
   52      3    3   5   4  13
   53      3    3   5   4  14
   54      3    3   2   1   4
   55      3    3   2   1   8
   56      3    3   2   1   7
   57      3    4   5   3  11
   58      3    4   5   3  12
   59      3    4   1   2   9
   60      3    4   1   2  10
   61      3    5   4   1   8
   62      3    5   4   1   7
   63      3    5   3   2  10
   64      3    5   3   2   9
   65      3    6   5   3  11
   66      3    6   5   3  12
   67      3    6   5   4  13
   68      3    6   5   4  14
   69      3    7   1   2  10
   70      3    7   1   4  13
   71      3    7   1   2   9
   72      3    7   1   4  14
   73      3    8   1   2  10
   74      3    8   1   4  13
   75      3    8   1   2   9
   76      3    8   1   4  14
   77      3    9   2   3  12
   78      3    9   2   3  11
   79      3   10   2   3  12
   80      3   10   2   3  11

          INDEP./SYM. INTERNAL COORDINATES
          --------------------------------
 CRD  1=  -0.1042 (  3)  0.2003 (  4) -0.1998 (  5)  0.1043 (  7)  0.1420 ( 10)
          -0.1428 ( 13) -0.2801 ( 15)  0.1560 ( 16) -0.3794 ( 17)  0.1461 ( 18)
           0.1595 ( 19)  0.1231 ( 20) -0.1593 ( 21)  0.3788 ( 22) -0.1561 ( 23)
           0.2814 ( 24) -0.1237 ( 25) -0.1460 ( 26)  0.1380 ( 29) -0.1379 ( 32)
           0.1081 ( 35) -0.1088 ( 37)  0.1340 ( 38) -0.1341 ( 39)  0.1167 ( 40)
          -0.1162 ( 41)
 CRD  2=  -0.2906 (  4)  0.2909 (  5)  0.3296 ( 10) -0.3301 ( 13)  0.1364 ( 15)
          -0.1357 ( 24)  0.1174 ( 27)  0.4573 ( 30) -0.1172 ( 31) -0.4569 ( 33)
 CRD  3=   0.2373 (  4)  0.2378 (  5) -0.1106 (  9) -0.3409 ( 10) -0.1107 ( 12)
          -0.3397 ( 13)  0.2771 ( 15) -0.1796 ( 17) -0.1809 ( 22)  0.2764 ( 24)
           0.1209 ( 27) -0.1970 ( 28)  0.1214 ( 31) -0.2207 ( 34) -0.1676 ( 35)
          -0.2208 ( 36) -0.1674 ( 37)
 CRD  4=  -0.6861 (  1) -0.1306 (  3) -0.2204 (  4) -0.2196 (  5) -0.1308 (  7)
           0.1164 ( 14) -0.1318 ( 16) -0.1309 ( 23) -0.2655 ( 28)  0.1324 ( 30)
           0.1332 ( 33)
 CRD  5=   0.1765 (  4) -0.1760 (  5)  0.1062 ( 10) -0.1055 ( 13)  0.1793 ( 16)
           0.1137 ( 17)  0.2354 ( 18) -0.2227 ( 19)  0.2222 ( 21) -0.1134 ( 22)
          -0.1800 ( 23) -0.2355 ( 26) -0.2380 ( 27)  0.1150 ( 29)  0.1713 ( 30)
           0.2385 ( 31) -0.1148 ( 32) -0.1710 ( 33) -0.1790 ( 35)  0.1786 ( 37)
           0.1013 ( 43)  0.1765 ( 44)  0.1298 ( 45)  0.1963 ( 46) -0.1765 ( 47)
          -0.1015 ( 48) -0.1298 ( 49) -0.1965 ( 51)  0.1140 ( 52)  0.1099 ( 55)
          -0.1142 ( 57) -0.1098 ( 60)
 CRD  6=  -0.3214 (  4)  0.3229 (  5) -0.1307 ( 10)  0.1327 ( 13)  0.1126 ( 16)
          -0.1700 ( 17) -0.1283 ( 19) -0.2201 ( 20)  0.1279 ( 21)  0.1703 ( 22)
          -0.1130 ( 23)  0.2201 ( 25)  0.2489 ( 29) -0.2144 ( 30) -0.2487 ( 32)
           0.2146 ( 33)  0.1366 ( 34) -0.1364 ( 36)  0.1230 ( 43)  0.1153 ( 45)
           0.1061 ( 46) -0.1232 ( 48) -0.1155 ( 49) -0.1062 ( 51)  0.1231 ( 56)
          -0.1235 ( 59)  0.1049 ( 69) -0.1050 ( 75)
 CRD  7=   0.1672 (  1) -0.4283 (  4) -0.4275 (  5) -0.1174 (  9) -0.3117 ( 10)
          -0.1176 ( 12) -0.3116 ( 13) -0.2606 ( 14)  0.1411 ( 16)  0.1400 ( 23)
          -0.1205 ( 27) -0.1200 ( 31)  0.1081 ( 56)  0.1074 ( 59)  0.1695 ( 71)
          -0.1602 ( 73)
 CRD  8=  -0.2217 (  1)  0.1111 (  8) -0.1740 ( 10)  0.1108 ( 11) -0.1746 ( 13)
          -0.2869 ( 14) -0.1824 ( 15) -0.1456 ( 19)  0.2527 ( 20) -0.1451 ( 21)
          -0.1823 ( 24)  0.2524 ( 25)  0.2433 ( 28)  0.1486 ( 29) -0.1217 ( 30)
           0.1482 ( 32) -0.1216 ( 33) -0.1491 ( 34)  0.1574 ( 35) -0.1492 ( 36)
           0.1577 ( 37)  0.1306 ( 52)  0.1495 ( 54)  0.1122 ( 55)  0.1304 ( 57)
           0.1125 ( 60) -0.1690 ( 62) -0.1694 ( 64)  0.1305 ( 65)  0.1305 ( 67)
 CRD  9=   0.1520 (  1)  0.2171 ( 10)  0.2166 ( 13)  0.3323 ( 14)  0.1158 ( 15)
           0.1101 ( 16) -0.2323 ( 18)  0.1106 ( 23)  0.1154 ( 24) -0.2327 ( 26)
          -0.1046 ( 27) -0.2053 ( 28)  0.1027 ( 30) -0.1044 ( 31)  0.1026 ( 33)
          -0.1683 ( 34)  0.2076 ( 35) -0.1677 ( 36)  0.2079 ( 37) -0.1319 ( 42)
          -0.1317 ( 50)  0.1502 ( 53)  0.1446 ( 54)  0.1507 ( 58) -0.1756 ( 61)
          -0.1118 ( 62) -0.1753 ( 63) -0.1115 ( 64)  0.1505 ( 66)  0.1504 ( 68)
 CRD 10=   0.2018 (  3) -0.2020 (  7) -0.1387 (  8)  0.1952 (  9)  0.1391 ( 11)
          -0.1946 ( 12) -0.1477 ( 16)  0.1230 ( 18)  0.1021 ( 19) -0.1281 ( 20)
          -0.1025 ( 21)  0.1475 ( 23)  0.1287 ( 25) -0.1226 ( 26) -0.1001 ( 27)
          -0.1194 ( 34)  0.1195 ( 36) -0.1928 ( 43) -0.1748 ( 44)  0.1857 ( 45)
           0.1749 ( 47)  0.1929 ( 48) -0.1858 ( 49) -0.1755 ( 52) -0.1810 ( 53)
           0.1634 ( 55)  0.1371 ( 56)  0.1756 ( 57)  0.1807 ( 58) -0.1371 ( 59)
          -0.1633 ( 60) -0.1992 ( 61) -0.1921 ( 62)  0.1993 ( 63)  0.1920 ( 64)
 CRD 11=   0.2422 (  2) -0.2136 (  3) -0.2422 (  6)  0.2134 (  7) -0.2076 (  8)
           0.1470 (  9)  0.2075 ( 11) -0.1471 ( 12) -0.1040 ( 16)  0.1762 ( 18)
          -0.1755 ( 20)  0.1038 ( 23)  0.1756 ( 25) -0.1762 ( 26)  0.2076 ( 27)
          -0.2000 ( 29) -0.2075 ( 31)  0.2000 ( 32)  0.1240 ( 34) -0.1240 ( 36)
          -0.1929 ( 55) -0.1918 ( 56)  0.1918 ( 59)  0.1930 ( 60)
 CRD 12=   0.4227 (  2) -0.3085 (  3)  0.4228 (  6) -0.3086 (  7) -0.1715 ( 16)
           0.1804 ( 19)  0.1804 ( 21) -0.1715 ( 23) -0.1211 ( 42) -0.1768 ( 43)
          -0.1707 ( 44) -0.1707 ( 47) -0.1767 ( 48) -0.1211 ( 50)  0.1513 ( 54)
           0.1241 ( 55)  0.1013 ( 56)  0.1012 ( 59)  0.1241 ( 60)
 CRD 13=  -0.3321 (  8)  0.2975 (  9) -0.3318 ( 11)  0.2977 ( 12) -0.1171 ( 16)
          -0.1780 ( 18)  0.1001 ( 19)  0.1709 ( 20)  0.1002 ( 21) -0.1171 ( 23)
           0.1707 ( 25) -0.1780 ( 26)  0.1119 ( 27) -0.1092 ( 29)  0.1119 ( 31)
          -0.1093 ( 32)  0.1581 ( 52)  0.1654 ( 53)  0.1578 ( 57)  0.1652 ( 58)
           0.1255 ( 61)  0.1186 ( 62)  0.1256 ( 63)  0.1186 ( 64)  0.1579 ( 65)
           0.1653 ( 66)  0.1581 ( 67)  0.1653 ( 68)
 CRD 14=  -0.1024 (  2)  0.1022 (  6)  0.2482 (  8) -0.1831 (  9) -0.2482 ( 11)
           0.1839 ( 12)  0.1400 ( 18) -0.1485 ( 20)  0.1488 ( 25) -0.1398 ( 26)
           0.1784 ( 34) -0.1899 ( 35) -0.1783 ( 36)  0.1899 ( 37) -0.1048 ( 42)
          -0.1138 ( 45) -0.1734 ( 46)  0.1138 ( 49)  0.1049 ( 50)  0.1734 ( 51)
          -0.2413 ( 52) -0.2447 ( 53)  0.2414 ( 57)  0.2447 ( 58)  0.1819 ( 65)
           0.1852 ( 66) -0.1817 ( 67) -0.1851 ( 68)
 CRD 15=  -0.4280 (  8) -0.4574 (  9)  0.4263 ( 11)  0.4555 ( 12) -0.1761 ( 40)
           0.1753 ( 41)
 CRD 16=  -0.1320 (  2) -0.1320 (  6)  0.4391 (  8)  0.3865 (  9)  0.4410 ( 11)
           0.3885 ( 12)  0.1861 ( 40)  0.1869 ( 41)  0.1055 ( 70)  0.1052 ( 78)
 CRD 17=   0.1159 (  2) -0.1260 (  3)  0.1154 (  6) -0.1261 (  7) -0.2057 (  8)
           0.3051 (  9) -0.2055 ( 11)  0.3052 ( 12)  0.1180 ( 16) -0.1200 ( 19)
          -0.1199 ( 21)  0.1180 ( 23) -0.1461 ( 27)  0.1583 ( 29) -0.1462 ( 31)
           0.1583 ( 32) -0.1033 ( 44) -0.1033 ( 47) -0.1078 ( 55) -0.1165 ( 56)
          -0.1164 ( 59) -0.1077 ( 60) -0.2280 ( 69) -0.1389 ( 70) -0.2367 ( 71)
          -0.1605 ( 72) -0.2193 ( 73) -0.1352 ( 74) -0.2280 ( 75) -0.1568 ( 76)
          -0.1605 ( 77) -0.1389 ( 78) -0.1570 ( 79) -0.1354 ( 80)
 CRD 18=  -0.4460 (  2) -0.4390 (  3)  0.4471 (  6)  0.4400 (  7) -0.1665 ( 38)
           0.1669 ( 39) -0.1429 ( 69)  0.1428 ( 75)
 CRD 19=   0.3818 (  2)  0.4590 (  3)  0.3806 (  6)  0.4579 (  7)  0.1636 ( 38)
           0.1632 ( 39)  0.1452 ( 71) -0.1016 ( 72) -0.1276 ( 73) -0.1014 ( 77)
 CRD 20=   0.2151 (  2) -0.2075 (  3) -0.2151 (  6)  0.2078 (  7) -0.1273 (  8)
           0.1208 (  9)  0.1273 ( 11) -0.1207 ( 12)  0.1012 ( 16) -0.1013 ( 23)
          -0.1313 ( 43) -0.1198 ( 44) -0.1284 ( 46)  0.1197 ( 47)  0.1313 ( 48)
           0.1283 ( 51) -0.1546 ( 52) -0.1388 ( 53)  0.1547 ( 57)  0.1387 ( 58)
           0.1582 ( 61)  0.1540 ( 62) -0.1581 ( 63) -0.1540 ( 64)  0.1174 ( 65)
           0.1014 ( 66) -0.1173 ( 67) -0.1015 ( 68)  0.2079 ( 70)  0.1963 ( 72)
           0.2120 ( 74)  0.2005 ( 76) -0.1964 ( 77) -0.2079 ( 78) -0.2006 ( 79)
          -0.2120 ( 80)
 CRD 21=   0.2164 (  2) -0.2078 (  3)  0.2161 (  6) -0.2077 (  7)  0.1062 ( 42)
           0.1653 ( 43)  0.1499 ( 44)  0.1501 ( 47)  0.1652 ( 48)  0.1063 ( 50)
          -0.1320 ( 54) -0.1860 ( 55) -0.1620 ( 56) -0.1620 ( 59) -0.1861 ( 60)
           0.1254 ( 61)  0.1146 ( 62)  0.1254 ( 63)  0.1145 ( 64) -0.2161 ( 69)
           0.1736 ( 70) -0.1920 ( 71)  0.1584 ( 72) -0.2401 ( 73)  0.1844 ( 74)
          -0.2161 ( 75)  0.1692 ( 76)  0.1582 ( 77)  0.1736 ( 78)  0.1690 ( 79)
           0.1844 ( 80)
 CRD 22=   0.1289 (  9)  0.4051 ( 10) -0.1285 ( 12) -0.4052 ( 13) -0.4159 ( 30)
           0.4158 ( 33) -0.1222 ( 34) -0.1268 ( 35)  0.1223 ( 36)  0.1266 ( 37)
          -0.1694 ( 40)  0.1694 ( 41)  0.1220 ( 44) -0.1218 ( 47) -0.1428 ( 72)
           0.1116 ( 74)  0.1430 ( 77) -0.1113 ( 80)
 CRD 23=  -0.1537 (  4) -0.1537 (  5) -0.1079 ( 10) -0.1074 ( 13)  0.7682 ( 14)
           0.1472 ( 18)  0.1394 ( 20)  0.1391 ( 25)  0.1473 ( 26)  0.1295 ( 28)
           0.1324 ( 71)
 CRD 24=   0.3024 (  2) -0.2652 (  3) -0.3026 (  6)  0.2649 (  7)  0.3352 (  8)
          -0.2880 (  9) -0.3350 ( 11)  0.2886 ( 12)  0.1977 ( 45) -0.1978 ( 49)
          -0.1089 ( 61)  0.1090 ( 63) -0.1037 ( 65) -0.1288 ( 66)  0.1042 ( 67)
           0.1282 ( 68)
 CRD 25=   0.1260 (  3)  0.1476 (  4) -0.1490 (  5) -0.1251 (  7) -0.1033 (  9)
           0.1888 ( 10)  0.1022 ( 12) -0.1891 ( 13) -0.2138 ( 16) -0.2175 ( 19)
           0.2167 ( 21)  0.2130 ( 23)  0.1693 ( 27)  0.1203 ( 29) -0.1125 ( 30)
          -0.1682 ( 31) -0.1189 ( 32)  0.1119 ( 33) -0.1323 ( 38)  0.1314 ( 39)
           0.1115 ( 40) -0.1107 ( 41) -0.1542 ( 61)  0.1921 ( 62)  0.1549 ( 63)
          -0.1920 ( 64)  0.1071 ( 69)  0.1690 ( 70)  0.2561 ( 72) -0.1773 ( 74)
          -0.1074 ( 75) -0.2566 ( 77) -0.1690 ( 78)  0.1779 ( 80)
 CRD 26=   0.3355 (  1)  0.1201 (  3) -0.1917 (  4) -0.1889 (  5)  0.1218 (  7)
          -0.1197 (  9) -0.1196 ( 12)  0.2084 ( 14) -0.1182 ( 16) -0.1029 ( 19)
          -0.1043 ( 21) -0.1193 ( 23)  0.1655 ( 27)  0.1550 ( 28)  0.1997 ( 29)
           0.1662 ( 31)  0.2000 ( 32) -0.1287 ( 38) -0.1303 ( 39)  0.1194 ( 40)
           0.1196 ( 41)  0.1155 ( 53)  0.1349 ( 55) -0.1658 ( 56)  0.1165 ( 58)
          -0.1664 ( 59)  0.1348 ( 60)  0.1165 ( 66)  0.1155 ( 68) -0.3420 ( 71)
           0.2598 ( 73)
 CRD 27=  -0.2245 (  4)  0.2260 (  5) -0.2167 ( 10)  0.2172 ( 13)  0.1966 ( 18)
           0.2076 ( 20) -0.2071 ( 25) -0.1962 ( 26) -0.1941 ( 34) -0.1784 ( 35)
           0.1937 ( 36)  0.1783 ( 37)  0.1653 ( 52) -0.1746 ( 53) -0.1650 ( 57)
           0.1736 ( 58) -0.1458 ( 65)  0.1927 ( 66)  0.1462 ( 67) -0.1938 ( 68)
           0.1577 ( 69) -0.1043 ( 72) -0.1575 ( 75)  0.1048 ( 77)
 CRD 28=   0.2697 (  1) -0.1366 (  4) -0.1365 (  5) -0.1080 (  9)  0.3308 ( 10)
          -0.1079 ( 12)  0.3309 ( 13) -0.2549 ( 14)  0.1079 ( 20)  0.1081 ( 25)
          -0.1545 ( 28) -0.1543 ( 34) -0.1919 ( 35) -0.1544 ( 36) -0.1916 ( 37)
           0.1187 ( 38)  0.1185 ( 39)  0.1015 ( 43) -0.1401 ( 44) -0.1401 ( 47)
           0.1016 ( 48) -0.2245 ( 72)  0.1706 ( 74) -0.2247 ( 77)  0.1699 ( 80)
 CRD 29=   0.1604 (  3) -0.1294 (  4) -0.1292 (  5)  0.1600 (  7)  0.2878 (  8)
           0.2877 ( 11)  0.1208 ( 19)  0.1224 ( 20)  0.1207 ( 21)  0.1225 ( 25)
          -0.1064 ( 35) -0.1062 ( 37) -0.1406 ( 40) -0.1404 ( 41) -0.2086 ( 43)
          -0.1017 ( 44) -0.1019 ( 47) -0.2086 ( 48)  0.2335 ( 52)  0.2336 ( 57)
           0.1534 ( 62)  0.1532 ( 64)  0.2335 ( 65)  0.2336 ( 67) -0.1366 ( 69)
          -0.1662 ( 71) -0.1068 ( 73) -0.1227 ( 74) -0.1363 ( 75) -0.1229 ( 80)
 CRD 30=   0.1250 (  2) -0.2982 (  4) -0.2981 (  5)  0.1288 (  6)  0.2283 (  9)
           0.2296 ( 12) -0.1124 ( 14)  0.1412 ( 18)  0.1395 ( 26) -0.1849 ( 28)
          -0.1298 ( 34) -0.1299 ( 36) -0.1474 ( 38) -0.1486 ( 39) -0.1451 ( 40)
          -0.1453 ( 41)  0.1186 ( 44)  0.1190 ( 47) -0.2088 ( 53)  0.1251 ( 55)
          -0.2076 ( 58)  0.1283 ( 60) -0.1098 ( 61) -0.1125 ( 63) -0.2094 ( 66)
          -0.2070 ( 68) -0.1396 ( 71)  0.1288 ( 72)  0.2208 ( 73)  0.1272 ( 77)
 CRD 31=   0.2263 (  2) -0.1460 (  3) -0.2247 (  6)  0.1471 (  7)  0.1038 (  9)
          -0.1005 ( 12) -0.1151 ( 18)  0.1176 ( 26) -0.1015 ( 27)  0.1449 ( 29)
           0.1023 ( 31) -0.1435 ( 32) -0.2809 ( 45)  0.2812 ( 49)  0.1926 ( 55)
           0.1646 ( 56) -0.1654 ( 59) -0.1908 ( 60) -0.1527 ( 61)  0.1512 ( 63)
           0.1711 ( 65)  0.1375 ( 66) -0.1700 ( 67) -0.1408 ( 68) -0.1028 ( 70)
          -0.1046 ( 72) -0.2085 ( 74) -0.2104 ( 76)  0.1061 ( 77)  0.1038 ( 78)
           0.2106 ( 79)  0.2084 ( 80)
 CRD 32=  -0.2429 (  4)  0.2426 (  5) -0.1381 (  8) -0.1557 (  9)  0.2177 ( 10)
           0.1382 ( 11)  0.1558 ( 12) -0.2176 ( 13)  0.1425 ( 15) -0.1425 ( 24)
          -0.1350 ( 27) -0.1212 ( 30)  0.1350 ( 31)  0.1213 ( 33)  0.2137 ( 40)
          -0.2138 ( 41)  0.1385 ( 43) -0.1237 ( 44)  0.1237 ( 47) -0.1384 ( 48)
           0.1134 ( 52) -0.1139 ( 53)  0.1145 ( 55) -0.1134 ( 57)  0.1136 ( 58)
          -0.1142 ( 60)  0.1302 ( 66) -0.1305 ( 68) -0.1893 ( 69) -0.1694 ( 70)
          -0.1066 ( 74)  0.1895 ( 75)  0.1555 ( 76)  0.1694 ( 78) -0.1556 ( 79)
           0.1065 ( 80)
 CRD 33=  -0.3659 (  1)  0.1255 (  3)  0.1254 (  7) -0.1126 (  9)  0.1374 ( 10)
          -0.1125 ( 12)  0.1375 ( 13) -0.1378 ( 15)  0.1161 ( 17)  0.1049 ( 19)
           0.1049 ( 21)  0.1162 ( 22) -0.1377 ( 24) -0.1591 ( 38) -0.1590 ( 39)
           0.1361 ( 40)  0.1362 ( 41)  0.1050 ( 43) -0.1474 ( 44) -0.1474 ( 47)
           0.1051 ( 48) -0.1269 ( 61)  0.1680 ( 62) -0.1267 ( 63)  0.1681 ( 64)
           0.2705 ( 70) -0.2770 ( 76)  0.2703 ( 78) -0.2768 ( 79)
 CRD 34=  -0.1804 (  3)  0.1857 (  4) -0.1857 (  5)  0.1803 (  7)  0.1385 ( 10)
          -0.1384 ( 13)  0.2131 ( 17) -0.2130 ( 22)  0.2086 ( 38) -0.2087 ( 39)
          -0.1227 ( 44)  0.1226 ( 47) -0.1015 ( 55)  0.2080 ( 56) -0.2081 ( 59)
           0.1015 ( 60) -0.1320 ( 62)  0.1323 ( 64)  0.3096 ( 69) -0.2152 ( 70)
          -0.3095 ( 75)  0.1766 ( 76)  0.2152 ( 78) -0.1770 ( 79)
 CRD 35=   0.1916 (  2) -0.1417 (  3)  0.1916 (  6) -0.1418 (  7)  0.1052 (  8)
           0.1049 ( 11)  0.1383 ( 16) -0.1157 ( 18) -0.1552 ( 19) -0.1552 ( 21)
           0.1383 ( 23) -0.1159 ( 26)  0.1280 ( 27) -0.1163 ( 29)  0.1279 ( 31)
          -0.1162 ( 32)  0.2331 ( 42)  0.1318 ( 44)  0.1316 ( 47)  0.2328 ( 50)
          -0.2914 ( 54)  0.1832 ( 69) -0.1414 ( 70)  0.1258 ( 71) -0.1017 ( 72)
           0.2409 ( 73) -0.1811 ( 74)  0.1835 ( 75) -0.1415 ( 76) -0.1017 ( 77)
          -0.1418 ( 78) -0.1413 ( 79) -0.1814 ( 80)
 CRD 36=  -0.1322 (  8)  0.1123 (  9)  0.1322 ( 11) -0.1127 ( 12)  0.1254 ( 34)
          -0.1348 ( 35) -0.1251 ( 36)  0.1348 ( 37) -0.1642 ( 42)  0.1399 ( 45)
          -0.2746 ( 46) -0.1400 ( 49)  0.1647 ( 50)  0.2744 ( 51) -0.1161 ( 53)
           0.1166 ( 58)  0.1088 ( 61)  0.1294 ( 62) -0.1088 ( 63) -0.1294 ( 64)
          -0.3239 ( 65) -0.2979 ( 66)  0.3238 ( 67)  0.2983 ( 68) -0.1043 ( 74)
           0.1041 ( 80)

 THE DETERMINANT OF THE G MATRIX IS 10**(   -10)


                     --------------------
                     INTERNAL COORDINATES
                     --------------------

                 - - ATOMS - -         COORDINATE      COORDINATE
 NO.   TYPE    I  J  K  L  M  N        (BOHR,RAD)       (ANG,DEG)
 ----------------------------------------------------------------
   1 STRETCH   1  2                     2.8894427       1.5290273
   2 STRETCH   1  7                     2.0905478       1.1062703
   3 STRETCH   1  8                     2.0876027       1.1047119
   4 STRETCH   1  4                     2.8806614       1.5243805
   5 STRETCH   2  3                     2.8806199       1.5243585
   6 STRETCH   2  9                     2.0906870       1.1063440
   7 STRETCH   2 10                     2.0877432       1.1047862
   8 STRETCH   3 12                     2.0911609       1.1065948
   9 STRETCH   3 11                     2.0891721       1.1055423
  10 STRETCH   3  5                     2.8612988       1.5141342
  11 STRETCH   4 14                     2.0909869       1.1065027
  12 STRETCH   4 13                     2.0891467       1.1055289
  13 STRETCH   4  5                     2.8611513       1.5140562
  14 STRETCH   5  6                     2.2919769       1.2128620
  15 BEND      1  4  5                  1.8509297     106.0504594
  16 BEND      1  2 10                  1.9454926     111.4685140
  17 BEND      1  2  3                  1.8673228     106.9897140
  18 BEND      1  4 14                  1.9499775     111.7254781
  19 BEND      1  2  9                  1.9306048     110.6155057
  20 BEND      1  4 13                  1.9577049     112.1682298
  21 BEND      2  1  7                  1.9305173     110.6104957
  22 BEND      2  1  4                  1.8672152     106.9835510
  23 BEND      2  1  8                  1.9457481     111.4831532
  24 BEND      2  3  5                  1.8506410     106.0339211
  25 BEND      2  3 11                  1.9578101     112.1742567
  26 BEND      2  3 12                  1.9499954     111.7265055
  27 BEND      3  2 10                  1.9491071     111.6756115
  28 BEND      3  5  4                  1.9166086     109.8135831
  29 BEND      3  2  9                  1.9298592     110.5727884
  30 BEND      3  5  6                  2.1832381     125.0903295
  31 BEND      4  1  8                  1.9493551     111.6898224
  32 BEND      4  1  7                  1.9296852     110.5628152
  33 BEND      4  5  6                  2.1833385     125.0960829
  34 BEND      5  4 13                  1.9452216     111.4529877
  35 BEND      5  4 14                  1.9159478     109.7757206
  36 BEND      5  3 11                  1.9453600     111.4609175
  37 BEND      5  3 12                  1.9159030     109.7731533
  38 BEND      7  1  8                  1.8425676     105.5713461
  39 BEND      9  2 10                  1.8427027     105.5790851
  40 BEND     11  3 12                  1.8456624     105.7486654
  41 BEND     13  4 14                  1.8455856     105.7442634
  42 TORSION   1  2  3  5              -0.2945468     -16.8762894
  43 TORSION   1  2  3 11              -2.4218321    -138.7607594
  44 TORSION   1  2  3 12               1.7922737     102.6897181
  45 TORSION   1  4  5  6              -3.0310422    -173.6659284
  46 TORSION   1  4  5  3               0.1109582       6.3574393
  47 TORSION   2  1  4 14               1.7943699     102.8098220
  48 TORSION   2  1  4 13              -2.4199170    -138.6510310
  49 TORSION   2  3  5  6              -3.0271521    -173.4430417
  50 TORSION   2  1  4  5              -0.2926743     -16.7690004
  51 TORSION   2  3  5  4               0.1140327       6.5335922
  52 TORSION   3  5  4 13               2.2461617     128.6955848
  53 TORSION   3  5  4 14              -1.9982280    -114.4900327
  54 TORSION   3  2  1  4               0.3676692      21.0658961
  55 TORSION   3  2  1  8               2.5035531     143.4430240
  56 TORSION   3  2  1  7              -1.7350901     -99.4133375
  57 TORSION   4  5  3 11               2.2492598     128.8730908
  58 TORSION   4  5  3 12              -1.9949800    -114.3039332
  59 TORSION   4  1  2  9              -1.7354180     -99.4321265
  60 TORSION   4  1  2 10               2.5031613     143.4205762
  61 TORSION   5  4  1  8              -2.4263016    -139.0168436
  62 TORSION   5  4  1  7               1.8106158     103.7406438
  63 TORSION   5  3  2 10              -2.4277774    -139.1013991
  64 TORSION   5  3  2  9               1.8090158     103.6489705
  65 TORSION   6  5  3 11              -0.8919251     -51.1035431
  66 TORSION   6  5  3 12               1.1470205      65.7194329
  67 TORSION   6  5  4 13              -0.8958388     -51.3277829
  68 TORSION   6  5  4 14               1.1429568      65.4865995
  69 TORSION   7  1  2 10               0.4004020      22.9413426
  70 TORSION   7  1  4 13              -0.3166269     -18.1413868
  71 TORSION   7  1  2  9               2.4450080     140.0886399
  72 TORSION   7  1  4 14              -2.3855253    -136.6805338
  73 TORSION   8  1  2 10              -1.6441402     -94.2022960
  74 TORSION   8  1  4 13               1.7296409      99.1011258
  75 TORSION   8  1  2  9               0.4004658      22.9450013
  76 TORSION   8  1  4 14              -0.3392575     -19.4380212
  77 TORSION   9  2  3 12              -2.3873490    -136.7850221
  78 TORSION   9  2  3 11              -0.3182695     -18.2354995
  79 TORSION  10  2  3 12              -0.3409569     -19.5353917
  80 TORSION  10  2  3 11               1.7281226      99.0141309

     ------------------------------------------
     THE POINT GROUP IS C1 , NAXIS= 1, ORDER= 1
     ------------------------------------------

     DIMENSIONS OF THE SYMMETRY SUBSPACES ARE
 A   =  162

 ..... DONE SETTING UP THE RUN .....
 STEP CPU TIME =     0.01 TOTAL CPU TIME =        0.0 (    0.0 MIN)
 TOTAL WALL CLOCK TIME=        0.0 SECONDS, CPU UTILIZATION IS  50.00%


          -----------------------------
          STATIONARY POINT LOCATION RUN
          -----------------------------

 OBTAINING INITIAL HESSIAN, HESS=GUESS   
 DIAGONAL GUESS HESSIAN IN INTERNAL COORDS IS
     1  0.3679     2  0.3356     3  0.3366     4  0.3712     5  0.3712
     6  0.3355     7  0.3366     8  0.3354     9  0.3361    10  0.3787
    11  0.3354    12  0.3361    13  0.3787    14  0.5492    15  0.2500
    16  0.2233    17  0.2490    18  0.2234    19  0.2232    20  0.2235
    21  0.2232    22  0.2490    23  0.2233    24  0.2500    25  0.2235
    26  0.2234    27  0.2235    28  0.2507    29  0.2234    30  0.2595
    31  0.2235    32  0.2234    33  0.2595    34  0.2241    35  0.2240
    36  0.2241    37  0.2240    38  0.2019    39  0.2018    40  0.2018
    41  0.2018    42  0.2500    43  0.2500    44  0.2500    45  0.2500
    46  0.2500    47  0.2500    48  0.2500    49  0.2500    50  0.2500
    51  0.2500    52  0.2500    53  0.2500    54  0.2500    55  0.2500
    56  0.2500    57  0.2500    58  0.2500    59  0.2500    60  0.2500
    61  0.2500    62  0.2500    63  0.2500    64  0.2500    65  0.2500
    66  0.2500    67  0.2500    68  0.2500    69  0.2500    70  0.2500
    71  0.2500    72  0.2500    73  0.2500    74  0.2500    75  0.2500
    76  0.2500    77  0.2500    78  0.2500    79  0.2500    80  0.2500
 TRANSFORMING HESSIAN TO SYMMETRY COORDINATES

          PARAMETERS CONTROLLING GEOMETRY SEARCH ARE
          METHOD =QA                  UPHESS =BFGS    
          NNEG   =         0          NFRZ   =         3
          NSTEP  =        50          IFOLOW =         1
          HESS   =GUESS               RESTAR =         F
          IHREP  =         0          HSSEND =         F
          NPRT   =         0          NPUN   =         0
          OPTTOL = 5.000E-04          RMIN   = 1.500E-03
          RMAX   = 1.000E-01          RLIM   = 7.000E-02
          DXMAX  = 3.000E-01          PURIFY =         F
          MOVIE  =         F          TRUPD  =         T
          TRMAX  = 5.000E-01          TRMIN  = 5.000E-02
          ITBMAT =         5          STPT   =         F
          STSTEP = 1.000E-02          PROJCT=          F
          FROZEN COORD(S)=   1   2   3


      ***** EQUILIBRIUM GEOMETRY LOCATED *****
            (SUBJECT TO   3 CONSTRAINT(S))
 COORDINATES OF ALL ATOMS ARE (ANGS)
   ATOM   CHARGE       X              Y              Z
 ------------------------------------------------------------
 C           6.0   2.8685035234   3.0748544237   2.2160667528
 C           6.0   3.2110261199   1.5802634474   2.0855127114
 C           6.0   2.2807950359   1.0614947433   0.9886887200
 C           6.0   1.3578411561   3.1495870929   1.9932678358
 C           6.0   1.0563890904   1.9665014358   1.0791391196
 O           8.0   0.0200707984   1.7776741182   0.5199871782
 H           1.0   3.3767052649   3.6375342091   1.4393288665
 H           1.0   3.1609884558   3.4808438877   3.1752729856
 H           1.0   2.9904653629   1.0699380004   3.0177944625
 H           1.0   4.2539458070   1.4172467272   1.8483773660
 H           1.0   2.0176703060   0.0126451357   1.0863751147
 H           1.0   2.7287302805   1.1837272278   0.0027526626
 H           1.0   1.0158230353   4.0879914584   1.5675136866
 H           1.0   0.8150266116   3.0109640086   2.9280070960


                     --------------------
                     INTERNAL COORDINATES
                     --------------------

                 - - ATOMS - -         COORDINATE      COORDINATE
 NO.   TYPE    I  J  K  L  M  N        (BOHR,RAD)       (ANG,DEG)
 ----------------------------------------------------------------
   1 STRETCH   1  2                     2.9080717       1.5388854
   2 STRETCH   1  7                     2.0512010       1.0854489
   3 STRETCH   1  8                     2.0444455       1.0818741
   4 STRETCH   1  4                     2.8890722       1.5288313
   5 STRETCH   2  3                     2.8891641       1.5288799
   6 STRETCH   2  9                     2.0512263       1.0854623
   7 STRETCH   2 10                     2.0444784       1.0818914
   8 STRETCH   3 12                     2.0594170       1.0897966
   9 STRETCH   3 11                     2.0517784       1.0857545
  10 STRETCH   3  5                     2.8823050       1.5252502
  11 STRETCH   4 14                     2.0593691       1.0897713
  12 STRETCH   4 13                     2.0517636       1.0857466
  13 STRETCH   4  5                     2.8821861       1.5251873
  14 STRETCH   5  6                     2.2536615       1.1925864
  15 BEND      1  4  5                  1.8180348     104.1657224
  16 BEND      1  2 10                  1.9600480     112.3024795
  17 BEND      1  2  3                  1.8286265     104.7725796
  18 BEND      1  4 14                  1.9400960     111.1593114
  19 BEND      1  2  9                  1.9161419     109.7868434
  20 BEND      1  4 13                  1.9939720     114.2461797
  21 BEND      2  1  7                  1.9161665     109.7882521
  22 BEND      2  1  4                  1.8286906     104.7762536
  23 BEND      2  1  8                  1.9600597     112.3031505
  24 BEND      2  3  5                  1.8178568     104.1555213
  25 BEND      2  3 11                  1.9940016     114.2478778
  26 BEND      2  3 12                  1.9400191     111.1549093
  27 BEND      3  2 10                  1.9585944     112.2191913
  28 BEND      3  5  4                  1.9146727     109.7026667
  29 BEND      3  2  9                  1.9102850     109.4512703
  30 BEND      3  5  6                  2.1844007     125.1569398
  31 BEND      4  1  8                  1.9584329     112.2099395
  32 BEND      4  1  7                  1.9102870     109.4513823
  33 BEND      4  5  6                  2.1841119     125.1403924
  34 BEND      5  4 13                  1.9531934     111.9097380
  35 BEND      5  4 14                  1.8933287     108.4797427
  36 BEND      5  3 11                  1.9533640     111.9195131
  37 BEND      5  3 12                  1.8934183     108.4848758
  38 BEND      7  1  8                  1.8895110     108.2610048
  39 BEND      9  2 10                  1.8894515     108.2575970
  40 BEND     11  3 12                  1.8643485     106.8193003
  41 BEND     13  4 14                  1.8643774     106.8209581
  42 TORSION   1  2  3  5              -0.5010496     -28.7080279
  43 TORSION   1  2  3 11              -2.6373578    -151.1094688
  44 TORSION   1  2  3 12               1.5345087      87.9208745
  45 TORSION   1  4  5  6              -2.9499782    -169.0213018
  46 TORSION   1  4  5  3               0.1918099      10.9898970
  47 TORSION   2  1  4 14               1.5353350      87.9682153
  48 TORSION   2  1  4 13              -2.6364567    -151.0578422
  49 TORSION   2  3  5  6              -2.9482349    -168.9214173
  50 TORSION   2  1  4  5              -0.5002544     -28.6624682
  51 TORSION   2  3  5  4               0.1931623      11.0673817
  52 TORSION   3  5  4 13               2.3546093     134.9091741
  53 TORSION   3  5  4 14              -1.8760840    -107.4916946
  54 TORSION   3  2  1  4               0.6323143      36.2289421
  55 TORSION   3  2  1  8               2.7625801     158.2841807
  56 TORSION   3  2  1  7              -1.4175028     -81.2169251
  57 TORSION   4  5  3 11               2.3559794     134.9876734
  58 TORSION   4  5  3 12              -1.8745929    -107.4062599
  59 TORSION   4  1  2  9              -1.4174538     -81.2141197
  60 TORSION   4  1  2 10               2.7627290     158.2927115
  61 TORSION   5  4  1  8              -2.6315821    -150.7785506
  62 TORSION   5  4  1  7               1.5535784      89.0134834
  63 TORSION   5  3  2 10              -2.6324132    -150.8261645
  64 TORSION   5  3  2  9               1.5527192      88.9642546
  65 TORSION   6  5  3 11              -0.7854178     -45.0011256
  66 TORSION   6  5  3 12               1.2671953      72.6049411
  67 TORSION   6  5  4 13              -0.7871788     -45.1020246
  68 TORSION   6  5  4 14               1.2653132      72.4971067
  69 TORSION   7  1  2 10               0.7129119      40.8468443
  70 TORSION   7  1  4 13              -0.5826239     -33.3818907
  71 TORSION   7  1  2  9               2.8159144     161.3400131
  72 TORSION   7  1  4 14              -2.6940175    -154.3558332
  73 TORSION   8  1  2 10              -1.3901905     -79.6520499
  74 TORSION   8  1  4 13               1.5154009      86.8260753
  75 TORSION   8  1  2  9               0.7128120      40.8411189
  76 TORSION   8  1  4 14              -0.5959927     -34.1478672
  77 TORSION   9  2  3 12              -2.6949078    -154.4068429
  78 TORSION   9  2  3 11              -0.5835890     -33.4371863
  79 TORSION  10  2  3 12              -0.5968548     -34.1972620
  80 TORSION  10  2  3 11               1.5144640      86.7723946

          INTERNUCLEAR DISTANCES (ANGS.)


 =====================================================
   GAMESS/COSab RESULTS
 =====================================================

   Dielectric Constant                  = INFTY
   Basic Grid Size                      =                 1082
   Number of Segments                   =                   92
   Number of Segments located on spheres=                  225
   Number of Segments of the cavity     =                  515
   Solvent Radius (rsolv)               = 1.40
   Outlying Charge Error Method         = double cavity

 =====================================================

  Total solvated Energy (a.u.)          =  -268.9417594839
  Total Energy corrected (a.u.)         =  -268.9413678496

  Outlying charge effect (a.u.)         =     0.0003916343
  Outlying charge effect (kcal/mol)     =     0.2457544259

  Dielectric Energy (a.u.)              =    -0.0137091629
  Dielectric energy corr. (a.u.)        =    -0.0133175287

  Sum of polarization charges           =     0.0198244566
  Sum of polarization charges(cor.)     =    -0.0198244566

  Total surface area of cavity (A**2)   =  123.19
  Total volume of cavity (A**3)         =  112.57

 =====================================================
 NPS=                   515
NR.  ATOM  (X, Y, Z)(a.u.)                  CHARGE(e)  AREA(A**2) SIGMA(e/A**2)
   1   1   5.088090   9.569844   4.392476   0.000294   0.278737   0.001055
   2   1   8.481816   7.833610   5.094013   0.001498   0.418105   0.003582
   3   1   4.525422   4.960326   7.759828  -0.000041   0.092912  -0.000440
   4   1   8.406212   8.128127   4.176964   0.000938   0.278737   0.003366
   5   1   6.049726   9.519578   3.824091   0.000712   0.325193   0.002191
   6   1   5.281244   9.469887   3.252536   0.000233   0.185824   0.001253
   7   1   6.225800   9.440287   4.867179   0.000813   0.278737   0.002917
   8   1   7.672068   8.765356   4.884268   0.001184   0.278737   0.004247
   9   1   9.006044   6.991194   4.376876   0.000878   0.371649   0.002363
  10   1   9.176233   6.213059   4.052780   0.000272   0.185824   0.001465
  11   1   5.320054   9.426469   5.283108   0.000646   0.325193   0.001985
  12   1   8.795209   6.772941   5.591616   0.000545   0.278737   0.001954
  13   1   8.662634   5.852315   6.129998   0.000205   0.139368   0.001471
  14   1   4.915218   4.948480   7.832672   0.000030   0.046456   0.000655
  15   1   9.027045   6.516197   3.304209   0.000248   0.185824   0.001334
  16   1   7.095592   9.195576   4.332960   0.001012   0.278737   0.003630
  17   1   4.783833   9.096149   5.943884   0.000182   0.139368   0.001308
  18   1   6.873338   9.097456   5.358573   0.000492   0.185824   0.002649
  19   1   9.054595   6.039033   5.201078   0.000357   0.232280   0.001535
  20   2   7.098008  -0.646033   4.113506   0.000294   0.278737   0.001056
  21   2   8.920675   2.039567   6.232345   0.001497   0.418105   0.003580
  22   2   8.293132   4.078509   1.088000  -0.000041   0.092912  -0.000437
  23   2   8.214902   1.602863   6.726923   0.000938   0.278737   0.003364
  24   2   7.109872  -0.418576   5.208246   0.000713   0.325193   0.002191
  25   2   6.238839  -0.667262   4.893340   0.000234   0.185824   0.001257
  26   2   8.028705  -0.140037   4.757154   0.000813   0.278737   0.002917
  27   2   8.593326   0.900876   5.827304   0.001183   0.278737   0.004246
  28   2   8.371054   2.877380   6.935732   0.000877   0.371649   0.002361
  29   2   7.979575   3.615248   7.140161   0.000272   0.185824   0.001463
  30   2   7.903305  -0.313898   3.783701   0.000645   0.325193   0.001985
  31   2   9.194870   3.207166   6.052416   0.000544   0.278737   0.001951
  32   2   9.313835   4.125301   5.506652   0.000205   0.139368   0.001468
  33   2   8.547678   4.207624   1.363541   0.000030   0.046456   0.000655
  34   2   7.376175   3.175157   7.481827   0.000248   0.185824   0.001332
  35   2   7.968309   0.251998   5.728994   0.001012   0.278737   0.003630
  36   2   8.078805  -0.049246   2.927881   0.000183   0.139368   0.001310
  37   2   8.665003   0.436440   4.959901   0.000492   0.185824   0.002648
  38   2   8.806722   3.917648   6.373316   0.000356   0.232280   0.001533
  39   3   2.843633   0.176472  -1.095917   0.000172   0.232280   0.000740
  40   3   6.097770  -0.504536  -0.319331   0.000575   0.371649   0.001547
  41   3   6.233556  -1.177795   2.537970   0.000077   0.139368   0.000552
  42   3   5.335161  -1.122715   0.012270   0.000437   0.278737   0.001568
  43   3   2.642077  -0.497763  -0.419349  -0.000097   0.232280  -0.000419
  44   3   2.819569  -0.046634   4.670080  -0.000091   0.092912  -0.000980
  45   3   2.465896   0.411554   4.756478  -0.000192   0.092912  -0.002069
  46   3   3.650793  -0.110293  -1.192891   0.000613   0.325193   0.001886
  47   3   4.889951  -0.551135  -0.853672   0.000689   0.325193   0.002118
  48   3   6.491023  -0.751996   0.482147   0.000365   0.278737   0.001311
  49   3   6.738559  -0.887249   1.740908   0.000054   0.232280   0.000232
  50   3   3.209885   1.019454  -1.610254  -0.000213   0.278737  -0.000763
  51   3   7.256197   0.335680   0.190595   0.000048   0.232280   0.000206
  52   3   7.636440   1.032788   0.360863  -0.000108   0.092912  -0.001167
  53   3   6.210298  -1.212812   1.308779   0.000003   0.232280   0.000014
  54   3   3.964273  -0.702393  -0.745012   0.000408   0.232280   0.001755
  55   3   2.281683   0.046184   4.384167  -0.000100   0.092912  -0.001071
  56   3   7.182794  -0.259812   0.920643   0.000097   0.325193   0.000299
  57   4  -1.100883   6.848141   3.954788   0.000171   0.232280   0.000738
  58   4   1.002229   8.505278   6.073062   0.000576   0.371649   0.001549
  59   4   3.217785   9.604535   4.485979   0.000077   0.139368   0.000552
  60   4   0.714985   8.931698   5.173433   0.000437   0.278737   0.001569
  61   4  -0.836482   7.533181   3.311535  -0.000098   0.232280  -0.000422
  62   4   3.529915   7.905698   0.678453  -0.000092   0.092912  -0.000985
  63   4   3.546097   7.385886   0.410089  -0.000192   0.092912  -0.002062
  64   4  -0.847831   7.328326   4.624514   0.000613   0.325193   0.001886
  65   4  -0.061292   8.138220   5.379730   0.000690   0.325193   0.002121
  66   4   1.788397   8.967026   5.908806   0.000366   0.278737   0.001313
  67   4   2.904259   9.349675   5.386813   0.000054   0.232280   0.000233
  68   4  -1.102793   6.072093   4.666860  -0.000213   0.278737  -0.000763
  69   4   2.238439   8.101224   6.858216   0.000048   0.232280   0.000206
  70   4   2.762169   7.568788   7.177207  -0.000108   0.092912  -0.001166
  71   4   2.193488   9.449721   5.148946   0.000004   0.232280   0.000015
  72   4  -0.485318   8.043258   4.541428   0.000408   0.232280   0.001756
  73   4   3.048329   7.627259   0.413445  -0.000101   0.092912  -0.001090
  74   4   2.633308   8.754628   6.301340   0.000098   0.325193   0.000300
  75   5   1.392222   6.479612  -0.467250   0.000022   0.139368   0.000160
  76   5  -0.096311   1.634987   4.400216  -0.000225   0.139368  -0.001616
  77   5   2.007657   5.890541  -1.052029  -0.000457   0.232280  -0.001968
  78   5   2.288683   5.042653  -1.487642  -0.000185   0.185824  -0.000994
  79   5   0.050193   1.024059   3.841940  -0.000319   0.185824  -0.001718
  80   5   2.346254   6.367986  -0.630851  -0.000760   0.185824  -0.004091
  81   5   3.055033   6.020441  -0.763147  -0.001471   0.185824  -0.007917
  82   5   3.640832   5.629131  -0.775017  -0.001911   0.185824  -0.010285
  83   5   2.556121   4.173604  -1.670382  -0.000122   0.232280  -0.000526
  84   5   0.638533   1.171654   4.481873  -0.001746   0.325193  -0.005370
  85   5  -0.182567   2.357777   4.812664  -0.001362   0.371649  -0.003665
  86   5   0.981039   1.846311   5.162931  -0.002755   0.278737  -0.009884
  87   5   2.931980   5.248104  -1.286661  -0.001275   0.232280  -0.005488
  88   5   0.438977   0.566141   3.430839  -0.000046   0.139368  -0.000329
  89   6  -2.825144   2.915222  -0.490527   0.005108   0.377948   0.013514
  90   6  -1.265936   5.750656  -0.791090   0.004502   0.309230   0.014559
  91   6  -2.635531   4.751732   2.198513   0.004279   0.240512   0.017792
  92   6  -2.191135   1.538186   2.492372   0.004137   0.343589   0.012041
  93   6  -0.576922   0.478832  -0.391922   0.005743   0.309230   0.018572
  94   6   0.202400   3.142364  -2.256283   0.004152   0.309230   0.013425
  95   6  -2.523485   4.004535  -0.911432   0.005661   0.412307   0.013730
  96   6  -2.040516   5.057214  -0.850904   0.005005   0.343589   0.014567
  97   6  -3.130707   3.704880   0.346296   0.006027   0.412307   0.014618
  98   6  -3.025150   4.411841   1.255258   0.005713   0.343589   0.016628
  99   6  -2.988285   2.267330   0.519843   0.005459   0.412307   0.013240
 100   6  -2.670332   1.623247   1.447341   0.004789   0.377948   0.012670
 101   6  -2.362596   1.821878  -0.578896   0.005455   0.377948   0.014434
 102   6  -1.564265   1.009362  -0.590680   0.005607   0.343589   0.016320
 103   6  -2.043755   2.761458  -1.440959   0.006634   0.481025   0.013792
 104   6  -1.012969   2.909120  -2.059999   0.005716   0.412307   0.013863
 105   6  -1.943092   5.784165   0.110680   0.004580   0.274871   0.016663
 106   6  -2.510717   5.370283   1.140811   0.004896   0.274871   0.017810
 107   6  -2.881256   3.773904   2.350493   0.005154   0.343589   0.014999
 108   6  -2.656931   2.532577   2.600898   0.005241   0.412307   0.012712
 109   6  -1.835301   0.780807   1.620499   0.004522   0.343589   0.013160
 110   6  -1.258462   0.403423   0.599662   0.005438   0.343589   0.015826
 111   6  -0.382706   1.038132  -1.253395   0.004781   0.274871   0.017394
 112   6  -0.085808   2.058420  -1.993445   0.005512   0.343589   0.016041
 113   6  -0.309361   4.063064  -2.171542   0.005435   0.446666   0.012168
 114   6  -0.902009   5.109667  -1.589811   0.005217   0.412307   0.012653
 115   6  -1.060259   6.246135  -0.029749   0.003977   0.240512   0.016537
 116   6  -2.219389   5.474130   1.980968   0.003800   0.240512   0.015801
 117   6  -2.314906   4.403320   2.967271   0.003882   0.240512   0.016139
 118   6  -1.817610   2.608564   3.543472   0.001902   0.206154   0.009227
 119   6  -1.685205   1.870416   3.301801   0.002276   0.240512   0.009462
 120   6  -1.219404   0.917329   2.720556   0.004464   0.377948   0.011812
 121   6  -0.357384   0.190960   0.374467   0.004091   0.206154   0.019843
 122   6   0.198939   0.649492  -0.804986   0.002193   0.137436   0.015957
 123   6   1.000170   2.624207  -2.033724   0.004524   0.309230   0.014630
 124   6   0.938320   3.874093  -2.097791   0.002819   0.274871   0.010254
 125   6  -0.149761   5.905783  -1.028578   0.004233   0.343589   0.012319
 126   6  -2.706680   4.862089   0.103196   0.006708   0.412307   0.016269
 127   6  -3.151338   2.991335   1.490306   0.006697   0.481025   0.013922
 128   6  -2.207289   1.076537   0.423613   0.005958   0.412307   0.014450
 129   6  -1.199382   1.674633  -1.506454   0.007255   0.446666   0.016244
 130   6  -1.570634   4.098973  -1.743188   0.005294   0.412307   0.012840
 131   6  -1.821246   6.025029   0.937129   0.004285   0.206154   0.020787
 132   6  -2.200691   3.465588   3.336744   0.004901   0.343589   0.014263
 133   6  -0.870907   0.318547   1.684291   0.005023   0.343589   0.014620
 134   6   0.469964   1.424083  -1.592808   0.004318   0.240512   0.017952
 135   6   0.396813   5.076619  -1.753565   0.004520   0.412307   0.010962
 136   7   7.665462   8.199303   1.098582  -0.002874   0.510320  -0.005632
 137   7   5.850640   8.086104   0.650054  -0.001380   0.333671  -0.004136
 138   7   7.282950   6.991870   0.437881  -0.001935   0.353299  -0.005477
 139   7   8.664710   6.967417   1.819233  -0.001266   0.333671  -0.003793
 140   7   8.186360   8.539844   2.746414  -0.000860   0.372926  -0.002305
 141   7   6.345798   9.262897   2.148352  -0.001060   0.372926  -0.002842
 142   7   6.518835   7.515156   0.352457  -0.001867   0.372926  -0.005005
 143   7   8.091120   6.749077   0.960624  -0.001828   0.392554  -0.004657
 144   7   8.565427   7.807995   2.094531  -0.001443   0.392554  -0.003676
 145   7   7.437054   9.031648   2.205906  -0.001775   0.471065  -0.003769
 146   7   6.411687   8.787482   1.179645  -0.001985   0.412182  -0.004816
 147   8   6.642947   7.559298   8.150646  -0.003684   0.588831  -0.006256
 148   8   6.776596   5.884254   8.216010  -0.001553   0.333671  -0.004655
 149   8   5.058022   6.394407   8.272750  -0.001350   0.333671  -0.004045
 150   8   5.267805   8.496756   7.362391  -0.001278   0.353299  -0.003617
 151   8   7.208235   8.590596   6.677953  -0.000950   0.372926  -0.002547
 152   8   8.183414   6.813972   7.046898  -0.000913   0.353299  -0.002584
 153   8   5.917032   6.148932   8.418662  -0.002044   0.431809  -0.004734
 154   8   5.212092   7.580577   8.109917  -0.002496   0.490692  -0.005086
 155   8   6.259199   8.674686   7.248062  -0.001981   0.471065  -0.004205
 156   8   7.735617   7.830259   7.167070  -0.001985   0.471065  -0.004214
 157   8   7.573156   6.437779   7.859502  -0.002328   0.490692  -0.004745
 158   9   5.345976   0.874790   7.853642  -0.002874   0.510320  -0.005632
 159   9   4.025385   0.417354   6.606901  -0.001380   0.333671  -0.004135
 160   9   4.280718   1.818744   7.731528  -0.001935   0.353299  -0.005478
 161   9   6.104165   2.426511   8.083177  -0.001266   0.333671  -0.003794
 162   9   7.048958   0.938954   7.408233  -0.000860   0.372926  -0.002306
 163   9   5.822906  -0.342209   6.348246  -0.001060   0.372926  -0.002842
 164   9   3.965857   1.099087   7.233580  -0.001866   0.372926  -0.005004
 165   9   5.051809   2.348951   8.062660  -0.001828   0.392554  -0.004658
 166   9   6.509063   1.641549   7.973142  -0.001443   0.392554  -0.003677
 167   9   6.361708   0.185710   7.172032  -0.001775   0.471065  -0.003769
 168   9   4.935571  -0.016273   6.872798  -0.001985   0.412182  -0.004816
 169  10  10.403334   2.248817   2.983297  -0.003684   0.588831  -0.006257
 170  10  10.064765   3.886561   2.807023  -0.001554   0.333671  -0.004656
 171  10   9.376588   2.938372   1.448965  -0.001350   0.333671  -0.004045
 172  10   9.317830   0.863568   2.441120  -0.001278   0.353299  -0.003617
 173  10   9.772613   1.205704   4.420676  -0.000950   0.372926  -0.002548
 174  10  10.082073   3.216111   4.746233  -0.000914   0.353299  -0.002586
 175  10   9.865365   3.429136   2.031798  -0.002044   0.431809  -0.004734
 176  10   9.647819   1.829618   1.841838  -0.002496   0.490692  -0.005087
 177  10   9.777900   0.949814   3.340279  -0.001981   0.471065  -0.004206
 178  10  10.231283   2.145473   4.464678  -0.001986   0.471065  -0.004216
 179  10  10.331225   3.526530   3.738351  -0.002329   0.490692  -0.004747
 180  11   3.290878  -2.368652   2.248941  -0.004549   0.569203  -0.007992
 181  11   1.996626  -1.469746   2.763963  -0.002200   0.333671  -0.006593
 182  11   3.245175  -1.414047   3.962198  -0.001934   0.333671  -0.005798
 183  11   5.033709  -1.994154   2.740042  -0.001724   0.333671  -0.005165
 184  11   4.314852  -1.975795   0.717161  -0.001723   0.372926  -0.004619
 185  11   2.456706  -1.482421   0.664781  -0.001639   0.314043  -0.005220
 186  11   2.547436  -1.559103   3.441481  -0.002422   0.412182  -0.005876
 187  11   4.110558  -2.022136   3.379701  -0.003420   0.510320  -0.006701
 188  11   4.695002  -2.250683   1.764484  -0.002975   0.510320  -0.005830
 189  11   3.290080  -2.019338   0.793176  -0.002561   0.451437  -0.005674
 190  11   2.150949  -1.759103   1.746095  -0.003238   0.451437  -0.007173
 191  12   6.324066   2.352139  -2.153201  -0.003217   0.412182  -0.007806
 192  12   7.118738   3.270380  -1.051620  -0.002212   0.314043  -0.007044
 193  12   5.522440   4.120266  -1.529153  -0.001888   0.294415  -0.006414
 194  12   4.330176   2.548478  -2.287205  -0.001984   0.314043  -0.006317
 195  12   5.459311   0.808526  -1.970419  -0.001862   0.372926  -0.004992
 196  12   7.177137   1.274086  -1.007337  -0.001705   0.333671  -0.005110
 197  12   6.373912   3.524395  -1.696426  -0.003041   0.412182  -0.007378
 198  12   5.133081   3.319489  -2.199927  -0.002872   0.451437  -0.006362
 199  12   5.340197   2.007846  -2.433829  -0.002582   0.353299  -0.007309
 200  12   6.398782   0.970331  -1.694112  -0.002629   0.451437  -0.005824
 201  12   7.258067   2.231946  -1.267070  -0.003145   0.451437  -0.006966
 202  12   4.491180   1.429077  -2.217351  -0.001483   0.314043  -0.004722
 203  13   1.157399   9.883363   2.069773  -0.004550   0.569203  -0.007994
 204  13   1.165442   8.749423   0.860442  -0.002200   0.333671  -0.006594
 205  13   2.793838   9.217169   1.217210  -0.001935   0.333671  -0.005800
 206  13   2.547935  10.079751   3.272576  -0.001724   0.333671  -0.005168
 207  13   0.536677   9.565519   3.819884  -0.001723   0.372926  -0.004620
 208  13  -0.316497   8.577795   2.407311  -0.001640   0.314043  -0.005223
 209  13   1.974051   9.086011   0.917586  -0.002423   0.412182  -0.005879
 210  13   2.592242   9.946860   2.157887  -0.003421   0.510320  -0.006703
 211  13   1.509225  10.086055   3.503411  -0.002976   0.510320  -0.005831
 212  13   0.065132   9.336140   2.935089  -0.002562   0.451437  -0.005675
 213  13   0.334160   8.916322   1.512143  -0.003240   0.451437  -0.007177
 214  14   0.405139   5.582595   7.709207  -0.003216   0.412182  -0.007803
 215  14   1.960325   5.091803   7.878529  -0.002212   0.314043  -0.007043
 216  14   0.991394   3.774622   6.970389  -0.001887   0.294415  -0.006409
 217  14  -0.665235   4.827651   6.187215  -0.001984   0.314043  -0.006316
 218  14  -0.309474   6.838062   6.671381  -0.001861   0.372926  -0.004990
 219  14   1.478404   7.010832   7.603496  -0.001704   0.333671  -0.005108
 220  14   1.124833   4.550234   7.669437  -0.003040   0.412182  -0.007376
 221  14   0.026224   4.329039   6.908325  -0.002874   0.451437  -0.006365
 222  14  -0.419089   5.597464   7.012274  -0.002581   0.353299  -0.007304
 223  14   0.438556   6.983695   7.307285  -0.002629   0.451437  -0.005823
 224  14   1.570529   6.084767   7.957647  -0.003143   0.451437  -0.006963
 225  14  -0.833451   5.945673   6.112429  -0.001484   0.314043  -0.004726
 226   1   8.184539   5.225885   6.708030  -0.000004   0.023641  -0.000151
 227   2   8.263038   4.735707   6.635503   0.000028   0.023641   0.001184
 228   8   8.067509   5.430650   6.894469  -0.000041   0.023641  -0.001735
 229   1   9.216348   5.151121   4.732817   0.000028   0.023644   0.001183
 230   2   9.370142   4.674642   4.701006  -0.000004   0.023644  -0.000155
 231  10   9.518926   4.475661   4.531717  -0.000041   0.023644  -0.001739
 232   2   8.985159   4.644211   5.514351  -0.000033   0.347592  -0.000094
 233   1   8.643907   5.269845   5.934919  -0.000032   0.347592  -0.000092
 234   1   4.242320   8.570022   6.496344  -0.000029   0.023743  -0.001213
 235   4   3.754199   8.560032   6.396207  -0.000018   0.023743  -0.000749
 236   8   4.451068   8.498572   6.700573  -0.000057   0.023743  -0.002397
 237   1   4.196422   9.490241   3.859019  -0.000027   0.020612  -0.001319
 238   4   3.708267   9.560051   3.787312  -0.000066   0.020612  -0.003180
 239  13   3.480832   9.638976   3.604316  -0.000093   0.020612  -0.004524
 240   4   3.504381   8.951060   5.870677  -0.000122   0.224731  -0.000544
 241   4   3.747868   9.488059   4.399800  -0.000212   0.224731  -0.000944
 242   1   4.332373   9.138483   5.222550  -0.000620   0.458483  -0.001353
 243   1   8.884656   5.748965   2.625050   0.000022   0.041624   0.000523
 244   7   8.792245   5.962847   2.432088  -0.000094   0.041624  -0.002246
 245  10   9.117186   5.019377   2.619899   0.000000   0.041624   0.000005
 246   1   4.862325   9.135127   2.427152  -0.000040   0.046693  -0.000857
 247   7   5.097552   9.073759   2.246629  -0.000126   0.046693  -0.002704
 248  13   4.101667   9.217538   2.317349  -0.000114   0.046693  -0.002436
 249   7   5.745850   9.216380   2.346122  -0.000210   0.070068  -0.003001
 250   7   6.682378   9.241516   2.977080  -0.000432   0.156112  -0.002767
 251   7   7.865251   8.659464   3.329360  -0.000349   0.156112  -0.002238
 252   7   8.651040   7.577013   3.059341  -0.000427   0.156112  -0.002736
 253   7   8.811601   6.624288   2.474225  -0.000199   0.070068  -0.002840
 254   1   5.839452   9.299501   2.934851  -0.000355   0.153075  -0.002316
 255   1   7.181015   9.052831   3.633915  -0.000070   0.153075  -0.000460
 256   1   8.350878   8.063712   3.682798  -0.000112   0.153075  -0.000733
 257   1   8.849369   6.754617   3.060621  -0.000297   0.153075  -0.001940
 258   1   5.386695   4.560487   7.774025  -0.000025   0.035450  -0.000692
 259   8   5.521836   4.817235   7.852409  -0.000111   0.035450  -0.003120
 260   9   5.455555   3.810251   7.740877  -0.000037   0.035450  -0.001049
 261   1   4.002804   5.735297   7.712662  -0.000081   0.040711  -0.002002
 262   8   4.224865   5.919856   7.796957  -0.000146   0.040711  -0.003590
 263  14   3.246737   5.728010   7.647295  -0.000163   0.040711  -0.004011
 264   8   4.979406   5.702713   8.019209  -0.000476   0.112558  -0.004233
 265   1   4.926840   5.240181   7.856872  -0.000419   0.137515  -0.003049
 266   8   8.156047   5.960519   6.941496  -0.000182   0.069169  -0.002627
 267   8   8.295177   6.969713   6.471929  -0.000498   0.154045  -0.003234
 268   8   7.767467   8.169164   6.125163  -0.000336   0.154045  -0.002179
 269   8   6.617274   8.884834   6.172961  -0.000466   0.154045  -0.003023
 270   8   5.331123   8.813998   6.595105  -0.000561   0.154045  -0.003643
 271   1   8.392205   6.136384   6.420921  -0.000340   0.151137  -0.002249
 272   1   8.267646   7.547144   5.861791  -0.000190   0.151137  -0.001258
 273   1   7.271102   8.684578   5.684227  -0.000145   0.151137  -0.000956
 274   1   5.824102   9.067559   5.963336  -0.000252   0.151137  -0.001668
 275   1   4.713691   8.774663   6.425883  -0.000117   0.084505  -0.001390
 276   1   3.943739   4.321629   7.393580  -0.000490   0.160661  -0.003047
 277   9   4.114485   3.582952   7.382388  -0.000610   0.160661  -0.003799
 278  14   3.187667   4.410045   7.343430  -0.000795   0.160661  -0.004946
 279   9   5.048914   3.241743   7.788769  -0.000708   0.204030  -0.003470
 280   1   4.695923   4.320514   7.692536   0.000010   0.287372   0.000034
 281  10   9.544780   4.604338   2.994680  -0.000556   0.204277  -0.002721
 282  10   9.671224   4.464427   4.101858  -0.000455   0.204277  -0.002225
 283   1   9.179054   5.554957   3.726223   0.000277   0.559478   0.000494
 284  13   3.466086   9.636159   3.025791  -0.001371   0.285664  -0.004799
 285   1   4.619605   9.404238   3.059122   0.000044   0.401532   0.000110
 286  14   2.720312   5.090009   7.650568  -0.001153   0.192111  -0.006000
 287   1   3.855925   5.220735   7.692270  -0.000150   0.270547  -0.000554
 288   2   8.109267   0.384399   2.098270  -0.000029   0.023729  -0.001208
 289   3   7.776346   0.245032   1.754551  -0.000018   0.023729  -0.000745
 290  10   8.362520   0.539873   2.143935  -0.000057   0.023729  -0.002394
 291   2   6.188972  -0.894261   3.669973  -0.000027   0.020608  -0.001313
 292   3   5.901174  -1.105231   3.322140  -0.000065   0.020608  -0.003174
 293  11   5.657872  -1.269925   3.250550  -0.000093   0.020608  -0.004521
 294   3   7.328157  -0.272933   1.902107  -0.000122   0.224550  -0.000542
 295   3   6.400772  -0.934776   3.001677  -0.000211   0.224550  -0.000941
 296   2   7.272977  -0.320073   2.967245  -0.000617   0.458082  -0.001347
 297   2   8.633434   4.697088   1.723664  -0.000024   0.035447  -0.000691
 298   7   8.435423   5.423828   1.686982  -0.000037   0.035447  -0.001047
 299  10   8.836648   4.501896   1.828232  -0.000111   0.035447  -0.003121
 300   2   7.522997   4.471524   0.723421  -0.000489   0.160699  -0.003043
 301   7   7.397966   5.218532   0.759270  -0.000610   0.160699  -0.003795
 302  12   7.121372   4.172894   0.147662  -0.000794   0.160699  -0.004944
 303   7   8.111458   5.859394   1.244017  -0.000708   0.204051  -0.003469
 304   2   8.149515   4.723305   1.169942   0.000010   0.287402   0.000036
 305   2   6.539307   3.763928   7.631295   0.000022   0.041635   0.000522
 306   8   6.453076   4.520138   7.715601   0.000000   0.041635   0.000006
 307   9   6.393546   3.506725   7.695521  -0.000094   0.041635  -0.002247
 308   8   6.862382   5.087463   7.793398  -0.000555   0.204206  -0.002719
 309   8   7.791299   5.419374   7.257194  -0.000454   0.204206  -0.002222
 310   2   7.533975   4.192464   7.227404   0.000277   0.559291   0.000495
 311   2   5.259794  -0.586750   4.962894  -0.000040   0.046664  -0.000854
 312   9   5.215435  -0.490639   5.246592  -0.000126   0.046664  -0.002705
 313  11   4.805980  -0.890238   4.415686  -0.000114   0.046664  -0.002436
 314   9   5.665594  -0.433418   5.741167  -0.000210   0.070073  -0.003001
 315   9   6.664041  -0.106670   6.156238  -0.000432   0.156125  -0.002768
 316   9   7.393892   0.823290   6.837950  -0.000350   0.156125  -0.002239
 317   9   7.276531   2.027398   7.469291  -0.000427   0.156125  -0.002738
 318   9   6.619398   2.889872   7.785928  -0.000199   0.070073  -0.002841
 319   2   6.216366  -0.399382   5.500772  -0.000355   0.153086  -0.002316
 320   2   7.401979   0.306900   6.167873  -0.000071   0.153086  -0.000462
 321   2   7.765948   1.575060   6.948149  -0.000113   0.153086  -0.000735
 322   2   7.152804   2.863399   7.508303  -0.000297   0.153086  -0.001942
 323   2   8.201321   3.191093   0.802934  -0.000081   0.040655  -0.002000
 324  10   8.433776   3.089322   0.964453  -0.000146   0.040655  -0.003590
 325  12   7.760963   2.981208   0.221565  -0.000163   0.040655  -0.004015
 326  10   9.747814   4.003506   4.656336  -0.000182   0.069179  -0.002629
 327  10   9.712526   3.013031   5.182010  -0.000499   0.154072  -0.003237
 328  10   9.490291   1.677008   5.123033  -0.000336   0.154072  -0.002182
 329  10   9.140411   0.688544   4.263761  -0.000466   0.154072  -0.003024
 330  10   8.810916   0.465848   2.967743  -0.000561   0.154072  -0.003644
 331   2   9.491513   3.823882   5.166036  -0.000340   0.151156  -0.002252
 332   2   9.359185   2.366170   5.586119  -0.000191   0.151156  -0.001262
 333   2   9.019389   0.985588   5.040743  -0.000145   0.151156  -0.000961
 334   2   8.615888   0.266244   3.760651  -0.000252   0.151156  -0.001670
 335   2   8.347846   0.308786   2.552571  -0.000117   0.084518  -0.001388
 336  10   8.939699   3.535905   1.423713  -0.000477   0.112658  -0.004234
 337   2   8.653540   3.936952   1.402935  -0.000420   0.137636  -0.003050
 338  11   5.176822  -1.357278   3.562123  -0.001375   0.286320  -0.004804
 339   2   5.726748  -0.815199   4.450717   0.000044   0.402448   0.000110
 340  12   7.320584   3.443949  -0.304375  -0.001154   0.192262  -0.006000
 341   2   7.968744   3.636939   0.618190  -0.000150   0.270759  -0.000553
 342   3   2.613344   0.967742   5.123831  -0.000858   0.099393  -0.008633
 343   5   2.231582   1.289906   5.117649  -0.001267   0.099393  -0.012744
 344   9   3.094799   1.108619   5.682390  -0.000720   0.099393  -0.007242
 345   3   1.746976  -0.031821   3.768824  -0.000202   0.024471  -0.008256
 346   5   1.369996   0.292349   3.774066  -0.000236   0.024471  -0.009662
 347  11   1.844167  -0.288432   3.641434  -0.000162   0.024471  -0.006607
 348   5   1.360758   0.798645   4.336435  -0.001932   0.250881  -0.007702
 349   3   2.065756   0.533509   4.511790  -0.001440   0.250881  -0.005742
 350   3   1.747072  -0.316140   0.274024   0.000005   0.052756   0.000087
 351   6   1.029010   0.083930   0.194883   0.000708   0.052756   0.013430
 352  11   1.835979  -0.535645   0.463298  -0.000175   0.052756  -0.003318
 353   3   2.955395   2.138141  -1.681778  -0.000128   0.037599  -0.003402
 354   6   2.176799   2.410169  -1.652603   0.000199   0.037599   0.005304
 355  12   3.241143   2.194216  -1.769786  -0.000231   0.037599  -0.006138
 356   6   1.524733   2.087117  -1.732487   0.002968   0.284653   0.010428
 357   6   0.932168   0.809877  -0.825993   0.008219   0.575084   0.014291
 358   3   2.402182   1.157187  -1.313900   0.000692   0.625053   0.001108
 359   3   1.789687  -0.080322  -0.250575   0.000614   0.314465   0.001953
 360   3   3.576411  -0.335600   4.767439  -0.000094   0.036804  -0.002547
 361   9   3.977956  -0.086508   5.348476  -0.000094   0.036804  -0.002558
 362  11   3.551890  -0.560285   4.566438  -0.000190   0.036804  -0.005172
 363   9   3.681295   0.570473   5.997485  -0.001155   0.253176  -0.004562
 364   3   3.209072   0.138057   5.054477  -0.000513   0.356469  -0.001438
 365   3   7.789980   1.573349   0.401675  -0.000095   0.043553  -0.002171
 366  10   8.287557   1.790517   0.936169  -0.000061   0.043553  -0.001406
 367  12   7.684387   1.679063   0.136117  -0.000231   0.043553  -0.005297
 368  10   8.600737   0.791392   1.940956  -0.000421   0.169035  -0.002491
 369  10   8.716366   1.530400   1.369743  -0.000493   0.169035  -0.002918
 370   3   7.834081   0.781173   0.997187  -0.000109   0.466413  -0.000234
 371  11   3.037584  -0.804347   4.228079  -0.000346   0.073493  -0.004714
 372  11   2.234580  -0.641923   3.809073  -0.000379   0.073493  -0.005155
 373   3   2.617212  -0.355374   4.197300  -0.000925   0.158959  -0.005817
 374  11   2.356626  -0.993866   0.359068  -0.000344   0.071437  -0.004819
 375  11   3.432841  -1.289510   0.083606  -0.000732   0.159810  -0.004582
 376  11   4.721572  -1.572849   0.512699  -0.000817   0.159810  -0.005114
 377  11   5.480760  -1.655408   1.671166  -0.000862   0.159810  -0.005393
 378  11   5.525882  -1.560111   2.815896  -0.000358   0.071437  -0.005007
 379   3   2.753306  -0.785182  -0.050895  -0.000620   0.155467  -0.003991
 380   3   4.263549  -1.167452  -0.087363  -0.000466   0.155467  -0.002995
 381   3   5.483031  -1.385334   0.857988  -0.000594   0.155467  -0.003822
 382   3   5.871622  -1.342326   2.366444  -0.000763   0.155467  -0.004907
 383  12   7.416700   1.353658  -0.375330  -0.000372   0.070160  -0.005297
 384  12   6.708755   0.586708  -0.792057  -0.000873   0.155915  -0.005598
 385  12   5.513512   0.300912  -1.370521  -0.000749   0.155915  -0.004806
 386  12   4.371080   0.884176  -1.817240  -0.000897   0.155915  -0.005753
 387  12   3.766497   1.818144  -1.976119  -0.000438   0.070160  -0.006244
 388   3   7.213184   0.829192  -0.159628  -0.000760   0.153694  -0.004945
 389   3   6.060821   0.045174  -0.780382  -0.000566   0.153694  -0.003680
 390   3   4.672911   0.221785  -1.389047  -0.000570   0.153694  -0.003708
 391   3   3.632789   1.284795  -1.729803  -0.000751   0.153694  -0.004887
 392   4   4.073504   6.952569   0.408117  -0.000858   0.099354  -0.008635
 393   5   3.962412   6.540611   0.148323  -0.001266   0.099354  -0.012741
 394   7   4.812847   7.034100   0.509742  -0.000720   0.099354  -0.007243
 395   4   2.253270   7.463583   0.309774  -0.000204   0.024486  -0.008311
 396   5   2.154489   7.052745   0.047745  -0.000242   0.024486  -0.009866
 397  13   2.128346   7.715248   0.421941  -0.000162   0.024486  -0.006632
 398   5   2.747318   6.652273  -0.198607  -0.001856   0.250802  -0.007398
 399   4   3.176539   7.123898   0.238789  -0.001445   0.250802  -0.005760
 400   4  -0.676978   7.217209   2.222364   0.000004   0.052728   0.000078
 401   6  -0.997690   6.627772   1.741216   0.000707   0.052728   0.013412
 402  13  -0.537498   7.478126   2.156210  -0.000175   0.052728  -0.003326
 403   4  -0.985171   4.934005   4.666758  -0.000127   0.037770  -0.003352
 404   6  -1.283470   4.465230   4.056675   0.000206   0.037770   0.005442
 405  14  -0.896079   4.945799   4.957381  -0.000230   0.037770  -0.006091
 406   6  -1.768818   4.580753   3.521373   0.002880   0.284221   0.010134
 407   6  -1.680582   5.762257   2.341050   0.008197   0.574191   0.014276
 408   4  -1.234860   5.766653   3.863492   0.000685   0.624104   0.001097
 409   4  -1.018292   6.928045   2.585372   0.000615   0.313987   0.001958
 410   4   3.914784   8.402579   1.197617  -0.000094   0.036853  -0.002551
 411   7   4.661559   8.362727   1.237668  -0.000094   0.036853  -0.002558
 412  13   3.676721   8.579624   1.256494  -0.000191   0.036853  -0.005175
 413   7   5.220608   7.753251   0.731384  -0.001154   0.253038  -0.004562
 414   4   4.092181   7.894105   0.808500  -0.000513   0.356276  -0.001441
 415   4   3.021853   7.103329   7.360393  -0.000095   0.043573  -0.002170
 416   8   3.770695   7.112620   7.499937  -0.000061   0.043573  -0.001406
 417  14   2.780472   6.934597   7.438515  -0.000231   0.043573  -0.005294
 418   8   4.475761   8.295222   7.045560  -0.000421   0.168820  -0.002491
 419   8   4.271356   7.541324   7.568659  -0.000492   0.168820  -0.002917
 420   4   3.312824   7.955279   6.945953  -0.000109   0.465841  -0.000234
 421  13  -0.482915   8.041347   2.570412  -0.000344   0.071423  -0.004818
 422  13  -0.240588   8.577616   3.557717  -0.000732   0.159773  -0.004580
 423  13   0.687854   9.264665   4.326204  -0.000817   0.159773  -0.005113
 424  13   1.996600   9.723053   4.285225  -0.000862   0.159773  -0.005392
 425  13   2.979453   9.814075   3.696335  -0.000358   0.071423  -0.005008
 426   4  -0.558053   7.891718   3.154254  -0.000620   0.155442  -0.003990
 427   4   0.076412   8.664959   4.348858  -0.000465   0.155442  -0.002993
 428   4   1.408572   9.347022   4.782061  -0.000594   0.155442  -0.003820
 429   4   2.848593   9.635916   4.262056  -0.000763   0.155442  -0.004907
 430  13   3.072047   8.619872   0.989881  -0.000347   0.073422  -0.004719
 431  13   2.366651   8.183102   0.593851  -0.000379   0.073422  -0.005163
 432   4   2.956493   8.073333   0.731382  -0.000924   0.158839  -0.005819
 433  14   2.137898   7.094466   7.457551  -0.000371   0.070092  -0.005294
 434  14   1.228023   7.566617   6.999201  -0.000871   0.155735  -0.005593
 435  14   0.070030   7.425012   6.305742  -0.000747   0.155735  -0.004797
 436  14  -0.716545   6.492747   5.710707  -0.000895   0.155735  -0.005749
 437  14  -0.899364   5.417165   5.445026  -0.000437   0.070092  -0.006231
 438   4   2.066787   7.568494   7.092963  -0.000758   0.153573  -0.004939
 439   4   0.759819   7.905015   6.383902  -0.000564   0.153573  -0.003674
 440   4  -0.394587   7.267504   5.618979  -0.000568   0.153573  -0.003699
 441   4  -0.912089   5.923437   5.119126  -0.000749   0.153573  -0.004875
 442   5   0.579128   0.246215   2.683497   0.000113   0.066367   0.001705
 443   6   0.270051   0.307332   2.446031   0.000566   0.066367   0.008527
 444  11   1.153824  -0.244413   2.596463  -0.000224   0.066367  -0.003382
 445   5   2.474257   3.170031  -1.684098  -0.000017   0.044317  -0.000376
 446   6   2.087356   3.114328  -1.727798   0.000231   0.044317   0.005214
 447  12   3.152597   2.871883  -1.747599  -0.000265   0.044317  -0.005980
 448   5   0.843969   6.717399   0.007416   0.000111   0.066343   0.001678
 449   6   0.509583   6.539049  -0.102263   0.000565   0.066343   0.008509
 450  13   0.931520   7.328691   0.451378  -0.000224   0.066343  -0.003373
 451   5  -0.943999   3.808699   4.434448  -0.000013   0.044507  -0.000284
 452   6  -1.192426   3.748893   4.135419   0.000242   0.044507   0.005432
 453  14  -0.732754   4.269950   4.978156  -0.000265   0.044507  -0.005960
 454   6  -0.438324   0.714730   2.773466   0.001628   0.167156   0.009737
 455   6  -1.187403   2.311843   3.622413   0.003202   0.364737   0.008779
 456   5  -0.300341   1.306479   3.490314   0.001500   0.347817   0.004314
 457   5  -1.006491   3.059299   4.207114   0.000806   0.178360   0.004519
 458   6   0.527187   6.005189  -0.802579   0.001530   0.167342   0.009144
 459   6   1.276457   4.405509  -1.651013   0.003366   0.365230   0.009217
 460   5   1.344728   5.586433  -1.003934   0.001367   0.348216   0.003924
 461   5   2.050859   3.830903  -1.719783   0.000728   0.178559   0.004079
 462   5   4.667416   5.401387  -0.251443  -0.002938   0.239636  -0.012260
 463   7   5.464857   5.929336   0.187736  -0.001837   0.239636  -0.007665
 464  12   5.193646   4.908470  -0.472798  -0.002056   0.239636  -0.008578
 465   7   5.493900   6.815969   0.280315  -0.000826   0.223878  -0.003689
 466   5   4.184634   6.171601  -0.240046  -0.001836   0.319512  -0.005745
 467   5   1.950981   2.511124   5.749697  -0.002957   0.239580  -0.012344
 468   9   2.860188   2.293623   6.232489  -0.001838   0.239580  -0.007671
 469  14   1.903033   3.091454   6.228973  -0.002056   0.239580  -0.008582
 470   9   3.194167   1.471353   6.335295  -0.000833   0.225282  -0.003698
 471   5   1.926382   1.645687   5.462497  -0.001879   0.321506  -0.005845
 472  11   1.715919  -0.549774   3.264744  -0.001122   0.213569  -0.005252
 473   5   0.859260   0.215216   3.252962  -0.000474   0.300668  -0.001576
 474  12   3.824018   3.056398  -1.936450  -0.001165   0.185977  -0.006262
 475  12   4.605822   4.069865  -1.458810  -0.003196   0.379750  -0.008417
 476   5   3.187594   4.017741  -1.558802  -0.002379   0.510729  -0.004658
 477   5   4.106502   5.090084  -0.910965  -0.001885   0.262182  -0.007188
 478  13   1.682105   7.872417   0.489517  -0.001131   0.214651  -0.005271
 479   5   1.444879   6.908289  -0.087983  -0.000508   0.302189  -0.001680
 480  14  -0.493647   4.252481   5.657997  -0.001161   0.185430  -0.006263
 481  14   0.571049   3.579138   6.177371  -0.003177   0.378580  -0.008393
 482   5  -0.245620   3.221024   5.070706  -0.002229   0.509291  -0.004378
 483   5   1.043093   2.554699   5.615359  -0.001845   0.261413  -0.007059
 484  11   1.308963  -0.744228   2.342263  -0.000516   0.238689  -0.002163
 485  11   1.551188  -0.842872   1.180577  -0.001091   0.479525  -0.002275
 486   6   0.127806  -0.000574   1.592786   0.005188   0.592257   0.008759
 487   6   0.459853  -0.028205   0.335603   0.003073   0.298086   0.010309
 488  12   3.408892   2.410514  -1.993758  -0.000190   0.175100  -0.001087
 489   6   1.884049   2.841736  -1.948782   0.001080   0.219679   0.004918
 490  13   0.666569   7.808448   0.645609  -0.000515   0.238300  -0.002162
 491  13  -0.182703   7.797230   1.477648  -0.001090   0.478736  -0.002276
 492   6  -0.342030   6.666084   0.213225   0.004987   0.591302   0.008433
 493   6  -1.203939   6.598208   1.182235   0.003141   0.297600   0.010554
 494  14  -0.932178   4.748964   5.253323  -0.000200   0.179203  -0.001119
 495   6  -1.552863   3.923948   4.050900   0.001199   0.224815   0.005335
 496  10   9.205953   4.582816   2.070230   0.000028   0.297466   0.000094
 497   7   8.756325   5.969693   1.975460   0.000061   0.297466   0.000206
 498  12   5.747642   4.785303  -0.831133  -0.000365   0.248568  -0.001470
 499  12   6.649070   4.409640  -0.596064  -0.001249   0.496624  -0.002514
 500   7   6.495716   6.152872   0.116715  -0.000840   0.496624  -0.001691
 501   7   7.364878   5.748066   0.416116  -0.000136   0.248568  -0.000546
 502  13   3.718545   9.190690   1.765363  -0.000786   0.413797  -0.001898
 503   7   5.094003   8.782233   1.487862  -0.000457   0.413797  -0.001105
 504   9   6.004402   3.422584   7.922456   0.000061   0.297636   0.000205
 505   8   5.929632   4.877669   8.030445   0.000028   0.297636   0.000094
 506  14   2.795825   6.195938   7.765182  -0.000952   0.413525  -0.002301
 507   8   4.156357   6.716357   7.869622  -0.000401   0.413525  -0.000971
 508  11   4.154511  -1.052715   4.407251  -0.000780   0.412654  -0.001890
 509   9   4.516275  -0.328493   5.624046  -0.000453   0.412654  -0.001097
 510  14   1.858964   3.307644   6.862493  -0.000365   0.248203  -0.001469
 511  14   2.405956   3.946000   7.409479  -0.001246   0.495895  -0.002513
 512   9   3.388326   2.353530   7.145369  -0.000838   0.495895  -0.001690
 513   9   3.963274   3.020147   7.625940  -0.000135   0.248203  -0.000545
 514  12   7.755992   2.431765  -0.143123  -0.000947   0.412464  -0.002295
 515  10   8.676801   2.326502   0.985659  -0.000398   0.412464  -0.000964
 =====================================================

              2350796  WORDS OF DYNAMIC MEMORY USED
 EXECUTION OF GAMESS TERMINATED NORMALLY Wed Nov 23 22:52:38 2016
 DDI: 263640 bytes (0.3 MB / 0 MWords) used by master data server.

 ----------------------------------------
 CPU timing information for all processes
 ========================================
 0: 1753.220 + 0.688 = 1753.908
 ----------------------------------------
 ddikick.x: exited gracefully.
