----- GAMESS execution script -----

          ******************************************************
          *         GAMESS VERSION =  5 DEC 2014 (R1)          *
          *             FROM IOWA STATE UNIVERSITY             *
          * M.W.SCHMIDT, K.K.BALDRIDGE, J.A.BOATZ, S.T.ELBERT, *
          *   M.S.GORDON, J.H.JENSEN, S.KOSEKI, N.MATSUNAGA,   *
          *          K.A.NGUYEN, S.J.SU, T.L.WINDUS,           *
          *       TOGETHER WITH M.DUPUIS, J.A.MONTGOMERY       *
          *         J.COMPUT.CHEM.  14, 1347-1363(1993)        *
          **************** 64 BIT LINUX VERSION ****************

 EXECUTION OF GAMESS BEGUN Wed Nov 23 22:35:33 2016

            ECHO OF THE FIRST FEW INPUT CARDS -
 INPUT CARD>! SELECT RESTRICTED HARTREE-FOCK AS DEFAULT                                     
 INPUT CARD>$contrl scftyp=rhf $end                                                         
 INPUT CARD>                                                                                
 INPUT CARD>! THEORY: HF OR DFT                                                             
 INPUT CARD> $contrl mplevl=0 $end                                                          
 INPUT CARD>                                                                                
 INPUT CARD> $system timlim=10000 mwords=20 $end                                            
 INPUT CARD> $SCF DIRSCF=.TRUE. $end                                                        
 INPUT CARD>                                                                                
 INPUT CARD>                                                                                
 INPUT CARD>! BASIS SETS                                                                    
 INPUT CARD>! 6-311G(d,p)                                                                   
 INPUT CARD> $BASIS GBASIS=N311 NGAUSS=6 NDFUNC=1 NPFUNC=1 $END                             
 INPUT CARD>                                                                                
 INPUT CARD>! One of the following                                                          
 INPUT CARD> $guess guess=HUCKEL $end                                                       
 INPUT CARD>                                                                                
 INPUT CARD> $statpt projct=.FALSE. $end                                                    
 INPUT CARD> $STATPT IFREEZ(1)=1,2,3 $END                                                   
 INPUT CARD>                                                                                
 INPUT CARD>! Optimize the geometry with COSMO effects                                      
 INPUT CARD> $statpt opttol=0.0005 nstep=50 $end                                            
 INPUT CARD> $contrl nzvar=1 $end                                                           
 INPUT CARD> $zmat dlc=.t. auto=.t. $end                                                    
 INPUT CARD> $contrl runtyp=OPTIMIZE maxit=200 $end                                         
 INPUT CARD>                                                                                
 INPUT CARD>! Run COSMO on perfect conductor                                                
 INPUT CARD> $COSGMS PRFCND=.TRUE. $end                                                     
 INPUT CARD>                                                                                
 INPUT CARD>! Specifying RSOLV                                                              
 INPUT CARD> $COSGMS COSRAD = 1.4 $end                                                      
 INPUT CARD>                                                                                
 INPUT CARD>! available memory                                                              
 INPUT CARD> $SYSTEM MWORDS=40 $END                                                         
 INPUT CARD>                                                                                
 INPUT CARD> $DATA                                                                          
 INPUT CARD>C3H6                                                                            
 INPUT CARD>C1                                                                              
 INPUT CARD>C      6.0     -0.0264000000    0.8830000000   -0.0000000000                    
 INPUT CARD>C      6.0     -0.7515000000   -0.4643000000    0.0000000000                    
 INPUT CARD>C      6.0      0.7779000000   -0.4186000000    0.0000000000                    
 INPUT CARD>H      1.0     -0.0438000000    1.4638000000   -0.9222000000                    
 INPUT CARD>H      1.0     -0.0438000000    1.4638000000    0.9222000000                    
 INPUT CARD>H      1.0     -1.2458000000   -0.7698000000    0.9222000000                    
 INPUT CARD>H      1.0     -1.2458000000   -0.7698000000   -0.9222000000                    
 INPUT CARD>H      1.0      1.2896000000   -0.6940000000   -0.9222000000                    
 INPUT CARD>H      1.0      1.2896000000   -0.6940000000    0.9222000000                    
 INPUT CARD> $END                                                                           
 INPUT CARD>                                                                                
 INPUT CARD>                                                                                
   40000000 WORDS OF MEMORY AVAILABLE

     BASIS OPTIONS
     -------------
     GBASIS=N311         IGAUSS=       6      POLAR=POPN311 
     NDFUNC=       1     NFFUNC=       0     DIFFSP=       F
     NPFUNC=       1      DIFFS=       F     BASNAM=        


     RUN TITLE
     ---------
 C3H6                                                                            

 THE POINT GROUP OF THE MOLECULE IS C1      
 THE ORDER OF THE PRINCIPAL AXIS IS     0

 ATOM      ATOMIC                      COORDINATES (BOHR)
           CHARGE         X                   Y                   Z
 C           6.0    -0.0498887661        1.6686280472       -0.0000000000
 C           6.0    -1.4201290798       -0.8773997761        0.0000000000
 C           6.0     1.4700178458       -0.7910392985        0.0000000000
 H           1.0    -0.0827699983        2.7661809008       -1.7427053059
 H           1.0    -0.0827699983        2.7661809008        1.7427053059
 H           1.0    -2.3542206355       -1.4547110653        1.7427053059
 H           1.0    -2.3542206355       -1.4547110653       -1.7427053059
 H           1.0     2.4369906338       -1.3114698355       -1.7427053059
 H           1.0     2.4369906338       -1.3114698355        1.7427053059

          INTERNUCLEAR DISTANCES (ANGS.)




     $CONTRL OPTIONS
     ---------------
 SCFTYP=RHF          RUNTYP=OPTIMIZE     EXETYP=RUN     
 MPLEVL=       0     CITYP =NONE         CCTYP =NONE         VBTYP =NONE    
 DFTTYP=NONE         TDDFT =NONE    
 MULT  =       1     ICHARG=       0     NZVAR =       1     COORD =UNIQUE  
 PP    =NONE         RELWFN=NONE         LOCAL =NONE         NUMGRD=       F
 ISPHER=      -1     NOSYM =       0     MAXIT =     200     UNITS =ANGS    
 PLTORB=       F     MOLPLT=       F     AIMPAC=       F     FRIEND=        
 NPRINT=       7     IREST =       0     GEOM  =INPUT   
 NORMF =       0     NORMP =       0     ITOL  =      20     ICUT  =       9
 INTTYP=BEST         GRDTYP=BEST         QMTTOL= 1.0E-06

     $SYSTEM OPTIONS
     ---------------
  REPLICATED MEMORY=    40000000 WORDS (ON EVERY NODE).
 DISTRIBUTED MEMDDI=           0 MILLION WORDS IN AGGREGATE,
 MEMDDI DISTRIBUTED OVER   1 PROCESSORS IS           0 WORDS/PROCESSOR.
 TOTAL MEMORY REQUESTED ON EACH PROCESSOR=    40000000 WORDS.
 TIMLIM=       10000.00 MINUTES, OR       6.9 DAYS.
 PARALL= F  BALTYP=  DLB     KDIAG=    0  COREFL= F
 MXSEQ2=     300 MXSEQ3=     150  mem10=         0

     $COSGMS OPTIONS
     ---------------
     EPSI  =   INFTY     NSPA  =      92     COSRAD=    1.40
     DISEX =   10.00     OUTCHG=DBLCAV       COSBUG=       F
     COSWRT=       F     DCOSMO=       F

     SYMMETRY COORDINATES WILL NOT BE USED FOR 
     THE COSMO CALCULATION, EVEN IF SPECIFIED:
         -- SWITCHING TO C1 POINT GROUP --


     DEFINITION OF CAVITY
     ---------------------------
     ATOM         COORDINATES           RADIUS 
     1   -0.0499    1.6686   -0.0000    2.0000
     2   -1.4201   -0.8774    0.0000    2.0000
     3    1.4700   -0.7910    0.0000    2.0000
     4   -0.0828    2.7662   -1.7427    1.3000
     5   -0.0828    2.7662    1.7427    1.3000
     6   -2.3542   -1.4547    1.7427    1.3000
     7   -2.3542   -1.4547   -1.7427    1.3000
     8    2.4370   -1.3115   -1.7427    1.3000
     9    2.4370   -1.3115    1.7427    1.3000

          ----------------
          PROPERTIES INPUT
          ----------------

     MOMENTS            FIELD           POTENTIAL          DENSITY
 IEMOM =       1   IEFLD =       0   IEPOT =       0   IEDEN =       0
 WHERE =COMASS     WHERE =NUCLEI     WHERE =NUCLEI     WHERE =NUCLEI  
 OUTPUT=BOTH       OUTPUT=BOTH       OUTPUT=BOTH       OUTPUT=BOTH    
 IEMINT=       0   IEFINT=       0                     IEDINT=       0
                                                       MORB  =       0
          EXTRAPOLATION IN EFFECT
          SOSCF IN EFFECT
 ORBITAL PRINTING OPTION: NPREO=     1    93     2     1

     -------------------------------
     INTEGRAL TRANSFORMATION OPTIONS
     -------------------------------
     NWORD  =            0
     CUTOFF = 1.0E-09     MPTRAN =       0
     DIRTRF =       T     AOINTS =DUP     

          ----------------------
          INTEGRAL INPUT OPTIONS
          ----------------------
 NOPK  =       1 NORDER=       0 SCHWRZ=       T


 -----------------------------------------------
  STATISTICS ON AUTOMATIC COORDINATE GENERATION 
 -----------------------------------------------
  NUMBER OF USER SPECIFIED BONDS                             0
  NUMBER OF BONDS                                            9
  NUMBER OF ANGLES                                          18
  NUMBER OF TORSIONS                                        24
  NUMBER OF EXTRA COORD.                                     0
  NUMBER OF EXTRA COORD. FOR CONSTRAINTS                     0
  NUMBER OF CONSTRAINED COORD.                               0

  TOTAL NUMBER OF PRIMITIVES                                51
 -----------------------------------------------

   --- ENCODED Z MATRIX ---
 COORD  TYPE   I   J   K   L   M   N
    1      1    1   3
    2      1    1   4
    3      1    1   2
    4      1    1   5
    5      1    2   6
    6      1    2   7
    7      1    2   3
    8      1    3   9
    9      1    3   8
   10      2    1   2   7
   11      2    1   2   3
   12      2    1   2   6
   13      2    1   3   9
   14      2    1   3   2
   15      2    1   3   8
   16      2    2   1   4
   17      2    2   1   5
   18      2    2   1   3
   19      2    2   3   8
   20      2    2   3   9
   21      2    3   2   6
   22      2    3   1   5
   23      2    3   2   7
   24      2    3   1   4
   25      2    4   1   5
   26      2    6   2   7
   27      2    8   3   9
   28      3    1   2   3   8
   29      3    1   2   3   9
   30      3    1   3   2   7
   31      3    1   3   2   6
   32      3    2   3   1   5
   33      3    2   3   1   4
   34      3    2   1   3   9
   35      3    2   1   3   8
   36      3    3   2   1   5
   37      3    3   1   2   7
   38      3    3   1   2   6
   39      3    3   2   1   4
   40      3    4   1   3   9
   41      3    4   1   3   8
   42      3    4   1   2   6
   43      3    4   1   2   7
   44      3    5   1   3   9
   45      3    5   1   2   7
   46      3    5   1   3   8
   47      3    5   1   2   6
   48      3    6   2   3   9
   49      3    6   2   3   8
   50      3    7   2   3   9
   51      3    7   2   3   8

          INDEP./SYM. INTERNAL COORDINATES
          --------------------------------
 CRD  1=  -0.2687 (  1) -0.1224 (  2) -0.2807 (  3) -0.1224 (  4)  0.5495 (  7)
          -0.1610 ( 11) -0.1682 ( 14) -0.1452 ( 16) -0.1452 ( 17)  0.3292 ( 18)
           0.1161 ( 19)  0.1161 ( 20)  0.1136 ( 21) -0.1440 ( 22)  0.1136 ( 23)
          -0.1440 ( 24)  0.2304 ( 25) -0.1127 ( 26) -0.1177 ( 27)  0.1491 ( 49)
          -0.1491 ( 50)
 CRD  2=   0.4793 (  1) -0.4724 (  3) -0.1068 (  5) -0.1068 (  6)  0.1052 (  8)
           0.1052 (  9) -0.1502 ( 10)  0.2871 ( 11) -0.1502 ( 12)  0.1494 ( 13)
          -0.2830 ( 14)  0.1494 ( 15) -0.1021 ( 21) -0.1021 ( 23)  0.2010 ( 26)
          -0.1981 ( 27)  0.1301 ( 40)  0.1282 ( 42) -0.1282 ( 45) -0.1301 ( 46)
 CRD  3=   0.1343 (  2) -0.1343 (  4) -0.1343 (  5)  0.1343 (  6) -0.1343 (  8)
           0.1343 (  9)  0.2161 ( 10) -0.2161 ( 12) -0.2161 ( 13)  0.2161 ( 15)
           0.2161 ( 16) -0.2161 ( 17)  0.2161 ( 19) -0.2161 ( 20) -0.2161 ( 21)
          -0.2161 ( 22)  0.2161 ( 23)  0.2161 ( 24) -0.1662 ( 28) -0.1662 ( 29)
           0.1662 ( 30)  0.1662 ( 31) -0.1662 ( 32) -0.1662 ( 33)  0.1662 ( 34)
           0.1662 ( 35)  0.1662 ( 36) -0.1662 ( 37) -0.1662 ( 38)  0.1662 ( 39)
 CRD  4=   0.4260 (  1)  0.1979 (  2)  0.4260 (  3)  0.1979 (  4)  0.1979 (  5)
           0.1979 (  6)  0.4260 (  7)  0.1979 (  8)  0.1979 (  9) -0.1594 ( 25)
          -0.1594 ( 26) -0.1594 ( 27) -0.1013 ( 40)  0.1013 ( 42) -0.1013 ( 45)
           0.1013 ( 46) -0.1013 ( 49)  0.1013 ( 50)
 CRD  5=   0.3816 (  5) -0.3816 (  6) -0.4051 (  8)  0.4051 (  9)  0.1038 ( 16)
          -0.1038 ( 17)  0.1411 ( 19) -0.1411 ( 20)  0.1456 ( 21)  0.1144 ( 22)
          -0.1456 ( 23) -0.1144 ( 24) -0.1762 ( 32) -0.1762 ( 33)  0.1524 ( 34)
           0.1524 ( 35) -0.1844 ( 36)  0.1645 ( 37)  0.1645 ( 38) -0.1844 ( 39)
 CRD  6=   0.4542 (  2) -0.4542 (  4)  0.2475 (  5) -0.2475 (  6)  0.2068 (  8)
          -0.2068 (  9) -0.1475 ( 10)  0.1475 ( 12)  0.1440 ( 13) -0.1440 ( 15)
           0.1082 ( 16) -0.1082 ( 17)  0.1967 ( 28)  0.1967 ( 29) -0.1944 ( 30)
          -0.1944 ( 31)  0.1249 ( 34)  0.1249 ( 35) -0.1085 ( 37) -0.1085 ( 38)
 CRD  7=   0.1138 (  2)  0.1138 (  4)  0.3843 (  5)  0.3843 (  6) -0.4981 (  8)
          -0.4981 (  9)  0.1538 ( 26) -0.1993 ( 27)  0.1006 ( 48) -0.1006 ( 51)
 CRD  8=  -0.5094 (  2) -0.5094 (  4)  0.3533 (  5)  0.3533 (  6)  0.1562 (  8)
           0.1562 (  9) -0.2038 ( 25)  0.1414 ( 26)
 CRD  9=  -0.3291 (  2) -0.3291 (  4) -0.3291 (  5) -0.3291 (  6) -0.3291 (  8)
          -0.3291 (  9) -0.1925 ( 25) -0.1925 ( 26) -0.1925 ( 27) -0.1223 ( 40)
           0.1223 ( 42) -0.1223 ( 45)  0.1223 ( 46) -0.1224 ( 49)  0.1224 ( 50)
 CRD 10=  -0.1940 (  5)  0.1940 (  6)  0.2015 (  8) -0.2015 (  9)  0.1159 ( 10)
          -0.1159 ( 12)  0.1110 ( 13) -0.1110 ( 15)  0.1236 ( 16) -0.1236 ( 17)
           0.1196 ( 22) -0.1196 ( 24)  0.1360 ( 28)  0.1360 ( 29)  0.1459 ( 30)
           0.1459 ( 31) -0.2023 ( 32) -0.2023 ( 33) -0.1993 ( 36) -0.1993 ( 39)
          -0.1489 ( 40) -0.1489 ( 41) -0.1329 ( 42) -0.1329 ( 43) -0.1489 ( 44)
          -0.1329 ( 45) -0.1489 ( 46) -0.1329 ( 47)  0.2818 ( 48)  0.2818 ( 49)
           0.2818 ( 50)  0.2818 ( 51)
 CRD 11=   0.2283 (  2) -0.2283 (  4)  0.1206 (  5) -0.1206 (  6)  0.1077 (  8)
          -0.1077 (  9) -0.1359 ( 19)  0.1359 ( 20)  0.1354 ( 21) -0.1354 ( 23)
          -0.1551 ( 28) -0.1551 ( 29)  0.1459 ( 30)  0.1459 ( 31) -0.1993 ( 34)
          -0.1993 ( 35)  0.1953 ( 37)  0.1953 ( 38) -0.2395 ( 40) -0.2395 ( 41)
           0.2487 ( 42)  0.2487 ( 43) -0.2395 ( 44)  0.2487 ( 45) -0.2395 ( 46)
           0.2487 ( 47)
 CRD 12=  -0.1246 ( 28) -0.1246 ( 29) -0.1246 ( 30) -0.1246 ( 31) -0.1246 ( 32)
          -0.1246 ( 33) -0.1246 ( 34) -0.1246 ( 35) -0.1246 ( 36) -0.1246 ( 37)
          -0.1246 ( 38) -0.1246 ( 39) -0.2492 ( 40) -0.2492 ( 41) -0.2492 ( 42)
          -0.2492 ( 43) -0.2492 ( 44) -0.2492 ( 45) -0.2492 ( 46) -0.2492 ( 47)
          -0.2492 ( 48) -0.2492 ( 49) -0.2492 ( 50) -0.2492 ( 51)
 CRD 13=   0.3855 (  2) -0.3855 (  4) -0.3855 (  5)  0.3855 (  6) -0.3855 (  8)
           0.3855 (  9)
 CRD 14=   0.1452 (  5)  0.1452 (  6) -0.1708 (  8) -0.1708 (  9) -0.1545 ( 19)
          -0.1545 ( 20)  0.1571 ( 21)  0.1042 ( 22)  0.1571 ( 23)  0.1042 ( 24)
          -0.2577 ( 26)  0.3031 ( 27) -0.1267 ( 32)  0.1267 ( 33)  0.1553 ( 34)
          -0.1553 ( 35) -0.1571 ( 36) -0.1746 ( 37)  0.1746 ( 38)  0.1571 ( 39)
           0.2820 ( 40)  0.3317 ( 42) -0.3317 ( 45) -0.2820 ( 46)
 CRD 15=   0.1825 (  2)  0.1825 (  4) -0.1134 (  5) -0.1134 (  6) -0.1493 ( 10)
          -0.1493 ( 12) -0.1297 ( 13) -0.1297 ( 15)  0.1423 ( 16)  0.1423 ( 17)
           0.1183 ( 22)  0.1183 ( 24) -0.3238 ( 25)  0.2012 ( 26)  0.1226 ( 27)
           0.1739 ( 28) -0.1739 ( 29) -0.1804 ( 30)  0.1804 ( 31)  0.1284 ( 32)
          -0.1284 ( 33) -0.2202 ( 40)  0.1341 ( 42) -0.1341 ( 45)  0.2202 ( 46)
           0.3543 ( 49) -0.3543 ( 50)
 CRD 16=  -0.3773 (  1)  0.1385 (  2) -0.3773 (  3)  0.1385 (  4)  0.1385 (  5)
           0.1385 (  6) -0.3773 (  7)  0.1385 (  8)  0.1385 (  9) -0.2296 ( 25)
          -0.2296 ( 26) -0.2296 ( 27) -0.1459 ( 40)  0.1459 ( 42) -0.1459 ( 45)
           0.1459 ( 46) -0.1459 ( 49)  0.1459 ( 50)
 CRD 17=   0.1963 (  5) -0.1963 (  6) -0.2618 (  8)  0.2618 (  9)  0.1044 ( 10)
          -0.1044 ( 12)  0.1914 ( 13) -0.1914 ( 15) -0.2359 ( 19)  0.2359 ( 20)
          -0.2160 ( 21) -0.1316 ( 22)  0.2160 ( 23)  0.1316 ( 24)  0.1276 ( 28)
           0.1276 ( 29) -0.2012 ( 34) -0.2012 ( 35)  0.1702 ( 36) -0.2154 ( 37)
          -0.2154 ( 38)  0.1702 ( 39) -0.1133 ( 40) -0.1133 ( 41) -0.1133 ( 44)
          -0.1133 ( 46)  0.1586 ( 48)  0.1586 ( 49)  0.1586 ( 50)  0.1586 ( 51)
 CRD 18=  -0.2645 (  2)  0.2645 (  4) -0.1890 (  5)  0.1890 (  6) -0.2122 ( 10)
           0.2122 ( 12)  0.1389 ( 13) -0.1389 ( 15)  0.2352 ( 16) -0.2352 ( 17)
          -0.1965 ( 22)  0.1965 ( 24)  0.1751 ( 28)  0.1751 ( 29) -0.2144 ( 30)
          -0.2144 ( 31) -0.1980 ( 32) -0.1980 ( 33)  0.1341 ( 36)  0.1341 ( 39)
          -0.1177 ( 40) -0.1177 ( 41)  0.1570 ( 42)  0.1570 ( 43) -0.1177 ( 44)
           0.1570 ( 45) -0.1177 ( 46)  0.1570 ( 47)
 CRD 19=   0.2822 (  1) -0.2974 (  3)  0.1690 ( 11) -0.1782 ( 14) -0.1587 ( 26)
           0.1673 ( 27)  0.1662 ( 28) -0.1662 ( 29)  0.1730 ( 30) -0.1730 ( 31)
           0.1544 ( 32) -0.1544 ( 33)  0.1445 ( 36) -0.1445 ( 39) -0.1259 ( 40)
          -0.1829 ( 41) -0.1327 ( 42) -0.1562 ( 43)  0.1829 ( 44)  0.1327 ( 45)
           0.1259 ( 46)  0.1562 ( 47) -0.3392 ( 48)  0.3392 ( 51)
 CRD 20=  -0.1805 (  1)  0.1091 (  2) -0.1541 (  3)  0.1091 (  4)  0.3346 (  7)
          -0.1081 ( 11)  0.2005 ( 18) -0.1023 ( 19) -0.1023 ( 20) -0.1020 ( 21)
          -0.1020 ( 23) -0.1882 ( 25)  0.1015 ( 26)  0.1028 ( 32) -0.1028 ( 33)
           0.1833 ( 34) -0.1833 ( 35) -0.1163 ( 36)  0.1851 ( 37) -0.1851 ( 38)
           0.1163 ( 39) -0.2860 ( 41)  0.3015 ( 43)  0.2860 ( 44) -0.3015 ( 47)
          -0.1493 ( 49)  0.1493 ( 50)
 CRD 21=  -0.1573 ( 28)  0.1573 ( 29) -0.1573 ( 30)  0.1573 ( 31)  0.1574 ( 32)
          -0.1574 ( 33)  0.1574 ( 34) -0.1574 ( 35)  0.1573 ( 36) -0.1573 ( 37)
           0.1573 ( 38) -0.1573 ( 39) -0.3147 ( 41) -0.3147 ( 43)  0.3147 ( 44)
           0.3147 ( 47)  0.3146 ( 48) -0.3146 ( 51)

 THE DETERMINANT OF THE G MATRIX IS 10**(    -1)


                     --------------------
                     INTERNAL COORDINATES
                     --------------------

                 - - ATOMS - -         COORDINATE      COORDINATE
 NO.   TYPE    I  J  K  L  M  N        (BOHR,RAD)       (ANG,DEG)
 ----------------------------------------------------------------
   1 STRETCH   1  3                     2.8913802       1.5300526
   2 STRETCH   1  4                     2.0597877       1.0899928
   3 STRETCH   1  2                     2.8913347       1.5300285
   4 STRETCH   1  5                     2.0597877       1.0899928
   5 STRETCH   2  6                     2.0598148       1.0900071
   6 STRETCH   2  7                     2.0598148       1.0900071
   7 STRETCH   2  3                     2.8914369       1.5300826
   8 STRETCH   3  9                     2.0598316       1.0900160
   9 STRETCH   3  8                     2.0598316       1.0900160
  10 BEND      1  2  7                  2.0507210     117.4976571
  11 BEND      1  2  3                  1.0471953      59.9998725
  12 BEND      1  2  6                  2.0507210     117.4976571
  13 BEND      1  3  9                  2.0507112     117.4970949
  14 BEND      1  3  2                  1.0471680      59.9983093
  15 BEND      1  3  8                  2.0507112     117.4970949
  16 BEND      2  1  4                  2.0506454     117.4933261
  17 BEND      2  1  5                  2.0506454     117.4933261
  18 BEND      2  1  3                  1.0472293      60.0018182
  19 BEND      2  3  8                  2.0506923     117.4960164
  20 BEND      2  3  9                  2.0506923     117.4960164
  21 BEND      3  2  6                  2.0506530     117.4937635
  22 BEND      3  1  5                  2.0506838     117.4955288
  23 BEND      3  2  7                  2.0506530     117.4937635
  24 BEND      3  1  4                  2.0506838     117.4955288
  25 BEND      4  1  5                  2.0171034     115.5715105
  26 BEND      6  2  7                  2.0170615     115.5691118
  27 BEND      8  3  9                  2.0170357     115.5676340
  28 TORSION   1  2  3  8              -1.8760237    -107.4882379
  29 TORSION   1  2  3  9               1.8760237     107.4882379
  30 TORSION   1  3  2  7               1.8760628     107.4904815
  31 TORSION   1  3  2  6              -1.8760628    -107.4904815
  32 TORSION   2  3  1  5               1.8759701     107.4851669
  33 TORSION   2  3  1  4              -1.8759701    -107.4851669
  34 TORSION   2  1  3  9              -1.8759926    -107.4864561
  35 TORSION   2  1  3  8               1.8759926     107.4864561
  36 TORSION   3  2  1  5              -1.8760336    -107.4888056
  37 TORSION   3  1  2  7              -1.8759506    -107.4840491
  38 TORSION   3  1  2  6               1.8759506     107.4840491
  39 TORSION   3  2  1  4               1.8760336     107.4888056
  40 TORSION   4  1  3  9               2.5312227     145.0283769
  41 TORSION   4  1  3  8               0.0000225       0.0012892
  42 TORSION   4  1  2  6              -2.5312012    -145.0271453
  43 TORSION   4  1  2  7               0.0000830       0.0047564
  44 TORSION   5  1  3  9              -0.0000225      -0.0012892
  45 TORSION   5  1  2  7               2.5312012     145.0271453
  46 TORSION   5  1  3  8              -2.5312227    -145.0283769
  47 TORSION   5  1  2  6              -0.0000830      -0.0047564
  48 TORSION   6  2  3  9              -0.0000392      -0.0022436
  49 TORSION   6  2  3  8               2.5310988     145.0212807
  50 TORSION   7  2  3  9              -2.5310988    -145.0212807
  51 TORSION   7  2  3  8               0.0000392       0.0022436

     ------------------------------------------
     THE POINT GROUP IS C1 , NAXIS= 1, ORDER= 1
     ------------------------------------------

     DIMENSIONS OF THE SYMMETRY SUBSPACES ARE
 A   =   93

 ..... DONE SETTING UP THE RUN .....
 STEP CPU TIME =     0.00 TOTAL CPU TIME =        0.0 (    0.0 MIN)
 TOTAL WALL CLOCK TIME=        0.0 SECONDS, CPU UTILIZATION IS   0.00%


          -----------------------------
          STATIONARY POINT LOCATION RUN
          -----------------------------

 OBTAINING INITIAL HESSIAN, HESS=GUESS   
 DIAGONAL GUESS HESSIAN IN INTERNAL COORDS IS
     1  0.3671     2  0.3464     3  0.3671     4  0.3464     5  0.3464
     6  0.3464     7  0.3671     8  0.3464     9  0.3464    10  0.2241
    11  0.2485    12  0.2241    13  0.2241    14  0.2485    15  0.2241
    16  0.2241    17  0.2241    18  0.2485    19  0.2241    20  0.2241
    21  0.2241    22  0.2241    23  0.2241    24  0.2241    25  0.2034
    26  0.2034    27  0.2034    28  0.2500    29  0.2500    30  0.2500
    31  0.2500    32  0.2500    33  0.2500    34  0.2500    35  0.2500
    36  0.2500    37  0.2500    38  0.2500    39  0.2500    40  0.2500
    41  0.2500    42  0.2500    43  0.2500    44  0.2500    45  0.2500
    46  0.2500    47  0.2500    48  0.2500    49  0.2500    50  0.2500
    51  0.2500
 TRANSFORMING HESSIAN TO SYMMETRY COORDINATES

          PARAMETERS CONTROLLING GEOMETRY SEARCH ARE
          METHOD =QA                  UPHESS =BFGS    
          NNEG   =         0          NFRZ   =         3
          NSTEP  =        50          IFOLOW =         1
          HESS   =GUESS               RESTAR =         F
          IHREP  =         0          HSSEND =         F
          NPRT   =         0          NPUN   =         0
          OPTTOL = 5.000E-04          RMIN   = 1.500E-03
          RMAX   = 1.000E-01          RLIM   = 7.000E-02
          DXMAX  = 3.000E-01          PURIFY =         F
          MOVIE  =         F          TRUPD  =         T
          TRMAX  = 5.000E-01          TRMIN  = 5.000E-02
          ITBMAT =         5          STPT   =         F
          STSTEP = 1.000E-02          PROJCT=          F
          FROZEN COORD(S)=   1   2   3


      ***** EQUILIBRIUM GEOMETRY LOCATED *****
            (SUBJECT TO   3 CONSTRAINT(S))
 COORDINATES OF ALL ATOMS ARE (ANGS)
   ATOM   CHARGE       X              Y              Z
 ------------------------------------------------------------
 C           6.0  -0.0258797949   0.8658359915  -0.0000019016
 C           6.0  -0.7368714786  -0.4552910944   0.0000023570
 C           6.0   0.7627573675  -0.4104643947  -0.0000006413
 H           1.0  -0.0432931421   1.4467331728  -0.9056866577
 H           1.0  -0.0432956281   1.4467255125   0.9056894892
 H           1.0  -1.2312637562  -0.7607625856   0.9056876745
 H           1.0  -1.2312574048  -0.7607488191  -0.9056921857
 H           1.0   1.2745228595  -0.6858548040  -0.9056813643
 H           1.0   1.2745145106  -0.6858603223   0.9056852573


                     --------------------
                     INTERNAL COORDINATES
                     --------------------

                 - - ATOMS - -         COORDINATE      COORDINATE
 NO.   TYPE    I  J  K  L  M  N        (BOHR,RAD)       (ANG,DEG)
 ----------------------------------------------------------------
   1 STRETCH   1  3                     2.8351503       1.5002971
   2 STRETCH   1  4                     2.0335503       1.0761086
   3 STRETCH   1  2                     2.8351470       1.5002953
   4 STRETCH   1  5                     2.0335531       1.0761101
   5 STRETCH   2  6                     2.0335440       1.0761052
   6 STRETCH   2  7                     2.0335458       1.0761062
   7 STRETCH   2  3                     2.8351534       1.5002987
   8 STRETCH   3  9                     2.0335465       1.0761065
   9 STRETCH   3  8                     2.0335431       1.0761047
  10 BEND      1  2  7                  2.0574537     117.8834157
  11 BEND      1  2  3                  1.0471976      60.0000032
  12 BEND      1  2  6                  2.0574755     117.8846634
  13 BEND      1  3  9                  2.0574746     117.8846095
  14 BEND      1  3  2                  1.0471956      59.9998864
  15 BEND      1  3  8                  2.0574735     117.8845501
  16 BEND      2  1  4                  2.0574618     117.8838786
  17 BEND      2  1  5                  2.0574473     117.8830496
  18 BEND      2  1  3                  1.0471995      60.0001103
  19 BEND      2  3  8                  2.0575004     117.8860887
  20 BEND      2  3  9                  2.0574868     117.8853074
  21 BEND      3  2  6                  2.0574895     117.8854622
  22 BEND      3  1  5                  2.0575032     117.8862517
  23 BEND      3  2  7                  2.0574781     117.8848105
  24 BEND      3  1  4                  2.0575110     117.8866992
  25 BEND      4  1  5                  2.0005963     114.6257253
  26 BEND      6  2  7                  2.0006132     114.6266913
  27 BEND      8  3  9                  2.0005906     114.6253982
  28 TORSION   1  2  3  8              -1.8812389    -107.7870484
  29 TORSION   1  2  3  9               1.8812461     107.7874615
  30 TORSION   1  3  2  7               1.8812254     107.7862740
  31 TORSION   1  3  2  6              -1.8812468    -107.7875026
  32 TORSION   2  3  1  5               1.8812073     107.7852406
  33 TORSION   2  3  1  4              -1.8812215    -107.7860505
  34 TORSION   2  1  3  9              -1.8812662    -107.7886125
  35 TORSION   2  1  3  8               1.8812832     107.7895860
  36 TORSION   3  2  1  5              -1.8812995    -107.7905216
  37 TORSION   3  1  2  7              -1.8812655    -107.7885744
  38 TORSION   3  1  2  6               1.8812698     107.7888200
  39 TORSION   3  2  1  4               1.8813027     107.7907023
  40 TORSION   4  1  3  9               2.5206977     144.4253370
  41 TORSION   4  1  3  8               0.0000617       0.0035355
  42 TORSION   4  1  2  6              -2.5206128    -144.4204777
  43 TORSION   4  1  2  7               0.0000371       0.0021279
  44 TORSION   5  1  3  9              -0.0000589      -0.0033720
  45 TORSION   5  1  2  7               2.5206203     144.4209040
  46 TORSION   5  1  3  8              -2.5206948    -144.4251735
  47 TORSION   5  1  2  6              -0.0000297      -0.0017016
  48 TORSION   6  2  3  9              -0.0000007      -0.0000410
  49 TORSION   6  2  3  8               2.5206996     144.4254491
  50 TORSION   7  2  3  9              -2.5207138    -144.4262644
  51 TORSION   7  2  3  8              -0.0000135      -0.0007743

          INTERNUCLEAR DISTANCES (ANGS.)


 =====================================================
   GAMESS/COSab RESULTS
 =====================================================

   Dielectric Constant                  = INFTY
   Basic Grid Size                      =                 1082
   Number of Segments                   =                   92
   Number of Segments located on spheres=                  171
   Number of Segments of the cavity     =                  396
   Solvent Radius (rsolv)               = 1.40
   Outlying Charge Error Method         = double cavity

 =====================================================

  Total solvated Energy (a.u.)          =  -117.0903841097
  Total Energy corrected (a.u.)         =  -117.0903137617

  Outlying charge effect (a.u.)         =     0.0000703480
  Outlying charge effect (kcal/mol)     =     0.0441440478

  Dielectric Energy (a.u.)              =    -0.0023528838
  Dielectric energy corr. (a.u.)        =    -0.0022825359

  Sum of polarization charges           =     0.0187751649
  Sum of polarization charges(cor.)     =    -0.0187751649

  Total surface area of cavity (A**2)   =   88.59
  Total volume of cavity (A**3)         =   71.30

 =====================================================
 NPS=                   396
NR.  ATOM  (X, Y, Z)(a.u.)                  CHARGE(e)  AREA(A**2) SIGMA(e/A**2)
   1   1   2.665825   2.753422   2.380389   0.001408   0.278737   0.005051
   2   1  -2.748386   4.279274  -0.105447   0.001123   0.371649   0.003021
   3   1   1.226694   5.193192   0.069487   0.000957   0.371649   0.002576
   4   1   3.139431   3.058945  -1.447273   0.002135   0.278737   0.007660
   5   1  -0.355363   0.891708   3.692695  -0.000096   0.046456  -0.002062
   6   1   2.653388   2.979721  -2.275274   0.001122   0.325193   0.003452
   7   1   0.646178   5.268086  -0.781316   0.000448   0.278737   0.001606
   8   1  -2.267611   4.486403  -1.112597   0.001093   0.418105   0.002614
   9   1  -2.623215   2.276908  -2.691970   0.000302   0.092912   0.003255
  10   1   0.171726   0.929741  -3.706293  -0.000093   0.046456  -0.002009
  11   1  -3.004259   2.646194   2.128365   0.000663   0.139368   0.004757
  12   1  -2.634767   2.353964   2.661254   0.000332   0.139368   0.002380
  13   1  -3.100647   2.567677  -2.025703   0.001174   0.185824   0.006319
  14   1  -3.204692   3.431169  -1.050378   0.002220   0.418105   0.005309
  15   1  -1.863219   4.951610   0.021625   0.001086   0.371649   0.002923
  16   1  -0.173295   5.408444   0.197111   0.001006   0.371649   0.002706
  17   1   2.013549   4.764302  -0.495450   0.001383   0.464561   0.002977
  18   1   2.804394   3.849744  -1.114973   0.001412   0.325193   0.004343
  19   1  -3.439676   2.760478   1.234031   0.001886   0.232280   0.008119
  20   1  -3.331132   3.459068   0.433936   0.002000   0.464561   0.004306
  21   1  -2.412797   4.398584   1.032175   0.001079   0.371649   0.002903
  22   1   0.751226   5.253750   0.746506   0.000412   0.232280   0.001773
  23   1   2.032218   4.568765   1.163254   0.001090   0.418105   0.002608
  24   1   2.735852   3.563130   1.678173   0.001364   0.278737   0.004895
  25   1   3.283023   3.164769   0.919764   0.002308   0.325193   0.007097
  26   1   3.345407   3.268036  -0.316255   0.001254   0.278737   0.004501
  27   1   2.219559   4.288487  -1.450412   0.000628   0.232280   0.002703
  28   1  -0.937650   5.266081  -0.564147   0.000654   0.325193   0.002013
  29   1  -2.920535   3.252426  -1.850887   0.001155   0.232280   0.004973
  30   1  -0.282339   0.820378  -3.682976  -0.000020   0.046456  -0.000425
  31   1   2.344281   2.239107  -2.862430   0.000317   0.092912   0.003411
  32   1  -2.890681   3.444986   1.713691   0.001507   0.325193   0.004635
  33   1  -3.608410   2.830150  -0.434291   0.000970   0.185824   0.005218
  34   1  -1.110643   5.195865   0.696871   0.000629   0.325193   0.001934
  35   1   2.775243   4.121232   0.364718   0.001792   0.511017   0.003507
  36   2  -0.829436  -3.741524  -2.380393   0.001406   0.278737   0.005043
  37   2  -5.085463  -0.063496   0.105494   0.001120   0.371649   0.003015
  38   2  -3.658377  -3.884482  -0.069441   0.000957   0.371649   0.002576
  39   2  -0.823448  -4.305070   1.447273   0.002139   0.278737   0.007675
  40   2  -0.940049  -0.194517  -3.692720  -0.000096   0.046456  -0.002062
  41   2  -1.025070  -3.855780   2.275274   0.001122   0.325193   0.003449
  42   2  -4.040666  -3.441248   0.781366   0.000448   0.278737   0.001607
  43   2  -4.993457  -0.578839   1.112645   0.001140   0.418105   0.002728
  44   2  -3.345329   0.935137   2.691979   0.000497   0.092912   0.005344
  45   2  -0.681294  -0.655317   3.706267  -0.000093   0.046456  -0.001993
  46   2  -3.863525   1.049681  -2.128347   0.000988   0.139368   0.007088
  47   2  -3.416097   0.902293  -2.661243   0.000793   0.139368   0.005693
  48   2  -3.851022   1.173405   2.025720   0.001234   0.185824   0.006643
  49   2  -4.629009   0.784545   1.050411   0.001773   0.418105   0.004241
  50   2  -5.158954  -1.172620  -0.021570   0.001085   0.371649   0.002919
  51   2  -4.609262  -2.834661  -0.197055   0.001006   0.371649   0.002707
  52   2  -2.866955  -4.304900   0.495486   0.001383   0.464561   0.002977
  53   2  -1.668006  -4.461099   1.114988   0.001413   0.325193   0.004344
  54   2  -4.198754   1.350118  -1.234009   0.000754   0.232280   0.003248
  55   2  -4.721973   0.874690  -0.433902   0.002420   0.464561   0.005210
  56   2  -5.000183  -0.409305  -1.032127   0.001054   0.371649   0.002837
  57   2  -3.970859  -3.521031  -0.746457   0.000412   0.232280   0.001773
  58   2  -2.693509  -4.212773  -1.163223   0.001090   0.418105   0.002607
  59   2  -1.466612  -4.246021  -1.678162   0.001363   0.278737   0.004889
  60   2  -0.832705  -4.483221  -0.919763   0.002297   0.325193   0.007063
  61   2  -0.884501  -4.592166   0.316258   0.001256   0.278737   0.004506
  62   2  -2.356345  -4.214704   1.450437   0.000628   0.232280   0.002704
  63   2  -4.911509  -2.118316   0.564203   0.000653   0.325193   0.002008
  64   2  -4.323281   0.645867   1.850916   0.001082   0.232280   0.004658
  65   2  -0.840161  -0.216118   3.682949  -0.000020   0.046456  -0.000425
  66   2  -0.577243  -3.189806   2.862418   0.000317   0.092912   0.003414
  67   2  -4.467604   0.514849  -1.713659   0.001497   0.325193   0.004602
  68   2  -4.349825   1.452570   0.434315   0.001412   0.185824   0.007597
  69   2  -4.948231  -1.935266  -0.696814   0.000630   0.325193   0.001939
  70   2  -1.910669  -4.586339  -0.364697   0.001792   0.511017   0.003506
  71   3   1.051447  -3.685298   2.380399   0.001808   0.278737   0.006486
  72   3   5.080175   0.240410  -0.105454   0.001121   0.371649   0.003015
  73   3   3.883901  -3.659005   0.069476   0.000957   0.371649   0.002574
  74   3   1.079177  -4.248204  -1.447266   0.001251   0.278737   0.004489
  75   3   0.949952  -0.138015   3.692717  -0.000096   0.046456  -0.002063
  76   3   1.253607  -3.787673  -2.275266   0.001834   0.325193   0.005641
  77   3   4.239038  -3.193727  -0.781328   0.000448   0.278737   0.001607
  78   3   5.019130  -0.279512  -1.112605   0.001140   0.418105   0.002727
  79   3   3.283518   1.133297  -2.691961   0.000497   0.092912   0.005348
  80   3   0.719265  -0.613467  -3.706271  -0.000093   0.046456  -0.002012
  81   3   3.793895   1.278605   2.128370   0.000988   0.139368   0.007087
  82   3   3.356065   1.104752   2.661262   0.000791   0.139368   0.005674
  83   3   3.774067   1.401352  -2.025697   0.001232   0.185824   0.006629
  84   3   4.573884   1.059666  -1.050379   0.001772   0.418105   0.004239
  85   3   5.219792  -0.862343   0.021613   0.001085   0.371649   0.002919
  86   3   4.770370  -2.554253   0.197097   0.001006   0.371649   0.002707
  87   3   3.119014  -4.125954  -0.495457   0.001377   0.464561   0.002964
  88   3   1.931544  -4.353500  -1.114972   0.001374   0.325193   0.004226
  89   3   4.110587   1.598531   1.234035   0.000754   0.232280   0.003245
  90   3   4.661282   1.155207   0.433935   0.002418   0.464561   0.005204
  91   3   5.015694  -0.109874   1.032167   0.001054   0.371649   0.002837
  92   3   4.174105  -3.277535   0.746495   0.000412   0.232280   0.001772
  93   3   2.940356  -4.044348   1.163249   0.001094   0.418105   0.002615
  94   3   1.717631  -4.150831   1.678176   0.001266   0.278737   0.004541
  95   3   1.099035  -4.425478   0.919771   0.001766   0.325193   0.005431
  96   3   1.157260  -4.531137  -0.316249   0.001907   0.278737   0.006841
  97   3   2.603938  -4.066425  -1.450415   0.000619   0.232280   0.002664
  98   3   5.029291  -1.821133  -0.564160   0.000653   0.325193   0.002008
  99   3   4.276995   0.902969  -1.850887   0.001082   0.232280   0.004657
 100   3   0.851611  -0.165561  -3.682954  -0.000019   0.046456  -0.000419
 101   3   0.766801  -3.149643  -2.862417   0.000286   0.092912   0.003076
 102   3   4.428850   0.780815   1.713690   0.001496   0.325193   0.004601
 103   3   4.255285   1.709820  -0.434288   0.001414   0.185824   0.007610
 104   3   5.054998  -1.636214   0.696858   0.000630   0.325193   0.001938
 105   3   2.181240  -4.464016   0.364716   0.001845   0.511017   0.003610
 106   4  -0.042334   4.035122  -3.794862  -0.004292   0.588831  -0.007288
 107   4  -1.445428   2.778904  -3.754442  -0.001935   0.412182  -0.004695
 108   4   0.478893   2.232946  -4.050231  -0.001686   0.353299  -0.004772
 109   4   1.654331   3.803039  -3.081846  -0.001195   0.353299  -0.003384
 110   4   0.227150   5.122655  -2.194842  -0.001299   0.333671  -0.003892
 111   4  -1.594632   4.509906  -2.481175  -0.001065   0.333671  -0.003193
 112   4  -0.427440   2.642490  -4.141980  -0.002672   0.471065  -0.005673
 113   4   1.167137   3.153718  -3.784887  -0.002722   0.510320  -0.005333
 114   4   0.979100   4.645747  -2.831535  -0.002622   0.510320  -0.005138
 115   4  -0.636669   4.898239  -2.732770  -0.002689   0.490692  -0.005480
 116   4  -1.550350   3.787224  -3.375550  -0.002751   0.529948  -0.005191
 117   5  -0.199208   4.030383   3.794897  -0.004292   0.588831  -0.007289
 118   5   1.276644   2.860503   3.754460  -0.001940   0.412182  -0.004707
 119   5  -0.611503   2.200208   4.050241  -0.001683   0.353299  -0.004763
 120   5  -1.878917   3.697055   3.081878  -0.001187   0.353299  -0.003359
 121   5  -0.533378   5.099835   2.194892  -0.001303   0.333671  -0.003904
 122   5   1.321848   4.597353   2.481218  -0.001069   0.333671  -0.003203
 123   5   0.268660   2.663326   4.141997  -0.002673   0.471065  -0.005674
 124   5  -1.353687   3.078085   3.784910  -0.002714   0.510320  -0.005318
 125   5  -1.255398   4.578714   2.831579  -0.002622   0.510320  -0.005138
 126   5   0.342337   4.927578   2.732817  -0.002691   0.490692  -0.005484
 127   5   1.320953   3.873303   3.375583  -0.002753   0.529948  -0.005196
 128   6  -3.390899  -2.187383   3.794888  -0.004291   0.588831  -0.007288
 129   6  -3.115435  -0.324355   3.754451  -0.001937   0.412182  -0.004699
 130   6  -1.599698  -1.629589   4.050222  -0.001683   0.353299  -0.004764
 131   6  -2.262547  -3.475537   3.081861  -0.001195   0.353299  -0.003383
 132   6  -4.150103  -3.011409   2.194887  -0.001299   0.333671  -0.003892
 133   6  -4.642309  -1.153430   2.481216  -0.001063   0.333671  -0.003187
 134   6  -2.440782  -1.098795   4.141983  -0.002673   0.471065  -0.005674
 135   6  -1.989014  -2.711227   3.784892  -0.002721   0.510320  -0.005332
 136   6  -3.337834  -3.376243   2.831568  -0.002622   0.510320  -0.005138
 137   6  -4.438669  -2.166851   2.732814  -0.002689   0.490692  -0.005480
 138   6  -4.014764  -0.792264   3.375578  -0.002748   0.529948  -0.005185
 139   7  -3.473379  -2.053826  -3.794922  -0.004292   0.588831  -0.007289
 140   7  -1.683993  -2.641068  -3.754473  -0.001939   0.412182  -0.004704
 141   7  -2.173079  -0.701508  -4.050238  -0.001683   0.353299  -0.004763
 142   7  -4.120530  -0.468358  -3.081893  -0.001185   0.353299  -0.003354
 143   7  -4.550029  -2.364101  -2.194933  -0.001302   0.333671  -0.003903
 144   7  -3.108642  -3.635619  -2.481256  -0.001069   0.333671  -0.003204
 145   7  -2.074715  -1.691199  -4.142003  -0.002670   0.471065  -0.005668
 146   7  -3.314601  -0.565712  -3.784917  -0.002716   0.510320  -0.005322
 147   7  -4.512858  -1.474432  -2.831609  -0.002622   0.510320  -0.005137
 148   7  -3.923840  -3.000054  -2.732858  -0.002691   0.490692  -0.005484
 149   7  -2.504849  -3.235992  -3.375611  -0.002754   0.529948  -0.005197
 150   8   3.515558  -1.980927  -3.794862  -0.004292   0.588831  -0.007288
 151   8   3.129289  -0.137681  -3.754434  -0.001937   0.412182  -0.004698
 152   8   1.694237  -1.531135  -4.050217  -0.001686   0.353299  -0.004772
 153   8   2.466168  -3.334186  -3.081843  -0.001198   0.353299  -0.003391
 154   8   4.322617  -2.758122  -2.194851  -0.001299   0.333671  -0.003892
 155   8   4.702951  -0.874058  -2.481181  -0.001063   0.333671  -0.003187
 156   8   2.502109  -0.951042  -4.141970  -0.002670   0.471065  -0.005668
 157   8   2.147471  -2.587583  -3.784880  -0.002725   0.510320  -0.005339
 158   8   3.533600  -3.170831  -2.831540  -0.002623   0.510320  -0.005140
 159   8   4.560219  -1.897835  -2.732778  -0.002689   0.490692  -0.005480
 160   8   4.054960  -0.551028  -3.375550  -0.002748   0.529948  -0.005186
 161   9   3.589914  -1.842708   3.794887  -0.004292   0.588831  -0.007289
 162   9   1.838805  -2.535798   3.754451  -0.001943   0.412182  -0.004715
 163   9   2.211153  -0.570487   4.050231  -0.001683   0.353299  -0.004764
 164   9   4.141186  -0.221403   3.081866  -0.001185   0.353299  -0.003355
 165   9   4.683158  -2.088093   2.194882  -0.001302   0.333671  -0.003903
 166   9   3.320309  -3.443452   2.481208  -0.001069   0.333671  -0.003203
 167   9   2.172090  -1.564288   4.141987  -0.002673   0.471065  -0.005674
 168   9   3.342520  -0.366737   3.784899  -0.002717   0.510320  -0.005323
 169   9   4.592913  -1.202240   2.831567  -0.002622   0.510320  -0.005137
 170   9   4.096086  -2.760325   2.732807  -0.002691   0.490692  -0.005484
 171   9   2.693732  -3.080617   3.375574  -0.002752   0.529948  -0.005193
 172   1  -0.008450   0.283012  -3.582643  -0.000349   0.057426  -0.006074
 173   2  -0.240839  -0.148798  -3.582641  -0.000350   0.057426  -0.006099
 174   3   0.249313  -0.134146  -3.582641  -0.000349   0.057426  -0.006069
 175   1  -0.008460   0.283054   3.582634  -0.000351   0.057426  -0.006104
 176   2  -0.240849  -0.148757   3.582636  -0.000349   0.057426  -0.006074
 177   3   0.249303  -0.134105   3.582637  -0.000350   0.057426  -0.006100
 178   1  -0.876599   1.031561   3.641128  -0.000037   0.010851  -0.003370
 179   2  -1.103265   0.600999   3.595032  -0.000032   0.010851  -0.002942
 180   5  -0.820455   1.317182   3.702934  -0.000090   0.010851  -0.008296
 181   1  -2.035955   1.655492   3.218651   0.000050   0.010851   0.004605
 182   2  -2.246103   1.216040   3.178575   0.000105   0.010851   0.009670
 183   5  -1.874293   1.884325   3.318909  -0.000005   0.010851  -0.000418
 184   1  -2.251859   1.204726  -3.178747   0.000102   0.010848   0.009399
 185   2  -2.502872   0.787267  -3.218826   0.000025   0.010848   0.002334
 186   7  -2.604819   0.526297  -3.319068  -0.000015   0.010848  -0.001426
 187   1  -1.109322   0.589843  -3.595039  -0.000032   0.010848  -0.002945
 188   2  -1.343821   0.163496  -3.641134  -0.000037   0.010848  -0.003370
 189   7  -1.551259  -0.040701  -3.702940  -0.000090   0.010848  -0.008288
 190   2  -0.775953   0.019541   3.657258  -0.000357   0.145361  -0.002454
 191   1  -0.599908   0.721036   3.659059  -0.000311   0.145361  -0.002141
 192   2  -2.825076   1.122317   2.886652   0.001009   0.212676   0.004744
 193   2  -3.780717   1.636607   1.212435   0.003707   0.433019   0.008560
 194   2  -3.780620   1.636543  -1.212758   0.003964   0.433019   0.009154
 195   2  -2.824846   1.122164  -2.886871   0.001029   0.212676   0.004841
 196   1  -2.899923   1.958832   2.275111   0.003073   0.433019   0.007096
 197   1  -3.639107   2.356628  -0.000175   0.003962   0.433019   0.009150
 198   1  -2.899742   1.958711  -2.275380   0.002972   0.433019   0.006864
 199   2  -0.932220   0.103602  -3.659067  -0.000311   0.145376  -0.002141
 200   1  -0.443698   0.636931  -3.657266  -0.000357   0.145376  -0.002454
 201   1   1.072348   0.655181  -3.595006  -0.000032   0.010845  -0.002960
 202   3   1.331895   0.243604  -3.641101  -0.000041   0.010845  -0.003792
 203   8   1.551145   0.052148  -3.702902  -0.000087   0.010845  -0.007984
 204   1   2.175800   1.337010  -3.178809   0.000100   0.010845   0.009251
 205   3   2.451297   0.935288  -3.218889   0.000026   0.010845   0.002379
 206   8   2.568665   0.680878  -3.319118  -0.000014   0.010845  -0.001280
 207   1   2.175727   1.337006   3.178835   0.000101   0.010844   0.009306
 208   3   2.451224   0.935284   3.218920   0.000025   0.010844   0.002330
 209   9   2.568596   0.680874   3.319149  -0.000016   0.010844  -0.001436
 210   1   1.072373   0.655242   3.594990  -0.000032   0.010844  -0.002941
 211   3   1.331921   0.243666   3.641090  -0.000037   0.010844  -0.003369
 212   9   1.551167   0.052205   3.702895  -0.000090   0.010844  -0.008291
 213   3   0.924536   0.159241   3.659038  -0.000311   0.145428  -0.002139
 214   1   0.404979   0.662405   3.657239  -0.000374   0.145428  -0.002571
 215   3   0.773533   0.065887  -3.657250  -0.000356   0.145420  -0.002447
 216   1   0.555965   0.755651  -3.659051  -0.000335   0.145420  -0.002301
 217   3   2.752722   1.288838  -2.886920   0.000999   0.212695   0.004695
 218   3   3.676136   1.859430  -1.212660   0.003754   0.433061   0.008668
 219   3   3.676107   1.859428   1.212724   0.003954   0.433061   0.009130
 220   3   2.752653   1.288834   2.886961   0.001018   0.212695   0.004785
 221   1   2.777556   2.128387  -2.275376   0.002988   0.433061   0.006900
 222   1   3.491839   2.569760   0.000030   0.003995   0.433061   0.009225
 223   1   2.777501   2.128384   2.275419   0.003091   0.433061   0.007137
 224   1  -0.970083   0.939902  -3.616994  -0.000065   0.025131  -0.002581
 225   4  -0.912959   1.227454  -3.666447  -0.000117   0.025131  -0.004641
 226   7  -1.409218   0.300175  -3.616845  -0.000052   0.025131  -0.002085
 227   1  -2.054966   1.523728  -3.221658   0.000138   0.025131   0.005504
 228   4  -1.885917   1.751049  -3.311897   0.000026   0.025131   0.001026
 229   7  -2.360632   0.812175  -3.270145   0.000079   0.025131   0.003153
 230   1   1.959643   1.643434  -3.222064   0.000129   0.025108   0.005141
 231   4   1.777332   1.860282  -3.312256   0.000014   0.025108   0.000551
 232   8   2.307344   0.951444  -3.270488   0.000081   0.025108   0.003236
 233   1   0.912519   0.996372  -3.616948  -0.000056   0.025108  -0.002223
 234   4   0.838240   1.279977  -3.666400  -0.000123   0.025108  -0.004888
 235   8   1.389047   0.383989  -3.616790  -0.000052   0.025108  -0.002069
 236   4   0.104743   1.653273  -3.841757  -0.000656   0.125480  -0.005231
 237   1  -0.163189   1.246928  -3.708245  -0.000756   0.153301  -0.004931
 238   4  -1.892344   2.383438  -3.335012  -0.000111   0.066211  -0.001676
 239   4  -2.179202   3.262508  -2.765657  -0.000260   0.146661  -0.001774
 240   4  -1.839651   4.334008  -2.084927  -0.000441   0.146661  -0.003004
 241   4  -0.807510   5.027484  -1.659985  -0.000487   0.146661  -0.003322
 242   4   0.505984   5.066636  -1.660140  -0.000571   0.146661  -0.003890
 243   4   1.577496   4.435862  -2.085331  -0.000394   0.146661  -0.002683
 244   4   1.980103   3.386484  -2.766148  -0.000391   0.146661  -0.002664
 245   4   1.745978   2.491885  -3.335442  -0.000117   0.066211  -0.001764
 246   1  -2.267239   2.457782  -2.891127   0.000031   0.145381   0.000211
 247   1  -2.355318   3.697551  -2.094243  -0.000106   0.145381  -0.000730
 248   1  -1.543238   4.742467  -1.439654  -0.000314   0.145381  -0.002162
 249   1  -0.154557   5.176203  -1.188168  -0.000303   0.145381  -0.002083
 250   1   1.257434   4.825946  -1.439985  -0.000268   0.145381  -0.001842
 251   1   2.130154   3.831249  -2.094773  -0.000122   0.145381  -0.000837
 252   1   2.115885   2.588430  -2.891645  -0.000026   0.145381  -0.000182
 253   1   0.912262   0.996212   3.616965  -0.000065   0.025120  -0.002584
 254   5   0.838011   1.279832   3.666423  -0.000117   0.025120  -0.004646
 255   9   1.388820   0.383849   3.616813  -0.000052   0.025120  -0.002087
 256   1   1.959830   1.643548   3.221924   0.000136   0.025120   0.005408
 257   5   1.777501   1.860382   3.312139   0.000024   0.025120   0.000956
 258   9   2.307507   0.951544   3.270373   0.000079   0.025120   0.003133
 259   5  -0.203004   1.643883   3.841791  -0.000653   0.125436  -0.005207
 260   1   0.088717   1.254331   3.708253  -0.000770   0.153247  -0.005022
 261   5   1.746130   2.491996   3.335315  -0.000112   0.066209  -0.001694
 262   5   1.980146   3.386580   2.766046  -0.000291   0.146656  -0.001986
 263   5   1.577479   4.435903   2.085285  -0.000456   0.146656  -0.003106
 264   5   0.505995   5.066636   1.660135  -0.000493   0.146656  -0.003359
 265   5  -0.807445   5.027506   1.659971  -0.000592   0.146656  -0.004036
 266   5  -1.839587   4.334101   2.084856  -0.000383   0.146656  -0.002614
 267   5  -2.179242   3.262663   2.765525  -0.000357   0.146656  -0.002432
 268   5  -1.892528   2.383592   3.334859  -0.000102   0.066209  -0.001538
 269   1   2.116004   2.588552   2.891499  -0.000058   0.145380  -0.000397
 270   1   2.130153   3.831331   2.094675  -0.000070   0.145380  -0.000481
 271   1   1.257420   4.825965   1.439949  -0.000303   0.145380  -0.002085
 272   1  -0.154513   5.176209   1.188153  -0.000338   0.145380  -0.002328
 273   1  -1.543155   4.742530   1.439598  -0.000256   0.145380  -0.001758
 274   1  -2.355293   3.697700   2.094113  -0.000147   0.145380  -0.001011
 275   1  -2.267383   2.457962   2.890950   0.000007   0.145380   0.000046
 276   2  -0.454996  -1.275287   3.641088  -0.000037   0.010840  -0.003367
 277   3   0.031213  -1.256298   3.594991  -0.000031   0.010840  -0.002894
 278   6  -0.730435  -1.369408   3.702893  -0.000090   0.010840  -0.008318
 279   2  -0.415693  -2.590091   3.219091   0.000043   0.010840   0.003934
 280   3   0.069956  -2.552368   3.179006   0.000102   0.010840   0.009386
 281   6  -0.694709  -2.564545   3.319304  -0.000010   0.010840  -0.000949
 282   2  -0.415684  -2.590144  -3.219060   0.000048   0.010842   0.004420
 283   3   0.069966  -2.552420  -3.178975   0.000103   0.010842   0.009474
 284   7  -0.694699  -2.564589  -3.319280  -0.000004   0.010842  -0.000361
 285   2  -0.454991  -1.275152  -3.641103  -0.000041   0.010842  -0.003797
 286   3   0.031218  -1.256165  -3.595004  -0.000032   0.010842  -0.002947
 287   7  -0.730429  -1.369283  -3.702910  -0.000087   0.010842  -0.008002
 288   3   0.371111  -0.681861   3.657243  -0.000372   0.145441  -0.002560
 289   2  -0.324419  -0.880246   3.659037  -0.000334   0.145441  -0.002300
 290   3   0.440617  -3.007016   2.887145   0.000990   0.212715   0.004653
 291   3   0.473058  -4.092230   1.212821   0.003902   0.433105   0.009009
 292   3   0.473062  -4.092252  -1.212758   0.003909   0.433105   0.009025
 293   3   0.440625  -3.007068  -2.887101   0.000972   0.212715   0.004570
 294   2  -0.246397  -3.490286   2.275578   0.003008   0.433105   0.006945
 295   2  -0.221300  -4.329748   0.000032   0.004001   0.433105   0.009239
 296   2  -0.246390  -3.490326  -2.275528   0.003092   0.433105   0.007138
 297   3   0.376422  -0.859229  -3.659046  -0.000334   0.145411  -0.002296
 298   2  -0.329715  -0.702780  -3.657249  -0.000372   0.145411  -0.002561
 299   2  -2.403583   0.875777   3.221702   0.000103   0.025130   0.004118
 300   5  -1.978103   1.522856   3.270183   0.000097   0.025130   0.003851
 301   6  -2.500180   0.609468   3.311939   0.000007   0.025130   0.000286
 302   2  -1.318728   0.291960   3.616988  -0.000065   0.025130  -0.002580
 303   5  -1.026713   1.010864   3.616839  -0.000052   0.025130  -0.002085
 304   6  -1.527247   0.085882   3.666445  -0.000116   0.025130  -0.004631
 305   6  -1.322061  -0.997890   3.841769  -0.000654   0.125454  -0.005210
 306   2  -1.130517  -0.550474   3.708249  -0.000755   0.153269  -0.004925
 307   6  -3.031503   0.266474   3.335070  -0.000125   0.066209  -0.001891
 308   6  -3.923191   0.021672   2.765756  -0.000240   0.146656  -0.001635
 309   6  -4.630448  -0.851903   2.085047  -0.000438   0.146656  -0.002990
 310   6  -4.640727  -2.095287   1.660073  -0.000487   0.146656  -0.003322
 311   6  -3.949931  -3.213103   1.660147  -0.000570   0.146656  -0.003890
 312   6  -2.833281  -3.760002   2.085241  -0.000393   0.146656  -0.002683
 313   6  -1.735660  -3.518095   2.765992  -0.000391   0.146656  -0.002663
 314   6  -1.117915  -2.830011   3.335277  -0.000115   0.066209  -0.001740
 315   2  -3.300068   0.538421   2.891207   0.000024   0.145377   0.000165
 316   2  -4.383309  -0.070952   2.094368  -0.000083   0.145377  -0.000569
 317   2  -4.808109  -1.324248   1.439775  -0.000319   0.145377  -0.002191
 318   2  -4.405225  -2.722141   1.188223  -0.000303   0.145377  -0.002082
 319   2  -3.335169  -3.707696   1.439934  -0.000268   0.145377  -0.001842
 320   2  -2.024262  -3.888260   2.094623  -0.000121   0.145377  -0.000835
 321   2  -0.994782  -3.191893   2.891456  -0.000026   0.145377  -0.000179
 322   7  -1.117912  -2.830048  -3.335259  -0.000111   0.066208  -0.001673
 323   7  -1.735675  -3.518104  -2.765988  -0.000291   0.146654  -0.001986
 324   7  -2.833294  -3.759988  -2.085259  -0.000456   0.146654  -0.003107
 325   7  -3.949930  -3.213089  -1.660177  -0.000493   0.146654  -0.003359
 326   7  -4.640720  -2.095288  -1.660094  -0.000592   0.146654  -0.004035
 327   7  -4.630456  -0.851913  -2.085043  -0.000383   0.146654  -0.002609
 328   7  -3.923227   0.021682  -2.765725  -0.000355   0.146654  -0.002417
 329   7  -3.031561   0.266523  -3.335029  -0.000114   0.066208  -0.001723
 330   2  -0.994789  -3.191926  -2.891434  -0.000056   0.145377  -0.000388
 331   2  -2.024283  -3.888259  -2.094623  -0.000070   0.145377  -0.000483
 332   2  -3.335178  -3.707682  -1.439955  -0.000303   0.145377  -0.002084
 333   2  -4.405220  -2.722138  -1.188247  -0.000338   0.145377  -0.002328
 334   2  -4.808108  -1.324262  -1.439778  -0.000254   0.145377  -0.001746
 335   2  -4.383335  -0.070962  -2.094339  -0.000147   0.145377  -0.001013
 336   2  -3.300127   0.538453  -2.891157  -0.000130   0.145377  -0.000896
 337   7  -1.483784  -0.735967  -3.841800  -0.000652   0.125430  -0.005201
 338   2  -0.997977  -0.764829  -3.708266  -0.000766   0.153240  -0.004997
 339   3   0.443350  -2.518946   3.221933   0.000102   0.025117   0.004054
 340   6  -0.329782  -2.474029   3.270379   0.000092   0.025117   0.003649
 341   9   0.722294  -2.469473   3.312144   0.000006   0.025117   0.000256
 342   3   0.406558  -1.288155   3.616963  -0.000065   0.025117  -0.002576
 343   6  -0.362049  -1.394660   3.616808  -0.000052   0.025117  -0.002076
 344   9   0.689297  -1.365663   3.666418  -0.000116   0.025117  -0.004635
 345   3   0.406581  -1.288163  -3.616962  -0.000056   0.025117  -0.002219
 346   7  -0.362026  -1.394663  -3.616813  -0.000052   0.025117  -0.002068
 347   8   0.689320  -1.365670  -3.666415  -0.000123   0.025117  -0.004881
 348   3   0.443366  -2.518930  -3.221940   0.000098   0.025117   0.003889
 349   7  -0.329767  -2.474012  -3.270390   0.000097   0.025117   0.003876
 350   8   0.722310  -2.469460  -3.312147  -0.000001   0.025117  -0.000055
 351   8   1.379354  -0.917171  -3.841759  -0.000656   0.125462  -0.005225
 352   3   1.161430  -0.481981  -3.708242  -0.000752   0.153279  -0.004906
 353   8   3.010169   0.447076  -3.335072  -0.000124   0.066210  -0.001873
 354   8   3.914900   0.255994  -2.765741  -0.000240   0.146659  -0.001636
 355   8   4.673091  -0.573773  -2.085011  -0.000439   0.146659  -0.002990
 356   8   4.757624  -1.814339  -1.660029  -0.000487   0.146659  -0.003322
 357   8   4.134820  -2.971436  -1.660116  -0.000571   0.146659  -0.003890
 358   8   3.052816  -3.584053  -2.085238  -0.000394   0.146659  -0.002684
 359   8   1.942706  -3.408110  -2.766017  -0.000413   0.146659  -0.002814
 360   8   1.284982  -2.758119  -3.335313  -0.000129   0.066210  -0.001941
 361   3   3.262007   0.734589  -2.891206   0.000024   0.145379   0.000165
 362   3   4.379731   0.191026  -2.094343  -0.000083   0.145379  -0.000570
 363   3   4.878646  -1.034668  -1.439731  -0.000319   0.145379  -0.002192
 364   3   4.559975  -2.454150  -1.188182  -0.000303   0.145379  -0.002082
 365   3   3.550682  -3.501870  -1.439917  -0.000267   0.145379  -0.001840
 366   3   2.252891  -3.760393  -2.094640  -0.000170   0.145379  -0.001172
 367   3   1.183669  -3.126718  -2.891496  -0.000022   0.145379  -0.000153
 368   9   1.525258  -0.645986   3.841764  -0.000653   0.125468  -0.005206
 369   3   1.042004  -0.703886   3.708237  -0.000770   0.153287  -0.005023
 370   9   1.284968  -2.758132   3.335312  -0.000125   0.066210  -0.001894
 371   9   1.942707  -3.408118   2.766017  -0.000287   0.146660  -0.001954
 372   9   3.052830  -3.584047   2.085243  -0.000455   0.146660  -0.003103
 373   9   4.134835  -2.971411   1.660133  -0.000493   0.146660  -0.003359
 374   9   4.757625  -1.814298   1.660060  -0.000592   0.146660  -0.004035
 375   9   4.673067  -0.573731   2.085053  -0.000383   0.146660  -0.002609
 376   9   3.914849   0.256020   2.765784  -0.000355   0.146660  -0.002419
 377   9   3.010103   0.447079   3.335109  -0.000114   0.066210  -0.001727
 378   3   1.183663  -3.126732   2.891491  -0.000062   0.145380  -0.000423
 379   3   2.252903  -3.760395   2.094638  -0.000065   0.145380  -0.000449
 380   3   3.550703  -3.501852   1.439924  -0.000303   0.145380  -0.002088
 381   3   4.559989  -2.454112   1.188204  -0.000339   0.145380  -0.002328
 382   3   4.878637  -1.034620   1.439768  -0.000254   0.145380  -0.001747
 383   3   4.379690   0.191065   2.094387  -0.000147   0.145380  -0.001014
 384   3   3.261941   0.734602   2.891246  -0.000130   0.145380  -0.000895
 385   7  -2.217365   0.338739  -3.655213  -0.000000   0.404119  -0.000000
 386   4  -1.309675   1.559508  -3.726055  -0.000102   0.404119  -0.000253
 387   8   2.005284   0.354512  -3.726179  -0.000116   0.403754  -0.000288
 388   4   1.401711   1.750908  -3.655413   0.000009   0.403754   0.000023
 389   6  -2.022899   0.234057   3.726073  -0.000110   0.404106  -0.000271
 390   5  -1.504055   1.664088   3.655237   0.000018   0.404106   0.000046
 391   9   2.192950   0.470479   3.655351  -0.000001   0.403928  -0.000003
 392   5   1.213981   1.634898   3.726151  -0.000104   0.403928  -0.000258
 393   9   0.808792  -1.868766   3.726147  -0.000112   0.403895  -0.000278
 394   6  -0.689110  -2.134315   3.655350   0.000007   0.403895   0.000018
 395   8   0.815406  -2.089336  -3.655351  -0.000002   0.403888  -0.000006
 396   7  -0.695683  -1.913734  -3.726155  -0.000108   0.403888  -0.000267
 =====================================================

              1135242  WORDS OF DYNAMIC MEMORY USED
 EXECUTION OF GAMESS TERMINATED NORMALLY Wed Nov 23 22:36:31 2016
 DDI: 263640 bytes (0.3 MB / 0 MWords) used by master data server.

 ----------------------------------------
 CPU timing information for all processes
 ========================================
 0: 57.588 + 0.52 = 57.640
 ----------------------------------------
 ddikick.x: exited gracefully.
