----- GAMESS execution script -----

          ******************************************************
          *         GAMESS VERSION =  5 DEC 2014 (R1)          *
          *             FROM IOWA STATE UNIVERSITY             *
          * M.W.SCHMIDT, K.K.BALDRIDGE, J.A.BOATZ, S.T.ELBERT, *
          *   M.S.GORDON, J.H.JENSEN, S.KOSEKI, N.MATSUNAGA,   *
          *          K.A.NGUYEN, S.J.SU, T.L.WINDUS,           *
          *       TOGETHER WITH M.DUPUIS, J.A.MONTGOMERY       *
          *         J.COMPUT.CHEM.  14, 1347-1363(1993)        *
          **************** 64 BIT LINUX VERSION ****************

 EXECUTION OF GAMESS BEGUN Wed Nov 23 22:08:25 2016

            ECHO OF THE FIRST FEW INPUT CARDS -
 INPUT CARD>! SELECT RESTRICTED HARTREE-FOCK AS DEFAULT                                     
 INPUT CARD>$contrl scftyp=rhf $end                                                         
 INPUT CARD>                                                                                
 INPUT CARD>! THEORY: HF OR DFT                                                             
 INPUT CARD> $contrl mplevl=0 $end                                                          
 INPUT CARD>                                                                                
 INPUT CARD> $system timlim=10000 mwords=20 $end                                            
 INPUT CARD> $SCF DIRSCF=.TRUE. $end                                                        
 INPUT CARD>                                                                                
 INPUT CARD>                                                                                
 INPUT CARD>! BASIS SETS                                                                    
 INPUT CARD>! 6-311G(d,p)                                                                   
 INPUT CARD> $BASIS GBASIS=N311 NGAUSS=6 NDFUNC=1 NPFUNC=1 $END                             
 INPUT CARD>                                                                                
 INPUT CARD>! One of the following                                                          
 INPUT CARD> $guess guess=HUCKEL $end                                                       
 INPUT CARD>                                                                                
 INPUT CARD> $statpt projct=.FALSE. $end                                                    
 INPUT CARD> $STATPT IFREEZ(1)=1,2,3 $END                                                   
 INPUT CARD>                                                                                
 INPUT CARD>! Optimize the geometry with COSMO effects                                      
 INPUT CARD> $statpt opttol=0.0005 nstep=50 $end                                            
 INPUT CARD> $contrl nzvar=1 $end                                                           
 INPUT CARD> $zmat dlc=.t. auto=.t. $end                                                    
 INPUT CARD> $contrl runtyp=OPTIMIZE maxit=200 $end                                         
 INPUT CARD>                                                                                
 INPUT CARD>! Run COSMO on perfect conductor                                                
 INPUT CARD> $COSGMS PRFCND=.TRUE. $end                                                     
 INPUT CARD>                                                                                
 INPUT CARD>! Specifying RSOLV                                                              
 INPUT CARD> $COSGMS COSRAD = 1.4 $end                                                      
 INPUT CARD>                                                                                
 INPUT CARD>! available memory                                                              
 INPUT CARD> $SYSTEM MWORDS=40 $END                                                         
 INPUT CARD>                                                                                
 INPUT CARD> $DATA                                                                          
 INPUT CARD>Cyclohexene, ID: C110838                                                        
 INPUT CARD>C1                                                                              
 INPUT CARD>C      6.0      0.7327000000    2.1672000000    3.0056000000                    
 INPUT CARD>C      6.0      1.9600000000    2.0110000000    3.8871000000                    
 INPUT CARD>C      6.0      1.1160000000    2.7003000000    1.6332000000                    
 INPUT CARD>C      6.0      2.9577000000    1.0478000000    3.2616000000                    
 INPUT CARD>C      6.0      2.3139000000    2.0222000000    1.0709000000                    
 INPUT CARD>C      6.0      3.1483000000    1.2856000000    1.8062000000                    
 INPUT CARD>H      1.0      0.0000000000    2.8449000000    3.4839000000                    
 INPUT CARD>H      1.0      0.2188000000    1.1910000000    2.9038000000                    
 INPUT CARD>H      1.0      1.6676000000    1.6529000000    4.8926000000                    
 INPUT CARD>H      1.0      2.4345000000    2.9996000000    4.0453000000                    
 INPUT CARD>H      1.0      1.3277000000    3.7876000000    1.6860000000                    
 INPUT CARD>H      1.0      0.2644000000    2.5914000000    0.9335000000                    
   40000000 WORDS OF MEMORY AVAILABLE

     BASIS OPTIONS
     -------------
     GBASIS=N311         IGAUSS=       6      POLAR=POPN311 
     NDFUNC=       1     NFFUNC=       0     DIFFSP=       F
     NPFUNC=       1      DIFFS=       F     BASNAM=        


     RUN TITLE
     ---------
 Cyclohexene, ID: C110838                                                        

 THE POINT GROUP OF THE MOLECULE IS C1      
 THE ORDER OF THE PRINCIPAL AXIS IS     0

 ATOM      ATOMIC                      COORDINATES (BOHR)
           CHARGE         X                   Y                   Z
 C           6.0     1.3846022312        4.0954141606        5.6797604287
 C           6.0     3.7038629359        3.8002389613        7.3455538869
 C           6.0     2.1089342023        5.1028270846        3.0863004831
 C           6.0     5.5892425539        1.9800548899        6.1635302816
 C           6.0     4.3726369630        3.8214038924        2.0237075603
 C           6.0     5.9494243271        2.4294317298        3.4132230790
 H           1.0     0.0000000000        5.3760814625        6.5836163686
 H           1.0     0.4134720461        2.2506636514        5.4873863231
 H           1.0     3.1513070571        3.1235280851        9.2456733675
 H           1.0     4.6005379171        5.6684220728        7.6445085381
 H           1.0     2.5089891939        7.1575261511        3.1860780153
 H           1.0     0.4996435512        4.8970359246        1.7640592095
 H           1.0     4.9541056494        0.0000000000        6.4226117145
 H           1.0     7.4324812823        2.1227292020        7.1454319048
 H           1.0     4.7110868874        4.0995715578        0.0000000000
 H           1.0     7.5980212788        1.5202845571        2.5501852204

          INTERNUCLEAR DISTANCES (ANGS.)




     $CONTRL OPTIONS
     ---------------
 SCFTYP=RHF          RUNTYP=OPTIMIZE     EXETYP=RUN     
 MPLEVL=       0     CITYP =NONE         CCTYP =NONE         VBTYP =NONE    
 DFTTYP=NONE         TDDFT =NONE    
 MULT  =       1     ICHARG=       0     NZVAR =       1     COORD =UNIQUE  
 PP    =NONE         RELWFN=NONE         LOCAL =NONE         NUMGRD=       F
 ISPHER=      -1     NOSYM =       0     MAXIT =     200     UNITS =ANGS    
 PLTORB=       F     MOLPLT=       F     AIMPAC=       F     FRIEND=        
 NPRINT=       7     IREST =       0     GEOM  =INPUT   
 NORMF =       0     NORMP =       0     ITOL  =      20     ICUT  =       9
 INTTYP=BEST         GRDTYP=BEST         QMTTOL= 1.0E-06

     $SYSTEM OPTIONS
     ---------------
  REPLICATED MEMORY=    40000000 WORDS (ON EVERY NODE).
 DISTRIBUTED MEMDDI=           0 MILLION WORDS IN AGGREGATE,
 MEMDDI DISTRIBUTED OVER   1 PROCESSORS IS           0 WORDS/PROCESSOR.
 TOTAL MEMORY REQUESTED ON EACH PROCESSOR=    40000000 WORDS.
 TIMLIM=       10000.00 MINUTES, OR       6.9 DAYS.
 PARALL= F  BALTYP=  DLB     KDIAG=    0  COREFL= F
 MXSEQ2=     300 MXSEQ3=     150  mem10=         0

     $COSGMS OPTIONS
     ---------------
     EPSI  =   INFTY     NSPA  =      92     COSRAD=    1.40
     DISEX =   10.00     OUTCHG=DBLCAV       COSBUG=       F
     COSWRT=       F     DCOSMO=       F

     SYMMETRY COORDINATES WILL NOT BE USED FOR 
     THE COSMO CALCULATION, EVEN IF SPECIFIED:
         -- SWITCHING TO C1 POINT GROUP --


     DEFINITION OF CAVITY
     ---------------------------
     ATOM         COORDINATES           RADIUS 
     1    1.3846    4.0954    5.6798    2.0000
     2    3.7039    3.8002    7.3456    2.0000
     3    2.1089    5.1028    3.0863    2.0000
     4    5.5892    1.9801    6.1635    2.0000
     5    4.3726    3.8214    2.0237    2.0000
     6    5.9494    2.4294    3.4132    2.0000
     7    0.0000    5.3761    6.5836    1.3000
     8    0.4135    2.2507    5.4874    1.3000
     9    3.1513    3.1235    9.2457    1.3000
    10    4.6005    5.6684    7.6445    1.3000
    11    2.5090    7.1575    3.1861    1.3000
    12    0.4996    4.8970    1.7641    1.3000
    13    4.9541    0.0000    6.4226    1.3000
    14    7.4325    2.1227    7.1454    1.3000
    15    4.7111    4.0996    0.0000    1.3000
    16    7.5980    1.5203    2.5502    1.3000

          ----------------
          PROPERTIES INPUT
          ----------------

     MOMENTS            FIELD           POTENTIAL          DENSITY
 IEMOM =       1   IEFLD =       0   IEPOT =       0   IEDEN =       0
 WHERE =COMASS     WHERE =NUCLEI     WHERE =NUCLEI     WHERE =NUCLEI  
 OUTPUT=BOTH       OUTPUT=BOTH       OUTPUT=BOTH       OUTPUT=BOTH    
 IEMINT=       0   IEFINT=       0                     IEDINT=       0
                                                       MORB  =       0
          EXTRAPOLATION IN EFFECT
          SOSCF IN EFFECT
 ORBITAL PRINTING OPTION: NPREO=     1   174     2     1

     -------------------------------
     INTEGRAL TRANSFORMATION OPTIONS
     -------------------------------
     NWORD  =            0
     CUTOFF = 1.0E-09     MPTRAN =       0
     DIRTRF =       T     AOINTS =DUP     

          ----------------------
          INTEGRAL INPUT OPTIONS
          ----------------------
 NOPK  =       1 NORDER=       0 SCHWRZ=       T


 -----------------------------------------------
  STATISTICS ON AUTOMATIC COORDINATE GENERATION 
 -----------------------------------------------
  NUMBER OF USER SPECIFIED BONDS                             0
  NUMBER OF BONDS                                           16
  NUMBER OF ANGLES                                          30
  NUMBER OF TORSIONS                                        43
  NUMBER OF EXTRA COORD.                                     0
  NUMBER OF EXTRA COORD. FOR CONSTRAINTS                     0
  NUMBER OF CONSTRAINED COORD.                               0

  TOTAL NUMBER OF PRIMITIVES                                89
 -----------------------------------------------

   --- ENCODED Z MATRIX ---
 COORD  TYPE   I   J   K   L   M   N
    1      1    1   8
    2      1    1   7
    3      1    1   2
    4      1    1   3
    5      1    2   4
    6      1    2  10
    7      1    2   9
    8      1    3  12
    9      1    3  11
   10      1    3   5
   11      1    4  14
   12      1    4  13
   13      1    4   6
   14      1    5  15
   15      1    5   6
   16      1    6  16
   17      2    1   3   5
   18      2    1   2   4
   19      2    1   3  12
   20      2    1   2  10
   21      2    1   2   9
   22      2    1   3  11
   23      2    2   1   3
   24      2    2   1   7
   25      2    2   4   6
   26      2    2   1   8
   27      2    2   4  13
   28      2    2   4  14
   29      2    3   1   8
   30      2    3   5  15
   31      2    3   1   7
   32      2    3   5   6
   33      2    4   6  16
   34      2    4   2  10
   35      2    4   6   5
   36      2    4   2   9
   37      2    5   6  16
   38      2    5   3  11
   39      2    5   3  12
   40      2    6   5  15
   41      2    6   4  13
   42      2    6   4  14
   43      2    7   1   8
   44      2    9   2  10
   45      2   11   3  12
   46      2   13   4  14
   47      3    1   2   4   6
   48      3    1   2   4  13
   49      3    1   3   5   6
   50      3    1   2   4  14
   51      3    1   3   5  15
   52      3    2   1   3   5
   53      3    2   1   3  12
   54      3    2   1   3  11
   55      3    2   4   6  16
   56      3    2   4   6   5
   57      3    3   5   6  16
   58      3    3   5   6   4
   59      3    3   1   2   9
   60      3    3   1   2  10
   61      3    3   1   2   4
   62      3    4   2   1   7
   63      3    4   2   1   8
   64      3    4   6   5  15
   65      3    5   3   1   8
   66      3    5   3   1   7
   67      3    5   6   4  13
   68      3    5   6   4  14
   69      3    6   5   3  11
   70      3    6   5   3  12
   71      3    6   4   2   9
   72      3    6   4   2  10
   73      3    7   1   3  12
   74      3    7   1   3  11
   75      3    7   1   2   9
   76      3    7   1   2  10
   77      3    8   1   2  10
   78      3    8   1   3  12
   79      3    8   1   3  11
   80      3    8   1   2   9
   81      3    9   2   4  14
   82      3    9   2   4  13
   83      3   10   2   4  14
   84      3   10   2   4  13
   85      3   11   3   5  15
   86      3   12   3   5  15
   87      3   13   4   6  16
   88      3   14   4   6  16
   89      3   15   5   6  16

          INDEP./SYM. INTERNAL COORDINATES
          --------------------------------
 CRD  1=  -0.2043 (  4)  0.2035 (  5)  0.1130 ( 10) -0.1130 ( 13)  0.1647 ( 17)
           0.3769 ( 18) -0.1209 ( 19) -0.1555 ( 20) -0.1578 ( 21) -0.3796 ( 23)
           0.1573 ( 24) -0.1599 ( 25)  0.1564 ( 26)  0.1194 ( 28)  0.1326 ( 29)
           0.1218 ( 32) -0.1316 ( 34) -0.1252 ( 35) -0.1136 ( 38)  0.1133 ( 41)
          -0.1158 ( 43)  0.1152 ( 44) -0.1213 ( 49)  0.1208 ( 56)  0.1224 ( 57)
          -0.1245 ( 64) -0.1139 ( 65)  0.1627 ( 67)  0.1238 ( 68) -0.1631 ( 69)
          -0.1237 ( 70)  0.1158 ( 72)
 CRD  2=  -0.3306 (  3) -0.1417 (  8) -0.1425 ( 11) -0.3358 ( 15)  0.2904 ( 17)
          -0.1893 ( 18) -0.1618 ( 22) -0.1838 ( 23)  0.2935 ( 25) -0.1627 ( 27)
           0.1318 ( 30)  0.1435 ( 31) -0.1593 ( 32)  0.1308 ( 33) -0.1575 ( 35)
           0.1441 ( 36) -0.2116 ( 39) -0.2110 ( 42)  0.1197 ( 45)  0.1209 ( 46)
           0.1297 ( 47)  0.1309 ( 52) -0.1273 ( 58)  0.1311 ( 65)  0.1294 ( 72)
 CRD  3=   0.2591 (  4) -0.2624 (  5)  0.4079 ( 10) -0.4088 ( 13) -0.1676 ( 17)
           0.1670 ( 25)  0.2612 ( 30)  0.1529 ( 31) -0.2627 ( 33) -0.1540 ( 36)
           0.2342 ( 37)  0.1237 ( 39) -0.2323 ( 40) -0.1225 ( 42)
 CRD  4=  -0.1398 (  2) -0.4239 (  3) -0.3808 (  4) -0.3810 (  5) -0.1390 (  7)
           0.2777 ( 15)  0.1085 ( 18) -0.1390 ( 19)  0.1090 ( 23) -0.1394 ( 28)
          -0.1086 ( 30) -0.1145 ( 32) -0.1065 ( 33) -0.1143 ( 35)  0.2206 ( 37)
           0.1251 ( 39)  0.2231 ( 40)  0.1266 ( 42)
 CRD  5=   0.1029 (  2) -0.1227 (  3)  0.2122 (  4)  0.2098 (  5)  0.1026 (  7)
           0.2896 ( 10)  0.2892 ( 13)  0.1736 ( 14)  0.1658 ( 15)  0.1725 ( 16)
           0.1362 ( 17) -0.1774 ( 19) -0.1267 ( 21)  0.1105 ( 22) -0.1265 ( 24)
           0.1357 ( 25)  0.1112 ( 27) -0.1788 ( 28)  0.1570 ( 31)  0.1571 ( 36)
          -0.1911 ( 38) -0.1904 ( 41)  0.1350 ( 57)  0.1815 ( 58)  0.1547 ( 60)
           0.2250 ( 61)  0.1557 ( 63)  0.1347 ( 64)
 CRD  6=   0.2936 (  4) -0.2922 (  5) -0.2343 ( 10)  0.2330 ( 13)  0.1108 ( 18)
          -0.1652 ( 20)  0.1378 ( 21)  0.1916 ( 22) -0.1110 ( 23) -0.1377 ( 24)
           0.1654 ( 26) -0.1901 ( 27) -0.1156 ( 30)  0.1898 ( 31)  0.1166 ( 33)
          -0.1893 ( 36) -0.1510 ( 37) -0.1818 ( 38)  0.1489 ( 40)  0.1813 ( 41)
          -0.1640 ( 48) -0.1454 ( 49)  0.1643 ( 54)  0.1451 ( 56)  0.1663 ( 68)
          -0.1668 ( 70) -0.1026 ( 86)  0.1025 ( 88)
 CRD  7=  -0.1751 (  3) -0.1866 (  4) -0.1811 (  5) -0.2633 ( 10) -0.2646 ( 13)
          -0.2244 ( 14) -0.4070 ( 15) -0.2232 ( 16) -0.1026 ( 19)  0.1843 ( 22)
           0.1847 ( 27) -0.1005 ( 28) -0.1741 ( 37) -0.1594 ( 38)  0.1221 ( 39)
          -0.1751 ( 40) -0.1612 ( 41)  0.1215 ( 42)  0.1252 ( 57)  0.1652 ( 58)
           0.1170 ( 61)  0.1257 ( 64)
 CRD  8=  -0.2721 (  4)  0.2782 (  5) -0.1356 ( 19) -0.2168 ( 20)  0.1216 ( 21)
           0.1003 ( 23) -0.1237 ( 24)  0.2139 ( 26)  0.1374 ( 28) -0.2898 ( 29)
           0.1060 ( 32)  0.2933 ( 34) -0.1070 ( 35) -0.1879 ( 47) -0.1357 ( 49)
          -0.1127 ( 50) -0.1671 ( 51)  0.1889 ( 52)  0.1140 ( 53)  0.1682 ( 55)
           0.1371 ( 56)  0.1563 ( 60) -0.1561 ( 63)  0.1283 ( 66) -0.1290 ( 71)
           0.1202 ( 76) -0.1200 ( 80)
 CRD  9=   0.2336 (  3) -0.2588 ( 10) -0.2584 ( 13)  0.1544 ( 15)  0.1354 ( 17)
           0.1093 ( 20)  0.1361 ( 25)  0.1128 ( 26) -0.3191 ( 30) -0.3183 ( 33)
           0.3541 ( 37) -0.1580 ( 38)  0.3540 ( 40) -0.1594 ( 41)  0.1318 ( 61)
 CRD 10=  -0.4223 (  3)  0.2500 (  4)  0.2482 (  5) -0.1554 ( 10) -0.1556 ( 13)
          -0.1214 ( 17)  0.1775 ( 19) -0.1699 ( 20) -0.1521 ( 21)  0.1063 ( 22)
          -0.1507 ( 24) -0.1218 ( 25) -0.1716 ( 26)  0.1067 ( 27)  0.1769 ( 28)
           0.1439 ( 29) -0.1656 ( 30) -0.1657 ( 33)  0.1416 ( 34)  0.1057 ( 37)
           0.1055 ( 40) -0.1227 ( 73) -0.1428 ( 75)  0.1495 ( 77)  0.1320 ( 79)
          -0.1225 ( 81)  0.1317 ( 84)
 CRD 11=  -0.3506 ( 14)  0.3509 ( 16) -0.1677 ( 17)  0.1465 ( 19)  0.1056 ( 20)
           0.1009 ( 22)  0.1686 ( 25) -0.1056 ( 26) -0.1002 ( 27) -0.1478 ( 28)
          -0.2786 ( 30)  0.3621 ( 32)  0.2785 ( 33) -0.3625 ( 35)  0.1186 ( 50)
          -0.1192 ( 53)
 CRD 12=  -0.2714 ( 19)  0.2743 ( 22) -0.2746 ( 27)  0.2714 ( 28) -0.2448 ( 38)
           0.2409 ( 39)  0.2445 ( 41) -0.2412 ( 42) -0.2496 ( 67) -0.2419 ( 68)
           0.2495 ( 69)  0.2419 ( 70)  0.1781 ( 85)  0.1705 ( 86) -0.1783 ( 87)
          -0.1706 ( 88)
 CRD 13=   0.2070 (  1) -0.2016 (  6) -0.2312 (  8)  0.3260 (  9)  0.2327 ( 11)
          -0.3259 ( 12)  0.1034 ( 20) -0.1653 ( 21)  0.1629 ( 24) -0.1004 ( 26)
           0.1787 ( 29) -0.1589 ( 31) -0.1792 ( 34)  0.1608 ( 36) -0.1100 ( 47)
          -0.1359 ( 49) -0.1861 ( 51)  0.1113 ( 52)  0.1860 ( 55)  0.1356 ( 56)
          -0.1205 ( 59) -0.1286 ( 60)  0.1188 ( 62)  0.1276 ( 63)  0.1467 ( 65)
           0.1796 ( 66) -0.1806 ( 71) -0.1480 ( 72)
 CRD 14=   0.2912 (  1) -0.1419 (  2)  0.2951 (  6) -0.1462 (  7)  0.1874 (  8)
          -0.1640 (  9)  0.1867 ( 11) -0.1605 ( 12)  0.2103 ( 20) -0.2348 ( 21)
          -0.2359 ( 24)  0.2110 ( 26)  0.1725 ( 31)  0.1689 ( 36)  0.1477 ( 48)
           0.1511 ( 50)  0.1491 ( 53)  0.1465 ( 54) -0.1112 ( 59) -0.1148 ( 62)
          -0.1488 ( 65) -0.1610 ( 66) -0.1601 ( 71) -0.1484 ( 72) -0.1477 ( 75)
          -0.1054 ( 89)
 CRD 15=  -0.1725 (  1)  0.3829 (  2)  0.1596 (  6) -0.3778 (  7) -0.2137 (  8)
           0.2166 ( 11)  0.1426 ( 14) -0.1422 ( 16)  0.1637 ( 31) -0.1639 ( 36)
          -0.1217 ( 39)  0.1183 ( 42)  0.1342 ( 48)  0.1796 ( 50) -0.1840 ( 53)
          -0.1378 ( 54)  0.2013 ( 59)  0.1572 ( 60) -0.1977 ( 62) -0.1548 ( 63)
           0.1021 ( 66) -0.1051 ( 67) -0.1115 ( 68)  0.1025 ( 69)  0.1092 ( 70)
          -0.1034 ( 71)
 CRD 16=   0.3540 (  1) -0.1183 (  2)  0.3599 (  6) -0.1301 (  7) -0.1925 (  8)
           0.2953 (  9) -0.1884 ( 11)  0.2972 ( 12) -0.1687 ( 19)  0.1755 ( 22)
           0.1748 ( 27) -0.1672 ( 28)  0.1009 ( 34)  0.1288 ( 47)  0.1132 ( 50)
           0.1267 ( 52)  0.1082 ( 53) -0.1552 ( 61)  0.1040 ( 67)  0.1073 ( 69)
 CRD 17=  -0.2264 (  8)  0.3096 (  9) -0.2270 ( 11)  0.3097 ( 12)  0.1207 ( 20)
           0.1206 ( 26) -0.1479 ( 29)  0.1207 ( 31) -0.1479 ( 34)  0.1207 ( 36)
           0.1236 ( 38) -0.1238 ( 39)  0.1236 ( 41) -0.1238 ( 42) -0.1062 ( 48)
          -0.1115 ( 50) -0.1114 ( 53) -0.1061 ( 54)  0.1066 ( 57)  0.1064 ( 64)
          -0.1527 ( 73) -0.1473 ( 74) -0.1696 ( 75) -0.1852 ( 76) -0.2008 ( 77)
          -0.1662 ( 78) -0.1608 ( 79) -0.1852 ( 80) -0.1529 ( 81) -0.1475 ( 82)
          -0.1663 ( 83) -0.1610 ( 84)  0.1186 ( 89)
 CRD 18=  -0.4413 (  8) -0.3776 (  9) -0.4727 ( 11) -0.4077 ( 12) -0.1781 ( 45)
          -0.1913 ( 46) -0.1019 ( 82)
 CRD 19=  -0.4559 (  8) -0.4360 (  9)  0.4232 ( 11)  0.4083 ( 12) -0.1925 ( 45)
           0.1793 ( 46) -0.1022 ( 70)
 CRD 20=  -0.4677 (  1) -0.4004 (  2)  0.4679 (  6)  0.4006 (  7) -0.1712 ( 43)
           0.1713 ( 44) -0.1529 ( 76)  0.1528 ( 80)
 CRD 21=   0.3427 (  1)  0.4925 (  2)  0.3426 (  6)  0.4923 (  7)  0.1717 ( 43)
           0.1716 ( 44)  0.1344 ( 75) -0.1476 ( 77)  0.1011 ( 79)  0.1011 ( 84)
 CRD 22=   0.1964 (  1) -0.2079 (  2) -0.1987 (  6)  0.2099 (  7) -0.1931 (  8)
           0.1943 (  9)  0.1924 ( 11) -0.1934 ( 12)  0.1076 ( 21) -0.1081 ( 24)
           0.1267 ( 48)  0.1415 ( 50) -0.1412 ( 53) -0.1266 ( 54) -0.1436 ( 65)
          -0.1530 ( 66)  0.1532 ( 71)  0.1437 ( 72) -0.2261 ( 73) -0.2116 ( 74)
          -0.2167 ( 78) -0.2022 ( 79)  0.2264 ( 81)  0.2117 ( 82)  0.2170 ( 83)
           0.2022 ( 84)
 CRD 23=   0.2347 (  1) -0.2232 (  2)  0.2325 (  6) -0.2207 (  7)  0.1049 ( 19)
           0.1046 ( 28) -0.1090 ( 51) -0.1099 ( 55) -0.1002 ( 56)  0.1824 ( 57)
           0.1721 ( 58)  0.1514 ( 59)  0.1304 ( 60)  0.1513 ( 62)  0.1303 ( 63)
           0.1824 ( 64) -0.1605 ( 67) -0.1757 ( 68) -0.1594 ( 69) -0.1749 ( 70)
           0.2289 ( 75)  0.2079 ( 76)  0.1869 ( 77)  0.2079 ( 80) -0.1690 ( 85)
          -0.1845 ( 86) -0.1702 ( 87) -0.1854 ( 88)  0.1926 ( 89)
 CRD 24=   0.1323 (  1) -0.1447 (  2)  0.1327 (  6) -0.1450 (  7) -0.1117 ( 48)
           0.1160 ( 49) -0.1527 ( 50)  0.1561 ( 51) -0.1525 ( 53) -0.1110 ( 54)
           0.1564 ( 55)  0.1161 ( 56) -0.1717 ( 57) -0.1299 ( 58)  0.1333 ( 59)
           0.1333 ( 62) -0.1716 ( 64) -0.1298 ( 66)  0.1395 ( 67)  0.1557 ( 68)
           0.1388 ( 69)  0.1557 ( 70) -0.1302 ( 71) -0.1912 ( 73) -0.1497 ( 74)
           0.1788 ( 75)  0.1273 ( 76) -0.1563 ( 78) -0.1147 ( 79)  0.1273 ( 80)
          -0.1915 ( 81) -0.1506 ( 82) -0.1567 ( 83) -0.1157 ( 84)  0.1789 ( 85)
           0.1958 ( 86)  0.1797 ( 87)  0.1959 ( 88) -0.2134 ( 89)
 CRD 25=  -0.1087 (  8) -0.2483 ( 10)  0.1079 ( 11)  0.2486 ( 13) -0.4124 ( 14)
           0.4119 ( 16)  0.3406 ( 30) -0.3408 ( 33)  0.2565 ( 37) -0.2564 ( 40)
           0.1164 ( 45) -0.1168 ( 46)
 CRD 26=  -0.2261 ( 10) -0.2257 ( 13)  0.5589 ( 14)  0.1174 ( 15)  0.5596 ( 16)
           0.1211 ( 30)  0.1208 ( 33) -0.1433 ( 37) -0.1433 ( 40) -0.1048 ( 77)
 CRD 27=  -0.2388 (  1)  0.1458 (  2)  0.2390 (  6) -0.1465 (  7) -0.2424 (  8)
           0.3168 (  9)  0.2434 ( 11) -0.3169 ( 12) -0.1160 ( 50)  0.2413 ( 51)
           0.1160 ( 53) -0.2412 ( 55)  0.2265 ( 57) -0.2265 ( 64)  0.1034 ( 78)
          -0.1031 ( 83)  0.1821 ( 85)  0.1237 ( 86) -0.1813 ( 87) -0.1240 ( 88)
 CRD 28=   0.2049 (  4) -0.2052 (  5) -0.2851 ( 14)  0.2846 ( 16) -0.1720 ( 19)
          -0.1638 ( 22)  0.1636 ( 27)  0.1720 ( 28) -0.1347 ( 30) -0.1654 ( 32)
           0.1349 ( 33)  0.1653 ( 35) -0.3006 ( 37)  0.1583 ( 38)  0.1665 ( 39)
           0.3005 ( 40) -0.1583 ( 41) -0.1665 ( 42) -0.1069 ( 50)  0.1071 ( 53)
          -0.1033 ( 74) -0.1226 ( 79)  0.1032 ( 82)  0.1227 ( 84) -0.1312 ( 85)
           0.1305 ( 87)
 CRD 29=   0.1241 (  2)  0.2273 (  3)  0.1239 (  7) -0.1959 (  8) -0.2398 ( 10)
          -0.1955 ( 11) -0.2400 ( 13)  0.4513 ( 15) -0.1178 ( 22) -0.1182 ( 27)
           0.1375 ( 29)  0.1203 ( 30)  0.1202 ( 33)  0.1378 ( 34) -0.1293 ( 37)
          -0.1297 ( 40)  0.1447 ( 45)  0.1454 ( 46)  0.1281 ( 60)  0.1280 ( 63)
          -0.1492 ( 67) -0.1490 ( 69) -0.1113 ( 75)  0.2616 ( 77) -0.1361 ( 85)
          -0.1363 ( 87)
 CRD 30=   0.1630 (  2)  0.1608 (  4) -0.1607 (  5) -0.1632 (  7)  0.1200 (  8)
          -0.1191 ( 11) -0.2091 ( 20) -0.1903 ( 21)  0.1903 ( 24)  0.2092 ( 26)
          -0.1243 ( 29) -0.2154 ( 31)  0.1243 ( 34)  0.2154 ( 36) -0.1343 ( 45)
           0.1344 ( 46) -0.1384 ( 59)  0.1384 ( 62) -0.1932 ( 65) -0.1023 ( 67)
           0.1027 ( 69)  0.1934 ( 72)  0.1049 ( 73)  0.1500 ( 76) -0.1775 ( 78)
          -0.2644 ( 79) -0.1502 ( 80) -0.1051 ( 81)  0.1771 ( 83)  0.2641 ( 84)
 CRD 31=   0.1405 (  2)  0.1538 (  3)  0.1404 (  7)  0.2706 ( 14) -0.5101 ( 15)
           0.2708 ( 16)  0.1284 ( 29) -0.2072 ( 30)  0.1006 ( 32) -0.2070 ( 33)
           0.1284 ( 34)  0.1009 ( 35)  0.1059 ( 37)  0.1466 ( 39)  0.1064 ( 40)
           0.1464 ( 42)  0.1274 ( 60)  0.1274 ( 63) -0.1025 ( 74)  0.2550 ( 77)
          -0.1021 ( 82)
 CRD 32=  -0.2484 (  3)  0.2445 (  4)  0.2438 (  5)  0.1659 (  8) -0.2057 (  9)
          -0.2321 ( 10)  0.1667 ( 11) -0.2056 ( 12) -0.2300 ( 13) -0.1709 ( 19)
          -0.1696 ( 28)  0.1925 ( 38)  0.1923 ( 41) -0.1522 ( 48) -0.1518 ( 54)
           0.1174 ( 57)  0.1188 ( 64)  0.1163 ( 66)  0.1914 ( 68)  0.1922 ( 70)
           0.1183 ( 71) -0.1740 ( 79) -0.1738 ( 84)  0.1149 ( 86)  0.1153 ( 88)
           0.1983 ( 89)
 CRD 33=   0.1506 (  1) -0.1224 (  2) -0.1496 (  6)  0.1225 (  7)  0.3013 ( 10)
          -0.3039 ( 13) -0.2432 ( 14)  0.2435 ( 16)  0.1030 ( 19) -0.1092 ( 21)
           0.1103 ( 24) -0.1046 ( 28) -0.2457 ( 32)  0.2461 ( 35) -0.2354 ( 37)
          -0.1485 ( 39)  0.2351 ( 40)  0.1495 ( 42)  0.1038 ( 51) -0.1041 ( 55)
           0.1040 ( 57)  0.1088 ( 60) -0.1090 ( 63) -0.1034 ( 64)  0.1263 ( 66)
          -0.1248 ( 71)  0.1443 ( 74) -0.1445 ( 82)  0.1500 ( 85) -0.1504 ( 87)
 CRD 34=   0.2194 (  1) -0.2163 (  6) -0.1646 ( 10)  0.1709 ( 13)  0.1136 ( 14)
          -0.1141 ( 16) -0.1106 ( 22)  0.1128 ( 27)  0.1299 ( 32) -0.1293 ( 35)
           0.1121 ( 37)  0.1338 ( 38) -0.1110 ( 40) -0.1341 ( 41) -0.1546 ( 43)
           0.1543 ( 44)  0.1940 ( 51) -0.1974 ( 55)  0.2143 ( 57)  0.1531 ( 59)
          -0.1575 ( 62) -0.2109 ( 64)  0.1876 ( 66) -0.1871 ( 71)  0.1787 ( 73)
           0.1308 ( 74) -0.1196 ( 76)  0.1163 ( 80) -0.1849 ( 81) -0.1306 ( 82)
           0.1134 ( 85)  0.2435 ( 86) -0.1152 ( 87) -0.2405 ( 88)
 CRD 35=  -0.1192 (  2)  0.2738 (  3) -0.1196 (  7) -0.2248 (  9)  0.2079 ( 10)
          -0.2264 ( 12)  0.2014 ( 13) -0.1232 ( 15) -0.1817 ( 20) -0.1830 ( 26)
           0.1724 ( 45)  0.1728 ( 46) -0.2156 ( 50) -0.2163 ( 53) -0.1113 ( 59)
          -0.1066 ( 62)  0.1343 ( 65)  0.1557 ( 68)  0.1543 ( 70)  0.1342 ( 72)
          -0.1868 ( 73) -0.1991 ( 75) -0.1109 ( 76)  0.1544 ( 79) -0.1145 ( 80)
          -0.1809 ( 81)  0.1517 ( 84)  0.1552 ( 89)
 CRD 36=  -0.1718 (  2)  0.2958 (  4)  0.2956 (  5) -0.1718 (  7) -0.1889 (  8)
          -0.1888 ( 11) -0.1363 ( 15) -0.1465 ( 22) -0.1458 ( 27) -0.1230 ( 29)
          -0.1165 ( 30) -0.1163 ( 33) -0.1225 ( 34)  0.1327 ( 39)  0.1318 ( 42)
           0.1743 ( 43)  0.1752 ( 44)  0.1093 ( 45)  0.1098 ( 46)  0.1219 ( 59)
           0.1210 ( 62) -0.1792 ( 67) -0.1798 ( 69)  0.1650 ( 75) -0.2464 ( 77)
           0.1395 ( 78)  0.1545 ( 79)  0.1391 ( 83)  0.1553 ( 84) -0.1346 ( 85)
          -0.1352 ( 87)
 CRD 37=  -0.2625 (  4)  0.2624 (  5)  0.1911 (  8)  0.1221 (  9) -0.1300 ( 10)
          -0.1905 ( 11) -0.1229 ( 12)  0.1300 ( 13)  0.1459 ( 17)  0.1029 ( 21)
          -0.1028 ( 24) -0.1462 ( 25)  0.1063 ( 30)  0.1387 ( 31) -0.1062 ( 33)
          -0.1388 ( 36) -0.2280 ( 45)  0.2282 ( 46)  0.1156 ( 48) -0.1358 ( 50)
           0.1354 ( 53) -0.1156 ( 54)  0.1102 ( 59) -0.1102 ( 62) -0.1470 ( 67)
           0.1158 ( 68)  0.1472 ( 69) -0.1155 ( 70)  0.1046 ( 73) -0.1464 ( 74)
          -0.1737 ( 76)  0.1369 ( 78) -0.1141 ( 79)  0.1739 ( 80) -0.1050 ( 81)
           0.1464 ( 82) -0.1376 ( 83)  0.1138 ( 84)  0.1483 ( 85) -0.1144 ( 86)
          -0.1480 ( 87)  0.1148 ( 88)
 CRD 38=   0.1239 (  2) -0.3404 (  3)  0.1242 (  7) -0.1438 (  8)  0.1511 ( 10)
          -0.1438 ( 11)  0.1514 ( 13) -0.1474 ( 17)  0.1109 ( 18)  0.1001 ( 19)
           0.1103 ( 23) -0.1476 ( 25)  0.1004 ( 28) -0.1100 ( 31) -0.1098 ( 36)
          -0.1464 ( 43) -0.1470 ( 44)  0.1428 ( 45)  0.1429 ( 46)  0.1520 ( 48)
           0.1516 ( 54) -0.1811 ( 65) -0.1159 ( 67) -0.1162 ( 69) -0.1813 ( 72)
           0.2602 ( 74) -0.2342 ( 78)  0.2609 ( 82) -0.2347 ( 83)
 CRD 39=   0.1598 (  2) -0.1453 (  4)  0.1449 (  5) -0.1595 (  7) -0.1343 (  8)
           0.1340 ( 11) -0.1855 ( 18)  0.1292 ( 19)  0.1861 ( 23) -0.1285 ( 28)
          -0.1174 ( 38)  0.1172 ( 41) -0.1800 ( 43)  0.1793 ( 44) -0.1744 ( 48)
           0.1316 ( 49)  0.1744 ( 54) -0.1314 ( 56) -0.1226 ( 57) -0.1678 ( 60)
           0.1682 ( 63)  0.1224 ( 64) -0.2155 ( 65)  0.2148 ( 72)  0.2053 ( 74)
          -0.2373 ( 76) -0.1302 ( 78)  0.2371 ( 80) -0.2045 ( 82)  0.1301 ( 83)
          -0.1324 ( 85) -0.1268 ( 86)  0.1326 ( 87)  0.1267 ( 88)
 CRD 40=   0.1470 (  2) -0.1468 (  7) -0.1758 (  9)  0.1753 ( 12)  0.1111 ( 21)
           0.1312 ( 22) -0.1117 ( 24) -0.1309 ( 27)  0.1518 ( 29) -0.1513 ( 34)
          -0.1208 ( 39)  0.1207 ( 42) -0.2007 ( 47) -0.1698 ( 49)  0.2013 ( 52)
           0.1698 ( 56)  0.1527 ( 57) -0.1119 ( 59) -0.2357 ( 60)  0.1122 ( 62)
           0.2352 ( 63) -0.1527 ( 64) -0.1863 ( 73) -0.1230 ( 76) -0.1958 ( 78)
           0.1238 ( 80)  0.1849 ( 81)  0.1953 ( 83)  0.1377 ( 85)  0.1834 ( 86)
          -0.1379 ( 87) -0.1828 ( 88)
 CRD 41=   0.2081 (  1) -0.1009 (  2)  0.2086 (  6) -0.1013 (  7) -0.1613 ( 20)
          -0.1613 ( 26)  0.1284 ( 31)  0.1286 ( 36) -0.1628 ( 47) -0.1743 ( 48)
           0.1418 ( 51) -0.1616 ( 52) -0.1747 ( 54)  0.1421 ( 55)  0.1389 ( 58)
           0.1144 ( 60)  0.2644 ( 61)  0.1152 ( 63)  0.1017 ( 66) -0.1275 ( 68)
          -0.1272 ( 70)  0.1013 ( 71)  0.1786 ( 73) -0.3002 ( 75) -0.1676 ( 76)
           0.1160 ( 78) -0.1675 ( 80)  0.1793 ( 81)  0.1163 ( 83) -0.2303 ( 89)
 CRD 42=  -0.1685 ( 47)  0.3017 ( 49) -0.1679 ( 52)  0.3023 ( 56) -0.3812 ( 58)
           0.1185 ( 61) -0.1159 ( 65)  0.1840 ( 67)  0.1505 ( 68)  0.1842 ( 69)
           0.1502 ( 70) -0.1163 ( 72) -0.1754 ( 85) -0.2094 ( 86) -0.1758 ( 87)
          -0.2093 ( 88)  0.3702 ( 89)

 THE DETERMINANT OF THE G MATRIX IS 10**(   -10)


                     --------------------
                     INTERNAL COORDINATES
                     --------------------

                 - - ATOMS - -         COORDINATE      COORDINATE
 NO.   TYPE    I  J  K  L  M  N        (BOHR,RAD)       (ANG,DEG)
 ----------------------------------------------------------------
   1 STRETCH   1  8                     2.0936108       1.1078912
   2 STRETCH   1  7                     2.0914559       1.1067509
   3 STRETCH   1  2                     2.8707084       1.5191136
   4 STRETCH   1  3                     2.8749908       1.5213797
   5 STRETCH   2  4                     2.8748750       1.5213184
   6 STRETCH   2 10                     2.0936829       1.1079294
   7 STRETCH   2  9                     2.0913416       1.1066904
   8 STRETCH   3 12                     2.0929616       1.1075477
   9 STRETCH   3 11                     2.0956593       1.1089752
  10 STRETCH   3  5                     2.8098931       1.4869315
  11 STRETCH   4 14                     2.0933265       1.1077408
  12 STRETCH   4 13                     2.0955046       1.1088933
  13 STRETCH   4  6                     2.8099573       1.4869655
  14 STRETCH   5 15                     2.0705839       1.0957059
  15 STRETCH   5  6                     2.5208329       1.3339674
  16 STRETCH   6 16                     2.0710516       1.0959534
  17 BEND      1  3  5                  1.9652467     112.6003409
  18 BEND      1  2  4                  1.9351577     110.8763697
  19 BEND      1  3 12                  1.9195409     109.9815923
  20 BEND      1  2 10                  1.9146469     109.7011841
  21 BEND      1  2  9                  1.9251976     110.3056967
  22 BEND      1  3 11                  1.9269829     110.4079851
  23 BEND      2  1  3                  1.9347098     110.8507081
  24 BEND      2  1  7                  1.9252136     110.3066113
  25 BEND      2  4  6                  1.9662620     112.6585160
  26 BEND      2  1  8                  1.9150227     109.7227170
  27 BEND      2  4 13                  1.9269219     110.4044899
  28 BEND      2  4 14                  1.9192584     109.9654076
  29 BEND      3  1  8                  1.9206180     110.0433027
  30 BEND      3  5 15                  2.0264150     116.1050244
  31 BEND      3  1  7                  1.9199200     110.0033112
  32 BEND      3  5  6                  2.1499176     123.1812032
  33 BEND      4  6 16                  2.0260611     116.0847487
  34 BEND      4  2 10                  1.9206739     110.0465077
  35 BEND      4  6  5                  2.1503397     123.2053870
  36 BEND      4  2  9                  1.9198059     109.9967751
  37 BEND      5  6 16                  2.1066927     120.7045976
  38 BEND      5  3 11                  1.8874002     108.1400681
  39 BEND      5  3 12                  1.9131436     109.6150556
  40 BEND      6  5 15                  2.1067647     120.7087242
  41 BEND      6  4 13                  1.8870154     108.1180156
  42 BEND      6  4 14                  1.9127611     109.5931389
  43 BEND      7  1  8                  1.8464466     105.7935962
  44 BEND      9  2 10                  1.8464220     105.7921854
  45 BEND     11  3 12                  1.8475811     105.8586000
  46 BEND     13  4 14                  1.8476108     105.8603020
  47 TORSION   1  2  4  6               0.7714767      44.2023596
  48 TORSION   1  2  4 13              -1.3401326     -76.7839417
  49 TORSION   1  3  5  6              -0.2758655     -15.8059312
  50 TORSION   1  2  4 14               2.9106672     166.7689476
  51 TORSION   1  3  5 15               2.8799253     165.0075629
  52 TORSION   2  1  3  5               0.7770866      44.5237831
  53 TORSION   2  1  3 12               2.9162671     167.0897965
  54 TORSION   2  1  3 11              -1.3343644     -76.4534512
  55 TORSION   2  4  6 16               2.8860961     165.3611262
  56 TORSION   2  4  6  5              -0.2699996     -15.4698394
  57 TORSION   3  5  6 16              -3.1401455    -179.9170863
  58 TORSION   3  5  6  4               0.0165968       0.9509294
  59 TORSION   3  1  2  9               3.1109683     178.2453533
  60 TORSION   3  1  2 10               1.0837697      62.0954318
  61 TORSION   3  1  2  4              -1.0412038     -59.6565807
  62 TORSION   4  2  1  7               3.1111157     178.2537993
  63 TORSION   4  2  1  8               1.0836569      62.0889675
  64 TORSION   4  6  5 15              -3.1398251    -179.8987248
  65 TORSION   5  3  1  8              -1.3444914     -77.0336813
  66 TORSION   5  3  1  7               2.9110404     166.7903299
  67 TORSION   5  6  4 13               1.8642478     106.8135287
  68 TORSION   5  6  4 14              -2.4128337    -138.2451889
  69 TORSION   6  5  3 11               1.8580678     106.4594430
  70 TORSION   6  5  3 12              -2.4186375    -138.5777227
  71 TORSION   6  4  2  9               2.9056333     166.4805254
  72 TORSION   6  4  2 10              -1.3499625     -77.3471511
  73 TORSION   7  1  3 12              -1.2329644     -70.6436567
  74 TORSION   7  1  3 11               0.7995894      45.8130956
  75 TORSION   7  1  2  9               0.9801024      56.1557333
  76 TORSION   7  1  2 10              -1.0470961     -59.9941882
  77 TORSION   8  1  2 10              -3.0745549    -176.1590200
  78 TORSION   8  1  3 12               0.7946891      45.5323320
  79 TORSION   8  1  3 11               2.8272429     161.9890844
  80 TORSION   8  1  2  9              -1.0473564     -60.0090986
  81 TORSION   9  2  4 14              -1.2383615     -70.9528866
  82 TORSION   9  2  4 13               0.7940240      45.4942242
  83 TORSION  10  2  4 14               0.7892281      45.2194369
  84 TORSION  10  2  4 13               2.8216135     161.6665477
  85 TORSION  11  3  5 15              -1.2693267     -72.7270628
  86 TORSION  12  3  5 15               0.7371533      42.2357714
  87 TORSION  13  4  6 16              -1.2628418     -72.3555057
  88 TORSION  14  4  6 16               0.7432620      42.5857767
  89 TORSION  15  5  6 16              -0.0133821      -0.7667405

     ------------------------------------------
     THE POINT GROUP IS C1 , NAXIS= 1, ORDER= 1
     ------------------------------------------

     DIMENSIONS OF THE SYMMETRY SUBSPACES ARE
 A   =  174

 ..... DONE SETTING UP THE RUN .....
 STEP CPU TIME =     0.01 TOTAL CPU TIME =        0.0 (    0.0 MIN)
 TOTAL WALL CLOCK TIME=        0.0 SECONDS, CPU UTILIZATION IS  50.00%


          -----------------------------
          STATIONARY POINT LOCATION RUN
          -----------------------------

 OBTAINING INITIAL HESSIAN, HESS=GUESS   
 DIAGONAL GUESS HESSIAN IN INTERNAL COORDS IS
     1  0.3345     2  0.3353     3  0.3750     4  0.3734     5  0.3734
     6  0.3345     7  0.3353     8  0.3348     9  0.3338    10  0.3992
    11  0.3346    12  0.3339    13  0.3992    14  0.3425    15  0.5375
    16  0.3424    17  0.2522    18  0.2499    19  0.2235    20  0.2237
    21  0.2237    22  0.2235    23  0.2499    24  0.2237    25  0.2522
    26  0.2237    27  0.2235    28  0.2235    29  0.2235    30  0.2263
    31  0.2236    32  0.2662    33  0.2263    34  0.2235    35  0.2662
    36  0.2236    37  0.2359    38  0.2255    39  0.2256    40  0.2359
    41  0.2255    42  0.2256    43  0.2017    44  0.2017    45  0.2016
    46  0.2016    47  0.2500    48  0.2500    49  0.2500    50  0.2500
    51  0.2500    52  0.2500    53  0.2500    54  0.2500    55  0.2500
    56  0.2500    57  0.2500    58  0.2500    59  0.2500    60  0.2500
    61  0.2500    62  0.2500    63  0.2500    64  0.2500    65  0.2500
    66  0.2500    67  0.2500    68  0.2500    69  0.2500    70  0.2500
    71  0.2500    72  0.2500    73  0.2500    74  0.2500    75  0.2500
    76  0.2500    77  0.2500    78  0.2500    79  0.2500    80  0.2500
    81  0.2500    82  0.2500    83  0.2500    84  0.2500    85  0.2500
    86  0.2500    87  0.2500    88  0.2500    89  0.2500
 TRANSFORMING HESSIAN TO SYMMETRY COORDINATES

          PARAMETERS CONTROLLING GEOMETRY SEARCH ARE
          METHOD =QA                  UPHESS =BFGS    
          NNEG   =         0          NFRZ   =         3
          NSTEP  =        50          IFOLOW =         1
          HESS   =GUESS               RESTAR =         F
          IHREP  =         0          HSSEND =         F
          NPRT   =         0          NPUN   =         0
          OPTTOL = 5.000E-04          RMIN   = 1.500E-03
          RMAX   = 1.000E-01          RLIM   = 7.000E-02
          DXMAX  = 3.000E-01          PURIFY =         F
          MOVIE  =         F          TRUPD  =         T
          TRMAX  = 5.000E-01          TRMIN  = 5.000E-02
          ITBMAT =         5          STPT   =         F
          STSTEP = 1.000E-02          PROJCT=          F
          FROZEN COORD(S)=   1   2   3


      ***** EQUILIBRIUM GEOMETRY LOCATED *****
            (SUBJECT TO   3 CONSTRAINT(S))
 COORDINATES OF ALL ATOMS ARE (ANGS)
   ATOM   CHARGE       X              Y              Z
 ------------------------------------------------------------
 C           6.0   0.7247284961   2.1656444098   3.0076479223
 C           6.0   1.9617775949   2.0148691099   3.8941936447
 C           6.0   1.1034610301   2.7110957441   1.6280827359
 C           6.0   2.9644915814   1.0380063157   3.2741435727
 C           6.0   2.3285113148   2.0266229837   1.0698411261
 C           6.0   3.1432929999   1.2786043323   1.7941268360
 H           1.0  -0.0038346603   2.8200622169   3.4781764970
 H           1.0   0.2493534251   1.1929265195   2.8910548046
 H           1.0   1.6800766028   1.6761922415   4.8873407348
 H           1.0   2.4351850020   2.9882611453   4.0128830313
 H           1.0   1.2872863731   3.7840348770   1.6851385929
 H           1.0   0.2744962240   2.5871299793   0.9350414209
 H           1.0   2.6366947041   0.0106207758   3.4328633699
 H           1.0   3.9279898182   1.1237082426   3.7713218169
 H           1.0   2.5326257992   2.1677698461   0.0195499996
 H           1.0   3.9893527669   0.8050486272   1.3202197985


                     --------------------
                     INTERNAL COORDINATES
                     --------------------

                 - - ATOMS - -         COORDINATE      COORDINATE
 NO.   TYPE    I  J  K  L  M  N        (BOHR,RAD)       (ANG,DEG)
 ----------------------------------------------------------------
   1 STRETCH   1  8                     2.0577680       1.0889240
   2 STRETCH   1  7                     2.0531715       1.0864916
   3 STRETCH   1  2                     2.8900991       1.5293747
   4 STRETCH   1  3                     2.8932906       1.5310635
   5 STRETCH   2  4                     2.8932923       1.5310644
   6 STRETCH   2 10                     2.0577145       1.0888957
   7 STRETCH   2  9                     2.0531146       1.0864615
   8 STRETCH   3 12                     2.0552509       1.0875920
   9 STRETCH   3 11                     2.0599275       1.0900667
  10 STRETCH   3  5                     2.8539773       1.5102599
  11 STRETCH   4 14                     2.0552539       1.0875936
  12 STRETCH   4 13                     2.0598566       1.0900293
  13 STRETCH   4  6                     2.8536157       1.5100685
  14 STRETCH   5 15                     2.0394133       1.0792111
  15 STRETCH   5  6                     2.4984371       1.3221161
  16 STRETCH   6 16                     2.0393812       1.0791942
  17 BEND      1  3  5                  1.9522263     111.8543251
  18 BEND      1  2  4                  1.9367878     110.9697672
  19 BEND      1  3 12                  1.9230594     110.1831859
  20 BEND      1  2 10                  1.9036222     109.0695163
  21 BEND      1  2  9                  1.9293275     110.5423231
  22 BEND      1  3 11                  1.9232603     110.1946981
  23 BEND      2  1  3                  1.9362333     110.9379972
  24 BEND      2  1  7                  1.9291480     110.5320397
  25 BEND      2  4  6                  1.9528312     111.8889858
  26 BEND      2  1  8                  1.9040435     109.0936577
  27 BEND      2  4 13                  1.9235087     110.2089283
  28 BEND      2  4 14                  1.9228003     110.1683437
  29 BEND      3  1  8                  1.9068347     109.2535788
  30 BEND      3  5 15                  2.0418984     116.9921615
  31 BEND      3  1  7                  1.9193223     109.9690684
  32 BEND      3  5  6                  2.1577334     123.6290162
  33 BEND      4  6 16                  2.0412652     116.9558789
  34 BEND      4  2 10                  1.9068494     109.2544201
  35 BEND      4  6  5                  2.1580717     123.6483977
  36 BEND      4  2  9                  1.9188994     109.9448350
  37 BEND      5  6 16                  2.0838484     119.3957205
  38 BEND      5  3 11                  1.9056714     109.1869309
  39 BEND      5  3 12                  1.9082272     109.3333627
  40 BEND      6  5 15                  2.0835534     119.3788156
  41 BEND      6  4 13                  1.9055038     109.1773229
  42 BEND      6  4 14                  1.9077225     109.3044454
  43 BEND      7  1  8                  1.8667746     106.9583057
  44 BEND      9  2 10                  1.8668486     106.9625433
  45 BEND     11  3 12                  1.8484289     105.9071734
  46 BEND     13  4 14                  1.8484681     105.9094235
  47 TORSION   1  2  4  6               0.7708944      44.1689972
  48 TORSION   1  2  4 13              -1.3527729     -77.5081805
  49 TORSION   1  3  5  6              -0.2494178     -14.2905900
  50 TORSION   1  2  4 14               2.8968944     165.9798241
  51 TORSION   1  3  5 15               2.8916488     165.6792743
  52 TORSION   2  1  3  5               0.7745833      44.3803539
  53 TORSION   2  1  3 12               2.9009959     166.2148238
  54 TORSION   2  1  3 11              -1.3487129     -77.2755576
  55 TORSION   2  4  6 16               2.8958488     165.9199162
  56 TORSION   2  4  6  5              -0.2453992     -14.0603400
  57 TORSION   3  5  6 16               3.1205981     178.7971017
  58 TORSION   3  5  6  4              -0.0213471      -1.2230977
  59 TORSION   3  1  2  9               3.0908882     177.0948468
  60 TORSION   3  1  2 10               1.0430142      59.7603129
  61 TORSION   3  1  2  4              -1.0584914     -60.6470920
  62 TORSION   4  2  1  7               3.0908540     177.0928874
  63 TORSION   4  2  1  8               1.0429216      59.7550073
  64 TORSION   4  6  5 15               3.1207834     178.8077184
  65 TORSION   5  3  1  8              -1.3251725     -75.9267919
  66 TORSION   5  3  1  7               2.9141301     166.9673581
  67 TORSION   5  6  4 13               1.8885921     108.2083591
  68 TORSION   5  6  4 14              -2.3800367    -136.3660596
  69 TORSION   6  5  3 11               1.8839734     107.9437254
  70 TORSION   6  5  3 12              -2.3843310    -136.6121016
  71 TORSION   6  4  2  9               2.9107529     166.7738538
  72 TORSION   6  4  2 10              -1.3286962     -76.1286835
  73 TORSION   7  1  3 12              -1.2426425     -71.1981720
  74 TORSION   7  1  3 11               0.7908339      45.3114466
  75 TORSION   7  1  2  9               0.9570483      54.8348261
  76 TORSION   7  1  2 10              -1.0908257     -62.4997077
  77 TORSION   8  1  2 10              -3.1387580    -179.8375877
  78 TORSION   8  1  3 12               0.8012401      45.9076781
  79 TORSION   8  1  3 11               2.8347166     162.4172966
  80 TORSION   8  1  2  9              -1.0908841     -62.5030539
  81 TORSION   9  2  4 14              -1.2464325     -71.4153192
  82 TORSION   9  2  4 13               0.7870855      45.0966761
  83 TORSION  10  2  4 14               0.7973038      45.6821435
  84 TORSION  10  2  4 13               2.8308218     162.1941388
  85 TORSION  11  3  5 15              -1.2581452     -72.0864104
  86 TORSION  12  3  5 15               0.7567357      43.3577627
  87 TORSION  13  4  6 16              -1.2533451     -71.8113846
  88 TORSION  14  4  6 16               0.7612113      43.6141966
  89 TORSION  15  5  6 16              -0.0204567      -1.1720822

          INTERNUCLEAR DISTANCES (ANGS.)


 =====================================================
   GAMESS/COSab RESULTS
 =====================================================

   Dielectric Constant                  = INFTY
   Basic Grid Size                      =                 1082
   Number of Segments                   =                   92
   Number of Segments located on spheres=                  216
   Number of Segments of the cavity     =                  564
   Solvent Radius (rsolv)               = 1.40
   Outlying Charge Error Method         = double cavity

 =====================================================

  Total solvated Energy (a.u.)          =  -233.0774684457
  Total Energy corrected (a.u.)         =  -233.0774234259

  Outlying charge effect (a.u.)         =     0.0000450199
  Outlying charge effect (kcal/mol)     =     0.0282504318

  Dielectric Energy (a.u.)              =    -0.0026970998
  Dielectric energy corr. (a.u.)        =    -0.0026520799

  Sum of polarization charges           =     0.0260639295
  Sum of polarization charges(cor.)     =    -0.0260639295

  Total surface area of cavity (A**2)   =  128.66
  Total volume of cavity (A**3)         =  120.67

 =====================================================
 NPS=                   564
NR.  ATOM  (X, Y, Z)(a.u.)                  CHARGE(e)  AREA(A**2) SIGMA(e/A**2)
   1   1  -2.131397   3.974822   4.264527   0.000466   0.185824   0.002506
   2   1  -1.513385   2.584531   7.606925   0.001468   0.325193   0.004515
   3   1  -1.836438   3.481014   7.589417   0.001219   0.278737   0.004372
   4   1  -2.356882   4.414993   5.141424   0.001095   0.325193   0.003367
   5   1   1.513345   7.599777   7.084466   0.000288   0.185824   0.001551
   6   1  -2.079396   5.138153   4.545372   0.000584   0.232280   0.002513
   7   1  -2.290691   3.293389   5.185221   0.001136   0.278737   0.004076
   8   1  -2.125634   2.994595   6.612416   0.001741   0.325193   0.005354
   9   1  -0.971344   3.063567   8.466760   0.001217   0.371649   0.003275
  10   1  -0.371681   3.301269   8.943437   0.000289   0.139368   0.002072
  11   1  -1.928007   2.993629   4.199382   0.000815   0.278737   0.002924
  12   1  -0.518858   1.935673   8.146634   0.000994   0.325193   0.003057
  13   1  -0.566947   4.063237   8.929142   0.000390   0.185824   0.002096
  14   1  -2.379387   3.733234   6.000991   0.001303   0.278737   0.004676
  15   1   1.261071   7.769465   6.550907   0.000064   0.046456   0.001368
  16   2   6.326625   4.201942  10.054774   0.000464   0.185824   0.002496
  17   2   3.336539   6.332045  10.147096   0.001469   0.325193   0.004517
  18   2   3.298313   5.548598  10.688484   0.001220   0.278737   0.004377
  19   2   5.530091   4.080907  10.658452   0.001095   0.325193   0.003366
  20   2   1.698885   0.882590   8.661066   0.000289   0.185824   0.001554
  21   2   5.825503   3.178925  10.425221   0.000581   0.232280   0.002500
  22   2   5.684527   5.133459  10.294337   0.001136   0.278737   0.004077
  23   2   4.387199   5.785505  10.506898   0.001742   0.325193   0.005357
  24   2   2.260714   6.019414  10.060710   0.001218   0.371649   0.003277
  25   2   1.557801   5.813688   9.733741   0.000289   0.139368   0.002071
  26   2   6.501089   5.064969   9.571972   0.000812   0.278737   0.002914
  27   2   2.601775   6.899268   9.230708   0.000994   0.325193   0.003055
  28   2   1.495104   5.132433  10.122185   0.000390   0.185824   0.002100
  29   2   4.892293   4.968652  10.754788   0.001304   0.278737   0.004677
  30   2   2.243878   0.621690   8.770772   0.000063   0.046456   0.001353
  31   3   2.168120   7.076558  -0.157845   0.000273   0.232280   0.001176
  32   3  -0.712774   7.477173   2.120432   0.001376   0.371649   0.003703
  33   3   0.508434   1.977257   1.697909   0.000161   0.092912   0.001734
  34   3   0.405253   2.259026   1.271553   0.000045   0.046456   0.000958
  35   3   0.058249   8.169353   2.129711   0.001087   0.278737   0.003901
  36   3   2.547935   7.776476   0.425145   0.000729   0.371649   0.001963
  37   3   1.237899   7.340522   0.135571   0.001278   0.371649   0.003439
  38   3   0.116856   7.682900   1.112509   0.001489   0.325193   0.004578
  39   3  -0.782551   7.583145   3.170670   0.000933   0.371649   0.002511
  40   3   1.535528   6.479550  -0.407967   0.000538   0.278737   0.001931
  41   3  -1.420297   6.525840   2.908774   0.000375   0.185824   0.002019
  42   3  -0.028677   2.201075   1.946718   0.000061   0.046456   0.001313
  43   3  -0.212121   8.056143   3.712548   0.000684   0.278737   0.002452
  44   3   1.014082   7.904194   0.752183   0.001130   0.278737   0.004056
  45   3  -1.288352   6.775663   3.492104   0.000329   0.185824   0.001772
  46   4   8.125993  -0.800929   5.655485   0.000273   0.232280   0.001174
  47   4   7.065527   0.039086   9.093561   0.001378   0.371649   0.003708
  48   4   8.051127   4.838634   6.280756   0.000160   0.092912   0.001725
  49   4   8.421992   4.474399   6.320904   0.000044   0.046456   0.000946
  50   4   6.633963  -0.761283   8.596733   0.001088   0.278737   0.003902
  51   4   7.319815  -1.368840   5.695196   0.000724   0.371649   0.001947
  52   4   8.158467  -0.780820   6.665248   0.001278   0.371649   0.003437
  53   4   7.627885  -0.603456   8.084893   0.001490   0.325193   0.004581
  54   4   6.119271   0.249888   9.516955   0.000933   0.371649   0.002511
  55   4   8.705518  -0.185384   5.978605   0.000540   0.278737   0.001939
  56   4   6.800223   1.295127   9.709255   0.000375   0.185824   0.002018
  57   4   7.984134   4.805636   6.909176   0.000060   0.046456   0.001288
  58   4   5.322554  -0.154575   9.306242   0.000682   0.278737   0.002445
  59   4   7.574820  -1.091301   7.222913   0.001130   0.278737   0.004055
  60   4   6.173686   1.199036   9.844577   0.000328   0.185824   0.001764
  61   5   5.322124   7.287591   0.806024   0.000620   0.232280   0.002669
  62   5   7.558109   5.423643   0.690640   0.002426   0.278737   0.008704
  63   5   2.762083   1.351364  -0.314564   0.001914   0.371649   0.005150
  64   5   3.202330   1.972711  -1.044327   0.001357   0.325193   0.004172
  65   5   5.778025   1.656742  -0.746671   0.000190   0.092912   0.002049
  66   5   7.476146   4.736035   0.021260   0.000860   0.278737   0.003086
  67   5   4.840753   6.902688  -0.134074   0.000431   0.278737   0.001546
  68   5   6.089799   6.958163   0.739975   0.001286   0.325193   0.003953
  69   5   7.139112   6.199418   0.941127   0.001660   0.232280   0.007148
  70   5   5.132193   1.328047  -0.715057   0.000810   0.185824   0.004361
  71   5   3.954678   0.920330  -0.349129   0.003912   0.418105   0.009357
  72   5   2.236855   2.467466  -0.761835   0.001226   0.371649   0.003300
  73   5   6.046612   7.229936   1.909352   0.001186   0.278737   0.004254
  74   5   6.155548   6.974422   3.168160   0.002394   0.278737   0.008589
  75   5   6.787732   6.635463   2.865670   0.002292   0.232280   0.009868
  76   5   7.384519   6.144489   1.878653   0.002573   0.278737   0.009230
  77   5   2.928578   0.637495   0.633251   0.003571   0.464561   0.007686
  78   5   1.926183   1.449328   0.441598   0.001542   0.371649   0.004149
  79   5   4.310490   1.454782  -0.916935   0.001185   0.232280   0.005101
  80   5   6.545389   6.364436   0.216687   0.001807   0.371649   0.004861
  81   5   2.406830   3.588116  -1.180189   0.000115   0.185824   0.000618
  82   5   2.219690   0.790056   1.483607   0.002703   0.278737   0.009696
  83   5   6.760000   6.772084   1.779584   0.001739   0.278737   0.006238
  84   6   6.010888  -1.355855   3.165193   0.000618   0.232280   0.002663
  85   6   5.641915  -0.082889   0.570842   0.001793   0.278737   0.006431
  86   6   9.160542   4.393743   3.430001   0.001857   0.371649   0.004997
  87   6   9.532807   3.515208   2.980512   0.001409   0.325193   0.004334
  88   6   8.356506   3.388213   0.651815   0.000265   0.092912   0.002851
  89   6   6.414442   0.386133   0.237955   0.001376   0.278737   0.004935
  90   6   7.119011  -1.169339   3.195640   0.000426   0.278737   0.001529
  91   6   5.846837  -1.217497   2.355159   0.001270   0.325193   0.003907
  92   6   5.419684  -0.655691   1.251017   0.001475   0.232280   0.006349
  93   6   8.635806   3.832929   1.152172   0.001184   0.185824   0.006371
  94   6   8.828152   4.552488   2.216087   0.002858   0.418105   0.006836
  95   6   9.542723   3.322923   4.084892   0.001225   0.371649   0.003295
  96   6   4.750891  -1.128697   2.839087   0.001213   0.278737   0.004353
  97   6   3.620843  -0.549968   3.062288   0.002306   0.278737   0.008272
  98   6   3.723690  -0.443673   2.297975   0.002169   0.232280   0.009337
  99   6   4.489514  -0.384014   1.307336   0.003029   0.278737   0.010868
 100   6   8.380841   5.301710   3.372170   0.004842   0.464561   0.010423
 101   6   8.771259   4.683593   4.452034   0.001487   0.371649   0.004001
 102   6   9.102737   3.818494   1.868956   0.001225   0.232280   0.005272
 103   6   6.266302  -0.900756   1.608414   0.001818   0.371649   0.004892
 104   6   9.636225   2.118874   4.120850   0.000112   0.185824   0.000605
 105   6   7.847718   5.542289   4.324433   0.002317   0.278737   0.008312
 106   6   4.690301  -0.877480   2.021401   0.001933   0.278737   0.006935
 107   7  -1.679115   6.756790   7.669039  -0.003087   0.588831  -0.005243
 108   7  -1.007986   7.562021   6.354088  -0.001104   0.333671  -0.003309
 109   7   0.147798   7.493838   7.723937  -0.000651   0.333671  -0.001951
 110   7  -0.755230   5.721432   8.879682  -0.000967   0.353299  -0.002736
 111   7  -2.192911   4.944022   7.626194  -0.000616   0.372926  -0.001651
 112   7  -2.258860   6.010706   5.865137  -0.000642   0.353299  -0.001818
 113   7  -0.487179   7.678740   7.105825  -0.001549   0.431809  -0.003588
 114   7  -0.497259   6.803752   8.475556  -0.001655   0.490692  -0.003373
 115   7  -1.623124   5.475086   8.417445  -0.001487   0.471065  -0.003157
 116   7  -2.412054   5.688203   6.923591  -0.001491   0.471065  -0.003164
 117   7  -1.821614   6.943300   6.201808  -0.001790   0.490692  -0.003648
 118   8  -0.830720   0.172206   5.533876  -0.001699   0.392554  -0.004328
 119   8   0.432745   0.084364   4.312229  -0.001254   0.294415  -0.004261
 120   8  -1.049689   1.211539   3.840153  -0.000926   0.314043  -0.002948
 121   8  -1.792298   1.359698   5.797017  -0.000657   0.372926  -0.001762
 122   8  -0.425877   0.679816   7.122030  -0.000558   0.314043  -0.001778
 123   8   0.150820  -0.177362   5.323790  -0.001726   0.353299  -0.004885
 124   8  -0.332380   0.465918   3.983094  -0.001427   0.392554  -0.003636
 125   8  -1.299915   0.684281   4.805069  -0.001283   0.333671  -0.003846
 126   8  -1.290140   0.926755   6.545161  -0.000843   0.392554  -0.002148
 127   8  -0.005982   0.091119   6.525402  -0.001530   0.392554  -0.003899
 128   8  -1.749175   1.594121   4.645269  -0.000497   0.314043  -0.001582
 129   9   2.527935   2.464584  11.499004  -0.003087   0.588831  -0.005242
 130   9   3.311796   1.205064  10.707124  -0.001107   0.333671  -0.003318
 131   9   1.650763   1.430377  10.069022  -0.000652   0.333671  -0.001955
 132   9   1.286769   3.598376  10.747197  -0.000966   0.353299  -0.002734
 133   9   3.112822   4.255141  11.437643  -0.000615   0.372926  -0.001649
 134   9   4.525875   2.768223  11.248309  -0.000643   0.353299  -0.001821
 135   9   2.412632   1.206199  10.503472  -0.001552   0.431809  -0.003594
 136   9   1.345387   2.417289  10.693522  -0.001655   0.490692  -0.003374
 137   9   2.078639   3.868821  11.319379  -0.001486   0.471065  -0.003155
 138   9   3.686548   3.400510  11.627184  -0.001490   0.471065  -0.003163
 139   9   3.875034   1.902222  11.221641  -0.001792   0.490692  -0.003652
 140  10   5.431401   7.876867   8.195279  -0.001700   0.392554  -0.004330
 141  10   6.083292   7.366193   6.642626  -0.001256   0.294415  -0.004267
 142  10   6.845986   6.464628   8.158035  -0.000929   0.314043  -0.002959
 143  10   5.320891   7.024702   9.485866  -0.000657   0.372926  -0.001763
 144  10   3.741051   7.770375   8.469459  -0.000559   0.314043  -0.001780
 145  10   5.322804   7.953393   7.140715  -0.001725   0.353299  -0.004883
 146  10   6.593512   7.064664   7.341256  -0.001428   0.392554  -0.003638
 147  10   6.167750   7.281733   8.537523  -0.001283   0.333671  -0.003846
 148  10   4.539233   7.544553   9.142228  -0.000844   0.392554  -0.002149
 149  10   4.239719   8.072045   7.735181  -0.001530   0.392554  -0.003897
 150  10   6.303155   6.470238   9.152603  -0.000498   0.314043  -0.001585
 151  11   2.898472   9.562279   3.132027  -0.002315   0.451437  -0.005127
 152  11   4.323649   8.715463   3.288628  -0.001353   0.392554  -0.003446
 153  11   1.479248   9.045690   4.423614  -0.001110   0.314043  -0.003533
 154  11   1.314975   9.166946   2.335303  -0.000887   0.372926  -0.002377
 155  11   3.112109   8.789453   1.485004  -0.000836   0.333671  -0.002505
 156  11   3.699200   9.094446   3.992555  -0.001971   0.412182  -0.004781
 157  11   2.584114   9.153139   4.599627  -0.002202   0.471065  -0.004676
 158  11   1.864923   9.526483   3.446877  -0.001578   0.353299  -0.004467
 159  11   2.182333   9.200723   1.853970  -0.001385   0.451437  -0.003067
 160  11   3.670632   9.073020   2.285899  -0.001442   0.412182  -0.003498
 161  11   0.919571   9.069416   3.438698  -0.000688   0.314043  -0.002190
 162  12  -1.363455   4.684044   0.201559  -0.003095   0.549575  -0.005632
 163  12  -1.641596   3.741289   1.541226  -0.001245   0.333671  -0.003731
 164  12  -0.360089   2.983910   0.488882  -0.000793   0.353299  -0.002245
 165  12   0.233686   4.865761  -0.672965  -0.001301   0.372926  -0.003489
 166  12  -0.637563   6.412835   0.225559  -0.000793   0.372926  -0.002126
 167  12  -1.773920   5.770004   1.818967  -0.000824   0.353299  -0.002332
 168  12  -1.129269   3.265412   0.940364  -0.001739   0.431809  -0.004028
 169  12  -0.377572   3.930743  -0.309934  -0.001901   0.471065  -0.004036
 170  12  -0.348996   5.610946  -0.414979  -0.001567   0.431809  -0.003629
 171  12  -1.429198   6.019841   0.786227  -0.001735   0.471065  -0.003683
 172  12  -1.921730   4.735978   1.530516  -0.002017   0.490692  -0.004111
 173  13   4.389870  -2.350600   6.739433  -0.002315   0.451437  -0.005128
 174  13   3.876033  -1.795160   5.256123  -0.001352   0.392554  -0.003443
 175  13   3.851806  -1.218980   8.281894  -0.001112   0.314043  -0.003541
 176  13   5.783111  -1.889424   7.809346  -0.000887   0.372926  -0.002378
 177  13   5.951740  -2.132583   5.807438  -0.000837   0.333671  -0.002508
 178  13   3.399349  -1.827974   6.150983  -0.001971   0.412182  -0.004783
 179  13   3.256544  -1.489930   7.367835  -0.002200   0.471065  -0.004671
 180  13   4.499564  -2.022561   7.763637  -0.001579   0.353299  -0.004468
 181  13   5.887138  -2.229491   6.882705  -0.001385   0.451437  -0.003069
 182  13   4.961255  -2.283801   5.634628  -0.001439   0.412182  -0.003491
 183  13   4.950240  -1.407860   8.485926  -0.000689   0.314043  -0.002193
 184  14   9.588312   2.248553   8.280073  -0.003095   0.549575  -0.005631
 185  14   8.660280   3.566693   8.682715  -0.001248   0.333671  -0.003739
 186  14   9.279002   3.725600   6.975307  -0.000795   0.353299  -0.002251
 187  14   9.746117   1.513493   6.611703  -0.001301   0.372926  -0.003489
 188  14   8.960386   0.488427   8.125547  -0.000792   0.372926  -0.002124
 189  14   8.066820   1.767426   9.470609  -0.000824   0.353299  -0.002331
 190  14   9.104332   3.741832   7.893971  -0.001742   0.431809  -0.004035
 191  14   9.827011   2.615062   7.011315  -0.001900   0.471065  -0.004034
 192  14   9.587344   1.002852   7.433538  -0.001567   0.431809  -0.003629
 193  14   8.825303   1.172956   8.905709  -0.001733   0.471065  -0.003680
 194  14   8.583303   2.685880   9.217727  -0.002018   0.490692  -0.004113
 195  15   5.224741   4.374929  -2.364104  -0.004841   0.647714  -0.007474
 196  15   4.959545   6.055490  -1.435236  -0.001581   0.392554  -0.004026
 197  15   3.388010   4.710241  -1.887669  -0.001379   0.333671  -0.004132
 198  15   4.230447   2.826037  -1.990964  -0.001118   0.353299  -0.003163
 199  15   6.215474   2.944826  -1.595610  -0.001388   0.274788  -0.005052
 200  15   6.690578   5.040725  -1.194304  -0.001258   0.412182  -0.003052
 201  15   4.179478   5.426141  -1.937724  -0.002753   0.471065  -0.005843
 202  15   3.832789   3.778232  -2.204762  -0.002554   0.490692  -0.005204
 203  15   5.336513   2.888093  -2.029872  -0.002668   0.510320  -0.005229
 204  15   6.577967   4.000066  -1.640706  -0.003007   0.529948  -0.005674
 205  15   5.836828   5.566956  -1.626946  -0.002564   0.471065  -0.005443
 206  16   9.492194   0.485686   1.423961  -0.004839   0.647714  -0.007471
 207  16   8.419381  -0.771348   2.437049  -0.001581   0.392554  -0.004028
 208  16   9.685880   0.670459   3.332194  -0.001374   0.333671  -0.004119
 209  16   9.834356   2.241002   1.997298  -0.001117   0.353299  -0.003162
 210  16   8.706055   1.851023   0.358517  -0.001388   0.274788  -0.005051
 211  16   7.750231  -0.092712   0.654927  -0.001256   0.412182  -0.003047
 212  16   9.292028  -0.171302   2.805165  -0.002750   0.471065  -0.005838
 213  16   9.989547   1.365557   2.563012  -0.002552   0.490692  -0.005201
 214  16   9.441112   1.953310   1.001637  -0.002667   0.510320  -0.005226
 215  16   8.402145   0.777239   0.318594  -0.003003   0.529948  -0.005667
 216  16   8.359245  -0.541471   1.442774  -0.002564   0.471065  -0.005443
 217   1   1.432903   7.231747   7.800348   0.000017   0.026505   0.000657
 218   2   1.841766   7.143545   8.071797   0.000045   0.026505   0.001694
 219   7   1.131237   7.230988   7.828262  -0.000010   0.026505  -0.000359
 220   1   0.134052   4.782172   9.196097   0.000032   0.026505   0.001197
 221   2   0.560138   4.726450   9.449039   0.000082   0.026505   0.003101
 222   7  -0.050975   5.001386   9.098671  -0.000001   0.026505  -0.000049
 223   1   0.639210   1.088283   7.871596   0.000007   0.028495   0.000257
 224   2   1.059716   1.071134   8.139121   0.000026   0.028495   0.000905
 225   8   0.518274   0.933523   7.639307  -0.000028   0.028495  -0.000993
 226   1   0.472618   4.436255   9.451168   0.000082   0.026488   0.003101
 227   2   0.850438   4.395601   9.774019   0.000032   0.026488   0.001201
 228   9   0.965222   4.198452   9.973340  -0.000001   0.026488  -0.000045
 229   1   0.768727   1.527668   8.543322   0.000045   0.026488   0.001701
 230   2   1.150527   1.447923   8.853971   0.000018   0.026488   0.000663
 231   9   1.238362   1.515483   9.135916  -0.000009   0.026488  -0.000357
 232   1   2.186973   7.399900   7.554016   0.000026   0.028522   0.000898
 233   2   2.583466   7.390228   7.856324   0.000007   0.028522   0.000249
 234  10   2.869486   7.493523   7.849186  -0.000029   0.028522  -0.001001
 235   2   2.321105   7.318671   8.013928   0.000153   0.081557   0.001881
 236   1   1.687205   7.352434   7.671098   0.000131   0.081557   0.001605
 237   2   0.770453   4.569308   9.710043   0.000070   0.019767   0.003540
 238   1   0.187988   4.616535   9.297734   0.000070   0.019767   0.003538
 239   2   1.149314   1.247569   8.616462   0.000132   0.082025   0.001607
 240   1   0.608168   1.252050   8.139230   0.000155   0.082025   0.001885
 241   1  -1.624508   6.138426   4.591946   0.000021   0.027252   0.000788
 242   3  -1.462653   6.297879   4.147440   0.000057   0.027252   0.002078
 243   7  -1.665591   6.247098   4.871771  -0.000012   0.027252  -0.000436
 244   1  -1.773449   5.176604   3.668101   0.000059   0.027060   0.002196
 245   3  -1.691711   5.363054   3.212299   0.000007   0.027060   0.000254
 246  12  -1.717907   5.279145   2.921808  -0.000030   0.027060  -0.001098
 247   3  -1.629128   5.793268   3.530284   0.000186   0.182406   0.001021
 248   1  -1.754204   5.729868   4.265046   0.000197   0.182406   0.001081
 249   1   0.932801   7.851253   6.021819   0.000050   0.039092   0.001276
 250   7   0.669903   7.798789   6.162851  -0.000058   0.039092  -0.001489
 251  11   1.217675   8.160498   5.394861   0.000023   0.039092   0.000597
 252   7   0.657085   7.512627   7.293780  -0.000372   0.130045  -0.002862
 253   1   0.976499   7.594745   6.900240  -0.000219   0.158878  -0.001378
 254   7  -1.970330   6.035706   5.279631  -0.000102   0.071712  -0.001421
 255   7  -2.316843   5.166349   5.952197  -0.000290   0.160483  -0.001807
 256   7  -2.170142   4.470305   7.147405  -0.000186   0.160483  -0.001161
 257   7  -1.413880   4.472958   8.314702  -0.000277   0.160483  -0.001724
 258   7  -0.574012   4.963465   8.932943  -0.000093   0.071712  -0.001295
 259   1  -2.067666   5.443521   5.178620  -0.000178   0.156021  -0.001138
 260   1  -2.294846   4.382617   6.302364   0.000128   0.156021   0.000823
 261   1  -1.757021   3.969618   7.709525   0.000069   0.156021   0.000445
 262   1  -0.693427   4.388235   8.774164  -0.000136   0.156021  -0.000870
 263   1  -1.247337   2.623007   3.353411   0.000090   0.040759   0.002201
 264   8  -1.203709   2.353294   3.487072  -0.000047   0.040759  -0.001146
 265  12  -1.156234   2.958532   2.684195   0.000068   0.040759   0.001680
 266   8   0.004267   0.924463   7.476579  -0.000089   0.068084  -0.001306
 267   8  -0.939583   1.416142   7.222921  -0.000202   0.150450  -0.001346
 268   8  -1.755659   1.924090   6.312492  -0.000099   0.150450  -0.000659
 269   8  -1.890025   2.145375   5.014089  -0.000208   0.150450  -0.001381
 270   8  -1.492864   2.073149   3.997235  -0.000117   0.068084  -0.001725
 271   1  -0.263099   1.405496   7.700728  -0.000132   0.149950  -0.000877
 272   1  -1.440654   2.056952   7.066922   0.000159   0.149950   0.001063
 273   1  -2.003302   2.488647   5.759325   0.000199   0.149950   0.001324
 274   1  -1.727177   2.528820   4.298201  -0.000052   0.149950  -0.000349
 275   9   0.907176   3.746319  10.085853  -0.000192   0.205660  -0.000934
 276   9   0.980204   2.329101   9.679716  -0.001081   0.421624  -0.002563
 277   1   0.108478   3.418094   9.189360   0.000801   0.562627   0.001424
 278   1   0.334036   1.840068   8.663828   0.000658   0.289649   0.002273
 279   1   2.385137   7.730221   6.404978   0.000047   0.165826   0.000283
 280  10   3.061725   7.727634   6.736146  -0.000079   0.165826  -0.000474
 281  11   2.575423   8.063966   5.749308  -0.000157   0.165826  -0.000947
 282  10   3.178596   7.713179   7.511000  -0.000195   0.143408  -0.001363
 283   1   2.112742   7.613427   7.170130   0.000313   0.202197   0.001546
 284  11   1.800496   8.485392   5.192435  -0.000476   0.199554  -0.002387
 285   1   1.640787   7.930380   6.174657   0.000400   0.281070   0.001422
 286  12  -1.477424   3.546594   2.335779  -0.000528   0.243880  -0.002167
 287  12  -1.784718   4.817127   2.660915  -0.000478   0.243880  -0.001960
 288   1  -1.693473   3.896354   3.555042   0.000505   0.661749   0.000763
 289   2   5.418242   2.166034  10.311921   0.000021   0.027280   0.000774
 290   4   5.729606   1.858749  10.071429   0.000056   0.027280   0.002056
 291   9   5.158697   2.151013  10.467490  -0.000012   0.027280  -0.000455
 292   2   6.505115   2.845362   9.881249   0.000059   0.027080   0.002176
 293   4   6.851498   2.525382   9.717444   0.000007   0.027080   0.000245
 294  14   7.140853   2.527448   9.625884  -0.000030   0.027080  -0.001109
 295   4   6.453575   2.195753   9.883943   0.000185   0.184242   0.001004
 296   2   5.845322   2.486075  10.209877   0.000195   0.184242   0.001056
 297   7  -0.042723   5.469359   9.058541  -0.000193   0.205771  -0.000938
 298   7   0.575591   6.671323   8.463486  -0.001084   0.421867  -0.002568
 299   2   1.133080   5.679997   9.408763   0.000800   0.562914   0.001422
 300   2   1.834031   6.969302   8.592310   0.000658   0.289806   0.002270
 301   2   1.963051   0.397480   7.694138   0.000047   0.165792   0.000285
 302   8   1.410158   0.361843   7.183584  -0.000077   0.165792  -0.000465
 303  13   2.422438  -0.138547   7.412696  -0.000156   0.165792  -0.000939
 304   8   0.666001   0.571387   7.315379  -0.000195   0.143354  -0.001361
 305   2   1.393637   0.776607   8.146652   0.000313   0.202120   0.001549
 306   2   2.826767   0.460346   8.925928   0.000050   0.039349   0.001262
 307   9   2.807895   0.600790   9.193652  -0.000058   0.039349  -0.001470
 308  13   3.229645  -0.063525   8.560939   0.000023   0.039349   0.000593
 309   9   1.844278   1.192429   9.477845  -0.000371   0.129814  -0.002857
 310   2   2.064600   0.941506   9.088150  -0.000219   0.158596  -0.001379
 311   9   4.943910   2.524526  10.811290  -0.000102   0.071682  -0.001427
 312   9   4.632686   3.598400  11.089206  -0.000289   0.160405  -0.001803
 313   9   3.629811   4.560492  11.132821  -0.000186   0.160405  -0.001157
 314   9   2.288471   4.739597  10.813432  -0.000276   0.160405  -0.001718
 315   9   1.318453   4.289450  10.384789  -0.000093   0.071682  -0.001291
 316   2   5.187109   3.071047  10.700014  -0.000178   0.155967  -0.001138
 317   2   4.459598   4.428713  10.956626   0.000129   0.155967   0.000828
 318   2   3.063384   5.108409  10.792375   0.000070   0.155967   0.000450
 319   2   1.619126   4.807991  10.280275  -0.000135   0.155967  -0.000864
 320   2   7.083976   5.041528   8.588868   0.000089   0.040968   0.002173
 321  10   6.999412   5.324031   8.514336  -0.000046   0.040968  -0.001127
 322  14   7.591866   4.520539   8.390763   0.000068   0.040968   0.001656
 323  10   3.211172   7.556531   8.261245  -0.000089   0.068005  -0.001308
 324  10   3.698082   7.208235   9.175591  -0.000202   0.150242  -0.001343
 325  10   4.728469   6.634144   9.773980  -0.000098   0.150242  -0.000654
 326  10   5.911617   6.085601   9.553508  -0.000207   0.150242  -0.001376
 327  10   6.699087   5.787572   8.856737  -0.000117   0.068005  -0.001721
 328   2   3.014085   7.220759   8.709756  -0.000131   0.149807  -0.000876
 329   2   3.901331   6.660917   9.762229   0.000160   0.149807   0.001068
 330   2   5.211567   5.996408   9.985925   0.000199   0.149807   0.001330
 331   2   6.424604   5.491053   9.292033  -0.000052   0.149807  -0.000345
 332  13   3.133180  -0.540217   8.061645  -0.000475   0.199285  -0.002384
 333   2   2.409648   0.290184   8.353797   0.000398   0.280692   0.001419
 334  14   7.914167   3.934287   8.737112  -0.000525   0.242399  -0.002167
 335  14   7.490814   2.898668   9.473700  -0.000473   0.242399  -0.001953
 336   2   6.823371   3.994969   9.413473   0.000506   0.657917   0.000768
 337   3   0.889345   1.588051   2.288919   0.000150   0.097781   0.001535
 338   5   1.316011   1.401906   2.121961   0.000349   0.097781   0.003566
 339   8   0.664991   1.278682   2.935947   0.000080   0.097781   0.000821
 340   3   3.770887   7.760351   0.943942  -0.000013   0.028257  -0.000454
 341   5   4.160072   7.504182   0.784704   0.000007   0.028257   0.000233
 342  11   3.719135   7.978380   1.150467  -0.000056   0.028257  -0.001974
 343   3   0.721483   2.379496   0.850505   0.000016   0.027902   0.000584
 344   5   1.143630   2.184833   0.688224   0.000057   0.027902   0.002046
 345  12   0.503795   2.560264   0.740611  -0.000036   0.027902  -0.001308
 346   3   1.581839   5.165028  -0.676808  -0.000044   0.027902  -0.001570
 347   5   1.993056   4.934975  -0.819685  -0.000027   0.027902  -0.000983
 348  12   1.287253   5.096825  -0.650190  -0.000058   0.027902  -0.002086
 349   3   2.068650   5.112460  -0.815308  -0.000018   0.013873  -0.001289
 350   5   2.450260   4.897302  -1.039402  -0.000040   0.013873  -0.002877
 351  15   2.696247   4.872648  -1.207772  -0.000056   0.013873  -0.004006
 352   3   3.008444   6.494110  -0.446992  -0.000040   0.013873  -0.002859
 353   5   3.403648   6.298937  -0.665759  -0.000071   0.013873  -0.005093
 354  15   3.562905   6.146774  -0.868120  -0.000106   0.013873  -0.007666
 355   5   1.461434   1.564923   1.255261   0.000627   0.205391   0.003055
 356   3   0.860262   2.007976   1.302288   0.000261   0.205391   0.001270
 357   5   2.294394   4.897655  -1.003096   0.000003   0.007571   0.000454
 358   3   1.726278   5.225613  -0.742410   0.000010   0.007571   0.001354
 359   5   3.745530   6.793562  -0.143185  -0.000373   0.308077  -0.001211
 360   3   3.387020   7.307156   0.349870  -0.000203   0.308077  -0.000660
 361   3   0.403420   8.060914   4.800781   0.000067   0.038922   0.001709
 362   7   0.105775   7.794740   5.438803   0.000065   0.038922   0.001657
 363  11   0.627489   8.238877   4.696335  -0.000067   0.038922  -0.001721
 364   7  -0.579150   7.546850   5.647670  -0.000455   0.246069  -0.001850
 365   7  -1.502274   6.682142   5.146104  -0.000370   0.246069  -0.001502
 366   3  -0.655477   7.288390   4.388073   0.000290   0.667313   0.000435
 367   3  -0.403170   2.358072   2.307348   0.000056   0.038547   0.001451
 368   8  -0.522119   1.992280   2.950921   0.000058   0.038547   0.001497
 369  12  -0.537369   2.545928   2.110455  -0.000064   0.038547  -0.001672
 370   8  -0.274837   1.383555   3.264846  -0.000425   0.223914  -0.001898
 371   3   0.203526   1.827368   2.334888   0.000515   0.315386   0.001634
 372  11   3.293394   8.301612   1.190628  -0.000130   0.068048  -0.001903
 373  11   2.217347   8.485799   1.193847  -0.000305   0.150248  -0.002032
 374  11   1.087606   8.643903   1.860568  -0.000202   0.150248  -0.001347
 375  11   0.568128   8.668312   3.075219  -0.000355   0.150248  -0.002364
 376  11   0.693184   8.589367   4.156857  -0.000171   0.068048  -0.002513
 377   3   2.849814   8.050638   0.885151  -0.000249   0.149995  -0.001661
 378   3   1.415928   8.279883   1.193958   0.000046   0.149995   0.000305
 379   3   0.439911   8.387895   2.307364   0.000005   0.149995   0.000034
 380   3   0.307806   8.331952   3.784985  -0.000215   0.149995  -0.001434
 381  12  -0.131216   2.674078   1.089784  -0.000382   0.121184  -0.003153
 382   3  -0.025990   2.453178   1.530682  -0.000207   0.148053  -0.001396
 383  12  -1.725146   5.592618   2.474317  -0.000135   0.070508  -0.001918
 384  12  -1.316805   6.434008   1.835399  -0.000387   0.157083  -0.002465
 385  12  -0.512095   6.829927   0.802051  -0.000299   0.157083  -0.001901
 386  12   0.349125   6.336772  -0.139872  -0.000385   0.157083  -0.002449
 387  12   0.867864   5.441270  -0.600180  -0.000161   0.070508  -0.002281
 388   3  -1.477244   6.126267   2.609599  -0.000298   0.154068  -0.001936
 389   3  -0.759173   7.024496   1.590039  -0.000039   0.154068  -0.000252
 390   3   0.230959   6.966705   0.416053  -0.000038   0.154068  -0.000246
 391   3   1.068986   5.977649  -0.409432  -0.000317   0.154068  -0.002055
 392  15   3.138167   5.350756  -1.230263  -0.001758   0.341132  -0.005153
 393   3   2.413147   6.070275  -0.613824  -0.000358   0.478993  -0.000747
 394   4   7.448371   5.294281   6.011123   0.000149   0.097642   0.001530
 395   6   7.475545   5.336680   5.519226   0.000352   0.097642   0.003602
 396  10   7.006409   5.811390   6.330387   0.000079   0.097642   0.000805
 397   4   6.395076  -1.450957   4.748413  -0.000014   0.028263  -0.000485
 398   6   6.442934  -1.333090   4.272804   0.000006   0.028263   0.000199
 399  13   6.185098  -1.586971   4.922382  -0.000056   0.028263  -0.001994
 400   4   8.661063   4.180555   5.937947   0.000016   0.027935   0.000582
 401   6   8.687480   4.233302   5.449173   0.000058   0.027935   0.002076
 402  14   8.807645   4.023137   6.152135  -0.000037   0.027935  -0.001317
 403   4   9.184982   0.960107   5.477716  -0.000044   0.027935  -0.001581
 404   6   9.204747   1.053739   4.994785  -0.000028   0.027935  -0.000990
 405  14   9.284741   1.090505   5.733036  -0.000058   0.027935  -0.002091
 406   4   9.135283   0.866299   4.977302  -0.000018   0.013976  -0.001310
 407   6   9.236801   0.928793   4.499945  -0.000040   0.013976  -0.002869
 408  16   9.301291   0.854578   4.217462  -0.000056   0.013976  -0.003993
 409   4   8.168399  -0.518890   4.635305  -0.000040   0.013976  -0.002839
 410   6   8.255942  -0.476416   4.153004  -0.000071   0.013976  -0.005073
 411  16   8.409652  -0.422812   3.902080  -0.000107   0.013976  -0.007650
 412   6   9.264041   0.974078   4.653318   0.000004   0.008778   0.000423
 413   4   9.176947   0.851768   5.342982   0.000011   0.008778   0.001251
 414   6   7.565497  -0.854953   4.150772  -0.000364   0.303884  -0.001197
 415   4   7.157576  -1.123146   4.777959  -0.000197   0.303884  -0.000649
 416   6   8.174523   4.911003   5.161688   0.000651   0.205045   0.003175
 417   4   8.271555   4.628591   5.847571   0.000261   0.205045   0.001275
 418   4   4.106378   0.024298   9.092692   0.000066   0.039092   0.001691
 419   9   3.689870   0.512558   9.485689   0.000064   0.039092   0.001637
 420  13   4.082242  -0.216720   8.908008  -0.000066   0.039092  -0.001699
 421   9   3.803175   0.939615  10.099272  -0.000454   0.244765  -0.001853
 422   9   4.765791   1.789403  10.529517  -0.000367   0.244765  -0.001501
 423   4   5.022004   0.840200   9.699866   0.000291   0.663934   0.000439
 424   4   7.770415   4.834284   7.402304   0.000055   0.038810   0.001427
 425  10   7.302890   5.382574   7.609521   0.000058   0.038810   0.001482
 426  14   7.962890   4.629227   7.516236  -0.000064   0.038810  -0.001655
 427  10   7.042524   5.992921   7.312193  -0.000424   0.223029  -0.001901
 428   4   7.618899   5.219287   6.712552   0.000512   0.314144   0.001629
 429  13   6.245758  -1.794093   5.412800  -0.000130   0.067979  -0.001909
 430  13   6.610521  -1.751811   6.439862  -0.000305   0.150070  -0.002030
 431  13   6.399982  -1.487494   7.716059  -0.000202   0.150070  -0.001345
 432  13   5.490507  -1.064710   8.574533  -0.000354   0.150070  -0.002362
 433  13   4.479424  -0.710491   8.779313  -0.000171   0.067979  -0.002511
 434   4   6.737384  -1.556468   5.646426  -0.000249   0.149869  -0.001665
 435   4   6.950997  -1.399174   7.105832   0.000046   0.149869   0.000305
 436   4   6.288227  -0.992581   8.369026   0.000005   0.149869   0.000036
 437   4   5.010749  -0.497221   8.937275  -0.000215   0.149869  -0.001434
 438  14   8.708650   4.140832   6.867029  -0.000379   0.120574  -0.003147
 439   4   8.312823   4.451441   6.845607  -0.000205   0.147308  -0.001394
 440  14   7.488683   2.108570   9.581557  -0.000135   0.070460  -0.001919
 441  14   7.751996   1.058085   9.252337  -0.000386   0.156951  -0.002458
 442  14   8.309630   0.234947   8.313553  -0.000297   0.156951  -0.001894
 443  14   8.934844   0.259511   7.097687  -0.000384   0.156951  -0.002447
 444  14   9.330199   0.865310   6.227089  -0.000161   0.070460  -0.002282
 445   4   7.169932   1.596849   9.552507  -0.000297   0.153985  -0.001931
 446   4   7.650792   0.323969   8.840027  -0.000037   0.153985  -0.000243
 447   4   8.353755  -0.150621   7.559525  -0.000037   0.153985  -0.000239
 448   4   8.978082   0.376116   6.258818  -0.000316   0.153985  -0.002055
 449  16   9.058365   0.309078   3.946411  -0.001781   0.343581  -0.005183
 450   4   8.630028  -0.047785   5.001402  -0.000371   0.482415  -0.000770
 451   5   2.361563   0.613875   2.688375   0.001359   0.135199   0.010052
 452   6   2.639228   0.381319   2.930613   0.001540   0.135199   0.011392
 453   8   1.670958   0.610690   3.478203   0.000557   0.135199   0.004118
 454   5   6.452285   6.256387   4.290775   0.001557   0.135335   0.011502
 455   6   6.730188   6.023752   4.532678   0.001296   0.135335   0.009573
 456  10   6.273568   6.387322   5.405564   0.000549   0.135335   0.004053
 457   5   7.338988   3.359353  -0.310860  -0.000008   0.009847  -0.000860
 458   6   7.577198   3.116318  -0.047697  -0.000000   0.009847  -0.000018
 459  15   7.176654   3.450803  -0.544889  -0.000048   0.009847  -0.004851
 460   5   6.760350   1.868552  -0.339392   0.000000   0.009793   0.000014
 461   6   7.040329   1.612343  -0.136827  -0.000012   0.009793  -0.001215
 462  16   7.295032   1.491279  -0.037076  -0.000048   0.009793  -0.004940
 463   6   7.990844   3.416670   0.399858   0.000348   0.203375   0.001710
 464   6   8.056987   4.947339   1.906295   0.005124   0.419829   0.012206
 465   6   7.337291   5.895435   3.695102   0.002950   0.203375   0.014504
 466   5   7.686277   4.381598   0.611602   0.002116   0.419829   0.005040
 467   5   7.279344   5.924996   2.663379   0.006191   0.419829   0.014746
 468   6   3.298277   0.027713   2.178768   0.002859   0.203110   0.014077
 469   6   4.833450   0.266292   0.698156   0.004892   0.419215   0.011668
 470   6   6.521794   1.284418  -0.149666   0.000290   0.203110   0.001430
 471   5   3.486977   0.416491   1.240569   0.006375   0.419215   0.015207
 472   5   5.494114   1.198983  -0.209241   0.002238   0.419215   0.005339
 473   8   0.699325   0.763739   3.366054  -0.000066   0.276241  -0.000240
 474   5   1.829886   0.790536   2.297784   0.002136   0.394230   0.005419
 475   5   5.397024   7.023211   4.111744   0.001099   0.247341   0.004445
 476  10   5.280755   7.126229   5.243262   0.000370   0.247341   0.001497
 477  11   4.844098   7.516513   4.249330   0.000050   0.247341   0.000204
 478  10   6.028265   6.965999   5.810991  -0.000001   0.209116  -0.000007
 479   5   6.096875   6.828485   4.139718   0.001813   0.302063   0.006004
 480  11   4.752946   7.995302   3.448081  -0.000306   0.208442  -0.001466
 481  11   4.238028   8.185440   2.033653  -0.001530   0.428568  -0.003571
 482   5   5.398862   7.429129   2.559761   0.001561   0.569330   0.002742
 483   5   4.680211   7.550722   0.996350   0.000480   0.293804   0.001634
 484  12   0.998939   4.692401  -0.657935  -0.000512   0.216081  -0.002369
 485  12   0.584075   3.327782  -0.010592  -0.001785   0.445416  -0.004007
 486   5   1.829239   3.768232  -0.726691   0.000081   0.589153   0.000137
 487   5   1.369771   2.300157   0.170129   0.000617   0.304539   0.002027
 488   5   6.613771   2.126804  -0.545661  -0.000033   0.024347  -0.001375
 489  15   6.519487   2.331923  -0.741586  -0.000092   0.024347  -0.003795
 490  16   7.113003   1.777402  -0.163011  -0.000030   0.024347  -0.001244
 491  15   6.065546   2.391204  -1.175686  -0.000273   0.072690  -0.003753
 492  15   4.927138   2.205824  -1.421836  -0.000403   0.164051  -0.002458
 493  15   3.637795   2.777681  -1.595554  -0.000531   0.164051  -0.003239
 494  15   2.996534   4.045080  -1.549853  -0.000781   0.164051  -0.004761
 495   5   5.642819   1.997621  -0.971940  -0.000321   0.156816  -0.002050
 496   5   4.077397   2.104390  -1.261813  -0.000156   0.156816  -0.000992
 497   5   2.923460   3.203728  -1.338330  -0.000343   0.156816  -0.002189
 498   5   2.589955   4.457439  -1.234659  -0.000223   0.088807  -0.002513
 499  15   4.056382   6.165715  -1.058896  -0.000345   0.072967  -0.004726
 500  15   5.208586   6.289512  -0.818341  -0.000614   0.164829  -0.003724
 501  15   6.470362   5.644657  -0.659790  -0.000394   0.164829  -0.002393
 502  15   7.040005   4.339142  -0.724532  -0.000656   0.164829  -0.003982
 503   5   4.374476   6.452864  -0.619697  -0.000624   0.157278  -0.003968
 504   5   5.939127   6.259806  -0.341569  -0.000154   0.157278  -0.000981
 505   5   7.034288   5.093515  -0.285473  -0.000057   0.157278  -0.000364
 506   5   7.295025   3.819469  -0.406018  -0.000109   0.089145  -0.001220
 507  16   7.465669   1.416295  -0.024712  -0.000039   0.008677  -0.004473
 508   5   6.694651   1.970646  -0.530255   0.000046   0.012273   0.003717
 509   6   3.050921  -0.184268   4.058317   0.001098   0.247434   0.004439
 510   8   2.049409   0.064738   4.545750   0.000375   0.247434   0.001515
 511  13   3.038996  -0.498062   4.743310   0.000052   0.247434   0.000211
 512   8   1.283689   0.230488   3.995325   0.000001   0.211987   0.000003
 513   6   2.799278  -0.130456   3.374095   0.001788   0.306169   0.005839
 514  10   6.706368   6.407455   6.290427  -0.000067   0.273184  -0.000245
 515   6   7.246434   5.854917   4.938998   0.002065   0.389916   0.005296
 516  13   3.706848  -1.157824   4.712210  -0.000308   0.208822  -0.001475
 517  13   5.147914  -1.634875   4.788579  -0.001542   0.429411  -0.003592
 518   6   4.379750  -1.006615   3.686557   0.001572   0.570311   0.002757
 519   6   6.046091  -1.420624   3.881346   0.000475   0.294341   0.001614
 520  14   9.478458   1.525796   5.875543  -0.000513   0.216307  -0.002373
 521  14   9.310975   3.073660   6.063278  -0.001793   0.445937  -0.004020
 522   6   9.407824   2.208872   4.837858   0.000081   0.589730   0.000138
 523   6   9.050480   3.933331   5.114778   0.000621   0.304863   0.002037
 524   6   7.766302   2.839155   0.092414  -0.000040   0.024293  -0.001661
 525  15   7.301052   3.177952  -0.339320  -0.000029   0.024293  -0.001197
 526  16   7.938724   2.609431   0.175133  -0.000096   0.024293  -0.003963
 527  15   7.115353   3.489124  -0.717612  -0.000042   0.009682  -0.004293
 528   6   7.753467   2.976021  -0.019981   0.000045   0.013696   0.003288
 529  16   8.490642   2.519066   0.466410  -0.000277   0.072630  -0.003816
 530  16   9.178195   2.847894   1.365303  -0.000406   0.163885  -0.002476
 531  16   9.708427   2.518641   2.640930  -0.000531   0.163885  -0.003239
 532  16   9.660014   1.472386   3.599983  -0.000779   0.163885  -0.004756
 533   6   8.542707   3.030072   0.799539  -0.000336   0.156714  -0.002143
 534   6   9.373186   3.157641   2.154706  -0.000156   0.156714  -0.000997
 535   6   9.661145   2.335567   3.490265  -0.000343   0.156714  -0.002188
 536   6   9.447197   1.257559   4.185521  -0.000222   0.088733  -0.002507
 537  16   8.392942  -0.591763   3.400527  -0.000345   0.072926  -0.004725
 538  16   7.718303  -0.863405   2.467544  -0.000611   0.164717  -0.003712
 539  16   7.229314  -0.459732   1.191182  -0.000396   0.164717  -0.002402
 540  16   7.333074   0.634064   0.283434  -0.000658   0.164717  -0.003997
 541   6   7.818956  -0.797021   3.331711  -0.000623   0.157208  -0.003963
 542   6   7.018441  -0.841427   1.946936  -0.000155   0.157208  -0.000985
 543   6   6.788095   0.053979   0.640955  -0.000076   0.157208  -0.000483
 544   6   7.051996   1.162600   0.004289  -0.000140   0.089096  -0.001573
 545  11   0.912772   8.486253   4.900434   0.000236   0.269241   0.000878
 546   7   0.268347   7.919657   6.071566   0.000327   0.269241   0.001216
 547  12  -0.942639   2.702852   2.094798   0.000289   0.275340   0.001049
 548   8  -1.076099   1.964042   3.331697   0.000352   0.275340   0.001279
 549  13   2.467943  -0.724858   7.183129   0.000123   0.243140   0.000505
 550  13   2.545986  -1.022855   6.188956  -0.000126   0.485955  -0.000259
 551  13   2.809408  -0.951200   5.184591   0.000249   0.243140   0.001026
 552   8   1.040039  -0.144028   6.482301  -0.000091   0.485955  -0.000187
 553   8   1.253256  -0.285360   5.234381  -0.000179   0.485955  -0.000368
 554  13   3.737094  -0.447969   8.780564   0.000232   0.274601   0.000844
 555   9   3.022932   0.541234   9.566642   0.000324   0.274601   0.001181
 556  11   2.883388   8.540280   5.470156   0.000124   0.244157   0.000509
 557  11   3.818924   8.521766   5.002474  -0.000131   0.487991  -0.000269
 558  11   4.619989   8.113414   4.467834   0.000248   0.244157   0.001018
 559  10   3.938175   8.075991   6.707936  -0.000099   0.487991  -0.000202
 560  10   5.022491   7.809461   6.082096  -0.000185   0.487991  -0.000379
 561  14   8.097322   4.555366   7.929538   0.000284   0.281161   0.001009
 562  10   7.169136   5.622423   8.232699   0.000350   0.281161   0.001244
 563  16   7.705515   1.932291  -0.077263  -0.000509   0.399590  -0.001273
 564  15   6.969641   2.940371  -0.804092  -0.000508   0.399590  -0.001272
 =====================================================

              2745589  WORDS OF DYNAMIC MEMORY USED
 EXECUTION OF GAMESS TERMINATED NORMALLY Wed Nov 23 22:21:05 2016
 DDI: 263640 bytes (0.3 MB / 0 MWords) used by master data server.

 ----------------------------------------
 CPU timing information for all processes
 ========================================
 0: 758.540 + 0.336 = 758.876
 ----------------------------------------
 ddikick.x: exited gracefully.
