----- GAMESS execution script -----

          ******************************************************
          *         GAMESS VERSION =  5 DEC 2014 (R1)          *
          *             FROM IOWA STATE UNIVERSITY             *
          * M.W.SCHMIDT, K.K.BALDRIDGE, J.A.BOATZ, S.T.ELBERT, *
          *   M.S.GORDON, J.H.JENSEN, S.KOSEKI, N.MATSUNAGA,   *
          *          K.A.NGUYEN, S.J.SU, T.L.WINDUS,           *
          *       TOGETHER WITH M.DUPUIS, J.A.MONTGOMERY       *
          *         J.COMPUT.CHEM.  14, 1347-1363(1993)        *
          **************** 64 BIT LINUX VERSION ****************

 EXECUTION OF GAMESS BEGUN Wed Nov 23 22:20:56 2016

            ECHO OF THE FIRST FEW INPUT CARDS -
 INPUT CARD>! SELECT RESTRICTED HARTREE-FOCK AS DEFAULT                                     
 INPUT CARD>$contrl scftyp=rhf $end                                                         
 INPUT CARD>                                                                                
 INPUT CARD>! THEORY: HF OR DFT                                                             
 INPUT CARD> $contrl mplevl=0 $end                                                          
 INPUT CARD>                                                                                
 INPUT CARD> $system timlim=10000 mwords=20 $end                                            
 INPUT CARD> $SCF DIRSCF=.TRUE. $end                                                        
 INPUT CARD>                                                                                
 INPUT CARD>                                                                                
 INPUT CARD>! BASIS SETS                                                                    
 INPUT CARD>! 6-311G(d,p)                                                                   
 INPUT CARD> $BASIS GBASIS=N311 NGAUSS=6 NDFUNC=1 NPFUNC=1 $END                             
 INPUT CARD>                                                                                
 INPUT CARD>! One of the following                                                          
 INPUT CARD> $guess guess=HUCKEL $end                                                       
 INPUT CARD>                                                                                
 INPUT CARD> $statpt projct=.FALSE. $end                                                    
 INPUT CARD> $STATPT IFREEZ(1)=1,2,3 $END                                                   
 INPUT CARD>                                                                                
 INPUT CARD>! Optimize the geometry with COSMO effects                                      
 INPUT CARD> $statpt opttol=0.0005 nstep=50 $end                                            
 INPUT CARD> $contrl nzvar=1 $end                                                           
 INPUT CARD> $zmat dlc=.t. auto=.t. $end                                                    
 INPUT CARD> $contrl runtyp=OPTIMIZE maxit=200 $end                                         
 INPUT CARD>                                                                                
 INPUT CARD>! Run COSMO on perfect conductor                                                
 INPUT CARD> $COSGMS PRFCND=.TRUE. $end                                                     
 INPUT CARD>                                                                                
 INPUT CARD>! Specifying RSOLV                                                              
 INPUT CARD> $COSGMS COSRAD = 1.4 $end                                                      
 INPUT CARD>                                                                                
 INPUT CARD>! available memory                                                              
 INPUT CARD> $SYSTEM MWORDS=40 $END                                                         
 INPUT CARD>                                                                                
 INPUT CARD> $DATA                                                                          
 INPUT CARD>Cyclooctene, ID: C931884                                                        
 INPUT CARD>C1                                                                              
 INPUT CARD>C      6.0      3.8277000000    1.7348000000    2.4092000000                    
 INPUT CARD>C      6.0      2.6419000000    1.0525000000    1.7362000000                    
 INPUT CARD>C      6.0      4.6626000000    2.6064000000    1.4816000000                    
 INPUT CARD>C      6.0      1.2987000000    1.7083000000    2.0347000000                    
 INPUT CARD>C      6.0      1.0830000000    3.0357000000    1.3173000000                    
 INPUT CARD>C      6.0      1.7703000000    4.1668000000    2.0019000000                    
 INPUT CARD>C      6.0      3.0441000000    4.4891000000    1.7642000000                    
 INPUT CARD>C      6.0      3.8886000000    3.7293000000    0.8022000000                    
 INPUT CARD>H      1.0      4.4918000000    0.9625000000    2.8460000000                    
 INPUT CARD>H      1.0      3.4772000000    2.3418000000    3.2690000000                    
 INPUT CARD>H      1.0      2.8012000000    0.9941000000    0.6404000000                    
 INPUT CARD>H      1.0      2.5939000000    0.0000000000    2.0804000000                    
   40000000 WORDS OF MEMORY AVAILABLE

     BASIS OPTIONS
     -------------
     GBASIS=N311         IGAUSS=       6      POLAR=POPN311 
     NDFUNC=       1     NFFUNC=       0     DIFFSP=       F
     NPFUNC=       1      DIFFS=       F     BASNAM=        


     RUN TITLE
     ---------
 Cyclooctene, ID: C931884                                                        

 THE POINT GROUP OF THE MOLECULE IS C1      
 THE ORDER OF THE PRINCIPAL AXIS IS     0

 ATOM      ATOMIC                      COORDINATES (BOHR)
           CHARGE         X                   Y                   Z
 C           6.0     7.2333041632        3.2782966435        4.5527278496
 C           6.0     4.9924670870        1.9889366021        3.2809422599
 C           6.0     8.8110363904        4.9253818144        2.7998180234
 C           6.0     2.4541871403        3.2282189048        3.8450254672
 C           6.0     2.0465732447        5.7366411809        2.4893360436
 C           6.0     3.3453819161        7.8741102456        3.7830424548
 C           6.0     5.7525148792        8.4831689315        3.3338545875
 C           6.0     7.3483884759        7.0473551260        1.5159381874
 H           1.0     8.4882711916        1.8188612632        5.3781601611
 H           1.0     6.5709552045        4.4253603180        6.1775142539
 H           1.0     5.2935004368        1.8785766044        1.2101805225
 H           1.0     4.9017602396        0.0000000000        3.9313859449
 H           1.0    10.3931149873        5.7424993315        3.9015282743
 H           1.0     9.7035539744        3.7371221133        1.3233751092
 H           1.0     0.9322018297        1.9082453024        3.2709267121
 H           1.0     2.2230736520        3.4905128719        5.9093621362
 H           1.0     2.7446380246        5.5968014578        0.5072024551
 H           1.0     0.0000000000        6.1472786381        2.3602677587
 H           1.0     2.2253413231        8.9461517985        5.1553614671
 H           1.0     6.6514575316       10.0631688298        4.3235040873
 H           1.0     6.1172319949        6.2534812386        0.0000000000
 H           1.0     8.6795114616        8.3437071536        0.5552014952

          INTERNUCLEAR DISTANCES (ANGS.)




     $CONTRL OPTIONS
     ---------------
 SCFTYP=RHF          RUNTYP=OPTIMIZE     EXETYP=RUN     
 MPLEVL=       0     CITYP =NONE         CCTYP =NONE         VBTYP =NONE    
 DFTTYP=NONE         TDDFT =NONE    
 MULT  =       1     ICHARG=       0     NZVAR =       1     COORD =UNIQUE  
 PP    =NONE         RELWFN=NONE         LOCAL =NONE         NUMGRD=       F
 ISPHER=      -1     NOSYM =       0     MAXIT =     200     UNITS =ANGS    
 PLTORB=       F     MOLPLT=       F     AIMPAC=       F     FRIEND=        
 NPRINT=       7     IREST =       0     GEOM  =INPUT   
 NORMF =       0     NORMP =       0     ITOL  =      20     ICUT  =       9
 INTTYP=BEST         GRDTYP=BEST         QMTTOL= 1.0E-06

     $SYSTEM OPTIONS
     ---------------
  REPLICATED MEMORY=    40000000 WORDS (ON EVERY NODE).
 DISTRIBUTED MEMDDI=           0 MILLION WORDS IN AGGREGATE,
 MEMDDI DISTRIBUTED OVER   1 PROCESSORS IS           0 WORDS/PROCESSOR.
 TOTAL MEMORY REQUESTED ON EACH PROCESSOR=    40000000 WORDS.
 TIMLIM=       10000.00 MINUTES, OR       6.9 DAYS.
 PARALL= F  BALTYP=  DLB     KDIAG=    0  COREFL= F
 MXSEQ2=     300 MXSEQ3=     150  mem10=         0

     $COSGMS OPTIONS
     ---------------
     EPSI  =   INFTY     NSPA  =      92     COSRAD=    1.40
     DISEX =   10.00     OUTCHG=DBLCAV       COSBUG=       F
     COSWRT=       F     DCOSMO=       F

     SYMMETRY COORDINATES WILL NOT BE USED FOR 
     THE COSMO CALCULATION, EVEN IF SPECIFIED:
         -- SWITCHING TO C1 POINT GROUP --


     DEFINITION OF CAVITY
     ---------------------------
     ATOM         COORDINATES           RADIUS 
     1    7.2333    3.2783    4.5527    2.0000
     2    4.9925    1.9889    3.2809    2.0000
     3    8.8110    4.9254    2.7998    2.0000
     4    2.4542    3.2282    3.8450    2.0000
     5    2.0466    5.7366    2.4893    2.0000
     6    3.3454    7.8741    3.7830    2.0000
     7    5.7525    8.4832    3.3339    2.0000
     8    7.3484    7.0474    1.5159    2.0000
     9    8.4883    1.8189    5.3782    1.3000
    10    6.5710    4.4254    6.1775    1.3000
    11    5.2935    1.8786    1.2102    1.3000
    12    4.9018    0.0000    3.9314    1.3000
    13   10.3931    5.7425    3.9015    1.3000
    14    9.7036    3.7371    1.3234    1.3000
    15    0.9322    1.9082    3.2709    1.3000
    16    2.2231    3.4905    5.9094    1.3000
    17    2.7446    5.5968    0.5072    1.3000
    18    0.0000    6.1473    2.3603    1.3000
    19    2.2253    8.9462    5.1554    1.3000
    20    6.6515   10.0632    4.3235    1.3000
    21    6.1172    6.2535    0.0000    1.3000
    22    8.6795    8.3437    0.5552    1.3000

          ----------------
          PROPERTIES INPUT
          ----------------

     MOMENTS            FIELD           POTENTIAL          DENSITY
 IEMOM =       1   IEFLD =       0   IEPOT =       0   IEDEN =       0
 WHERE =COMASS     WHERE =NUCLEI     WHERE =NUCLEI     WHERE =NUCLEI  
 OUTPUT=BOTH       OUTPUT=BOTH       OUTPUT=BOTH       OUTPUT=BOTH    
 IEMINT=       0   IEFINT=       0                     IEDINT=       0
                                                       MORB  =       0
          EXTRAPOLATION IN EFFECT
          SOSCF IN EFFECT
 ORBITAL PRINTING OPTION: NPREO=     1   236     2     1

     -------------------------------
     INTEGRAL TRANSFORMATION OPTIONS
     -------------------------------
     NWORD  =            0
     CUTOFF = 1.0E-09     MPTRAN =       0
     DIRTRF =       T     AOINTS =DUP     

          ----------------------
          INTEGRAL INPUT OPTIONS
          ----------------------
 NOPK  =       1 NORDER=       0 SCHWRZ=       T


 -----------------------------------------------
  STATISTICS ON AUTOMATIC COORDINATE GENERATION 
 -----------------------------------------------
  NUMBER OF USER SPECIFIED BONDS                             0
  NUMBER OF BONDS                                           22
  NUMBER OF ANGLES                                          42
  NUMBER OF TORSIONS                                        61
  NUMBER OF EXTRA COORD.                                     0
  NUMBER OF EXTRA COORD. FOR CONSTRAINTS                     0
  NUMBER OF CONSTRAINED COORD.                               0

  TOTAL NUMBER OF PRIMITIVES                               125
 -----------------------------------------------

   --- ENCODED Z MATRIX ---
 COORD  TYPE   I   J   K   L   M   N
    1      1    1  10
    2      1    1   9
    3      1    1   2
    4      1    1   3
    5      1    2  12
    6      1    2  11
    7      1    2   4
    8      1    3  14
    9      1    3  13
   10      1    3   8
   11      1    4  15
   12      1    4  16
   13      1    4   5
   14      1    5   6
   15      1    5  18
   16      1    5  17
   17      1    6   7
   18      1    6  19
   19      1    7  20
   20      1    7   8
   21      1    8  22
   22      1    8  21
   23      2    1   2  11
   24      2    1   3  13
   25      2    1   3   8
   26      2    1   3  14
   27      2    1   2  12
   28      2    1   2   4
   29      2    2   1  10
   30      2    2   1   9
   31      2    2   1   3
   32      2    2   4   5
   33      2    2   4  15
   34      2    2   4  16
   35      2    3   1  10
   36      2    3   8  21
   37      2    3   8  22
   38      2    3   8   7
   39      2    3   1   9
   40      2    4   5  17
   41      2    4   5   6
   42      2    4   2  12
   43      2    4   2  11
   44      2    4   5  18
   45      2    5   4  16
   46      2    5   4  15
   47      2    5   6  19
   48      2    5   6   7
   49      2    6   5  18
   50      2    6   7   8
   51      2    6   7  20
   52      2    6   5  17
   53      2    7   8  21
   54      2    7   8  22
   55      2    7   6  19
   56      2    8   3  13
   57      2    8   3  14
   58      2    8   7  20
   59      2    9   1  10
   60      2   11   2  12
   61      2   13   3  14
   62      2   15   4  16
   63      2   17   5  18
   64      2   21   8  22
   65      3    1   2   4   5
   66      3    1   3   8  21
   67      3    1   2   4  16
   68      3    1   2   4  15
   69      3    1   3   8  22
   70      3    1   3   8   7
   71      3    2   1   3  14
   72      3    2   1   3  13
   73      3    2   4   5  17
   74      3    2   4   5  18
   75      3    2   4   5   6
   76      3    2   1   3   8
   77      3    3   8   7  20
   78      3    3   8   7   6
   79      3    3   1   2  11
   80      3    3   1   2   4
   81      3    3   1   2  12
   82      3    4   2   1   9
   83      3    4   2   1  10
   84      3    4   5   6  19
   85      3    4   5   6   7
   86      3    5   6   7   8
   87      3    5   6   7  20
   88      3    5   4   2  11
   89      3    5   4   2  12
   90      3    6   7   8  21
   91      3    6   7   8  22
   92      3    6   5   4  16
   93      3    6   5   4  15
   94      3    7   8   3  13
   95      3    7   8   3  14
   96      3    7   6   5  17
   97      3    7   6   5  18
   98      3    8   3   1  10
   99      3    8   7   6  19
  100      3    8   3   1   9
  101      3    9   1   3  14
  102      3    9   1   2  11
  103      3    9   1   3  13
  104      3    9   1   2  12
  105      3   10   1   3  14
  106      3   10   1   2  11
  107      3   10   1   2  12
  108      3   10   1   3  13
  109      3   11   2   4  16
  110      3   11   2   4  15
  111      3   12   2   4  16
  112      3   12   2   4  15
  113      3   13   3   8  22
  114      3   13   3   8  21
  115      3   14   3   8  22
  116      3   14   3   8  21
  117      3   15   4   5  18
  118      3   15   4   5  17
  119      3   16   4   5  18
  120      3   16   4   5  17
  121      3   17   5   6  19
  122      3   18   5   6  19
  123      3   19   6   7  20
  124      3   20   7   8  22
  125      3   20   7   8  21

          INDEP./SYM. INTERNAL COORDINATES
          --------------------------------
 CRD  1=   0.1291 (  3)  0.1261 (  4)  0.1118 ( 23) -0.1584 ( 28) -0.2172 ( 29)
          -0.1114 ( 30)  0.5226 ( 31) -0.1500 ( 35) -0.1961 ( 38) -0.1754 ( 39)
          -0.2172 ( 41) -0.1552 ( 47)  0.3059 ( 48)  0.2076 ( 50) -0.1086 ( 51)
           0.1297 ( 52) -0.1511 ( 55)  0.1244 ( 78)  0.1271 ( 87)  0.1039 ( 91)
 CRD  2=  -0.1193 (  7)  0.1213 ( 25) -0.1322 ( 26)  0.1322 ( 27) -0.3142 ( 28)
          -0.1455 ( 31)  0.1876 ( 32) -0.1438 ( 34)  0.1212 ( 35)  0.1528 ( 36)
           0.1037 ( 37) -0.4594 ( 38)  0.1093 ( 40)  0.2114 ( 43)  0.1142 ( 47)
          -0.1282 ( 48)  0.1102 ( 50)  0.2121 ( 53)  0.1019 ( 54) -0.1384 ( 56)
          -0.1243 ( 58)  0.1355 ( 70)  0.1153 ( 74)  0.1283 ( 75) -0.1084 ( 77)
          -0.1373 ( 80) -0.1003 ( 86)  0.1011 ( 94)
 CRD  3=  -0.1666 (  4) -0.1817 ( 13) -0.1648 ( 25)  0.1294 ( 26)  0.2056 ( 28)
           0.1039 ( 29) -0.1244 ( 35)  0.1999 ( 36) -0.1407 ( 37)  0.2173 ( 40)
          -0.4134 ( 41) -0.1253 ( 45)  0.1720 ( 49) -0.1177 ( 53)  0.1568 ( 54)
          -0.1161 ( 66) -0.1400 ( 69) -0.1829 ( 70) -0.2020 ( 77) -0.2541 ( 78)
           0.1133 ( 84)  0.1492 ( 85) -0.1380 ( 90) -0.1277 ( 91)
 CRD  4=  -0.1232 (  3) -0.2861 (  7)  0.1661 ( 14) -0.1052 ( 15) -0.1156 ( 17)
          -0.2901 ( 20)  0.1731 ( 25) -0.1060 ( 30) -0.1839 ( 32)  0.1149 ( 34)
           0.1299 ( 36) -0.1315 ( 38)  0.1321 ( 46)  0.1300 ( 48) -0.2512 ( 50)
           0.1646 ( 51) -0.1452 ( 56) -0.1065 ( 75)  0.1342 ( 76)  0.1833 ( 84)
           0.1792 ( 85)  0.2152 ( 86)  0.1566 ( 87)  0.1209 ( 96)  0.2111 ( 99)
           0.1251 (121)  0.1525 (123)  0.1095 (125)
 CRD  5=   0.2256 (  3) -0.3274 ( 10)  0.1159 ( 11) -0.1803 ( 13)  0.1322 ( 14)
           0.1935 ( 17) -0.1235 ( 23)  0.2186 ( 28)  0.1574 ( 30) -0.2995 ( 32)
           0.1551 ( 33)  0.1134 ( 35) -0.1715 ( 39)  0.1189 ( 41) -0.1694 ( 42)
          -0.1473 ( 44)  0.1349 ( 45)  0.1151 ( 49) -0.1017 ( 52) -0.1587 ( 58)
           0.1422 ( 75) -0.1105 ( 76) -0.1634 ( 79) -0.1778 ( 80) -0.1292 ( 81)
           0.1273 ( 92)  0.1099 ( 93)  0.1255 ( 96) -0.1145 ( 98)
 CRD  6=   0.1003 (  2)  0.2131 (  3)  0.3225 (  4)  0.1205 (  5)  0.2618 (  7)
           0.2739 ( 10)  0.1246 ( 11)  0.3451 ( 13)  0.3117 ( 14)  0.1108 ( 15)
           0.3027 ( 17)  0.1074 ( 21)  0.1011 ( 25)  0.1327 ( 36)  0.1231 ( 40)
          -0.1135 ( 52) -0.1025 ( 58) -0.1299 ( 65)  0.1334 ( 75)  0.1113 ( 92)
 CRD  7=   0.3105 (  3)  0.4045 (  4)  0.1029 (  9)  0.1211 ( 10) -0.2388 ( 13)
          -0.1859 ( 14) -0.1187 ( 15) -0.2220 ( 17)  0.1726 ( 24) -0.2167 ( 25)
           0.1123 ( 26)  0.2246 ( 27)  0.1282 ( 41) -0.1348 ( 42) -0.1062 ( 45)
          -0.1285 ( 54) -0.1465 ( 65) -0.1451 ( 68)  0.1030 ( 81)  0.1612 ( 85)
          -0.1303 ( 87) -0.1395 ( 91)
 CRD  8=   0.1871 (  3)  0.4049 (  7) -0.2827 ( 10)  0.2568 ( 13) -0.2902 ( 17)
          -0.1111 ( 19) -0.2905 ( 20) -0.1275 ( 21)  0.1298 ( 30)  0.1821 ( 42)
           0.1850 ( 44)  0.1034 ( 47) -0.1099 ( 49) -0.1271 ( 55) -0.1010 ( 72)
          -0.1215 ( 77) -0.1679 ( 78)  0.1158 ( 80)  0.1341 ( 82)  0.1168 ( 97)
 CRD  9=  -0.1371 (  2) -0.2163 (  4) -0.1901 ( 10)  0.3686 ( 14)  0.1293 ( 18)
           0.1012 ( 19) -0.1157 ( 21)  0.1794 ( 24) -0.1829 ( 25)  0.1711 ( 31)
          -0.1774 ( 33) -0.1529 ( 35) -0.1088 ( 37)  0.1775 ( 38)  0.1914 ( 46)
           0.2326 ( 47) -0.1513 ( 55)  0.1990 ( 57) -0.1356 ( 65)  0.1047 ( 70)
           0.1488 ( 76) -0.1116 ( 83) -0.1493 ( 88) -0.1049 ( 89)  0.1064 (100)
 CRD 10=  -0.2095 (  3) -0.1770 ( 10)  0.2905 ( 13) -0.2286 ( 14)  0.1112 ( 18)
           0.3289 ( 20) -0.1032 ( 32) -0.1622 ( 33)  0.1621 ( 34)  0.1204 ( 40)
           0.2349 ( 46) -0.1663 ( 48) -0.1135 ( 49)  0.1177 ( 50) -0.1864 ( 51)
          -0.1843 ( 52)  0.1373 ( 53)  0.1016 ( 54)  0.1772 ( 55) -0.1530 ( 65)
          -0.1123 ( 66) -0.1029 ( 67) -0.1757 ( 73) -0.1067 ( 89)  0.1215 ( 97)
 CRD 11=   0.3627 (  3) -0.1152 ( 10) -0.1166 ( 14)  0.1149 ( 17)  0.1749 ( 19)
           0.2561 ( 20)  0.1151 ( 24) -0.1803 ( 26)  0.1169 ( 27) -0.1141 ( 28)
           0.1206 ( 30) -0.1460 ( 37) -0.3200 ( 47)  0.1781 ( 48) -0.1399 ( 49)
          -0.2225 ( 50)  0.1957 ( 54)  0.1418 ( 55) -0.1773 ( 56)  0.1049 ( 57)
           0.2650 ( 58)  0.1216 ( 69)  0.1180 (100)
 CRD 12=   0.1258 ( 10)  0.1375 ( 14) -0.3167 ( 17)  0.2127 ( 20)  0.3197 ( 47)
          -0.4281 ( 51)  0.1034 ( 54) -0.3873 ( 55)  0.4082 ( 58)
 CRD 13=   0.2676 (  3) -0.1164 (  4) -0.4205 (  7)  0.1613 ( 10)  0.3028 ( 13)
          -0.1177 ( 17) -0.1032 ( 19) -0.1360 ( 20)  0.1265 ( 23) -0.1483 ( 24)
           0.1044 ( 30) -0.1257 ( 33) -0.1605 ( 34)  0.1510 ( 40) -0.1419 ( 42)
          -0.1860 ( 43)  0.1488 ( 45)  0.1162 ( 46) -0.1027 ( 52)  0.1503 ( 56)
           0.1079 ( 93) -0.1244 ( 98)  0.1013 (104) -0.1199 (106) -0.1430 (109)
           0.1331 (112)  0.1032 (117) -0.1112 (120)
 CRD 14=  -0.3764 (  4)  0.2086 (  7)  0.3461 ( 10) -0.1257 ( 24) -0.1900 ( 26)
           0.1277 ( 30)  0.1734 ( 34)  0.1840 ( 37) -0.2133 ( 39) -0.1108 ( 45)
           0.1083 ( 51) -0.1210 ( 54)  0.1304 ( 55)  0.1143 ( 56)  0.2219 ( 57)
          -0.1085 ( 58) -0.1243 ( 71)  0.1240 ( 94)  0.1255 (103) -0.1358 (105)
           0.1345 (114) -0.1256 (115)  0.1040 (125)
 CRD 15=   0.1116 (  2)  0.1849 (  3) -0.1119 (  8) -0.2125 ( 13)  0.1374 ( 14)
           0.1042 ( 18)  0.1139 ( 20)  0.2588 ( 23)  0.1646 ( 25)  0.1223 ( 30)
           0.1217 ( 32) -0.1281 ( 33)  0.1948 ( 34) -0.1207 ( 36)  0.1461 ( 42)
          -0.2683 ( 43) -0.2107 ( 44) -0.2534 ( 45)  0.1043 ( 47)  0.1630 ( 49)
           0.1406 ( 53) -0.1171 ( 57)  0.1031 ( 67) -0.1516 ( 74) -0.1021 ( 75)
           0.1883 ( 80)  0.1772 ( 82)  0.1437 ( 83) -0.1226 ( 97) -0.1078 (110)
           0.1172 (111)
 CRD 16=  -0.1608 (  4) -0.1411 (  9) -0.1342 ( 10) -0.1793 ( 23) -0.2307 ( 24)
           0.1278 ( 25)  0.1543 ( 26)  0.1929 ( 27)  0.3210 ( 29) -0.3352 ( 35)
           0.1420 ( 39) -0.1185 ( 40) -0.1189 ( 42)  0.1882 ( 43) -0.2106 ( 57)
          -0.1067 ( 58) -0.1358 ( 66) -0.1125 ( 67) -0.1354 ( 68) -0.1193 ( 69)
           0.1187 ( 71)  0.1706 ( 79)  0.1404 ( 81) -0.1159 ( 83)
 CRD 17=   0.1423 ( 11) -0.2542 ( 18)  0.1902 ( 19) -0.1325 ( 30)  0.1006 ( 33)
          -0.2953 ( 36)  0.1677 ( 37)  0.2848 ( 40) -0.1191 ( 44) -0.1420 ( 47)
           0.1933 ( 48) -0.1689 ( 50) -0.1988 ( 52)  0.1618 ( 53) -0.1210 ( 54)
           0.1225 ( 58)  0.1024 ( 71)  0.1062 ( 72)  0.1028 ( 74)  0.1098 ( 75)
           0.1146 ( 77)  0.1244 ( 78)  0.1263 ( 85) -0.1915 ( 86) -0.1819 ( 87)
          -0.1101 ( 89) -0.1096 ( 90) -0.1541 ( 99) -0.1195 (121) -0.1445 (123)
          -0.1194 (125)
 CRD 18=   0.1882 ( 14)  0.1323 ( 16)  0.2120 ( 18)  0.2351 ( 19)  0.1971 ( 20)
           0.1410 ( 22) -0.1978 ( 36)  0.2320 ( 37) -0.1971 ( 40)  0.2270 ( 44)
          -0.1616 ( 49)  0.2754 ( 52)  0.2816 ( 53) -0.1524 ( 54) -0.1007 ( 66)
           0.1012 ( 73) -0.1925 ( 90) -0.1921 ( 91) -0.1132 ( 92)  0.1051 ( 94)
           0.1852 ( 96)  0.1882 ( 97)  0.1106 (121)  0.1136 (122) -0.1136 (124)
          -0.1140 (125)
 CRD 19=  -0.2546 (  1) -0.1400 (  3) -0.2591 (  6) -0.1452 (  9) -0.1326 ( 11)
           0.1298 ( 12)  0.1600 ( 16)  0.1040 ( 19) -0.1978 ( 23)  0.1921 ( 27)
          -0.1915 ( 29)  0.1883 ( 30)  0.1068 ( 33) -0.1086 ( 34) -0.1520 ( 39)
           0.1102 ( 40) -0.1491 ( 42) -0.1184 ( 44)  0.1731 ( 45) -0.1931 ( 46)
           0.1319 ( 49) -0.1059 ( 54) -0.1266 ( 56) -0.1653 ( 67) -0.1726 ( 68)
          -0.1369 ( 71) -0.1606 ( 72)  0.1105 ( 81)  0.1086 ( 82)  0.1658 ( 88)
           0.1633 ( 89)  0.1372 ( 98)  0.1360 (100)  0.1232 (104)
 CRD 20=  -0.2823 (  6) -0.1033 (  7)  0.2022 (  8) -0.2240 (  9)  0.1055 ( 11)
          -0.4178 ( 12) -0.1020 ( 13) -0.2676 ( 16) -0.2136 ( 22)  0.1280 ( 30)
          -0.1277 ( 39) -0.1211 ( 40)  0.1048 ( 42) -0.1290 ( 43)  0.1058 ( 44)
          -0.1381 ( 65) -0.1073 ( 69) -0.1023 ( 70)  0.1508 ( 74)  0.1489 ( 75)
           0.1315 ( 82)  0.1091 ( 83) -0.1459 ( 89)  0.1113 ( 98)  0.1382 (100)
 CRD 21=   0.1598 (  1) -0.2519 (  2)  0.1748 (  5) -0.1655 (  6)  0.1388 (  9)
           0.1053 ( 11) -0.1077 ( 12) -0.2394 ( 15)  0.2328 ( 16)  0.2275 ( 18)
           0.1050 ( 26)  0.2096 ( 33) -0.1418 ( 34) -0.1342 ( 37)  0.1630 ( 42)
          -0.1101 ( 44)  0.1014 ( 45) -0.1582 ( 46)  0.1555 ( 56) -0.1222 ( 68)
           0.1383 ( 72) -0.1144 ( 79) -0.1518 ( 81) -0.1547 ( 92) -0.1908 ( 93)
          -0.1271 (112)
 CRD 22=  -0.3996 (  1) -0.2556 (  6) -0.4050 (  8)  0.2552 (  9)  0.1045 ( 11)
          -0.1969 ( 12)  0.1438 ( 24) -0.1795 ( 26) -0.1108 ( 30) -0.1350 ( 35)
           0.1181 ( 54)  0.1479 ( 66)  0.1857 ( 69)  0.1002 ( 74) -0.1541 ( 76)
           0.1258 ( 80) -0.1638 (100) -0.1028 (103)
 CRD 23=  -0.1489 (  9)  0.1406 ( 12)  0.2154 ( 16)  0.2538 ( 18) -0.3549 ( 19)
           0.2988 ( 21) -0.4184 ( 22) -0.1566 ( 26) -0.1389 ( 36)  0.1412 ( 37)
           0.1245 ( 50) -0.1273 ( 56)  0.1255 ( 57) -0.1315 ( 70)  0.1162 ( 77)
          -0.1784 ( 94) -0.2122 ( 95) -0.1012 (115)
 CRD 24=   0.1151 (  1) -0.3479 (  2)  0.4077 (  5) -0.1350 (  6) -0.1282 (  8)
           0.2093 (  9) -0.3483 ( 11)  0.2961 ( 15) -0.1360 ( 16) -0.1100 ( 18)
           0.1404 ( 21)  0.1040 ( 27) -0.1215 ( 68)  0.1026 ( 71)  0.1327 ( 72)
          -0.1048 ( 74)  0.1347 ( 82)  0.1061 ( 83)  0.1014 ( 88)  0.1238 ( 89)
           0.1114 ( 93)
 CRD 25=  -0.1027 (  8)  0.1225 ( 11) -0.1331 ( 15)  0.1970 ( 16)  0.1133 ( 21)
          -0.1874 ( 22) -0.1347 ( 23)  0.1137 ( 27) -0.1350 ( 29)  0.1153 ( 30)
           0.1441 ( 35) -0.1249 ( 39) -0.1349 ( 42)  0.1493 ( 43) -0.1291 ( 45)
           0.1146 ( 46) -0.1024 ( 49)  0.1260 ( 56) -0.1120 ( 57)  0.1032 ( 67)
           0.1462 (101)  0.1705 (102)  0.1544 (103)  0.1650 (104)  0.1547 (105)
           0.1795 (106)  0.1740 (107)  0.1629 (108)  0.1613 (109)  0.1556 (110)
           0.1535 (111)  0.1478 (112)  0.1139 (113)  0.1096 (114)  0.1065 (115)
           0.1022 (116)  0.1064 (117)  0.1002 (118)  0.1181 (119)  0.1119 (120)
 CRD 26=   0.1621 (  6) -0.1293 (  8) -0.2534 ( 15) -0.3209 ( 16)  0.5806 ( 21)
           0.3847 ( 22) -0.1193 ( 63)  0.1956 ( 64) -0.1482 ( 90)  0.1289 (116)
          -0.1096 (117) -0.1174 (119) -0.1004 (121) -0.1400 (125)
 CRD 27=  -0.1243 (  9)  0.5842 ( 15)  0.4544 ( 16)  0.3058 ( 21)  0.2054 ( 22)
           0.2282 ( 63)  0.1136 ( 64) -0.1097 ( 73)  0.1214 ( 96)  0.1108 (116)
          -0.1398 (118) -0.1272 (120)  0.1166 (121)
 CRD 28=  -0.2805 (  1)  0.2810 (  6) -0.1508 (  8)  0.1471 ( 15) -0.2010 ( 16)
          -0.4082 ( 22)  0.1094 ( 26)  0.1043 ( 45)  0.1135 ( 56) -0.1205 ( 64)
           0.1225 ( 69) -0.1116 ( 91)  0.1267 (101)  0.1565 (103)  0.1120 (105)
           0.1419 (108) -0.1372 (109) -0.1313 (110) -0.1610 (111) -0.1551 (112)
           0.1490 (113)  0.1843 (115)  0.1022 (116) -0.1147 (117) -0.1121 (118)
          -0.1240 (119) -0.1214 (120)
 CRD 29=  -0.3866 (  1) -0.2767 (  2) -0.1434 (  5)  0.4680 (  8)  0.3234 (  9)
           0.2211 ( 11)  0.3019 ( 12)  0.1567 ( 21) -0.1349 ( 59)  0.1538 ( 61)
           0.1045 ( 62)  0.1459 (101) -0.1178 (108)  0.1187 (114)
 CRD 30=   0.1450 (  1) -0.1358 (  5) -0.3292 (  6) -0.2920 (  8) -0.3207 (  9)
           0.3864 ( 11)  0.4977 ( 12) -0.1249 ( 61)  0.1818 ( 62) -0.1106 ( 68)
          -0.1368 (110)  0.1182 (111)  0.1005 (118)
 CRD 31=  -0.2985 (  1) -0.3953 (  2)  0.4168 (  5)  0.3332 (  6) -0.1607 (  8)
          -0.2764 (  9)  0.2077 ( 11)  0.1033 ( 16) -0.1452 ( 59)  0.1593 ( 60)
          -0.1434 (102) -0.1401 (105)  0.1458 (107)  0.1286 (109)
 CRD 32=   0.2459 (  1)  0.3630 (  2)  0.3592 (  5)  0.2640 (  6)  0.1138 (  8)
           0.3007 (  9)  0.3859 ( 11)  0.1650 ( 12)  0.1084 ( 15)  0.1403 ( 59)
           0.1436 ( 60)  0.1243 ( 62)  0.1408 (104)  0.1347 (105)  0.1252 (109)
          -0.1065 (112) -0.1184 (120)
 CRD 33=  -0.2752 (  2) -0.2866 (  5) -0.2194 (  8)  0.1966 (  9)  0.2439 ( 11)
          -0.1535 ( 12)  0.1197 ( 15)  0.1253 ( 37) -0.1100 ( 44)  0.1009 ( 79)
           0.1032 ( 83)  0.1345 ( 86)  0.1351 ( 87) -0.1621 ( 91) -0.1570 ( 97)
           0.1343 ( 99)  0.1455 (102)  0.1954 (106)  0.1315 (107) -0.1131 (113)
          -0.1427 (114) -0.1264 (116) -0.1002 (117) -0.1264 (118) -0.1231 (119)
          -0.1493 (120) -0.1570 (122)  0.1349 (123) -0.1635 (124)
 CRD 34=   0.1724 (  1) -0.1799 (  2) -0.2013 (  5)  0.2009 (  6)  0.1986 ( 15)
          -0.1825 ( 16) -0.1775 ( 21)  0.1717 ( 22)  0.1362 ( 77)  0.1297 ( 78)
           0.1149 ( 81)  0.1011 ( 82)  0.1332 ( 84)  0.1239 ( 85) -0.1495 ( 86)
          -0.1562 ( 87)  0.1325 ( 90)  0.2053 ( 91)  0.1249 ( 96)  0.2170 ( 97)
          -0.1590 ( 99)  0.1302 (102)  0.1589 (104)  0.1192 (106)  0.1480 (107)
           0.1341 (121)  0.2262 (122) -0.1657 (123)  0.2118 (124)  0.1390 (125)
 CRD 35=  -0.1322 (  5)  0.1243 (  6) -0.2092 (  8)  0.2048 (  9) -0.2611 ( 11)
           0.2527 ( 12) -0.1484 ( 15)  0.1497 ( 16) -0.1013 ( 27) -0.1015 ( 67)
          -0.1228 ( 68) -0.1273 ( 69)  0.1498 ( 74) -0.1003 ( 88) -0.1501 ( 89)
           0.1225 ( 93) -0.1044 ( 94)  0.1221 (100)  0.1472 (101)  0.1454 (103)
           0.1082 (105)  0.1065 (108) -0.1270 (109) -0.1483 (110) -0.1767 (111)
          -0.1981 (112) -0.1703 (113) -0.1376 (114) -0.1558 (115) -0.1230 (116)
           0.2042 (117)  0.1466 (118)  0.1729 (119)  0.1152 (120)
 CRD 36=   0.2085 (  1) -0.2124 (  2) -0.1824 (  5)  0.1727 (  6)  0.1018 (  8)
          -0.1015 (  9) -0.1275 ( 15)  0.1270 ( 16) -0.1531 ( 18)  0.1927 ( 19)
           0.1702 ( 21) -0.1575 ( 22)  0.1026 ( 47) -0.1004 ( 58) -0.1087 ( 68)
           0.1343 ( 69) -0.1054 ( 71) -0.1388 ( 72)  0.1374 ( 81)  0.1369 ( 82)
          -0.1485 (100) -0.1615 (101)  0.1271 (102) -0.1949 (103)  0.1862 (104)
          -0.1126 (105)  0.1284 (107) -0.1460 (108) -0.1064 (110) -0.1421 (112)
           0.1442 (113)  0.1547 (115)  0.1050 (117)
 CRD 37=  -0.1353 ( 14) -0.1011 ( 15)  0.1046 ( 16) -0.3923 ( 18)  0.1817 ( 19)
           0.2267 ( 20) -0.1290 ( 22) -0.1247 ( 37)  0.2677 ( 47)  0.3070 ( 51)
           0.1063 ( 54) -0.2259 ( 55) -0.3344 ( 58) -0.1412 ( 66) -0.1049 ( 73)
          -0.1022 ( 75) -0.1089 ( 92) -0.1169 ( 93) -0.1112 ( 94) -0.1659 (114)
          -0.1490 (116) -0.1196 (118) -0.1116 (120)
 CRD 38=   0.1184 ( 13)  0.2707 ( 14) -0.2142 ( 17) -0.4122 ( 18) -0.5318 ( 19)
           0.1882 ( 20) -0.1092 ( 40) -0.1074 ( 44) -0.2071 ( 47)  0.1039 ( 49)
           0.1396 ( 52)  0.1256 ( 53)  0.2273 ( 55)  0.1111 (118)  0.1144 (120)
          -0.1034 (125)
 CRD 39=   0.1013 (  9)  0.1551 ( 10)  0.1533 ( 13) -0.1365 ( 14) -0.2060 ( 16)
          -0.2028 ( 17)  0.2371 ( 18)  0.2491 ( 19) -0.1562 ( 20) -0.2157 ( 22)
          -0.1102 ( 36) -0.1512 ( 37) -0.1135 ( 40) -0.1763 ( 44)  0.1351 ( 63)
           0.1360 ( 64) -0.1971 ( 77)  0.2129 ( 84)  0.1883 ( 87)  0.1327 ( 91)
           0.1039 ( 96) -0.1389 ( 97) -0.2063 ( 99) -0.1154 (105)  0.2968 (121)
          -0.2789 (125)
 CRD 40=  -0.1234 (  1)  0.1376 (  2)  0.1237 (  3)  0.1784 (  8) -0.1535 (  9)
           0.1885 ( 18) -0.2027 ( 19) -0.2034 ( 21)  0.1264 ( 22) -0.1577 ( 26)
          -0.1183 ( 30) -0.1672 ( 36) -0.1231 ( 37)  0.1023 ( 40)  0.1183 ( 48)
          -0.1249 ( 49) -0.1085 ( 50)  0.1506 ( 51) -0.1104 ( 52)  0.1010 ( 53)
           0.1728 ( 54) -0.2009 ( 55)  0.1568 ( 56)  0.1209 ( 57)  0.1181 ( 69)
           0.1548 ( 72)  0.1101 ( 74)  0.1009 ( 83)  0.1240 ( 87) -0.1723 ( 90)
          -0.1120 ( 95) -0.1030 (101)  0.1345 (106)  0.1233 (107)  0.1250 (108)
           0.1231 (113) -0.1090 (116)  0.1467 (123) -0.2289 (125)
 CRD 41=   0.1401 (  5)  0.2345 (  7) -0.1139 (  9)  0.1193 ( 11) -0.1525 ( 14)
          -0.1776 ( 15)  0.2422 ( 17) -0.1573 ( 18) -0.1243 ( 21)  0.1349 ( 23)
          -0.1113 ( 24)  0.1039 ( 27) -0.1511 ( 29) -0.1496 ( 30)  0.1502 ( 35)
           0.1729 ( 39) -0.1358 ( 40) -0.1129 ( 42)  0.1152 ( 45) -0.1417 ( 51)
           0.1122 ( 61) -0.1296 ( 67) -0.1476 ( 88) -0.1201 ( 95)  0.1344 ( 96)
           0.1259 (105)  0.1133 (106)  0.1516 (107)  0.1033 (108) -0.2630 (109)
          -0.1231 (110)  0.1403 (114) -0.1324 (115)  0.1822 (121)
 CRD 42=  -0.1276 (  1)  0.1506 (  2)  0.1072 (  3)  0.1297 (  4) -0.1207 ( 13)
          -0.1861 ( 15)  0.1066 ( 16)  0.1857 ( 17) -0.1455 ( 23) -0.1788 ( 27)
          -0.1925 ( 33) -0.1806 ( 34) -0.1410 ( 39)  0.2157 ( 42)  0.1926 ( 43)
           0.1079 ( 45)  0.1572 ( 46)  0.1407 ( 79) -0.1230 ( 81)  0.1196 ( 82)
          -0.1568 ( 92)  0.1038 ( 93)  0.1239 ( 96) -0.1370 ( 98)  0.2473 (102)
          -0.1490 (105)  0.1797 (106) -0.1133 (108)  0.1291 (110) -0.2188 (119)
          -0.2341 (120)
 CRD 43=   0.1673 (  3) -0.2204 (  4)  0.1842 (  5) -0.2286 (  6) -0.1097 ( 11)
           0.2088 ( 12) -0.1674 ( 13) -0.1535 ( 16) -0.2818 ( 17)  0.2011 ( 18)
           0.1732 ( 20)  0.1181 ( 21) -0.1053 ( 27) -0.1108 ( 34)  0.1058 ( 35)
           0.1025 ( 45)  0.1727 ( 46)  0.1091 ( 48)  0.1921 ( 51) -0.1214 ( 58)
           0.1014 ( 63) -0.1195 ( 64)  0.1686 ( 68)  0.1038 ( 74) -0.1241 ( 89)
           0.1028 (105)  0.1407 (106)  0.1259 (107) -0.1409 (111) -0.1066 (122)
           0.1544 (125)
 CRD 44=   0.1274 (  2)  0.1448 (  4) -0.2285 ( 10)  0.2025 ( 14) -0.2816 ( 17)
           0.2643 ( 19) -0.1345 ( 22) -0.1980 ( 24) -0.1401 ( 26) -0.1245 ( 47)
          -0.1124 ( 48)  0.1625 ( 50)  0.2373 ( 55)  0.1654 ( 56)  0.1862 ( 57)
          -0.1370 ( 59)  0.1003 ( 64) -0.1042 ( 69) -0.1201 ( 71)  0.1084 ( 83)
          -0.1072 ( 95)  0.1238 ( 99) -0.1110 (101) -0.1879 (105)  0.1484 (106)
           0.1336 (107)  0.1486 (114) -0.1612 (115) -0.1435 (121)  0.1378 (124)
 CRD 45=   0.2073 (  1) -0.1716 (  6) -0.2080 (  8)  0.1360 (  9) -0.1353 ( 11)
           0.1786 ( 12)  0.1229 ( 14)  0.2536 ( 17) -0.1791 ( 18) -0.1974 ( 19)
           0.1336 ( 20) -0.1245 ( 49) -0.1170 ( 54) -0.1298 ( 59)  0.1516 ( 60)
           0.1074 ( 63)  0.1244 ( 64) -0.1067 ( 72) -0.1074 ( 82) -0.1022 ( 89)
          -0.1519 ( 93)  0.1576 ( 94)  0.1406 (100) -0.1331 (102) -0.1157 (108)
           0.1207 (109)  0.1175 (110)  0.2116 (114)  0.1467 (116) -0.2031 (118)
          -0.1265 (120) -0.1120 (125)
 CRD 46=  -0.1710 (  4)  0.2100 (  7)  0.2931 ( 10) -0.2857 ( 13)  0.2364 ( 14)
           0.1661 ( 16) -0.2851 ( 20) -0.1435 ( 22) -0.1170 ( 36) -0.1463 ( 37)
           0.1367 ( 44) -0.1060 ( 47) -0.1450 ( 51) -0.1611 ( 52)  0.1811 ( 53)
           0.1323 ( 55)  0.1218 ( 58)  0.1740 ( 91)  0.1103 ( 93)  0.1239 ( 95)
           0.1718 ( 97)  0.1048 ( 99) -0.1360 (114) -0.1467 (120)  0.1031 (122)
           0.1493 (123)  0.1288 (124)
 CRD 47=  -0.1365 (  1)  0.2641 (  3) -0.1924 (  4) -0.2310 (  7)  0.1442 (  8)
          -0.1462 (  9) -0.1285 ( 11)  0.1196 ( 12)  0.1199 ( 13)  0.2032 ( 14)
          -0.2299 ( 18)  0.1770 ( 19) -0.1362 ( 20)  0.1025 ( 24) -0.1134 ( 30)
           0.1316 ( 33) -0.1347 ( 45) -0.1915 ( 48)  0.1635 ( 50) -0.1863 ( 51)
           0.1785 ( 55) -0.1359 ( 57)  0.1088 ( 67)  0.1210 ( 71) -0.1494 ( 93)
          -0.1233 ( 94) -0.1237 ( 99) -0.1494 (100)  0.1316 (105)  0.1370 (109)
          -0.1140 (113) -0.1186 (114) -0.1371 (118) -0.1229 (124)
 CRD 48=   0.1131 (  2) -0.1502 (  3)  0.1030 (  5) -0.1637 (  6)  0.1171 (  8)
           0.1555 ( 12) -0.1056 ( 14)  0.2010 ( 17) -0.1101 ( 18) -0.2447 ( 20)
           0.1325 ( 29)  0.1058 ( 47) -0.1057 ( 48) -0.1051 ( 51)  0.1427 ( 52)
           0.1129 ( 53) -0.1445 ( 61) -0.1957 ( 62) -0.1013 ( 64)  0.1242 ( 68)
           0.1080 ( 69)  0.1069 ( 72)  0.1079 ( 77)  0.1187 ( 81) -0.1417 ( 87)
          -0.1878 ( 93)  0.1046 ( 99)  0.1428 (103)  0.1407 (104) -0.1534 (105)
           0.1500 (107) -0.1182 (109) -0.1330 (111) -0.1623 (114)  0.1431 (115)
          -0.1404 (117)  0.1602 (120) -0.1675 (122)  0.1021 (124)  0.1166 (125)
 CRD 49=  -0.1326 (  1)  0.1915 (  2) -0.1219 (  3) -0.1215 (  4)  0.1901 (  5)
           0.1512 (  9) -0.1410 ( 10)  0.1071 ( 11) -0.1274 ( 13) -0.1155 ( 19)
           0.1682 ( 20)  0.1016 ( 21) -0.1194 ( 22)  0.1158 ( 26)  0.1106 ( 35)
          -0.1071 ( 49) -0.1022 ( 50) -0.1813 ( 54) -0.1991 ( 60) -0.1271 ( 61)
          -0.1423 ( 69) -0.1051 ( 77) -0.1067 ( 81)  0.1225 ( 87) -0.1057 ( 88)
           0.1186 ( 89)  0.1244 ( 90)  0.1780 ( 95) -0.1070 ( 96) -0.1202 ( 99)
          -0.1589 (101)  0.1556 (102) -0.1734 (105)  0.2126 (106) -0.1898 (109)
          -0.1654 (110) -0.1484 (113)  0.1266 (116)  0.1238 (119)  0.1296 (122)
 CRD 50=  -0.2064 (  3)  0.1558 (  4)  0.2298 (  7)  0.1088 (  8) -0.2222 ( 10)
          -0.1222 ( 11)  0.2461 ( 14) -0.1905 ( 15) -0.1035 ( 16)  0.1205 ( 23)
           0.1378 ( 27) -0.1236 ( 34) -0.1781 ( 43) -0.1038 ( 52)  0.2196 ( 63)
           0.1544 ( 72)  0.1833 ( 74)  0.1200 ( 82)  0.1081 ( 89)  0.1393 (104)
          -0.1419 (106)  0.1072 (108)  0.1611 (111)  0.1530 (112)  0.1166 (117)
          -0.1519 (118) -0.2165 (120)  0.1337 (121) -0.1214 (123)
 CRD 51=   0.1514 (  3) -0.2140 (  4)  0.1381 (  9) -0.1091 ( 11) -0.1037 ( 12)
           0.2832 ( 13) -0.1253 ( 14) -0.1331 ( 15) -0.1140 ( 19)  0.2009 ( 21)
          -0.1014 ( 30)  0.1067 ( 35)  0.1383 ( 39) -0.1028 ( 45)  0.1044 ( 48)
           0.1230 ( 49) -0.1388 ( 50)  0.1409 ( 53)  0.1111 ( 58) -0.1131 ( 61)
           0.1636 ( 62) -0.1512 ( 66) -0.1695 ( 68) -0.1247 ( 82)  0.1016 ( 93)
           0.1651 ( 95) -0.1083 (101) -0.1490 (102) -0.1162 (104)  0.1610 (109)
          -0.1497 (112) -0.1282 (114) -0.1006 (119)  0.1049 (121) -0.1064 (123)
           0.1551 (125)
 CRD 52=  -0.1271 (  1) -0.1136 (  2)  0.1504 (  3)  0.1266 (  6)  0.1055 ( 10)
           0.1005 ( 12) -0.1645 ( 16)  0.1144 ( 17) -0.2076 ( 22) -0.1001 ( 38)
           0.1081 ( 52)  0.1821 ( 59)  0.1545 ( 64) -0.1824 ( 69)  0.1158 ( 74)
           0.1291 ( 82)  0.1036 ( 85) -0.1555 ( 87)  0.1191 ( 91) -0.1151 ( 93)
           0.1212 ( 98)  0.1795 ( 99) -0.1344 (100) -0.1835 (101) -0.1553 (103)
          -0.1427 (107)  0.1003 (108)  0.1067 (110)  0.1548 (112) -0.1011 (115)
          -0.1007 (121) -0.2422 (122)  0.2683 (124)
 CRD 53=   0.1704 (  3) -0.1240 (  5) -0.1397 (  6)  0.1703 (  7)  0.1554 (  8)
          -0.1754 ( 10) -0.1514 ( 13) -0.1405 ( 14)  0.1037 ( 15)  0.1196 ( 16)
           0.1311 ( 20) -0.1112 ( 28)  0.1134 ( 41)  0.1175 ( 46) -0.1113 ( 54)
           0.1200 ( 59)  0.1966 ( 60) -0.1392 ( 61) -0.1625 ( 63)  0.1660 ( 72)
          -0.1173 ( 74)  0.1496 ( 81)  0.1083 ( 87) -0.1560 ( 89) -0.1318 (100)
          -0.1469 (101)  0.2073 (104) -0.1503 (106)  0.1951 (108)  0.1547 (110)
          -0.1319 (111) -0.1878 (113) -0.1193 (117) -0.1542 (119)  0.1265 (122)
 CRD 54=  -0.1082 (  2)  0.1089 (  4) -0.1640 ( 10) -0.1765 ( 13)  0.1408 ( 15)
           0.1186 ( 17) -0.1904 ( 20)  0.2139 ( 21)  0.1537 ( 38)  0.1147 ( 40)
           0.1064 ( 42)  0.1068 ( 45) -0.1325 ( 49)  0.1395 ( 57) -0.2018 ( 64)
          -0.1845 ( 66) -0.1201 ( 67) -0.1038 ( 71) -0.1172 ( 75) -0.1224 ( 77)
           0.1248 ( 80)  0.1667 ( 84)  0.1512 ( 90)  0.1613 ( 94) -0.1636 ( 96)
           0.1119 ( 98) -0.1371 ( 99) -0.1238 (104) -0.1133 (107)  0.1944 (113)
          -0.2307 (116) -0.1262 (124)
 CRD 55=  -0.2133 (  4)  0.1850 (  7) -0.1020 ( 12)  0.1713 ( 15) -0.1759 ( 16)
          -0.1239 ( 21) -0.1180 ( 32)  0.1272 ( 40) -0.1420 ( 44)  0.1081 ( 47)
          -0.1224 ( 48) -0.1076 ( 49)  0.1181 ( 52) -0.1178 ( 59) -0.1099 ( 61)
           0.1360 ( 62)  0.1093 ( 66) -0.1159 ( 68) -0.1485 ( 75)  0.1041 ( 77)
           0.1192 ( 83)  0.1505 ( 84)  0.1801 ( 85) -0.2666 ( 92) -0.1728 ( 94)
          -0.1470 (102) -0.1085 (104)  0.1006 (115)  0.1795 (116)  0.2161 (117)
           0.2202 (118) -0.1051 (122)
 CRD 56=   0.1457 (  3) -0.1443 (  4) -0.1559 (  7)  0.1219 (  9)  0.1926 ( 11)
           0.1184 ( 14) -0.1188 ( 15) -0.1011 ( 21) -0.1083 ( 23)  0.1533 ( 25)
          -0.1016 ( 29)  0.1360 ( 32)  0.1026 ( 37)  0.1262 ( 39)  0.1255 ( 42)
           0.1158 ( 44) -0.1521 ( 61) -0.1432 ( 62) -0.1801 ( 67) -0.1748 ( 71)
          -0.2034 ( 73)  0.1182 ( 77)  0.1497 ( 80)  0.1843 ( 88)  0.2086 ( 92)
          -0.1669 ( 94)  0.1012 ( 98) -0.1221 (104)  0.1598 (108)  0.1203 (110)
          -0.1613 (111)  0.1285 (115)  0.1778 (116) -0.1560 (118)  0.1875 (119)
 CRD 57=   0.1723 (  9) -0.1473 ( 11)  0.1361 ( 12) -0.1033 ( 14)  0.1487 ( 22)
           0.1356 ( 28)  0.1228 ( 33) -0.1065 ( 36)  0.1098 ( 41) -0.1189 ( 45)
           0.1001 ( 57) -0.1216 ( 60) -0.1245 ( 65)  0.1085 ( 67) -0.1997 ( 70)
          -0.1686 ( 71)  0.2124 ( 73)  0.1664 ( 75)  0.1384 ( 78)  0.1035 ( 79)
          -0.2342 ( 88)  0.2038 ( 98) -0.1576 (101) -0.1092 (107)  0.1776 (111)
           0.1436 (112)  0.1217 (113)  0.2100 (115)  0.1173 (116) -0.1743 (117)
          -0.1729 (119) -0.1122 (124)
 CRD 58=   0.1705 (  2) -0.1033 (  4) -0.1821 (  5)  0.1536 (  6)  0.1563 ( 12)
          -0.1180 ( 13)  0.1626 ( 27) -0.1159 ( 30)  0.1411 ( 31)  0.1508 ( 32)
          -0.1085 ( 34)  0.1011 ( 42) -0.1581 ( 43) -0.1190 ( 59) -0.1193 ( 62)
          -0.2476 ( 65) -0.2402 ( 67)  0.1467 ( 71)  0.1203 ( 75) -0.2110 ( 79)
          -0.1444 ( 81)  0.1252 ( 82)  0.3243 ( 83) -0.1742 (102) -0.1076 (104)
          -0.1598 (108)  0.2208 (110)  0.2227 (112) -0.1523 (117)
 CRD 59=   0.1859 (  1) -0.1280 (  3)  0.1003 (  6)  0.1747 (  8) -0.1155 (  9)
          -0.1496 ( 26)  0.1498 ( 28)  0.1156 ( 30)  0.1009 ( 31) -0.1399 ( 35)
           0.1121 ( 36)  0.1260 ( 56) -0.1194 ( 60)  0.1817 ( 66)  0.2230 ( 70)
          -0.1050 ( 71) -0.2895 ( 76) -0.1070 ( 77)  0.2263 ( 79)  0.1655 ( 80)
          -0.1279 ( 88) -0.1436 ( 98)  0.1652 (101)  0.2461 (103) -0.1982 (104)
          -0.1245 (107)  0.1218 (108)  0.1128 (111)  0.1103 (112) -0.1766 (113)
          -0.1503 (115)
 CRD 60=  -0.1134 ( 38)  0.1178 ( 41)  0.1666 ( 77) -0.2359 ( 78)  0.1598 ( 84)
          -0.2467 ( 85)  0.4065 ( 86) -0.2960 ( 90) -0.1662 ( 91) -0.2977 ( 96)
          -0.1644 ( 97)  0.1087 (121)  0.2420 (122) -0.4339 (123)  0.2362 (124)
           0.1065 (125)

 THE DETERMINANT OF THE G MATRIX IS 10**(   -16)


                     --------------------
                     INTERNAL COORDINATES
                     --------------------

                 - - ATOMS - -         COORDINATE      COORDINATE
 NO.   TYPE    I  J  K  L  M  N        (BOHR,RAD)       (ANG,DEG)
 ----------------------------------------------------------------
   1 STRETCH   1 10                     2.0962805       1.1093040
   2 STRETCH   1  9                     2.0943334       1.1082736
   3 STRETCH   1  2                     2.8811870       1.5246586
   4 STRETCH   1  3                     2.8765989       1.5222307
   5 STRETCH   2 12                     2.0945581       1.1083925
   6 STRETCH   2 11                     2.0954366       1.1088574
   7 STRETCH   2  4                     2.8804298       1.5242579
   8 STRETCH   3 14                     2.0948586       1.1085515
   9 STRETCH   3 13                     2.0939005       1.1080445
  10 STRETCH   3  8                     2.8793154       1.5236682
  11 STRETCH   4 15                     2.0948410       1.1085422
  12 STRETCH   4 16                     2.0937281       1.1079533
  13 STRETCH   4  5                     2.8803169       1.5241982
  14 STRETCH   5  6                     2.8159109       1.4901160
  15 STRETCH   5 18                     2.0913498       1.1066947
  16 STRETCH   5 17                     2.1061109       1.1145060
  17 STRETCH   6  7                     2.5232937       1.3352696
  18 STRETCH   6 19                     2.0705129       1.0956683
  19 STRETCH   7 20                     2.0697593       1.0952696
  20 STRETCH   7  8                     2.8130400       1.4885968
  21 STRETCH   8 22                     2.0917533       1.1069083
  22 STRETCH   8 21                     2.1080917       1.1155542
  23 BEND      1  2 11                  1.9262855     110.3680316
  24 BEND      1  3 13                  1.8936008     108.4953349
  25 BEND      1  3  8                  1.9988235     114.5241511
  26 BEND      1  3 14                  1.9159839     109.7777939
  27 BEND      1  2 12                  1.8981615     108.7566425
  28 BEND      1  2  4                  1.9892886     113.9778389
  29 BEND      2  1 10                  1.9190547     109.9537378
  30 BEND      2  1  9                  1.9051584     109.1575342
  31 BEND      2  1  3                  1.9974496     114.4454305
  32 BEND      2  4  5                  1.9902096     114.0306108
  33 BEND      2  4 15                  1.8917493     108.3892499
  34 BEND      2  4 16                  1.9222413     110.1363141
  35 BEND      3  1 10                  1.9095339     109.4082359
  36 BEND      3  8 21                  1.9174853     109.8638163
  37 BEND      3  8 22                  1.9158729     109.7714285
  38 BEND      3  8  7                  1.9564737     112.0976829
  39 BEND      3  1  9                  1.8865320     108.0903243
  40 BEND      4  5 17                  1.9158398     109.7695360
  41 BEND      4  5  6                  1.9601030     112.3056306
  42 BEND      4  2 12                  1.8855378     108.0333585
  43 BEND      4  2 11                  1.9206743     110.0465286
  44 BEND      4  5 18                  1.9161541     109.7875440
  45 BEND      5  4 16                  1.9170161     109.8369345
  46 BEND      5  4 15                  1.8933003     108.4781173
  47 BEND      5  6 19                  2.0353435     116.6165924
  48 BEND      5  6  7                  2.1429453     122.7817227
  49 BEND      6  5 18                  1.9078142     109.3097046
  50 BEND      6  7  8                  2.1329835     122.2109519
  51 BEND      6  7 20                  2.1100188     120.8951739
  52 BEND      6  5 17                  1.9070007     109.2630915
  53 BEND      7  8 21                  1.9024565     109.0027294
  54 BEND      7  8 22                  1.9193220     109.9690496
  55 BEND      7  6 19                  2.1048863     120.6011009
  56 BEND      8  3 13                  1.9079814     109.3192812
  57 BEND      8  3 14                  1.8967282     108.6745190
  58 BEND      8  7 20                  2.0400721     116.8875221
  59 BEND      9  1 10                  1.8391675     105.3765351
  60 BEND     11  2 12                  1.8370235     105.2536946
  61 BEND     13  3 14                  1.8444717     105.6804421
  62 BEND     15  4 16                  1.8430945     105.6015345
  63 BEND     17  5 18                  1.8538672     106.2187657
  64 BEND     21  8 22                  1.8491268     105.9471640
  65 TORSION   1  2  4  5               1.2823419      73.4727773
  66 TORSION   1  3  8 21              -1.2879839     -73.7960391
  67 TORSION   1  2  4 16              -0.8819007     -50.5291886
  68 TORSION   1  2  4 15              -2.8902974    -165.6018415
  69 TORSION   1  3  8 22               2.9684751     170.0810955
  70 TORSION   1  3  8  7               0.8300654      47.5592424
  71 TORSION   2  1  3 14              -1.1195071     -64.1430295
  72 TORSION   2  1  3 13              -3.1272108    -179.1759802
  73 TORSION   2  4  5 17               0.7261324      41.6043200
  74 TORSION   2  4  5 18               2.7578066     158.0106767
  75 TORSION   2  4  5  6              -1.3989934     -80.1564179
  76 TORSION   2  1  3  8               1.0194213      58.4085400
  77 TORSION   3  8  7 20               1.5207065      87.1300654
  78 TORSION   3  8  7  6              -1.6050075     -91.9601537
  79 TORSION   3  1  2 11               0.3726461      21.3510511
  80 TORSION   3  1  2  4              -1.7989510    -103.0723008
  81 TORSION   3  1  2 12               2.3795939     136.3406878
  82 TORSION   4  2  1  9               2.3677424     135.6616475
  83 TORSION   4  2  1 10               0.3582469      20.5260354
  84 TORSION   4  5  6 19              -1.6257916     -93.1509981
  85 TORSION   4  5  6  7               1.5109694      86.5721695
  86 TORSION   5  6  7  8              -0.0128878      -0.7384181
  87 TORSION   5  6  7 20              -3.1379765    -179.7928116
  88 TORSION   5  4  2 11              -0.8922594     -51.1226950
  89 TORSION   5  4  2 12              -2.8891575    -165.5365287
  90 TORSION   6  7  8 21               0.5216599      29.8889099
  91 TORSION   6  7  8 22               2.5417274     145.6302511
  92 TORSION   6  5  4 16               0.7680579      44.0064786
  93 TORSION   6  5  4 15               2.7745096     158.9676915
  94 TORSION   7  8  3 13              -1.2986633     -74.4079280
  95 TORSION   7  8  3 14               2.9793945     170.7067326
  96 TORSION   7  6  5 17              -0.6191887     -35.4768995
  97 TORSION   7  6  5 18              -2.6410858    -151.3230691
  98 TORSION   8  3  1 10              -1.1428742     -65.4818682
  99 TORSION   8  7  6 19               3.1236863     178.9740418
 100 TORSION   8  3  1  9              -3.1370521    -179.7398480
 101 TORSION   9  1  3 14               1.0072048      57.7085825
 102 TORSION   9  1  2 11              -1.7438457     -99.9150006
 103 TORSION   9  1  3 13              -1.0004990     -57.3243683
 104 TORSION   9  1  2 12               0.2631020      15.0746361
 105 TORSION  10  1  3 14               3.0013827     171.9665623
 106 TORSION  10  1  2 11               2.5298441     144.9493873
 107 TORSION  10  1  2 12              -1.7463935    -100.0609760
 108 TORSION  10  1  3 13               0.9936790      56.9336115
 109 TORSION  11  2  4 16              -3.0565019    -175.1246609
 110 TORSION  11  2  4 15               1.2182867      69.8026862
 111 TORSION  12  2  4 16               1.2297853      70.4615054
 112 TORSION  12  2  4 15              -0.7786114     -44.6111475
 113 TORSION  13  3  8 22               0.8397464      48.1139252
 114 TORSION  13  3  8 21               2.8664727     164.2367906
 115 TORSION  14  3  8 22              -1.1653810     -66.7714143
 116 TORSION  14  3  8 21               0.8613453      49.3514512
 117 TORSION  15  4  5 18               0.6481243      37.1347862
 118 TORSION  15  4  5 17              -1.3835499     -79.2715705
 119 TORSION  16  4  5 18              -1.3583274     -77.8264268
 120 TORSION  16  4  5 17               2.8931837     165.7672165
 121 TORSION  17  5  6 19               2.5272356     144.7999329
 122 TORSION  18  5  6 19               0.5053385      28.9537633
 123 TORSION  19  6  7 20              -0.0014024      -0.0803517
 124 TORSION  20  7  8 22              -0.6157440     -35.2795298
 125 TORSION  20  7  8 21              -2.6358114    -151.0208710

     ------------------------------------------
     THE POINT GROUP IS C1 , NAXIS= 1, ORDER= 1
     ------------------------------------------

     DIMENSIONS OF THE SYMMETRY SUBSPACES ARE
 A   =  236

 ..... DONE SETTING UP THE RUN .....
 STEP CPU TIME =     0.02 TOTAL CPU TIME =        0.0 (    0.0 MIN)
 TOTAL WALL CLOCK TIME=        0.0 SECONDS, CPU UTILIZATION IS  66.67%


          -----------------------------
          STATIONARY POINT LOCATION RUN
          -----------------------------

 OBTAINING INITIAL HESSIAN, HESS=GUESS   
 DIAGONAL GUESS HESSIAN IN INTERNAL COORDS IS
     1  0.3336     2  0.3343     3  0.3710     4  0.3728     5  0.3342
     6  0.3339     7  0.3713     8  0.3341     9  0.3344    10  0.3717
    11  0.3341    12  0.3345    13  0.3713    14  0.3968    15  0.3353
    16  0.3303    17  0.5361    18  0.3426    19  0.3428    20  0.3979
    21  0.3352    22  0.3296    23  0.2233    24  0.2235    25  0.2495
    26  0.2234    27  0.2233    28  0.2493    29  0.2232    30  0.2233
    31  0.2494    32  0.2493    33  0.2233    34  0.2234    35  0.2234
    36  0.2229    37  0.2234    38  0.2519    39  0.2235    40  0.2230
    41  0.2517    42  0.2233    43  0.2233    44  0.2234    45  0.2234
    46  0.2233    47  0.2261    48  0.2658    49  0.2255    50  0.2660
    51  0.2358    52  0.2250    53  0.2250    54  0.2255    55  0.2358
    56  0.2234    57  0.2234    58  0.2262    59  0.2015    60  0.2015
    61  0.2016    62  0.2016    63  0.2013    64  0.2013    65  0.2500
    66  0.2500    67  0.2500    68  0.2500    69  0.2500    70  0.2500
    71  0.2500    72  0.2500    73  0.2500    74  0.2500    75  0.2500
    76  0.2500    77  0.2500    78  0.2500    79  0.2500    80  0.2500
    81  0.2500    82  0.2500    83  0.2500    84  0.2500    85  0.2500
    86  0.2500    87  0.2500    88  0.2500    89  0.2500    90  0.2500
    91  0.2500    92  0.2500    93  0.2500    94  0.2500    95  0.2500
    96  0.2500    97  0.2500    98  0.2500    99  0.2500   100  0.2500
   101  0.2500   102  0.2500   103  0.2500   104  0.2500   105  0.2500
   106  0.2500   107  0.2500   108  0.2500   109  0.2500   110  0.2500
   111  0.2500   112  0.2500   113  0.2500   114  0.2500   115  0.2500
   116  0.2500   117  0.2500   118  0.2500   119  0.2500   120  0.2500
   121  0.2500   122  0.2500   123  0.2500   124  0.2500   125  0.2500
 TRANSFORMING HESSIAN TO SYMMETRY COORDINATES

          PARAMETERS CONTROLLING GEOMETRY SEARCH ARE
          METHOD =QA                  UPHESS =BFGS    
          NNEG   =         0          NFRZ   =         3
          NSTEP  =        50          IFOLOW =         1
          HESS   =GUESS               RESTAR =         F
          IHREP  =         0          HSSEND =         F
          NPRT   =         0          NPUN   =         0
          OPTTOL = 5.000E-04          RMIN   = 1.500E-03
          RMAX   = 1.000E-01          RLIM   = 7.000E-02
          DXMAX  = 3.000E-01          PURIFY =         F
          MOVIE  =         F          TRUPD  =         T
          TRMAX  = 5.000E-01          TRMIN  = 5.000E-02
          ITBMAT =         5          STPT   =         F
          STSTEP = 1.000E-02          PROJCT=          F
          FROZEN COORD(S)=   1   2   3


      ***** EQUILIBRIUM GEOMETRY LOCATED *****
            (SUBJECT TO   3 CONSTRAINT(S))
 COORDINATES OF ALL ATOMS ARE (ANGS)
   ATOM   CHARGE       X              Y              Z
 ------------------------------------------------------------
 C           6.0   3.8796973388   1.7122585082   2.4256014600
 C           6.0   2.6536996644   1.0433996464   1.7677047774
 C           6.0   4.7011566435   2.6066832867   1.4895720467
 C           6.0   1.2719440963   1.6886667312   1.9794643299
 C           6.0   1.0115313447   3.0646044033   1.3409094165
 C           6.0   1.7687906387   4.1996551211   1.9945462187
 C           6.0   3.0322068137   4.4990970401   1.7484245389
 C           6.0   3.9010543454   3.7225094441   0.7929721840
 H           1.0   4.5432940353   0.9342558598   2.7960001440
 H           1.0   3.5722797835   2.2812446474   3.2981930507
 H           1.0   2.8382422460   0.9390014584   0.6995110810
 H           1.0   2.5753972521   0.0307825538   2.1540633273
 H           1.0   5.5203562169   3.0475175461   2.0538781950
 H           1.0   5.1560235876   1.9860759246   0.7190466383
 H           1.0   0.5362323159   0.9985796624   1.5715055758
 H           1.0   1.0701811840   1.7572833640   3.0470529104
 H           1.0   1.2419269405   3.0201753560   0.2802292829
 H           1.0  -0.0527720902   3.2702004842   1.4102912321
 H           1.0   1.2321692675   4.7671752031   2.7402112888
 H           1.0   3.4996726405   5.2989224912   2.3029482531
 H           1.0   3.2824041462   3.2830326841   0.0191810869
 H           1.0   4.5951182140   4.3895645804   0.2902931158


                     --------------------
                     INTERNAL COORDINATES
                     --------------------

                 - - ATOMS - -         COORDINATE      COORDINATE
 NO.   TYPE    I  J  K  L  M  N        (BOHR,RAD)       (ANG,DEG)
 ----------------------------------------------------------------
   1 STRETCH   1 10                     2.0524781       1.0861247
   2 STRETCH   1  9                     2.0552400       1.0875863
   3 STRETCH   1  2                     2.9173297       1.5437845
   4 STRETCH   1  3                     2.8974757       1.5332782
   5 STRETCH   2 12                     2.0534615       1.0866451
   6 STRETCH   2 11                     2.0579738       1.0890329
   7 STRETCH   2  4                     2.9094786       1.5396299
   8 STRETCH   3 14                     2.0577778       1.0889292
   9 STRETCH   3 13                     2.0561263       1.0880552
  10 STRETCH   3  8                     2.9094927       1.5396373
  11 STRETCH   4 15                     2.0561767       1.0880820
  12 STRETCH   4 16                     2.0572529       1.0886514
  13 STRETCH   4  5                     2.9084422       1.5390814
  14 STRETCH   5  6                     2.8590641       1.5129517
  15 STRETCH   5 18                     2.0526160       1.0861977
  16 STRETCH   5 17                     2.0528535       1.0863233
  17 STRETCH   6  7                     2.4973441       1.3215377
  18 STRETCH   6 19                     2.0406048       1.0798416
  19 STRETCH   7 20                     2.0403280       1.0796951
  20 STRETCH   7  8                     2.8477070       1.5069418
  21 STRETCH   8 22                     2.0522228       1.0859896
  22 STRETCH   8 21                     2.0480834       1.0837991
  23 BEND      1  2 11                  1.9017700     108.9633957
  24 BEND      1  3 13                  1.8997997     108.8505068
  25 BEND      1  3  8                  2.0048571     114.8698476
  26 BEND      1  3 14                  1.9000178     108.8629999
  27 BEND      1  2 12                  1.8854084     108.0259416
  28 BEND      1  2  4                  2.0629482     118.1982259
  29 BEND      2  1 10                  1.9225759     110.1554829
  30 BEND      2  1  9                  1.8962734     108.6484636
  31 BEND      2  1  3                  2.0020916     114.7113974
  32 BEND      2  4  5                  2.0594822     117.9996369
  33 BEND      2  4 15                  1.8644454     106.8248521
  34 BEND      2  4 16                  1.9045827     109.1245509
  35 BEND      3  1 10                  1.9139960     109.6638913
  36 BEND      3  8 21                  1.9026401     109.0132476
  37 BEND      3  8 22                  1.8991227     108.8117173
  38 BEND      3  8  7                  1.9673497     112.7208320
  39 BEND      3  1  9                  1.8737164     107.3560441
  40 BEND      4  5 17                  1.9099099     109.4297747
  41 BEND      4  5  6                  1.9897069     114.0018067
  42 BEND      4  2 12                  1.8514475     106.0801286
  43 BEND      4  2 11                  1.9040967     109.0967065
  44 BEND      4  5 18                  1.8844168     107.9691317
  45 BEND      5  4 16                  1.8956394     108.6121369
  46 BEND      5  4 15                  1.8723794     107.2794370
  47 BEND      5  6 19                  2.0307261     116.3520375
  48 BEND      5  6  7                  2.1749121     124.6132851
  49 BEND      6  5 18                  1.8974023     108.7131460
  50 BEND      6  7  8                  2.1561797     123.5399983
  51 BEND      6  7 20                  2.0784413     119.0859118
  52 BEND      6  5 17                  1.9244831     110.2647616
  53 BEND      7  8 21                  1.9097843     109.4225814
  54 BEND      7  8 22                  1.9234872     110.2076979
  55 BEND      7  6 19                  2.0767118     118.9868225
  56 BEND      8  3 13                  1.9095198     109.4074281
  57 BEND      8  3 14                  1.8859578     108.0574240
  58 BEND      8  7 20                  2.0462747     117.2429040
  59 BEND      9  1 10                  1.8481732     105.8925215
  60 BEND     11  2 12                  1.8458788     105.7610660
  61 BEND     13  3 14                  1.8581285     106.4629196
  62 BEND     15  4 16                  1.8570294     106.3999449
  63 BEND     17  5 18                  1.8524264     106.1362124
  64 BEND     21  8 22                  1.8581420     106.4636956
  65 TORSION   1  2  4  5               1.1778228      67.4842742
  66 TORSION   1  3  8 21              -1.2829429     -73.5072135
  67 TORSION   1  2  4 16              -0.9957825     -57.0541368
  68 TORSION   1  2  4 15              -2.9967815    -171.7029296
  69 TORSION   1  3  8 22               2.9804481     170.7670999
  70 TORSION   1  3  8  7               0.8412773      48.2016407
  71 TORSION   2  1  3 14              -1.1490459     -65.8354798
  72 TORSION   2  1  3 13               3.1154178     178.5002887
  73 TORSION   2  4  5 17               0.9297821      53.2725880
  74 TORSION   2  4  5 18               2.9386781     168.3738505
  75 TORSION   2  4  5  6              -1.2343160     -70.7210961
  76 TORSION   2  1  3  8               0.9679175      55.4575865
  77 TORSION   3  8  7 20               1.4518665      83.1858223
  78 TORSION   3  8  7  6              -1.6162471     -92.6041384
  79 TORSION   3  1  2 11               0.4608068      26.4022870
  80 TORSION   3  1  2  4              -1.7247398     -98.8203110
  81 TORSION   3  1  2 12               2.4582915     140.8497304
  82 TORSION   4  2  1  9               2.4618779     141.0552155
  83 TORSION   4  2  1 10               0.4446711      25.4777770
  84 TORSION   4  5  6 19              -1.6771260     -96.0922413
  85 TORSION   4  5  6  7               1.4199560      81.3574839
  86 TORSION   5  6  7  8              -0.0219338      -1.2567138
  87 TORSION   5  6  7 20              -3.0887685    -176.9733985
  88 TORSION   5  4  2 11              -1.0065858     -57.6731177
  89 TORSION   5  4  2 12              -2.9877530    -171.1856384
  90 TORSION   6  7  8 21               0.5039239      28.8727132
  91 TORSION   6  7  8 22               2.5414908     145.6166968
  92 TORSION   6  5  4 16               0.9437092      54.0705550
  93 TORSION   6  5  4 15               2.9443876     168.7009840
  94 TORSION   7  8  3 13              -1.3010102     -74.5423938
  95 TORSION   7  8  3 14               2.9658962     169.9333369
  96 TORSION   7  6  5 17              -0.7362748     -42.1854411
  97 TORSION   7  6  5 18              -2.7602892    -158.1529201
  98 TORSION   8  3  1 10              -1.2060271     -69.1002626
  99 TORSION   8  7  6 19               3.0740609     176.1307156
 100 TORSION   8  3  1  9               3.0769389     176.2956143
 101 TORSION   9  1  3 14               0.9599756      55.0025480
 102 TORSION   9  1  2 11              -1.6357607     -93.7221865
 103 TORSION   9  1  3 13              -1.0587461     -60.6616835
 104 TORSION   9  1  2 12               0.3617240      20.7252570
 105 TORSION  10  1  3 14               2.9601948     169.6066711
 106 TORSION  10  1  2 11               2.6302177     150.7003750
 107 TORSION  10  1  2 12              -1.6554829     -94.8521816
 108 TORSION  10  1  3 13               0.9414732      53.9424396
 109 TORSION  11  2  4 16               3.1029942     177.7884713
 110 TORSION  11  2  4 15               1.1019953      63.1396785
 111 TORSION  12  2  4 16               1.1218270      64.2759506
 112 TORSION  12  2  4 15              -0.8791720     -50.3728422
 113 TORSION  13  3  8 22               0.8381606      48.0230654
 114 TORSION  13  3  8 21               2.8579549     163.7487520
 115 TORSION  14  3  8 22              -1.1781183     -67.5012039
 116 TORSION  14  3  8 21               0.8416760      48.2244827
 117 TORSION  15  4  5 18               0.8341964      47.7959306
 118 TORSION  15  4  5 17              -1.1746996     -67.3053320
 119 TORSION  16  4  5 18              -1.1664821     -66.8344985
 120 TORSION  16  4  5 17               3.1078073     178.0642390
 121 TORSION  17  5  6 19               2.4498285     140.3648338
 122 TORSION  18  5  6 19               0.4258142      24.3973547
 123 TORSION  19  6  7 20               0.0072262       0.4140310
 124 TORSION  20  7  8 22              -0.6735809     -38.5933424
 125 TORSION  20  7  8 21              -2.7111478    -155.3373261

          INTERNUCLEAR DISTANCES (ANGS.)


 =====================================================
   GAMESS/COSab RESULTS
 =====================================================

   Dielectric Constant                  = INFTY
   Basic Grid Size                      =                 1082
   Number of Segments                   =                   92
   Number of Segments located on spheres=                  256
   Number of Segments of the cavity     =                  724
   Solvent Radius (rsolv)               = 1.40
   Outlying Charge Error Method         = double cavity

 =====================================================

  Total solvated Energy (a.u.)          =  -311.1499149558
  Total Energy corrected (a.u.)         =  -311.1498515812

  Outlying charge effect (a.u.)         =     0.0000633746
  Outlying charge effect (kcal/mol)     =     0.0397681831

  Dielectric Energy (a.u.)              =    -0.0026715472
  Dielectric energy corr. (a.u.)        =    -0.0026081726

  Sum of polarization charges           =     0.0291060074
  Sum of polarization charges(cor.)     =    -0.0291060074

  Total surface area of cavity (A**2)   =  156.59
  Total volume of cavity (A**3)         =  162.10

 =====================================================
 NPS=                   724
NR.  ATOM  (X, Y, Z)(a.u.)                  CHARGE(e)  AREA(A**2) SIGMA(e/A**2)
   1   1  10.029402   3.851398   7.157985   0.000655   0.185824   0.003523
   2   1   7.249915   2.272362   8.237421   0.002005   0.371649   0.005394
   3   1   7.977494   1.772795   8.008179   0.001529   0.278737   0.005487
   4   1  10.286794   3.177249   6.939026   0.000839   0.278737   0.003010
   5   1   9.039265   0.237388   3.041572   0.000273   0.139368   0.001957
   6   1   9.266081   3.817629   7.777970   0.001543   0.325193   0.004746
   7   1   8.336206   2.902013   8.211884   0.001652   0.278737   0.005928
   8   1   6.619768   1.348293   7.779853   0.001130   0.325193   0.003475
   9   1   9.335105   4.740515   7.413134   0.000840   0.278737   0.003012
  10   1   6.019001   2.189228   7.969910   0.000718   0.232280   0.003090
  11   1   6.961128   0.703169   7.364603   0.000867   0.278737   0.003109
  12   1   9.174010   2.969270   7.872891   0.001466   0.278737   0.005260
  13   1   9.480169   0.577569   2.970592   0.000088   0.046456   0.001898
  14   1   5.764473   1.624702   7.622326   0.000260   0.139368   0.001866
  15   2   7.612939  -0.500734   2.148550   0.000712   0.278737   0.002553
  16   2   4.263043  -1.290875   1.587026   0.001732   0.325193   0.005325
  17   2   4.501806   0.769925   6.886850   0.000221   0.139368   0.001583
  18   2   4.900930   0.326175   6.740980   0.000073   0.046456   0.001565
  19   2   4.594036  -0.873096   0.888085   0.001452   0.278737   0.005209
  20   2   7.122470  -0.418310   1.308343   0.000789   0.232280   0.003395
  21   2   6.746088  -1.150168   2.099289   0.001515   0.325193   0.004659
  22   2   5.422392  -1.362806   1.608721   0.001671   0.278737   0.005996
  23   2   3.413072  -0.567344   1.044404   0.001210   0.325193   0.003720
  24   2   7.182445  -1.099897   2.952482   0.000647   0.232280   0.002786
  25   2   3.235652  -1.097971   2.038188   0.000808   0.232280   0.003480
  26   2   4.110465   0.466875   6.687398   0.000100   0.046456   0.002143
  27   2   3.253987   0.206766   0.499907   0.000393   0.139368   0.002818
  28   2   6.219372  -1.011857   1.357698   0.001571   0.278737   0.005637
  29   3  11.918993   2.825640   3.628083   0.000778   0.232280   0.003350
  30   3  12.276245   5.163458   1.165717   0.001780   0.371649   0.004789
  31   3  12.575460   5.368726   2.136290   0.001393   0.278737   0.004999
  32   3  12.022090   3.500465   4.365397   0.001078   0.325193   0.003315
  33   3  12.234921   3.181083   2.917082   0.001346   0.278737   0.004827
  34   3  12.527456   4.242131   2.079264   0.001857   0.325193   0.005712
  35   3  12.039440   6.099302   1.097355   0.001080   0.325193   0.003322
  36   3  11.503478   2.202539   2.887547   0.000766   0.278737   0.002749
  37   3  11.468950   5.683886   0.164001   0.000672   0.232280   0.002892
  38   3  11.978071   6.808792   1.735508   0.000721   0.278737   0.002587
  39   3  12.521003   3.918488   3.016832   0.001381   0.278737   0.004955
  40   4   1.483448   0.090125   5.695492   0.000746   0.232280   0.003212
  41   4  -0.796692   2.631121   5.671636   0.001799   0.371649   0.004842
  42   4  -0.810220   1.757533   5.119187   0.001200   0.232280   0.005166
  43   4   0.916813  -0.042634   5.012078   0.000864   0.232280   0.003718
  44   4   1.460274   2.057438   0.260838   0.000234   0.139368   0.001678
  45   4   0.864223   0.667558   6.095686   0.001052   0.232280   0.004529
  46   4  -0.216320   1.455882   5.840452   0.001890   0.325193   0.005811
  47   4  -1.170262   3.183283   4.970125   0.001057   0.325193   0.003250
  48   4   1.964762   0.615235   6.471312   0.000765   0.278737   0.002746
  49   4  -0.740246   4.017776   5.668615   0.000600   0.232280   0.002583
  50   4  -1.321099   2.757038   4.212173   0.000731   0.232280   0.003149
  51   4   0.225854   0.642102   5.485397   0.001476   0.278737   0.005294
  52   4   1.810693   1.628205   0.350965   0.000092   0.046456   0.001981
  53   5  -0.249503   3.994250   0.007104   0.000434   0.185824   0.002336
  54   5  -0.427719   7.512378   0.115270   0.001588   0.371649   0.004272
  55   5  -0.364585   6.222820   5.520153   0.000077   0.092912   0.000824
  56   5  -0.734107   5.805102   5.232980   0.000025   0.046456   0.000530
  57   5   0.109106   6.958156  -0.576346   0.001133   0.278737   0.004065
  58   5   0.350812   4.064634  -0.443828   0.000539   0.278737   0.001933
  59   5  -0.798078   4.806895   0.089907   0.001223   0.325193   0.003761
  60   5  -0.676169   6.248980  -0.182413   0.001605   0.325193   0.004934
  61   5   0.491398   8.045344  -0.146846   0.001032   0.325193   0.003174
  62   5   1.109169   8.560343   0.090033   0.000368   0.139368   0.002641
  63   5  -1.048620   4.181648   0.821948   0.000539   0.278737   0.001935
  64   5  -0.322938   8.499804   1.135621   0.000467   0.185824   0.002511
  65   5  -0.485981   6.561198   5.352371   0.000022   0.046456   0.000472
  66   5   1.603208   8.173149  -0.384242   0.000391   0.185824   0.002104
  67   5  -0.378546   5.338077  -0.438333   0.001152   0.278737   0.004134
  68   5   0.228298   8.601089   0.648226   0.000531   0.232280   0.002287
  69   6   4.467571   8.330271   7.355676   0.001491   0.139368   0.010699
  70   6   1.460281  10.954493   2.491925   0.002039   0.371649   0.005487
  71   6   1.148349  11.001567   3.498368   0.001596   0.325193   0.004909
  72   6   3.308855  11.555286   4.857872   0.000271   0.092912   0.002915
  73   6   4.018690   8.990153   7.335123   0.000952   0.232280   0.004099
  74   6   1.335665   7.179289   6.881016  -0.000112   0.092912  -0.001204
  75   6   2.642291   7.221617   7.413760   0.000654   0.139368   0.004691
  76   6   3.725121   7.694717   7.521412   0.002402   0.325193   0.007385
  77   6   2.954946  11.666798   4.234613   0.001219   0.185824   0.006559
  78   6   2.440781  11.535215   3.049287   0.003072   0.418105   0.007348
  79   6   0.465163  10.143098   2.703974   0.001142   0.371649   0.003072
  80   6   2.378097  10.923673   1.664590   0.005671   0.511017   0.011097
  81   6   1.239048  10.144221   1.536598   0.002145   0.511017   0.004197
  82   6   2.192429  11.535006   3.869632   0.001293   0.232280   0.005565
  83   6   3.059404   7.699842   7.530549   0.000464   0.092912   0.004992
  84   6   0.158095   9.968856   3.660127   0.000588   0.278737   0.002109
  85   6   2.478298   9.912141   0.665428   0.003650   0.418105   0.008730
  86   7   4.221185   9.981417   0.170499   0.001992   0.185824   0.010719
  87   7   6.859844  11.547714   1.372268   0.000930   0.325193   0.002861
  88   7   4.525831  12.084018   3.243655   0.002428   0.278737   0.008710
  89   7   7.680237   8.707278   6.534966   0.000811   0.185824   0.004362
  90   7   5.516942   9.766793   6.859216   0.000314   0.092912   0.003380
  91   7   4.820095  12.074468   4.137160   0.000832   0.232280   0.003581
  92   7   7.543076  11.650834   2.263687   0.000600   0.278737   0.002151
  93   7   6.112529  11.963740   1.836160   0.001471   0.325193   0.004525
  94   7   4.953591  12.096889   2.433109   0.001736   0.232280   0.007475
  95   7   5.895408   9.169374   7.020435   0.001045   0.185824   0.005622
  96   7   6.171032   8.494040   7.057668   0.001212   0.139368   0.008695
  97   7   5.902875  11.285788   0.753512   0.001701   0.371649   0.004578
  98   7   4.920700  10.609042   0.272570   0.002205   0.325193   0.006779
  99   7   4.201890  10.956959   0.870436   0.002362   0.185824   0.012711
 100   7   4.310892  11.716697   1.912523   0.002842   0.325193   0.008738
 101   7   6.792095   8.862227   6.913275   0.000946   0.185824   0.005089
 102   7   5.864293  12.226336   2.674806   0.001964   0.371649   0.005285
 103   7   5.009180  11.533700   1.165415   0.002598   0.371649   0.006991
 104   8   5.876169   9.318592  -1.114921   0.000709   0.278737   0.002544
 105   8   8.695876   6.976061  -2.040976   0.001415   0.371649   0.003807
 106   8  10.037459   9.426089   2.706620   0.000053   0.046456   0.001131
 107   8   9.851607   9.715901   2.470918   0.000004   0.046456   0.000089
 108   8   7.710707   6.735632  -2.253842   0.001106   0.278737   0.003967
 109   8   5.510009   8.569573  -1.410301   0.000784   0.325193   0.002410
 110   8   6.833921   9.099294  -1.621031   0.001610   0.418105   0.003852
 111   8   7.723815   7.861679  -2.172489   0.001614   0.325193   0.004964
 112   8   8.826684   6.037583  -1.844246   0.000851   0.325193   0.002618
 113   8   6.750342  10.030767  -0.719690   0.000859   0.325193   0.002641
 114   8   9.791933   6.477895  -1.350689   0.000528   0.232280   0.002272
 115   8  10.359744   9.096883   2.549125   0.000054   0.046456   0.001152
 116   8   8.228343   5.298008  -1.747304   0.000563   0.278737   0.002019
 117   8   6.700422   8.199948  -2.033506   0.001457   0.325193   0.004479
 118   9  10.083840   0.041542   6.188268  -0.002516   0.549575  -0.004579
 119   9  10.744370   0.677292   4.847176  -0.000871   0.333671  -0.002609
 120   9   9.406284  -0.355339   4.354377  -0.000679   0.353299  -0.001922
 121   9   8.406954  -0.380525   6.465951  -0.000964   0.314043  -0.003071
 122   9   9.156375   0.961270   7.533676  -0.000363   0.372926  -0.000973
 123   9  10.662288   1.867738   6.592081  -0.000489   0.353299  -0.001384
 124   9  10.194669   0.054340   4.564041  -0.001136   0.412182  -0.002755
 125   9   9.170580  -0.604201   5.561889  -0.001614   0.431809  -0.003738
 126   9   8.862753   0.081171   7.050399  -0.001057   0.412182  -0.002564
 127   9  10.083930   1.144057   7.128629  -0.001162   0.451437  -0.002573
 128   9  10.888706   1.096822   5.816199  -0.001189   0.451437  -0.002633
 129  10   6.265080   5.403779   8.378598  -0.001506   0.333671  -0.004514
 130  10   7.985672   5.743059   7.800724  -0.000494   0.235532  -0.002096
 131  10   7.465762   4.177392   8.579130  -0.000164   0.255160  -0.000643
 132  10   6.046366   3.623410   8.483543  -0.000411   0.274788  -0.001495
 133  10   6.993912   5.933136   8.061427  -0.001169   0.274788  -0.004253
 134  10   7.656527   5.088785   8.379623  -0.000750   0.353299  -0.002124
 135  10   6.653584   4.270279   8.687061  -0.000743   0.314043  -0.002365
 136  10   5.668500   4.680966   8.406870  -0.001258   0.274788  -0.004579
 137  11   5.727723   1.686681  -1.106017  -0.001736   0.353299  -0.004914
 138  11   4.007194   1.151376  -0.629347  -0.000683   0.274788  -0.002485
 139  11   5.317613  -0.172694  -0.175319  -0.000179   0.274788  -0.000651
 140  11   6.833232   0.278540   0.042345  -0.000487   0.274788  -0.001771
 141  11   4.631428   1.799025  -1.023013  -0.001298   0.274788  -0.004724
 142  11   5.143810   0.744682  -0.897664  -0.001235   0.353299  -0.003495
 143  11   6.065578   0.151696  -0.383647  -0.000647   0.314043  -0.002060
 144  11   6.510055   1.111007  -0.747009  -0.001635   0.333671  -0.004901
 145  11   4.320464   0.311493  -0.353505  -0.000268   0.255160  -0.001050
 146  12   4.766886  -2.338987   4.598529  -0.002129   0.471065  -0.004520
 147  12   3.734888  -1.093228   5.922123  -0.000903   0.372926  -0.002422
 148  12   4.946932  -0.924188   6.320845  -0.000758   0.392554  -0.001932
 149  12   6.276498  -1.882803   4.600130  -0.001188   0.353299  -0.003364
 150  12   5.195624  -2.194035   3.146203  -0.000456   0.353299  -0.001292
 151  12   3.408252  -1.867735   3.624921  -0.000759   0.314043  -0.002418
 152  12   4.454285  -1.793468   5.631473  -0.001458   0.372926  -0.003910
 153  12   5.631396  -1.741655   5.557562  -0.001668   0.431809  -0.003863
 154  12   5.950120  -2.125503   3.765592  -0.000797   0.372926  -0.002138
 155  12   4.227292  -2.196218   3.333142  -0.000922   0.431809  -0.002136
 156  12   3.389420  -1.778710   4.762198  -0.001493   0.471065  -0.003170
 157  13  12.366545   6.676793   5.085469  -0.002357   0.510320  -0.004618
 158  13  11.277615   6.254690   6.133866  -0.001027   0.353299  -0.002906
 159  13  11.248619   7.476331   5.436529  -0.001450   0.372926  -0.003888
 160  13  11.980553   7.642669   3.583458  -0.001067   0.372926  -0.002861
 161  13  12.861848   5.859214   3.533772  -0.000428   0.372926  -0.001148
 162  13  12.313145   4.751762   5.098551  -0.000527   0.353299  -0.001492
 163  13  10.659572   6.900005   6.044899  -0.000785   0.294415  -0.002667
 164  13  11.681855   7.746232   4.604924  -0.001413   0.372926  -0.003788
 165  13  12.601849   6.886852   3.647557  -0.001157   0.431809  -0.002678
 166  13  12.796353   5.489093   4.491140  -0.001214   0.451437  -0.002689
 167  13  11.968274   5.560106   5.787909  -0.001289   0.451437  -0.002854
 168  14  10.906022   2.560684  -0.447194  -0.001735   0.392554  -0.004419
 169  14   9.495382   3.216238  -1.025580  -0.001137   0.353299  -0.003217
 170  14  10.661409   1.477908   1.232924  -0.000852   0.314043  -0.002713
 171  14  12.025478   3.018502   0.822291  -0.000561   0.372926  -0.001504
 172  14  11.333769   4.289459  -0.435182  -0.000506   0.333671  -0.001515
 173  14   9.786791   2.302344  -0.623223  -0.001617   0.372926  -0.004336
 174  14  10.101856   1.564365   0.302416  -0.001661   0.392554  -0.004232
 175  14  11.258422   2.056280   0.431061  -0.001363   0.353299  -0.003858
 176  14  11.793808   3.504917   0.028545  -0.001001   0.412182  -0.002428
 177  14  10.608031   3.643935  -0.938084  -0.001300   0.431809  -0.003012
 178  14  11.575389   2.117875   1.430263  -0.000370   0.314043  -0.001179
 179  15  -0.669077   0.311858   2.119198  -0.002568   0.549575  -0.004674
 180  15   0.777641  -0.046824   1.473163  -0.000859   0.333671  -0.002573
 181  15   0.189852   1.422812   0.702237  -0.000577   0.353299  -0.001634
 182  15  -1.362867   1.917963   2.346942  -0.001022   0.333671  -0.003062
 183  15  -1.015543   0.845625   3.883076  -0.000376   0.372926  -0.001008
 184  15   0.373984  -0.402062   3.591249  -0.000562   0.294415  -0.001908
 185  15   0.445242   0.586535   0.964466  -0.001237   0.412182  -0.003001
 186  15  -0.828671   1.438333   1.407414  -0.001662   0.471065  -0.003529
 187  15  -1.369740   1.291388   3.005474  -0.001143   0.412182  -0.002772
 188  15  -0.495697   0.031314   3.530244  -0.001191   0.451437  -0.002637
 189  15   0.463127  -0.446397   2.433622  -0.001593   0.471065  -0.003381
 190  16   1.331159   3.501421   8.108556  -0.001539   0.372926  -0.004126
 191  16   2.484143   2.010537   7.784193  -0.000906   0.333671  -0.002715
 192  16   0.505544   2.129613   7.279758  -0.000360   0.333671  -0.001077
 193  16   0.057605   4.072245   7.026999  -0.000583   0.314043  -0.001855
 194  16   2.225218   4.244929   8.025220  -0.001936   0.431809  -0.004483
 195  16   2.544861   2.988560   8.135420  -0.001529   0.353299  -0.004328
 196  16   1.332427   2.479255   7.960567  -0.001278   0.353299  -0.003617
 197  16   0.139569   3.075660   7.316968  -0.000816   0.412182  -0.001979
 198  16   0.847984   4.382573   7.636527  -0.001475   0.412182  -0.003580
 199  16   1.591280   1.586771   7.444049  -0.000266   0.294415  -0.000902
 200  17   2.335120   5.629032  -1.925803  -0.001995   0.353299  -0.005647
 201  17   2.137239   7.343805  -1.290596  -0.000995   0.333671  -0.002983
 202  17   1.102445   6.256226  -1.516192  -0.000823   0.392554  -0.002098
[...]
 465  16  -0.125659   4.247443   6.492697  -0.000100   0.075680  -0.001315
 466  16  -0.212601   3.044305   6.553595  -0.000177   0.171273  -0.001036
 467  16   0.491430   1.790361   6.767237  -0.000153   0.171273  -0.000894
 468  16   1.837905   1.321645   7.051820  -0.000372   0.171273  -0.002170
 469   4  -0.380564   3.807648   6.129388  -0.000133   0.162973  -0.000818
 470   4  -0.128272   2.202268   6.280247   0.000183   0.162973   0.001125
 471   4   1.100264   1.170158   6.578753   0.000102   0.162973   0.000623
 472   4   2.400006   1.022488   6.833871  -0.000012   0.092459  -0.000127
 473  17   1.970925   3.526337  -0.680260  -0.000238   0.102154  -0.002326
 474   4   1.821223   2.589817  -0.073074   0.000240   0.144031   0.001668
 475  18  -1.814429   4.459906   3.260147  -0.000352   0.168567  -0.002086
 476  18  -1.522484   5.079157   4.301340  -0.000949   0.342679  -0.002769
 477   4  -1.364205   3.726620   4.092504   0.000585   0.464849   0.001258
 478   4  -0.949825   4.479393   5.219751   0.000436   0.237665   0.001834
 479   5   0.386649   6.103956   6.025181  -0.000106   0.103532  -0.001028
 480   6   0.660154   6.473749   6.210916  -0.000163   0.103532  -0.001571
 481  16   0.594004   5.507163   6.432026  -0.000080   0.103532  -0.000775
 482   5   2.544498   8.259812  -0.267010   0.000088   0.026693   0.003311
 483   6   2.790912   8.607232  -0.018302   0.000200   0.026693   0.007495
 484  17   2.599578   8.037385  -0.465088  -0.000028   0.026693  -0.001033
 485   5  -0.362501   8.799203   2.177156  -0.000004   0.028547  -0.000140
 486   6  -0.086728   9.141826   2.400518   0.000041   0.028547   0.001423
 487  18  -0.608350   8.637628   2.249305  -0.000040   0.028547  -0.001392
 488   5   0.136036   7.017067   5.772873  -0.000050   0.015611  -0.003196
 489   6   0.350885   7.386156   6.019145  -0.000064   0.015611  -0.004116
 490  19   0.377455   7.663965   6.127701  -0.000094   0.015611  -0.006025
 491   6   2.438631   9.111005   0.285711   0.001366   0.212278   0.006436
 492   6   0.903393   9.444581   1.485100   0.000493   0.431774   0.001141
 493   5   1.475857   8.743012   0.403483   0.000855   0.431774   0.001979
 494   5   0.013820   8.963021   1.715277   0.000199   0.212278   0.000939
 495   6   0.409038   7.120814   6.093118  -0.000083   0.079079  -0.001047
 496   5   0.110599   6.526957   5.833445  -0.000031   0.079079  -0.000395
 497   5  -1.284183   3.872052   1.795145   0.000032   0.043066   0.000742
 498  15  -1.158739   3.166360   1.988098   0.000025   0.043066   0.000583
 499  18  -1.444245   4.104917   1.904603  -0.000074   0.043066  -0.001725
 500  15  -1.020911   2.584691   1.699477  -0.000313   0.172884  -0.001812
 501  15  -0.106938   2.280235   0.855571  -0.000851   0.351923  -0.002417
 502   5  -0.732517   3.510535   0.995958   0.000453   0.476211   0.000951
 503   5   0.381829   3.157173   0.126891   0.000436   0.243796   0.001787
 504  16   0.270613   4.925890   6.571233  -0.000201   0.140502  -0.001434
 505   5  -0.129592   5.689625   5.849327   0.000225   0.198090   0.001137
 506  17   1.412179   3.870943  -0.807447  -0.000141   0.069339  -0.002027
 507  17   0.748867   4.751408  -0.988414  -0.000338   0.154052  -0.002197
 508  17   0.601843   6.090876  -1.076467  -0.000231   0.154052  -0.001499
 509  17   1.286925   7.250255  -0.976231  -0.000305   0.154052  -0.001983
 510  17   2.253451   7.777981  -0.788399  -0.000159   0.069339  -0.002287
 511   5   0.876953   4.025125  -0.587034  -0.000234   0.151898  -0.001539
 512   5   0.245011   5.390402  -0.781499   0.000044   0.151898   0.000293
 513   5   0.564323   6.873351  -0.774269   0.000048   0.151898   0.000317
 514   5   1.701759   7.855690  -0.568359  -0.000129   0.151898  -0.000848
 515   5  -0.436782   7.201916   5.175354  -0.000068   0.051058  -0.001327
 516  18  -0.665909   7.192019   4.976673  -0.000111   0.051058  -0.002165
 517  19  -0.091760   7.815344   5.500943  -0.000155   0.051058  -0.003035
 518  18  -0.936310   8.355399   1.899419  -0.000137   0.073265  -0.001870
 519  18  -1.141261   7.586797   1.033052  -0.000294   0.164807  -0.001783
 520  18  -1.423958   6.245017   0.672559  -0.000285   0.164807  -0.001726
 521  18  -1.629831   4.976890   1.272325  -0.000445   0.164807  -0.002700
 522   5  -0.653987   8.226484   1.368602  -0.000258   0.158627  -0.001626
 523   5  -0.959106   6.952048   0.464597   0.000025   0.158627   0.000158
 524   5  -1.250857   5.393530   0.607479  -0.000055   0.158627  -0.000345
 525   5  -1.397680   4.369130   1.390838  -0.000048   0.089509  -0.000539
 526  18  -1.164379   6.187667   4.824541  -0.000368   0.119157  -0.003088
 527   5  -0.770732   6.371278   5.075341  -0.000256   0.145577  -0.001757
 528  19   0.166208   8.015786   6.022529  -0.000421   0.125418  -0.003358
 529   5  -0.202217   7.005780   5.588733   0.000107   0.176584   0.000606
 530   6   5.252336   7.567848   7.141577   0.001949   0.126913   0.015355
 531   7   5.670290   7.668102   7.074002   0.001791   0.126913   0.014111
 532  10   5.893341   6.734658   7.344503   0.001193   0.126913   0.009400
 533   6   3.255103   8.789234   0.052834   0.000740   0.085837   0.008626
 534   7   3.676719   8.872545   0.006387   0.000838   0.085837   0.009758
 535  17   3.055776   8.171213  -0.320822   0.000168   0.085837   0.001958
 536   6   3.731169  11.266091   5.518555  -0.000013   0.011020  -0.001194
 537   7   4.144833  11.330090   5.420080   0.000003   0.011020   0.000297
 538  19   3.484012  11.218031   5.680670  -0.000055   0.011020  -0.004970
 539   6   4.655483  10.285308   6.552440   0.000011   0.010743   0.001062
 540   7   5.066306  10.403058   6.504816  -0.000013   0.010743  -0.001188
 541  20   5.308189  10.574167   6.461822  -0.000066   0.010743  -0.006144
 542   7   3.865362   9.723312   0.265059   0.002164   0.191229   0.011317
 543   7   3.808079  11.152596   1.709919   0.006051   0.392125   0.015432
 544   7   4.147172  11.684155   4.097317   0.002033   0.392125   0.005185
 545   6   3.236481  10.170146   0.895324   0.005950   0.392125   0.015173
 546   6   3.329431  11.491037   2.979506   0.004671   0.392125   0.011913
 547   6   3.719116  11.486986   4.974971   0.000355   0.191229   0.001856
 548   7   5.081325   9.919530   6.745758   0.000333   0.173990   0.001915
 549   7   5.461152   8.584940   7.071842   0.001632   0.173990   0.009381
 550   6   4.676235   9.101849   6.986370   0.001799   0.354017   0.005082
 551   6   3.702312   5.959494   7.226721   0.001941   0.293983   0.006602
 552  10   4.462358   5.235156   7.480700   0.000711   0.293983   0.002419
 553  16   3.396547   5.017288   7.388694   0.000417   0.293983   0.001417
 554  10   5.602339   5.959548   7.771653  -0.000305   0.438221  -0.000695
 555   6   4.346082   6.893270   7.440903   0.005089   0.626310   0.008126
 556  16   2.543639   5.030197   7.609527  -0.000184   0.238304  -0.000770
 557  16   1.289416   5.215715   7.207527  -0.000985   0.481206  -0.002047
 558   6   2.377547   6.522886   7.275888   0.002021   0.666367   0.003033
 559   6   0.977003   6.676642   6.703063   0.000529   0.338054   0.001566
 560  17   2.667529   7.933183  -0.631369  -0.000041   0.026377  -0.001554
 561   6   2.986482   8.814328  -0.026107   0.000218   0.037215   0.005857
 562   6  -0.265741   9.000432   4.289614  -0.000049   0.036353  -0.001336
 563  18  -0.684046   8.470952   3.986331  -0.000041   0.036353  -0.001136
 564  19  -0.182465   9.120730   4.551119  -0.000139   0.036353  -0.003821
 565  18  -1.049649   8.350953   3.460836  -0.000431   0.164193  -0.002626
 566  18  -0.865896   8.557081   2.560016  -0.000308   0.164193  -0.001879
 567   6  -0.236811   9.206216   3.329611   0.000253   0.453168   0.000558
 568   6   4.313296  10.259116   6.607562   0.000003   0.026962   0.000121
 569  19   4.020875  10.300508   6.656171  -0.000074   0.026962  -0.002735
 570  20   4.967354  10.502662   6.437948  -0.000040   0.026962  -0.001491
 571  19   2.989897  11.325721   5.625097  -0.000240   0.075420  -0.003188
 572  19   2.011941  11.356604   4.897803  -0.000382   0.171712  -0.002225
 573  19   0.766806  10.685018   4.512869  -0.000519   0.171712  -0.003021
 574  19   0.033764   9.731278   4.711207  -0.000294   0.075420  -0.003901
 575   6   2.895056  11.410351   5.014274  -0.000274   0.161400  -0.001695
 576   6   1.484409  11.124879   4.216364  -0.000109   0.161400  -0.000677
 577   6   0.282280  10.001104   4.206533  -0.000429   0.161400  -0.002657
 578  19   0.616576   7.886801   6.534429  -0.000308   0.069394  -0.004441
 579  19   1.546222   7.926899   7.172934  -0.000493   0.154871  -0.003184
 580  19   2.698002   8.573663   7.509577  -0.000287   0.154871  -0.001852
 581  19   3.435458   9.677575   7.200122  -0.000542   0.154871  -0.003499
 582   6   1.038090   7.482616   6.667231  -0.000532   0.151306  -0.003518
 583   6   2.359622   7.814662   7.365562  -0.000030   0.151306  -0.000197
 584   6   3.482635   8.855311   7.381723   0.000036   0.151306   0.000236
 585   6   3.971932   9.908719   6.932118  -0.000085   0.084780  -0.001006
 586   7   4.094526   8.744630  -0.203100   0.000921   0.140934   0.006532
 587   8   4.382548   8.486946  -0.515133   0.000393   0.140934   0.002789
 588  17   3.482246   8.020809  -0.499685   0.000128   0.140934   0.000907
 589   7   7.021342  10.767090   0.423899   0.000104   0.026685   0.003905
 590   8   7.307037  10.548682   0.089231   0.000036   0.026685   0.001346
 591  22   7.599668  10.535230   0.012833  -0.000016   0.026685  -0.000597
 592   8   5.175642   9.240946  -0.601752   0.000868   0.265687   0.003268
 593   8   6.643605  10.328719  -0.150989   0.000347   0.265687   0.001307
 594   7   5.520645  10.103327   0.121800   0.001732   0.553963   0.003126
 595  10   7.702642   6.451746   7.273268  -0.000008   0.274477  -0.000028
 596  10   6.593446   6.443079   7.647407  -0.000005   0.274477  -0.000019
 597   7   6.950750   7.774978   6.906183   0.004978   0.765197   0.006506
 598   7   8.716339   8.691820   5.684218   0.000024   0.057252   0.000412
 599  13   9.477806   7.997318   5.487030   0.000112   0.057252   0.001949
 600  20   8.666647   8.987367   5.677854  -0.000124   0.057252  -0.002165
 601  13   9.919440   7.413892   5.822104   0.000042   0.211435   0.000201
 602   7   8.616120   8.229276   6.070318   0.000761   0.301994   0.002519
 603  17   2.937057   7.939997  -0.679973   0.000000   0.016614   0.000003
 604   7   3.862347   8.968683  -0.206210   0.000135   0.023583   0.005742
 605   7   4.495817  11.390707   5.431650  -0.000027   0.026685  -0.001026
 606  19   3.839146  11.198616   5.648967  -0.000034   0.026685  -0.001267
 607  20   4.782782  11.457061   5.484457  -0.000096   0.026685  -0.003612
 608  19   3.346010  11.229446   5.806546  -0.000029   0.005755  -0.004984
 609   7   4.330519  11.451981   5.441406   0.000036   0.008143   0.004481
 610   7   8.742065  10.738942   2.744743  -0.000041   0.013856  -0.002923
 611  20   8.677029  10.858689   3.010689  -0.000088   0.013856  -0.006358
 612  22   9.105855  10.444549   2.165389  -0.000020   0.013856  -0.001458
 613  20   8.393731  11.326545   3.289794  -0.000332   0.071194  -0.004657
 614  20   7.425820  11.952569   3.202775  -0.000526   0.159825  -0.003291
 615  20   6.190192  12.294124   3.751742  -0.000321   0.159825  -0.002007
 616  20   5.380017  12.006371   4.849748  -0.000608   0.159825  -0.003804
 617   7   7.996936  11.423487   2.841777  -0.000515   0.154361  -0.003335
 618   7   6.602772  12.113922   3.021177  -0.000052   0.154361  -0.000338
 619   7   5.383142  12.145997   4.003039  -0.000019   0.154361  -0.000123
 620   7   4.840291  11.719488   5.075831  -0.000117   0.086979  -0.001342
 621  20   5.773640  10.567982   6.592603  -0.000238   0.067993  -0.003507
 622  20   6.667406   9.934169   6.753360  -0.000304   0.151091  -0.002014
 623  20   7.870787   9.517955   6.339263  -0.000480   0.151091  -0.003177
 624   7   5.837975   9.993255   6.724648  -0.000220   0.148865  -0.001481
 625   7   7.151715   9.262659   6.670971  -0.000067   0.148865  -0.000448
 626   7   8.211696   9.034251   6.106874  -0.000066   0.083069  -0.000790
 627  22   7.988736  10.660917   0.166395  -0.000256   0.182733  -0.001400
 628  22   8.902675  10.623511   1.148820  -0.001141   0.372752  -0.003060
 629   7   7.571662  11.098016   1.216077   0.000597   0.502240   0.001189
 630   7   8.599969  10.925764   2.331218   0.000266   0.257596   0.001032
 631   8   9.792141   9.046048   3.671323  -0.000157   0.157903  -0.000991
 632  13  10.210697   8.526248   4.028030  -0.000070   0.157903  -0.000441
 633  20   9.343931   9.486570   4.133766  -0.000406   0.157903  -0.002574
 634   8  10.681278   8.672415   2.393397   0.000053   0.039874   0.001319
 635  13  11.046319   8.192067   2.844550   0.000056   0.039874   0.001403
 636  22  10.692110   8.784660   2.112461  -0.000071   0.039874  -0.001782
 637  13  11.147406   8.114285   3.556463  -0.000424   0.220114  -0.001926
 638   8  10.390035   8.841668   3.112049   0.000389   0.309980   0.001256
 639   8   7.879610   4.445809  -1.235286   0.000026   0.039499   0.000651
 640  14   8.370230   3.949246  -0.970315   0.000026   0.039499   0.000664
 641  21   7.586652   4.471140  -1.302702  -0.000113   0.039499  -0.002869
 642  14   9.018605   3.789858  -1.030824  -0.000268   0.178434  -0.001501
 643  14  10.078588   4.550460  -0.902179  -0.000845   0.363528  -0.002325
 644   8   8.803270   4.936662  -1.344615   0.000487   0.490954   0.000991
 645   8   9.997348   5.788209  -1.075748   0.000434   0.251522   0.001725
 646   8   4.659636   7.833780  -1.159421  -0.000198   0.069953  -0.002830
 647  17   3.741400   7.411021  -1.113087  -0.000295   0.069953  -0.004212
 648  21   4.570101   7.573788  -1.287943  -0.000276   0.069953  -0.003952
 649  17   3.153265   7.667785  -0.975699  -0.000271   0.152480  -0.001780
 650   8   4.539103   8.223661  -1.062852   0.000483   0.216830   0.002228
 651   8   9.382798  10.095524   2.512485  -0.000036   0.039078  -0.000920
 652  20   8.977879  10.465580   3.062647  -0.000123   0.039078  -0.003144
 653  22   9.474126  10.116465   2.224743  -0.000109   0.039078  -0.002797
 654  20   9.045212  10.368786   3.966017  -0.001014   0.233218  -0.004348
 655   8   9.546606   9.848235   3.040553   0.000044   0.327998   0.000135
 656  21   5.152094   7.671472  -1.621415  -0.000137   0.076471  -0.001785
 657  21   6.150219   7.178624  -2.139491  -0.000348   0.174178  -0.001998
 658  21   7.043232   6.004167  -2.186418  -0.000453   0.174178  -0.002600
 659  21   7.270050   4.886018  -1.732713  -0.000222   0.076471  -0.002901
 660   8   5.738368   7.866776  -1.734440  -0.000134   0.163646  -0.000819
 661   8   7.002970   6.901663  -2.197341   0.000025   0.163646   0.000155
 662   8   7.610858   5.404149  -1.832838  -0.000316   0.163646  -0.001932
 663  22  10.385947   7.330932  -0.936180  -0.000138   0.069593  -0.001988
 664  22   9.558880   7.688193  -1.604055  -0.000308   0.154772  -0.001992
 665  22   8.550393   8.563975  -1.834353  -0.000234   0.154772  -0.001511
 666  22   7.915847   9.632264  -1.292885  -0.000265   0.154772  -0.001715
 667  22   7.820619  10.366280  -0.450338  -0.000110   0.069593  -0.001585
 668   8   9.936268   7.045540  -1.212509  -0.000270   0.152308  -0.001772
 669   8   8.768499   7.752543  -1.886701   0.000027   0.152308   0.000178
 670   8   7.792980   8.906797  -1.701950   0.000072   0.152308   0.000472
 671   8   7.419928  10.022925  -0.735945  -0.000176   0.152308  -0.001153
 672  22  10.122931   9.709035   1.856379  -0.000387   0.121621  -0.003178
 673   8  10.187922   9.379879   2.232596  -0.000247   0.148587  -0.001662
 674  12   7.057372  -1.341884   4.465875   0.000250   0.248397   0.001006
 675  12   6.578925  -1.095672   5.586064  -0.000230   0.497240  -0.000463
 676   9   8.057522  -0.740606   5.289431  -0.000170   0.497240  -0.000341
 677   9   7.546356  -0.393259   6.367584   0.000272   0.248397   0.001096
 678  14  10.661211   1.397376   2.238114   0.000296   0.122711   0.002411
 679   9  10.237656   0.734317   3.447285   0.000340   0.122711   0.002768
 680  13   9.760681   6.512026   6.369947   0.000224   0.074134   0.003015
 681  10   8.617488   6.019231   7.131482   0.000210   0.074134   0.002837
 682  16   3.520381   3.219295   7.964156   0.000070   0.329546   0.000213
 683  16   3.301069   4.305326   7.883337   0.000108   0.329546   0.000328
 684  10   4.921280   4.075330   8.030971  -0.000355   0.659834  -0.000538
 685  11   6.954337   2.865662  -0.638518  -0.000425   0.287424  -0.001479
 686  14   7.939504   3.308411  -0.638624   0.000075   0.287424   0.000261
 687  21   7.146390   3.855309  -0.940244  -0.000295   0.287424  -0.001025
 688  14   8.997533   1.445206   0.223751   0.000026   0.266585   0.000098
 689  14   8.612443   2.311271  -0.507144  -0.000218   0.533149  -0.000409
 690  11   7.465236   1.128787  -0.094358  -0.000246   0.533149  -0.000461
 691  11   7.053910   2.051272  -0.736544  -0.000198   0.266585  -0.000743
 692  11   4.611351   3.339140  -0.862300  -0.000396   0.261831  -0.001514
 693  17   3.931276   4.215066  -1.073058  -0.001074   0.261831  -0.004101
 694  21   4.789283   4.318469  -1.197432  -0.001345   0.261831  -0.005135
 695  17   3.299263   3.901534  -1.240941  -0.000159   0.244418  -0.000649
 696  17   2.668377   3.474554  -0.958380  -0.000003   0.244418  -0.000012
 697  11   3.952253   2.439089  -0.824707  -0.000198   0.488573  -0.000406
 698  21   6.497538   4.021655  -1.456251  -0.000405   0.294221  -0.001377
 699  21   5.485368   4.187932  -1.544170  -0.000590   0.294221  -0.002007
 700  11   5.723661   2.709206  -1.056652  -0.001536   0.588893  -0.002609
 701  15   1.443024  -0.690498   3.212362   0.000198   0.321006   0.000616
 702  12   2.614222  -1.250336   3.752778   0.000227   0.321006   0.000707
 703  20   8.961503   9.373400   5.630461   0.000217   0.350108   0.000620
 704  20   9.321996   9.792441   4.767357  -0.000032   0.350108  -0.000092
 705  13  10.358816   8.173162   5.022799   0.000120   0.699406   0.000171
 706  22  10.973186   8.758294   1.811402   0.000296   0.249717   0.001184
 707  13  11.595757   7.868530   2.764440   0.000358   0.249717   0.001435
 708  21   7.395231   4.307626  -1.426433   0.000103   0.096345   0.001072
 709  14   8.479331   3.492050  -0.984554   0.000138   0.096345   0.001431
 710  18  -1.735221   4.156486   2.306762   0.000069   0.329180   0.000211
 711  15  -1.420007   2.803818   2.601728   0.000224   0.329180   0.000680
 712  21   4.774242   4.934910  -1.731194  -0.001036   0.220545  -0.004699
 713  21   4.597939   6.107597  -1.928420  -0.002185   0.441606  -0.004948
 714  21   4.489529   7.262522  -1.612870  -0.000387   0.220545  -0.001755
 715  17   3.492313   5.221677  -1.683377  -0.002394   0.441606  -0.005421
 716  17   3.314828   6.672664  -1.609616  -0.002077   0.441606  -0.004704
 717  19  -0.309699   9.039514   4.943288  -0.000179   0.261795  -0.000684
 718  19  -0.203375   8.358838   5.606733  -0.000293   0.261795  -0.001119
 719  18  -0.998902   7.794343   4.465649  -0.000572   0.523894  -0.001092
 720  20   4.951946  11.479555   5.814838  -0.000085   0.223609  -0.000381
 721  20   5.189752  10.940484   6.392466  -0.000076   0.223609  -0.000340
 722  19   3.716223  10.875583   6.349231  -0.000537   0.447224  -0.001200
 723  22   9.517095  10.394853   2.001544   0.000189   0.125547   0.001507
 724  20   8.899739  10.893788   3.250633   0.000050   0.125547   0.000398
 =====================================================

              4977024  WORDS OF DYNAMIC MEMORY USED
 EXECUTION OF GAMESS TERMINATED NORMALLY Wed Nov 23 23:10:35 2016
 DDI: 263640 bytes (0.3 MB / 0 MWords) used by master data server.

 ----------------------------------------
 CPU timing information for all processes
 ========================================
 0: 2976.488 + 0.816 = 2977.304
 ----------------------------------------
 ddikick.x: exited gracefully.
