----- GAMESS execution script -----

          ******************************************************
          *         GAMESS VERSION =  5 DEC 2014 (R1)          *
          *             FROM IOWA STATE UNIVERSITY             *
          * M.W.SCHMIDT, K.K.BALDRIDGE, J.A.BOATZ, S.T.ELBERT, *
          *   M.S.GORDON, J.H.JENSEN, S.KOSEKI, N.MATSUNAGA,   *
          *          K.A.NGUYEN, S.J.SU, T.L.WINDUS,           *
          *       TOGETHER WITH M.DUPUIS, J.A.MONTGOMERY       *
          *         J.COMPUT.CHEM.  14, 1347-1363(1993)        *
          **************** 64 BIT LINUX VERSION ****************

 EXECUTION OF GAMESS BEGUN Wed Nov 23 22:36:34 2016

            ECHO OF THE FIRST FEW INPUT CARDS -
 INPUT CARD>! SELECT RESTRICTED HARTREE-FOCK AS DEFAULT                                     
 INPUT CARD>$contrl scftyp=rhf $end                                                         
 INPUT CARD>                                                                                
 INPUT CARD>! THEORY: HF OR DFT                                                             
 INPUT CARD> $contrl mplevl=0 $end                                                          
 INPUT CARD>                                                                                
 INPUT CARD> $system timlim=10000 mwords=20 $end                                            
 INPUT CARD> $SCF DIRSCF=.TRUE. $end                                                        
 INPUT CARD>                                                                                
 INPUT CARD>                                                                                
 INPUT CARD>! BASIS SETS                                                                    
 INPUT CARD>! 6-311G(d,p)                                                                   
 INPUT CARD> $BASIS GBASIS=N311 NGAUSS=6 NDFUNC=1 NPFUNC=1 $END                             
 INPUT CARD>                                                                                
 INPUT CARD>! One of the following                                                          
 INPUT CARD> $guess guess=HUCKEL $end                                                       
 INPUT CARD>                                                                                
 INPUT CARD> $statpt projct=.FALSE. $end                                                    
 INPUT CARD> $STATPT IFREEZ(1)=1,2,3 $END                                                   
 INPUT CARD>                                                                                
 INPUT CARD>! Optimize the geometry with COSMO effects                                      
 INPUT CARD> $statpt opttol=0.0005 nstep=50 $end                                            
 INPUT CARD> $contrl nzvar=1 $end                                                           
 INPUT CARD> $zmat dlc=.t. auto=.t. $end                                                    
 INPUT CARD> $contrl runtyp=OPTIMIZE maxit=200 $end                                         
 INPUT CARD>                                                                                
 INPUT CARD>! Run COSMO on perfect conductor                                                
 INPUT CARD> $COSGMS PRFCND=.TRUE. $end                                                     
 INPUT CARD>                                                                                
 INPUT CARD>! Specifying RSOLV                                                              
 INPUT CARD> $COSGMS COSRAD = 1.4 $end                                                      
 INPUT CARD>                                                                                
 INPUT CARD>! available memory                                                              
 INPUT CARD> $SYSTEM MWORDS=40 $END                                                         
 INPUT CARD>                                                                                
 INPUT CARD> $DATA                                                                          
 INPUT CARD>n-Butyl ether, ID: C142961                                                      
 INPUT CARD>C1                                                                              
 INPUT CARD>C      6.0      3.3965000000    2.7525000000    2.1502000000                    
 INPUT CARD>O      8.0      3.1322000000    4.0908000000    2.5534000000                    
 INPUT CARD>C      6.0      3.4435000000    4.3777000000    3.8989000000                    
 INPUT CARD>C      6.0      2.6918000000    2.5209000000    0.8147000000                    
 INPUT CARD>C      6.0      4.9324000000    4.3642000000    4.2410000000                    
 INPUT CARD>C      6.0      1.2243000000    2.1594000000    0.9924000000                    
 INPUT CARD>C      6.0      5.7237000000    5.3927000000    3.4505000000                    
 INPUT CARD>C      6.0      1.0521000000    0.8547000000    1.7386000000                    
 INPUT CARD>C      6.0      7.1854000000    5.3820000000    3.8369000000                    
 INPUT CARD>H      1.0      3.0314000000    2.0212000000    2.9086000000                    
 INPUT CARD>H      1.0      4.4906000000    2.6191000000    2.0517000000                    
 INPUT CARD>H      1.0      2.8902000000    3.6974000000    4.5756000000                    
   40000000 WORDS OF MEMORY AVAILABLE

     BASIS OPTIONS
     -------------
     GBASIS=N311         IGAUSS=       6      POLAR=POPN311 
     NDFUNC=       1     NFFUNC=       0     DIFFSP=       F
     NPFUNC=       1      DIFFS=       F     BASNAM=        


     RUN TITLE
     ---------
 n-Butyl ether, ID: C142961                                                      

 THE POINT GROUP OF THE MOLECULE IS C1      
 THE ORDER OF THE PRINCIPAL AXIS IS     0

 ATOM      ATOMIC                      COORDINATES (BOHR)
           CHARGE         X                   Y                   Z
 C           6.0     6.4184543173        5.2014707812        4.0632888188
 O           8.0     5.9189997387        7.7304910706        4.8252263370
 C           6.0     6.5072714387        8.2726534565        7.3678526535
 C           6.0     5.0867644137        4.7638102424        1.5395597622
 C           6.0     9.3208844618        8.2471421556        8.0143279139
 C           6.0     2.3135915268        4.0806742979        1.8753640702
 C           6.0    10.8162246359       10.1907253340        6.5204995206
 C           6.0     1.9881807117        1.6151488017        3.2854776023
 C           6.0    13.5784371122       10.1705052659        7.2506896423
 H           1.0     5.7285153592        3.8195141664        5.4964570079
 H           1.0     8.4860035205        4.9493813344        3.8771508090
 H           1.0     5.4616860497        6.9870728670        8.6466302294
 H           1.0     5.6973348804       10.1861899916        7.5640062111
 H           1.0     6.0724454889        3.2212269187        0.5234540986
 H           1.0     5.2541941363        6.4528473303        0.3135055414
 H           1.0    10.1253408148        6.3370071272        7.7029010712
 H           1.0     9.5283763753        8.6169615314       10.0654365010
 H           1.0     1.3912162722        3.9601097799        0.0000000000
 H           1.0     1.3265876434        5.6228796765        2.8909028160
 H           1.0    10.0070439680       12.0978368008        6.8289028018
 H           1.0    10.6134570374        9.8180713692        4.4699578514
 H           1.0     2.6868124093        0.0000000000        2.1875468034
 H           1.0     3.0575766481        1.6544551023        5.0752370852
 H           1.0     0.0000000000        1.2511875765        3.7386338941
 H           1.0    14.4526243541        8.3236760581        6.8880512252
 H           1.0    14.6506676376       11.5834533869        6.1767583635
 H           1.0    13.8431877231       10.5919141612        9.2655154904

          INTERNUCLEAR DISTANCES (ANGS.)




     $CONTRL OPTIONS
     ---------------
 SCFTYP=RHF          RUNTYP=OPTIMIZE     EXETYP=RUN     
 MPLEVL=       0     CITYP =NONE         CCTYP =NONE         VBTYP =NONE    
 DFTTYP=NONE         TDDFT =NONE    
 MULT  =       1     ICHARG=       0     NZVAR =       1     COORD =UNIQUE  
 PP    =NONE         RELWFN=NONE         LOCAL =NONE         NUMGRD=       F
 ISPHER=      -1     NOSYM =       0     MAXIT =     200     UNITS =ANGS    
 PLTORB=       F     MOLPLT=       F     AIMPAC=       F     FRIEND=        
 NPRINT=       7     IREST =       0     GEOM  =INPUT   
 NORMF =       0     NORMP =       0     ITOL  =      20     ICUT  =       9
 INTTYP=BEST         GRDTYP=BEST         QMTTOL= 1.0E-06

     $SYSTEM OPTIONS
     ---------------
  REPLICATED MEMORY=    40000000 WORDS (ON EVERY NODE).
 DISTRIBUTED MEMDDI=           0 MILLION WORDS IN AGGREGATE,
 MEMDDI DISTRIBUTED OVER   1 PROCESSORS IS           0 WORDS/PROCESSOR.
 TOTAL MEMORY REQUESTED ON EACH PROCESSOR=    40000000 WORDS.
 TIMLIM=       10000.00 MINUTES, OR       6.9 DAYS.
 PARALL= F  BALTYP=  DLB     KDIAG=    0  COREFL= F
 MXSEQ2=     300 MXSEQ3=     150  mem10=         0

     $COSGMS OPTIONS
     ---------------
     EPSI  =   INFTY     NSPA  =      92     COSRAD=    1.40
     DISEX =   10.00     OUTCHG=DBLCAV       COSBUG=       F
     COSWRT=       F     DCOSMO=       F

     SYMMETRY COORDINATES WILL NOT BE USED FOR 
     THE COSMO CALCULATION, EVEN IF SPECIFIED:
         -- SWITCHING TO C1 POINT GROUP --


     DEFINITION OF CAVITY
     ---------------------------
     ATOM         COORDINATES           RADIUS 
     1    6.4185    5.2015    4.0633    2.0000
     2    5.9190    7.7305    4.8252    1.7200
     3    6.5073    8.2727    7.3679    2.0000
     4    5.0868    4.7638    1.5396    2.0000
     5    9.3209    8.2471    8.0143    2.0000
     6    2.3136    4.0807    1.8754    2.0000
     7   10.8162   10.1907    6.5205    2.0000
     8    1.9882    1.6151    3.2855    2.0000
     9   13.5784   10.1705    7.2507    2.0000
    10    5.7285    3.8195    5.4965    1.3000
    11    8.4860    4.9494    3.8772    1.3000
    12    5.4617    6.9871    8.6466    1.3000
    13    5.6973   10.1862    7.5640    1.3000
    14    6.0724    3.2212    0.5235    1.3000
    15    5.2542    6.4528    0.3135    1.3000
    16   10.1253    6.3370    7.7029    1.3000
    17    9.5284    8.6170   10.0654    1.3000
    18    1.3912    3.9601    0.0000    1.3000
    19    1.3266    5.6229    2.8909    1.3000
    20   10.0070   12.0978    6.8289    1.3000
    21   10.6135    9.8181    4.4700    1.3000
    22    2.6868    0.0000    2.1875    1.3000
    23    3.0576    1.6545    5.0752    1.3000
    24    0.0000    1.2512    3.7386    1.3000
    25   14.4526    8.3237    6.8881    1.3000
    26   14.6507   11.5835    6.1768    1.3000
    27   13.8432   10.5919    9.2655    1.3000

          ----------------
          PROPERTIES INPUT
          ----------------

     MOMENTS            FIELD           POTENTIAL          DENSITY
 IEMOM =       1   IEFLD =       0   IEPOT =       0   IEDEN =       0
 WHERE =COMASS     WHERE =NUCLEI     WHERE =NUCLEI     WHERE =NUCLEI  
 OUTPUT=BOTH       OUTPUT=BOTH       OUTPUT=BOTH       OUTPUT=BOTH    
 IEMINT=       0   IEFINT=       0                     IEDINT=       0
                                                       MORB  =       0
          EXTRAPOLATION IN EFFECT
          SOSCF IN EFFECT
 ORBITAL PRINTING OPTION: NPREO=     1   279     2     1

     -------------------------------
     INTEGRAL TRANSFORMATION OPTIONS
     -------------------------------
     NWORD  =            0
     CUTOFF = 1.0E-09     MPTRAN =       0
     DIRTRF =       T     AOINTS =DUP     

          ----------------------
          INTEGRAL INPUT OPTIONS
          ----------------------
 NOPK  =       1 NORDER=       0 SCHWRZ=       T


 -----------------------------------------------
  STATISTICS ON AUTOMATIC COORDINATE GENERATION 
 -----------------------------------------------
  NUMBER OF USER SPECIFIED BONDS                             0
  NUMBER OF BONDS                                           26
  NUMBER OF ANGLES                                          49
  NUMBER OF TORSIONS                                        60
  NUMBER OF EXTRA COORD.                                     0
  NUMBER OF EXTRA COORD. FOR CONSTRAINTS                     0
  NUMBER OF CONSTRAINED COORD.                               0

  TOTAL NUMBER OF PRIMITIVES                               135
 -----------------------------------------------

   --- ENCODED Z MATRIX ---
 COORD  TYPE   I   J   K   L   M   N
    1      1    1   2
    2      1    1   4
    3      1    1  11
    4      1    1  10
    5      1    2   3
    6      1    3  13
    7      1    3  12
    8      1    3   5
    9      1    4  15
   10      1    4  14
   11      1    4   6
   12      1    5  16
   13      1    5   7
   14      1    5  17
   15      1    6   8
   16      1    6  19
   17      1    6  18
   18      1    7  21
   19      1    7  20
   20      1    7   9
   21      1    8  24
   22      1    8  23
   23      1    8  22
   24      1    9  27
   25      1    9  26
   26      1    9  25
   27      2    1   4   6
   28      2    1   4  14
   29      2    1   4  15
   30      2    1   2   3
   31      2    2   1  10
   32      2    2   1  11
   33      2    2   1   4
   34      2    2   3  12
   35      2    2   3  13
   36      2    2   3   5
   37      2    3   5  17
   38      2    3   5   7
   39      2    3   5  16
   40      2    4   6  18
   41      2    4   6  19
   42      2    4   1  10
   43      2    4   6   8
   44      2    4   1  11
   45      2    5   3  13
   46      2    5   7   9
   47      2    5   7  20
   48      2    5   7  21
   49      2    5   3  12
   50      2    6   4  15
   51      2    6   4  14
   52      2    6   8  22
   53      2    6   8  23
   54      2    6   8  24
   55      2    7   5  17
   56      2    7   5  16
   57      2    7   9  26
   58      2    7   9  25
   59      2    7   9  27
   60      2    8   6  18
   61      2    8   6  19
   62      2    9   7  20
   63      2    9   7  21
   64      2   10   1  11
   65      2   12   3  13
   66      2   14   4  15
   67      2   16   5  17
   68      2   18   6  19
   69      2   20   7  21
   70      2   22   8  23
   71      2   22   8  24
   72      2   23   8  24
   73      2   25   9  26
   74      2   25   9  27
   75      2   26   9  27
   76      3    1   4   6  18
   77      3    1   4   6  19
   78      3    1   4   6   8
   79      3    1   2   3   5
   80      3    1   2   3  12
   81      3    1   2   3  13
   82      3    2   3   5  17
   83      3    2   3   5   7
   84      3    2   1   4  14
   85      3    2   3   5  16
   86      3    2   1   4  15
   87      3    2   1   4   6
   88      3    3   2   1  10
   89      3    3   2   1  11
   90      3    3   2   1   4
   91      3    3   5   7   9
   92      3    3   5   7  20
   93      3    3   5   7  21
   94      3    4   6   8  22
   95      3    4   6   8  23
   96      3    4   6   8  24
   97      3    5   7   9  25
   98      3    5   7   9  26
   99      3    5   7   9  27
  100      3    6   4   1  10
  101      3    6   4   1  11
  102      3    7   5   3  12
  103      3    7   5   3  13
  104      3    8   6   4  14
  105      3    8   6   4  15
  106      3    9   7   5  17
  107      3    9   7   5  16
  108      3   10   1   4  15
  109      3   10   1   4  14
  110      3   11   1   4  15
  111      3   11   1   4  14
  112      3   12   3   5  16
  113      3   12   3   5  17
  114      3   13   3   5  16
  115      3   13   3   5  17
  116      3   14   4   6  19
  117      3   14   4   6  18
  118      3   15   4   6  19
  119      3   15   4   6  18
  120      3   16   5   7  21
  121      3   16   5   7  20
  122      3   17   5   7  21
  123      3   17   5   7  20
  124      3   18   6   8  24
  125      3   18   6   8  23
  126      3   18   6   8  22
  127      3   19   6   8  24
  128      3   19   6   8  23
  129      3   19   6   8  22
  130      3   20   7   9  27
  131      3   20   7   9  25
  132      3   20   7   9  26
  133      3   21   7   9  27
  134      3   21   7   9  25
  135      3   21   7   9  26

          INDEP./SYM. INTERNAL COORDINATES
          --------------------------------
 CRD  1=   0.3290 ( 27) -0.1298 ( 29)  0.1901 ( 30) -0.1538 ( 33)  0.1281 ( 34)
          -0.3050 ( 36)  0.1146 ( 37) -0.3492 ( 38)  0.1068 ( 39)  0.1775 ( 42)
           0.1901 ( 43)  0.2027 ( 46)  0.1560 ( 49) -0.1239 ( 50)  0.1120 ( 55)
           0.2123 ( 79)  0.1336 ( 80)  0.1944 ( 88)  0.1660 ( 89)  0.3144 ( 90)
 CRD  2=   0.4276 ( 30)  0.1135 ( 32) -0.2130 ( 33) -0.2246 ( 34) -0.1526 ( 35)
           0.5502 ( 36)  0.1561 ( 43) -0.2061 ( 45)  0.2549 ( 79)  0.1789 ( 81)
          -0.1457 ( 91)  0.1331 (102)
 CRD  3=   0.1432 (  2)  0.1233 (  8)  0.4528 ( 27) -0.2040 ( 29)  0.2406 ( 30)
          -0.1554 ( 32)  0.1189 ( 33)  0.3232 ( 38) -0.1061 ( 39) -0.1134 ( 46)
          -0.2338 ( 51) -0.1263 ( 56) -0.1164 ( 78) -0.1884 ( 79) -0.1224 ( 80)
          -0.1212 ( 81) -0.2001 ( 84) -0.1403 ( 86) -0.2492 ( 87)  0.1416 ( 90)
          -0.1341 (105)
 CRD  4=   0.1054 ( 11)  0.2500 ( 27) -0.1381 ( 28) -0.5048 ( 30) -0.1913 ( 31)
           0.4130 ( 33) -0.1468 ( 34)  0.1339 ( 36)  0.2220 ( 43) -0.1099 ( 44)
          -0.1019 ( 45) -0.1247 ( 50)  0.1563 ( 79)  0.1438 ( 80)  0.1454 ( 81)
           0.1074 ( 82)  0.1840 ( 83)  0.1030 ( 85)  0.1091 (102)
 CRD  5=  -0.1274 (  2) -0.1815 (  5) -0.1379 (  8) -0.1470 ( 30)  0.1229 ( 32)
          -0.3249 ( 33) -0.1510 ( 36)  0.2354 ( 38) -0.1084 ( 40) -0.1441 ( 41)
           0.3765 ( 43) -0.4306 ( 46)  0.1233 ( 47)  0.1708 ( 48) -0.1067 ( 55)
          -0.1291 ( 60)  0.1406 ( 62)  0.1051 ( 63) -0.1148 ( 76) -0.1014 ( 78)
           0.1044 ( 87)  0.1052 (101)
 CRD  6=  -0.1619 ( 11) -0.1685 ( 15)  0.1444 ( 38)  0.1305 ( 40)  0.1702 ( 41)
           0.1056 ( 42) -0.4911 ( 43) -0.1059 ( 45) -0.2668 ( 46)  0.1275 ( 48)
          -0.1203 ( 53) -0.1072 ( 55)  0.1661 ( 60)  0.1471 ( 61)  0.2676 ( 79)
           0.2015 ( 80)  0.1760 ( 81)  0.1790 ( 88)  0.1577 ( 89)  0.2382 ( 90)
 CRD  7=   0.1553 (  2)  0.2309 (  5) -0.1587 (  8) -0.2468 ( 13) -0.2193 ( 20)
           0.1199 ( 29)  0.2803 ( 30) -0.1130 ( 31)  0.2938 ( 33)  0.1237 ( 34)
          -0.1864 ( 38)  0.1179 ( 39) -0.1171 ( 44) -0.4125 ( 46)  0.1500 ( 47)
          -0.1064 ( 58)  0.1329 ( 62)  0.1606 ( 63)  0.1529 ( 78) -0.1139 ( 82)
          -0.1203 ( 83)
 CRD  8=   0.3318 (  1)  0.1109 (  2)  0.2653 (  5)  0.1199 (  8)  0.1626 ( 13)
           0.1130 ( 20) -0.2629 ( 27)  0.1034 ( 28)  0.2795 ( 30)  0.1126 ( 35)
          -0.1884 ( 36)  0.2079 ( 38) -0.2162 ( 39) -0.1031 ( 41) -0.1523 ( 55)
          -0.1114 ( 58)  0.1659 ( 59) -0.1312 ( 63)  0.2439 ( 91)  0.1581 ( 92)
           0.1484 ( 93)  0.1117 (106)  0.1329 (107)
 CRD  9=  -0.2209 (  1)  0.1712 (  8)  0.2082 ( 13)  0.1723 ( 20) -0.1316 ( 28)
           0.1372 ( 29)  0.1277 ( 34) -0.1080 ( 35) -0.1965 ( 37)  0.3263 ( 38)
          -0.1034 ( 40)  0.1121 ( 43)  0.1449 ( 45) -0.1055 ( 50)  0.1510 ( 51)
           0.1248 ( 52) -0.2289 ( 56)  0.1004 ( 58) -0.1438 ( 61)  0.1177 ( 77)
           0.2150 ( 78) -0.2069 ( 83) -0.1297 ( 85)  0.1087 ( 87)  0.1158 ( 90)
          -0.1277 (102) -0.1226 (103)  0.1269 (104)  0.1423 (105)
 CRD 10=  -0.1097 (  3)  0.1704 ( 15) -0.2808 ( 27)  0.1832 ( 28) -0.1327 ( 32)
           0.2114 ( 33)  0.1161 ( 39) -0.2032 ( 41)  0.1135 ( 43)  0.1758 ( 50)
           0.1961 ( 53)  0.1747 ( 58) -0.2054 ( 59) -0.1640 ( 60)  0.1284 ( 61)
          -0.1117 ( 62)  0.1338 ( 63) -0.1040 ( 76) -0.1776 ( 78)  0.1308 ( 88)
           0.1804 ( 89)  0.1889 ( 90) -0.2218 ( 91) -0.1042 ( 92) -0.1131 ( 93)
          -0.1220 ( 94) -0.1085 ( 95) -0.1199 (104) -0.1461 (106) -0.1256 (107)
 CRD 11=   0.4120 (  2) -0.3849 ( 15) -0.1349 ( 30) -0.1931 ( 31)  0.2153 ( 40)
          -0.1155 ( 41)  0.1891 ( 42)  0.1160 ( 44) -0.1448 ( 50) -0.2153 ( 52)
          -0.1866 ( 60)  0.1325 ( 61)  0.1293 ( 70)  0.1167 ( 71) -0.1488 ( 78)
           0.1053 ( 84)  0.1853 ( 87) -0.1893 ( 88) -0.1231 ( 94) -0.1339 ( 95)
           0.1461 (101) -0.1242 (105)
 CRD 12=   0.2214 (  1) -0.2510 (  8) -0.2227 ( 15)  0.1020 ( 30)  0.1208 ( 34)
           0.1621 ( 35) -0.1682 ( 36) -0.1400 ( 39) -0.1155 ( 53) -0.1107 ( 54)
           0.1477 ( 56)  0.3702 ( 58) -0.3039 ( 59) -0.1304 ( 62) -0.1011 ( 73)
           0.1157 ( 75) -0.1353 ( 79) -0.1395 ( 81)  0.1600 ( 83) -0.1760 ( 91)
           0.1074 ( 97)  0.1892 ( 98)  0.1450 (102) -0.1073 (106) -0.1860 (107)
 CRD 13=  -0.2900 (  2) -0.1077 (  3) -0.5275 ( 11) -0.1066 ( 13) -0.3138 ( 15)
          -0.1257 ( 17) -0.1000 ( 21)  0.1302 ( 36) -0.1007 ( 40) -0.1750 ( 44)
          -0.1554 ( 52)  0.2484 ( 53) -0.3474 ( 54)  0.2202 ( 71)
 CRD 14=  -0.1168 (  8)  0.1031 ( 15) -0.5656 ( 20) -0.1081 ( 37)  0.1864 ( 38)
           0.1356 ( 46)  0.1079 ( 47) -0.4736 ( 57) -0.1897 ( 62) -0.1743 ( 63)
           0.2466 ( 73)  0.2098 ( 75) -0.1021 (120)  0.1015 (131)
 CRD 15=   0.1128 (  1) -0.1482 (  2) -0.3396 (  8)  0.2559 ( 13)  0.1120 ( 15)
           0.1279 ( 32)  0.1356 ( 35) -0.1432 ( 37) -0.1163 ( 44) -0.1281 ( 45)
           0.1355 ( 47) -0.1198 ( 48) -0.3395 ( 52)  0.2193 ( 53)  0.2188 ( 54)
           0.1656 ( 55)  0.1735 ( 57) -0.1778 ( 72)  0.1051 ( 86)  0.1074 ( 87)
          -0.1399 ( 89) -0.1059 ( 90)  0.1113 ( 96) -0.1204 ( 97) -0.1170 ( 98)
          -0.1034 ( 99)
 CRD 16=  -0.4615 ( 13)  0.2337 ( 15)  0.2327 ( 20) -0.1011 ( 31)  0.1061 ( 32)
           0.1307 ( 34)  0.1060 ( 42) -0.1238 ( 44)  0.1306 ( 45) -0.1434 ( 47)
          -0.1796 ( 49) -0.1171 ( 52)  0.2413 ( 54) -0.1327 ( 55) -0.1998 ( 57)
           0.2642 ( 58)  0.1365 ( 59)  0.1290 ( 61) -0.1408 ( 72) -0.1935 ( 74)
           0.1020 ( 80)  0.1042 ( 87)
 CRD 17=   0.1469 (  2) -0.3477 (  8) -0.2904 ( 11)  0.1593 ( 15)  0.1441 ( 20)
           0.1135 ( 23)  0.1358 ( 28) -0.1413 ( 37)  0.1633 ( 42) -0.1339 ( 45)
          -0.1468 ( 49) -0.1410 ( 51)  0.4343 ( 52) -0.1672 ( 53) -0.1276 ( 54)
           0.1067 ( 55) -0.1329 ( 58)  0.1798 ( 59)  0.1084 ( 65) -0.1258 ( 70)
          -0.1321 ( 71)  0.1106 ( 72) -0.1152 ( 75) -0.1061 ( 76)
 CRD 18=  -0.2042 (  2) -0.1944 (  8)  0.3284 ( 11) -0.2093 ( 13) -0.2523 ( 15)
           0.1422 ( 20) -0.1170 ( 29)  0.1055 ( 31)  0.1208 ( 35)  0.1303 ( 40)
          -0.1218 ( 42) -0.1557 ( 45) -0.1420 ( 48)  0.1830 ( 50) -0.1269 ( 53)
          -0.1164 ( 54) -0.1575 ( 57)  0.2792 ( 59) -0.1258 ( 60) -0.1268 ( 61)
           0.1132 ( 72) -0.1353 ( 74) -0.1104 ( 84)  0.1506 ( 88) -0.1032 ( 98)
          -0.1407 (116)  0.1167 (119)
 CRD 19=   0.1991 (  1)  0.2202 (  8) -0.1486 ( 11) -0.1420 ( 13) -0.1914 ( 34)
           0.1208 ( 35)  0.1217 ( 37)  0.2701 ( 47) -0.2731 ( 48)  0.2533 ( 49)
          -0.1302 ( 51)  0.1162 ( 52) -0.1212 ( 56) -0.1213 ( 57)  0.1284 ( 58)
           0.1024 ( 60) -0.1985 ( 62)  0.2366 ( 63)  0.1519 ( 85) -0.1342 ( 90)
          -0.2017 ( 97) -0.1826 ( 98) -0.2140 ( 99) -0.1032 (102) -0.1380 (106)
 CRD 20=   0.3409 (  2) -0.1111 (  8)  0.1276 (  9)  0.1235 ( 22)  0.1155 ( 28)
           0.1353 ( 29) -0.1176 ( 32) -0.1234 ( 40)  0.2185 ( 41)  0.2963 ( 44)
          -0.1052 ( 52)  0.3860 ( 53) -0.2133 ( 54) -0.1297 ( 57)  0.1370 ( 59)
           0.1018 ( 60) -0.1325 ( 61) -0.1019 ( 64) -0.1238 ( 70)  0.1443 ( 71)
           0.2175 ( 89)  0.1178 ( 94)  0.1514 ( 95)  0.1554 ( 96)  0.1129 (104)
 CRD 21=   0.2184 ( 11) -0.1078 ( 21) -0.1201 ( 29) -0.1628 ( 31)  0.1515 ( 32)
          -0.1515 ( 35)  0.1198 ( 37) -0.1549 ( 39)  0.1281 ( 40)  0.1185 ( 41)
           0.1608 ( 42) -0.1401 ( 43) -0.1607 ( 44)  0.1856 ( 45) -0.1200 ( 48)
          -0.1750 ( 49)  0.1620 ( 50)  0.1617 ( 52)  0.2586 ( 53) -0.3433 ( 54)
           0.1055 ( 56)  0.1294 ( 57) -0.2123 ( 59) -0.1903 ( 70)  0.1149 ( 80)
           0.1394 ( 81)  0.1413 ( 86)  0.1231 ( 92)  0.1221 ( 93)
 CRD 22=   0.1215 (  7)  0.1090 ( 13)  0.1044 ( 18) -0.1143 ( 31)  0.1634 ( 32)
           0.1219 ( 35) -0.1682 ( 37)  0.2143 ( 39)  0.1179 ( 40) -0.1162 ( 43)
          -0.1728 ( 44) -0.1012 ( 45) -0.1032 ( 47)  0.2280 ( 48)  0.2127 ( 49)
           0.1370 ( 52)  0.1239 ( 53) -0.1893 ( 54)  0.1635 ( 55) -0.1857 ( 56)
          -0.1698 ( 57)  0.1556 ( 58)  0.1849 ( 62) -0.1557 ( 63) -0.1251 ( 70)
          -0.1101 ( 74) -0.1251 ( 80)  0.1118 ( 86) -0.1412 ( 88) -0.2038 ( 89)
          -0.1001 ( 90) -0.1160 ( 92) -0.1228 ( 93)  0.1043 ( 97) -0.1114 (103)
           0.1140 (107)
 CRD 23=   0.1163 ( 10) -0.1191 ( 15) -0.1383 ( 17)  0.2967 ( 28) -0.1627 ( 29)
          -0.1645 ( 31) -0.1023 ( 37) -0.2169 ( 40)  0.1703 ( 41)  0.1214 ( 43)
          -0.1111 ( 47)  0.2336 ( 50) -0.2076 ( 51) -0.1016 ( 52) -0.1844 ( 53)
           0.1571 ( 54) -0.1396 ( 56) -0.1675 ( 59) -0.2330 ( 61) -0.1138 ( 63)
           0.1455 ( 70) -0.1051 ( 76) -0.1691 ( 77)  0.1137 ( 84)  0.1040 ( 86)
           0.1367 ( 94)  0.1305 ( 95)  0.1220 ( 96) -0.1335 (100)
 CRD 24=   0.1502 (  1)  0.1528 (  6) -0.3254 ( 13) -0.1610 ( 14) -0.1052 ( 18)
          -0.2475 ( 19) -0.1325 ( 20)  0.1152 ( 25) -0.1134 ( 26)  0.1156 ( 35)
          -0.1409 ( 37)  0.1440 ( 38)  0.1320 ( 39)  0.2275 ( 46) -0.1808 ( 47)
          -0.1947 ( 56)  0.2956 ( 57) -0.3506 ( 58)  0.1374 ( 69)  0.2163 ( 74)
          -0.1027 ( 75) -0.1335 ( 91) -0.1198 ( 92) -0.1252 ( 93)
 CRD 25=  -0.1278 (  8) -0.2112 ( 12) -0.1109 ( 13) -0.1687 ( 18) -0.1710 ( 24)
           0.1458 ( 26)  0.1612 ( 31) -0.1149 ( 32) -0.2466 ( 42)  0.1960 ( 44)
          -0.1009 ( 50)  0.1266 ( 55) -0.1548 ( 56)  0.2369 ( 58) -0.3313 ( 59)
           0.1034 ( 61)  0.1024 ( 62) -0.1161 ( 63) -0.1735 ( 73)  0.1501 ( 75)
           0.1176 ( 80)  0.1591 ( 88)  0.1199 ( 89)  0.2076 ( 91) -0.1516 (102)
          -0.1126 (103)  0.1720 (106)  0.1421 (107)
 CRD 26=  -0.1427 (  2)  0.1846 (  3) -0.3219 (  4) -0.1775 (  9)  0.1048 ( 16)
           0.1314 ( 27) -0.1247 ( 29)  0.1999 ( 34) -0.1179 ( 36) -0.3638 ( 42)
           0.2294 ( 44)  0.2155 ( 45) -0.1264 ( 49) -0.1584 ( 51)  0.1306 ( 52)
           0.1066 ( 59) -0.1239 ( 78)  0.1202 ( 80)  0.1673 ( 81)  0.1828 ( 84)
           0.1178 ( 86)  0.1113 ( 87)  0.1669 ( 88) -0.2147 ( 90)
 CRD 27=  -0.2601 (  1) -0.1832 (  4) -0.3523 (  6)  0.2999 (  7) -0.1235 (  8)
          -0.1940 ( 12) -0.1054 ( 13) -0.1157 ( 14) -0.1254 ( 31)  0.1072 ( 37)
           0.1558 ( 38) -0.1754 ( 39) -0.2518 ( 45)  0.2927 ( 49) -0.2432 ( 55)
           0.1573 ( 79) -0.1370 ( 80) -0.1440 ( 81) -0.2161 ( 82) -0.1309 ( 85)
          -0.1034 (113)
 CRD 28=   0.1766 (  3) -0.1196 (  5)  0.3806 (  9) -0.4223 ( 10) -0.1637 ( 16)
          -0.1254 ( 17)  0.1619 ( 32)  0.1157 ( 40) -0.1381 ( 41)  0.1034 ( 43)
           0.1171 ( 45) -0.1696 ( 51) -0.2367 ( 60)  0.2628 ( 76)  0.1859 ( 77)
           0.1125 ( 78)  0.1289 ( 81)  0.1026 ( 84) -0.1316 ( 87) -0.1878 (100)
          -0.2715 (101)  0.1039 (117)
 CRD 29=  -0.1362 (  9) -0.1705 ( 10) -0.4711 ( 16)  0.4078 ( 17)  0.1424 ( 22)
          -0.1590 ( 23)  0.1031 ( 27) -0.2310 ( 29)  0.1161 ( 50) -0.1431 ( 51)
          -0.1556 ( 52)  0.1208 ( 53)  0.1105 ( 60)  0.1042 ( 71) -0.1120 ( 72)
           0.1304 ( 78) -0.1843 ( 94) -0.1800 ( 95) -0.2252 ( 96)  0.1976 (104)
           0.2713 (105)
 CRD 30=   0.1567 (  7)  0.4127 ( 12) -0.4017 ( 14) -0.4286 ( 18)  0.4190 ( 19)
          -0.1068 ( 63) -0.1366 ( 92) -0.1408 ( 93) -0.1270 ( 97) -0.1514 ( 98)
          -0.1271 ( 99)  0.1650 (102)  0.1238 (103)  0.1230 (106)  0.1339 (107)
 CRD 31=   0.1737 ( 20)  0.5027 ( 24)  0.4799 ( 25)  0.5035 ( 26) -0.1941 ( 57)
          -0.1764 ( 58) -0.1772 ( 59)  0.1995 ( 73)  0.1880 ( 74)  0.2005 ( 75)
 CRD 32=   0.1759 ( 15)  0.4849 ( 21)  0.5003 ( 22)  0.5039 ( 23) -0.1790 ( 52)
          -0.1716 ( 53) -0.1953 ( 54)  0.1823 ( 70)  0.2052 ( 71)  0.1939 ( 72)
 CRD 33=   0.1033 (  2)  0.1059 (  4) -0.3673 (  5) -0.3739 (  6) -0.4332 (  7)
          -0.1350 (  8)  0.1834 ( 10) -0.2149 ( 14)  0.1646 ( 30)  0.1852 ( 33)
          -0.1071 ( 42) -0.1401 ( 44)  0.2252 ( 45)  0.2000 ( 49)  0.1428 ( 64)
          -0.2391 ( 65) -0.1292 ( 80)  0.2205 ( 81) -0.1034 ( 89)
 CRD 34=  -0.1812 (  3) -0.4128 (  4) -0.1878 ( 10) -0.1356 ( 16) -0.1394 ( 28)
           0.1391 ( 29)  0.1057 ( 41)  0.1092 ( 51)  0.1112 ( 60) -0.1202 ( 61)
          -0.1286 ( 64) -0.1327 (101) -0.1553 (110) -0.1713 (111)  0.1052 (113)
          -0.1782 (116) -0.1753 (117) -0.1814 (118) -0.1784 (119)  0.1370 (120)
           0.1377 (121)  0.1345 (122)  0.1352 (123) -0.1013 (127) -0.1115 (128)
 CRD 35=  -0.5529 (  3) -0.2917 (  4)  0.1039 ( 10) -0.1022 ( 41) -0.1170 ( 60)
           0.1203 ( 61) -0.2114 ( 64)  0.1132 ( 76)  0.1139 ( 77) -0.1508 ( 88)
           0.1440 (100)  0.1822 (108)  0.1903 (109)  0.1608 (116)  0.1600 (117)
           0.1706 (118)  0.1699 (119)  0.1072 (125)  0.1027 (127)  0.1135 (128)
           0.1004 (129)
 CRD 36=  -0.1925 (  3) -0.3286 (  4) -0.3640 (  7) -0.1016 ( 10)  0.1099 ( 35)
           0.1131 ( 37) -0.1384 ( 39) -0.1079 ( 47)  0.1054 ( 48)  0.1379 ( 62)
          -0.1367 ( 63) -0.1363 ( 64) -0.1103 ( 92) -0.1092 ( 93) -0.1421 (103)
          -0.1096 (107) -0.1149 (112) -0.1166 (113) -0.1716 (114) -0.1733 (115)
          -0.2095 (120) -0.2105 (121) -0.1960 (122) -0.1970 (123) -0.1178 (130)
          -0.1183 (131) -0.1231 (132) -0.1167 (133) -0.1172 (134) -0.1220 (135)
 CRD 37=  -0.1262 ( 16) -0.1565 ( 17)  0.6139 ( 21) -0.1737 ( 22) -0.4101 ( 23)
          -0.3239 ( 70)  0.2215 ( 72)  0.1530 ( 94) -0.1870 ( 95) -0.1774 (125)
           0.1626 (126) -0.1993 (128)  0.1408 (129)
 CRD 38=  -0.1701 ( 18) -0.1706 ( 19) -0.2933 ( 24)  0.6331 ( 25) -0.2940 ( 26)
           0.1581 ( 73) -0.3267 ( 74)  0.1584 ( 75) -0.1702 ( 97)  0.1718 ( 99)
           0.1876 (130) -0.1544 (131)  0.1569 (133) -0.1851 (134)
 CRD 39=   0.1331 ( 21) -0.6037 ( 22)  0.4654 ( 23)  0.3179 ( 71) -0.2509 ( 72)
           0.1272 ( 94) -0.2142 ( 96) -0.1995 (124)  0.1419 (126) -0.2068 (127)
           0.1346 (129)
 CRD 40=  -0.5464 ( 24)  0.5483 ( 26)  0.2933 ( 73) -0.2937 ( 75)  0.2243 ( 98)
          -0.1029 (130) -0.1025 (131)  0.2134 (132) -0.1033 (133) -0.1029 (134)
           0.2130 (135)
 CRD 41=  -0.1406 (  3) -0.2625 (  5)  0.4204 (  6)  0.2074 (  7)  0.1207 (  9)
           0.2212 ( 10) -0.4045 ( 12) -0.4174 ( 14)  0.1202 ( 18)  0.1004 ( 19)
           0.1030 ( 30) -0.1091 ( 34)  0.1227 ( 65) -0.1401 ( 67) -0.1264 (102)
          -0.1852 (112)  0.1442 (115)
 CRD 42=  -0.3748 (  9) -0.4399 ( 10) -0.1663 ( 12) -0.1696 ( 14)  0.4377 ( 16)
           0.3406 ( 17)  0.1271 ( 18)  0.1262 ( 19)  0.1126 ( 21) -0.1630 ( 66)
           0.1553 ( 68)  0.1571 (117) -0.1322 (118)
 CRD 43=  -0.1112 (  5)  0.1347 (  6)  0.1477 ( 16)  0.1693 ( 17) -0.5432 ( 18)
          -0.5524 ( 19)  0.1229 ( 24) -0.1354 ( 25)  0.1235 ( 26) -0.2254 ( 69)
          -0.1051 (121)  0.1410 (131) -0.1454 (133) -0.1001 (135)
 CRD 44=   0.3787 (  9)  0.2655 ( 10)  0.2543 ( 12)  0.2403 ( 14)  0.3150 ( 16)
           0.4555 ( 17)  0.1248 ( 18)  0.1189 ( 19) -0.1150 ( 22)  0.1354 ( 66)
           0.1137 ( 67)  0.1625 ( 68) -0.1565 (116) -0.1066 (125)
 CRD 45=   0.1066 (  2) -0.1203 (  3) -0.3460 (  5)  0.3135 (  6)  0.1389 (  7)
          -0.1277 (  8) -0.3388 (  9) -0.1226 ( 10)  0.3610 ( 12)  0.2819 ( 14)
          -0.1034 ( 16) -0.1479 ( 17)  0.1598 ( 30)  0.1352 ( 33) -0.1245 ( 34)
           0.1087 ( 65) -0.1124 ( 66)  0.1631 ( 67) -0.1161 (102) -0.1788 (113)
           0.1398 (114)
 CRD 46=   0.3098 (  3) -0.2582 (  4) -0.1719 (  7) -0.2356 (  9)  0.2523 ( 10)
          -0.1245 ( 16)  0.1638 ( 17) -0.1091 ( 31)  0.1048 ( 32) -0.1034 ( 84)
          -0.1016 ( 86)  0.1011 ( 94)  0.1030 ( 95) -0.1466 (100) -0.1222 (101)
          -0.2178 (108) -0.2196 (109) -0.1935 (110) -0.1952 (111)  0.1492 (124)
           0.1664 (125)  0.1645 (126)  0.1649 (127)  0.1821 (128)  0.1802 (129)
 CRD 47=   0.2027 (  1) -0.2529 (  6)  0.3190 (  7) -0.1411 (  9)  0.1227 ( 10)
          -0.1688 ( 12)  0.2210 ( 14)  0.1248 ( 34) -0.1664 ( 35) -0.1090 ( 97)
          -0.1081 ( 99) -0.1104 (101)  0.1214 (102)  0.1515 (103) -0.1405 (110)
          -0.1397 (111)  0.1966 (112)  0.1849 (113)  0.2267 (114)  0.2150 (115)
          -0.1018 (120) -0.1077 (121) -0.1546 (130) -0.1555 (131) -0.1357 (132)
          -0.1481 (133) -0.1490 (134) -0.1292 (135)
 CRD 48=   0.2593 ( 12) -0.2627 ( 14)  0.3803 ( 18) -0.3810 ( 19)  0.1186 ( 92)
           0.1186 ( 93) -0.1418 ( 97) -0.1575 ( 98) -0.1419 ( 99)  0.1076 (106)
           0.1079 (107)  0.1429 (120)  0.1428 (121)  0.1426 (122)  0.1426 (123)
          -0.2257 (130) -0.2256 (131) -0.2412 (132) -0.2264 (133) -0.2263 (134)
          -0.2420 (135)
 CRD 49=  -0.1314 (  1) -0.2210 (  3)  0.1963 (  4)  0.1238 (  5)  0.1234 (  9)
          -0.1396 ( 10) -0.3005 ( 16)  0.2973 ( 17) -0.1340 ( 76) -0.1083 ( 77)
           0.1556 ( 94)  0.1494 ( 95)  0.1822 ( 96)  0.1190 (101) -0.1086 (104)
          -0.1592 (105)  0.1196 (110)  0.1155 (111) -0.1233 (116) -0.1490 (117)
          -0.1739 (118) -0.1996 (119)  0.2351 (124)  0.2023 (125)  0.2085 (126)
           0.2090 (127)  0.1763 (128)  0.1825 (129)
 CRD 50=   0.4907 (  1) -0.1551 (  5) -0.2345 (  6)  0.1430 (  7)  0.1539 ( 12)
          -0.1478 ( 14) -0.2200 ( 30)  0.1356 ( 31)  0.1326 ( 32) -0.1536 ( 35)
           0.1103 ( 36) -0.1205 ( 64)  0.1111 ( 65) -0.2189 ( 82) -0.1742 ( 83)
          -0.2155 ( 85)  0.1442 (100) -0.1521 (102)  0.1655 (108)  0.1555 (109)
          -0.1934 (112) -0.1968 (113)
 CRD 51=  -0.3065 (  3)  0.3123 (  4)  0.2728 (  5)  0.2127 (  7) -0.1784 (  9)
           0.1396 ( 10)  0.1302 ( 45) -0.1583 ( 65)  0.1556 ( 79)  0.1226 ( 80)
           0.2836 ( 81) -0.1662 ( 86) -0.1192 ( 87) -0.1114 ( 89) -0.1563 ( 90)
          -0.1262 (100) -0.1423 (101) -0.1296 (103) -0.1733 (108) -0.1893 (110)
          -0.1136 (111) -0.1486 (114) -0.1380 (115)
 CRD 52=  -0.1291 (  3) -0.1368 (  7) -0.1007 (  8)  0.1373 ( 24)  0.2657 ( 25)
           0.1407 ( 26)  0.1174 ( 34)  0.1728 ( 37)  0.1730 ( 39)  0.1706 ( 47)
           0.1662 ( 48) -0.1003 ( 49) -0.1426 ( 55) -0.1317 ( 56)  0.1927 ( 57)
           0.1499 ( 58)  0.1506 ( 59) -0.2075 ( 62) -0.2019 ( 63) -0.2118 ( 73)
          -0.1093 ( 74) -0.2085 ( 75) -0.1055 ( 82)  0.1350 ( 92) -0.1219 ( 93)
           0.1049 (107)  0.2354 (121) -0.2172 (122)  0.1175 (131) -0.1240 (133)
 CRD 53=  -0.1023 (  8)  0.1069 (  9)  0.1155 ( 11)  0.1729 ( 15) -0.3017 ( 21)
          -0.1548 ( 22) -0.2229 ( 23)  0.1029 ( 25) -0.1584 ( 40) -0.1628 ( 41)
          -0.2117 ( 52) -0.1950 ( 53) -0.2376 ( 54)  0.1822 ( 60)  0.1639 ( 61)
           0.1686 ( 70)  0.2834 ( 71)  0.2334 ( 72) -0.1270 ( 76)  0.1013 ( 77)
          -0.1287 ( 84) -0.1324 (109) -0.1087 (111)  0.1207 (116) -0.1076 (117)
           0.1621 (118)  0.1326 (129)
 CRD 54=  -0.1939 (  1) -0.1873 (  3)  0.1401 (  8)  0.1811 ( 11)  0.1458 ( 15)
           0.1384 ( 17)  0.1231 ( 20) -0.1124 ( 21) -0.1474 ( 22) -0.1129 ( 25)
           0.1614 ( 28)  0.1470 ( 29)  0.1174 ( 31)  0.1900 ( 32)  0.1163 ( 34)
           0.1093 ( 35) -0.1626 ( 42) -0.1836 ( 44) -0.1223 ( 45) -0.1086 ( 49)
          -0.1083 ( 50) -0.1446 ( 51) -0.1204 ( 53) -0.1068 ( 54)  0.1376 ( 64)
           0.1128 ( 70)  0.1449 ( 72)  0.1063 ( 73)  0.1086 ( 75) -0.1347 ( 81)
           0.1733 ( 88) -0.1862 ( 89) -0.1219 (105)  0.1911 (116) -0.1239 (119)
 CRD 55=  -0.1362 (  1) -0.1637 (  4)  0.1447 (  7)  0.1140 (  8) -0.1302 ( 13)
          -0.3676 ( 20)  0.1978 ( 24)  0.1067 ( 25)  0.1970 ( 26)  0.1146 ( 31)
          -0.1123 ( 34) -0.1440 ( 37) -0.1499 ( 39) -0.1334 ( 44)  0.1691 ( 55)
           0.1611 ( 56)  0.1620 ( 57)  0.1707 ( 58)  0.1695 ( 59) -0.1564 ( 73)
          -0.2252 ( 74) -0.1571 ( 75)  0.1547 ( 82)  0.1757 ( 88)  0.1266 ( 90)
          -0.1008 (112) -0.1307 (114)
 CRD 56=  -0.1036 (  1)  0.2752 (  2) -0.1847 (  4)  0.1414 (  9) -0.3510 ( 15)
          -0.1012 ( 17)  0.1025 ( 20)  0.2278 ( 22)  0.1319 ( 23) -0.1024 ( 30)
           0.1679 ( 31) -0.1263 ( 40) -0.1575 ( 41) -0.1482 ( 42) -0.1278 ( 44)
           0.1075 ( 52)  0.1077 ( 53)  0.1051 ( 54)  0.1123 ( 60)  0.1418 ( 64)
          -0.1245 ( 66)  0.1020 ( 68) -0.2293 ( 70) -0.1744 ( 84)  0.1074 ( 88)
          -0.1990 ( 89) -0.1092 (109) -0.1099 (111) -0.1353 (124) -0.1579 (125)
           0.1079 (127)  0.2320 (129)
 CRD 57=   0.1545 (  1) -0.1871 (  3) -0.1847 (  5) -0.1658 (  6)  0.1720 (  8)
           0.1258 (  9) -0.2516 ( 10)  0.2443 ( 16) -0.1532 ( 17)  0.1433 ( 22)
          -0.1585 ( 23) -0.1176 ( 31)  0.1360 ( 35) -0.1227 ( 49) -0.1182 ( 50)
           0.1599 ( 64)  0.1047 ( 66) -0.1601 ( 72) -0.1238 ( 76)  0.1376 ( 80)
          -0.1101 ( 86) -0.1213 ( 96) -0.1021 (100)  0.1210 (105) -0.2623 (108)
          -0.1425 (109)  0.2014 (125)  0.1500 (126)  0.1275 (128)  0.1109 (133)
 CRD 58=  -0.1694 (  4)  0.2703 (  5) -0.1894 (  8)  0.1334 (  9) -0.1155 ( 10)
          -0.1657 ( 14)  0.1194 ( 16)  0.1403 ( 18)  0.1525 ( 20)  0.1098 ( 21)
          -0.1436 ( 24)  0.1231 ( 28) -0.1684 ( 34) -0.1482 ( 35)  0.1150 ( 40)
           0.1148 ( 45)  0.1057 ( 47)  0.1040 ( 49) -0.1235 ( 50)  0.1125 ( 64)
          -0.1310 ( 68)  0.1294 ( 74) -0.1019 ( 80)  0.1127 ( 85) -0.1250 ( 86)
           0.1206 ( 88)  0.1295 ( 90)  0.1106 (101)  0.1093 (104) -0.1116 (108)
           0.1733 (114)  0.1198 (116) -0.1412 (120) -0.1305 (121)  0.1677 (125)
          -0.1045 (127) -0.1165 (129)  0.2036 (131)  0.1098 (132)
 CRD 59=  -0.1710 (  6)  0.2398 ( 12) -0.1630 ( 14) -0.1325 ( 16)  0.1973 ( 18)
          -0.2506 ( 19)  0.1246 ( 23) -0.1302 ( 24)  0.1808 ( 26)  0.1189 ( 30)
           0.1042 ( 37)  0.1235 ( 65) -0.1031 ( 73)  0.1284 ( 75)  0.1205 ( 80)
           0.1786 ( 82)  0.1308 ( 85) -0.1043 (106)  0.1430 (115) -0.1688 (120)
          -0.1551 (121) -0.2435 (122) -0.2297 (123) -0.1532 (125)  0.1576 (130)
           0.1146 (131)  0.2203 (133)  0.1773 (134)
 CRD 60=  -0.2233 (  1)  0.3551 (  2) -0.1478 (  9) -0.2658 ( 11)  0.2905 ( 15)
          -0.1659 ( 17) -0.2110 ( 23) -0.1474 ( 28)  0.1704 ( 31)  0.1062 ( 40)
           0.1297 ( 50) -0.1337 ( 61)  0.1490 ( 70)  0.1009 ( 71) -0.1222 ( 77)
          -0.1061 ( 89) -0.1184 (104)  0.1866 (108)  0.1047 (109) -0.2687 (116)
          -0.1318 (117) -0.1196 (118)  0.1766 (125)  0.1345 (128)
 CRD 61=  -0.2125 (  5) -0.1769 (  6)  0.2345 (  7)  0.1331 (  8) -0.3653 ( 13)
           0.1153 ( 14)  0.1729 ( 20) -0.1087 ( 24)  0.1777 ( 25) -0.1662 ( 26)
           0.1351 ( 30)  0.2017 ( 35)  0.1165 ( 48)  0.1098 ( 55)  0.1163 ( 56)
          -0.1499 ( 67)  0.1945 ( 74)  0.1999 ( 82)  0.1016 ( 83)  0.1063 ( 97)
          -0.1208 ( 99) -0.1454 (103) -0.1304 (112) -0.2616 (114)  0.1699 (131)
          -0.2202 (133)
 CRD 62=   0.1485 (  5) -0.1894 (  6) -0.1899 (  8) -0.1202 ( 11)  0.1733 ( 12)
          -0.2028 ( 18)  0.1328 ( 20)  0.2376 ( 24) -0.1740 ( 25) -0.1322 ( 26)
          -0.1362 ( 34)  0.1056 ( 39) -0.1163 ( 47) -0.1055 ( 56) -0.1297 ( 67)
           0.1583 ( 69)  0.2222 ( 73)  0.1154 ( 80)  0.1355 ( 82)  0.1179 ( 92)
           0.2012 ( 98) -0.1934 (102) -0.1315 (106) -0.1334 (112)  0.1754 (121)
          -0.1638 (122) -0.2531 (131) -0.1178 (134)  0.1764 (135)
 CRD 63=   0.1112 (  4)  0.1730 (  5) -0.1511 (  6) -0.1103 (  7)  0.1509 (  8)
          -0.1265 (  9)  0.1445 ( 11) -0.1482 ( 14) -0.1246 ( 17)  0.1408 ( 19)
          -0.1384 ( 21)  0.1398 ( 22)  0.1166 ( 24)  0.1268 ( 25) -0.2018 ( 26)
           0.1080 ( 55)  0.1977 ( 65)  0.1057 ( 68) -0.1040 ( 69)  0.1210 ( 71)
          -0.1784 ( 75) -0.1267 ( 81)  0.1412 ( 84)  0.1811 ( 98) -0.1828 (102)
           0.1598 (114)  0.1602 (115) -0.1283 (116) -0.1193 (121)  0.1789 (129)
           0.1487 (132) -0.1883 (133)
 CRD 64=  -0.1754 (  2)  0.1036 (  7) -0.1722 (  8)  0.1992 ( 11)  0.1204 ( 14)
          -0.1042 ( 17) -0.1012 ( 19)  0.2339 ( 20) -0.1649 ( 21)  0.2107 ( 22)
          -0.1218 ( 25)  0.1212 ( 29) -0.1034 ( 50) -0.1420 ( 51) -0.1068 ( 62)
          -0.1144 ( 65) -0.1271 ( 67)  0.1421 ( 69) -0.1092 ( 70)  0.1725 ( 71)
           0.1050 ( 75) -0.1316 ( 80)  0.1151 ( 84)  0.1314 ( 89)  0.1341 ( 90)
          -0.1181 ( 93)  0.1080 ( 94) -0.1497 ( 96)  0.1558 (109) -0.1171 (114)
          -0.1431 (118)  0.1664 (121) -0.1432 (122) -0.1147 (124)  0.1429 (126)
           0.1911 (129)
 CRD 65=   0.2247 (  1)  0.1229 (  2) -0.1034 (  3) -0.1852 (  4)  0.2890 ( 15)
          -0.1087 ( 16) -0.2436 ( 21)  0.1551 ( 23) -0.1036 ( 33)  0.1303 ( 41)
          -0.1221 ( 52) -0.1315 ( 60) -0.1706 ( 61)  0.2123 ( 64)  0.1331 ( 68)
          -0.1135 ( 70)  0.1836 ( 72)  0.1786 ( 76)  0.1211 ( 94) -0.1372 ( 95)
           0.2246 (101) -0.1453 (108) -0.1075 (109)  0.1303 (110)  0.1680 (111)
          -0.1170 (116)  0.1510 (117)  0.2239 (119) -0.1599 (125) -0.1743 (128)
 CRD 66=  -0.2178 (  2)  0.1521 (  3)  0.1209 (  7) -0.1141 (  8)  0.1248 ( 10)
           0.2049 ( 13) -0.2317 ( 20)  0.1417 ( 22) -0.1256 ( 23)  0.1079 ( 25)
           0.1098 ( 29) -0.1261 ( 32)  0.1216 ( 37)  0.1013 ( 39) -0.1031 ( 47)
          -0.1127 ( 55) -0.1263 ( 56)  0.1263 ( 62)  0.1065 ( 63) -0.1439 ( 66)
           0.1196 ( 71)  0.1230 ( 80)  0.1303 ( 81)  0.1319 ( 85) -0.1469 ( 88)
          -0.1010 ( 92)  0.1237 ( 93) -0.1482 ( 96) -0.1600 (105)  0.1124 (110)
          -0.1473 (115)  0.1249 (117) -0.1545 (118)  0.1721 (120) -0.1868 (123)
          -0.1277 (124) -0.1453 (127)
 CRD 67=  -0.1076 (  2)  0.2644 (  8)  0.1198 ( 10) -0.1547 ( 13) -0.1135 ( 14)
           0.1289 ( 20) -0.1171 ( 23)  0.1020 ( 24) -0.1999 ( 25)  0.1259 ( 47)
           0.1273 ( 48)  0.1160 ( 57) -0.1070 ( 62) -0.1283 ( 63) -0.1474 ( 66)
           0.1509 ( 67)  0.1016 ( 73) -0.1241 ( 74)  0.1077 ( 80) -0.1449 ( 97)
           0.1234 ( 99) -0.1326 (105)  0.1295 (106) -0.1210 (107) -0.1061 (109)
           0.1472 (110)  0.1221 (117) -0.1103 (118) -0.1823 (120)  0.1648 (123)
          -0.1304 (124) -0.1040 (127)  0.2226 (130)  0.1177 (132) -0.2312 (134)
 CRD 68=  -0.1426 (  1)  0.1307 (  3) -0.1150 (  5)  0.1482 (  7) -0.1200 ( 10)
          -0.1053 ( 14)  0.1201 ( 16)  0.1085 ( 18)  0.1390 ( 23)  0.1354 ( 24)
          -0.1314 ( 25)  0.1039 ( 35) -0.1006 ( 44) -0.1069 ( 49)  0.1089 ( 57)
           0.1260 ( 66) -0.1180 ( 69) -0.1059 ( 74) -0.1220 ( 76)  0.1801 ( 85)
          -0.1602 ( 86) -0.1172 ( 95) -0.1379 ( 97)  0.1162 (100) -0.1459 (103)
           0.1246 (105)  0.1784 (109) -0.1668 (110)  0.1465 (112) -0.1838 (115)
          -0.1199 (117)  0.1006 (118) -0.1062 (121)  0.1761 (124)  0.1314 (126)
          -0.1354 (128)  0.1812 (130)  0.1687 (132) -0.2004 (134)
 CRD 69=  -0.1712 (  6)  0.1102 (  7) -0.1094 (  9)  0.1903 ( 11) -0.1004 ( 12)
           0.1531 ( 19)  0.1177 ( 21)  0.1811 ( 26) -0.1370 ( 34)  0.1344 ( 39)
           0.1398 ( 45) -0.1212 ( 58) -0.1043 ( 69)  0.1225 ( 75) -0.1729 ( 79)
           0.1561 ( 83)  0.1252 ( 85) -0.1700 ( 91) -0.1072 ( 92)  0.1572 ( 99)
           0.1278 (111) -0.1244 (112) -0.2145 (113)  0.1373 (120)  0.1090 (122)
          -0.1918 (126)  0.1092 (127)  0.1741 (128)  0.1419 (130) -0.1106 (132)
          -0.1170 (134) -0.2421 (135)
 CRD 70=   0.1197 (  1) -0.1342 (  5)  0.1411 (  6)  0.2098 ( 11) -0.1050 ( 16)
           0.1412 ( 21)  0.1362 ( 24) -0.1303 ( 26)  0.1352 ( 36)  0.1016 ( 37)
          -0.1040 ( 43) -0.1279 ( 54) -0.1503 ( 65)  0.1454 ( 68)  0.1086 ( 70)
           0.1024 ( 76) -0.1531 ( 80)  0.1020 ( 88)  0.1755 ( 91) -0.1101 ( 94)
           0.1091 ( 95) -0.1017 ( 97)  0.1050 (102) -0.1193 (103)  0.1453 (111)
           0.1856 (112)  0.1638 (113) -0.1157 (124) -0.2444 (126)  0.1290 (127)
           0.2195 (128)  0.1816 (132)  0.1741 (135)
 CRD 71=   0.1761 (  3) -0.1322 (  4)  0.1716 (  8)  0.1636 ( 11)  0.1234 ( 13)
          -0.1224 ( 18)  0.1083 ( 20)  0.1125 ( 31) -0.1207 ( 32) -0.1123 ( 38)
           0.1110 ( 42) -0.1058 ( 44) -0.1595 ( 46)  0.1219 ( 67)  0.1621 ( 69)
           0.1140 ( 79)  0.2120 ( 80) -0.2147 ( 86) -0.1295 ( 87) -0.2175 ( 88)
          -0.1720 ( 89) -0.1076 ( 93) -0.1051 (107)  0.1678 (109)  0.1349 (111)
          -0.1893 (120)  0.2032 (123)  0.1394 (127) -0.1700 (130) -0.1199 (132)
           0.1700 (134)
 CRD 72=   0.1118 (  3) -0.1428 (  7)  0.1102 ( 12) -0.1981 ( 13)  0.1072 ( 14)
          -0.1431 ( 17)  0.1667 ( 38) -0.1022 ( 43)  0.1299 ( 46)  0.1013 ( 49)
          -0.1603 ( 67)  0.1008 ( 68) -0.1263 ( 69) -0.1630 ( 77)  0.2145 ( 79)
          -0.2170 ( 85) -0.1112 ( 86) -0.1655 ( 88) -0.1099 ( 89) -0.1295 ( 94)
           0.1311 (100)  0.1004 (103)  0.1600 (104) -0.1133 (112)  0.1133 (113)
           0.2075 (115)  0.1188 (117) -0.1287 (118)  0.1642 (120) -0.1654 (123)
           0.1691 (127)  0.1334 (130) -0.1326 (134)
 CRD 73=   0.1029 (  1)  0.1104 (  2) -0.1675 (  4) -0.1970 (  9) -0.1222 ( 15)
           0.1617 ( 17) -0.1656 ( 27) -0.1182 ( 32) -0.1107 ( 40)  0.1261 ( 42)
           0.1313 ( 43)  0.1015 ( 50)  0.1351 ( 66) -0.1137 ( 68)  0.2447 ( 77)
           0.1731 ( 79)  0.1035 ( 80) -0.1346 ( 85) -0.1305 ( 86) -0.2031 ( 87)
          -0.1187 ( 88) -0.1724 ( 89)  0.1420 ( 94) -0.1046 (100) -0.2342 (104)
           0.1243 (109)  0.1016 (110)  0.2579 (111)  0.1139 (115) -0.2021 (117)
           0.1823 (118) -0.1696 (127)
 CRD 74=  -0.1093 (  1) -0.2156 ( 10) -0.2144 ( 16)  0.1014 ( 17) -0.1090 ( 23)
          -0.1040 ( 27) -0.1262 ( 29)  0.1056 ( 33)  0.1606 ( 41)  0.1572 ( 51)
           0.1142 ( 52) -0.1339 ( 60) -0.1292 ( 77) -0.2984 ( 78) -0.1386 ( 86)
           0.1465 ( 87)  0.1866 ( 94)  0.2423 ( 95)  0.2513 (100) -0.1478 (104)
          -0.2023 (110) -0.1079 (111)  0.1538 (117)  0.1726 (118)  0.3050 (119)
          -0.2176 (124) -0.1420 (127)
 CRD 75=  -0.1733 ( 12)  0.1695 ( 14)  0.1697 ( 18) -0.1690 ( 19) -0.1028 ( 36)
          -0.1159 ( 37)  0.1204 ( 39)  0.1004 ( 45)  0.1459 ( 47) -0.1474 ( 48)
          -0.1491 ( 55)  0.1443 ( 56)  0.1041 ( 58) -0.1029 ( 59)  0.1186 ( 62)
          -0.1170 ( 63)  0.2429 ( 83) -0.2573 ( 92) -0.2559 ( 93) -0.2334 ( 97)
          -0.2349 ( 99)  0.2449 (103)  0.2510 (106)  0.2511 (107) -0.1833 (112)
          -0.1855 (113)  0.1827 (132)  0.1831 (135)

 THE DETERMINANT OF THE G MATRIX IS 10**(   -29)


                     --------------------
                     INTERNAL COORDINATES
                     --------------------

                 - - ATOMS - -         COORDINATE      COORDINATE
 NO.   TYPE    I  J  K  L  M  N        (BOHR,RAD)       (ANG,DEG)
 ----------------------------------------------------------------
   1 STRETCH   1  2                     2.6881122       1.4224878
   2 STRETCH   1  4                     2.8868933       1.5276783
   3 STRETCH   1 11                     2.0911614       1.1065951
   4 STRETCH   1 10                     2.1070811       1.1150194
   5 STRETCH   2  3                     2.6655116       1.4105281
   6 STRETCH   3 13                     2.0871261       1.1044597
   7 STRETCH   3 12                     2.0931408       1.1076425
   8 STRETCH   3  5                     2.8870399       1.5277558
   9 STRETCH   4 15                     2.0938214       1.1080026
  10 STRETCH   4 14                     2.0937051       1.1079411
  11 STRETCH   4  6                     2.8757481       1.5217805
  12 STRETCH   5 16                     2.0958894       1.1090970
  13 STRETCH   5  7                     2.8714249       1.5194927
  14 STRETCH   5 17                     2.0944846       1.1083536
  15 STRETCH   6  8                     2.8588684       1.5128481
  16 STRETCH   6 19                     2.0937748       1.1079780
  17 STRETCH   6 18                     2.0933949       1.1077770
  18 STRETCH   7 21                     2.0939692       1.1080808
  19 STRETCH   7 20                     2.0945071       1.1083655
  20 STRETCH   7  9                     2.8571672       1.5119479
  21 STRETCH   8 24                     2.0713959       1.0961356
  22 STRETCH   8 23                     2.0852798       1.1034826
  23 STRETCH   8 22                     2.0741851       1.0976116
  24 STRETCH   9 27                     2.0753799       1.0982438
  25 STRETCH   9 26                     2.0735065       1.0972525
  26 STRETCH   9 25                     2.0752080       1.0981528
  27 BEND      1  4  6                  1.9592592     112.2572809
  28 BEND      1  4 14                  1.8952521     108.5899472
  29 BEND      1  4 15                  1.9312681     110.6535122
  30 BEND      1  2  3                  2.0050515     114.8809911
  31 BEND      2  1 10                  1.9427292     111.3101839
  32 BEND      2  1 11                  1.8990060     108.8050301
  33 BEND      2  1  4                  1.8804328     107.7408624
  34 BEND      2  3 12                  1.9258086     110.3407022
  35 BEND      2  3 13                  1.7624548     100.9812216
  36 BEND      2  3  5                  2.0118439     115.2701633
  37 BEND      3  5 17                  1.8904859     108.3168644
  38 BEND      3  5  7                  1.9660543     112.6466131
  39 BEND      3  5 16                  1.9271342     110.4166583
  40 BEND      4  6 18                  1.9113064     109.5097925
  41 BEND      4  6 19                  1.9137286     109.6485748
  42 BEND      4  1 10                  1.9221085     110.1287053
  43 BEND      4  6  8                  1.9522049     111.8531042
  44 BEND      4  1 11                  1.9390531     111.0995581
  45 BEND      5  3 13                  1.9446977     111.4229693
  46 BEND      5  7  9                  1.9451961     111.4515296
  47 BEND      5  7 20                  1.9161389     109.7866703
  48 BEND      5  7 21                  1.9161852     109.7893231
  49 BEND      5  3 12                  1.9226031     110.1570422
  50 BEND      6  4 15                  1.9146465     109.7011640
  51 BEND      6  4 14                  1.9130817     109.6115080
  52 BEND      6  8 22                  1.9520948     111.8467944
  53 BEND      6  8 23                  1.9269928     110.4085527
  54 BEND      6  8 24                  1.9483969     111.6349196
  55 BEND      7  5 17                  1.9159715     109.7770786
  56 BEND      7  5 16                  1.9173895     109.8583271
  57 BEND      7  9 26                  1.9419999     111.2684007
  58 BEND      7  9 25                  1.9486127     111.6472853
  59 BEND      7  9 27                  1.9498037     111.7155216
  60 BEND      8  6 18                  1.9198922     110.0017184
  61 BEND      8  6 19                  1.9201941     110.0190161
  62 BEND      9  7 20                  1.9201693     110.0175989
  63 BEND      9  7 21                  1.9205012     110.0366161
  64 BEND     10  1 11                  1.8809654     107.7713795
  65 BEND     12  3 13                  1.8879232     108.1700333
  66 BEND     14  4 15                  1.8467986     105.8137629
  67 BEND     16  5 17                  1.8425357     105.5695204
  68 BEND     18  6 19                  1.8433876     105.6183276
  69 BEND     20  7 21                  1.8429667     105.5942126
  70 BEND     22  8 23                  1.8715716     107.2331532
  71 BEND     22  8 24                  1.8778691     107.5939713
  72 BEND     23  8 24                  1.8836504     107.9252199
  73 BEND     25  9 26                  1.8734938     107.3432882
  74 BEND     25  9 27                  1.8719442     107.2545046
  75 BEND     26  9 27                  1.8739030     107.3667341
  76 TORSION   1  4  6 18               3.0492411     174.7086470
  77 TORSION   1  4  6 19               1.0341847      59.2544166
  78 TORSION   1  4  6  8              -1.1009181     -63.0779594
  79 TORSION   1  2  3  5               1.1891776      68.1348589
  80 TORSION   1  2  3 12              -1.0020723     -57.4145159
  81 TORSION   1  2  3 13              -2.9961061    -171.6642322
  82 TORSION   2  3  5 17              -3.1005031    -177.6457399
  83 TORSION   2  3  5  7               1.0599768      60.7321943
  84 TORSION   2  1  4 14               2.7129000     155.4377225
  85 TORSION   2  3  5 16              -1.0908461     -62.5008792
  86 TORSION   2  1  4 15               0.6931300      39.7134232
  87 TORSION   2  1  4  6              -1.4523142     -83.2114723
  88 TORSION   3  2  1 10               0.7880217      45.1503187
  89 TORSION   3  2  1 11              -1.2822095     -73.4651901
  90 TORSION   3  2  1  4               2.8970626     165.9894588
  91 TORSION   3  5  7  9               3.1145084     178.4481870
  92 TORSION   3  5  7 20               0.9824860      56.2923024
  93 TORSION   3  5  7 21              -1.0362019     -59.3699949
  94 TORSION   4  6  8 22              -1.1648931     -66.7434559
  95 TORSION   4  6  8 23               0.9176827      52.5793464
  96 TORSION   4  6  8 24               3.0130596     172.6355959
  97 TORSION   5  7  9 25               1.0545744      60.4226620
  98 TORSION   5  7  9 26              -3.1357838    -179.6671771
  99 TORSION   5  7  9 27              -1.0416283     -59.6809076
 100 TORSION   6  4  1 10               0.6696021      38.3653741
 101 TORSION   6  4  1 11               2.7523259     157.6966579
 102 TORSION   7  5  3 12              -3.0303067    -173.6237847
 103 TORSION   7  5  3 13              -0.9349140     -53.5666282
 104 TORSION   8  6  4 14               1.0068002      57.6854036
 105 TORSION   8  6  4 15               3.0274861     173.4621739
 106 TORSION   9  7  5 17               1.0063285      57.6583770
 107 TORSION   9  7  5 16              -1.0124324     -58.0081046
 108 TORSION  10  1  4 15               2.8150463     161.2902695
 109 TORSION  10  1  4 14              -1.4483690     -82.9854312
 110 TORSION  11  1  4 15              -1.3854152     -79.3784467
 111 TORSION  11  1  4 14               0.6343548      36.3458526
 112 TORSION  12  3  5 16               1.1020557      63.1431417
 113 TORSION  12  3  5 17              -0.9076012     -52.0017190
 114 TORSION  13  3  5 16              -3.0857369    -176.7997018
 115 TORSION  13  3  5 17               1.1877915      68.0554375
 116 TORSION  14  4  6 19              -3.1412823    -179.9822204
 117 TORSION  14  4  6 18              -1.1262259     -64.5279899
 118 TORSION  15  4  6 19              -1.1205965     -64.2054502
 119 TORSION  15  4  6 18               0.8944600      51.2487803
 120 TORSION  16  5  7 21               1.1200426      64.1737135
 121 TORSION  16  5  7 20               3.1387305     179.8360108
 122 TORSION  17  5  7 21               3.1388035     179.8401951
 123 TORSION  17  5  7 20              -1.1256939     -64.4975076
 124 TORSION  18  6  8 24              -1.1420205     -65.4329576
 125 TORSION  18  6  8 23               3.0457879     174.5107929
 126 TORSION  18  6  8 22               0.9632121      55.1879906
 127 TORSION  19  6  8 24               0.8816562      50.5151792
 128 TORSION  19  6  8 23              -1.2137206     -69.5410704
 129 TORSION  19  6  8 22               2.9868889     171.1361273
 130 TORSION  20  7  9 27               1.0880669      62.3416438
 131 TORSION  20  7  9 25              -3.0989156    -177.5547866
 132 TORSION  20  7  9 26              -1.0060885     -57.6446257
 133 TORSION  21  7  9 27               3.1115734     178.2800228
 134 TORSION  21  7  9 25              -1.0754092     -61.6164076
 135 TORSION  21  7  9 26               1.0174179      58.2937533

     ------------------------------------------
     THE POINT GROUP IS C1 , NAXIS= 1, ORDER= 1
     ------------------------------------------

     DIMENSIONS OF THE SYMMETRY SUBSPACES ARE
 A   =  279

 ..... DONE SETTING UP THE RUN .....
 STEP CPU TIME =     0.02 TOTAL CPU TIME =        0.0 (    0.0 MIN)
 TOTAL WALL CLOCK TIME=        0.0 SECONDS, CPU UTILIZATION IS  66.67%


          -----------------------------
          STATIONARY POINT LOCATION RUN
          -----------------------------

 OBTAINING INITIAL HESSIAN, HESS=GUESS   
 DIAGONAL GUESS HESSIAN IN INTERNAL COORDS IS
     1  0.3654     2  0.3688     3  0.3354     4  0.3299     5  0.3740
     6  0.3368     7  0.3347     8  0.3688     9  0.3345    10  0.3345
    11  0.3731    12  0.3337    13  0.3747    14  0.3342    15  0.3796
    16  0.3345    17  0.3346    18  0.3344    19  0.3342    20  0.3803
    21  0.3423    22  0.3374    23  0.3413    24  0.3409    25  0.3415
    26  0.3409    27  0.2492    28  0.2232    29  0.2231    30  0.2393
    31  0.2184    32  0.2188    33  0.2436    34  0.2195    35  0.2197
    36  0.2444    37  0.2231    38  0.2494    39  0.2231    40  0.2235
    41  0.2235    42  0.2227    43  0.2503    44  0.2232    45  0.2234
    46  0.2505    47  0.2236    48  0.2236    49  0.2232    50  0.2235
    51  0.2235    52  0.2246    53  0.2243    54  0.2247    55  0.2236
    56  0.2236    57  0.2247    58  0.2247    59  0.2247    60  0.2240
    61  0.2240    62  0.2241    63  0.2241    64  0.2013    65  0.2018
    66  0.2016    67  0.2015    68  0.2016    69  0.2016    70  0.2023
    71  0.2027    72  0.2024    73  0.2026    74  0.2026    75  0.2026
    76  0.2500    77  0.2500    78  0.2500    79  0.2500    80  0.2500
    81  0.2500    82  0.2500    83  0.2500    84  0.2500    85  0.2500
    86  0.2500    87  0.2500    88  0.2500    89  0.2500    90  0.2500
    91  0.2500    92  0.2500    93  0.2500    94  0.2500    95  0.2500
    96  0.2500    97  0.2500    98  0.2500    99  0.2500   100  0.2500
   101  0.2500   102  0.2500   103  0.2500   104  0.2500   105  0.2500
   106  0.2500   107  0.2500   108  0.2500   109  0.2500   110  0.2500
   111  0.2500   112  0.2500   113  0.2500   114  0.2500   115  0.2500
   116  0.2500   117  0.2500   118  0.2500   119  0.2500   120  0.2500
   121  0.2500   122  0.2500   123  0.2500   124  0.2500   125  0.2500
   126  0.2500   127  0.2500   128  0.2500   129  0.2500   130  0.2500
   131  0.2500   132  0.2500   133  0.2500   134  0.2500   135  0.2500
 TRANSFORMING HESSIAN TO SYMMETRY COORDINATES

          PARAMETERS CONTROLLING GEOMETRY SEARCH ARE
          METHOD =QA                  UPHESS =BFGS    
          NNEG   =         0          NFRZ   =         3
          NSTEP  =        50          IFOLOW =         1
          HESS   =GUESS               RESTAR =         F
          IHREP  =         0          HSSEND =         F
          NPRT   =         0          NPUN   =         0
          OPTTOL = 5.000E-04          RMIN   = 1.500E-03
          RMAX   = 1.000E-01          RLIM   = 7.000E-02
          DXMAX  = 3.000E-01          PURIFY =         F
          MOVIE  =         F          TRUPD  =         T
          TRMAX  = 5.000E-01          TRMIN  = 5.000E-02
          ITBMAT =         5          STPT   =         F
          STSTEP = 1.000E-02          PROJCT=          F
          FROZEN COORD(S)=   1   2   3


      ***** EQUILIBRIUM GEOMETRY LOCATED *****
            (SUBJECT TO   3 CONSTRAINT(S))
 COORDINATES OF ALL ATOMS ARE (ANGS)
   ATOM   CHARGE       X              Y              Z
 ------------------------------------------------------------
 C           6.0   3.5126858398   2.8246444230   2.0757434321
 O           8.0   3.1091592545   4.0827936035   2.5561363061
 C           6.0   3.4020115570   4.3552355185   3.9044716295
 C           6.0   2.7260298944   2.4939504340   0.8163170053
 C           6.0   4.8877933148   4.3805261878   4.2486689095
 C           6.0   1.2441191592   2.1705946473   1.0386002892
 C           6.0   5.7092777087   5.4028525464   3.4628704034
 C           6.0   0.9940447253   0.8447568783   1.7614828340
 C           6.0   7.1959031762   5.3450452875   3.8155107410
 H           1.0   3.3594392230   2.0685522879   2.8425686344
 H           1.0   4.5745767950   2.8400862407   1.8433651418
 H           1.0   2.8994858648   3.6247944840   4.5376243535
 H           1.0   2.9603969033   5.3248089744   4.1076234386
 H           1.0   3.2082591777   1.6507761851   0.3248738097
 H           1.0   2.8146312970   3.3415404126   0.1404601740
 H           1.0   5.3144257094   3.3892652973   4.1125946569
 H           1.0   4.9617901191   4.5982142648   5.3130040330
 H           1.0   0.7568982732   2.1281960498   0.0669277230
 H           1.0   0.7725043647   2.9838950397   1.5840523300
 H           1.0   5.3267563178   6.4024895821   3.6625692360
 H           1.0   5.5836502369   5.2311937313   2.3971018449
 H           1.0   1.4049217667   0.0123143408   1.1946255940
 H           1.0   1.4429383824   0.8259490156   2.7499908649
 H           1.0  -0.0708378912   0.6677157240   1.8844195279
 H           1.0   7.6107688419   4.3657642986   3.5881459074
 H           1.0   7.7642041333   6.0839033272   3.2575998680
 H           1.0   7.3543444062   5.5328953182   4.8748861294


                     --------------------
                     INTERNAL COORDINATES
                     --------------------

                 - - ATOMS - -         COORDINATE      COORDINATE
 NO.   TYPE    I  J  K  L  M  N        (BOHR,RAD)       (ANG,DEG)
 ----------------------------------------------------------------
   1 STRETCH   1  2                     2.6567628       1.4058984
   2 STRETCH   1  4                     2.8748323       1.5212958
   3 STRETCH   1 11                     2.0543768       1.0871295
   4 STRETCH   1 10                     2.0555327       1.0877411
   5 STRETCH   2  3                     2.6577336       1.4064122
   6 STRETCH   3 13                     2.0496052       1.0846045
   7 STRETCH   3 12                     2.0588116       1.0894763
   8 STRETCH   3  5                     2.8824726       1.5253389
   9 STRETCH   4 15                     2.0554116       1.0876771
  10 STRETCH   4 14                     2.0571161       1.0885790
  11 STRETCH   4  6                     2.8969125       1.5329802
  12 STRETCH   5 16                     2.0554882       1.0877176
  13 STRETCH   5  7                     2.8891600       1.5288777
  14 STRETCH   5 17                     2.0576963       1.0888861
  15 STRETCH   6  8                     2.8925417       1.5306672
  16 STRETCH   6 19                     2.0539817       1.0869204
  17 STRETCH   6 18                     2.0556618       1.0878095
  18 STRETCH   7 21                     2.0537345       1.0867896
  19 STRETCH   7 20                     2.0575258       1.0887959
  20 STRETCH   7  9                     2.8893361       1.5289710
  21 STRETCH   8 24                     2.0531436       1.0864769
  22 STRETCH   8 23                     2.0519043       1.0858211
  23 STRETCH   8 22                     2.0554692       1.0877075
  24 STRETCH   9 27                     2.0550868       1.0875052
  25 STRETCH   9 26                     2.0528911       1.0863433
  26 STRETCH   9 25                     2.0552015       1.0875659
  27 BEND      1  4  6                  2.0105100     115.1937390
  28 BEND      1  4 14                  1.8891953     108.2429150
  29 BEND      1  4 15                  1.8785292     107.6317973
  30 BEND      1  2  3                  2.0277074     116.1790781
  31 BEND      2  1 10                  1.9184880     109.9212643
  32 BEND      2  1 11                  1.9184453     109.9188212
  33 BEND      2  1  4                  1.9060329     109.2076427
  34 BEND      2  3 12                  1.9084070     109.3436689
  35 BEND      2  3 13                  1.8420678     105.5427125
  36 BEND      2  3  5                  2.0068582     114.9845050
  37 BEND      3  5 17                  1.8651005     106.8623877
  38 BEND      3  5  7                  2.0025736     114.7390138
  39 BEND      3  5 16                  1.9163482     109.7986656
  40 BEND      4  6 18                  1.8877484     108.1600186
  41 BEND      4  6 19                  1.9117419     109.5347447
  42 BEND      4  1 10                  1.9387100     111.0798992
  43 BEND      4  6  8                  1.9922844     114.1494882
  44 BEND      4  1 11                  1.9083921     109.3428142
  45 BEND      5  3 13                  1.9172024     109.8476048
  46 BEND      5  7  9                  1.9590881     112.2474798
  47 BEND      5  7 20                  1.9080337     109.3222775
  48 BEND      5  7 21                  1.9137826     109.6516663
  49 BEND      5  3 12                  1.9063265     109.2244643
  50 BEND      6  4 15                  1.9105113     109.4642362
  51 BEND      6  4 14                  1.9074306     109.2877247
  52 BEND      6  8 22                  1.9337854     110.7977412
  53 BEND      6  8 23                  1.9577861     112.1728800
  54 BEND      6  8 24                  1.9334012     110.7757300
  55 BEND      7  5 17                  1.9094185     109.4016189
  56 BEND      7  5 16                  1.9116949     109.5320505
  57 BEND      7  9 26                  1.9438712     111.3756135
  58 BEND      7  9 25                  1.9355555     110.8991610
  59 BEND      7  9 27                  1.9388497     111.0879047
  60 BEND      8  6 18                  1.8911591     108.3554330
  61 BEND      8  6 19                  1.9179722     109.8917147
  62 BEND      9  7 20                  1.9113457     109.5120398
  63 BEND      9  7 21                  1.9098552     109.4266431
  64 BEND     10  1 11                  1.8735796     107.3482062
  65 BEND     12  3 13                  1.8783044     107.6189128
  66 BEND     14  4 15                  1.8618724     106.6774333
  67 BEND     16  5 17                  1.8523157     106.1298712
  68 BEND     18  6 19                  1.8578002     106.4441092
  69 BEND     20  7 21                  1.8590409     106.5151991
  70 BEND     22  8 23                  1.8807564     107.7594054
  71 BEND     22  8 24                  1.8802081     107.7279889
  72 BEND     23  8 24                  1.8748222     107.4193993
  73 BEND     25  9 26                  1.8812533     107.7878765
  74 BEND     25  9 27                  1.8792766     107.6746150
  75 BEND     26  9 27                  1.8823991     107.8535222
  76 TORSION   1  4  6 18               2.9680218     170.0551225
  77 TORSION   1  4  6 19               0.9499688      54.4292025
  78 TORSION   1  4  6  8              -1.2088656     -69.2628942
  79 TORSION   1  2  3  5               1.0930830      62.6290397
  80 TORSION   1  2  3 12              -1.0583771     -60.6405396
  81 TORSION   1  2  3 13              -3.0743386    -176.1466289
  82 TORSION   2  3  5 17              -3.1394340    -179.8763193
  83 TORSION   2  3  5  7               1.0239350      58.6671513
  84 TORSION   2  1  4 14               2.9035742     166.3625465
  85 TORSION   2  3  5 16              -1.1377781     -65.1898822
  86 TORSION   2  1  4 15               0.8973186      51.4125702
  87 TORSION   2  1  4  6              -1.2390718     -70.9935828
  88 TORSION   3  2  1 10               0.6683414      38.2931426
  89 TORSION   3  2  1 11              -1.3902326     -79.6544577
  90 TORSION   3  2  1  4               2.7993586     160.3914324
  91 TORSION   3  5  7  9              -3.1054928    -177.9316322
  92 TORSION   3  5  7 20               1.0531956      60.3436654
  93 TORSION   3  5  7 21              -0.9788634     -56.0847436
  94 TORSION   4  6  8 22              -1.0498325     -60.1509719
  95 TORSION   4  6  8 23               1.0528136      60.3217741
  96 TORSION   4  6  8 24              -3.1355555    -179.6540994
  97 TORSION   5  7  9 25               1.0573016      60.5789179
  98 TORSION   5  7  9 26              -3.1307721    -179.3800300
  99 TORSION   5  7  9 27              -1.0319845     -59.1283570
 100 TORSION   6  4  1 10               0.8797260      50.4045851
 101 TORSION   6  4  1 11               2.9443411     168.6983182
 102 TORSION   7  5  3 12              -3.1066822    -177.9997787
 103 TORSION   7  5  3 13              -1.0503559     -60.1809598
 104 TORSION   8  6  4 14               0.9218974      52.8208297
 105 TORSION   8  6  4 15               2.9551619     169.3183046
 106 TORSION   9  7  5 17               1.0822651      62.0092204
 107 TORSION   9  7  5 16              -0.9413076     -53.9329554
 108 TORSION  10  1  4 15               3.0161164     172.8107381
 109 TORSION  10  1  4 14              -1.2608134     -72.2392856
 110 TORSION  11  1  4 15              -1.2024538     -68.8955287
 111 TORSION  11  1  4 14               0.8038017      46.0544475
 112 TORSION  12  3  5 16               1.0147901      58.1431877
 113 TORSION  12  3  5 17              -0.9868659     -56.5432494
 114 TORSION  13  3  5 16               3.0711164     175.9620067
 115 TORSION  13  3  5 17               1.0694604      61.2755696
 116 TORSION  14  4  6 19               3.0807317     176.5129265
 117 TORSION  14  4  6 18              -1.1844006     -67.8611535
 118 TORSION  15  4  6 19              -1.1691891     -66.9895987
 119 TORSION  15  4  6 18               0.8488639      48.6363213
 120 TORSION  16  5  7 21               1.1853217      67.9139333
 121 TORSION  16  5  7 20              -3.0658045    -175.6576578
 122 TORSION  17  5  7 21              -3.0742909    -176.1438910
 123 TORSION  17  5  7 20              -1.0422318     -59.7154821
 124 TORSION  18  6  8 24              -1.0311581     -59.0810048
 125 TORSION  18  6  8 23              -3.1259742    -179.1051314
 126 TORSION  18  6  8 22               1.0545650      60.4221226
 127 TORSION  19  6  8 24               0.9921560      56.8463499
 128 TORSION  19  6  8 23              -1.1026602     -63.1777766
 129 TORSION  19  6  8 22               3.0778790     176.3494774
 130 TORSION  20  7  9 27               1.0906199      62.4879167
 131 TORSION  20  7  9 25              -3.1032793    -177.8048083
 132 TORSION  20  7  9 26              -1.0081677     -57.7637562
 133 TORSION  21  7  9 27               3.1223332     178.8965119
 134 TORSION  21  7  9 25              -1.0715661     -61.3962132
 135 TORSION  21  7  9 26               1.0235455      58.6448389

          INTERNUCLEAR DISTANCES (ANGS.)


 =====================================================
   GAMESS/COSab RESULTS
 =====================================================

   Dielectric Constant                  = INFTY
   Basic Grid Size                      =                 1082
   Number of Segments                   =                   92
   Number of Segments located on spheres=                  306
   Number of Segments of the cavity     =                  856
   Solvent Radius (rsolv)               = 1.40
   Outlying Charge Error Method         = double cavity

 =====================================================

  Total solvated Energy (a.u.)          =  -388.3844417833
  Total Energy corrected (a.u.)         =  -388.3842743208

  Outlying charge effect (a.u.)         =     0.0001674625
  Outlying charge effect (kcal/mol)     =     0.1050844099

  Dielectric Energy (a.u.)              =    -0.0061180916
  Dielectric energy corr. (a.u.)        =    -0.0059506290

  Sum of polarization charges           =     0.0319859844
  Sum of polarization charges(cor.)     =    -0.0319859844

  Total surface area of cavity (A**2)   =  199.16
  Total volume of cavity (A**3)         =  201.06

 =====================================================
 NPS=                   856
NR.  ATOM  (X, Y, Z)(a.u.)                  CHARGE(e)  AREA(A**2) SIGMA(e/A**2)
   1   1   8.345334   1.995733   3.475437  -0.000205   0.232280  -0.000883
   2   1   7.830839   1.762772   4.206535  -0.000565   0.325193  -0.001737
   3   1   8.910232   2.328149   4.174225   0.000234   0.371649   0.000630
   4   1   9.363366   2.937335   4.968771   0.000731   0.371649   0.001966
   5   1   9.110603   2.623495   3.026391  -0.000206   0.278737  -0.000740
   6   1   8.692499   2.409878   5.143502   0.000096   0.139368   0.000691
   7   2   5.172755  10.073918   2.707187   0.005303   0.274871   0.019292
   8   2   3.252855   9.623904   4.620616   0.004290   0.240512   0.017838
   9   2   4.571190  10.636376   4.254953   0.002552   0.171795   0.014858
  10   2   4.886800  10.510417   3.498179   0.005007   0.274871   0.018216
  11   2   3.631046   9.657372   3.505327   0.005114   0.206154   0.024807
  12   2   4.241371   9.793750   2.939718   0.006149   0.274871   0.022370
  13   2   6.125005  10.461682   3.109918   0.005396   0.240512   0.022436
  14   2   2.936727   9.079347   5.091160   0.001190   0.068718   0.017313
  15   2   6.126375  10.001387   2.533499   0.004144   0.171795   0.024122
  16   2   3.849788  10.148934   4.096252   0.004997   0.274871   0.018178
  17   2   5.719041  10.819468   3.879272   0.004043   0.240512   0.016810
  18   2   6.753112   9.646438   2.367615   0.002292   0.068718   0.033353
  19   3   5.683399   9.021693  10.998064  -0.000297   0.325193  -0.000912
  20   3   3.095911   9.112077   8.926924   0.001001   0.371649   0.002694
  21   3   3.181807   8.252280   9.312396   0.000691   0.278737   0.002480
  22   3   5.511930   8.088596  11.042188  -0.000267   0.278737  -0.000958
  23   3   4.805885   9.352971  10.601672   0.000285   0.278737   0.001023
  24   3   3.805034   9.224198   9.910526   0.000870   0.325193   0.002674
  25   3   2.690068   8.405481   7.902732   0.000523   0.418105   0.001251
  26   3   5.759341  10.117192  10.583887  -0.000342   0.278737  -0.001228
  27   3   2.816767   9.308221   7.652017   0.000511   0.325193   0.001570
  28   3   3.038663   9.762398   6.712690   0.000227   0.139368   0.001628
  29   3   6.115799  11.428982   5.389920   0.000020   0.046456   0.000440
  30   3   2.761358   7.579976   8.019384   0.000197   0.232280   0.000846
  31   3   4.321381   8.732629  10.475212   0.000455   0.278737   0.001631
  32   3   2.822571   9.148469   6.718324   0.000505   0.139368   0.003625
  33   4   4.606525   4.152900  -2.155177   0.000747   0.278737   0.002679
  34   4   7.701763   5.425697  -1.154040   0.001562   0.371649   0.004203
  35   4   7.464865   4.459623  -1.435323   0.001033   0.232280   0.004447
  36   4   4.823341   3.255481  -1.929058   0.000835   0.371649   0.002246
  37   4   5.412679   4.646456  -2.227202   0.001246   0.278737   0.004469
  38   4   6.725178   4.920606  -1.887310   0.001711   0.325193   0.005262
  39   4   8.324287   5.164109  -0.460794   0.000935   0.325193   0.002875
  40   4   4.331488   5.204679  -2.113886   0.000641   0.278737   0.002298
  41   4   8.144544   6.278549  -0.152744   0.000472   0.232280   0.002032
  42   4   8.397509   4.291994  -0.346857   0.000592   0.232280   0.002548
  43   4   6.064778   4.208844  -2.090006   0.001234   0.278737   0.004428
  44   5   9.385632   5.962820  11.012438   0.001479   0.371649   0.003979
  45   5   8.201527  11.304682  10.041811   0.000056   0.092912   0.000601
  46   5   8.782700  11.282122  10.276825   0.000016   0.046456   0.000347
  47   5  10.016573   5.429412  10.387086   0.001175   0.278737   0.004214
  48   5  11.579716   6.828957  10.616151   0.000942   0.232280   0.004056
  49   5  10.737882   6.216755  10.818379   0.001841   0.371649   0.004954
  50   5   8.651843   5.528284  10.554959   0.000823   0.325193   0.002532
  51   5   8.067642   6.390893  11.087683   0.000305   0.232280   0.001311
  52   5   8.011241  11.053391  10.282709   0.000015   0.046456   0.000313
  53   5   8.597814   4.984893   9.769984   0.000456   0.278737   0.001635
  54   5  11.508933   6.107612  10.128848   0.000523   0.139368   0.003755
  55   6  -1.403131   4.438014   1.684565   0.001067   0.325193   0.003281
  56   6   0.587200   7.197772   0.702411   0.001724   0.371649   0.004640
  57   6   0.197859   6.524029   0.018189   0.001416   0.278737   0.005079
  58   6  -1.245541   4.125823   0.801547   0.000795   0.278737   0.002851
  59   6   2.922938   2.142585  -1.218308   0.000213   0.139368   0.001528
  60   6  -1.168881   5.423192   1.577534   0.001354   0.278737   0.004859
  61   6  -0.453613   6.417039   0.934108   0.001827   0.325193   0.005619
  62   6   1.362556   7.253622   0.125993   0.001059   0.325193   0.003257
  63   6  -1.247367   4.980169   2.713756   0.000830   0.278737   0.002976
  64   6   1.803147   7.739328   1.095090   0.000621   0.232280   0.002675
  65   6   1.650118   6.754118  -0.637017   0.000721   0.278737   0.002587
  66   6  -0.944230   5.561893   0.825302   0.001394   0.278737   0.004999
  67   6   2.544448   1.781555  -1.014447   0.000092   0.046456   0.001983
  68   7  11.793058  13.058975   4.272562   0.000780   0.278737   0.002800
  69   7   8.609219  12.032628   4.051767   0.001104   0.232280   0.004751
  70   7   8.554823  12.577891   4.624120   0.001332   0.278737   0.004779
  71   7  11.260080  13.595524   4.931460   0.000762   0.278737   0.002734
  72   7  10.177132  12.251145   9.665288   0.000227   0.139368   0.001630
  73   7  10.868678  12.836828   3.827780   0.001596   0.371649   0.004294
  74   7   9.476548  12.518467   3.854576   0.001526   0.278737   0.005476
  75   7  11.755500  12.181726   3.467838   0.000783   0.278737   0.002808
  76   7  10.114073  13.076933   4.175562   0.001334   0.278737   0.004786
  77   7  10.687575  12.466314   9.574150   0.000099   0.046456   0.002128
  78   8   0.239733   0.483022   6.547318   0.002218   0.418105   0.005305
  79   8   0.147501   0.311450   0.224371   0.000885   0.278737   0.003176
  80   8   3.500156  -1.265834   5.189436   0.001851   0.418105   0.004427
  81   8   0.037032  -1.702357   3.437729   0.001564   0.371649   0.004209
  82   8  -0.823178   3.617345   5.031962   0.000620   0.278737   0.002224
  83   8   0.150080   3.488618   6.106553   0.000913   0.325193   0.002807
  84   8  -0.057687   2.303016   6.496728   0.001829   0.371649   0.004922
  85   8   0.646801  -1.910563   2.644055   0.001371   0.325193   0.004216
  86   8   3.719688  -1.559491   4.295565   0.001212   0.278737   0.004350
  87   8   5.217942  -0.171880   3.402693   0.000498   0.139368   0.003570
  88   8   0.737141  -0.369729   0.309433   0.000588   0.185824   0.003165
  89   8   0.454711   1.651641   6.829320   0.000980   0.232280   0.004219
  90   8  -0.315115   1.354149   6.396923   0.000852   0.185824   0.004582
  91   8   5.085380  -0.161650   4.282329   0.000622   0.139368   0.004464
  92   8   4.560441  -0.613825   4.814106   0.001326   0.278737   0.004758
  93   8   2.392077  -1.878933   4.722581   0.001488   0.464561   0.003202
  94   8   0.917129  -1.957478   4.183338   0.001406   0.464561   0.003027
  95   8  -0.230541  -1.300435   2.126665   0.001938   0.371649   0.005214
  96   8  -0.236334  -0.216729   0.774398   0.000904   0.232280   0.003890
  97   8  -0.786721   0.841567   0.757476   0.001032   0.325193   0.003172
  98   8   2.251208  -1.206445   5.836642   0.001233   0.418105   0.002949
  99   8   1.026318  -0.580982   6.298124   0.001461   0.418105   0.003494
 100   8  -0.024872  -0.519951   5.815256   0.001626   0.464561   0.003500
 101   8  -0.071018  -1.346115   4.679892   0.000969   0.325193   0.002980
 102   8   0.780818   3.266698   6.536438   0.000736   0.278737   0.002641
 103   8  -0.610801   3.039361   5.779355   0.000830   0.232280   0.003574
 104   8   1.813081  -2.150280   3.821374   0.000802   0.278737   0.002878
 105   8   4.755094  -0.747864   4.045582   0.000909   0.185824   0.004890
 106   8   1.143616   0.305583  -0.146635   0.000555   0.232280   0.002390
 107   8   0.287891  -1.069399   1.172788   0.001490   0.325193   0.004583
 108   8   1.093361  -1.495954   5.354930   0.001164   0.464561   0.002506
 109   8  -0.645379  -0.394376   1.340900   0.001003   0.232280   0.004319
 110   9  16.190463  12.484214   8.582726   0.002252   0.418105   0.005386
 111   9  14.285896   9.393056   3.561885   0.000559   0.185824   0.003006
 112   9  17.083650   9.876456   5.765900   0.001826   0.418105   0.004368
 113   9  16.321344   8.893195   9.536464   0.001443   0.371649   0.003882
 114   9  12.687721  13.043395   9.400147   0.000719   0.278737   0.002579
 115   9  13.474613  13.878100   7.201808   0.000741   0.232280   0.003189
 116   9  13.419239  13.705908   8.330332   0.000997   0.325193   0.003067
 117   9  14.587265  13.439036   8.680494   0.001296   0.278737   0.004648
[...]
 597   6  -0.635255   5.399163   0.158706   0.000237   0.160811   0.001474
 598   6   0.562009   6.267561  -0.479530   0.000080   0.160811   0.000496
 599   6   1.736767   6.271871  -1.068780   0.000025   0.090954   0.000272
 600  18   2.225510   2.475114  -1.524513  -0.000330   0.127117  -0.002597
 601   6   2.343466   2.106554  -1.191262  -0.000154   0.155301  -0.000988
 602  19   1.496463   7.890286   2.021153  -0.000064   0.074294  -0.000857
 603  19   0.425692   7.425946   1.787681  -0.000142   0.167592  -0.000845
 604  19  -0.614873   6.536447   2.214258  -0.000164   0.167592  -0.000978
 605  19  -0.912396   5.640253   3.293272  -0.000306   0.167592  -0.001828
 606   6   1.239653   7.627059   1.523091  -0.000016   0.160445  -0.000101
 607   6  -0.153356   6.820145   1.521796   0.000197   0.160445   0.001226
 608   6  -0.953594   5.752219   2.422207   0.000070   0.160445   0.000433
 609   6  -0.974826   5.012269   3.507144  -0.000003   0.090766  -0.000030
 610  22   2.763150   0.252053  -0.237795  -0.000232   0.159936  -0.001451
 611   6   2.870944   1.293641  -0.682152   0.000355   0.225335   0.001577
 612  24  -1.652759   3.233157   3.682665  -0.000225   0.203550  -0.001107
 613  24  -1.746049   2.581618   2.379956  -0.001129   0.416940  -0.002707
 614   6  -1.360083   3.962994   2.718539   0.000897   0.557187   0.001610
 615   6  -1.342314   3.137230   1.278919   0.000669   0.286657   0.002333
 616   7  12.018800  13.771091   6.157305   0.000028   0.027977   0.001013
 617   9  12.497887  13.711143   6.281493   0.000058   0.027977   0.002068
 618  20  11.766496  13.884095   6.284031   0.000006   0.027977   0.000218
 619   7  11.264337  12.876279   9.191219   0.000043   0.027977   0.001524
 620   9  11.753265  12.828003   9.275834   0.000088   0.027977   0.003153
 621  20  11.079629  13.069454   9.046121   0.000003   0.027977   0.000113
 622   7  12.583810  11.177970   3.352385   0.000039   0.027930   0.001391
 623   9  13.057052  11.145035   3.505683   0.000089   0.027930   0.003182
 624  21  12.392230  11.016029   3.182164   0.000002   0.027930   0.000077
 625   7  12.992741  11.639108   3.676074   0.000083   0.025330   0.003261
 626   9  13.485530  11.635937   3.751023   0.000032   0.025330   0.001250
 627  26  13.718220  11.818943   3.814867  -0.000007   0.025330  -0.000290
 628   7  12.558440  13.598124   5.828025   0.000048   0.025330   0.001887
 629   9  13.045314  13.621629   5.932279   0.000024   0.025330   0.000929
 630  26  13.317619  13.625940   5.799828  -0.000005   0.025330  -0.000179
 631   7  11.577971  12.278270   9.740882   0.000033   0.025825   0.001286
 632   9  12.054034  12.287047   9.888416   0.000005   0.025825   0.000185
 633  27  12.237842  12.172732  10.101033  -0.000029   0.025825  -0.001122
 634   9  12.009174  12.626681   9.608901   0.000164   0.093891   0.001741
 635   7  11.293960  12.569747   9.516329   0.000185   0.093891   0.001967
 636   9  13.386043  11.374261   3.599203   0.000150   0.057676   0.002605
 637   7  12.688121  11.466219   3.458138   0.000164   0.057676   0.002837
 638   9  12.885840  13.699380   6.088975   0.000116   0.048235   0.002396
 639   7  12.178589  13.740524   5.978910   0.000112   0.048235   0.002313
 640   7  10.976115  11.496772  10.172090   0.000018   0.168394   0.000108
 641  17  10.665419  10.991616  10.639799  -0.000212   0.168394  -0.001257
 642  27  11.676897  11.385830  10.453792  -0.000169   0.168394  -0.001005
 643  17   9.845644  11.019024  10.801127  -0.000484   0.187232  -0.002584
 644   7  10.079373  11.796233  10.013803   0.000360   0.263841   0.001366
 645  20   9.734943  12.787435   9.255030  -0.000084   0.070835  -0.001179
 646  20  10.537166  13.124995   9.101968  -0.000085   0.070835  -0.001196
 647   7  10.309328  12.621591   9.348679  -0.000223   0.154764  -0.001440
 648  20  11.303429  14.029839   6.040442  -0.000065   0.069402  -0.000930
 649  20  10.466359  13.852031   5.327099  -0.000197   0.153975  -0.001277
 650  20   9.211582  13.416750   5.102456  -0.000095   0.153975  -0.000619
 651  20   8.267205  12.976576   5.496866  -0.000104   0.069402  -0.001493
 652   7  11.281184  13.761372   5.504955  -0.000075   0.152264  -0.000495
 653   7   9.992025  13.409929   4.794799   0.000200   0.152264   0.001316
 654   7   8.611579  12.835290   5.027015   0.000109   0.152264   0.000715
 655  21   9.120519  11.413791   3.247881   0.000049   0.071288   0.000689
 656  21  10.199816  11.752311   3.066140  -0.000180   0.159291  -0.001128
 657  21  11.536279  11.411325   2.963527  -0.000318   0.159291  -0.001995
 658   7   9.458433  11.862396   3.477795   0.000156   0.155328   0.001006
 659   7  10.993051  11.993213   3.275837   0.000043   0.155328   0.000279
 660   7  12.129629  11.441167   3.230777  -0.000009   0.087094  -0.000105
 661  26  13.776234  12.246482   3.951366  -0.000233   0.197833  -0.001179
 662  26  13.546251  13.238115   4.939111  -0.001041   0.404452  -0.002573
 663   7  12.577442  12.519850   4.116518   0.000806   0.542322   0.001487
 664   7  12.358563  13.548842   5.339368   0.000675   0.278586   0.002422
 665  27  12.255690  11.977697  10.368200  -0.000167   0.120688  -0.001383
 666   7  11.199989  12.053687   9.958924   0.000292   0.170085   0.001720
 667   8   5.076302   0.485753   5.219293  -0.000046   0.083739  -0.000555
 668  10   5.791457   1.183333   5.519612  -0.000329   0.083739  -0.003935
 669  23   5.043722   0.589350   5.504838  -0.000239   0.083739  -0.002853
 670  10   6.444946   1.319633   5.309540  -0.000802   0.237914  -0.003372
 671   8   5.445015   0.352487   4.636098   0.000757   0.339392   0.002230
 672   8   2.104619   3.574462   6.782479  -0.000195   0.157623  -0.001235
 673  12   3.182534   4.632246   7.540874   0.000106   0.157623   0.000670
 674  23   2.318758   3.446785   6.964674  -0.000473   0.157623  -0.002998
 675  12   3.015638   5.744994   8.145748  -0.000104   0.296418  -0.000350
 676   8   1.631778   4.030809   6.771964   0.000926   0.474546   0.001950
 677   8   5.335933   0.107713   2.546917   0.000030   0.087914   0.000339
 678  14   5.929104   0.649234   1.958258   0.000042   0.087914   0.000475
 679  22   5.234632  -0.096762   2.342134  -0.000042   0.087914  -0.000480
 680  14   6.546195   0.948782   1.967403  -0.000064   0.093934  -0.000683
 681   8   5.584849   0.191496   2.783853   0.000383   0.133386   0.002875
 682  18   1.324281   1.823582  -1.060771  -0.000107   0.167900  -0.000638
 683  18   0.173503   2.104810  -0.686729  -0.000771   0.341287  -0.002258
 684  18  -0.706574   2.740078  -0.082422  -0.000157   0.167900  -0.000938
 685   8   0.894000   0.993350  -0.315089   0.000769   0.463073   0.001661
 686   8  -0.558982   1.649060   0.384874   0.000800   0.463073   0.001729
 687  19  -0.620233   5.141111   4.291369  -0.000090   0.172807  -0.000519
 688  19   0.322474   5.307157   5.116196  -0.000685   0.351384  -0.001948
 689   8  -0.442520   4.153502   4.965650   0.000851   0.476218   0.001788
 690   8   0.701715   4.342427   5.814689   0.000497   0.243511   0.002040
 691  22   4.962127  -0.690319   2.715356  -0.000058   0.067139  -0.000865
 692  22   4.333819  -1.376299   3.267314  -0.000138   0.148058  -0.000933
 693  22   3.203409  -2.024243   3.399471  -0.000228   0.148058  -0.001538
 694  22   2.032870  -2.226515   2.848062  -0.000256   0.148058  -0.001728
 695  22   1.277758  -1.904393   1.827685  -0.000162   0.148058  -0.001094
 696  22   1.231949  -1.183243   0.735454  -0.000183   0.148058  -0.001237
 697  22   1.913270  -0.343723  -0.003553  -0.000341   0.148058  -0.002305
 698   8   4.816721  -0.712344   3.287169   0.000137   0.148151   0.000923
 699   8   3.763724  -1.593051   3.817256   0.000093   0.148151   0.000630
 700   8   2.403129  -2.095800   3.569344  -0.000024   0.148151  -0.000162
 701   8   1.264454  -2.024930   2.639916   0.000036   0.148151   0.000243
 702   8   0.790853  -1.408023   1.390690   0.000106   0.148151   0.000719
 703   8   1.166643  -0.485168   0.307843  -0.000096   0.148151  -0.000650
 704   8   1.951727   0.252676  -0.206641   0.000011   0.082025   0.000136
 705  23   1.640260   2.807272   7.013857  -0.000160   0.068489  -0.002340
 706  23   1.322336   1.756239   7.138241  -0.000262   0.151820  -0.001729
 707  23   1.580543   0.452590   6.996189  -0.000235   0.151820  -0.001546
 708  23   2.505874  -0.407365   6.559623  -0.000312   0.151820  -0.002053
 709  23   3.720884  -0.472848   6.006619  -0.000228   0.151820  -0.001499
 710  23   4.614156   0.043486   5.610789  -0.000123   0.068489  -0.001796
 711   8   1.137496   2.522630   6.869157  -0.000020   0.150357  -0.000131
 712   8   0.985730   1.029340   6.909674   0.000075   0.150357   0.000498
 713   8   1.687280  -0.253150   6.566694  -0.000047   0.150357  -0.000312
 714   8   2.955981  -0.801709   5.980120  -0.000077   0.150357  -0.000514
 715   8   4.274327  -0.392579   5.389217   0.000062   0.150357   0.000414
 716  24  -1.618782   1.601550   1.633746  -0.000080   0.068972  -0.001160
 717  24  -1.431072   0.507309   1.683842  -0.000266   0.153053  -0.001738
 718  24  -1.164515  -0.585057   2.419652  -0.000148   0.153053  -0.000965
 719  24  -0.950674  -0.995242   3.681299  -0.000250   0.153053  -0.001633
 720  24  -0.877733  -0.554092   4.948501  -0.000303   0.153053  -0.001978
 721  24  -0.975772   0.556470   5.698684  -0.000188   0.153053  -0.001228
 722  24  -1.204361   1.878466   5.622485  -0.000196   0.153053  -0.001278
 723  24  -1.469234   2.866727   4.751329  -0.000330   0.153053  -0.002158
 724   8  -1.252590   1.242609   1.326912  -0.000095   0.151272  -0.000628
 725   8  -0.970329  -0.190586   1.707890   0.000006   0.151272   0.000042
 726   8  -0.685404  -1.081752   2.892586   0.000089   0.151272   0.000589
 727   8  -0.515312  -1.063387   4.392452  -0.000084   0.151272  -0.000555
 728   8  -0.530198  -0.143064   5.588966  -0.000104   0.151272  -0.000689
 729   8  -0.723922   1.299691   5.988708   0.000099   0.151272   0.000656
 730   8  -1.016595   2.669910   5.426830  -0.000031   0.151272  -0.000207
 731   8  -1.248162   3.394691   4.464725   0.000012   0.084265   0.000138
 732   9  12.417203   7.853826   3.971596   0.000178   0.242689   0.000735
 733  11  11.234342   6.950935   3.416953  -0.000235   0.242689  -0.000967
 734  21  11.803782   7.908902   3.533118  -0.000427   0.242689  -0.001761
 735   9  13.015322   7.371774   4.463642   0.000030   0.159814   0.000186
 736  11  11.709203   6.584583   4.068209   0.000097   0.159814   0.000609
 737  25  13.185540   7.164308   4.618694  -0.000195   0.159814  -0.001223
 738  11  11.244905   6.140703   3.063523  -0.000352   0.130316  -0.002702
 739   9  13.025521   7.445072   3.980447   0.000548   0.204196   0.002684
 740   9  13.544573   6.557023   8.699013   0.000080   0.086888   0.000915
 741  16  12.691172   6.071677   8.635614   0.000099   0.086888   0.001136
 742  25  13.690200   6.422467   8.465279  -0.000115   0.086888  -0.001327
 743  16  12.250187   5.756708   8.981642   0.000020   0.095802   0.000213
 744   9  13.438786   6.584929   9.102456   0.000462   0.135878   0.003402
 745  20  11.117118  13.441485   8.727171  -0.000200   0.215556  -0.000929
 746  20  11.513617  13.938207   7.315712  -0.001161   0.443614  -0.002616
 747   9  12.339696  13.426966   8.462592   0.000876   0.588173   0.001490
 748   9  12.713063  13.845685   6.794507   0.000758   0.303636   0.002495
 749  21  12.368421  10.591102   2.982166  -0.000180   0.202693  -0.000887
 750  21  12.339298   9.131889   3.132399  -0.001124   0.415536  -0.002704
 751   9  13.408269  10.094580   3.429178   0.000846   0.554646   0.001526
 752   9  13.271198   8.456868   3.716437   0.000604   0.285584   0.002115
 753  25  14.149382   7.371440   4.498645  -0.000185   0.069552  -0.002657
 754  25  15.182667   7.794511   4.561818  -0.000234   0.154503  -0.001514
 755  25  16.272630   8.083121   5.307558  -0.000186   0.154503  -0.001206
 756  25  16.761632   7.998343   6.564989  -0.000268   0.154503  -0.001734
 757  25  16.445665   7.575545   7.809517  -0.000297   0.154503  -0.001921
 758  25  15.456547   6.991117   8.521932  -0.000119   0.154503  -0.000771
 759  25  14.429717   6.549114   8.552083  -0.000057   0.069552  -0.000816
 760   9  14.386390   7.888964   4.309085  -0.000136   0.152401  -0.000894
 761   9  15.766905   8.381667   4.705923   0.000145   0.152401   0.000954
 762   9  16.703980   8.502636   5.894752   0.000070   0.152401   0.000461
 763   9  16.806671   8.201403   7.379600  -0.000050   0.152401  -0.000331
 764   9  16.032137   7.603641   8.540994   0.000056   0.152401   0.000370
 765   9  14.703510   6.958733   8.894407   0.000068   0.152401   0.000448
 766  26  13.796615  13.785907   5.993325  -0.000083   0.069586  -0.001189
 767  26  14.567789  13.806690   6.806384  -0.000238   0.154717  -0.001540
 768  26  15.717813  13.314966   7.326630  -0.000229   0.154717  -0.001483
 769  26  16.688547  12.397594   7.100559  -0.000235   0.154717  -0.001517
 770  26  17.072489  11.439675   6.223072  -0.000311   0.154717  -0.002013
 771  26  16.708467  10.843331   5.062526  -0.000182   0.154717  -0.001176
 772  26  15.749291  10.858900   4.106105  -0.000243   0.154717  -0.001569
 773  26  14.597611  11.479845   3.755299  -0.000351   0.154717  -0.002269
 774   9  13.754499  13.777584   6.591794  -0.000163   0.152333  -0.001068
 775   9  14.939813  13.568978   7.522923   0.000049   0.152333   0.000319
 776   9  16.198852  12.732433   7.697567   0.000029   0.152333   0.000192
 777   9  17.003089  11.619122   7.042413  -0.000054   0.152333  -0.000357
 778   9  17.014915  10.696396   5.832485  -0.000024   0.152333  -0.000160
 779   9  16.229366  10.351604   4.575696   0.000019   0.152333   0.000126
 780   9  14.976205  10.729486   3.799629   0.000011   0.152333   0.000072
 781   9  13.960295  11.426329   3.687634   0.000015   0.085015   0.000179
 782  27  13.877788   8.549962  10.763946  -0.000059   0.067719  -0.000875
 783  27  14.930697   8.758213  10.569550  -0.000162   0.149611  -0.001081
 784  27  15.888027   9.617787  10.273961  -0.000251   0.149611  -0.001677
 785  27  16.125013  10.889963  10.012945  -0.000271   0.149611  -0.001811
 786  27  15.547780  12.070803   9.889896  -0.000156   0.149611  -0.001040
 787  27  14.384983  12.692552   9.953556  -0.000180   0.149611  -0.001205
 788  27  13.097230  12.508922  10.178709  -0.000343   0.149611  -0.002291
 789   9  14.271463   8.287922  10.406696   0.000095   0.149165   0.000635
 790   9  15.606551   8.859681  10.105644   0.000073   0.149165   0.000492
 791   9  16.313408  10.121359   9.776217  -0.000070   0.149165  -0.000467
 792   9  16.112033  11.573179   9.548907  -0.000044   0.149165  -0.000294
 793   9  15.082195  12.640043   9.513758   0.000086   0.149165   0.000580
 794   9  13.631834  12.899344   9.684692  -0.000026   0.149165  -0.000172
 795   9  12.518102  12.507688   9.920704  -0.000018   0.082734  -0.000212
 796  10   5.170146   3.206657   7.528359  -0.001760   0.282834  -0.006222
 797  12   4.989233   3.968553   8.130366  -0.000682   0.282834  -0.002410
 798  23   4.350344   2.737017   7.350538  -0.001128   0.282834  -0.003987
 799  12   5.778393   4.294990   8.902509  -0.001007   0.425576  -0.002365
 800  10   6.307819   3.411771   7.916350  -0.001398   0.425576  -0.003285
 801  16   8.912214   4.028706   8.350291  -0.000107   0.308311  -0.000348
 802  16   9.562490   3.757440   7.631394  -0.000327   0.308311  -0.001060
 803  10   8.047341   3.125271   7.204140  -0.000920   0.616611  -0.001492
 804  23   5.049950   0.636684   6.008244  -0.000323   0.273072  -0.001181
 805  23   4.523883   1.374643   6.993694  -0.002648   0.546938  -0.004841
 806  10   6.006025   1.635729   6.470960  -0.002742   0.546938  -0.005013
 807  10   5.431823   2.455068   7.360576  -0.000989   0.273072  -0.003622
 808  14   8.690803   3.043645   0.685605  -0.000068   0.323378  -0.000210
 809  11   9.492171   3.606253   1.722976  -0.000271   0.323378  -0.000837
 810  11  11.211864   5.346667   5.044368  -0.000488   0.350254  -0.001393
 811  16  11.645720   5.468284   5.977501  -0.001227   0.350254  -0.003504
 812  25  12.553713   6.032689   5.821126  -0.000084   0.350254  -0.000239
 813  16  11.052729   4.548042   6.186153  -0.000776   0.340951  -0.002277
 814  11  10.732050   4.359813   4.752245  -0.000545   0.340951  -0.001599
 815  21  11.469772   7.988356   2.871868  -0.000060   0.342670  -0.000176
 816  21  10.667522   8.469678   2.255391  -0.000372   0.342670  -0.001086
 817  11  10.432463   6.787988   2.266424  -0.001614   0.685934  -0.002353
 818  25  13.387179   5.951001   5.403129   0.000135   0.248982   0.000543
 819  25  13.487553   6.499105   4.749187   0.000296   0.496473   0.000596
 820  11  11.416592   5.129668   3.986914  -0.000472   0.496473  -0.000950
 821  11  11.479531   5.717423   3.363442  -0.000158   0.248982  -0.000636
 822  17   7.588073   7.409501  11.572449   0.000159   0.084789   0.001871
 823  12   6.378169   6.782786  11.099077   0.000054   0.084789   0.000639
 824  23   3.747257   2.319604   7.739801  -0.000190   0.256049  -0.000743
 825  23   2.950906   2.734612   7.738895  -0.000383   0.510826  -0.000749
 826  23   2.301485   3.271213   7.427897   0.000278   0.256049   0.001085
 827  12   4.387366   4.284623   8.918285  -0.000389   0.510826  -0.000761
 828  12   3.480904   4.881257   8.722729  -0.000342   0.510826  -0.000669
 829  20   7.639767  12.924924   6.077187   0.000233   0.247947   0.000940
 830  20   7.688036  13.246988   7.113723  -0.000370   0.495656  -0.000747
 831  20   8.038603  12.995553   8.368873  -0.000339   0.495656  -0.000685
 832  13   6.218159  12.421198   6.734025  -0.000610   0.495656  -0.001230
 833  13   6.395961  12.570430   8.040790  -0.001022   0.495656  -0.002062
 834  13   6.756031  12.169380   8.984172  -0.000291   0.247947  -0.001175
 835  22   3.773139   0.124833  -0.186650   0.000022   0.246127   0.000089
 836  22   4.525218  -0.370528   0.439530  -0.000469   0.492074  -0.000954
 837  22   5.167438  -0.454987   1.611999  -0.000058   0.492074  -0.000117
 838  14   5.151741   0.905020  -0.492577  -0.000498   0.492074  -0.001013
 839  14   5.992388   0.486938   0.462819  -0.000555   0.492074  -0.001128
 840  14   6.386192   0.593961   1.480940   0.000056   0.246127   0.000226
 841  18   2.234423   5.806583  -1.662809   0.000308   0.255657   0.001205
 842  15   3.535789   6.417296  -1.695150   0.000299   0.255657   0.001170
 843  21   9.485776   9.372620   1.917787   0.000512   0.234458   0.002182
 844  21   9.074893   9.788316   2.073870   0.000839   0.234458   0.003579
 845  15   7.369734   8.267563   0.462916   0.001327   0.467187   0.002841
 846  25  13.820121   6.066237   8.239269   0.000258   0.231779   0.001115
 847  25  13.733972   5.735442   7.246115  -0.000449   0.463389  -0.000969
 848  25  13.481958   5.781010   6.227483  -0.000285   0.231779  -0.001229
 849  16  12.417322   5.331007   8.183028  -0.000299   0.463389  -0.000646
 850  16  12.206235   5.152964   6.927241  -0.000674   0.463389  -0.001454
 851  27  12.052272  11.327943  10.969012   0.000055   0.245913   0.000225
 852  27  12.483269  10.447182  11.443660  -0.000461   0.491622  -0.000939
 853  27  12.949031   9.205118  11.337354  -0.000140   0.491622  -0.000284
 854  17  10.774197  10.441802  11.438409  -0.000505   0.491622  -0.001028
 855  17  11.295018   9.261269  11.764056  -0.000536   0.491622  -0.001090
 856  17  11.626622   8.269432  11.458952   0.000218   0.245913   0.000885
 =====================================================

              6995162  WORDS OF DYNAMIC MEMORY USED
 EXECUTION OF GAMESS TERMINATED NORMALLY Wed Nov 23 23:46:48 2016
 DDI: 263640 bytes (0.3 MB / 0 MWords) used by master data server.

 ----------------------------------------
 CPU timing information for all processes
 ========================================
 0: 4210.808 + 1.380 = 4212.188
 ----------------------------------------
 ddikick.x: exited gracefully.
