----- GAMESS execution script -----

          ******************************************************
          *         GAMESS VERSION =  5 DEC 2014 (R1)          *
          *             FROM IOWA STATE UNIVERSITY             *
          * M.W.SCHMIDT, K.K.BALDRIDGE, J.A.BOATZ, S.T.ELBERT, *
          *   M.S.GORDON, J.H.JENSEN, S.KOSEKI, N.MATSUNAGA,   *
          *          K.A.NGUYEN, S.J.SU, T.L.WINDUS,           *
          *       TOGETHER WITH M.DUPUIS, J.A.MONTGOMERY       *
          *         J.COMPUT.CHEM.  14, 1347-1363(1993)        *
          **************** 64 BIT LINUX VERSION ****************

 EXECUTION OF GAMESS BEGUN Wed Nov 23 22:39:25 2016

            ECHO OF THE FIRST FEW INPUT CARDS -
 INPUT CARD>! SELECT RESTRICTED HARTREE-FOCK AS DEFAULT                                     
 INPUT CARD>$contrl scftyp=rhf $end                                                         
 INPUT CARD>                                                                                
 INPUT CARD>! THEORY: HF OR DFT                                                             
 INPUT CARD> $contrl mplevl=0 $end                                                          
 INPUT CARD>                                                                                
 INPUT CARD> $system timlim=10000 mwords=20 $end                                            
 INPUT CARD> $SCF DIRSCF=.TRUE. $end                                                        
 INPUT CARD>                                                                                
 INPUT CARD>                                                                                
 INPUT CARD>! BASIS SETS                                                                    
 INPUT CARD>! 6-311G(d,p)                                                                   
 INPUT CARD> $BASIS GBASIS=N311 NGAUSS=6 NDFUNC=1 NPFUNC=1 $END                             
 INPUT CARD>                                                                                
 INPUT CARD>! One of the following                                                          
 INPUT CARD> $guess guess=HUCKEL $end                                                       
 INPUT CARD>                                                                                
 INPUT CARD> $statpt projct=.FALSE. $end                                                    
 INPUT CARD> $STATPT IFREEZ(1)=1,2,3 $END                                                   
 INPUT CARD>                                                                                
 INPUT CARD>! Optimize the geometry with COSMO effects                                      
 INPUT CARD> $statpt opttol=0.0005 nstep=50 $end                                            
 INPUT CARD> $contrl nzvar=1 $end                                                           
 INPUT CARD> $zmat dlc=.t. auto=.t. $end                                                    
 INPUT CARD> $contrl runtyp=OPTIMIZE maxit=200 $end                                         
 INPUT CARD>                                                                                
 INPUT CARD>! Run COSMO on perfect conductor                                                
 INPUT CARD> $COSGMS PRFCND=.TRUE. $end                                                     
 INPUT CARD>                                                                                
 INPUT CARD>! Specifying RSOLV                                                              
 INPUT CARD> $COSGMS COSRAD = 1.4 $end                                                      
 INPUT CARD>                                                                                
 INPUT CARD>! available memory                                                              
 INPUT CARD> $SYSTEM MWORDS=40 $END                                                         
 INPUT CARD>                                                                                
 INPUT CARD> $DATA                                                                          
 INPUT CARD>http://cactus.nci.nih.gov/chemical/structure/dibutyl%20ketone/file?format=sdf&ge
 INPUT CARD>C1                                                                              
 INPUT CARD>C      6.0     -1.3051000000   -0.7764000000   -0.0000000000                    
 INPUT CARD>C      6.0     -2.4680000000    0.2178000000    0.0000000000                    
 INPUT CARD>C      6.0     -3.7930000000   -0.5472000000    0.0000000000                    
 INPUT CARD>C      6.0     -4.9560000000    0.4470000000    0.0000000000                    
 INPUT CARD>C      6.0     -0.0000000000   -0.0229000000   -0.0000000000                    
 INPUT CARD>O      8.0      0.0000000000    1.1847000000    0.0000000000                    
 INPUT CARD>C      6.0      1.3051000000   -0.7764000000    0.0000000000                    
 INPUT CARD>C      6.0      2.4680000000    0.2178000000    0.0000000000                    
 INPUT CARD>C      6.0      3.7930000000   -0.5472000000    0.0000000000                    
 INPUT CARD>C      6.0      4.9560000000    0.4470000000    0.0000000000                    
 INPUT CARD>H      1.0     -1.3628000000   -1.4031000000    0.8900000000                    
 INPUT CARD>H      1.0     -1.3628000000   -1.4031000000   -0.8900000000                    
   40000000 WORDS OF MEMORY AVAILABLE

     BASIS OPTIONS
     -------------
     GBASIS=N311         IGAUSS=       6      POLAR=POPN311 
     NDFUNC=       1     NFFUNC=       0     DIFFSP=       F
     NPFUNC=       1      DIFFS=       F     BASNAM=        


     RUN TITLE
     ---------
 http://cactus.nci.nih.gov/chemical/structure/dibutyl%20ketone/file?format=sdf&ge

 THE POINT GROUP OF THE MOLECULE IS C1      
 THE ORDER OF THE PRINCIPAL AXIS IS     0

 ATOM      ATOMIC                      COORDINATES (BOHR)
           CHARGE         X                   Y                   Z
 C           6.0    -2.4662813866       -1.4671832569       -0.0000000000
 C           6.0    -4.6638437377        0.4115823201        0.0000000000
 C           6.0    -7.1677306714       -1.0340580605        0.0000000000
 C           6.0    -9.3654819951        0.8447075165        0.0000000000
 C           6.0    -0.0000000000       -0.0432747251       -0.0000000000
 O           8.0     0.0000000000        2.2387583777        0.0000000000
 C           6.0     2.4662813866       -1.4671832569        0.0000000000
 C           6.0     4.6638437377        0.4115823201        0.0000000000
 C           6.0     7.1677306714       -1.0340580605        0.0000000000
 C           6.0     9.3654819951        0.8447075165        0.0000000000
 H           1.0    -2.5753185761       -2.6514745334        1.6818561291
 H           1.0    -2.5753185761       -2.6514745334       -1.6818561291
 H           1.0    -4.5548065482        1.5958735966        1.6818561291
 H           1.0    -4.5548065482        1.5958735966       -1.6818561291
 H           1.0    -7.2769568335       -2.2183493370       -1.6818561291
 H           1.0    -7.2769568335       -2.2183493370        1.6818561291
 H           1.0    -9.2562558331        2.0289987930        1.6818561291
 H           1.0    -9.2562558331        2.0289987930       -1.6818561291
 H           1.0   -11.1491943550       -0.1851931468        0.0000000000
 H           1.0     2.5753185761       -2.6514745334        1.6818561291
 H           1.0     2.5753185761       -2.6514745334       -1.6818561291
 H           1.0     4.5548065482        1.5958735966       -1.6818561291
 H           1.0     4.5548065482        1.5958735966        1.6818561291
 H           1.0     7.2769568335       -2.2183493370        1.6818561291
 H           1.0     7.2769568335       -2.2183493370       -1.6818561291
 H           1.0     9.2562558331        2.0289987930       -1.6818561291
 H           1.0     9.2562558331        2.0289987930        1.6818561291
 H           1.0    11.1491943550       -0.1851931468        0.0000000000

          INTERNUCLEAR DISTANCES (ANGS.)




     $CONTRL OPTIONS
     ---------------
 SCFTYP=RHF          RUNTYP=OPTIMIZE     EXETYP=RUN     
 MPLEVL=       0     CITYP =NONE         CCTYP =NONE         VBTYP =NONE    
 DFTTYP=NONE         TDDFT =NONE    
 MULT  =       1     ICHARG=       0     NZVAR =       1     COORD =UNIQUE  
 PP    =NONE         RELWFN=NONE         LOCAL =NONE         NUMGRD=       F
 ISPHER=      -1     NOSYM =       0     MAXIT =     200     UNITS =ANGS    
 PLTORB=       F     MOLPLT=       F     AIMPAC=       F     FRIEND=        
 NPRINT=       7     IREST =       0     GEOM  =INPUT   
 NORMF =       0     NORMP =       0     ITOL  =      20     ICUT  =       9
 INTTYP=BEST         GRDTYP=BEST         QMTTOL= 1.0E-06

     $SYSTEM OPTIONS
     ---------------
  REPLICATED MEMORY=    40000000 WORDS (ON EVERY NODE).
 DISTRIBUTED MEMDDI=           0 MILLION WORDS IN AGGREGATE,
 MEMDDI DISTRIBUTED OVER   1 PROCESSORS IS           0 WORDS/PROCESSOR.
 TOTAL MEMORY REQUESTED ON EACH PROCESSOR=    40000000 WORDS.
 TIMLIM=       10000.00 MINUTES, OR       6.9 DAYS.
 PARALL= F  BALTYP=  DLB     KDIAG=    0  COREFL= F
 MXSEQ2=     300 MXSEQ3=     150  mem10=         0

     $COSGMS OPTIONS
     ---------------
     EPSI  =   INFTY     NSPA  =      92     COSRAD=    1.40
     DISEX =   10.00     OUTCHG=DBLCAV       COSBUG=       F
     COSWRT=       F     DCOSMO=       F

     SYMMETRY COORDINATES WILL NOT BE USED FOR 
     THE COSMO CALCULATION, EVEN IF SPECIFIED:
         -- SWITCHING TO C1 POINT GROUP --


     DEFINITION OF CAVITY
     ---------------------------
     ATOM         COORDINATES           RADIUS 
     1   -2.4663   -1.4672   -0.0000    2.0000
     2   -4.6638    0.4116    0.0000    2.0000
     3   -7.1677   -1.0341    0.0000    2.0000
     4   -9.3655    0.8447    0.0000    2.0000
     5   -0.0000   -0.0433   -0.0000    2.0000
     6    0.0000    2.2388    0.0000    1.7200
     7    2.4663   -1.4672    0.0000    2.0000
     8    4.6638    0.4116    0.0000    2.0000
     9    7.1677   -1.0341    0.0000    2.0000
    10    9.3655    0.8447    0.0000    2.0000
    11   -2.5753   -2.6515    1.6819    1.3000
    12   -2.5753   -2.6515   -1.6819    1.3000
    13   -4.5548    1.5959    1.6819    1.3000
    14   -4.5548    1.5959   -1.6819    1.3000
    15   -7.2770   -2.2183   -1.6819    1.3000
    16   -7.2770   -2.2183    1.6819    1.3000
    17   -9.2563    2.0290    1.6819    1.3000
    18   -9.2563    2.0290   -1.6819    1.3000
    19  -11.1492   -0.1852    0.0000    1.3000
    20    2.5753   -2.6515    1.6819    1.3000
    21    2.5753   -2.6515   -1.6819    1.3000
    22    4.5548    1.5959   -1.6819    1.3000
    23    4.5548    1.5959    1.6819    1.3000
    24    7.2770   -2.2183    1.6819    1.3000
    25    7.2770   -2.2183   -1.6819    1.3000
    26    9.2563    2.0290   -1.6819    1.3000
    27    9.2563    2.0290    1.6819    1.3000
    28   11.1492   -0.1852    0.0000    1.3000

          ----------------
          PROPERTIES INPUT
          ----------------

     MOMENTS            FIELD           POTENTIAL          DENSITY
 IEMOM =       1   IEFLD =       0   IEPOT =       0   IEDEN =       0
 WHERE =COMASS     WHERE =NUCLEI     WHERE =NUCLEI     WHERE =NUCLEI  
 OUTPUT=BOTH       OUTPUT=BOTH       OUTPUT=BOTH       OUTPUT=BOTH    
 IEMINT=       0   IEFINT=       0                     IEDINT=       0
                                                       MORB  =       0
          EXTRAPOLATION IN EFFECT
          SOSCF IN EFFECT
 ORBITAL PRINTING OPTION: NPREO=     1   298     2     1

     -------------------------------
     INTEGRAL TRANSFORMATION OPTIONS
     -------------------------------
     NWORD  =            0
     CUTOFF = 1.0E-09     MPTRAN =       0
     DIRTRF =       T     AOINTS =DUP     

          ----------------------
          INTEGRAL INPUT OPTIONS
          ----------------------
 NOPK  =       1 NORDER=       0 SCHWRZ=       T


 -----------------------------------------------
  STATISTICS ON AUTOMATIC COORDINATE GENERATION 
 -----------------------------------------------
  NUMBER OF USER SPECIFIED BONDS                             0
  NUMBER OF BONDS                                           27
  NUMBER OF ANGLES                                          51
  NUMBER OF TORSIONS                                        66
  NUMBER OF EXTRA COORD.                                     0
  NUMBER OF EXTRA COORD. FOR CONSTRAINTS                     0
  NUMBER OF CONSTRAINED COORD.                               0

  TOTAL NUMBER OF PRIMITIVES                               144
 -----------------------------------------------

   --- ENCODED Z MATRIX ---
 COORD  TYPE   I   J   K   L   M   N
    1      1    1   5
    2      1    1  12
    3      1    1  11
    4      1    1   2
    5      1    2  13
    6      1    2   3
    7      1    2  14
    8      1    3  15
    9      1    3   4
   10      1    3  16
   11      1    4  19
   12      1    4  18
   13      1    4  17
   14      1    5   7
   15      1    5   6
   16      1    7   8
   17      1    7  21
   18      1    7  20
   19      1    8  23
   20      1    8  22
   21      1    8   9
   22      1    9  25
   23      1    9  24
   24      1    9  10
   25      1   10  28
   26      1   10  27
   27      1   10  26
   28      2    1   2  14
   29      2    1   5   7
   30      2    1   5   6
   31      2    1   2   3
   32      2    1   2  13
   33      2    2   1   5
   34      2    2   3  16
   35      2    2   1  11
   36      2    2   3   4
   37      2    2   1  12
   38      2    2   3  15
   39      2    3   4  17
   40      2    3   4  18
   41      2    3   4  19
   42      2    3   2  13
   43      2    3   2  14
   44      2    4   3  16
   45      2    4   3  15
   46      2    5   7  20
   47      2    5   7  21
   48      2    5   7   8
   49      2    5   1  11
   50      2    5   1  12
   51      2    6   5   7
   52      2    7   8  22
   53      2    7   8  23
   54      2    7   8   9
   55      2    8   7  21
   56      2    8   9  10
   57      2    8   9  24
   58      2    8   9  25
   59      2    8   7  20
   60      2    9  10  26
   61      2    9  10  28
   62      2    9   8  22
   63      2    9   8  23
   64      2    9  10  27
   65      2   10   9  24
   66      2   10   9  25
   67      2   11   1  12
   68      2   13   2  14
   69      2   15   3  16
   70      2   17   4  18
   71      2   17   4  19
   72      2   18   4  19
   73      2   20   7  21
   74      2   22   8  23
   75      2   24   9  25
   76      2   26  10  27
   77      2   26  10  28
   78      2   27  10  28
   79      3    1   5   7   8
   80      3    1   2   3  16
   81      3    1   5   7  20
   82      3    1   2   3   4
   83      3    1   2   3  15
   84      3    1   5   7  21
   85      3    2   1   5   7
   86      3    2   1   5   6
   87      3    2   3   4  17
   88      3    2   3   4  18
   89      3    2   3   4  19
   90      3    3   2   1  11
   91      3    3   2   1  12
   92      3    3   2   1   5
   93      3    4   3   2  14
   94      3    4   3   2  13
   95      3    5   1   2  14
   96      3    5   1   2  13
   97      3    5   7   8   9
   98      3    5   7   8  22
   99      3    5   7   8  23
  100      3    6   5   1  11
  101      3    6   5   1  12
  102      3    6   5   7   8
  103      3    6   5   7  21
  104      3    6   5   7  20
  105      3    7   8   9  10
  106      3    7   8   9  24
  107      3    7   8   9  25
  108      3    7   5   1  11
  109      3    7   5   1  12
  110      3    8   9  10  26
  111      3    8   9  10  27
  112      3    8   9  10  28
  113      3    9   8   7  20
  114      3    9   8   7  21
  115      3   10   9   8  22
  116      3   10   9   8  23
  117      3   11   1   2  14
  118      3   11   1   2  13
  119      3   12   1   2  14
  120      3   12   1   2  13
  121      3   13   2   3  16
  122      3   13   2   3  15
  123      3   14   2   3  16
  124      3   14   2   3  15
  125      3   15   3   4  19
  126      3   15   3   4  18
  127      3   15   3   4  17
  128      3   16   3   4  19
  129      3   16   3   4  18
  130      3   16   3   4  17
  131      3   20   7   8  23
  132      3   20   7   8  22
  133      3   21   7   8  23
  134      3   21   7   8  22
  135      3   22   8   9  25
  136      3   22   8   9  24
  137      3   23   8   9  25
  138      3   23   8   9  24
  139      3   24   9  10  27
  140      3   24   9  10  28
  141      3   24   9  10  26
  142      3   25   9  10  27
  143      3   25   9  10  28
  144      3   25   9  10  26

          INDEP./SYM. INTERNAL COORDINATES
          --------------------------------
 CRD  1=  -0.3792 ( 29)  0.1896 ( 30) -0.2767 ( 31)  0.4065 ( 33) -0.1098 ( 35)
           0.1694 ( 36) -0.1098 ( 37) -0.1232 ( 46) -0.1232 ( 47)  0.4065 ( 48)
          -0.1232 ( 49) -0.1232 ( 50)  0.1896 ( 51) -0.2767 ( 54) -0.1098 ( 55)
           0.1694 ( 56) -0.1098 ( 59)
 CRD  2=  -0.1162 ( 35)  0.1162 ( 37)  0.1162 ( 55) -0.1162 ( 59)  0.3456 ( 79)
           0.1431 ( 81) -0.1766 ( 82)  0.1431 ( 84) -0.3456 ( 85) -0.1485 ( 86)
           0.1014 ( 90)  0.1014 ( 91)  0.2931 ( 92)  0.1599 ( 95)  0.1599 ( 96)
          -0.2931 ( 97) -0.1599 ( 98) -0.1599 ( 99)  0.1485 (102)  0.1766 (105)
          -0.1431 (108) -0.1431 (109) -0.1014 (113) -0.1014 (114)
 CRD  3=   0.1146 ( 28) -0.3823 ( 31)  0.1146 ( 32)  0.2908 ( 33) -0.1070 ( 34)
           0.3222 ( 36) -0.1070 ( 38)  0.1135 ( 42)  0.1135 ( 43) -0.2908 ( 48)
          -0.1146 ( 52) -0.1146 ( 53)  0.3823 ( 54) -0.3222 ( 56)  0.1070 ( 57)
           0.1070 ( 58) -0.1135 ( 62) -0.1135 ( 63)
 CRD  4=  -0.3429 (  1) -0.2919 (  4) -0.2235 (  6) -0.1485 (  9) -0.3429 ( 14)
          -0.2919 ( 16) -0.2235 ( 21) -0.1485 ( 24) -0.2313 ( 29)  0.1157 ( 30)
          -0.2449 ( 31) -0.1868 ( 33) -0.1496 ( 36) -0.1868 ( 48)  0.1157 ( 51)
          -0.2449 ( 54) -0.1496 ( 56)
 CRD  5=   0.1325 ( 28) -0.1325 ( 32) -0.1644 ( 35)  0.1644 ( 37) -0.1199 ( 46)
           0.1199 ( 47)  0.1199 ( 49) -0.1199 ( 50) -0.1325 ( 52)  0.1325 ( 53)
          -0.1644 ( 55)  0.1644 ( 59) -0.2498 ( 79) -0.1365 ( 80) -0.1219 ( 81)
          -0.1943 ( 82) -0.1365 ( 83) -0.1219 ( 84) -0.2498 ( 85) -0.2498 ( 86)
          -0.1126 ( 92) -0.1126 ( 97) -0.1219 (100) -0.1219 (101) -0.2498 (102)
          -0.1219 (103) -0.1219 (104) -0.1943 (105) -0.1365 (106) -0.1365 (107)
          -0.1219 (108) -0.1219 (109)
 CRD  6=  -0.2707 ( 29)  0.1353 ( 30)  0.2268 ( 31)  0.2050 ( 33)  0.1434 ( 34)
          -0.4238 ( 36)  0.1434 ( 38)  0.1053 ( 41)  0.1126 ( 44)  0.1126 ( 45)
           0.2050 ( 48)  0.1353 ( 51)  0.2268 ( 54) -0.4238 ( 56)  0.1434 ( 57)
           0.1434 ( 58)  0.1053 ( 61)  0.1126 ( 65)  0.1126 ( 66)
 CRD  7=   0.1943 (  4)  0.2225 (  6)  0.2261 (  9) -0.1943 ( 16) -0.2225 ( 21)
          -0.2261 ( 24) -0.1118 ( 28)  0.2847 ( 31) -0.1118 ( 32)  0.3495 ( 36)
          -0.1219 ( 44) -0.1219 ( 45)  0.1118 ( 52)  0.1118 ( 53) -0.2847 ( 54)
          -0.3495 ( 56)  0.1219 ( 65)  0.1219 ( 66)
 CRD  8=  -0.1667 (  4) -0.1428 (  6)  0.1667 ( 16)  0.1428 ( 21) -0.2149 ( 30)
          -0.1640 ( 31) -0.4297 ( 33)  0.1958 ( 36) -0.1630 ( 46) -0.1630 ( 47)
           0.4297 ( 48)  0.1630 ( 49)  0.1630 ( 50)  0.2149 ( 51)  0.1640 ( 54)
          -0.1958 ( 56)
 CRD  9=  -0.1342 ( 39)  0.1342 ( 40) -0.1046 ( 42)  0.1046 ( 43)  0.1160 ( 46)
          -0.1160 ( 47) -0.1160 ( 49)  0.1160 ( 50) -0.1342 ( 60) -0.1046 ( 62)
           0.1046 ( 63)  0.1342 ( 64) -0.1125 ( 80) -0.2387 ( 82) -0.1125 ( 83)
           0.1129 ( 87)  0.1129 ( 88)  0.1695 ( 89)  0.1621 ( 90)  0.1621 ( 91)
           0.3101 ( 92) -0.1059 ( 93) -0.1059 ( 94)  0.1475 ( 95)  0.1475 ( 96)
           0.3101 ( 97)  0.1475 ( 98)  0.1475 ( 99) -0.2387 (105) -0.1125 (106)
          -0.1125 (107)  0.1129 (110)  0.1129 (111)  0.1695 (112)  0.1621 (113)
           0.1621 (114) -0.1059 (115) -0.1059 (116)
 CRD 10=   0.2528 (  1) -0.1201 (  6) -0.1658 (  9)  0.2528 ( 14) -0.1201 ( 21)
          -0.1658 ( 24)  0.1204 ( 28)  0.4267 ( 29) -0.2134 ( 30) -0.2678 ( 31)
           0.1204 ( 32) -0.1150 ( 35) -0.1834 ( 36) -0.1150 ( 37) -0.2134 ( 51)
           0.1204 ( 52)  0.1204 ( 53) -0.2678 ( 54) -0.1150 ( 55) -0.1834 ( 56)
          -0.1150 ( 59)
 CRD 11=   0.1443 ( 28) -0.1443 ( 32)  0.1202 ( 34) -0.1202 ( 38) -0.1857 ( 39)
           0.1857 ( 40)  0.1381 ( 42) -0.1381 ( 43) -0.1445 ( 44)  0.1445 ( 45)
           0.1443 ( 52) -0.1443 ( 53)  0.1202 ( 57) -0.1202 ( 58)  0.1857 ( 60)
          -0.1381 ( 62)  0.1381 ( 63) -0.1857 ( 64) -0.1445 ( 65)  0.1445 ( 66)
          -0.1289 ( 80) -0.2322 ( 82) -0.1289 ( 83) -0.1114 ( 90) -0.1114 ( 91)
          -0.1562 ( 92) -0.1401 ( 93) -0.1401 ( 94)  0.1562 ( 97)  0.2322 (105)
           0.1289 (106)  0.1289 (107)  0.1114 (113)  0.1114 (114)  0.1401 (115)
           0.1401 (116)
 CRD 12=  -0.1148 ( 34)  0.1119 ( 35) -0.1119 ( 37)  0.1148 ( 38) -0.3084 ( 39)
           0.3084 ( 40) -0.1078 ( 42)  0.1078 ( 43) -0.1119 ( 55) -0.1148 ( 57)
           0.1148 ( 58)  0.1119 ( 59)  0.3084 ( 60)  0.1078 ( 62) -0.1078 ( 63)
          -0.3084 ( 64)  0.1021 ( 71) -0.1021 ( 72) -0.1021 ( 77)  0.1021 ( 78)
          -0.1847 ( 79)  0.1847 ( 85)  0.1428 ( 86)  0.1313 ( 87)  0.1313 ( 88)
           0.1951 ( 89)  0.1040 ( 90)  0.1040 ( 91) -0.1428 (102) -0.1313 (110)
          -0.1313 (111) -0.1951 (112) -0.1040 (113) -0.1040 (114)
 CRD 13=   0.1419 ( 34)  0.1108 ( 35) -0.1108 ( 37) -0.1419 ( 38) -0.2647 ( 39)
           0.2647 ( 40) -0.1527 ( 44)  0.1527 ( 45)  0.1108 ( 55) -0.1419 ( 57)
           0.1419 ( 58) -0.1108 ( 59) -0.2647 ( 60)  0.2647 ( 64)  0.1527 ( 65)
          -0.1527 ( 66)  0.1760 ( 79)  0.1760 ( 85)  0.1760 ( 86) -0.1084 ( 87)
          -0.1084 ( 88) -0.1076 ( 90) -0.1076 ( 91) -0.1215 ( 93) -0.1215 ( 94)
           0.1760 (102) -0.1084 (110) -0.1084 (111) -0.1076 (113) -0.1076 (114)
          -0.1215 (115) -0.1215 (116)
 CRD 14=   0.3000 (  1) -0.2776 (  4)  0.1881 (  6) -0.1858 (  9) -0.3000 ( 14)
           0.2776 ( 16) -0.1881 ( 21)  0.1858 ( 24)  0.3414 ( 30) -0.3414 ( 51)
 CRD 15=  -0.4313 (  9) -0.4313 ( 24)  0.1189 ( 31) -0.3607 ( 41) -0.1238 ( 44)
          -0.1238 ( 45)  0.1189 ( 54) -0.3607 ( 61) -0.1238 ( 65) -0.1238 ( 66)
           0.1709 ( 71)  0.1709 ( 72)  0.1709 ( 77)  0.1709 ( 78)
 CRD 16=  -0.1602 (  4)  0.3775 (  9)  0.1602 ( 16) -0.3775 ( 24) -0.1159 ( 31)
           0.3778 ( 41)  0.1159 ( 54) -0.3778 ( 61) -0.1632 ( 71) -0.1632 ( 72)
           0.1632 ( 77)  0.1632 ( 78)
 CRD 17=   0.2208 (  4) -0.4084 (  6)  0.2208 ( 16) -0.4084 ( 21)  0.1636 ( 39)
           0.1636 ( 40) -0.2324 ( 41) -0.1102 ( 42) -0.1102 ( 43)  0.1636 ( 60)
          -0.2324 ( 61) -0.1102 ( 62) -0.1102 ( 63)  0.1636 ( 64) -0.1426 ( 70)
          -0.1426 ( 76)
 CRD 18=   0.1883 (  1) -0.3500 (  6)  0.1794 (  9) -0.1883 ( 14)  0.3500 ( 21)
          -0.1794 ( 24)  0.2478 ( 30)  0.1941 ( 39)  0.1941 ( 40) -0.2155 ( 41)
          -0.2478 ( 51) -0.1941 ( 60)  0.2155 ( 61) -0.1941 ( 64) -0.1724 ( 70)
           0.1724 ( 76)
 CRD 19=   0.1034 ( 12) -0.1034 ( 13)  0.1034 ( 26) -0.1034 ( 27) -0.1046 ( 28)
           0.1046 ( 32) -0.1398 ( 34)  0.1398 ( 38) -0.2921 ( 39)  0.2921 ( 40)
          -0.1190 ( 46)  0.1190 ( 47)  0.1190 ( 49) -0.1190 ( 50)  0.1046 ( 52)
          -0.1046 ( 53)  0.1398 ( 57) -0.1398 ( 58) -0.2921 ( 60)  0.2921 ( 64)
           0.1266 ( 71) -0.1266 ( 72)  0.1266 ( 77) -0.1266 ( 78)  0.1136 ( 82)
           0.1156 ( 87)  0.1156 ( 88)  0.1394 ( 89) -0.1276 ( 95) -0.1276 ( 96)
          -0.1276 ( 98) -0.1276 ( 99)  0.1136 (105)  0.1156 (110)  0.1156 (111)
           0.1394 (112)
 CRD 20=   0.1672 (  1) -0.4040 (  4)  0.1430 (  9)  0.1672 ( 14)  0.1529 ( 15)
          -0.4040 ( 16)  0.1430 ( 24) -0.1201 ( 35) -0.1201 ( 37)  0.1715 ( 39)
           0.1715 ( 40) -0.1972 ( 41) -0.1201 ( 55) -0.1201 ( 59)  0.1715 ( 60)
          -0.1972 ( 61)  0.1715 ( 64) -0.1494 ( 70) -0.1494 ( 76)
 CRD 21=  -0.1081 ( 28)  0.1081 ( 32)  0.2176 ( 34)  0.1763 ( 35) -0.1763 ( 37)
          -0.2176 ( 38) -0.1767 ( 44)  0.1767 ( 45) -0.1690 ( 46)  0.1690 ( 47)
          -0.1690 ( 49)  0.1690 ( 50) -0.1081 ( 52)  0.1081 ( 53) -0.1763 ( 55)
           0.2176 ( 57) -0.2176 ( 58)  0.1763 ( 59) -0.1767 ( 65)  0.1767 ( 66)
           0.1181 ( 80)  0.1181 ( 83)  0.1136 ( 86) -0.1670 ( 87) -0.1670 ( 88)
          -0.1478 ( 89)  0.1093 ( 95)  0.1093 ( 96) -0.1093 ( 98) -0.1093 ( 99)
          -0.1136 (102) -0.1181 (106) -0.1181 (107)  0.1670 (110)  0.1670 (111)
           0.1478 (112)
 CRD 22=   0.1942 (  1)  0.1220 (  2)  0.1220 (  3)  0.3128 (  4) -0.1483 (  6)
          -0.1049 (  9) -0.1942 ( 14) -0.3128 ( 16) -0.1220 ( 17) -0.1220 ( 18)
           0.1483 ( 21)  0.1049 ( 24)  0.2188 ( 30) -0.1299 ( 33) -0.1592 ( 39)
          -0.1592 ( 40)  0.2064 ( 41)  0.1299 ( 48) -0.2188 ( 51)  0.1592 ( 60)
          -0.2064 ( 61)  0.1592 ( 64) -0.1122 ( 67)  0.1386 ( 70)  0.1122 ( 73)
          -0.1386 ( 76)
 CRD 23=   0.2210 ( 28) -0.2210 ( 32) -0.1696 ( 34)  0.1696 ( 38)  0.2099 ( 42)
          -0.2099 ( 43)  0.1800 ( 44) -0.1800 ( 45) -0.2210 ( 52)  0.2210 ( 53)
           0.1696 ( 57) -0.1696 ( 58)  0.2099 ( 62) -0.2099 ( 63) -0.1800 ( 65)
           0.1800 ( 66) -0.1444 ( 80) -0.1444 ( 83)  0.1045 ( 87)  0.1045 ( 88)
          -0.1284 ( 90) -0.1284 ( 91)  0.1143 ( 93)  0.1143 ( 94) -0.1444 (106)
          -0.1444 (107)  0.1045 (110)  0.1045 (111) -0.1284 (113) -0.1284 (114)
           0.1143 (115)  0.1143 (116)
 CRD 24=   0.1922 ( 28) -0.1922 ( 32)  0.1866 ( 35) -0.1866 ( 37)  0.2054 ( 42)
          -0.2054 ( 43)  0.1101 ( 44) -0.1101 ( 45) -0.2011 ( 46)  0.2011 ( 47)
          -0.2011 ( 49)  0.2011 ( 50)  0.1922 ( 52) -0.1922 ( 53) -0.1866 ( 55)
           0.1866 ( 59) -0.2054 ( 62)  0.2054 ( 63)  0.1101 ( 65) -0.1101 ( 66)
          -0.1107 ( 80) -0.1107 ( 83)  0.1204 ( 86) -0.1390 ( 90) -0.1390 ( 91)
           0.1269 ( 95)  0.1269 ( 96) -0.1269 ( 98) -0.1269 ( 99) -0.1204 (102)
           0.1107 (106)  0.1107 (107)  0.1390 (113)  0.1390 (114)
 CRD 25=  -0.1727 (  1)  0.1177 (  4)  0.1159 (  5)  0.3066 (  6)  0.1159 (  7)
           0.1319 (  8)  0.1319 ( 10) -0.1727 ( 14) -0.2068 ( 15)  0.1177 ( 16)
           0.1159 ( 19)  0.1159 ( 20)  0.3066 ( 21)  0.1319 ( 22)  0.1319 ( 23)
          -0.1324 ( 31)  0.1196 ( 34) -0.1870 ( 36)  0.1196 ( 38)  0.1497 ( 39)
           0.1497 ( 40) -0.2089 ( 41) -0.1324 ( 54) -0.1870 ( 56)  0.1196 ( 57)
           0.1196 ( 58)  0.1497 ( 60) -0.2089 ( 61)  0.1497 ( 64) -0.1103 ( 69)
          -0.1369 ( 70) -0.1103 ( 75) -0.1369 ( 76)
 CRD 26=  -0.1543 (  5)  0.1543 (  7)  0.1300 (  8) -0.1300 ( 10) -0.1331 ( 12)
           0.1331 ( 13) -0.1543 ( 19)  0.1543 ( 20)  0.1300 ( 22) -0.1300 ( 23)
           0.1331 ( 26) -0.1331 ( 27)  0.2438 ( 39) -0.2438 ( 40) -0.2438 ( 60)
           0.2438 ( 64) -0.1301 ( 71)  0.1301 ( 72)  0.1301 ( 77) -0.1301 ( 78)
          -0.1660 ( 79) -0.1994 ( 82)  0.1660 ( 85)  0.1228 ( 86) -0.1333 ( 93)
          -0.1333 ( 94) -0.1228 (102)  0.1994 (105)  0.1333 (115)  0.1333 (116)
 CRD 27=  -0.2191 (  4) -0.1453 (  5) -0.2704 (  6) -0.1453 (  7) -0.1222 (  8)
          -0.1222 ( 10)  0.2191 ( 16)  0.1453 ( 19)  0.1453 ( 20)  0.2704 ( 21)
           0.1222 ( 22)  0.1222 ( 23)  0.1912 ( 31)  0.1279 ( 33) -0.1070 ( 34)
           0.1799 ( 36) -0.1070 ( 38) -0.1202 ( 39) -0.1202 ( 40)  0.1683 ( 41)
          -0.1279 ( 48) -0.1912 ( 54) -0.1799 ( 56)  0.1070 ( 57)  0.1070 ( 58)
           0.1202 ( 60) -0.1683 ( 61)  0.1202 ( 64)  0.1169 ( 68)  0.1026 ( 69)
           0.1123 ( 70) -0.1169 ( 74) -0.1026 ( 75) -0.1123 ( 76)
 CRD 28=   0.3020 (  1)  0.1533 (  2)  0.1533 (  3)  0.1217 (  4)  0.3020 ( 14)
           0.5243 ( 15)  0.1217 ( 16)  0.1533 ( 17)  0.1533 ( 18) -0.2752 ( 29)
           0.1376 ( 30) -0.1126 ( 31) -0.2133 ( 33) -0.2133 ( 48)  0.1376 ( 51)
          -0.1126 ( 54) -0.1279 ( 67) -0.1279 ( 73)
 CRD 29=   0.1808 (  2) -0.1808 (  3) -0.1153 (  8)  0.1153 ( 10) -0.1808 ( 17)
           0.1808 ( 18)  0.1153 ( 22) -0.1153 ( 23)  0.1614 ( 35) -0.1614 ( 37)
           0.1851 ( 46) -0.1851 ( 47) -0.1851 ( 49)  0.1851 ( 50)  0.1614 ( 55)
          -0.1614 ( 59) -0.1034 ( 79) -0.1877 ( 81)  0.1081 ( 82) -0.1877 ( 84)
          -0.1034 ( 85) -0.1034 ( 86)  0.1219 ( 95)  0.1219 ( 96)  0.1219 ( 98)
           0.1219 ( 99) -0.1877 (100) -0.1877 (101) -0.1034 (102) -0.1877 (103)
          -0.1877 (104)  0.1081 (105) -0.1877 (108) -0.1877 (109)
 CRD 30=   0.1363 (  2) -0.1363 (  3) -0.2076 (  8)  0.2076 ( 10) -0.1363 ( 17)
           0.1363 ( 18)  0.2076 ( 22) -0.2076 ( 23) -0.2048 ( 35)  0.2048 ( 37)
          -0.2048 ( 55)  0.2048 ( 59)  0.1651 ( 81)  0.1651 ( 84) -0.1093 ( 89)
           0.1238 ( 93)  0.1238 ( 94)  0.1651 (100)  0.1651 (101)  0.1651 (103)
           0.1651 (104)  0.1651 (108)  0.1651 (109) -0.1093 (112)  0.1238 (115)
           0.1238 (116)
 CRD 31=  -0.2848 (  5)  0.2848 (  7) -0.2817 (  8)  0.2817 ( 10) -0.2848 ( 19)
           0.2848 ( 20) -0.2817 ( 22)  0.2817 ( 23) -0.1056 ( 89)  0.1039 ( 90)
           0.1039 ( 91)  0.1048 ( 93)  0.1048 ( 94)  0.1056 (112) -0.1039 (113)
          -0.1039 (114) -0.1048 (115) -0.1048 (116)
 CRD 32=   0.1285 (  9)  0.3467 ( 11)  0.3609 ( 12)  0.3609 ( 13) -0.1285 ( 24)
          -0.3467 ( 25) -0.3609 ( 26) -0.3609 ( 27) -0.1210 ( 39) -0.1210 ( 40)
          -0.1321 ( 41)  0.1210 ( 60)  0.1321 ( 61)  0.1210 ( 64)  0.1190 ( 70)
           0.1275 ( 71)  0.1275 ( 72) -0.1190 ( 76) -0.1275 ( 77) -0.1275 ( 78)
 CRD 33=   0.1285 (  9)  0.3467 ( 11)  0.3609 ( 12)  0.3609 ( 13)  0.1285 ( 24)
           0.3467 ( 25)  0.3609 ( 26)  0.3609 ( 27) -0.1210 ( 39) -0.1210 ( 40)
          -0.1321 ( 41) -0.1210 ( 60) -0.1321 ( 61) -0.1210 ( 64)  0.1190 ( 70)
           0.1275 ( 71)  0.1275 ( 72)  0.1190 ( 76)  0.1275 ( 77)  0.1275 ( 78)
 CRD 34=  -0.2158 (  2)  0.2158 (  3) -0.2982 (  5)  0.2982 (  7) -0.2220 (  8)
           0.2220 ( 10)  0.2158 ( 17) -0.2158 ( 18)  0.2982 ( 19) -0.2982 ( 20)
           0.2220 ( 22) -0.2220 ( 23)
 CRD 35=   0.2274 (  2) -0.2274 (  3)  0.2274 ( 17) -0.2274 ( 18)  0.1087 ( 42)
          -0.1087 ( 43) -0.1087 ( 62)  0.1087 ( 63) -0.1665 ( 81) -0.1665 ( 84)
           0.1334 ( 95)  0.1334 ( 96) -0.1334 ( 98) -0.1334 ( 99)  0.1672 (100)
           0.1672 (101) -0.1672 (103) -0.1672 (104)  0.1665 (108)  0.1665 (109)
           0.1147 (117)  0.1147 (118)  0.1147 (119)  0.1147 (120)  0.1121 (121)
           0.1121 (122)  0.1121 (123)  0.1121 (124) -0.1147 (131) -0.1147 (132)
          -0.1147 (133) -0.1147 (134) -0.1121 (135) -0.1121 (136) -0.1121 (137)
          -0.1121 (138)
 CRD 36=  -0.4310 (  2) -0.4310 (  3)  0.4310 ( 17)  0.4310 ( 18) -0.1868 ( 67)
           0.1868 ( 73)
 CRD 37=  -0.4329 (  2) -0.4329 (  3) -0.4329 ( 17) -0.4329 ( 18) -0.1866 ( 67)
          -0.1866 ( 73)
 CRD 38=  -0.1827 (  8) -0.1827 ( 10)  0.4263 ( 11) -0.1900 ( 12) -0.1900 ( 13)
           0.1827 ( 22)  0.1827 ( 23) -0.4263 ( 25)  0.1900 ( 26)  0.1900 ( 27)
          -0.2250 ( 70)  0.1062 ( 71)  0.1062 ( 72)  0.2250 ( 76) -0.1062 ( 77)
          -0.1062 ( 78)  0.1131 ( 87) -0.1131 ( 88) -0.1131 (110)  0.1131 (111)
          -0.1340 (126)  0.1340 (130)  0.1340 (139) -0.1340 (144)
 CRD 39=  -0.1827 (  8) -0.1827 ( 10)  0.4262 ( 11) -0.1899 ( 12) -0.1899 ( 13)
          -0.1827 ( 22) -0.1827 ( 23)  0.4262 ( 25) -0.1899 ( 26) -0.1899 ( 27)
          -0.2249 ( 70)  0.1062 ( 71)  0.1062 ( 72) -0.2249 ( 76)  0.1062 ( 77)
           0.1062 ( 78)  0.1131 ( 87) -0.1131 ( 88)  0.1131 (110) -0.1131 (111)
          -0.1340 (126)  0.1340 (130) -0.1340 (139)  0.1340 (144)
 CRD 40=   0.3861 ( 12) -0.3861 ( 13)  0.3861 ( 26) -0.3861 ( 27) -0.2091 ( 71)
           0.2091 ( 72) -0.2091 ( 77)  0.2091 ( 78)  0.1642 ( 89)  0.1642 (112)
           0.1627 (125)  0.1627 (128)  0.1627 (140)  0.1627 (143)
 CRD 41=   0.3875 ( 12) -0.3875 ( 13) -0.3875 ( 26)  0.3875 ( 27) -0.2101 ( 71)
           0.2101 ( 72)  0.2101 ( 77) -0.2101 ( 78)  0.1614 ( 89) -0.1614 (112)
           0.1578 (125)  0.1578 (128) -0.1578 (140) -0.1578 (143)
 CRD 42=  -0.3334 (  5) -0.3334 (  7)  0.2592 (  8)  0.2592 ( 10)  0.1396 ( 11)
          -0.1008 ( 12) -0.1008 ( 13) -0.3334 ( 19) -0.3334 ( 20)  0.2592 ( 22)
           0.2592 ( 23)  0.1396 ( 25) -0.1008 ( 26) -0.1008 ( 27) -0.1183 ( 68)
          -0.1183 ( 74)
 CRD 43=  -0.3332 (  5) -0.3332 (  7)  0.2593 (  8)  0.2593 ( 10)  0.1397 ( 11)
          -0.1009 ( 12) -0.1009 ( 13)  0.3332 ( 19)  0.3332 ( 20) -0.2593 ( 22)
          -0.2593 ( 23) -0.1397 ( 25)  0.1009 ( 26)  0.1009 ( 27) -0.1183 ( 68)
           0.1183 ( 74)
 CRD 44=   0.1266 (  2) -0.1266 (  3) -0.1266 ( 17)  0.1266 ( 18) -0.1076 ( 28)
           0.1076 ( 32)  0.1192 ( 44) -0.1192 ( 45)  0.1076 ( 52) -0.1076 ( 53)
          -0.1192 ( 65)  0.1192 ( 66) -0.1026 ( 80) -0.1026 ( 83) -0.1009 ( 93)
          -0.1009 ( 94) -0.1026 (106) -0.1026 (107) -0.1009 (115) -0.1009 (116)
          -0.1085 (117) -0.1085 (118) -0.1085 (119) -0.1085 (120) -0.1869 (121)
          -0.1869 (122) -0.1869 (123) -0.1869 (124) -0.1283 (126) -0.1283 (127)
          -0.1283 (129) -0.1283 (130) -0.1085 (131) -0.1085 (132) -0.1085 (133)
          -0.1085 (134) -0.1869 (135) -0.1869 (136) -0.1869 (137) -0.1869 (138)
          -0.1283 (139) -0.1283 (141) -0.1283 (142) -0.1283 (144)
 CRD 45=  -0.2777 (  5) -0.2777 (  7) -0.3037 (  8) -0.3037 ( 10) -0.1003 ( 11)
           0.2777 ( 19)  0.2777 ( 20)  0.3037 ( 22)  0.3037 ( 23)  0.1003 ( 25)
          -0.1231 ( 68) -0.1301 ( 69)  0.1231 ( 74)  0.1301 ( 75)
 CRD 46=  -0.2779 (  5) -0.2779 (  7) -0.3039 (  8) -0.3039 ( 10) -0.1002 ( 11)
          -0.2779 ( 19) -0.2779 ( 20) -0.3039 ( 22) -0.3039 ( 23) -0.1002 ( 25)
          -0.1231 ( 68) -0.1302 ( 69) -0.1231 ( 74) -0.1302 ( 75)
 CRD 47=   0.2906 (  2) -0.2906 (  3)  0.2906 ( 17) -0.2906 ( 18) -0.1123 ( 81)
          -0.1123 ( 84)  0.1009 (100)  0.1009 (101) -0.1009 (103) -0.1009 (104)
           0.1123 (108)  0.1123 (109) -0.1431 (121) -0.1431 (122) -0.1431 (123)
          -0.1431 (124) -0.1044 (126) -0.1044 (127) -0.1044 (129) -0.1044 (130)
           0.1431 (135)  0.1431 (136)  0.1431 (137)  0.1431 (138)  0.1044 (139)
           0.1044 (141)  0.1044 (142)  0.1044 (144)
 CRD 48=   0.1774 (  2) -0.1774 (  3) -0.2110 (  5)  0.2110 (  7)  0.1774 ( 17)
          -0.1774 ( 18) -0.2110 ( 19)  0.2110 ( 20) -0.1079 ( 90) -0.1079 ( 91)
          -0.1130 ( 95) -0.1130 ( 96)  0.1130 ( 98)  0.1130 ( 99)  0.1079 (113)
           0.1079 (114) -0.1820 (117) -0.1820 (118) -0.1820 (119) -0.1820 (120)
           0.1058 (125)  0.1172 (126)  0.1172 (127)  0.1058 (128)  0.1172 (129)
           0.1172 (130)  0.1820 (131)  0.1820 (132)  0.1820 (133)  0.1820 (134)
          -0.1172 (139) -0.1058 (140) -0.1172 (141) -0.1172 (142) -0.1058 (143)
          -0.1172 (144)
 CRD 49=  -0.1955 (  2)  0.1955 (  3)  0.2225 (  5) -0.2225 (  7)  0.1955 ( 17)
          -0.1955 ( 18) -0.2225 ( 19)  0.2225 ( 20)  0.1212 ( 90)  0.1212 ( 91)
           0.1223 ( 95)  0.1223 ( 96)  0.1223 ( 98)  0.1223 ( 99)  0.1212 (113)
           0.1212 (114)  0.1911 (117)  0.1911 (118)  0.1911 (119)  0.1911 (120)
           0.1911 (131)  0.1911 (132)  0.1911 (133)  0.1911 (134)
 CRD 50=   0.1559 (  5) -0.1559 (  7) -0.2599 (  8)  0.2599 ( 10) -0.1559 ( 19)
           0.1559 ( 20)  0.2599 ( 22) -0.2599 ( 23)  0.1060 ( 87)  0.1060 ( 88)
           0.1157 ( 89)  0.1060 (110)  0.1060 (111)  0.1157 (112) -0.1027 (121)
          -0.1027 (122) -0.1027 (123) -0.1027 (124)  0.1847 (125)  0.1751 (126)
           0.1751 (127)  0.1847 (128)  0.1751 (129)  0.1751 (130) -0.1027 (135)
          -0.1027 (136) -0.1027 (137) -0.1027 (138)  0.1751 (139)  0.1847 (140)
           0.1751 (141)  0.1751 (142)  0.1847 (143)  0.1751 (144)
 CRD 51=   0.1697 (  5) -0.1697 (  7) -0.2635 (  8)  0.2635 ( 10)  0.1697 ( 19)
          -0.1697 ( 20) -0.2635 ( 22)  0.2635 ( 23)  0.1110 ( 89) -0.1110 (112)
          -0.1118 (121) -0.1118 (122) -0.1118 (123) -0.1118 (124)  0.1762 (125)
           0.1645 (126)  0.1645 (127)  0.1762 (128)  0.1645 (129)  0.1645 (130)
           0.1118 (135)  0.1118 (136)  0.1118 (137)  0.1118 (138) -0.1645 (139)
          -0.1762 (140) -0.1645 (141) -0.1645 (142) -0.1762 (143) -0.1645 (144)
 CRD 52=   0.3100 (  1)  0.1301 (  4) -0.3100 ( 14) -0.1301 ( 16) -0.3616 ( 30)
          -0.1627 ( 35) -0.1627 ( 37) -0.1427 ( 46) -0.1427 ( 47)  0.1427 ( 49)
           0.1427 ( 50)  0.3616 ( 51)  0.1627 ( 55)  0.1627 ( 59)  0.1076 ( 90)
          -0.1076 ( 91)  0.1076 (113) -0.1076 (114)  0.1527 (117) -0.1527 (120)
           0.1527 (132) -0.1527 (133)
 CRD 53=  -0.1660 (  1)  0.1813 ( 11)  0.1034 ( 12)  0.1034 ( 13) -0.1660 ( 14)
           0.2568 ( 15)  0.1813 ( 25)  0.1034 ( 26)  0.1034 ( 27)  0.1170 ( 28)
           0.1170 ( 32)  0.1079 ( 34)  0.1079 ( 38)  0.1195 ( 39)  0.1195 ( 40)
           0.1496 ( 41) -0.1374 ( 44) -0.1374 ( 45)  0.1170 ( 52)  0.1170 ( 53)
           0.1079 ( 57)  0.1079 ( 58)  0.1195 ( 60)  0.1496 ( 61)  0.1195 ( 64)
          -0.1374 ( 65) -0.1374 ( 66) -0.1513 ( 71) -0.1513 ( 72) -0.1513 ( 77)
          -0.1513 ( 78) -0.1638 (122)  0.1638 (123) -0.1638 (136)  0.1638 (137)
 CRD 54=   0.1199 (  1)  0.1025 (  4)  0.1308 (  9) -0.2152 ( 11) -0.1370 ( 12)
          -0.1370 ( 13) -0.1199 ( 14) -0.1025 ( 16) -0.1308 ( 24)  0.2152 ( 25)
           0.1370 ( 26)  0.1370 ( 27) -0.1130 ( 34) -0.1130 ( 38) -0.1570 ( 39)
          -0.1570 ( 40) -0.1856 ( 41)  0.1399 ( 44)  0.1399 ( 45)  0.1130 ( 57)
           0.1130 ( 58)  0.1570 ( 60)  0.1856 ( 61)  0.1570 ( 64) -0.1399 ( 65)
          -0.1399 ( 66)  0.1234 ( 70)  0.1882 ( 71)  0.1882 ( 72) -0.1234 ( 76)
          -0.1882 ( 77) -0.1882 ( 78) -0.1001 ( 80)  0.1001 ( 83) -0.1001 (106)
           0.1001 (107)  0.1452 (122) -0.1452 (123) -0.1452 (136)  0.1452 (137)
 CRD 55=   0.2288 (  1) -0.1006 (  4)  0.2288 ( 14) -0.7086 ( 15) -0.1006 ( 16)
          -0.1980 ( 29) -0.1349 ( 67) -0.1349 ( 73)
 CRD 56=   0.1119 (  6)  0.2581 (  9) -0.1280 ( 12) -0.1280 ( 13) -0.2031 ( 15)
           0.1119 ( 21)  0.2581 ( 24) -0.1280 ( 26) -0.1280 ( 27)  0.1005 ( 28)
          -0.1421 ( 29)  0.1005 ( 32) -0.1264 ( 39) -0.1264 ( 40) -0.1196 ( 41)
          -0.1248 ( 42) -0.1248 ( 43)  0.1459 ( 46)  0.1459 ( 47)  0.1459 ( 49)
           0.1459 ( 50)  0.1005 ( 52)  0.1005 ( 53) -0.1264 ( 60) -0.1196 ( 61)
          -0.1248 ( 62) -0.1248 ( 63) -0.1264 ( 64)  0.1483 ( 70)  0.1120 ( 71)
           0.1120 ( 72)  0.1483 ( 76)  0.1120 ( 77)  0.1120 ( 78)  0.1551 (117)
          -0.1551 (120) -0.1551 (132)  0.1551 (133)
 CRD 57=   0.2273 (  1)  0.1075 (  4) -0.2930 (  9)  0.1311 ( 12)  0.1311 ( 13)
          -0.2273 ( 14) -0.1075 ( 16)  0.2930 ( 24) -0.1311 ( 26) -0.1311 ( 27)
          -0.1283 ( 28) -0.1501 ( 30) -0.1283 ( 32)  0.1138 ( 39)  0.1138 ( 40)
           0.1022 ( 41)  0.1274 ( 42)  0.1274 ( 43)  0.1501 ( 51)  0.1283 ( 52)
           0.1283 ( 53) -0.1138 ( 60) -0.1022 ( 61) -0.1274 ( 62) -0.1274 ( 63)
          -0.1138 ( 64) -0.1631 ( 70)  0.1631 ( 76)
 CRD 58=  -0.2079 (  2)  0.2079 (  3)  0.1001 (  8) -0.1001 ( 10) -0.2079 ( 17)
           0.2079 ( 18)  0.1001 ( 22) -0.1001 ( 23) -0.1038 ( 35)  0.1038 ( 37)
           0.1038 ( 55) -0.1038 ( 59)  0.1613 ( 86) -0.1039 ( 89)  0.3065 (100)
           0.3065 (101) -0.1613 (102) -0.3065 (103) -0.3065 (104)  0.1039 (112)
          -0.1018 (117) -0.1018 (118) -0.1018 (119) -0.1018 (120)  0.1018 (131)
           0.1018 (132)  0.1018 (133)  0.1018 (134)
 CRD 59=   0.1513 (  2) -0.1513 (  3) -0.1896 (  5)  0.1896 (  7)  0.1580 (  8)
          -0.1580 ( 10) -0.1513 ( 17)  0.1513 ( 18)  0.1896 ( 19) -0.1896 ( 20)
          -0.1580 ( 22)  0.1580 ( 23)  0.1471 (117)  0.1471 (118)  0.1471 (119)
           0.1471 (120) -0.1573 (121) -0.1573 (122) -0.1573 (123) -0.1573 (124)
           0.1083 (126)  0.1083 (127)  0.1083 (129)  0.1083 (130)  0.1471 (131)
           0.1471 (132)  0.1471 (133)  0.1471 (134) -0.1573 (135) -0.1573 (136)
          -0.1573 (137) -0.1573 (138)  0.1083 (139)  0.1083 (141)  0.1083 (142)
           0.1083 (144)
 CRD 60=   0.1136 (  1) -0.1643 (  4) -0.1866 (  6)  0.2071 (  9)  0.1226 ( 11)
          -0.1220 ( 12) -0.1220 ( 13)  0.1136 ( 14) -0.1643 ( 16) -0.1866 ( 21)
           0.2071 ( 24)  0.1226 ( 25) -0.1220 ( 26) -0.1220 ( 27)  0.1194 ( 29)
           0.1296 ( 34)  0.1181 ( 35)  0.1181 ( 37)  0.1296 ( 38) -0.1242 ( 46)
          -0.1242 ( 47) -0.1242 ( 49) -0.1242 ( 50)  0.1181 ( 55)  0.1296 ( 57)
           0.1296 ( 58)  0.1181 ( 59)  0.1760 ( 70)  0.1760 ( 76) -0.1041 (125)
          -0.1851 (127)  0.1041 (128)  0.1851 (129) -0.1041 (140) -0.1851 (141)
           0.1851 (142)  0.1041 (143)
 CRD 61=  -0.1550 (  5)  0.1550 (  7)  0.1933 (  8) -0.1933 ( 10)  0.1368 ( 12)
          -0.1368 ( 13) -0.1550 ( 19)  0.1550 ( 20)  0.1933 ( 22) -0.1933 ( 23)
          -0.1368 ( 26)  0.1368 ( 27)  0.1067 ( 71) -0.1067 ( 72) -0.1067 ( 77)
           0.1067 ( 78)  0.1095 (117)  0.1095 (118)  0.1095 (119)  0.1095 (120)
          -0.1538 (121) -0.1538 (122) -0.1538 (123) -0.1538 (124)  0.1362 (126)
           0.1362 (127)  0.1362 (129)  0.1362 (130) -0.1095 (131) -0.1095 (132)
          -0.1095 (133) -0.1095 (134)  0.1538 (135)  0.1538 (136)  0.1538 (137)
           0.1538 (138) -0.1362 (139) -0.1362 (141) -0.1362 (142) -0.1362 (144)
 CRD 62=  -0.2130 (  1)  0.1966 (  6) -0.1065 (  9) -0.1540 ( 11)  0.1050 ( 12)
           0.1050 ( 13)  0.2130 ( 14) -0.1966 ( 21)  0.1065 ( 24)  0.1540 ( 25)
          -0.1050 ( 26) -0.1050 ( 27)  0.1585 ( 30) -0.1163 ( 34) -0.1004 ( 35)
          -0.1004 ( 37) -0.1163 ( 38) -0.1585 ( 51)  0.1004 ( 55)  0.1163 ( 57)
           0.1163 ( 58)  0.1004 ( 59)  0.1162 ( 69) -0.1577 ( 70) -0.1162 ( 75)
           0.1577 ( 76)  0.1080 ( 81) -0.1080 ( 84)  0.1080 (100) -0.1080 (101)
          -0.1080 (103)  0.1080 (104)  0.1080 (108) -0.1080 (109)  0.1872 (127)
          -0.1872 (129) -0.1872 (141)  0.1872 (142)
 CRD 63=  -0.1846 (  2)  0.1846 (  3)  0.1410 (  8) -0.1410 ( 10)  0.1915 ( 12)
          -0.1915 ( 13)  0.1846 ( 17) -0.1846 ( 18) -0.1410 ( 22)  0.1410 ( 23)
           0.1915 ( 26) -0.1915 ( 27)  0.1509 ( 71) -0.1509 ( 72)  0.1509 ( 77)
          -0.1509 ( 78) -0.2044 ( 89)  0.1391 ( 92)  0.1391 ( 97) -0.2044 (112)
           0.1187 (126)  0.1187 (127)  0.1187 (129)  0.1187 (130)  0.1187 (139)
           0.1187 (141)  0.1187 (142)  0.1187 (144)
 CRD 64=  -0.1290 (  1)  0.2021 (  4) -0.1812 (  9)  0.1714 ( 11) -0.1290 ( 14)
           0.2021 ( 16) -0.1812 ( 24)  0.1714 ( 25)  0.1581 ( 68) -0.1695 ( 69)
           0.1581 ( 74) -0.1695 ( 75)  0.1088 (117) -0.1088 (120)  0.1926 (122)
          -0.1926 (123) -0.1373 (127)  0.1373 (129) -0.1088 (132)  0.1088 (133)
           0.1926 (136) -0.1926 (137) -0.1373 (141)  0.1373 (142)
 CRD 65=   0.1527 (  1) -0.1305 (  2) -0.1305 (  3)  0.1122 (  5) -0.1915 (  6)
           0.1122 (  7)  0.1384 (  9) -0.1527 ( 14)  0.1305 ( 17)  0.1305 ( 18)
          -0.1122 ( 19) -0.1122 ( 20)  0.1915 ( 21) -0.1384 ( 24)  0.2126 ( 67)
          -0.1927 ( 68) -0.2126 ( 73)  0.1927 ( 74)  0.1041 ( 81) -0.1041 ( 84)
          -0.1028 ( 90)  0.1028 ( 91) -0.1116 ( 95)  0.1116 ( 96) -0.1116 ( 98)
           0.1116 ( 99)  0.1041 (100) -0.1041 (101) -0.1041 (103)  0.1041 (104)
           0.1041 (108) -0.1041 (109) -0.1028 (113)  0.1028 (114) -0.2144 (117)
           0.2144 (120) -0.1173 (122)  0.1173 (123) -0.2144 (132)  0.2144 (133)
           0.1173 (136) -0.1173 (137)
 CRD 66=  -0.1784 (  1)  0.2624 (  4) -0.1662 (  9)  0.1830 ( 11)  0.1784 ( 14)
          -0.2624 ( 16)  0.1662 ( 24) -0.1830 ( 25)  0.1291 ( 30) -0.1020 ( 35)
          -0.1020 ( 37) -0.1291 ( 51)  0.1020 ( 55)  0.1020 ( 59) -0.1420 ( 69)
           0.1008 ( 70)  0.1420 ( 75) -0.1008 ( 76)  0.1040 ( 81) -0.1040 ( 84)
           0.1040 (100) -0.1040 (101) -0.1040 (103)  0.1040 (104)  0.1040 (108)
          -0.1040 (109)  0.1359 (122) -0.1359 (123) -0.1304 (127)  0.1304 (129)
          -0.1359 (136)  0.1359 (137)  0.1304 (141) -0.1304 (142)
 CRD 67=  -0.1085 (  2) -0.1085 (  3)  0.1851 (  4) -0.1978 (  6)  0.1150 ( 11)
          -0.1241 ( 15)  0.1851 ( 16) -0.1085 ( 17) -0.1085 ( 18) -0.1978 ( 21)
           0.1150 ( 25) -0.1849 ( 29) -0.1062 ( 35) -0.1062 ( 37) -0.1062 ( 55)
          -0.1062 ( 59)  0.1706 ( 67) -0.1537 ( 68)  0.1706 ( 73) -0.1537 ( 74)
          -0.1352 ( 81)  0.1352 ( 84) -0.1168 ( 95)  0.1168 ( 96)  0.1168 ( 98)
          -0.1168 ( 99)  0.1352 (100) -0.1352 (101)  0.1352 (103) -0.1352 (104)
           0.1352 (108) -0.1352 (109) -0.1562 (117)  0.1562 (120)  0.1562 (132)
          -0.1562 (133)
 CRD 68=  -0.1608 (  5)  0.1608 (  7) -0.1906 ( 12)  0.1906 ( 13) -0.1608 ( 19)
           0.1608 ( 20)  0.1906 ( 26) -0.1906 ( 27) -0.1483 ( 71)  0.1483 ( 72)
           0.1483 ( 77) -0.1483 ( 78)  0.1200 ( 79)  0.1456 ( 82) -0.1200 ( 85)
           0.1868 ( 89)  0.1149 (100)  0.1149 (101) -0.1149 (103) -0.1149 (104)
          -0.1456 (105) -0.1868 (112)  0.1865 (125)  0.1865 (128) -0.1865 (140)
          -0.1865 (143)
 CRD 69=  -0.1110 (  1)  0.1838 (  4) -0.2000 (  6)  0.1943 (  9) -0.1356 ( 11)
          -0.1110 ( 14)  0.1838 ( 16) -0.2000 ( 21)  0.1943 ( 24) -0.1356 ( 25)
          -0.1140 ( 28) -0.1140 ( 32)  0.1107 ( 34)  0.1107 ( 38)  0.1052 ( 42)
           0.1052 ( 43) -0.1190 ( 44) -0.1190 ( 45) -0.1140 ( 52) -0.1140 ( 53)
           0.1107 ( 57)  0.1107 ( 58)  0.1052 ( 62)  0.1052 ( 63) -0.1190 ( 65)
          -0.1190 ( 66)  0.1056 (118) -0.1056 (119)  0.1930 (121) -0.1930 (124)
          -0.1241 (126)  0.1241 (130) -0.1056 (131)  0.1056 (134)  0.1930 (135)
          -0.1930 (138) -0.1241 (139)  0.1241 (144)
 CRD 70=  -0.1630 (  1)  0.2102 (  4) -0.1991 (  6)  0.1791 (  9) -0.1244 ( 11)
           0.1630 ( 14) -0.2102 ( 16)  0.1991 ( 21) -0.1791 ( 24)  0.1244 ( 25)
          -0.1154 ( 28) -0.1154 ( 32)  0.1061 ( 34)  0.1061 ( 38)  0.1046 ( 42)
           0.1046 ( 43) -0.1111 ( 44) -0.1111 ( 45)  0.1154 ( 52)  0.1154 ( 53)
          -0.1061 ( 57) -0.1061 ( 58) -0.1046 ( 62) -0.1046 ( 63)  0.1111 ( 65)
           0.1111 ( 66)  0.1112 (118) -0.1112 (119)  0.1834 (121) -0.1834 (124)
          -0.1183 (126)  0.1183 (130)  0.1112 (131) -0.1112 (134) -0.1834 (135)
           0.1834 (138)  0.1183 (139) -0.1183 (144)
 CRD 71=   0.1482 (  1) -0.1352 ( 11) -0.1482 ( 14)  0.1352 ( 25) -0.1034 ( 33)
           0.1120 ( 41)  0.1034 ( 48) -0.1120 ( 61)  0.1487 ( 67)  0.1032 ( 68)
          -0.1372 ( 69) -0.1140 ( 70) -0.1487 ( 73) -0.1032 ( 74)  0.1372 ( 75)
           0.1140 ( 76) -0.1102 ( 90)  0.1102 ( 91) -0.1102 (113)  0.1102 (114)
          -0.1931 (118)  0.1931 (119) -0.1007 (125) -0.1999 (126)  0.1007 (128)
           0.1999 (130) -0.1931 (131)  0.1931 (134)  0.1999 (139)  0.1007 (140)
          -0.1007 (143) -0.1999 (144)
 CRD 72=  -0.1417 (  1)  0.1274 ( 11) -0.1417 ( 14)  0.1274 ( 25)  0.1135 ( 29)
           0.1272 ( 33) -0.1008 ( 36) -0.1120 ( 41)  0.1272 ( 48) -0.1008 ( 56)
          -0.1120 ( 61) -0.1594 ( 67)  0.1471 ( 69)  0.1092 ( 70) -0.1594 ( 73)
           0.1471 ( 75)  0.1092 ( 76)  0.1042 ( 90) -0.1042 ( 91) -0.1042 (113)
           0.1042 (114)  0.1684 (118) -0.1684 (119)  0.1043 (125)  0.1999 (126)
          -0.1043 (128) -0.1999 (130) -0.1684 (131)  0.1684 (134)  0.1999 (139)
           0.1043 (140) -0.1043 (143) -0.1999 (144)
 CRD 73=  -0.1351 (  2)  0.1351 (  3)  0.1010 (  8) -0.1010 ( 10) -0.1580 ( 12)
           0.1580 ( 13)  0.1351 ( 17) -0.1351 ( 18) -0.1010 ( 22)  0.1010 ( 23)
          -0.1580 ( 26)  0.1580 ( 27) -0.1056 ( 39)  0.1056 ( 40)  0.1017 ( 44)
          -0.1017 ( 45) -0.1056 ( 60)  0.1056 ( 64) -0.1017 ( 65)  0.1017 ( 66)
          -0.1218 ( 71)  0.1218 ( 72) -0.1218 ( 77)  0.1218 ( 78) -0.1305 ( 79)
           0.1836 ( 82) -0.1305 ( 85) -0.1305 ( 86) -0.1072 ( 87) -0.1072 ( 88)
           0.1066 ( 89)  0.1229 ( 95)  0.1229 ( 96)  0.1229 ( 98)  0.1229 ( 99)
          -0.1305 (102)  0.1836 (105) -0.1072 (110) -0.1072 (111)  0.1066 (112)
           0.1983 (125)  0.1983 (128)  0.1983 (140)  0.1983 (143)
 CRD 74=  -0.1143 (  4) -0.1747 (  6)  0.1143 ( 16)  0.1747 ( 21)  0.1514 ( 31)
           0.1452 ( 36) -0.1514 ( 54) -0.1452 ( 56) -0.1614 ( 68) -0.1549 ( 69)
           0.1614 ( 74)  0.1549 ( 75)  0.1618 (118) -0.1618 (119) -0.1945 (121)
           0.1945 (124) -0.1460 (126)  0.1460 (130)  0.1618 (131) -0.1618 (134)
           0.1945 (135) -0.1945 (138)  0.1460 (139) -0.1460 (144)
 CRD 75=  -0.1251 (  4) -0.1692 (  6) -0.1251 ( 16) -0.1692 ( 21)  0.1523 ( 31)
           0.1066 ( 33)  0.1388 ( 36)  0.1066 ( 48)  0.1523 ( 54)  0.1388 ( 56)
          -0.1606 ( 68) -0.1460 ( 69) -0.1606 ( 74) -0.1460 ( 75)  0.1688 (118)
          -0.1688 (119) -0.1889 (121)  0.1889 (124) -0.1363 (126)  0.1363 (130)
          -0.1688 (131)  0.1688 (134) -0.1889 (135)  0.1889 (138) -0.1363 (139)
           0.1363 (144)
 CRD 76=   0.1410 (  8) -0.1410 ( 10)  0.1410 ( 22) -0.1410 ( 23)  0.1037 ( 34)
          -0.1037 ( 38)  0.1014 ( 44) -0.1014 ( 45)  0.1037 ( 57) -0.1037 ( 58)
           0.1014 ( 65) -0.1014 ( 66) -0.1043 ( 79) -0.1160 ( 80) -0.1294 ( 81)
          -0.1160 ( 83) -0.1294 ( 84)  0.1043 ( 85) -0.1198 ( 86) -0.1695 ( 87)
          -0.1695 ( 88)  0.1579 ( 92)  0.1701 ( 93)  0.1701 ( 94) -0.1579 ( 97)
           0.1198 (102)  0.1160 (106)  0.1160 (107)  0.1294 (108)  0.1294 (109)
           0.1695 (110)  0.1695 (111) -0.1701 (115) -0.1701 (116)  0.1581 (125)
           0.1581 (128) -0.1581 (140) -0.1581 (143)
 CRD 77=  -0.1314 (  5)  0.1314 (  7) -0.1170 (  8)  0.1170 ( 10)  0.1314 ( 19)
          -0.1314 ( 20)  0.1170 ( 22) -0.1170 ( 23) -0.1049 ( 34)  0.1049 ( 38)
           0.1070 ( 42) -0.1070 ( 43)  0.1049 ( 57) -0.1049 ( 58)  0.1070 ( 62)
          -0.1070 ( 63) -0.1113 ( 79)  0.1755 ( 80)  0.1755 ( 83) -0.1113 ( 85)
          -0.1113 ( 86)  0.1553 ( 87)  0.1553 ( 88) -0.1685 ( 90) -0.1685 ( 91)
          -0.1664 ( 93) -0.1664 ( 94)  0.1195 ( 95)  0.1195 ( 96)  0.1195 ( 98)
           0.1195 ( 99) -0.1113 (102)  0.1755 (106)  0.1755 (107)  0.1553 (110)
           0.1553 (111) -0.1685 (113) -0.1685 (114) -0.1664 (115) -0.1664 (116)
          -0.1159 (125) -0.1159 (128) -0.1159 (140) -0.1159 (143)
 CRD 78=   0.1190 (  2) -0.1190 (  3)  0.1190 ( 17) -0.1190 ( 18)  0.1154 ( 46)
          -0.1154 ( 47)  0.1154 ( 49) -0.1154 ( 50) -0.1184 ( 80)  0.2443 ( 81)
          -0.1184 ( 83)  0.2443 ( 84)  0.2878 ( 86)  0.1289 ( 90)  0.1289 ( 91)
          -0.1799 ( 95) -0.1799 ( 96)  0.1799 ( 98)  0.1799 ( 99)  0.1111 (100)
           0.1111 (101) -0.2878 (102) -0.1111 (103) -0.1111 (104)  0.1184 (106)
           0.1184 (107) -0.2443 (108) -0.2443 (109) -0.1289 (113) -0.1289 (114)

 THE DETERMINANT OF THE G MATRIX IS 10**(   -31)


                     --------------------
                     INTERNAL COORDINATES
                     --------------------

                 - - ATOMS - -         COORDINATE      COORDINATE
 NO.   TYPE    I  J  K  L  M  N        (BOHR,RAD)       (ANG,DEG)
 ----------------------------------------------------------------
   1 STRETCH   1  5                     2.8478166       1.5069998
   2 STRETCH   1 12                     2.0598726       1.0900377
   3 STRETCH   1 11                     2.0598726       1.0900377
   4 STRETCH   1  2                     2.8912005       1.5299575
   5 STRETCH   2 13                     2.0598726       1.0900377
   6 STRETCH   2  3                     2.8912499       1.5299837
   7 STRETCH   2 14                     2.0598726       1.0900377
   8 STRETCH   3 15                     2.0598826       1.0900430
   9 STRETCH   3  4                     2.8913441       1.5300335
  10 STRETCH   3 16                     2.0598826       1.0900430
  11 STRETCH   4 19                     2.0596905       1.0899414
  12 STRETCH   4 18                     2.0598826       1.0900430
  13 STRETCH   4 17                     2.0598826       1.0900430
  14 STRETCH   5  7                     2.8478166       1.5069998
  15 STRETCH   5  6                     2.2820331       1.2076000
  16 STRETCH   7  8                     2.8912005       1.5299575
  17 STRETCH   7 21                     2.0598726       1.0900377
  18 STRETCH   7 20                     2.0598726       1.0900377
  19 STRETCH   8 23                     2.0598726       1.0900377
  20 STRETCH   8 22                     2.0598726       1.0900377
  21 STRETCH   8  9                     2.8912499       1.5299837
  22 STRETCH   9 25                     2.0598826       1.0900430
  23 STRETCH   9 24                     2.0598826       1.0900430
  24 STRETCH   9 10                     2.8913441       1.5300335
  25 STRETCH  10 28                     2.0596905       1.0899414
  26 STRETCH  10 27                     2.0598826       1.0900430
  27 STRETCH  10 26                     2.0598826       1.0900430
  28 BEND      1  2 14                  1.9106727     109.4734805
  29 BEND      1  5  7                  2.0943949     119.9999892
  30 BEND      1  5  6                  2.0943952     120.0000054
  31 BEND      1  2  3                  1.9106375     109.4714671
  32 BEND      1  2 13                  1.9106727     109.4734805
  33 BEND      2  1  5                  1.9106436     109.4718150
  34 BEND      2  3 16                  1.9106933     109.4746645
  35 BEND      2  1 11                  1.9106727     109.4734805
  36 BEND      2  3  4                  1.9106800     109.4739005
  37 BEND      2  1 12                  1.9106727     109.4734805
  38 BEND      2  3 15                  1.9106933     109.4746645
  39 BEND      3  4 17                  1.9105758     109.4679276
  40 BEND      3  4 18                  1.9105758     109.4679276
  41 BEND      3  4 19                  1.9106551     109.4724746
  42 BEND      3  2 13                  1.9106108     109.4699348
  43 BEND      3  2 14                  1.9106108     109.4699348
  44 BEND      4  3 16                  1.9105758     109.4679276
  45 BEND      4  3 15                  1.9105758     109.4679276
  46 BEND      5  7 20                  1.9106078     109.4697608
  47 BEND      5  7 21                  1.9106078     109.4697608
  48 BEND      5  7  8                  1.9106436     109.4718150
  49 BEND      5  1 11                  1.9106078     109.4697608
  50 BEND      5  1 12                  1.9106078     109.4697608
  51 BEND      6  5  7                  2.0943952     120.0000054
  52 BEND      7  8 22                  1.9106727     109.4734805
  53 BEND      7  8 23                  1.9106727     109.4734805
  54 BEND      7  8  9                  1.9106375     109.4714671
  55 BEND      8  7 21                  1.9106727     109.4734805
  56 BEND      8  9 10                  1.9106800     109.4739005
  57 BEND      8  9 24                  1.9106933     109.4746645
  58 BEND      8  9 25                  1.9106933     109.4746645
  59 BEND      8  7 20                  1.9106727     109.4734805
  60 BEND      9 10 26                  1.9105758     109.4679276
  61 BEND      9 10 28                  1.9106551     109.4724746
  62 BEND      9  8 22                  1.9106108     109.4699348
  63 BEND      9  8 23                  1.9106108     109.4699348
  64 BEND      9 10 27                  1.9105758     109.4679276
  65 BEND     10  9 24                  1.9105758     109.4679276
  66 BEND     10  9 25                  1.9105758     109.4679276
  67 BEND     11  1 12                  1.9105949     109.4690261
  68 BEND     13  2 14                  1.9105949     109.4690261
  69 BEND     15  3 16                  1.9105812     109.4682385
  70 BEND     17  4 18                  1.9105812     109.4682385
  71 BEND     17  4 19                  1.9107058     109.4753775
  72 BEND     18  4 19                  1.9107058     109.4753775
  73 BEND     20  7 21                  1.9105949     109.4690261
  74 BEND     22  8 23                  1.9105949     109.4690261
  75 BEND     24  9 25                  1.9105812     109.4682385
  76 BEND     26 10 27                  1.9105812     109.4682385
  77 BEND     26 10 28                  1.9107058     109.4753775
  78 BEND     27 10 28                  1.9107058     109.4753775
  79 TORSION   1  5  7  8               3.1415927     180.0000000
  80 TORSION   1  2  3 16               1.0472025      60.0002829
  81 TORSION   1  5  7 20              -1.0471585     -59.9977623
  82 TORSION   1  2  3  4               3.1415927     180.0000000
  83 TORSION   1  2  3 15              -1.0472025     -60.0002829
  84 TORSION   1  5  7 21               1.0471585      59.9977623
  85 TORSION   2  1  5  7               3.1415927     180.0000000
  86 TORSION   2  1  5  6               0.0000000       0.0000000
  87 TORSION   2  3  4 17              -1.0471305     -59.9961577
  88 TORSION   2  3  4 18               1.0471305      59.9961577
  89 TORSION   2  3  4 19               3.1415927     180.0000000
  90 TORSION   3  2  1 11              -1.0471983     -60.0000401
  91 TORSION   3  2  1 12               1.0471983      60.0000401
  92 TORSION   3  2  1  5               3.1415927     180.0000000
  93 TORSION   4  3  2 14              -1.0471604     -59.9978688
  94 TORSION   4  3  2 13               1.0471604      59.9978688
  95 TORSION   5  1  2 14               1.0471983      60.0000401
  96 TORSION   5  1  2 13              -1.0471983     -60.0000401
  97 TORSION   5  7  8  9               3.1415927     180.0000000
  98 TORSION   5  7  8 22              -1.0471983     -60.0000401
  99 TORSION   5  7  8 23               1.0471983      60.0000401
 100 TORSION   6  5  1 11              -2.0944342    -120.0022377
 101 TORSION   6  5  1 12               2.0944342     120.0022377
 102 TORSION   6  5  7  8               0.0000000       0.0000000
 103 TORSION   6  5  7 21              -2.0944342    -120.0022377
 104 TORSION   6  5  7 20               2.0944342     120.0022377
 105 TORSION   7  8  9 10               3.1415927     180.0000000
 106 TORSION   7  8  9 24              -1.0472025     -60.0002829
 107 TORSION   7  8  9 25               1.0472025      60.0002829
 108 TORSION   7  5  1 11               1.0471585      59.9977623
 109 TORSION   7  5  1 12              -1.0471585     -59.9977623
 110 TORSION   8  9 10 26              -1.0471305     -59.9961577
 111 TORSION   8  9 10 27               1.0471305      59.9961577
 112 TORSION   8  9 10 28               3.1415927     180.0000000
 113 TORSION   9  8  7 20               1.0471983      60.0000401
 114 TORSION   9  8  7 21              -1.0471983     -60.0000401
 115 TORSION  10  9  8 22               1.0471604      59.9978688
 116 TORSION  10  9  8 23              -1.0471604     -59.9978688
 117 TORSION  11  1  2 14               3.1415927     180.0000000
 118 TORSION  11  1  2 13               1.0471962      59.9999199
 119 TORSION  12  1  2 14              -1.0471962     -59.9999199
 120 TORSION  12  1  2 13               3.1415927     180.0000000
 121 TORSION  13  2  3 16              -1.0472298     -60.0018483
 122 TORSION  13  2  3 15               3.1415505     179.9975859
 123 TORSION  14  2  3 16              -3.1415505    -179.9975859
 124 TORSION  14  2  3 15               1.0472298      60.0018483
 125 TORSION  15  3  4 19               1.0471305      59.9961577
 126 TORSION  15  3  4 18              -1.0473317     -60.0076846
 127 TORSION  15  3  4 17               3.1415927     180.0000000
 128 TORSION  16  3  4 19              -1.0471305     -59.9961577
 129 TORSION  16  3  4 18               3.1415927     180.0000000
 130 TORSION  16  3  4 17               1.0473317      60.0076846
 131 TORSION  20  7  8 23              -1.0471962     -59.9999199
 132 TORSION  20  7  8 22               3.1415927     180.0000000
 133 TORSION  21  7  8 23               3.1415927     180.0000000
 134 TORSION  21  7  8 22               1.0471962      59.9999199
 135 TORSION  22  8  9 25              -1.0472298     -60.0018483
 136 TORSION  22  8  9 24               3.1415505     179.9975859
 137 TORSION  23  8  9 25              -3.1415505    -179.9975859
 138 TORSION  23  8  9 24               1.0472298      60.0018483
 139 TORSION  24  9 10 27              -1.0473317     -60.0076846
 140 TORSION  24  9 10 28               1.0471305      59.9961577
 141 TORSION  24  9 10 26               3.1415927     180.0000000
 142 TORSION  25  9 10 27               3.1415927     180.0000000
 143 TORSION  25  9 10 28              -1.0471305     -59.9961577
 144 TORSION  25  9 10 26               1.0473317      60.0076846

     ------------------------------------------
     THE POINT GROUP IS C1 , NAXIS= 1, ORDER= 1
     ------------------------------------------

     DIMENSIONS OF THE SYMMETRY SUBSPACES ARE
 A   =  298

 ..... DONE SETTING UP THE RUN .....
 STEP CPU TIME =     0.03 TOTAL CPU TIME =        0.0 (    0.0 MIN)
 TOTAL WALL CLOCK TIME=        0.0 SECONDS, CPU UTILIZATION IS  75.00%


          -----------------------------
          STATIONARY POINT LOCATION RUN
          -----------------------------

 OBTAINING INITIAL HESSIAN, HESS=GUESS   
 DIAGONAL GUESS HESSIAN IN INTERNAL COORDS IS
     1  0.3840     2  0.3463     3  0.3463     4  0.3672     5  0.3463
     6  0.3672     7  0.3463     8  0.3463     9  0.3671    10  0.3463
    11  0.3464    12  0.3463    13  0.3463    14  0.3840    15  0.5549
    16  0.3672    17  0.3463    18  0.3463    19  0.3463    20  0.3463
    21  0.3672    22  0.3463    23  0.3463    24  0.3671    25  0.3464
    26  0.3463    27  0.3463    28  0.2241    29  0.2518    30  0.2605
    31  0.2485    32  0.2241    33  0.2501    34  0.2241    35  0.2241
    36  0.2485    37  0.2241    38  0.2241    39  0.2241    40  0.2241
    41  0.2241    42  0.2241    43  0.2241    44  0.2241    45  0.2241
    46  0.2254    47  0.2254    48  0.2501    49  0.2254    50  0.2254
    51  0.2605    52  0.2241    53  0.2241    54  0.2485    55  0.2241
    56  0.2485    57  0.2241    58  0.2241    59  0.2241    60  0.2241
    61  0.2241    62  0.2241    63  0.2241    64  0.2241    65  0.2241
    66  0.2241    67  0.2034    68  0.2034    69  0.2034    70  0.2034
    71  0.2034    72  0.2034    73  0.2034    74  0.2034    75  0.2034
    76  0.2034    77  0.2034    78  0.2034    79  0.2500    80  0.2500
    81  0.2500    82  0.2500    83  0.2500    84  0.2500    85  0.2500
    86  0.2500    87  0.2500    88  0.2500    89  0.2500    90  0.2500
    91  0.2500    92  0.2500    93  0.2500    94  0.2500    95  0.2500
    96  0.2500    97  0.2500    98  0.2500    99  0.2500   100  0.2500
   101  0.2500   102  0.2500   103  0.2500   104  0.2500   105  0.2500
   106  0.2500   107  0.2500   108  0.2500   109  0.2500   110  0.2500
   111  0.2500   112  0.2500   113  0.2500   114  0.2500   115  0.2500
   116  0.2500   117  0.2500   118  0.2500   119  0.2500   120  0.2500
   121  0.2500   122  0.2500   123  0.2500   124  0.2500   125  0.2500
   126  0.2500   127  0.2500   128  0.2500   129  0.2500   130  0.2500
   131  0.2500   132  0.2500   133  0.2500   134  0.2500   135  0.2500
   136  0.2500   137  0.2500   138  0.2500   139  0.2500   140  0.2500
   141  0.2500   142  0.2500   143  0.2500   144  0.2500
 TRANSFORMING HESSIAN TO SYMMETRY COORDINATES

          PARAMETERS CONTROLLING GEOMETRY SEARCH ARE
          METHOD =QA                  UPHESS =BFGS    
          NNEG   =         0          NFRZ   =         3
          NSTEP  =        50          IFOLOW =         1
          HESS   =GUESS               RESTAR =         F
          IHREP  =         0          HSSEND =         F
          NPRT   =         0          NPUN   =         0
          OPTTOL = 5.000E-04          RMIN   = 1.500E-03
          RMAX   = 1.000E-01          RLIM   = 7.000E-02
          DXMAX  = 3.000E-01          PURIFY =         F
          MOVIE  =         F          TRUPD  =         T
          TRMAX  = 5.000E-01          TRMIN  = 5.000E-02
          ITBMAT =         5          STPT   =         F
          STSTEP = 1.000E-02          PROJCT=          F
          FROZEN COORD(S)=   1   2   3


      ***** EQUILIBRIUM GEOMETRY LOCATED *****
            (SUBJECT TO   3 CONSTRAINT(S))
 COORDINATES OF ALL ATOMS ARE (ANGS)
   ATOM   CHARGE       X              Y              Z
 ------------------------------------------------------------
 C           6.0  -1.3018737108  -0.7625272193  -0.0000627657
 C           6.0  -2.5165824508   0.1610027477  -0.0000504351
 C           6.0  -3.8683329962  -0.5486463897  -0.0000143401
 C           6.0  -5.0208170937   0.4572227267   0.0000456695
 C           6.0   0.0000013202   0.0149575258  -0.0000026510
 O           8.0   0.0000220111   1.2111360677  -0.0000032310
 C           6.0   1.3018697404  -0.7625304948   0.0000642943
 C           6.0   2.5165733403   0.1610057522   0.0000532423
 C           6.0   3.8683250231  -0.5486404403   0.0000144625
 C           6.0   5.0208129047   0.4572248935  -0.0000436085
 H           1.0  -1.2988870341  -1.4182844482   0.8689923132
 H           1.0  -1.2988617681  -1.4182979319  -0.8691227954
 H           1.0  -2.4586510818   0.8110999189   0.8686148434
 H           1.0  -2.4586626633   0.8111306446  -0.8686925722
 H           1.0  -3.9485461358  -1.1935064272  -0.8733061000
 H           1.0  -3.9484825113  -1.1935501978   0.8732458071
 H           1.0  -4.9737226859   1.0979855933   0.8775766450
 H           1.0  -4.9738043904   1.0979841521  -0.8774932823
 H           1.0  -5.9868110713  -0.0387797726   0.0001044713
 H           1.0   1.2988552360  -1.4183102527   0.8691188548
 H           1.0   1.2988830188  -1.4182761957  -0.8690003346
 H           1.0   2.4586343851   0.8111040710  -0.8686099267
 H           1.0   2.4586480320   0.8111310950   0.8686988947
 H           1.0   3.9485380251  -1.1935023592   0.8733055405
 H           1.0   3.9484742209  -1.1935431031  -0.8732467318
 H           1.0   4.9737229120   1.0979893812  -0.8775738127
 H           1.0   4.9738046229   1.0979853931   0.8774964634
 H           1.0   5.9868044024  -0.0387835292  -0.0001030573


                     --------------------
                     INTERNAL COORDINATES
                     --------------------

                 - - ATOMS - -         COORDINATE      COORDINATE
 NO.   TYPE    I  J  K  L  M  N        (BOHR,RAD)       (ANG,DEG)
 ----------------------------------------------------------------
   1 STRETCH   1  5                     2.8655133       1.5163644
   2 STRETCH   1 12                     2.0573811       1.0887193
   3 STRETCH   1 11                     2.0573581       1.0887071
   4 STRETCH   1  2                     2.8835664       1.5259177
   5 STRETCH   2 13                     2.0532564       1.0865366
   6 STRETCH   2  3                     2.8850561       1.5267061
   7 STRETCH   2 14                     2.0532550       1.0865358
   8 STRETCH   3 15                     2.0570404       1.0885390
   9 STRETCH   3  4                     2.8907201       1.5297033
  10 STRETCH   3 16                     2.0570326       1.0885349
  11 STRETCH   4 19                     2.0520396       1.0858927
  12 STRETCH   4 18                     2.0552540       1.0875937
  13 STRETCH   4 17                     2.0552502       1.0875916
  14 STRETCH   5  7                     2.8655057       1.5163604
  15 STRETCH   5  6                     2.2604497       1.1961785
  16 STRETCH   7  8                     2.8835658       1.5259174
  17 STRETCH   7 21                     2.0573594       1.0887078
  18 STRETCH   7 20                     2.0573831       1.0887204
  19 STRETCH   8 23                     2.0532580       1.0865374
  20 STRETCH   8 22                     2.0532553       1.0865360
  21 STRETCH   8  9                     2.8850555       1.5267057
  22 STRETCH   9 25                     2.0570329       1.0885350
  23 STRETCH   9 24                     2.0570415       1.0885395
  24 STRETCH   9 10                     2.8907208       1.5297037
  25 STRETCH  10 28                     2.0520405       1.0858931
  26 STRETCH  10 27                     2.0552544       1.0875938
  27 STRETCH  10 26                     2.0552504       1.0875918
  28 BEND      1  2 14                  1.8962060     108.6446015
  29 BEND      1  5  7                  2.0648667     118.3081450
  30 BEND      1  5  6                  2.1091746     120.8468014
  31 BEND      1  2  3                  2.0081034     115.0558517
  32 BEND      1  2 13                  1.8961924     108.6438218
  33 BEND      2  1  5                  1.9531779     111.9088529
  34 BEND      2  3 16                  1.9183483     109.9132586
  35 BEND      2  1 11                  1.9462805     111.5136580
  36 BEND      2  3  4                  1.9405839     111.1872690
  37 BEND      2  1 12                  1.9463179     111.5158000
  38 BEND      2  3 15                  1.9183417     109.9128831
  39 BEND      3  4 17                  1.9335110     110.7820188
  40 BEND      3  4 18                  1.9335022     110.7815134
  41 BEND      3  4 19                  1.9496592     111.7072442
  42 BEND      3  2 13                  1.9021275     108.9838795
  43 BEND      3  2 14                  1.9021717     108.9864079
  44 BEND      4  3 16                  1.9114106     109.5157611
  45 BEND      4  3 15                  1.9114013     109.5152264
  46 BEND      5  7 20                  1.8823077     107.8482863
  47 BEND      5  7 21                  1.8822435     107.8446098
  48 BEND      5  7  8                  1.9531685     111.9083141
  49 BEND      5  1 11                  1.8822510     107.8450391
  50 BEND      5  1 12                  1.8822997     107.8478259
  51 BEND      6  5  7                  2.1091441     120.8450536
  52 BEND      7  8 22                  1.8961895     108.6436578
  53 BEND      7  8 23                  1.8962033     108.6444468
  54 BEND      7  8  9                  2.0081002     115.0556649
  55 BEND      8  7 21                  1.9462768     111.5134488
  56 BEND      8  9 10                  1.9405895     111.1875866
  57 BEND      8  9 24                  1.9183397     109.9127673
  58 BEND      8  9 25                  1.9183478     109.9132350
  59 BEND      8  7 20                  1.9463269     111.5163176
  60 BEND      9 10 26                  1.9335124     110.7820998
  61 BEND      9 10 28                  1.9496568     111.7071063
  62 BEND      9  8 22                  1.9021322     108.9841465
  63 BEND      9  8 23                  1.9021752     108.9866080
  64 BEND      9 10 27                  1.9335041     110.7816251
  65 BEND     10  9 24                  1.9113995     109.5151241
  66 BEND     10  9 25                  1.9114093     109.5156867
  67 BEND     11  1 12                  1.8487448     105.9252718
  68 BEND     13  2 14                  1.8528267     106.1591472
  69 BEND     15  3 16                  1.8621007     106.6905114
  70 BEND     17  4 18                  1.8776345     107.5805316
  71 BEND     17  4 19                  1.8834512     107.9138039
  72 BEND     18  4 19                  1.8834715     107.9149702
  73 BEND     20  7 21                  1.8487488     105.9255049
  74 BEND     22  8 23                  1.8528276     106.1592018
  75 BEND     24  9 25                  1.8621004     106.6904944
  76 BEND     26 10 27                  1.8776346     107.5805405
  77 BEND     26 10 28                  1.8834507     107.9137751
  78 BEND     27 10 28                  1.8834709     107.9149341
  79 TORSION   1  5  7  8               3.1415458     179.9973179
  80 TORSION   1  2  3 16               1.0221690      58.5659689
  81 TORSION   1  5  7 20              -0.9946946     -56.9918023
  82 TORSION   1  2  3  4               3.1415576     179.9979923
  83 TORSION   1  2  3 15              -1.0222553     -58.5709118
  84 TORSION   1  5  7 21               0.9947081      56.9925739
  85 TORSION   2  1  5  7               3.1415392     179.9969378
  86 TORSION   2  1  5  6              -0.0000489      -0.0028015
  87 TORSION   2  3  4 17              -1.0411722     -59.6547746
  88 TORSION   2  3  4 18               1.0412175      59.6573657
  89 TORSION   2  3  4 19              -3.1415601    -179.9981369
  90 TORSION   3  2  1 11              -1.0313926     -59.0944457
  91 TORSION   3  2  1 12               1.0314404      59.0971810
  92 TORSION   3  2  1  5              -3.1415244    -179.9960867
  93 TORSION   4  3  2 14              -1.0074372     -57.7219003
  94 TORSION   4  3  2 13               1.0074189      57.7208526
  95 TORSION   5  1  2 14               1.0042640      57.5400896
  96 TORSION   5  1  2 13              -1.0041955     -57.5361636
  97 TORSION   5  7  8  9              -3.1415175    -179.9956941
  98 TORSION   5  7  8 22              -1.0041870     -57.5356787
  99 TORSION   5  7  8 23               1.0042707      57.5404700
 100 TORSION   6  5  1 11              -2.1469025    -123.0084515
 101 TORSION   6  5  1 12               2.1468852     123.0074586
 102 TORSION   6  5  7  8              -0.0000514      -0.0029428
 103 TORSION   6  5  7 21              -2.1468891    -123.0076868
 104 TORSION   6  5  7 20               2.1468935     123.0079370
 105 TORSION   7  8  9 10               3.1415579     179.9980091
 106 TORSION   7  8  9 24              -1.0222549     -58.5708921
 107 TORSION   7  8  9 25               1.0221675      58.5658853
 108 TORSION   7  5  1 11               0.9946856      56.9912878
 109 TORSION   7  5  1 12              -0.9947120     -56.9928021
 110 TORSION   8  9 10 26              -1.0411748     -59.6549191
 111 TORSION   8  9 10 27               1.0412173      59.6573573
 112 TORSION   8  9 10 28              -3.1415614    -179.9982075
 113 TORSION   9  8  7 20               1.0314371      59.0969943
 114 TORSION   9  8  7 21              -1.0314046     -59.0951295
 115 TORSION  10  9  8 22               1.0074217      57.7210093
 116 TORSION  10  9  8 23              -1.0074400     -57.7220629
 117 TORSION  11  1  2 14               3.1143957     178.4417306
 118 TORSION  11  1  2 13               1.1059362      63.3654773
 119 TORSION  12  1  2 14              -1.1059566     -63.3666427
 120 TORSION  12  1  2 13              -3.1144161    -178.4428959
 121 TORSION  13  2  3 16              -1.1119697     -63.7111708
 122 TORSION  13  2  3 15               3.1267914     179.1519485
 123 TORSION  14  2  3 16              -3.1268258    -179.1539237
 124 TORSION  14  2  3 15               1.1119352      63.7091956
 125 TORSION  15  3  4 19               1.0182019      58.3386700
 126 TORSION  15  3  4 18              -1.0822058     -62.0058274
 127 TORSION  15  3  4 17               3.1185898     178.6820323
 128 TORSION  16  3  4 19              -1.0181223     -58.3341115
 129 TORSION  16  3  4 18              -3.1185300    -178.6786088
 130 TORSION  16  3  4 17               1.0822656      62.0092509
 131 TORSION  20  7  8 23              -1.1059600     -63.3668415
 132 TORSION  20  7  8 22              -3.1144177    -178.4429902
 133 TORSION  21  7  8 23               3.1143836     178.4410347
 134 TORSION  21  7  8 22               1.1059259      63.3648860
 135 TORSION  22  8  9 25              -1.1119687     -63.7111145
 136 TORSION  22  8  9 24               3.1267941     179.1521082
 137 TORSION  23  8  9 25              -3.1268304    -179.1541867
 138 TORSION  23  8  9 24               1.1119324      63.7090359
 139 TORSION  24  9 10 27              -1.0822059     -62.0058294
 140 TORSION  24  9 10 28               1.0182008      58.3386058
 141 TORSION  24  9 10 26               3.1185874     178.6818942
 142 TORSION  25  9 10 27              -3.1185279    -178.6784888
 143 TORSION  25  9 10 28              -1.0181213     -58.3340536
 144 TORSION  25  9 10 26               1.0822653      62.0092348

          INTERNUCLEAR DISTANCES (ANGS.)


 =====================================================
   GAMESS/COSab RESULTS
 =====================================================

   Dielectric Constant                  = INFTY
   Basic Grid Size                      =                 1082
   Number of Segments                   =                   92
   Number of Segments located on spheres=                  349
   Number of Segments of the cavity     =                  997
   Solvent Radius (rsolv)               = 1.40
   Outlying Charge Error Method         = double cavity

 =====================================================

  Total solvated Energy (a.u.)          =  -426.2879736784
  Total Energy corrected (a.u.)         =  -426.2876188926

  Outlying charge effect (a.u.)         =     0.0003547858
  Outlying charge effect (kcal/mol)     =     0.2226316455

  Dielectric Energy (a.u.)              =    -0.0126118896
  Dielectric energy corr. (a.u.)        =    -0.0122571038

  Sum of polarization charges           =     0.0325335936
  Sum of polarization charges(cor.)     =    -0.0325335936

  Total surface area of cavity (A**2)   =  216.75
  Total volume of cavity (A**3)         =  214.24

 =====================================================
 NPS=                   997
NR.  ATOM  (X, Y, Z)(a.u.)                  CHARGE(e)  AREA(A**2) SIGMA(e/A**2)
   1   1  -1.438141  -5.062784  -0.349675   0.000616   0.325193   0.001895
   2   1  -2.471433  -0.674128  -3.700949  -0.000105   0.092912  -0.001127
   3   1  -2.949832  -1.078828  -3.730188  -0.000077   0.046456  -0.001662
   4   1  -1.639861  -5.095554   0.505223   0.000357   0.278737   0.001281
   5   1  -3.856594  -4.897062   0.624162   0.000169   0.139368   0.001213
   6   1  -2.108532  -0.865367   3.718646  -0.000216   0.185824  -0.001163
   7   1  -3.863544  -4.911699  -0.518672   0.000411   0.278737   0.001476
   8   1  -2.584123  -5.211404  -0.229797   0.000789   0.278737   0.002829
   9   1  -2.161111  -0.919397  -3.731451  -0.000104   0.046456  -0.002228
  10   1  -3.258672  -5.128620   0.218794   0.000583   0.232280   0.002510
  11   1  -2.720418  -0.915329   3.733534  -0.000043   0.046456  -0.000920
  12   2  -5.371412   4.022454  -0.282927   0.000881   0.185824   0.004743
  13   2  -4.815307  -0.452769  -3.702482   0.000107   0.092912   0.001148
  14   2  -4.301233  -0.094408  -3.730896   0.000021   0.046456   0.000460
  15   2  -5.104854   4.042354   0.434447   0.000998   0.232280   0.004297
  16   2  -5.160147  -0.243621   3.717492   0.000253   0.185824   0.001362
  17   2  -4.713676   4.076285  -0.232879   0.000807   0.139368   0.005793
  18   2  -5.101388  -0.179557  -3.732480   0.000076   0.046456   0.001628
  19   2  -4.546271  -0.250994   3.732477   0.000060   0.046456   0.001283
  20   3  -8.915127  -4.441038   0.345360   0.001486   0.325193   0.004570
  21   3  -7.210628  -0.301375   3.705853   0.000166   0.092912   0.001790
  22   3  -8.558543  -4.564540  -0.529823   0.001289   0.278737   0.004624
  23   3  -6.333840  -4.630122  -0.647492   0.000409   0.139368   0.002935
  24   3  -7.543666  -0.453467  -3.726875   0.000235   0.139368   0.001684
  25   3  -6.619302  -4.741702   0.284161   0.001124   0.232280   0.004840
  26   3  -7.755269  -4.778296   0.295414   0.001443   0.278737   0.005176
  27   3  -9.688295  -3.957680  -0.311280   0.001203   0.371649   0.003236
  28   3 -10.191007  -3.406792  -0.606443   0.000276   0.139368   0.001982
  29   3  -9.829468  -3.702647   0.911175   0.000976   0.325193   0.003002
  30   3  -7.547924  -0.508222   3.734720   0.000085   0.046456   0.001829
  31   3  -9.905891  -3.435321  -1.339126   0.000373   0.185824   0.002009
  32   3  -7.252193  -4.799374  -0.352069   0.000916   0.185824   0.004930
  33   3  -6.986361  -0.520972  -3.730086   0.000086   0.046456   0.001861
  34   4 -12.344610   1.774062  -2.301153   0.002223   0.418105   0.005316
  35   4 -10.609739  -0.385395   3.386075   0.000879   0.278737   0.003153
  36   4 -10.441971   4.496148  -0.426347   0.001811   0.418105   0.004331
  37   4 -12.817357   2.002919   1.379377   0.001416   0.371649   0.003809
  38   4 -11.043808  -1.624701  -2.381056   0.000685   0.278737   0.002458
  39   4  -9.804526   0.082590  -3.684115   0.000705   0.232280   0.003034
[...]
 740  21   4.350289  -4.445365  -1.578895  -0.000345   0.090117  -0.003826
 741  25   5.456141  -4.258873  -1.571503   0.000013   0.090117   0.000148
 742  21   3.668674  -4.811170  -1.512556  -0.000339   0.070236  -0.004833
 743  21   2.585290  -5.056523  -1.323709  -0.000685   0.156230  -0.004383
 744  21   1.471230  -4.920053  -1.422855  -0.000449   0.070236  -0.006391
 745   7   3.357679  -4.919585  -1.007754  -0.000479   0.153713  -0.003116
 746   7   1.831415  -4.995211  -0.945451  -0.000573   0.153713  -0.003728
 747  21   2.031335  -1.701968  -3.852920  -0.000379   0.072728  -0.005210
 748  21   2.938022  -1.714936  -3.846250  -0.000346   0.072728  -0.004756
 749   7   2.489367  -1.315950  -3.723824  -0.000875   0.158008  -0.005539
 750  22   3.615441   0.638168  -3.736033  -0.000325   0.168718  -0.001928
 751   7   2.788309  -0.111164  -3.634870  -0.000155   0.237894  -0.000652
 752  23   3.484407   0.748225   3.711551  -0.000397   0.168742  -0.002355
 753   7   2.907400  -0.210967   3.657474  -0.000111   0.237929  -0.000465
 754  24   6.052541  -4.459062   1.599182   0.000028   0.011719   0.002366
 755   7   4.614645  -4.617067   1.181748   0.000080   0.016685   0.004776
 756  25   6.054943  -4.460531  -1.590642   0.000013   0.011754   0.001129
 757   7   4.612236  -4.615825  -1.189186   0.000085   0.016735   0.005107
 758   8   5.777376   0.158456  -3.644151  -0.000010   0.028417  -0.000363
 759   9   6.215974  -0.073255  -3.602232   0.000013   0.028417   0.000473
 760  22   5.682275   0.441777  -3.694425  -0.000044   0.028417  -0.001555
 761   8   5.777740   0.158722   3.644278   0.000005   0.028414   0.000183
 762   9   6.216334  -0.072992   3.602329   0.000025   0.028414   0.000876
 763  23   5.682612   0.442036   3.694546  -0.000028   0.028414  -0.000991
 764   8   5.850770  -0.664982   3.601676   0.000026   0.027437   0.000931
 765   9   6.289210  -0.896802   3.644256   0.000008   0.027437   0.000301
 766  24   6.394031  -1.177436   3.695793  -0.000023   0.027437  -0.000838
 767   8   5.850427  -0.665191  -3.601504   0.000013   0.027436   0.000484
 768   9   6.288862  -0.897013  -3.644112  -0.000001   0.027436  -0.000034
 769  25   6.393682  -1.177643  -3.695642  -0.000034   0.027436  -0.001229
 770   9   6.323011  -0.580867  -3.672839   0.000124   0.084694   0.001468
 771   8   5.738533  -0.159106  -3.672937   0.000092   0.084694   0.001090
 772   9   6.370679  -0.490522   3.673067   0.000133   0.084704   0.001566
 773   8   5.691600  -0.248961   3.672980   0.000127   0.084704   0.001503
 774   8   6.073351   3.741078  -1.020446   0.000161   0.067393   0.002395
 775  10   6.904728   3.758986  -1.003616   0.000189   0.067393   0.002811
 776  22   5.969502   3.715407  -1.305766  -0.000059   0.067393  -0.000880
 777   8   6.073423   3.741099   1.020493   0.000139   0.067390   0.002068
 778  10   6.904799   3.759003   1.003592   0.000204   0.067390   0.003024
 779  23   5.969574   3.715438   1.305814  -0.000043   0.067390  -0.000640
 780  10   7.314068   4.011591  -0.180009   0.001248   0.500320   0.002495
 781   8   6.135178   3.872145   0.180002   0.001229   0.500320   0.002456
 782   8   4.875157  -1.429819   3.436489  -0.000170   0.168819  -0.001006
 783  20   4.352369  -1.987374   3.460285  -0.000549   0.168819  -0.003252
 784  24   5.473815  -1.892195   3.463219  -0.000240   0.168819  -0.001422
 785  20   3.647893  -1.901054   3.717526  -0.000616   0.131567  -0.004684
 786   8   4.291648  -0.964753   3.659397   0.000099   0.185385   0.000536
 787   8   4.875081  -1.429707  -3.436332  -0.000164   0.168815  -0.000973
 788  21   4.352319  -1.987260  -3.460134  -0.000593   0.168815  -0.003514
 789  25   5.473714  -1.892111  -3.463090  -0.000197   0.168815  -0.001167
 790  21   3.549887  -1.814547  -3.737028  -0.000561   0.131577  -0.004262
 791   8   4.380771  -1.043276  -3.641264   0.000082   0.185400   0.000442
 792  22   5.179192   0.603852  -3.850394  -0.000114   0.071358  -0.001603
 793  22   4.289636   0.523922  -3.850883  -0.000126   0.071358  -0.001767
 794   8   4.769423   0.173493  -3.725877  -0.000311   0.155419  -0.002003
 795  22   4.766399   3.910072  -1.348541  -0.000115   0.126496  -0.000912
 796   8   5.100276   3.893475  -0.963970   0.000176   0.154542   0.001141
 797  23   5.067235   3.880515   1.390834  -0.000187   0.126504  -0.001474
 798   8   4.854088   3.917733   0.929491   0.000226   0.154553   0.001462
 799  23   4.289636   0.524100   3.851084  -0.000118   0.071380  -0.001653
 800  23   5.179453   0.604078   3.850559  -0.000111   0.071380  -0.001555
 801   8   4.769559   0.173709   3.726061  -0.000283   0.155457  -0.001821
 802  24   6.279825  -1.542642   3.744902  -0.000210   0.152402  -0.001379
 803   8   5.336613  -0.930308   3.645453   0.000259   0.214812   0.001206
 804  25   6.181450  -1.660072  -3.723627  -0.000253   0.152323  -0.001659
 805   8   5.425779  -0.823451  -3.664525   0.000266   0.214701   0.001238
 806   9   8.265906  -0.652755   3.644599   0.000015   0.027961   0.000548
 807  10   8.639484  -0.325012   3.602106   0.000052   0.027961   0.001850
 808  24   8.233285  -0.950534   3.696311  -0.000011   0.027961  -0.000387
 809   9  10.084237  -2.736271   1.939022   0.000029   0.027961   0.001033
 810  10  10.434077  -2.381328   1.918794   0.000088   0.027961   0.003159
 811  24   9.888698  -2.847372   2.143549  -0.000002   0.027961  -0.000055
 812   9  10.084070  -2.736325  -1.939159   0.000026   0.027960   0.000920
 813  10  10.433912  -2.381381  -1.918970   0.000056   0.027960   0.001999
 814  25   9.888514  -2.847435  -2.143657   0.000001   0.027960   0.000035
 815   9   8.265682  -0.652958  -3.644625   0.000036   0.027960   0.001270
 816  10   8.639262  -0.325211  -3.602172   0.000084   0.027960   0.003020
 817  25   8.233050  -0.950734  -3.696317  -0.000002   0.027960  -0.000069
 818   9   8.154112   0.164355  -3.600617   0.000033   0.026257   0.001259
 819  10   8.527374   0.492274  -3.643954   0.000013   0.026257   0.000508
 820  26   8.574916   0.787315  -3.696723  -0.000026   0.026257  -0.000986
 821   9   8.154590   0.164253   3.600592   0.000021   0.026259   0.000795
 822  10   8.527858   0.492170   3.643888   0.000004   0.026259   0.000153
 823  27   8.575388   0.787217   3.696657  -0.000033   0.026259  -0.001246
 824   9  10.567598  -2.595715   1.443975   0.000076   0.024821   0.003082
 825  10  10.967664  -2.298641   1.463738   0.000026   0.024821   0.001042
 826  28  11.234670  -2.244915   1.331870  -0.000008   0.024821  -0.000339
 827   9  10.567429  -2.595704  -1.444313   0.000045   0.024821   0.001827
 828  10  10.967493  -2.298630  -1.464120   0.000020   0.024821   0.000815
 829  28  11.234515  -2.244905  -1.332283  -0.000007   0.024821  -0.000266
 830  10  10.798270  -2.291628   1.740585   0.000140   0.059939   0.002338
 831   9  10.281590  -2.786921   1.676949   0.000142   0.059939   0.002361
 832  10  10.820066  -2.316817  -1.677227   0.000126   0.059912   0.002096
 833   9  10.259450  -2.761769  -1.740831   0.000131   0.059912   0.002190
 834  10   8.695662   0.117159  -3.672728   0.000194   0.084855   0.002282
 835   9   8.090108  -0.276300  -3.672445   0.000159   0.084855   0.001874
 836  10   8.629145   0.193834   3.672398   0.000162   0.084785   0.001908
 837   9   8.157344  -0.352877   3.672676   0.000134   0.084785   0.001576
 838   9   7.136392   0.650893  -3.465414   0.000010   0.167159   0.000060
 839  22   6.552345   1.123060  -3.499490  -0.000148   0.167159  -0.000887
 840  26   7.613547   1.244212  -3.501740  -0.000192   0.167159  -0.001146
 841  22   5.880557   0.893162  -3.732208  -0.000236   0.137983  -0.001708
 842   9   6.625776   0.059092  -3.673487   0.000306   0.194587   0.001574
 843   9   7.136587   0.650988   3.465431   0.000011   0.167162   0.000066
 844  23   6.552525   1.123162   3.499530  -0.000192   0.167162  -0.001150
 845  27   7.613754   1.244295   3.501712  -0.000150   0.167162  -0.000898
 846  23   5.789219   0.787552   3.749279  -0.000201   0.137944  -0.001454
 847   9   6.709482   0.155638   3.658095   0.000288   0.194531   0.001478
 848  24   7.780019  -1.219338   3.853386  -0.000100   0.071286  -0.001407
 849  24   6.897329  -1.329463   3.853147  -0.000108   0.071286  -0.001522
 850   9   7.290073  -0.884564   3.725923  -0.000251   0.155516  -0.001612
 851  24   6.645010  -4.565870   1.486431  -0.000060   0.070237  -0.000859
 852  24   7.761952  -4.618069   1.345287  -0.000134   0.156249  -0.000858
 853  24   8.994255  -4.103403   1.612141  -0.000276   0.156249  -0.001765
 854  24   9.620633  -3.323115   2.130800  -0.000094   0.070237  -0.001344
 855   9   6.991622  -4.618386   0.996134   0.000140   0.153697   0.000913
 856   9   8.509206  -4.425863   0.998901   0.000115   0.153697   0.000746
 857   9   9.609427  -3.525073   1.563017  -0.000102   0.153697  -0.000661
 858  25   9.620456  -3.323178  -2.130863  -0.000075   0.070235  -0.001066
 859  25   8.994145  -4.103447  -1.612109  -0.000214   0.156246  -0.001369
 860  25   7.761882  -4.618118  -1.345114  -0.000140   0.156246  -0.000894
 861  25   6.644931  -4.565944  -1.486155  -0.000102   0.070235  -0.001457
 862   9   9.609308  -3.525110  -1.563077  -0.000148   0.153694  -0.000966
 863   9   8.509163  -4.425887  -0.998815   0.000151   0.153694   0.000980
 864   9   6.991589  -4.618435  -0.995895   0.000126   0.153694   0.000817
 865  25   6.896989  -1.329668  -3.853033  -0.000089   0.071290  -0.001249
 866  25   7.779748  -1.219538  -3.853349  -0.000098   0.071290  -0.001373
 867   9   7.289780  -0.884772  -3.725863  -0.000227   0.155522  -0.001460
 868  26   8.413794   1.094578  -3.755628  -0.000196   0.133426  -0.001469
 869   9   7.642834   0.268297  -3.659288   0.000288   0.188033   0.001530
 870  27   8.307709   1.174943   3.738835  -0.000231   0.133489  -0.001730
 871   9   7.740151   0.195074   3.674531   0.000313   0.188122   0.001664
 872  28  11.447004  -2.373470   0.962611  -0.000204   0.194281  -0.001052
 873  28  11.463010  -2.440309  -0.427945  -0.000981   0.396727  -0.002472
 874   9  10.509842  -3.033188   0.492251   0.000733   0.533071   0.001375
 875   9  10.495093  -2.972279  -1.089962   0.000625   0.273568   0.002286
 876  10   7.410999   3.840428  -1.269950   0.000048   0.087132   0.000555
 877  22   6.486676   3.643673  -1.541254   0.000122   0.087132   0.001405
 878  26   7.531079   3.847708  -1.551920  -0.000046   0.087132  -0.000525
 879  22   5.901208   3.810986  -1.513236   0.000028   0.029319   0.000968
 880  10   7.283337   4.009267  -1.116998   0.000170   0.041586   0.004093
 881  10   7.411112   3.840431   1.269950   0.000077   0.087135   0.000885
 882  23   6.486783   3.643686   1.541318   0.000142   0.087135   0.001627
 883  27   7.531214   3.847707   1.551915  -0.000118   0.087135  -0.001356
 884  23   5.908208   3.808312   1.534813   0.000047   0.029336   0.001613
 885  10   7.277011   4.011803   1.097020   0.000194   0.041610   0.004651
 886  24   9.713986  -2.725270   2.585924  -0.000240   0.215405  -0.001116
 887  24   8.906922  -1.737985   3.461110  -0.001258   0.443266  -0.002839
 888  10  10.227903  -1.597877   2.758643   0.000866   0.587791   0.001473
 889  10   9.192747  -0.468700   3.621976   0.000720   0.303421   0.002372
 890  25   8.515326  -1.352282  -3.710020  -0.000224   0.215395  -0.001039
 891  25   9.436714  -2.345438  -2.964003  -0.001208   0.443245  -0.002725
 892  10   9.618028  -0.899498  -3.330594   0.000898   0.587767   0.001527
 893  10  10.549108  -2.023181  -2.349716   0.000707   0.303407   0.002330
 894  26   8.180604   4.204032  -1.499977  -0.000072   0.066903  -0.001080
 895  26   9.220146   4.459027  -1.369566  -0.000150   0.147446  -0.001019
 896  26  10.482375   4.225062  -1.608139  -0.000219   0.147446  -0.001486
 897  26  11.305893   3.428295  -2.234124  -0.000267   0.147446  -0.001810
 898  26  11.372233   2.376847  -3.005444  -0.000169   0.147446  -0.001146
 899  26  10.655742   1.477329  -3.623817  -0.000188   0.147446  -0.001274
 900  26   9.433496   1.077598  -3.850109  -0.000302   0.147446  -0.002048
 901  10   8.494472   4.321107  -1.014926   0.000133   0.147718   0.000898
 902  10   9.957548   4.430673  -1.013433   0.000095   0.147718   0.000642
 903  10  11.190497   3.821376  -1.524501  -0.000028   0.147718  -0.000187
 904  10  11.716520   2.728838  -2.350491   0.000037   0.147718   0.000249
 905  10  11.332195   1.575562  -3.171981   0.000106   0.147718   0.000721
 906  10  10.186147   0.807536  -3.671288  -0.000105   0.147718  -0.000712
 907  10   9.013121   0.620144  -3.745174   0.000012   0.081737   0.000150
 908  27   9.016676   1.040044   3.854959  -0.000086   0.066903  -0.001292
 909  27  10.081402   1.199613   3.795493  -0.000220   0.147445  -0.001493
 910  27  11.101228   1.883159   3.351030  -0.000181   0.147445  -0.001226
 911  27  11.443137   2.909522   2.619932  -0.000208   0.147445  -0.001407
 912  27  10.974914   3.881808   1.884913  -0.000252   0.147445  -0.001708
 913  27   9.877620   4.424038   1.430203  -0.000163   0.147445  -0.001107
 914  27   8.575577   4.326531   1.431639  -0.000253   0.147445  -0.001713
 915  10   9.459106   0.670343   3.732199  -0.000141   0.147718  -0.000957
 916  10  10.832420   1.119572   3.477766   0.000084   0.147718   0.000570
 917  10  11.637382   2.130350   2.782857   0.000078   0.147718   0.000531
 918  10  11.562714   3.311810   1.916192  -0.000022   0.147718  -0.000151
 919  10  10.637291   4.207086   1.212908   0.000028   0.147718   0.000193
 920  10   9.218972   4.469975   0.944965   0.000132   0.147718   0.000894
 921  10   8.067900   4.199567   1.080736   0.000119   0.081737   0.001459
 922  28  11.667199  -1.974781  -1.513583  -0.000098   0.069907  -0.001400
 923  28  12.126195  -1.080805  -2.022362  -0.000298   0.155630  -0.001917
 924  28  12.745985   0.126251  -1.916653  -0.000167   0.155630  -0.001073
 925  28  13.204556   1.019230  -0.997632  -0.000310   0.155630  -0.001994
 926  28  13.307290   1.219153   0.344671  -0.000330   0.155630  -0.002120
 927  28  13.010588   0.641171   1.540583  -0.000202   0.155630  -0.001298
 928  28  12.440370  -0.469419   2.082560  -0.000233   0.155630  -0.001500
 929  28  11.838635  -1.641285   1.740588  -0.000340   0.155630  -0.002182
 930  10  11.475635  -1.615042  -1.955637  -0.000140   0.152843  -0.000916
 931  10  12.151501  -0.298717  -2.339832  -0.000035   0.152843  -0.000227
 932  10  12.792081   0.948771  -1.731110   0.000077   0.152843   0.000506
 933  10  13.125514   1.597989  -0.387811  -0.000108   0.152843  -0.000707
 934  10  13.010291   1.373410   1.119968  -0.000095   0.152843  -0.000619
 935  10  12.495313   0.370345   2.152330   0.000073   0.152843   0.000479
 936  10  11.799136  -0.985507   2.271139  -0.000059   0.152843  -0.000385
 937  10  11.289301  -1.978368   1.723685  -0.000003   0.085407  -0.000034
 938  16  -5.931692  -4.452908   2.012785   0.000220   0.249413   0.000883
 939  16  -5.886190  -3.934439   2.965051  -0.000411   0.498566  -0.000825
 940  16  -5.788448  -2.794746   3.634989  -0.000352   0.498566  -0.000707
 941  11  -4.316161  -4.415099   2.386422  -0.001014   0.498566  -0.002034
 942  11  -4.241718  -3.556460   3.393629  -0.001294   0.498566  -0.002596
 943  11  -4.154173  -2.530825   3.737288  -0.000310   0.249413  -0.001242
 944  20   0.782346  -2.681638   3.749907  -0.000777   0.253603  -0.003063
 945  20   0.782356  -3.742825   3.380689  -0.002312   0.507033  -0.004560
 946  20   0.782402  -4.603520   2.314583  -0.001781   0.507033  -0.003512
 947  11  -0.782627  -3.096409   3.636699  -0.002176   0.507033  -0.004291
 948  11  -0.782601  -4.265468   2.922081  -0.002158   0.507033  -0.004255
 949  11  -0.782555  -4.769661   1.917975  -0.000507   0.253603  -0.002001
 950  15  -5.754513  -2.395101  -3.739986   0.000058   0.249404   0.000231
 951  15  -5.842061  -3.420664  -3.396334  -0.000448   0.498548  -0.000899
 952  15  -5.916493  -4.279266  -2.389201  -0.000129   0.498548  -0.000259
 953  12  -4.188308  -2.930485  -3.632597  -0.001202   0.498548  -0.002412
 954  12  -4.286048  -4.070106  -2.962695  -0.001198   0.498548  -0.002403
 955  12  -4.331536  -4.588568  -2.010503  -0.000087   0.249404  -0.000350
 956  21   0.782541  -4.769623  -1.918036  -0.000508   0.253598  -0.002003
 957  21   0.782582  -4.265422  -2.922113  -0.002158   0.507024  -0.004256
 958  21   0.782604  -3.096381  -3.636710  -0.002175   0.507024  -0.004289
 959  12  -0.782427  -4.603477  -2.314624  -0.001783   0.507024  -0.003517
 960  12  -0.782386  -3.742785  -3.380698  -0.002312   0.507024  -0.004560
 961  12  -0.782378  -2.681619  -3.749907  -0.000777   0.253598  -0.003063
 962  17  -7.780156   1.807114   3.775808  -0.000003   0.251408  -0.000010
 963  17  -7.657888   2.889470   3.442241  -0.000659   0.502731  -0.001310
 964  17  -7.558594   3.792803   2.392433  -0.000217   0.502731  -0.000432
 965  13  -6.220955   2.056872   3.671811  -0.000468   0.502731  -0.000932
 966  13  -6.086200   3.259549   2.991092  -0.000439   0.502731  -0.000872
 967  13  -6.028022   3.800889   1.990455   0.000212   0.251408   0.000845
 968  18  -7.539578   3.973302  -1.995799   0.000250   0.251405   0.000996
 969  18  -7.597815   3.431986  -2.996411  -0.000585   0.502726  -0.001163
 970  18  -7.732597   2.229353  -3.677129  -0.000523   0.502726  -0.001041
 971  14  -6.047335   3.620440  -2.387084  -0.000184   0.502726  -0.000365
 972  14  -6.146685   2.717144  -3.436871  -0.000593   0.502726  -0.001180
 973  14  -6.268960   1.634826  -3.770450   0.000015   0.251405   0.000058
 974  24   5.754498  -2.395118   3.739984   0.000058   0.249405   0.000231
 975  24   5.842050  -3.420681   3.396331  -0.000448   0.498550  -0.000899
 976  24   5.916483  -4.279281   2.389195  -0.000129   0.498550  -0.000258
 977  20   4.188289  -2.930509   3.632597  -0.001202   0.498550  -0.002411
 978  20   4.286032  -4.070128   2.962693  -0.001197   0.498550  -0.002402
 979  20   4.331521  -4.588589   2.010500  -0.000086   0.249405  -0.000347
 980  25   5.931677  -4.452879  -2.012852   0.000220   0.249410   0.000883
 981  25   5.886177  -3.934391  -2.965096  -0.000411   0.498559  -0.000825
 982  25   5.788439  -2.794698  -3.635007  -0.000352   0.498559  -0.000706
 983  21   4.316151  -4.415058  -2.386485  -0.001014   0.498559  -0.002034
 984  21   4.241711  -3.556405  -3.393664  -0.001294   0.498559  -0.002595
 985  21   4.154169  -2.530776  -3.737303  -0.000309   0.249410  -0.001240
 986  26   7.780148   1.807137  -3.775800  -0.000002   0.251408  -0.000010
 987  26   7.657878   2.889486  -3.442229  -0.000658   0.502732  -0.001310
 988  26   7.558583   3.792811  -2.392420  -0.000217   0.502732  -0.000431
 989  22   6.220937   2.056887  -3.671800  -0.000468   0.502732  -0.000931
 990  22   6.086180   3.259556  -2.991078  -0.000438   0.502732  -0.000871
 991  22   6.028001   3.800889  -1.990442   0.000213   0.251408   0.000847
 992  27   7.539578   3.973297   1.995824   0.000251   0.251405   0.000998
 993  27   7.597811   3.431980   2.996427  -0.000584   0.502725  -0.001162
 994  27   7.732585   2.229353   3.677141  -0.000523   0.502725  -0.001040
 995  23   6.047324   3.620445   2.387106  -0.000183   0.502725  -0.000363
 996  23   6.146668   2.717150   3.436886  -0.000593   0.502725  -0.001179
 997  23   6.268936   1.634838   3.770462   0.000015   0.251405   0.000059
 =====================================================


   1 warning(s) detected.
     A line exceeding 80 characters begins with "http://cactus.nci.ni".
 There may be a problem in your input file.

              7886121  WORDS OF DYNAMIC MEMORY USED
 EXECUTION OF GAMESS TERMINATED NORMALLY Wed Nov 23 23:19:24 2016
 DDI: 263640 bytes (0.3 MB / 0 MWords) used by master data server.

 ----------------------------------------
 CPU timing information for all processes
 ========================================
 0: 2397.16 + 0.728 = 2397.744
 ----------------------------------------
 ddikick.x: exited gracefully.
